FOO
135168
    1MOL0     O    1   9.146  11.349   7.760  0.0424 -0.7468  0.2066
    1MOL0     C    2   9.146  11.435   7.672  0.5591  0.3171  0.5283
    1MOL0     O    3   9.227  11.451   7.567  0.0580  0.4216 -0.2413
    1MOL0     C    4   9.352  11.398   7.560 -0.1139 -0.1653  0.5836
    1MOL0     C    5   9.414  11.415   7.435 -1.3673 -1.1138 -0.0955
    1MOL0     C    6   9.553  11.384   7.421 -0.2126 -0.4811 -0.1272
    1MOL0     C    7   9.617  11.311   7.525  0.0570 -0.2046 -0.1122
    1MOL0     O    8   9.751  11.291   7.553 -0.3965 -0.7439  1.3073
    1MOL0     C    9   9.845  11.307   7.443  0.7304 -0.0581 -0.1644
    1MOL0     C   10   9.969  11.201   7.453 -0.9158  0.0955 -0.3167
    1MOL0     C   11  10.072  11.238   7.348  0.7241  0.0148  0.2581
    1MOL0     C   12  10.179  11.128   7.321 -0.1607  0.5692  0.0384
    1MOL0     C   13  10.269  11.174   7.204  0.4072 -0.4949  0.2251
    1MOL0     C   14  10.373  11.068   7.160 -0.4258 -0.4876 -0.9317
    1MOL0     C   15  10.437  11.089   7.018  0.4927 -0.2949  0.7061
    1MOL0     C   16  10.481  11.233   6.982 -0.0691 -0.0194 -0.4925
    1MOL0     N   17  10.602  11.275   7.058  0.6643  0.5991 -0.1433
    1MOL0     C   18  10.612  11.363   7.156  0.2575  0.3380  0.4303
    1MOL0     C   19  10.745  11.359   7.188 -0.0108 -0.3012 -0.1588
    1MOL0     C   20  10.806  11.457   7.290  0.0290 -0.3653 -0.0722
    1MOL0     C   21  10.929  11.521   7.228  0.6411  0.3101 -0.0172
    1MOL0     C   22  10.977  11.618   7.334 -0.6144 -0.1079 -0.1177
    1MOL0     C   23  11.075  11.721   7.285  0.4649 -0.4049 -0.2589
    1MOL0     O   24  11.203  11.681   7.317 -0.1749 -0.2643 -0.1645
    1MOL0     C   25  11.271  11.613   7.219 -0.3517 -0.3868  0.9751
    1MOL0     C   26  11.332  11.686   7.119  0.0244  0.1262  0.4641
    1MOL0     C   27  11.395  11.630   7.005 -1.1515  1.2053 -0.4299
    1MOL0     C   28  11.404  11.488   7.007  0.3148  0.2850  1.0462
    1MOL0     C   29  11.447  11.409   6.888 -0.5042 -0.5677 -0.0064
    1MOL0     O   30  11.479  11.486   6.786  0.1066  0.6763 -0.4498
    1MOL0     C   31  11.544  11.448   6.678 -1.0451 -0.0198  0.5697
    1MOL0     C   32  11.491  11.486   6.548 -0.1959  0.3294 -0.1926
    1MOL0     C   33  11.564  11.470   6.433  0.0877 -0.1321  1.5416
    1MOL0     C   34  11.682  11.394   6.425 -0.2965  0.6300 -0.1938
    1MOL0     O   35  11.746  11.377   6.299  0.1228 -0.0183  0.5705
    1MOL0     C   36  11.881  11.326   6.307 -0.9664 -0.0779 -0.2829
    1MOL0     C   37  11.941  11.319   6.170  0.1617 -0.5935  0.6836
    1MOL0     C   38  12.078  11.286   6.198  0.2698  0.4474  0.0936
    1MOL0     C   39  12.159  11.279   6.065  0.2172  0.1500 -0.5714
    1MOL0     C   40  12.309  11.235   6.082  0.6275 -0.3334 -0.1130
    1MOL0     C   41  12.382  11.355   6.138 -0.1789  1.0435  0.3244
    1MOL0     C   42  12.423  11.466   6.038  0.3637  0.5550 -0.2520
    1MOL0     C   43  12.529  11.429   5.930  0.3549  0.2253 -0.3112
    1MOL0    Cl   44  12.681  11.410   6.013  0.1021  0.1008 -0.0385
    1MOL0     C   45  11.720  11.341   6.549 -0.1930  0.0071 -0.2882
    1MOL0     C   46  11.655  11.360   6.672  1.0750  1.0189 -0.1436
    1MOL0     O   47  11.448  11.289   6.888 -0.9465 -0.2888 -0.3598
    1MOL0     C   48  11.348  11.416   7.111  0.5253 -0.0367 -0.6137
    1MOL0     C   49  11.267  11.472   7.216  0.4624 -0.0693 -0.6296
    1MOL0     N   50  10.805  11.262   7.112  0.1502 -0.6527  0.8766
    1MOL0     N   51  10.717  11.206   7.040 -0.3202  0.2157 -0.4103
    1MOL0     C   52   9.542  11.275   7.642  0.4219  0.1966  0.4886
    1MOL0     C   53   9.417  11.329   7.660  0.1418 -0.6217  0.5790
    1MOL0     C   54   9.039  11.536   7.677 -0.6946 -0.3733  0.0530
    1MOL0     C   55   9.044  11.657   7.596 -1.2041  0.3080  0.6191
    1MOL0     C   56   8.941  11.755   7.598 -0.9545 -0.3608  0.3998
    1MOL0     C   57   8.832  11.732   7.677  1.0511 -0.3820 -0.8434
    1MOL0     O   58   8.752  11.842   7.697 -0.4442  0.9578 -0.4821
    1MOL0     C   59   8.634  11.825   7.769  0.0716 -0.9210 -1.2422
    1MOL0     C   60   8.529  11.773   7.670  0.3057 -0.7060  0.8385
    1MOL0     C   61   8.398  11.749   7.747  0.1879  0.8212 -0.0522
    1MOL0     C   62   8.386  11.623   7.845  0.0436 -0.0225  0.7592
    1MOL0     C   63   8.291  11.658   7.958 -0.3139 -0.9692 -0.0071
    1MOL0     C   64   8.210  11.686   8.041  0.1323 -0.4851 -0.3693
    1MOL0     C   65   8.821  11.613   7.752  0.3891  1.0994 -0.1295
    1MOL0     C   66   8.920  11.512   7.749 -0.1324 -0.0745  0.5016
    1MOL0     H   67   9.372  11.493   7.373  3.7995  0.7707 -1.7786
    1MOL0     H   68   9.611  11.415   7.335  3.9211 -0.3674  2.4527
    1MOL0     H   69   9.885  11.409   7.441  1.1617 -0.2274 -0.5114
    1MOL0     H   70   9.805  11.280   7.345  2.6811 -1.7851 -0.5583
    1MOL0     H   71   9.932  11.099   7.441  1.1527 -0.7515  0.1194
    1MOL0     H   72  10.017  11.220   7.549  1.0624  1.8591 -1.5541
    1MOL0     H   73  10.138  11.316   7.387  0.8518 -0.7981  1.7705
    1MOL0     H   74  10.026  11.281   7.259  0.9188 -1.9847 -0.8612
    1MOL0     H   75  10.229  11.097   7.413 -1.2672 -0.0553  0.4586
    1MOL0     H   76  10.126  11.036   7.294  0.3351  0.6691 -1.3669
    1MOL0     H   77  10.332  11.264   7.211 -0.6775  0.5691 -2.3756
    1MOL0     H   78  10.204  11.198   7.120  0.8064 -0.2638 -0.0240
    1MOL0     H   79  10.308  10.980   7.160 -3.3807  1.5089  1.4865
    1MOL0     H   80  10.462  11.058   7.223  0.8301 -0.8058 -2.6661
    1MOL0     H   81  10.524  11.023   7.021  1.8175  1.3629  0.4524
    1MOL0     H   82  10.366  11.065   6.939 -0.0763 -0.1840  1.1686
    1MOL0     H   83  10.408  11.313   6.993 -0.2543 -0.1510 -0.7301
    1MOL0     H   84  10.493  11.228   6.873 -3.0141  1.6624 -1.0096
    1MOL0     H   85  10.530  11.419   7.198 -0.3239  1.5192 -2.1112
    1MOL0     H   86  10.822  11.405   7.385 -1.9986 -1.1589 -0.1261
    1MOL0     H   87  10.733  11.533   7.319  0.1368 -0.1121 -0.4602
    1MOL0     H   88  10.905  11.564   7.130  2.3298 -0.6606 -0.9139
    1MOL0     H   89  11.001  11.441   7.206  1.2466  0.4104  1.4435
    1MOL0     H   90  10.890  11.671   7.375  0.3832  2.0532 -0.6289
    1MOL0     H   91  11.024  11.563   7.416 -1.7812 -0.9047  0.0331
    1MOL0     H   92  11.062  11.810   7.347  0.7324 -0.2572 -0.4115
    1MOL0     H   93  11.058  11.754   7.182 -2.4771  1.3697  0.6517
    1MOL0     H   94  11.320  11.793   7.113  2.2899  0.4449  0.7495
    1MOL0     H   95  11.411  11.690   6.916 -0.5038 -2.2610 -2.8313
    1MOL0     H   96  11.390  11.526   6.551  0.7637  2.9719  1.5198
    1MOL0     H   97  11.516  11.489   6.337 -0.9111  2.0440  2.4164
    1MOL0     H   98  11.866  11.225   6.347 -2.1443  0.5590  0.9648
    1MOL0     H   99  11.938  11.387   6.377  1.3298 -0.9966 -1.2515
    1MOL0     H  100  11.943  11.418   6.125  3.7993 -0.5081  0.7509
    1MOL0     H  101  11.888  11.247   6.106  0.8322  1.0411 -1.8786
    1MOL0     H  102  12.066  11.192   6.252 -2.2519 -0.7536 -2.2664
    1MOL0     H  103  12.116  11.369   6.259 -0.8003  0.4209  0.8297
    1MOL0     H  104  12.099  11.207   6.008  0.9182 -2.2441  1.5202
    1MOL0     H  105  12.151  11.379   6.023 -4.0446 -0.0946 -0.7768
    1MOL0     H  106  12.346  11.211   5.982 -0.4922 -1.7319 -0.2301
    1MOL0     H  107  12.315  11.149   6.149  0.3567  0.4074  0.8914
    1MOL0     H  108  12.471  11.318   6.190 -0.0602 -0.2230 -0.7149
    1MOL0     H  109  12.319  11.399   6.216 -0.7124  0.5871  0.1500
    1MOL0     H  110  12.328  11.487   5.989 -1.4047 -0.0359  2.7321
    1MOL0     H  111  12.467  11.546   6.098 -1.9810  0.8250  1.2106
    1MOL0     H  112  12.529  11.512   5.859 -3.8004  0.8496  0.1230
    1MOL0     H  113  12.501  11.334   5.884  1.8564 -1.9563  2.9091
    1MOL0     H  114  11.810  11.281   6.557 -0.2657  0.0455  0.9876
    1MOL0     H  115  11.692  11.301   6.755 -0.4057  1.5690  0.9378
    1MOL0     H  116  11.345  11.307   7.113 -2.1934 -0.0229  1.3490
    1MOL0     H  117  11.222  11.421   7.300  1.7020  1.7657  1.2409
    1MOL0     H  118   9.593  11.227   7.725  0.7704  2.1418  1.4687
    1MOL0     H  119   9.373  11.322   7.758 -1.0543  0.5687  0.1616
    1MOL0     H  120   9.134  11.658   7.535  0.8507 -0.1332  3.4184
    1MOL0     H  121   8.965  11.850   7.551  0.3802  2.0924  5.3689
    1MOL0     H  122   8.630  11.928   7.804 -0.0207 -1.3570  0.0557
    1MOL0     H  123   8.644  11.761   7.857  0.8871 -3.5367 -3.1078
    1MOL0     H  124   8.507  11.852   7.597  1.9937 -0.3096  0.7218
    1MOL0     H  125   8.555  11.681   7.617 -0.6896 -0.9217  0.6982
    1MOL0     H  126   8.316  11.767   7.676 -0.6043  1.8105  1.0775
    1MOL0     H  127   8.371  11.837   7.806 -0.8197 -0.9732  2.3730
    1MOL0     H  128   8.332  11.543   7.794 -1.6089  2.9109 -2.6078
    1MOL0     H  129   8.485  11.591   7.880  0.4166 -1.6912 -1.5859
    1MOL0     H  130   8.129  11.711   8.106  2.2892 -1.7698  3.0375
    1MOL0     H  131   8.738  11.586   7.816 -1.7410  0.3324 -2.9939
    1MOL0     H  132   8.920  11.420   7.807 -0.3348  0.8421  2.0302
    2MOL0     O  133   0.946   6.113   6.954 -0.0981  0.2609 -0.2055
    2MOL0     C  134   0.977   6.183   7.053  0.3574  0.2794 -0.5567
    2MOL0     O  135   0.902   6.296   7.097 -0.1825 -0.0557 -0.1575
    2MOL0     C  136   0.793   6.331   7.018 -0.6248 -0.6955 -0.3643
    2MOL0     C  137   0.809   6.415   6.902 -0.4234 -0.2875  0.7143
    2MOL0     C  138   0.688   6.463   6.839 -0.5070  0.1922 -0.4798
    2MOL0     C  139   0.571   6.401   6.872  0.7046 -1.1876  0.1975
    2MOL0     O  140   0.446   6.446   6.836  0.3162 -0.0489  0.5454
    2MOL0     C  141   0.435   6.520   6.710  0.0697  1.2669  0.0270
    2MOL0     C  142   0.282   6.556   6.705 -0.7682 -1.0728 -0.2092
    2MOL0     C  143   0.278   6.698   6.649 -0.1547 -0.1982  0.9406
    2MOL0     C  144   0.296   6.800   6.762  0.7830 -1.3922 -0.0272
    2MOL0     C  145   0.236   6.934   6.706 -0.2637 -0.8485 -0.2791
    2MOL0     C  146   0.229   7.038   6.818 -0.5728  0.6197 -0.2698
    2MOL0     C  147   0.361   7.042   6.906  0.5808 -1.0292  0.5291
    2MOL0     C  148   0.363   7.167   6.999  0.7232  0.3763 -0.3193
    2MOL0     N  149   0.459   7.146   7.105 -1.2311 -0.5025 -0.0592
    2MOL0     C  150   0.442   7.159   7.238  0.1072 -0.0321  0.5697
    2MOL0     C  151   0.569   7.141   7.295  0.2718  0.8132  0.6921
    2MOL0     C  152   0.605   7.126   7.436  0.6634  0.4678 -0.0740
    2MOL0     C  153   0.689   6.996   7.461  0.1954  0.7415  0.5462
    2MOL0     C  154   0.657   6.930   7.593 -0.1977  0.1743 -0.6334
    2MOL0     C  155   0.526   6.844   7.593 -1.3568 -0.1216  1.3027
    2MOL0     O  156   0.402   6.922   7.577 -0.8018 -0.0732 -0.2263
    2MOL0     C  157   0.284   6.859   7.556  0.5831 -0.0417  0.0382
    2MOL0     C  158   0.268   6.724   7.560 -0.2175  1.0377 -0.0135
    2MOL0     C  159   0.151   6.658   7.526  0.3030 -0.3586 -0.0788
    2MOL0     C  160   0.035   6.737   7.497 -0.1800  0.2331  1.2464
    2MOL0     C  161  -0.101   6.694   7.474 -0.7596 -0.2553  0.1366
    2MOL0     O  162  -0.203   6.785   7.494 -0.8596  0.4506  0.4317
    2MOL0     C  163  -0.326   6.755   7.460  0.9309  0.1790 -0.3434
    2MOL0     C  164  -0.400   6.831   7.371 -1.2951 -0.4817  0.4659
    2MOL0     C  165  -0.535   6.802   7.332 -0.6005 -0.1537 -0.7017
    2MOL0     C  166  -0.608   6.701   7.400 -0.4112 -0.2480 -1.2747
    2MOL0     O  167  -0.740   6.683   7.367 -0.0800 -0.1606 -0.2803
    2MOL0     C  168  -0.794   6.552   7.378 -0.1415  0.8498 -0.4648
    2MOL0     C  169  -0.881   6.526   7.255  0.3923  0.3707 -0.3644
    2MOL0     C  170  -0.926   6.379   7.257  0.1859  0.4843 -0.5427
    2MOL0     C  171  -1.043   6.338   7.361  0.4328 -0.4767 -0.7682
    2MOL0     C  172  -1.179   6.382   7.313  0.5772  0.4242  0.5936
    2MOL0     C  173  -1.223   6.304   7.191 -0.2840  0.1272 -0.7150
    2MOL0     C  174  -1.364   6.317   7.167 -0.8163 -0.7951  0.0614
    2MOL0     C  175  -1.419   6.207   7.069 -0.7359 -0.3089  0.2110
    2MOL0    Cl  176  -1.405   6.040   7.144 -0.1342 -0.4138  0.3861
    2MOL0     C  177  -0.543   6.632   7.498 -0.5505 -0.1190 -0.3682
    2MOL0     C  178  -0.406   6.653   7.522 -1.1358 -0.9750 -0.3773
    2MOL0     O  179  -0.118   6.580   7.429 -0.4510  0.0070  0.1532
    2MOL0     C  180   0.055   6.883   7.496 -0.5131  0.5714  0.2748
    2MOL0     C  181   0.178   6.944   7.524 -0.6949  0.7208 -0.2576
    2MOL0     N  182   0.652   7.135   7.191 -1.6412 -0.0453  0.1842
    2MOL0     N  183   0.589   7.139   7.079  0.1954 -0.4983  0.6299
    2MOL0     C  184   0.558   6.297   6.965  1.2863  0.3597  0.1053
    2MOL0     C  185   0.670   6.280   7.041 -0.2624  0.5354 -0.7442
    2MOL0     C  186   1.099   6.148   7.127  0.1850 -0.0525 -0.6994
    2MOL0     C  187   1.136   6.200   7.251 -0.0349  0.2553 -0.6092
    2MOL0     C  188   1.257   6.166   7.311  0.4548 -0.2328 -0.4444
    2MOL0     C  189   1.346   6.067   7.258 -0.1952 -0.5752  0.1918
    2MOL0     O  190   1.456   6.029   7.327  0.0674 -0.1450 -0.2065
    2MOL0     C  191   1.541   5.921   7.286  0.1538 -0.2986 -0.3900
    2MOL0     C  192   1.661   5.951   7.367  0.4050  0.7038 -0.2882
    2MOL0     C  193   1.780   5.860   7.342 -0.6381  0.7014  0.8294
    2MOL0     C  194   1.856   5.825   7.472  0.4011  0.1690 -0.5430
    2MOL0     C  195   1.921   5.942   7.520  0.7217  0.2913 -0.1706
    2MOL0     C  196   1.958   6.056   7.552  0.1442 -0.0772  0.3529
    2MOL0     C  197   1.301   6.010   7.140 -0.3770 -0.0850  1.1317
    2MOL0     C  198   1.180   6.053   7.073  0.3796  0.0730  0.5729
    2MOL0     H  199   0.905   6.464   6.887 -0.1212 -1.2303 -0.6646
    2MOL0     H  200   0.700   6.532   6.756  1.1264  1.2162  0.5354
    2MOL0     H  201   0.457   6.451   6.628  1.7122 -0.8602  2.1210
    2MOL0     H  202   0.500   6.608   6.715 -0.9448  2.0367  0.0996
    2MOL0     H  203   0.219   6.551   6.794 -2.2415 -1.3594 -1.2372
    2MOL0     H  204   0.227   6.489   6.637  1.0733 -0.1262 -2.7893
    2MOL0     H  205   0.175   6.702   6.611  0.1612 -0.2258  0.0431
    2MOL0     H  206   0.354   6.709   6.571  1.5700 -4.7165  1.6902
    2MOL0     H  207   0.249   6.777   6.858  1.7238  5.4752  2.6073
    2MOL0     H  208   0.399   6.817   6.795  1.3325 -1.7237 -1.4645
    2MOL0     H  209   0.131   6.913   6.684 -0.9156 -0.4254  2.1000
    2MOL0     H  210   0.290   6.966   6.616 -0.8558 -0.5475 -0.5290
    2MOL0     H  211   0.147   6.994   6.875 -0.6882 -1.5693 -1.9642
    2MOL0     H  212   0.199   7.136   6.780  2.9937  1.5657 -1.0502
    2MOL0     H  213   0.376   6.954   6.969 -0.0951 -2.0675 -0.7087
    2MOL0     H  214   0.450   7.037   6.842  0.3802 -1.2514  0.2634
    2MOL0     H  215   0.263   7.178   7.041 -0.0515 -1.3509 -1.5352
    2MOL0     H  216   0.381   7.255   6.937 -3.9029  3.0301  1.6574
    2MOL0     H  217   0.350   7.158   7.295  0.7683  2.6093  1.8170
    2MOL0     H  218   0.516   7.140   7.497  1.7230 -1.2578  2.0328
    2MOL0     H  219   0.663   7.210   7.476  0.3436 -0.7770  3.3219
    2MOL0     H  220   0.792   7.027   7.441  0.7686 -1.1056  0.5105
    2MOL0     H  221   0.664   6.918   7.388  3.6876  0.9994 -1.1333
    2MOL0     H  222   0.737   6.859   7.613 -0.0634 -0.2494 -2.5390
    2MOL0     H  223   0.644   7.008   7.669 -4.7410 -0.8288 -0.0338
    2MOL0     H  224   0.522   6.797   7.692 -1.6727  2.6821  2.6997
    2MOL0     H  225   0.534   6.768   7.514  3.4099  0.4710  0.9130
    2MOL0     H  226   0.351   6.665   7.599 -0.2791 -0.1412 -1.5819
    2MOL0     H  227   0.153   6.550   7.528  0.1987 -0.4293 -1.9622
    2MOL0     H  228  -0.355   6.915   7.319  1.1298 -1.7251  0.4180
    2MOL0     H  229  -0.579   6.859   7.250 -0.6600  0.0960 -0.4968
    2MOL0     H  230  -0.852   6.543   7.470  0.6736  2.2376  0.2147
    2MOL0     H  231  -0.720   6.472   7.389 -1.4645 -0.3818 -0.1156
    2MOL0     H  232  -0.818   6.553   7.169  2.0048  1.9649  1.2312
    2MOL0     H  233  -0.973   6.586   7.256  0.4072  1.0037  5.9854
    2MOL0     H  234  -0.837   6.323   7.287  1.1089  1.1991 -1.8748
    2MOL0     H  235  -0.962   6.357   7.156 -1.1515  3.5873 -0.8691
    2MOL0     H  236  -1.042   6.233   7.391  1.1374 -0.3867 -0.4482
    2MOL0     H  237  -1.016   6.400   7.446 -0.7782 -0.7787 -0.1396
    2MOL0     H  238  -1.172   6.490   7.301 -1.6445  0.8115  2.1671
    2MOL0     H  239  -1.246   6.356   7.395 -2.0761  1.5290 -1.1071
    2MOL0     H  240  -1.198   6.199   7.208 -0.8624  0.0621 -0.2177
    2MOL0     H  241  -1.168   6.343   7.105  2.4647 -2.7285 -0.4061
    2MOL0     H  242  -1.418   6.314   7.262  0.5888 -2.3998  0.8701
    2MOL0     H  243  -1.388   6.412   7.118 -3.6765 -1.1755  0.5584
    2MOL0     H  244  -1.348   6.204   6.986 -0.3179 -0.3830  0.5690
    2MOL0     H  245  -1.519   6.233   7.031 -0.0049  1.9508 -0.2675
    2MOL0     H  246  -0.598   6.553   7.549 -0.1114  0.2140  0.6555
    2MOL0     H  247  -0.365   6.598   7.606 -1.0605 -1.2189 -0.5745
    2MOL0     H  248  -0.027   6.947   7.466 -0.8457 -0.4424 -1.0845
    2MOL0     H  249   0.202   7.050   7.527  0.2292  0.5645  3.9472
    2MOL0     H  250   0.470   6.241   6.996  3.4825 -1.9397  2.7986
    2MOL0     H  251   0.656   6.210   7.123  0.6059  1.1550 -0.0425
    2MOL0     H  252   1.089   6.280   7.308  0.8217  1.0204 -0.9561
    2MOL0     H  253   1.278   6.207   7.409 -0.0362  1.7895 -1.1401
    2MOL0     H  254   1.568   5.922   7.180 -1.2311  0.5095 -0.7504
    2MOL0     H  255   1.486   5.831   7.314 -0.2503  0.5186  1.6603
    2MOL0     H  256   1.700   6.051   7.347 -0.7433  1.6836  2.0206
    2MOL0     H  257   1.646   5.947   7.475  3.5794 -1.9793  0.2300
    2MOL0     H  258   1.850   5.906   7.272 -0.4290  2.2430  1.9961
    2MOL0     H  259   1.750   5.763   7.301  1.1810  0.5009 -0.1147
    2MOL0     H  260   1.790   5.782   7.548  0.1095 -2.0779 -1.9795
    2MOL0     H  261   1.937   5.753   7.460  2.8013  2.1891  1.9974
    2MOL0     H  262   1.975   6.158   7.579 -1.2541  0.1438  0.4700
    2MOL0     H  263   1.369   5.940   7.093  0.5378  1.0093  0.7802
    2MOL0     H  264   1.145   6.004   6.983 -1.0998 -0.8012  1.5837
    3MOL0     O  265  11.232   2.941   4.905  0.1412 -0.0957  0.1430
    3MOL0     C  266  11.280   3.044   4.851  0.2136  0.8132  0.0675
    3MOL0     O  267  11.403   3.109   4.873 -0.1837  0.0698 -0.9421
    3MOL0     C  268  11.505   3.056   4.949  0.5722  0.7928 -1.1988
    3MOL0     C  269  11.624   3.128   4.965 -0.7075 -0.1352 -1.1075
    3MOL0     C  270  11.716   3.077   5.057 -0.3369  0.2274 -0.3476
    3MOL0     C  271  11.697   2.954   5.121 -0.3287  0.1952  0.5504
    3MOL0     O  272  11.788   2.894   5.204 -0.6757 -0.1471  0.6292
    3MOL0     C  273  11.908   2.960   5.241 -0.6312 -0.4864  0.4544
    3MOL0     C  274  12.014   2.965   5.124 -0.7839  0.0565  0.0381
    3MOL0     C  275  12.153   3.002   5.174  0.1343 -0.4642  0.3659
    3MOL0     C  276  12.262   2.994   5.074 -1.6855  0.7617  0.2155
    3MOL0     C  277  12.393   2.955   5.143 -0.0612  0.3978  0.0976
    3MOL0     C  278  12.436   3.054   5.248  1.3305  0.4639  0.2083
    3MOL0     C  279  12.579   3.014   5.296  0.1145 -0.1971  0.9497
    3MOL0     C  280  12.625   3.083   5.428 -0.2979 -0.8415  0.2062
    3MOL0     N  281  12.630   3.226   5.404  0.3777  0.4173  0.2607
    3MOL0     C  282  12.530   3.314   5.437  0.1189 -0.0946  0.4230
    3MOL0     C  283  12.571   3.436   5.393  1.1667 -0.2240 -0.0371
    3MOL0     C  284  12.513   3.578   5.408  0.3440 -0.1880  1.2354
    3MOL0     C  285  12.503   3.643   5.541  0.6211  0.7222 -0.1177
    3MOL0     C  286  12.418   3.774   5.536 -0.3012  0.1352 -0.3282
    3MOL0     C  287  12.263   3.754   5.497 -0.1929  0.6882 -0.3449
    3MOL0     O  288  12.185   3.686   5.606 -0.4530  0.6158  0.3822
    3MOL0     C  289  12.049   3.676   5.600 -0.4182 -0.1662  0.8259
    3MOL0     C  290  11.983   3.604   5.697 -0.2902  0.3355 -0.7560
    3MOL0     C  291  11.844   3.601   5.701 -0.4451 -0.2581  0.2804
    3MOL0     C  292  11.760   3.663   5.604 -0.0626  0.3398  0.6368
    3MOL0     C  293  11.611   3.662   5.590  0.4162 -0.2489 -0.5993
    3MOL0     O  294  11.561   3.651   5.467 -1.3185  0.7068 -0.3368
    3MOL0     C  295  11.425   3.658   5.446  0.6623  0.4827 -0.0012
    3MOL0     C  296  11.370   3.573   5.355 -0.2071  0.0839  0.0872
    3MOL0     C  297  11.234   3.591   5.313 -0.0543  0.4514 -0.1620
    3MOL0     C  298  11.157   3.698   5.366 -0.0137 -0.4980  0.2229
    3MOL0     O  299  11.032   3.710   5.312 -0.2836  1.0880 -0.6271
    3MOL0     C  300  11.002   3.843   5.272 -0.5781  0.5089 -0.5411
    3MOL0     C  301  10.884   3.844   5.172  0.0917  0.4149 -0.3098
    3MOL0     C  302  10.922   3.784   5.041 -0.0862 -0.0020 -0.2203
    3MOL0     C  303  11.007   3.872   4.961 -0.6888 -0.1375  0.7029
    3MOL0     C  304  11.097   3.789   4.863  0.9892  0.3317 -0.0299
    3MOL0     C  305  11.210   3.703   4.934  0.2627  0.3857 -0.3797
    3MOL0     C  306  11.279   3.607   4.841  0.1721 -0.0197  0.9184
    3MOL0     C  307  11.331   3.470   4.900  0.4991 -0.5038  0.3368
    3MOL0    Cl  308  11.437   3.504   5.034 -0.3828  0.0754  0.2109
    3MOL0     C  309  11.216   3.778   5.461  0.4472 -0.2326  0.5200
    3MOL0     C  310  11.343   3.760   5.505  0.4147 -0.8477  0.1814
    3MOL0     O  311  11.547   3.664   5.691  0.5243 -0.8088  0.1536
    3MOL0     C  312  11.836   3.719   5.500 -0.0869 -0.5184  0.2202
    3MOL0     C  313  11.978   3.730   5.496  0.1022  1.4269 -0.7445
    3MOL0     N  314  12.697   3.417   5.336  0.1048 -0.4546 -0.1870
    3MOL0     N  315  12.735   3.289   5.350 -0.3214  0.4484  0.3466
    3MOL0     C  316  11.589   2.870   5.089 -0.1719  0.8611 -0.4066
    3MOL0     C  317  11.493   2.918   5.004  0.2156 -2.0768  0.1498
    3MOL0     C  318  11.192   3.103   4.747  0.3104 -0.6112  0.2533
    3MOL0     C  319  11.242   3.195   4.649  0.0087  1.0244 -0.2136
    3MOL0     C  320  11.153   3.265   4.563  0.3222  0.1496  0.3610
    3MOL0     C  321  11.012   3.228   4.558 -0.3922 -0.2473 -0.3778
    3MOL0     O  322  10.922   3.257   4.466  0.3880 -0.6895 -0.9652
    3MOL0     C  323  10.958   3.357   4.367 -1.0182  0.0246 -0.5882
    3MOL0     C  324  10.972   3.502   4.421 -0.0812 -0.5267  0.0147
    3MOL0     C  325  10.942   3.622   4.322  0.1870  0.4437 -0.1188
    3MOL0     C  326  10.976   3.752   4.397 -0.9478 -0.4838  0.3268
    3MOL0     C  327  10.884   3.785   4.504  1.3604  0.1224  0.1254
    3MOL0     C  328  10.784   3.796   4.578 -1.0911 -0.0395  0.3553
    3MOL0     C  329  10.965   3.136   4.651  0.1462  0.2263 -0.2912
    3MOL0     C  330  11.052   3.070   4.739 -0.1297 -0.4659  0.1714
    3MOL0     H  331  11.639   3.218   4.906 -0.0106 -0.2961 -1.1906
    3MOL0     H  332  11.798   3.144   5.082  0.5952 -1.1721  0.4888
    3MOL0     H  333  11.949   2.917   5.334 -2.8051 -0.5128  1.4466
    3MOL0     H  334  11.886   3.065   5.260 -0.2410 -0.1825 -0.6831
    3MOL0     H  335  11.976   3.034   5.048 -0.8925  0.5506  0.5341
    3MOL0     H  336  12.024   2.864   5.081 -3.4185  0.2187 -1.1370
    3MOL0     H  337  12.167   2.935   5.259 -2.5471  2.2004  3.1617
    3MOL0     H  338  12.156   3.106   5.207 -0.0499 -0.5451  0.6453
    3MOL0     H  339  12.244   2.912   5.005  0.1370 -0.2282  0.8558
    3MOL0     H  340  12.265   3.088   5.017 -0.6333 -0.0091 -1.0482
    3MOL0     H  341  12.469   2.951   5.065 -1.8425 -1.6625 -1.6663
    3MOL0     H  342  12.394   2.858   5.194  2.1321  0.7486  0.8085
    3MOL0     H  343  12.375   3.052   5.338 -2.2718  1.2614 -1.9973
    3MOL0     H  344  12.423   3.156   5.209 -0.1397  0.0177 -0.5633
    3MOL0     H  345  12.562   2.908   5.317 -3.1165 -0.0180 -0.2189
    3MOL0     H  346  12.656   3.026   5.220 -0.6498 -3.6828 -0.5493
    3MOL0     H  347  12.721   3.043   5.460 -2.0472 -2.1023  4.6385
    3MOL0     H  348  12.558   3.053   5.509  1.7566 -5.0296  0.6559
    3MOL0     H  349  12.437   3.283   5.484 -0.0353 -1.3486 -0.6526
    3MOL0     H  350  12.417   3.569   5.358  0.7929 -2.3136  0.6827
    3MOL0     H  351  12.573   3.642   5.342 -2.7984  3.7339  1.7400
    3MOL0     H  352  12.605   3.665   5.575  1.6185  2.4808 -3.7322
    3MOL0     H  353  12.456   3.577   5.615  2.6889  2.2571  2.7707
    3MOL0     H  354  12.428   3.823   5.633  2.3306 -2.4751  0.8958
    3MOL0     H  355  12.470   3.839   5.466 -0.3048 -0.9304 -1.3657
    3MOL0     H  356  12.255   3.694   5.405 -2.9581  0.0352  0.2294
    3MOL0     H  357  12.231   3.858   5.488 -1.8326  0.1527 -1.1307
    3MOL0     H  358  12.035   3.546   5.772 -2.0636 -0.9584 -0.4466
    3MOL0     H  359  11.807   3.525   5.769  0.1371 -2.0841 -1.3288
    3MOL0     H  360  11.423   3.485   5.322 -0.0120  0.2470 -0.0384
    3MOL0     H  361  11.205   3.524   5.233 -1.1044 -2.0240  2.1411
    3MOL0     H  362  11.091   3.892   5.232  0.4246 -0.8253  0.0003
    3MOL0     H  363  10.976   3.903   5.359  1.5870 -1.8268  1.8818
    3MOL0     H  364  10.835   3.942   5.177  3.1195  1.9930  1.3933
    3MOL0     H  365  10.802   3.786   5.215 -1.3078  1.5160 -1.3648
    3MOL0     H  366  10.834   3.748   4.986  0.7491 -1.7608 -0.4835
    3MOL0     H  367  10.971   3.690   5.070 -0.7905  0.3477  2.3334
    3MOL0     H  368  10.954   3.948   4.904  0.0412  0.3911  0.7239
    3MOL0     H  369  11.089   3.918   5.017 -1.4835  0.8856  1.0502
    3MOL0     H  370  11.143   3.859   4.792  1.4471 -1.8993 -2.0629
    3MOL0     H  371  11.033   3.728   4.800 -1.4188  2.1699  0.5022
    3MOL0     H  372  11.173   3.651   5.023  1.9861  1.6144  1.1490
    3MOL0     H  373  11.284   3.778   4.964 -0.3578  2.4307 -3.4861
    3MOL0     H  374  11.208   3.580   4.763  2.3366  1.0793 -1.5906
    3MOL0     H  375  11.364   3.662   4.800 -1.1936  4.1916  3.1936
    3MOL0     H  376  11.391   3.417   4.825  2.1783  0.4279  0.9770
    3MOL0     H  377  11.246   3.408   4.930  0.2281  0.1251  0.8688
    3MOL0     H  378  11.165   3.867   5.498  2.3032  1.3064 -0.4507
    3MOL0     H  379  11.378   3.827   5.583  0.5153  0.9225 -1.3108
    3MOL0     H  380  11.775   3.748   5.415 -2.2341  0.6650  2.0425
    3MOL0     H  381  12.030   3.779   5.414 -1.2122  0.1427 -2.4427
    3MOL0     H  382  11.582   2.770   5.129  0.0903  0.9409 -0.1540
    3MOL0     H  383  11.411   2.850   4.982 -0.6799 -0.5723 -1.3860
    3MOL0     H  384  11.344   3.230   4.662 -0.2646  2.6746 -2.0012
    3MOL0     H  385  11.201   3.331   4.491  0.0819 -0.2972 -0.2182
    3MOL0     H  386  10.884   3.357   4.286 -0.2989  2.3712 -1.3026
    3MOL0     H  387  11.054   3.343   4.316 -1.2614 -0.1005 -1.0237
    3MOL0     H  388  10.919   3.514   4.516  2.0224  1.3570  1.0421
    3MOL0     H  389  11.077   3.515   4.447 -0.0610 -1.3026  0.3512
    3MOL0     H  390  10.836   3.628   4.297  0.1867  3.9281  0.1869
    3MOL0     H  391  11.008   3.612   4.236 -0.7906  3.1672 -1.2809
    3MOL0     H  392  11.077   3.748   4.440  0.6424 -0.5271 -3.0622
    3MOL0     H  393  10.971   3.834   4.325  2.7693  0.5246  1.0270
    3MOL0     H  394  10.692   3.807   4.630 -1.6875  3.3985 -1.1814
    3MOL0     H  395  10.861   3.104   4.648  0.3304 -0.4137  0.0760
    3MOL0     H  396  11.013   2.993   4.805 -3.5272  1.6796  0.9634
    4MOL0     O  397   6.600   4.389   2.128  0.2727 -0.2475 -0.1026
    4MOL0     C  398   6.668   4.426   2.033  0.3824 -0.6633 -0.1594
    4MOL0     O  399   6.624   4.467   1.912  0.2413 -0.2681  0.9697
    4MOL0     C  400   6.492   4.486   1.879  0.1317 -0.1365 -1.1488
    4MOL0     C  401   6.427   4.601   1.940 -0.2791  0.7255  0.0167
    4MOL0     C  402   6.289   4.614   1.915 -0.4476  0.3136  1.0605
    4MOL0     C  403   6.219   4.521   1.845  0.0282  0.2236 -0.6733
    4MOL0     O  404   6.085   4.534   1.850  0.2932 -0.3092 -0.4627
    4MOL0     C  405   6.043   4.657   1.783  0.9915 -0.9900 -0.8226
    4MOL0     C  406   5.919   4.700   1.857 -0.5504  0.1397 -0.5525
    4MOL0     C  407   5.865   4.836   1.833 -0.6388 -0.4296  0.1120
    4MOL0     C  408   5.741   4.858   1.900  0.6281  1.3255 -0.4176
    4MOL0     C  409   5.670   4.985   1.849 -0.1045 -0.8029 -0.6815
    4MOL0     C  410   5.596   4.970   1.720 -0.5643 -0.0283  0.1934
    4MOL0     C  411   5.554   5.110   1.687  0.0846  0.0495 -0.4136
    4MOL0     C  412   5.456   5.099   1.571 -0.1132  0.2267 -0.9978
    4MOL0     N  413   5.382   5.220   1.524  0.2872  0.9207 -0.4555
    4MOL0     C  414   5.299   5.292   1.601 -0.2280 -0.5518  0.0944
    4MOL0     C  415   5.270   5.408   1.535  0.7694  0.0986  0.0759
    4MOL0     C  416   5.184   5.521   1.583 -0.3489  0.4709  0.5728
    4MOL0     C  417   5.041   5.490   1.556 -0.1255  0.2902  0.8724
    4MOL0     C  418   5.011   5.439   1.414 -0.1335  0.0437  0.7729
    4MOL0     C  419   4.886   5.492   1.347  0.0737 -0.6807  0.0820
    4MOL0     O  420   4.765   5.458   1.424  0.6944  0.0871 -0.5902
    4MOL0     C  421   4.662   5.525   1.373 -0.0032  1.0941  0.0302
    4MOL0     C  422   4.584   5.459   1.273 -0.4104 -0.0052  0.6339
    4MOL0     C  423   4.466   5.513   1.222 -0.1027  0.2195 -0.9989
    4MOL0     C  424   4.434   5.647   1.247 -0.3689 -1.1416  0.1639
    4MOL0     C  425   4.316   5.716   1.186  0.2891  0.4750 -0.5013
    4MOL0     O  426   4.306   5.852   1.201  0.7115 -0.0985  0.6452
    4MOL0     C  427   4.207   5.929   1.140 -0.1055 -0.1310  0.2417
    4MOL0     C  428   4.253   6.053   1.088 -0.2798  0.7094 -0.2723
    4MOL0     C  429   4.169   6.125   1.002 -0.3999  0.0363  0.1825
    4MOL0     C  430   4.041   6.082   0.974  0.5071  0.1567 -0.0115
    4MOL0     O  431   3.940   6.150   0.901  0.1665 -0.0305 -0.2324
    4MOL0     C  432   3.989   6.261   0.811  0.4938 -0.3611  0.1715
    4MOL0     C  433   3.972   6.407   0.872  0.0156 -0.2477 -0.3662
    4MOL0     C  434   3.823   6.425   0.886  0.3388 -0.4873 -0.1576
    4MOL0     C  435   3.774   6.570   0.928  0.5534  0.5250  1.2027
    4MOL0     C  436   3.648   6.562   1.007 -1.1707  0.5975 -0.7842
    4MOL0     C  437   3.583   6.693   1.044  0.5607  0.0592 -0.0006
    4MOL0     C  438   3.458   6.696   1.127 -0.6892  0.7515  0.2768
    4MOL0     C  439   3.407   6.835   1.155 -0.5354  0.2333 -0.2259
    4MOL0    Cl  440   3.383   6.931   1.011 -0.2763  0.4661 -0.2101
    4MOL0     C  441   4.002   5.971   1.023  0.4248  0.1811 -0.3303
    4MOL0     C  442   4.079   5.884   1.099  0.0150 -0.5702 -0.0966
    4MOL0     O  443   4.239   5.643   1.129 -0.4580 -0.1427  0.9900
    4MOL0     C  444   4.519   5.721   1.334 -0.3404 -0.3630  0.3202
    4MOL0     C  445   4.619   5.657   1.407 -0.9617  0.0489 -0.3206
    4MOL0     N  446   5.334   5.394   1.412 -0.2630 -0.1552 -0.5013
    4MOL0     N  447   5.406   5.289   1.413 -0.3690  0.6084 -0.8223
    4MOL0     C  448   6.276   4.405   1.794 -0.1912  0.3332  0.1276
    4MOL0     C  449   6.413   4.400   1.803  0.2396  1.2198 -0.6982
    4MOL0     C  450   6.811   4.429   2.066 -1.2225 -1.0144  0.6506
    4MOL0     C  451   6.898   4.422   1.954 -0.9816 -0.3007 -0.7956
    4MOL0     C  452   7.034   4.400   1.981  0.1814 -0.8252  0.8870
    4MOL0     C  453   7.085   4.373   2.108 -0.3863  0.4762  0.0655
    4MOL0     O  454   7.219   4.356   2.144  0.3476 -0.9885  0.9929
    4MOL0     C  455   7.324   4.425   2.067  0.3396 -0.0230 -0.9828
    4MOL0     C  456   7.449   4.417   2.145 -0.0353  0.1264  0.2778
    4MOL0     C  457   7.542   4.527   2.089 -0.3380  0.1509 -0.1088
    4MOL0     C  458   7.689   4.509   2.124  0.7353 -0.6535 -0.4898
    4MOL0     C  459   7.712   4.519   2.268  0.2229 -0.4539  0.3307
    4MOL0     C  460   7.708   4.524   2.386 -0.5237 -0.3166  0.2066
    4MOL0     C  461   6.993   4.365   2.210 -0.2391  0.6387  0.3577
    4MOL0     C  462   6.853   4.392   2.194 -0.4109 -1.4401 -0.9433
    4MOL0     H  463   6.477   4.680   1.996  0.1503  0.2306  0.3365
    4MOL0     H  464   6.233   4.698   1.955  1.3910  1.8548  0.4909
    4MOL0     H  465   6.023   4.645   1.677 -0.2730  0.3503 -0.7608
    4MOL0     H  466   6.111   4.742   1.796 -1.6609  1.2500 -0.6150
    4MOL0     H  467   5.939   4.700   1.964  2.0874  4.1369 -0.8420
    4MOL0     H  468   5.832   4.639   1.830 -2.5256  0.7946  3.5892
    4MOL0     H  469   5.860   4.841   1.723  3.4103 -0.7583 -0.2456
    4MOL0     H  470   5.942   4.910   1.857 -0.8562  0.1671 -0.9264
    4MOL0     H  471   5.677   4.772   1.874 -0.5745  1.4997  1.6865
    4MOL0     H  472   5.744   4.854   2.010 -0.5461 -0.1279 -0.4109
    4MOL0     H  473   5.742   5.066   1.836 -1.0670  0.2469  0.3201
    4MOL0     H  474   5.601   5.020   1.927  1.0349  2.8579 -1.1454
    4MOL0     H  475   5.514   4.899   1.735 -0.2903 -0.4625 -0.3322
    4MOL0     H  476   5.659   4.924   1.644 -1.8480 -3.5450  1.0687
    4MOL0     H  477   5.509   5.168   1.767  1.0936  0.7903 -0.3572
    4MOL0     H  478   5.644   5.167   1.663  3.3238 -3.4626  2.0917
    4MOL0     H  479   5.380   5.023   1.593  2.8954 -2.2545  1.9318
    4MOL0     H  480   5.517   5.066   1.486 -0.2686 -0.5784 -0.8082
    4MOL0     H  481   5.260   5.272   1.701 -2.0228  1.1738 -0.1927
    4MOL0     H  482   5.216   5.612   1.531 -2.9078  1.0164 -0.1945
    4MOL0     H  483   5.204   5.549   1.687  1.8490 -0.3231  0.4233
    4MOL0     H  484   4.977   5.576   1.580  0.0940 -0.2362  3.7017
    4MOL0     H  485   5.008   5.412   1.625 -2.6681  1.4612  1.0948
    4MOL0     H  486   5.089   5.477   1.348 -0.3432 -0.3605  0.2850
    4MOL0     H  487   5.008   5.330   1.416 -0.3003  0.0532  1.8347
    4MOL0     H  488   4.876   5.451   1.246  2.1172 -2.0971  0.3837
    4MOL0     H  489   4.905   5.600   1.352 -2.0679 -0.2545 -0.2800
    4MOL0     H  490   4.603   5.354   1.256  1.2593  0.5425 -1.2642
    4MOL0     H  491   4.385   5.459   1.174 -0.5811 -0.8484  0.9105
    4MOL0     H  492   4.353   6.089   1.109 -0.0933  0.2907 -0.4234
    4MOL0     H  493   4.220   6.212   0.962 -0.3794  0.7148  1.6331
    4MOL0     H  494   3.932   6.258   0.718 -0.2667  0.5522  0.5920
    4MOL0     H  495   4.091   6.256   0.774  0.2879 -0.8062 -0.3548
    4MOL0     H  496   4.016   6.487   0.813 -0.0358  0.8467  1.0322
    4MOL0     H  497   4.020   6.405   0.970 -3.4520  1.5954  1.5636
    4MOL0     H  498   3.779   6.350   0.952  4.1369 -0.6221  2.5652
    4MOL0     H  499   3.785   6.403   0.786  3.1124  0.6331 -1.5713
    4MOL0     H  500   3.848   6.617   0.994  0.4944  3.7025 -0.8020
    4MOL0     H  501   3.764   6.627   0.836  0.1933  1.5853  1.8813
    4MOL0     H  502   3.682   6.507   1.095  3.2498 -1.1012 -3.2299
    4MOL0     H  503   3.576   6.511   0.943 -0.6133 -1.2433 -0.0148
    4MOL0     H  504   3.557   6.741   0.950 -2.8127 -0.8626  0.3230
    4MOL0     H  505   3.654   6.761   1.092 -3.0097  2.1979  2.7483
    4MOL0     H  506   3.388   6.629   1.077 -1.4349  0.1103  2.1157
    4MOL0     H  507   3.474   6.638   1.218 -1.3874 -0.1278 -0.1417
    4MOL0     H  508   3.483   6.891   1.211 -0.2617  2.0876 -2.3286
    4MOL0     H  509   3.321   6.832   1.223  1.7724  2.4983  3.1545
    4MOL0     H  510   3.901   5.946   0.995  0.1488 -0.4718  1.1312
    4MOL0     H  511   4.046   5.782   1.118 -0.5228 -0.5558 -0.8802
    4MOL0     H  512   4.494   5.827   1.339  0.2977 -0.2208  0.5942
    4MOL0     H  513   4.674   5.717   1.479  0.3363  0.8557 -1.9136
    4MOL0     H  514   6.215   4.329   1.746  2.8588 -1.0631 -1.8393
    4MOL0     H  515   6.462   4.311   1.765 -1.1206  0.1259  0.0405
    4MOL0     H  516   6.870   4.446   1.852  0.3834 -1.2871 -1.4297
    4MOL0     H  517   7.101   4.421   1.898 -2.4188  1.2042 -0.8797
    4MOL0     H  518   7.291   4.524   2.036 -3.9307 -0.9309  0.1100
    4MOL0     H  519   7.332   4.367   1.975  0.9300 -0.6466 -0.5550
    4MOL0     H  520   7.442   4.422   2.254 -0.1272  1.4162  0.2298
    4MOL0     H  521   7.505   4.325   2.129  1.6976  1.0636  0.6205
    4MOL0     H  522   7.503   4.620   2.133 -2.3886  0.1015 -1.6795
    4MOL0     H  523   7.531   4.528   1.980 -5.1034 -2.1187  0.0777
    4MOL0     H  524   7.711   4.411   2.081 -0.3910  0.4277 -3.9200
    4MOL0     H  525   7.753   4.579   2.067  0.3235 -1.2627 -1.7396
    4MOL0     H  526   7.696   4.516   2.492  0.2148 -3.0344  0.1507
    4MOL0     H  527   7.041   4.357   2.307  1.7364  1.3488 -0.5035
    4MOL0     H  528   6.786   4.374   2.277  0.3948 -1.3517 -0.2539
    5MOL0     O  529   2.269  10.319   9.403 -0.8463 -0.6466 -0.0723
    5MOL0     C  530   2.205  10.268   9.495  0.0111  0.4068 -0.3487
    5MOL0     O  531   2.184  10.326   9.619  0.3259 -0.2830  0.3533
    5MOL0     C  532   2.246  10.445   9.647  0.7858  0.1471 -0.8663
    5MOL0     C  533   2.380  10.441   9.683 -0.1411 -0.5041  0.2915
    5MOL0     C  534   2.446  10.561   9.715  0.1311  0.7771 -0.5322
    5MOL0     C  535   2.383  10.680   9.715 -0.1257 -0.1451  0.2084
    5MOL0     O  536   2.443  10.785   9.771  0.3048 -0.0827 -0.8399
    5MOL0     C  537   2.390  10.911   9.735  0.5298  0.2867 -0.1072
    5MOL0     C  538   2.501  11.010   9.739  0.4575 -0.6057  0.4878
    5MOL0     C  539   2.460  11.155   9.706  0.8384  0.2236 -0.6568
    5MOL0     C  540   2.585  11.259   9.701 -0.3203  0.2570 -0.1821
    5MOL0     C  541   2.541  11.377   9.609 -0.1984 -0.2920  0.1263
    5MOL0     C  542   2.653  11.465   9.549 -0.4085  0.0399  0.2089
    5MOL0     C  543   2.597  11.594   9.478  0.1680  1.3285 -0.3383
    5MOL0     C  544   2.513  11.562   9.354 -0.6472 -0.7211 -0.6129
    5MOL0     N  545   2.470  11.694   9.299 -0.5353  0.3506 -0.5874
    5MOL0     C  546   2.565  11.784   9.258  0.9678  0.6151 -0.3132
    5MOL0     C  547   2.500  11.890   9.213 -0.0784 -0.5185 -0.1142
    5MOL0     C  548   2.563  12.019   9.169  0.4965 -0.1268 -0.2016
    5MOL0     C  549   2.631  12.011   9.030  0.3562 -0.1350 -0.9263
    5MOL0     C  550   2.765  11.926   9.037  0.0883 -0.1726  0.0367
    5MOL0     C  551   2.837  11.916   8.907  0.0350 -1.1571  0.8151
    5MOL0     O  552   2.868  12.043   8.853  0.3603 -0.0373  0.5612
    5MOL0     C  553   2.936  12.050   8.733 -0.5736 -0.1542 -0.0336
    5MOL0     C  554   2.965  11.927   8.660  0.3797 -0.2687 -0.3222
    5MOL0     C  555   3.037  11.923   8.542  0.7267  0.3371  0.1525
    5MOL0     C  556   3.070  12.045   8.481  0.3279 -1.1938  0.1442
    5MOL0     C  557   3.140  12.040   8.349  0.2187 -0.2827  0.0752
    5MOL0     O  558   3.128  11.923   8.279 -0.4070 -0.1497  0.6756
    5MOL0     C  559   3.166  11.915   8.146 -0.1370 -0.6649 -0.5780
    5MOL0     C  560   3.130  11.792   8.084 -2.1137 -1.0220  0.3262
    5MOL0     C  561   3.146  11.770   7.945 -0.4855  0.0489 -0.1447
    5MOL0     C  562   3.196  11.871   7.859 -0.2482  0.4379  0.1893
    5MOL0     O  563   3.225  11.845   7.726 -0.3154  0.1646  0.5183
    5MOL0     C  564   3.311  11.917   7.641  0.1451  0.3392  0.0663
    5MOL0     C  565   3.314  11.847   7.505  0.5524 -0.2758  0.0920
    5MOL0     C  566   3.179  11.799   7.457 -0.1532 -0.1850 -0.3018
    5MOL0     C  567   3.058  11.894   7.476 -0.5015  0.0270 -0.4254
    5MOL0     C  568   3.062  12.032   7.403  0.1801 -0.5798 -0.2821
    5MOL0     C  569   3.117  12.051   7.264  0.0926  1.3254  0.7799
    5MOL0     C  570   3.064  11.954   7.154 -0.5432 -0.5664  0.0238
    5MOL0     C  571   2.921  11.993   7.085 -0.2485  0.2190  0.0783
    5MOL0    Cl  572   2.823  12.121   7.183  0.1638 -0.3266 -0.2922
    5MOL0     C  573   3.235  11.989   7.919  0.0850  0.5223 -0.7053
    5MOL0     C  574   3.206  12.016   8.055 -0.1350  0.2294 -1.0601
    5MOL0     O  575   3.179  12.153   8.309 -0.3263  0.9043  0.6742
    5MOL0     C  576   3.034  12.168   8.544  0.1133 -0.2715  0.0150
    5MOL0     C  577   2.967  12.170   8.667  0.0086  0.7008 -0.3035
    5MOL0     N  578   2.369  11.857   9.241 -0.3149 -0.5184 -0.3661
    5MOL0     N  579   2.350  11.746   9.299  0.3364 -0.1265  0.6317
    5MOL0     C  580   2.247  10.677   9.681  0.5699 -0.6569  0.7593
    5MOL0     C  581   2.178  10.564   9.646 -0.5402 -0.6807 -0.2075
    5MOL0     C  582   2.156  10.130   9.487 -1.1471  0.0501  0.0832
    5MOL0     C  583   2.129  10.060   9.595  1.2675  0.1368 -0.5917
    5MOL0     C  584   2.066   9.935   9.594  0.2385  0.1436  0.5922
    5MOL0     C  585   2.045   9.869   9.468  0.5581 -0.0394 -0.8895
    5MOL0     O  586   1.991   9.743   9.464  0.3622  0.2173  0.3805
    5MOL0     C  587   2.066   9.633   9.522  0.0338  0.0969 -0.7358
    5MOL0     C  588   1.972   9.513   9.555 -0.3629  0.4952  0.5145
    5MOL0     C  589   1.905   9.449   9.431  0.7965 -0.2889  0.0812
    5MOL0     C  590   1.778   9.377   9.481 -0.8874 -0.4119 -0.4517
    5MOL0     C  591   1.754   9.254   9.407  0.4009 -0.5681 -0.0626
    5MOL0     C  592   1.740   9.159   9.336  0.1743  0.6173  0.0198
    5MOL0     C  593   2.086   9.942   9.356  0.0769  0.2749  0.2867
    5MOL0     C  594   2.146  10.073   9.365  0.5866  0.0379  0.4095
    5MOL0     H  595   2.426  10.343   9.686 -0.3082 -0.6180 -0.6054
    5MOL0     H  596   2.543  10.558   9.763  0.6125 -4.4815 -1.2656
    5MOL0     H  597   2.305  10.945   9.796  2.2256 -0.2891  2.7648
    5MOL0     H  598   2.361  10.905   9.630  1.0784  0.1926 -0.2546
    5MOL0     H  599   2.577  10.981   9.666  0.5620  0.4737  0.1608
    5MOL0     H  600   2.548  11.014   9.837 -0.7701  0.7698  1.0624
    5MOL0     H  601   2.395  11.205   9.778 -1.4109 -0.0028 -2.4166
    5MOL0     H  602   2.409  11.153   9.609  0.6108  3.6939 -0.7129
    5MOL0     H  603   2.624  11.294   9.797 -1.2539 -2.2061  1.1742
    5MOL0     H  604   2.663  11.207   9.644 -0.9259  0.3398 -1.1077
    5MOL0     H  605   2.485  11.443   9.675 -0.0245 -0.6071  0.5990
    5MOL0     H  606   2.490  11.334   9.522  1.3485  0.7856 -1.3810
    5MOL0     H  607   2.717  11.395   9.494  0.1418 -1.1839  2.2983
    5MOL0     H  608   2.718  11.507   9.626  2.9459 -1.3488 -1.6437
    5MOL0     H  609   2.539  11.632   9.562  0.3128 -3.0928  2.0879
    5MOL0     H  610   2.672  11.670   9.455  1.9662  0.0894  1.0970
    5MOL0     H  611   2.432  11.491   9.376  1.7236 -3.9975 -1.6568
    5MOL0     H  612   2.576  11.518   9.276 -1.3384  1.1760 -2.3242
    5MOL0     H  613   2.673  11.777   9.266  1.1444  2.0245 -1.1064
    5MOL0     H  614   2.631  12.056   9.247 -0.0072  0.6747 -0.1283
    5MOL0     H  615   2.478  12.086   9.151 -0.1165 -1.2553 -1.7207
    5MOL0     H  616   2.666  12.115   9.022  1.7669 -0.4406  0.6677
    5MOL0     H  617   2.562  11.977   8.953 -0.3244 -0.9063  0.0057
    5MOL0     H  618   2.835  11.959   9.114  0.3098  3.4636 -1.4960
    5MOL0     H  619   2.741  11.820   9.048 -0.0135 -0.1833 -0.2690
    5MOL0     H  620   2.771  11.883   8.826  4.3889  1.6092 -4.5947
    5MOL0     H  621   2.921  11.847   8.907 -0.5525 -1.8948  0.3168
    5MOL0     H  622   2.935  11.835   8.709 -1.1859  0.8323  0.9178
    5MOL0     H  623   3.040  11.830   8.487 -2.6477  0.8858 -1.1722
    5MOL0     H  624   3.102  11.712   8.152  1.4423 -1.7515  1.1422
    5MOL0     H  625   3.128  11.665   7.924 -4.0131  0.0780  1.8727
    5MOL0     H  626   3.404  11.938   7.695 -0.2050  0.2292  0.7217
    5MOL0     H  627   3.287  12.018   7.606  1.6183  0.0748 -1.9162
    5MOL0     H  628   3.381  11.761   7.508 -0.9804 -1.5853 -1.3028
    5MOL0     H  629   3.361  11.910   7.429  1.1957  0.6386  1.2201
    5MOL0     H  630   3.161  11.708   7.515  5.6602 -0.2943  2.0081
    5MOL0     H  631   3.188  11.779   7.350 -2.9621  2.3036 -1.1623
    5MOL0     H  632   2.975  11.830   7.445  2.8293 -4.4740 -1.0596
    5MOL0     H  633   3.052  11.916   7.583 -4.3327  0.5233 -0.5952
    5MOL0     H  634   3.126  12.107   7.449  1.2855 -1.2388 -0.7195
    5MOL0     H  635   2.961  12.068   7.426  1.1485  1.2049  1.3626
    5MOL0     H  636   3.225  12.062   7.272  0.2150  0.4034  0.5496
    5MOL0     H  637   3.081  12.154   7.253 -3.0131  0.4002  1.0423
    5MOL0     H  638   3.141  11.946   7.076  2.2258 -3.3377  2.7832
    5MOL0     H  639   3.055  11.849   7.184  2.8789 -0.5764  1.4167
    5MOL0     H  640   2.863  11.901   7.079 -1.2801  0.4832  3.6927
    5MOL0     H  641   2.935  12.034   6.984 -2.3998 -0.2013 -0.4514
    5MOL0     H  642   3.291  12.067   7.868  0.7322  0.2896 -0.3692
    5MOL0     H  643   3.231  12.116   8.091 -0.9005  0.7509 -1.9381
    5MOL0     H  644   3.067  12.263   8.504  0.6729 -0.5478 -0.1911
    5MOL0     H  645   2.933  12.266   8.703  1.4832  0.4904  1.8654
    5MOL0     H  646   2.182  10.764   9.687  1.8856  0.3113  1.5943
    5MOL0     H  647   2.081  10.590   9.605 -0.2459  0.0883 -0.4396
    5MOL0     H  648   2.144  10.115   9.688  0.1481 -1.0999  0.3607
    5MOL0     H  649   2.057   9.892   9.693  0.3450 -0.6391  0.2672
    5MOL0     H  650   2.127   9.659   9.609  2.6435 -0.5960 -2.2559
    5MOL0     H  651   2.131   9.600   9.440  1.7515  1.0244  0.1834
    5MOL0     H  652   2.032   9.440   9.612  2.4110  2.7622  0.7318
    5MOL0     H  653   1.886   9.540   9.617 -2.7841 -2.8008 -1.0599
    5MOL0     H  654   1.979   9.385   9.382  0.5818 -0.1195 -0.4713
    5MOL0     H  655   1.868   9.529   9.367  0.9995 -0.7785 -0.6615
    5MOL0     H  656   1.790   9.348   9.586 -0.0841  1.7457  0.1020
    5MOL0     H  657   1.698   9.452   9.478  1.9679  2.8783 -1.5505
    5MOL0     H  658   1.713   9.078   9.272 -2.7838 -0.9738  2.9886
    5MOL0     H  659   2.075   9.897   9.257 -0.3198 -0.3445  0.6021
    5MOL0     H  660   2.166  10.126   9.272 -2.1612  2.0382  0.8239
    6MOL0     O  661   5.143   4.276   5.234 -0.9859  0.0902  0.1774
    6MOL0     C  662   5.175   4.154   5.208  0.3922 -0.2359 -0.8203
    6MOL0     O  663   5.237   4.064   5.291 -0.1050 -0.2500  0.2097
    6MOL0     C  664   5.275   4.107   5.418 -0.4455  0.2846  0.2313
    6MOL0     C  665   5.223   4.044   5.532  0.3794  0.6309 -0.2735
    6MOL0     C  666   5.268   4.089   5.656  0.3381 -0.3102  1.0534
    6MOL0     C  667   5.357   4.187   5.678  0.2973 -0.2760 -1.1278
    6MOL0     O  668   5.381   4.228   5.809 -0.1564  0.3073  0.0642
    6MOL0     C  669   5.445   4.362   5.817  0.2352  0.5461  0.4888
    6MOL0     C  670   5.481   4.398   5.954  0.0045 -0.8063  0.1130
    6MOL0     C  671   5.593   4.311   5.996  0.4218  0.2075 -0.2725
    6MOL0     C  672   5.608   4.303   6.146 -0.1029 -0.3419 -0.0741
    6MOL0     C  673   5.691   4.415   6.196  0.5643 -0.4354 -0.9448
    6MOL0     C  674   5.679   4.425   6.346  0.3903  0.3048 -0.4057
    6MOL0     C  675   5.779   4.534   6.394 -0.4026  0.2585  1.7060
    6MOL0     C  676   5.788   4.532   6.542  0.3971 -0.4969 -0.5500
    6MOL0     N  677   5.680   4.609   6.600 -0.1789 -0.6442 -1.0257
    6MOL0     C  678   5.678   4.748   6.597 -0.2155 -0.2402  0.4693
    6MOL0     C  679   5.551   4.781   6.657  0.4176  0.1967  0.5665
    6MOL0     C  680   5.496   4.915   6.699 -0.6703  0.3022 -0.4004
    6MOL0     C  681   5.577   4.987   6.817 -1.2486 -0.3228  0.1199
    6MOL0     C  682   5.511   4.969   6.954 -0.3922  0.0439 -0.1732
    6MOL0     C  683   5.408   5.072   6.979  1.0184  0.5776 -0.5011
    6MOL0     O  684   5.462   5.199   7.003  0.2915 -0.2932  0.0819
    6MOL0     C  685   5.364   5.303   7.022  0.0862  0.3156 -0.5071
    6MOL0     C  686   5.291   5.348   6.911 -0.2300  0.7337 -0.8292
    6MOL0     C  687   5.190   5.443   6.927  0.2955 -0.1136 -0.0075
    6MOL0     C  688   5.154   5.487   7.056 -0.8442 -0.8486 -0.2623
    6MOL0     C  689   5.031   5.566   7.080 -0.1301 -0.1298  0.3449
    6MOL0     O  690   4.980   5.630   6.972 -0.0825 -0.1453  0.1441
    6MOL0     C  691   4.860   5.684   6.986 -0.0896  0.1156 -0.9496
    6MOL0     C  692   4.846   5.821   6.996 -0.2349  0.2096 -0.9594
    6MOL0     C  693   4.719   5.880   7.007  0.1612  0.1842 -0.1259
    6MOL0     C  694   4.604   5.801   7.006 -0.4152  0.6506  0.0419
    6MOL0     O  695   4.476   5.853   7.023  0.1626 -0.3920 -0.7885
    6MOL0     C  696   4.366   5.782   6.964  0.4181  0.0554  0.5846
    6MOL0     C  697   4.252   5.882   6.936  0.8231 -0.3260  0.8044
    6MOL0     C  698   4.263   5.970   6.815 -0.0133 -0.0202 -0.1488
    6MOL0     C  699   4.299   5.909   6.684  1.0514  0.8642  0.0166
    6MOL0     C  700   4.293   6.015   6.571  1.1124 -0.8839  0.8933
    6MOL0     C  701   4.329   5.951   6.436  0.7542  0.9914 -0.6526
    6MOL0     C  702   4.301   6.036   6.312  0.8475 -0.1867  0.2918
    6MOL0     C  703   4.364   5.964   6.193  0.0326  0.5154 -0.3722
    6MOL0    Cl  704   4.261   5.831   6.157  0.1909  0.1873  0.0230
    6MOL0     C  705   4.625   5.665   6.989 -0.0288  0.7912  0.3466
    6MOL0     C  706   4.748   5.605   6.977 -0.8162  0.0557 -0.6308
    6MOL0     O  707   4.991   5.563   7.196  0.0468 -0.4788 -0.2609
    6MOL0     C  708   5.221   5.435   7.165 -0.5442  0.2709 -0.6086
    6MOL0     C  709   5.332   5.349   7.150  0.1306  0.3560 -0.0711
    6MOL0     N  710   5.486   4.668   6.688 -0.2411  0.6305  0.2091
    6MOL0     N  711   5.563   4.566   6.665  0.8329 -0.2859  0.8293
    6MOL0     C  712   5.410   4.249   5.561  0.1405 -0.4013 -0.5078
    6MOL0     C  713   5.372   4.207   5.436  0.2871  0.0129  1.2698
    6MOL0     C  714   5.115   4.096   5.084 -0.9286 -0.1720  0.8279
    6MOL0     C  715   5.037   4.166   4.996 -0.5548 -0.6051  0.1359
    6MOL0     C  716   4.992   4.126   4.868 -1.0342 -0.3868  0.2805
    6MOL0     C  717   5.019   3.988   4.840 -0.0436  0.9664  0.3869
    6MOL0     O  718   4.982   3.919   4.723  0.0923  0.0704 -0.3507
    6MOL0     C  719   4.922   3.990   4.621  1.2291  0.4533  1.3447
    6MOL0     C  720   4.766   3.993   4.643  0.2620 -0.3297  0.8343
    6MOL0     C  721   4.690   3.861   4.633  0.3026 -0.0852 -0.5813
    6MOL0     C  722   4.684   3.820   4.480 -0.6379 -0.3177 -0.4990
    6MOL0     C  723   4.592   3.714   4.455 -0.9090  1.2000  0.6181
    6MOL0     C  724   4.540   3.612   4.431 -0.7157 -0.1627 -0.2726
    6MOL0     C  725   5.103   3.901   4.929  0.1566  0.9314 -0.0420
    6MOL0     C  726   5.147   3.964   5.050  0.3245  0.8275  0.3561
    6MOL0     H  727   5.143   3.970   5.535 -1.3181  1.8456 -5.3772
    6MOL0     H  728   5.230   4.050   5.750 -0.8833  2.3650  1.7587
    6MOL0     H  729   5.381   4.436   5.767  3.0660  2.1292 -1.0157
    6MOL0     H  730   5.541   4.373   5.766 -0.2926  2.7581 -0.1317
    6MOL0     H  731   5.396   4.391   6.023 -2.9553  0.7549 -3.0368
    6MOL0     H  732   5.507   4.504   5.945 -1.2477 -0.5416 -0.8139
    6MOL0     H  733   5.684   4.338   5.942 -0.6811  1.4362 -1.6110
    6MOL0     H  734   5.578   4.208   5.962  1.3165 -0.1697  0.4311
    6MOL0     H  735   5.513   4.313   6.199 -0.8097  4.8245 -1.7793
    6MOL0     H  736   5.661   4.211   6.173 -1.3932 -0.3593  2.7686
    6MOL0     H  737   5.664   4.510   6.148  1.5900  0.1068 -0.4842
    6MOL0     H  738   5.799   4.400   6.184  0.7324  1.8876 -3.0039
    6MOL0     H  739   5.696   4.331   6.398 -1.7058  1.8001  3.3809
    6MOL0     H  740   5.576   4.448   6.376 -0.1498 -3.4853  1.2319
    6MOL0     H  741   5.879   4.516   6.352  0.5250  1.3365  3.3467
    6MOL0     H  742   5.747   4.625   6.343  0.0885 -0.3342  0.2925
    6MOL0     H  743   5.879   4.574   6.586 -1.3595  0.6085  2.2576
    6MOL0     H  744   5.767   4.428   6.570 -1.5045  0.1216  0.4360
    6MOL0     H  745   5.757   4.814   6.562  0.0892  0.0268  1.6414
    6MOL0     H  746   5.389   4.909   6.721 -0.2700 -1.7035  1.4126
    6MOL0     H  747   5.510   4.990   6.621  1.5014  2.3768  1.7700
    6MOL0     H  748   5.598   5.094   6.807  2.0099 -0.4780  3.2092
    6MOL0     H  749   5.681   4.952   6.826 -0.8478  0.0075 -2.3708
    6MOL0     H  750   5.472   4.867   6.946  0.1204 -0.0905 -1.0792
    6MOL0     H  751   5.586   4.966   7.033  2.4281 -2.5326 -2.6676
    6MOL0     H  752   5.351   5.044   7.068  1.6254 -0.8290 -0.5190
    6MOL0     H  753   5.335   5.076   6.898 -0.0953  1.8101  0.5153
    6MOL0     H  754   5.322   5.306   6.817  0.7650 -0.2331 -0.0931
    6MOL0     H  755   5.130   5.468   6.840 -2.0859 -0.6272  1.3951
    6MOL0     H  756   4.936   5.881   6.985  0.7166 -1.5073 -3.5608
    6MOL0     H  757   4.705   5.988   7.013 -2.7633 -0.1619  1.0112
    6MOL0     H  758   4.335   5.702   7.032 -1.9545  0.7855  0.4456
    6MOL0     H  759   4.410   5.749   6.870 -1.0109  1.3007 -0.5695
    6MOL0     H  760   4.224   5.940   7.025  0.8738  0.8223  0.0989
    6MOL0     H  761   4.167   5.817   6.911  0.4216  0.7359 -0.7349
    6MOL0     H  762   4.339   6.044   6.841 -1.7906  1.3719  1.3884
    6MOL0     H  763   4.176   6.037   6.813  0.4229  0.5549 -0.1987
    6MOL0     H  764   4.398   5.863   6.684 -0.5041 -2.8765 -1.4706
    6MOL0     H  765   4.225   5.833   6.656  1.1814  0.5837  0.4301
    6MOL0     H  766   4.365   6.095   6.589  0.5434  0.6313 -2.7587
    6MOL0     H  767   4.192   6.058   6.567  1.0578 -0.8808 -4.3577
    6MOL0     H  768   4.274   5.856   6.434  1.1526  0.7622 -0.8147
    6MOL0     H  769   4.435   5.926   6.449  0.3154  0.4994  3.1676
    6MOL0     H  770   4.194   6.054   6.293  1.0101  0.3979 -0.0915
    6MOL0     H  771   4.358   6.127   6.329  1.1520 -0.7976  3.1663
    6MOL0     H  772   4.460   5.919   6.220 -0.3814 -1.1554 -1.5137
    6MOL0     H  773   4.369   6.021   6.100 -0.3351  1.2031  0.0223
    6MOL0     H  774   4.541   5.598   6.994 -1.2981  2.4193  2.0670
    6MOL0     H  775   4.761   5.498   6.966  2.1175 -0.0721  2.3727
    6MOL0     H  776   5.208   5.457   7.271  3.1136  0.6550 -0.1116
    6MOL0     H  777   5.387   5.316   7.237 -1.5682  0.5101  1.1211
    6MOL0     H  778   5.491   4.320   5.552  1.9866 -2.4976 -1.4145
    6MOL0     H  779   5.418   4.257   5.352 -1.2016  0.9991  1.0053
    6MOL0     H  780   5.009   4.269   5.018  1.6284 -0.4307  2.7092
    6MOL0     H  781   4.935   4.196   4.808 -0.0677  2.6372  2.6470
    6MOL0     H  782   4.946   3.937   4.528 -3.2280  0.1347  0.1665
    6MOL0     H  783   4.967   4.090   4.611 -1.3281  1.5688  0.0913
    6MOL0     H  784   4.760   4.046   4.738  2.1245  1.5295  0.0277
    6MOL0     H  785   4.720   4.057   4.567  0.8562 -1.1926 -0.2843
    6MOL0     H  786   4.587   3.873   4.667  0.7295 -0.9559  1.1743
    6MOL0     H  787   4.740   3.788   4.698 -0.7274  0.8453  1.3397
    6MOL0     H  788   4.649   3.905   4.422 -0.5672 -0.1890 -0.3532
    6MOL0     H  789   4.785   3.792   4.447 -0.9308 -3.5341  0.8558
    6MOL0     H  790   4.494   3.523   4.392  1.8629  0.2118 -4.9529
    6MOL0     H  791   5.121   3.798   4.900 -1.3166  1.4725 -3.4554
    6MOL0     H  792   5.198   3.890   5.111  0.0790  2.1441  2.2082
    7MOL0     O  793   2.439   2.651   1.440 -0.0801 -0.2282  0.6365
    7MOL0     C  794   2.537   2.656   1.358  0.0355 -0.8250 -0.0748
    7MOL0     O  795   2.568   2.565   1.268  0.0932  0.1427 -0.3126
    7MOL0     C  796   2.482   2.458   1.251 -0.1362 -0.1354  0.1664
    7MOL0     C  797   2.448   2.428   1.121 -0.2716  0.7435  1.3853
    7MOL0     C  798   2.355   2.326   1.087 -0.2448 -0.1520 -0.5350
    7MOL0     C  799   2.311   2.241   1.185 -1.1486 -0.0604 -0.3939
    7MOL0     O  800   2.237   2.132   1.158  0.0030 -0.1508 -0.0707
    7MOL0     C  801   2.112   2.114   1.228  0.3671  0.0025  0.8783
    7MOL0     C  802   2.060   1.989   1.167  0.2763  0.2422 -0.9366
    7MOL0     C  803   1.949   1.938   1.259  0.3285 -0.2604  0.0958
    7MOL0     C  804   1.881   1.802   1.206 -0.1822 -0.5643  0.3748
    7MOL0     C  805   1.754   1.761   1.281 -0.1052 -0.0306  0.1050
    7MOL0     C  806   1.687   1.651   1.199  0.7220 -1.3201  0.1635
    7MOL0     C  807   1.618   1.708   1.082 -0.3073  0.5358  0.0049
    7MOL0     C  808   1.518   1.613   1.021  0.4287  0.6080  0.6005
    7MOL0     N  809   1.401   1.581   1.106 -0.8980  0.4687  0.1975
    7MOL0     C  810   1.357   1.673   1.190 -0.1301 -0.9018 -0.3789
    7MOL0     C  811   1.284   1.613   1.287 -0.1252  0.9074  0.3104
    7MOL0     C  812   1.220   1.668   1.409  0.4725  0.7951 -0.5442
    7MOL0     C  813   1.142   1.563   1.487  0.0400 -0.9039 -0.0517
    7MOL0     C  814   1.004   1.512   1.432  0.8846  1.1101 -1.2080
    7MOL0     C  815   0.884   1.612   1.456 -0.9541 -0.0099  0.6292
    7MOL0     O  816   0.904   1.724   1.367 -0.8024  0.6023  0.7846
    7MOL0     C  817   0.793   1.802   1.335 -0.3960 -0.0692  0.0565
    7MOL0     C  818   0.680   1.821   1.419  0.3603 -0.0264  0.1846
    7MOL0     C  819   0.581   1.906   1.390  0.1700 -0.1187  0.8771
    7MOL0     C  820   0.591   1.979   1.264 -0.1198  0.4627  0.5630
    7MOL0     C  821   0.506   2.090   1.230  0.2871  0.1177 -0.2775
    7MOL0     O  822   0.381   2.081   1.279 -0.1467 -0.5145 -0.9464
    7MOL0     C  823   0.295   2.188   1.287 -0.2365 -0.9582 -0.1822
    7MOL0     C  824   0.218   2.241   1.175 -0.1221  0.0908 -0.5527
    7MOL0     C  825   0.137   2.357   1.196 -0.5767 -0.3068  0.8590
    7MOL0     C  826   0.126   2.415   1.318 -0.1897  0.7363  0.2128
    7MOL0     O  827   0.043   2.512   1.353  0.0058 -0.5580 -0.2865
    7MOL0     C  828   0.040   2.619   1.251  0.6565  0.5239  0.5335
    7MOL0     C  829   0.040   2.754   1.320 -0.0911 -0.1978 -0.1319
    7MOL0     C  830  -0.087   2.795   1.387  0.1175  0.2232 -0.5285
    7MOL0     C  831  -0.063   2.938   1.449 -0.9457 -0.0557 -0.4724
    7MOL0     C  832  -0.191   3.002   1.510 -0.0814  0.6437 -0.0923
    7MOL0     C  833  -0.154   3.132   1.569 -0.0103 -0.0433 -0.5385
    7MOL0     C  834  -0.271   3.215   1.632 -0.1772  1.4467  0.5389
    7MOL0     C  835  -0.396   3.236   1.546 -0.5581 -0.0887 -0.7985
    7MOL0    Cl  836  -0.493   3.081   1.523  0.5604 -0.1612 -0.2911
    7MOL0     C  837   0.212   2.374   1.422  0.9630  0.1928 -0.0880
    7MOL0     C  838   0.305   2.267   1.402 -0.6456 -0.0903  0.8543
    7MOL0     O  839   0.550   2.184   1.167  0.0965 -0.1297  0.3403
    7MOL0     C  840   0.705   1.965   1.186 -0.0792 -0.0705 -0.1725
    7MOL0     C  841   0.807   1.879   1.219 -0.1889  0.0177  0.2609
    7MOL0     N  842   1.270   1.482   1.249 -0.6643  0.8405  0.2179
    7MOL0     N  843   1.364   1.459   1.165 -0.0334 -0.2866  0.2243
    7MOL0     C  844   2.344   2.271   1.324  0.2574  1.0030 -0.2480
    7MOL0     C  845   2.424   2.385   1.357 -0.5634 -0.4841 -0.1117
    7MOL0     C  846   2.621   2.783   1.365  0.1766  0.1241  0.9715
    7MOL0     C  847   2.737   2.776   1.294 -0.6091  0.3722 -0.0694
    7MOL0     C  848   2.830   2.882   1.288 -0.5321 -1.0690  0.2379
    7MOL0     C  849   2.797   3.008   1.339 -0.4559  0.4423 -0.7709
    7MOL0     O  850   2.869   3.123   1.344  0.0219  0.2193 -0.6158
    7MOL0     C  851   3.004   3.122   1.302  0.6887  0.3143  0.0756
    7MOL0     C  852   3.003   3.174   1.154  0.1961  0.2139 -0.3314
    7MOL0     C  853   3.111   3.103   1.068 -0.3716 -0.0990  0.6351
    7MOL0     C  854   3.243   3.142   1.110 -1.1638  0.1146 -0.3183
    7MOL0     C  855   3.335   3.131   0.987 -0.2728  0.0612  0.0431
    7MOL0     C  856   3.406   3.136   0.888 -0.5865  0.0654 -0.4753
    7MOL0     C  857   2.678   3.008   1.412  0.0327 -1.4390  0.0910
    7MOL0     C  858   2.589   2.895   1.428 -0.3125  0.2825 -1.0163
    7MOL0     H  859   2.496   2.486   1.043  0.7794 -0.3865  1.1645
    7MOL0     H  860   2.327   2.308   0.984  1.7209  3.0080 -1.7278
    7MOL0     H  861   2.041   2.191   1.196  1.1467  1.1416  1.8139
    7MOL0     H  862   2.104   2.103   1.336 -1.9620  2.4087  1.0522
    7MOL0     H  863   2.139   1.914   1.156 -1.3631 -1.3072 -2.9346
    7MOL0     H  864   2.025   2.022   1.068 -0.5703  1.2542 -0.3163
    7MOL0     H  865   1.867   2.009   1.272 -0.5334 -1.3413  0.7052
    7MOL0     H  866   1.980   1.911   1.361 -1.7543  0.3230  0.9336
    7MOL0     H  867   1.851   1.830   1.105 -0.9323 -0.5570  0.5958
    7MOL0     H  868   1.967   1.734   1.201  1.9550  2.0639 -1.2200
    7MOL0     H  869   1.679   1.839   1.292  1.7133  2.3604 -2.8117
    7MOL0     H  870   1.785   1.727   1.380  0.4580  1.4366  0.4600
    7MOL0     H  871   1.619   1.599   1.267  0.9776 -1.0606  0.6224
    7MOL0     H  872   1.767   1.597   1.146  0.5201  0.5519 -2.2129
    7MOL0     H  873   1.567   1.802   1.105  0.6130  0.5569  2.1489
    7MOL0     H  874   1.686   1.737   1.002  0.8613  0.6661  1.0236
    7MOL0     H  875   1.569   1.521   0.994  0.9948 -0.2856  4.2010
    7MOL0     H  876   1.490   1.672   0.933  1.4374  3.0201  1.8072
    7MOL0     H  877   1.372   1.781   1.193 -4.8676  0.1434 -3.2017
    7MOL0     H  878   1.157   1.753   1.380 -1.6553 -0.2166  0.8295
    7MOL0     H  879   1.304   1.693   1.474  0.4397 -4.4554  2.0843
    7MOL0     H  880   1.132   1.622   1.579  3.1955  1.3839 -0.9993
    7MOL0     H  881   1.204   1.473   1.494  3.3237  0.4358 -5.5849
    7MOL0     H  882   1.017   1.486   1.327  0.3744  1.8433 -1.4649
    7MOL0     H  883   0.976   1.421   1.486 -4.4211 -0.3344 -5.4853
    7MOL0     H  884   0.875   1.661   1.553 -2.1230 -0.3613  0.7168
    7MOL0     H  885   0.792   1.556   1.436  0.0984 -1.6425  0.2154
    7MOL0     H  886   0.677   1.771   1.515 -2.6668 -1.1168 -0.3688
    7MOL0     H  887   0.504   1.918   1.466 -1.9698 -0.5866 -1.1182
    7MOL0     H  888   0.221   2.179   1.086 -2.0744 -1.1311  0.1955
    7MOL0     H  889   0.083   2.386   1.106 -2.5588 -2.0245  1.4050
    7MOL0     H  890  -0.051   2.615   1.189  0.8389  2.3827  0.0974
    7MOL0     H  891   0.126   2.615   1.184 -1.0008  2.1389 -1.8873
    7MOL0     H  892   0.077   2.825   1.245  1.8673  1.0628  1.9020
    7MOL0     H  893   0.113   2.736   1.399  0.5271 -4.3538 -1.3774
    7MOL0     H  894  -0.101   2.714   1.460 -0.2410 -3.0790 -3.9504
    7MOL0     H  895  -0.178   2.784   1.327 -1.1242 -4.1148  1.7008
    7MOL0     H  896   0.014   2.925   1.526 -0.5008 -0.7692 -1.0293
    7MOL0     H  897  -0.014   3.006   1.379  1.4152 -2.5934 -1.4657
    7MOL0     H  898  -0.238   2.945   1.590  1.8981 -0.0804  0.6320
    7MOL0     H  899  -0.262   3.032   1.433  0.5860 -0.2420 -1.0961
    7MOL0     H  900  -0.101   3.189   1.492 -1.3877  0.9281 -0.8154
    7MOL0     H  901  -0.075   3.118   1.644 -0.6762  4.2656  1.2974
    7MOL0     H  902  -0.305   3.158   1.718 -2.6764 -1.4010 -2.1015
    7MOL0     H  903  -0.221   3.307   1.665 -0.3612  3.8288 -4.6693
    7MOL0     H  904  -0.366   3.272   1.447  0.9238 -0.3483 -0.4616
    7MOL0     H  905  -0.448   3.316   1.601 -2.2329 -0.6200 -1.5422
    7MOL0     H  906   0.187   2.418   1.518 -0.2540  0.7751 -0.6492
    7MOL0     H  907   0.359   2.228   1.487  1.4150 -1.5554 -1.0229
    7MOL0     H  908   0.736   2.036   1.111  1.6589  0.5549  1.0831
    7MOL0     H  909   0.903   1.892   1.170 -0.4680 -0.8994 -0.5571
    7MOL0     H  910   2.307   2.195   1.392  1.5801 -0.0726 -0.6872
    7MOL0     H  911   2.440   2.410   1.462  0.6968  0.8026 -0.5754
    7MOL0     H  912   2.776   2.687   1.246 -2.5686  0.0538 -1.1697
    7MOL0     H  913   2.922   2.877   1.232  0.4000  0.4689  1.5272
    7MOL0     H  914   3.059   3.030   1.327 -4.1269 -3.0823 -0.4844
    7MOL0     H  915   3.064   3.197   1.355  2.2884  1.5862 -3.2678
    7MOL0     H  916   2.903   3.168   1.110 -0.0166  2.5086 -0.2880
    7MOL0     H  917   3.024   3.281   1.152 -0.3607  0.3256 -2.0892
    7MOL0     H  918   3.092   3.133   0.965  0.4342 -2.0271 -0.1255
    7MOL0     H  919   3.108   2.994   1.078  0.4804 -0.4200 -1.8483
    7MOL0     H  920   3.244   3.247   1.140  3.0896 -0.2968  1.6497
    7MOL0     H  921   3.270   3.087   1.200  0.0408  0.3774 -0.5012
    7MOL0     H  922   3.478   3.129   0.808  0.2794  2.3376  0.0394
    7MOL0     H  923   2.665   3.096   1.473  0.2357 -0.8179 -0.7513
    7MOL0     H  924   2.488   2.906   1.467 -2.0820 -2.4242 -4.3297
    8MOL0     O  925   1.668  11.140   5.665 -0.1231 -0.4728  0.6703
    8MOL0     C  926   1.576  11.165   5.586 -0.7003  0.2167  0.8051
    8MOL0     O  927   1.534  11.073   5.491 -0.4020  0.1567 -0.3813
    8MOL0     C  928   1.603  10.951   5.491 -0.0404 -0.1590 -0.7863
    8MOL0     C  929   1.529  10.835   5.480 -0.1175  0.1660  0.7418
    8MOL0     C  930   1.595  10.717   5.465  0.0009  0.6973  0.2983
    8MOL0     C  931   1.731  10.708   5.438 -0.5010  0.5780  0.4190
    8MOL0     O  932   1.790  10.579   5.426 -0.7991 -0.1191 -0.0397
    8MOL0     C  933   1.904  10.567   5.336 -0.1659 -0.9391 -0.9008
    8MOL0     C  934   1.864  10.558   5.185 -0.6651 -0.4833  0.2104
    8MOL0     C  935   1.985  10.557   5.090 -1.9522  0.2408 -0.0742
    8MOL0     C  936   1.949  10.556   4.934  0.6552  0.4223 -0.7631
    8MOL0     C  937   2.068  10.598   4.853 -0.4155 -0.3570  0.2659
    8MOL0     C  938   2.052  10.543   4.711 -0.9185  0.5927  0.0808
    8MOL0     C  939   1.938  10.589   4.618  0.2086 -0.1493  0.2627
    8MOL0     C  940   1.953  10.733   4.586  0.2001  0.2437 -0.5127
    8MOL0     N  941   1.832  10.806   4.546  0.0275 -0.5581  0.6844
    8MOL0     C  942   1.788  10.911   4.615  0.1193  0.0410 -0.6454
    8MOL0     C  943   1.691  10.967   4.535 -0.2355  0.5186  0.0483
    8MOL0     C  944   1.625  11.102   4.548  0.0584  0.2316  0.1317
    8MOL0     C  945   1.474  11.083   4.521 -0.1981  0.1473  0.9680
    8MOL0     C  946   1.400  11.014   4.636 -0.3790  0.1274 -0.5794
    8MOL0     C  947   1.256  10.990   4.612  0.2496 -0.2668  0.4424
    8MOL0     O  948   1.207  10.898   4.707  0.2354 -0.1242  0.1929
    8MOL0     C  949   1.072  10.886   4.724 -0.1679 -0.3348 -0.1747
    8MOL0     C  950   0.980  10.942   4.636  0.5749 -0.1344 -0.2669
    8MOL0     C  951   0.845  10.946   4.678  0.0368  0.5877  0.4264
    8MOL0     C  952   0.807  10.879   4.795 -0.3232  0.4920  0.0012
    8MOL0     C  953   0.667  10.875   4.832 -0.5122  0.5409 -0.4518
    8MOL0     O  954   0.629  10.771   4.920  0.0054  0.6476  0.0335
    8MOL0     C  955   0.509  10.762   4.986  0.2704  0.5844 -1.3845
    8MOL0     C  956   0.472  10.636   5.040  0.6627  0.1362  0.4931
    8MOL0     C  957   0.348  10.628   5.104  0.3253  0.4503 -0.6983
    8MOL0     C  958   0.257  10.734   5.111  0.6076 -0.4790 -0.6187
    8MOL0     O  959   0.127  10.709   5.155  0.0674 -0.9219 -0.2136
    8MOL0     C  960   0.038  10.815   5.210 -0.0406  0.0610  0.0453
    8MOL0     C  961  -0.086  10.813   5.135  0.1534  0.0180 -0.0202
    8MOL0     C  962  -0.160  10.952   5.134  0.1090  0.1795  0.1437
    8MOL0     C  963  -0.313  10.944   5.093 -0.0773 -0.5317 -0.6327
    8MOL0     C  964  -0.398  11.054   5.165  0.0908  0.5612  0.4084
    8MOL0     C  965  -0.554  11.032   5.147 -0.5127 -0.6384  0.6251
    8MOL0     C  966  -0.635  10.979   5.266 -0.6681  0.2862  0.0766
    8MOL0     C  967  -0.681  11.083   5.371  0.3291  0.0618  0.4756
    8MOL0    Cl  968  -0.548  11.186   5.443  0.4515  0.6152  0.1390
    8MOL0     C  969   0.290  10.855   5.054  0.3622 -0.6484  0.1190
    8MOL0     C  970   0.417  10.868   5.001 -0.2521  0.2943 -0.0205
    8MOL0     O  971   0.590  10.962   4.792  0.2889 -0.0931  0.2821
    8MOL0     C  972   0.898  10.826   4.883 -0.1523  0.2783  0.3232
    8MOL0     C  973   1.033  10.828   4.846  0.2309  0.1047  0.5817
    8MOL0     N  974   1.684  10.890   4.418 -0.0380  0.4345 -0.4384
    8MOL0     N  975   1.766  10.785   4.432  0.3821 -0.6122 -0.3433
    8MOL0     C  976   1.804  10.827   5.436  0.1935  0.6815  0.7377
    8MOL0     C  977   1.744  10.943   5.469  0.2709 -0.7456  0.1149
    8MOL0     C  978   1.502  11.292   5.592 -0.2257  0.2512 -0.3769
    8MOL0     C  979   1.394  11.318   5.511 -0.4564  0.3602 -0.1795
    8MOL0     C  980   1.321  11.431   5.540  0.0345 -0.9464  0.9832
    8MOL0     C  981   1.365  11.533   5.630 -0.6436 -0.5185 -0.3342
    8MOL0     O  982   1.287  11.649   5.629  0.8015 -0.5104 -0.1338
    8MOL0     C  983   1.286  11.728   5.747 -0.2913  0.1083  0.9654
    8MOL0     C  984   1.355  11.866   5.732 -0.0299 -1.0542 -0.2795
    8MOL0     C  985   1.505  11.862   5.710 -0.4942  0.0690  0.7613
    8MOL0     C  986   1.561  12.008   5.706  1.3334  0.8149  0.1673
    8MOL0     C  987   1.588  12.060   5.836 -0.4524  0.8366 -0.5236
    8MOL0     C  988   1.619  12.098   5.949  0.2626  0.5180 -0.0828
    8MOL0     C  989   1.484  11.510   5.712  0.0686  1.1224  0.5371
    8MOL0     C  990   1.553  11.385   5.687  0.6549  0.1761 -0.5304
    8MOL0     H  991   1.422  10.832   5.495  0.1878  0.4362  3.7415
    8MOL0     H  992   1.525  10.634   5.478 -0.8247  1.2224 -0.6463
    8MOL0     H  993   1.957  10.477   5.370  0.5231  0.2696  1.4286
    8MOL0     H  994   1.975  10.646   5.360 -1.0066 -1.0388  2.6055
    8MOL0     H  995   1.792  10.637   5.166  0.7992  0.4052 -1.9797
    8MOL0     H  996   1.812  10.464   5.167  2.7935 -2.1778 -2.0367
    8MOL0     H  997   2.034  10.460   5.101 -0.4068  0.6930 -2.2460
    8MOL0     H  998   2.053  10.639   5.115 -1.4929 -0.0732 -0.2843
    8MOL0     H  999   1.922  10.454   4.906 -3.0221  0.7489  0.9961
    8MOL0     H 1000   1.867  10.619   4.898  1.4280  0.7298 -2.0553
    8MOL0     H 1001   2.161  10.561   4.896  0.9806  3.3204  0.7190
    8MOL0     H 1002   2.068  10.707   4.854 -1.6341 -0.3395  0.6747
    8MOL0     H 1003   2.051  10.434   4.703  0.1819  0.5752  0.1410
    8MOL0     H 1004   2.141  10.569   4.653 -0.4794 -2.6370 -0.8681
    8MOL0     H 1005   1.915  10.523   4.534 -0.7914 -0.6910  0.9315
    8MOL0     H 1006   1.849  10.580   4.682  1.1206 -1.8637  1.3595
    8MOL0     H 1007   2.029  10.735   4.507  1.8520  0.6189  1.0122
    8MOL0     H 1008   1.989  10.786   4.675 -0.9299 -2.2076  1.5504
    8MOL0     H 1009   1.832  10.970   4.695  0.0248  0.7303 -1.0924
    8MOL0     H 1010   1.661  11.175   4.475  2.2209  0.5394  1.4277
    8MOL0     H 1011   1.633  11.146   4.648 -2.4498  1.0041  0.0520
    8MOL0     H 1012   1.453  11.029   4.428  0.9366  1.6641 -0.2196
    8MOL0     H 1013   1.443  11.188   4.524  0.5601  0.3672  1.4109
    8MOL0     H 1014   1.449  10.922   4.667 -1.3649  0.2722  1.5594
    8MOL0     H 1015   1.400  11.093   4.712  2.5604 -0.2951 -0.0530
    8MOL0     H 1016   1.239  10.953   4.511  2.5635  0.9937 -0.4920
    8MOL0     H 1017   1.211  11.089   4.621 -2.4774 -1.3001 -0.9992
    8MOL0     H 1018   1.013  10.993   4.546  2.2219 -0.9441 -0.1508
    8MOL0     H 1019   0.779  10.991   4.605  0.4869  2.0081  0.8592
    8MOL0     H 1020   0.536  10.548   5.030  1.8522  0.9921  0.3393
    8MOL0     H 1021   0.320  10.532   5.145  0.4364 -0.4708 -2.6391
    8MOL0     H 1022   0.079  10.916   5.199  1.2291 -0.1138  2.5469
    8MOL0     H 1023   0.022  10.813   5.318  2.8564  2.0059  0.6484
    8MOL0     H 1024  -0.153  10.734   5.171  0.4114 -0.2993 -0.2254
    8MOL0     H 1025  -0.048  10.789   5.036  0.1636 -1.7850  0.3739
    8MOL0     H 1026  -0.107  11.027   5.074  0.7214 -1.3562 -1.3236
    8MOL0     H 1027  -0.165  10.998   5.232 -1.8917  0.0252  0.1574
    8MOL0     H 1028  -0.349  10.942   4.990 -5.1238  1.0331  0.8379
    8MOL0     H 1029  -0.352  10.852   5.137 -1.7077  0.0729 -0.7491
    8MOL0     H 1030  -0.370  11.152   5.125 -0.4674  0.7414  0.4561
    8MOL0     H 1031  -0.377  11.044   5.272 -0.0163  1.1490  0.4880
    8MOL0     H 1032  -0.575  10.974   5.057  1.5282 -2.9055  1.5090
    8MOL0     H 1033  -0.592  11.133   5.129 -1.1955 -0.5072  2.5264
    8MOL0     H 1034  -0.731  10.932   5.243  0.4277 -2.3207  0.4787
    8MOL0     H 1035  -0.573  10.905   5.318 -4.3638 -2.0890  1.4993
    8MOL0     H 1036  -0.749  11.035   5.442 -2.3150  1.5015 -0.9461
    8MOL0     H 1037  -0.745  11.145   5.308  4.3961  0.9714 -3.2938
    8MOL0     H 1038   0.216  10.931   5.028  2.6749  2.3147  1.5705
    8MOL0     H 1039   0.437  10.966   4.959  3.1959 -0.3515 -0.1776
    8MOL0     H 1040   0.878  10.788   4.982  0.0319 -0.1995  0.1788
    8MOL0     H 1041   1.107  10.781   4.910  0.5135  0.8087  0.7746
    8MOL0     H 1042   1.912  10.828   5.433  0.2896 -1.7936  1.0410
    8MOL0     H 1043   1.811  11.027   5.460 -0.1903 -0.2679  1.0025
    8MOL0     H 1044   1.350  11.253   5.436 -1.4573  1.4925 -0.6132
    8MOL0     H 1045   1.224  11.458   5.498  1.5977 -0.0170 -2.3531
    8MOL0     H 1046   1.343  11.685   5.831  0.8459 -0.1393  0.0852
    8MOL0     H 1047   1.178  11.735   5.760 -0.8793 -2.2847 -1.7190
    8MOL0     H 1048   1.305  11.917   5.649 -1.3130  1.1807  1.7202
    8MOL0     H 1049   1.334  11.932   5.817 -1.6594  0.2819 -1.6283
    8MOL0     H 1050   1.534  11.824   5.612  0.8310 -1.2603  1.6285
    8MOL0     H 1051   1.552  11.808   5.792 -2.4661 -0.7561  1.4001
    8MOL0     H 1052   1.656  12.006   5.651  0.8892  1.4963 -0.6546
    8MOL0     H 1053   1.486  12.070   5.656  2.6123  1.0906 -1.5097
    8MOL0     H 1054   1.637  12.158   6.035  0.6280  1.6504 -0.9340
    8MOL0     H 1055   1.525  11.581   5.783 -0.1579  1.4053  0.3876
    8MOL0     H 1056   1.648  11.373   5.738  0.3967 -3.6075 -0.6583
    9MOL0     O 1057   1.378   9.400   9.953 -0.2805  0.1033  0.6001
    9MOL0     C 1058   1.485   9.407   9.883  0.8238 -0.4171  1.0049
    9MOL0     O 1059   1.551   9.307   9.831  0.2037 -0.0886  0.4897
    9MOL0     C 1060   1.522   9.181   9.863  0.4795  0.8273 -0.1939
    9MOL0     C 1061   1.486   9.128   9.996 -0.6777  0.8197  0.9050
    9MOL0     C 1062   1.460   8.991  10.018 -0.8726 -0.4922 -0.7697
    9MOL0     C 1063   1.451   8.901   9.909 -0.5162 -0.9923  0.0778
    9MOL0     O 1064   1.416   8.767   9.927  0.1224 -1.0118  0.0770
    9MOL0     C 1065   1.450   8.712  10.053  0.1464 -0.0864  0.7224
    9MOL0     C 1066   1.464   8.566  10.046 -0.6889  0.0753  0.2708
    9MOL0     C 1067   1.600   8.530   9.991 -0.1076  0.2313 -0.4750
    9MOL0     C 1068   1.607   8.379   9.975  0.2004 -0.0321 -0.5459
    9MOL0     C 1069   1.527   8.325   9.856 -1.2110 -0.0941 -0.5980
    9MOL0     C 1070   1.594   8.387   9.727 -0.2994 -0.3793  0.4892
    9MOL0     C 1071   1.527   8.322   9.607 -0.0851 -0.8190  0.8923
    9MOL0     C 1072   1.572   8.391   9.465  0.0971 -0.8938 -0.4980
    9MOL0     N 1073   1.489   8.502   9.422  0.3110  0.7114 -0.6327
    9MOL0     C 1074   1.538   8.593   9.332 -0.0867  0.7615  0.1384
    9MOL0     C 1075   1.477   8.705   9.372 -0.0040 -0.5265 -0.6374
    9MOL0     C 1076   1.496   8.842   9.300 -0.6186 -0.0369  0.0610
    9MOL0     C 1077   1.434   8.845   9.157 -0.2345 -0.3325 -1.3428
    9MOL0     C 1078   1.480   8.969   9.082  1.0950  0.1943 -0.3508
    9MOL0     C 1079   1.431   8.980   8.940  0.0422 -1.0015  0.1478
    9MOL0     O 1080   1.479   8.868   8.867 -0.0587 -0.7181 -0.4528
    9MOL0     C 1081   1.487   8.883   8.732 -0.2749 -0.0860 -0.6619
    9MOL0     C 1082   1.600   8.833   8.668 -0.0237  1.0385 -0.5151
    9MOL0     C 1083   1.619   8.837   8.528 -0.0759 -0.3476 -0.1108
    9MOL0     C 1084   1.517   8.907   8.455 -0.1028  0.1658 -0.2793
    9MOL0     C 1085   1.524   8.935   8.304  0.3155 -0.4590 -0.5616
    9MOL0     O 1086   1.442   9.027   8.251 -0.0995 -0.0477  0.6764
    9MOL0     C 1087   1.422   9.038   8.111  0.5102  0.2483 -0.0978
    9MOL0     C 1088   1.301   9.006   8.059 -0.9132 -0.2411  0.0235
    9MOL0     C 1089   1.273   9.041   7.919 -0.2603  0.2434 -0.4297
    9MOL0     C 1090   1.369   9.102   7.840 -0.4081 -0.8373  0.5440
    9MOL0     O 1091   1.363   9.153   7.711 -0.2286  0.0477 -1.0302
    9MOL0     C 1092   1.249   9.110   7.635 -0.0573 -0.0792  0.3194
    9MOL0     C 1093   1.249   9.169   7.493 -0.0798 -0.4092  0.2342
    9MOL0     C 1094   1.353   9.118   7.390 -0.1108  0.2628  0.0307
    9MOL0     C 1095   1.298   9.012   7.293 -0.6966 -0.6970 -0.1389
    9MOL0     C 1096   1.390   9.004   7.173  0.0506 -0.1972  0.1791
    9MOL0     C 1097   1.345   8.885   7.078 -1.2019 -0.5887 -0.5690
    9MOL0     C 1098   1.438   8.871   6.956 -0.6684  0.9024 -0.1631
    9MOL0     C 1099   1.395   8.745   6.887  0.3817 -0.1048  0.4433
    9MOL0    Cl 1100   1.428   8.600   6.986  0.0616  0.3000 -0.1781
    9MOL0     C 1101   1.486   9.139   7.905 -0.3788  0.0614 -0.2062
    9MOL0     C 1102   1.512   9.107   8.043  0.1386  0.6399  0.4490
    9MOL0     O 1103   1.605   8.861   8.243  0.2447  0.3681 -0.2835
    9MOL0     C 1104   1.417   8.980   8.525  0.3942 -1.0359 -0.4114
    9MOL0     C 1105   1.408   8.967   8.663 -0.2356  0.1217  0.6952
    9MOL0     N 1106   1.386   8.682   9.477  0.2497 -0.9447 -0.1113
    9MOL0     N 1107   1.393   8.557   9.498  0.1945 -0.0204 -1.1458
    9MOL0     C 1108   1.505   8.949   9.788  0.5485 -0.7284 -0.6496
    9MOL0     C 1109   1.536   9.084   9.767 -1.1186 -0.2536 -0.9371
    9MOL0     C 1110   1.537   9.548   9.857  0.3267 -0.4585 -1.0094
    9MOL0     C 1111   1.664   9.563   9.800  0.0514 -0.4083  0.3253
    9MOL0     C 1112   1.708   9.693   9.772  0.8156 -0.9929 -0.6058
    9MOL0     C 1113   1.633   9.808   9.810  1.1738 -0.2780 -0.2186
    9MOL0     O 1114   1.687   9.927   9.767 -0.3967 -0.6313 -0.1848
    9MOL0     C 1115   1.592  10.028   9.729 -0.0055  0.2253 -0.1660
    9MOL0     C 1116   1.667  10.135   9.664 -0.0511 -0.7011  0.7678
    9MOL0     C 1117   1.743  10.221   9.765 -0.4181  0.0293 -0.3631
    9MOL0     C 1118   1.828  10.330   9.703  0.4187  0.6511 -0.3376
    9MOL0     C 1119   1.737  10.430   9.647  0.4166 -0.6656  0.0796
    9MOL0     C 1120   1.682  10.528   9.601  0.5851 -0.3223  0.1086
    9MOL0     C 1121   1.506   9.787   9.872  0.3282 -0.3288 -1.0059
    9MOL0     C 1122   1.456   9.662   9.887  0.9651  0.5836  0.2915
    9MOL0     H 1123   1.494   9.202  10.075  2.1494  5.9520 -3.5773
    9MOL0     H 1124   1.447   8.953  10.118  0.3266 -2.0515 -1.1622
    9MOL0     H 1125   1.368   8.730  10.123  1.4793  3.0299  1.6978
    9MOL0     H 1126   1.547   8.754  10.082  0.2327 -0.9352  1.7202
    9MOL0     H 1127   1.379   8.527   9.989 -0.8194 -0.2130  0.6566
    9MOL0     H 1128   1.450   8.526  10.147 -0.3792  0.9279  0.6579
    9MOL0     H 1129   1.676   8.566  10.060 -0.5150  2.1460 -0.9703
    9MOL0     H 1130   1.617   8.583   9.896  0.4151 -3.4871 -2.6729
    9MOL0     H 1131   1.713   8.354   9.958  0.3630  1.2076 -1.5883
    9MOL0     H 1132   1.583   8.322  10.065  0.4445  0.6965 -0.0056
    9MOL0     H 1133   1.420   8.350   9.856 -1.1514  0.1593 -0.6498
    9MOL0     H 1134   1.558   8.221   9.861  0.1639  0.3459  0.7464
    9MOL0     H 1135   1.703   8.381   9.728  0.2087  2.7118 -4.4939
    9MOL0     H 1136   1.564   8.492   9.720 -2.0088 -0.8113  0.9084
    9MOL0     H 1137   1.562   8.218   9.610  3.2989  0.1902  1.2525
    9MOL0     H 1138   1.418   8.315   9.615 -0.4217 -0.6064 -2.1272
    9MOL0     H 1139   1.577   8.303   9.400  5.1175 -3.2688  2.5284
    9MOL0     H 1140   1.672   8.432   9.481 -0.9369  1.4561  0.4010
    9MOL0     H 1141   1.619   8.576   9.261  1.5421 -1.7222  2.4011
    9MOL0     H 1142   1.604   8.859   9.295 -0.1622 -1.5890  2.8073
    9MOL0     H 1143   1.450   8.920   9.361 -0.3179 -0.8680  1.3870
    9MOL0     H 1144   1.325   8.851   9.166  0.0343  1.9123  2.9922
    9MOL0     H 1145   1.467   8.756   9.103 -1.9262 -1.6075 -0.3558
    9MOL0     H 1146   1.445   9.062   9.129 -1.1463  0.5490 -2.5010
    9MOL0     H 1147   1.589   8.971   9.080  1.3386 -3.5037  0.5938
    9MOL0     H 1148   1.470   9.075   8.901 -1.3756  1.1298  3.4366
    9MOL0     H 1149   1.321   8.982   8.936  0.0426  1.3395 -0.5521
    9MOL0     H 1150   1.671   8.776   8.726 -0.0874  0.3656 -1.0903
    9MOL0     H 1151   1.701   8.783   8.481 -0.6917 -0.8338 -0.6551
    9MOL0     H 1152   1.232   8.961   8.129  0.4116 -2.5857 -0.0808
    9MOL0     H 1153   1.173   9.031   7.877 -0.0168 -1.1877 -0.7107
    9MOL0     H 1154   1.152   9.136   7.678 -0.0672  0.8817 -0.2662
    9MOL0     H 1155   1.263   9.002   7.639 -1.6169 -0.3462  5.0612
    9MOL0     H 1156   1.270   9.276   7.504  1.1271 -0.6984  0.9622
    9MOL0     H 1157   1.146   9.156   7.459 -0.8310  2.6719  1.0018
    9MOL0     H 1158   1.434   9.077   7.450  0.7578 -0.1548 -1.3831
    9MOL0     H 1159   1.369   9.210   7.332  0.6575  0.1137 -0.0080
    9MOL0     H 1160   1.298   8.913   7.340  0.4711 -0.3821  0.5671
    9MOL0     H 1161   1.197   9.044   7.268  0.3889  0.5966 -3.4071
    9MOL0     H 1162   1.493   8.987   7.205  2.0469  3.7368 -3.2350
    9MOL0     H 1163   1.400   9.098   7.118  0.2939  0.9716  2.1153
    9MOL0     H 1164   1.240   8.894   7.047 -0.3933  0.3324 -3.3135
    9MOL0     H 1165   1.365   8.796   7.139  1.0250  0.3016  0.0858
    9MOL0     H 1166   1.426   8.961   6.895 -0.5332 -0.6536 -2.6161
    9MOL0     H 1167   1.543   8.870   6.988  0.4382 -0.7992 -3.4315
    9MOL0     H 1168   1.444   8.748   6.789  1.5024 -0.2070  0.9835
    9MOL0     H 1169   1.287   8.753   6.870  0.2051 -1.2449  0.9448
    9MOL0     H 1170   1.568   9.196   7.863  0.7232 -1.3984 -0.1371
    9MOL0     H 1171   1.601   9.132   8.101  0.2902  0.5843  0.2435
    9MOL0     H 1172   1.346   9.039   8.467  0.6263 -1.2561 -0.9287
    9MOL0     H 1173   1.323   9.015   8.711  0.5802  0.0559  2.2611
    9MOL0     H 1174   1.497   8.879   9.706  0.0451 -0.6898 -0.6379
    9MOL0     H 1175   1.572   9.120   9.671 -1.7842  1.4428 -0.5951
    9MOL0     H 1176   1.741   9.490   9.775 -1.3602 -2.4478  1.6354
    9MOL0     H 1177   1.810   9.696   9.737  1.1955 -0.1025  0.5154
    9MOL0     H 1178   1.533  10.069   9.812 -0.0425  0.4207 -0.2873
    9MOL0     H 1179   1.514   9.979   9.669 -1.2838  1.9267  0.0299
    9MOL0     H 1180   1.735  10.094   9.589 -0.1008 -0.2812  0.4903
    9MOL0     H 1181   1.592  10.198   9.615 -1.2241 -2.1933  0.5390
    9MOL0     H 1182   1.809  10.159   9.825 -1.7122 -1.8603 -0.7956
    9MOL0     H 1183   1.671  10.267   9.833 -0.8371 -0.1038 -0.7056
    9MOL0     H 1184   1.880  10.376   9.788  1.6542 -2.6679  0.8854
    9MOL0     H 1185   1.910  10.291   9.642  1.9766 -0.9620  2.5255
    9MOL0     H 1186   1.633  10.604   9.543  4.6333  2.7813  0.3341
    9MOL0     H 1187   1.436   9.868   9.892 -1.9183 -1.7274 -2.6978
    9MOL0     H 1188   1.359   9.652   9.934  0.9231 -0.6830 -0.0175
   10MOL0     O 1189   2.101  11.357   8.163 -0.6039  0.0929 -0.4060
   10MOL0     C 1190   2.061  11.344   8.055 -0.1710  0.3768 -0.8175
   10MOL0     O 1191   1.963  11.416   7.997  0.3548 -0.3634 -0.3497
   10MOL0     C 1192   1.945  11.548   8.036 -0.3291 -1.7959  0.3164
   10MOL0     C 1193   1.839  11.618   7.973  0.9533  0.5967 -0.4224
   10MOL0     C 1194   1.814  11.751   8.005 -0.5799  0.3839  0.9864
   10MOL0     C 1195   1.895  11.827   8.084  0.7593  0.5055 -0.2890
   10MOL0     O 1196   1.851  11.953   8.105 -0.3727 -0.1680  0.3924
   10MOL0     C 1197   1.908  12.032   8.218 -0.1260  0.5361  0.4574
   10MOL0     C 1198   1.842  12.168   8.229  1.0034 -0.3373 -0.6741
   10MOL0     C 1199   1.827  12.248   8.097 -0.6098 -0.5434 -0.6199
   10MOL0     C 1200   1.728  12.359   8.128  0.0124  0.1216 -0.6873
   10MOL0     C 1201   1.727  12.469   8.018  0.5899 -1.2207  0.2433
   10MOL0     C 1202   1.622  12.577   8.036 -0.4080  0.8673  0.1650
   10MOL0     C 1203   1.610  12.686   7.939 -0.7565 -0.0103  1.0408
   10MOL0     C 1204   1.467  12.752   7.956  0.3216 -0.2732 -0.5230
   10MOL0     N 1205   1.433  12.858   7.859  0.5107 -0.2723  0.1523
   10MOL0     C 1206   1.380  12.833   7.729  0.0817 -0.3845 -0.5032
   10MOL0     C 1207   1.338  12.956   7.687  0.0535 -0.1173 -0.5016
   10MOL0     C 1208   1.267  12.982   7.555  0.1599 -0.6845 -0.1956
   10MOL0     C 1209   1.364  13.043   7.449 -0.2890  0.5398 -0.7880
   10MOL0     C 1210   1.385  13.200   7.459  0.3367  0.0810  0.0882
   10MOL0     C 1211   1.501  13.239   7.552 -0.4684 -0.3710  0.6558
   10MOL0     O 1212   1.611  13.302   7.484  0.1838  0.6358 -0.5476
   10MOL0     C 1213   1.688  13.376   7.564 -0.2110  0.7451 -0.4448
   10MOL0     C 1214   1.654  13.504   7.590 -0.5164  0.7394 -0.3245
   10MOL0     C 1215   1.725  13.580   7.681 -0.2328  0.4112 -0.1617
   10MOL0     C 1216   1.830  13.532   7.750 -0.5065 -0.2555  0.8551
   10MOL0     C 1217   1.905  13.612   7.850 -0.8876 -0.6131  0.6199
   10MOL0     O 1218   1.989  13.555   7.939 -0.1209 -0.2704  0.1407
   10MOL0     C 1219   2.080  13.609   8.032 -0.7144 -0.1909 -0.0734
   10MOL0     C 1220   2.209  13.547   8.035  0.9704 -0.4386 -0.8642
   10MOL0     C 1221   2.296  13.590   8.135 -0.5298  0.0836 -0.0137
   10MOL0     C 1222   2.275  13.703   8.214 -0.7512 -0.0385  0.0879
   10MOL0     O 1223   2.377  13.754   8.298  0.2323 -0.1855  0.3813
   10MOL0     C 1224   2.502  13.692   8.334  0.6927  0.7589 -0.0933
   10MOL0     C 1225   2.629  13.763   8.286 -0.6920  0.1652 -0.5102
   10MOL0     C 1226   2.759  13.695   8.321  0.3144  0.3018  0.3284
   10MOL0     C 1227   2.782  13.692   8.474 -0.0754 -0.2825  0.1699
   10MOL0     C 1228   2.907  13.609   8.506  0.5736 -0.2290 -0.1468
   10MOL0     C 1229   3.043  13.650   8.442 -0.3399  0.1767 -0.7177
   10MOL0     C 1230   3.154  13.638   8.544  0.0399 -0.3279 -0.7743
   10MOL0     C 1231   3.289  13.638   8.476  1.3919 -0.8593  0.9353
   10MOL0    Cl 1232   3.430  13.623   8.595 -0.1296  0.2919 -0.1059
   10MOL0     C 1233   2.160  13.771   8.193 -0.0619  0.3343  0.1493
   10MOL0     C 1234   2.062  13.724   8.116  0.2448  0.0431 -0.3747
   10MOL0     O 1235   1.876  13.736   7.853  0.5004 -0.6205  0.2864
   10MOL0     C 1236   1.865  13.397   7.725  0.0801 -0.3283  0.3768
   10MOL0     C 1237   1.802  13.325   7.631  0.7043  0.4478 -0.1417
   10MOL0     N 1238   1.363  13.055   7.780  1.1038  0.2141  0.3400
   10MOL0     N 1239   1.419  12.993   7.879  0.0747 -0.4060  0.0422
   10MOL0     C 1240   2.009  11.769   8.138 -0.2149  0.5705  0.1804
   10MOL0     C 1241   2.033  11.630   8.115  0.0854 -0.7268 -0.7441
   10MOL0     C 1242   2.116  11.241   7.973  0.4173  0.8047  0.1586
   10MOL0     C 1243   2.127  11.113   8.030  0.7067 -0.0777 -0.0810
   10MOL0     C 1244   2.190  11.011   7.960 -0.2606  0.5519  0.7925
   10MOL0     C 1245   2.238  11.036   7.831  0.7634 -0.0562 -0.7545
   10MOL0     O 1246   2.284  10.929   7.758  0.2525 -0.4601 -0.4767
   10MOL0     C 1247   2.250  10.915   7.618 -0.5053 -1.0835 -0.0782
   10MOL0     C 1248   2.257  10.765   7.570 -0.2209 -0.7668 -0.2745
   10MOL0     C 1249   2.130  10.689   7.599  0.2517  0.4696 -0.7995
   10MOL0     C 1250   2.122  10.559   7.518 -0.7127 -0.5803  0.1308
   10MOL0     C 1251   2.076  10.561   7.379  0.1717 -0.6363 -0.2115
   10MOL0     C 1252   2.043  10.565   7.262 -0.3591  0.2880 -0.2038
   10MOL0     C 1253   2.242  11.169   7.779  1.1091  0.1812  0.5817
   10MOL0     C 1254   2.177  11.268   7.848 -0.0986  0.1052  0.2293
   10MOL0     H 1255   1.774  11.567   7.902 -2.0351  1.1825  1.6897
   10MOL0     H 1256   1.725  11.797   7.963 -0.4506 -0.0852  0.1523
   10MOL0     H 1257   2.015  12.033   8.195 -0.4701 -3.2536 -2.1900
   10MOL0     H 1258   1.892  11.985   8.315  2.4767  0.5629  0.9873
   10MOL0     H 1259   1.884  12.234   8.305 -0.4814 -0.8622  0.6499
   10MOL0     H 1260   1.743  12.148   8.271  2.6582 -1.1514  3.2831
   10MOL0     H 1261   1.801  12.192   8.007 -2.2241  1.2906 -1.3881
   10MOL0     H 1262   1.928  12.288   8.084  0.1488 -2.2658 -0.2930
   10MOL0     H 1263   1.625  12.324   8.145  0.1482  0.7031  1.7526
   10MOL0     H 1264   1.747  12.404   8.226 -1.3670  3.2369 -1.7191
   10MOL0     H 1265   1.730  12.433   7.915 -1.4066 -0.5328 -0.0974
   10MOL0     H 1266   1.818  12.525   8.039  0.6258 -2.1848  3.2136
   10MOL0     H 1267   1.646  12.635   8.126 -2.9871  0.3337  1.2705
   10MOL0     H 1268   1.527  12.531   8.062  1.4763 -2.4047  1.8857
   10MOL0     H 1269   1.669  12.777   7.954 -0.5745 -0.2681  1.8829
   10MOL0     H 1270   1.629  12.651   7.837  1.3064 -1.2331  1.7864
   10MOL0     H 1271   1.440  12.782   8.057 -2.5352  3.5101 -2.1697
   10MOL0     H 1272   1.382  12.683   7.948 -0.1723  0.2718 -0.0132
   10MOL0     H 1273   1.366  12.743   7.669  1.7018  1.4210 -3.8619
   10MOL0     H 1274   1.187  13.052   7.581  1.3059 -0.3336  2.9053
   10MOL0     H 1275   1.226  12.890   7.512  5.1266 -2.2851 -2.2271
   10MOL0     H 1276   1.328  13.028   7.347  0.4941 -1.1367 -0.8690
   10MOL0     H 1277   1.458  12.990   7.468  0.7821  2.5133 -0.3857
   10MOL0     H 1278   1.406  13.245   7.361 -2.8016  1.0735 -0.2401
   10MOL0     H 1279   1.297  13.247   7.505  1.4963 -0.3202  2.8988
   10MOL0     H 1280   1.550  13.148   7.587  2.4558  0.4475 -0.9558
   10MOL0     H 1281   1.466  13.299   7.636 -1.1140  1.1409 -0.6311
   10MOL0     H 1282   1.563  13.543   7.545 -0.4136 -0.2643 -1.4385
   10MOL0     H 1283   1.689  13.677   7.713  0.4536  0.1485  1.5522
   10MOL0     H 1284   2.227  13.485   7.948 -1.8328  1.8117 -3.2743
   10MOL0     H 1285   2.392  13.540   8.141  0.2707  1.2993 -1.6393
   10MOL0     H 1286   2.502  13.586   8.310 -3.0488  0.2617  1.4880
   10MOL0     H 1287   2.513  13.691   8.443 -1.6286 -2.3598  0.2308
   10MOL0     H 1288   2.635  13.867   8.318  3.8910  0.1739 -0.8438
   10MOL0     H 1289   2.630  13.781   8.178  0.1122 -4.0256 -1.3998
   10MOL0     H 1290   2.847  13.732   8.269  1.8178 -1.6042  1.3507
   10MOL0     H 1291   2.763  13.590   8.291  4.4216  0.2575  0.4426
   10MOL0     H 1292   2.804  13.794   8.508 -0.4679  0.3612 -1.4220
   10MOL0     H 1293   2.700  13.651   8.534 -0.4281 -1.9199 -1.3483
   10MOL0     H 1294   2.883  13.507   8.474  1.4016 -0.3697 -0.3384
   10MOL0     H 1295   2.928  13.617   8.613  2.0884  2.8219 -0.5596
   10MOL0     H 1296   3.033  13.755   8.410  0.4814  0.0198 -1.5077
   10MOL0     H 1297   3.066  13.604   8.346  1.2335 -2.1402  0.6836
   10MOL0     H 1298   3.146  13.728   8.606  1.0626 -0.0585 -1.0281
   10MOL0     H 1299   3.144  13.551   8.609 -1.2829 -0.5248 -1.2083
   10MOL0     H 1300   3.294  13.724   8.409 -4.7473  0.6268  1.8084
   10MOL0     H 1301   3.277  13.547   8.415 -0.2729  0.2198 -0.4449
   10MOL0     H 1302   2.131  13.861   8.246 -1.0821  1.5975 -2.3906
   10MOL0     H 1303   1.975  13.788   8.103  1.9599  2.6892  0.4431
   10MOL0     H 1304   1.946  13.339   7.770  0.8321  2.3108  2.7190
   10MOL0     H 1305   1.845  13.226   7.626  0.6318  0.4182 -0.1877
   10MOL0     H 1306   2.089  11.833   8.172  0.6217  0.7047 -1.8977
   10MOL0     H 1307   2.121  11.586   8.161 -1.0105 -1.2670  0.9664
   10MOL0     H 1308   2.087  11.093   8.129  2.0413 -2.1608  0.1161
   10MOL0     H 1309   2.180  10.906   7.987  2.6716 -0.0855 -0.2758
   10MOL0     H 1310   2.322  10.975   7.561 -2.4064  1.0168 -0.4072
   10MOL0     H 1311   2.150  10.954   7.601  0.6581  1.2330 -2.2272
   10MOL0     H 1312   2.272  10.771   7.461  4.0942 -0.3708  0.1770
   10MOL0     H 1313   2.344  10.718   7.616 -1.4115  0.8784  4.1492
   10MOL0     H 1314   2.036  10.740   7.578 -1.6064 -1.2695  2.4061
   10MOL0     H 1315   2.135  10.665   7.706 -1.2823  2.5775 -0.1980
   10MOL0     H 1316   2.220  10.511   7.525 -1.1799 -2.5354 -3.7879
   10MOL0     H 1317   2.061  10.482   7.568 -1.1842 -0.5496 -0.3861
   10MOL0     H 1318   1.990  10.562   7.168  2.0921 -1.8640 -1.6518
   10MOL0     H 1319   2.282  11.187   7.680 -0.9290  1.7295 -0.0097
   10MOL0     H 1320   2.174  11.370   7.810 -2.3551  0.2365  0.6264
   11MOL0     O 1321   0.666   2.631   2.212 -0.2908 -0.2374 -0.2060
   11MOL0     C 1322   0.785   2.645   2.201  0.8061 -0.7584 -0.4432
   11MOL0     O 1323   0.847   2.766   2.190 -0.0615 -0.2494  0.0387
   11MOL0     C 1324   0.770   2.877   2.184  0.0923 -0.2915 -0.4737
   11MOL0     C 1325   0.797   2.967   2.084  0.1830 -0.6511 -0.1050
   11MOL0     C 1326   0.725   3.088   2.069 -0.9081  0.8126  0.4111
   11MOL0     C 1327   0.637   3.122   2.173  1.0289 -0.4161  0.6176
   11MOL0     O 1328   0.567   3.239   2.186  0.3093  0.3889 -0.1347
   11MOL0     C 1329   0.626   3.358   2.126 -0.0821  0.6380 -0.4295
   11MOL0     C 1330   0.552   3.481   2.181  0.1181  0.1418  0.5155
   11MOL0     C 1331   0.615   3.595   2.110  0.6318  0.3272 -0.4437
   11MOL0     C 1332   0.667   3.698   2.207 -0.3975  0.0782 -0.3380
   11MOL0     C 1333   0.758   3.791   2.136 -0.9446  0.6142  0.2985
   11MOL0     C 1334   0.785   3.908   2.231  0.5376 -0.4502 -0.3590
   11MOL0     C 1335   0.891   4.002   2.198 -0.1148  0.2529 -0.4895
   11MOL0     C 1336   0.835   4.119   2.119 -0.1030 -0.4079  0.1089
   11MOL0     N 1337   0.764   4.096   2.000 -0.0384 -0.1915  0.0469
   11MOL0     C 1338   0.812   4.040   1.889  0.1545  0.4910 -0.7727
   11MOL0     C 1339   0.706   4.034   1.805  0.8575 -0.0955  0.6451
   11MOL0     C 1340   0.688   3.978   1.667 -0.2277  0.2979  0.5961
   11MOL0     C 1341   0.801   3.859   1.639 -0.0704  0.0273 -0.1545
   11MOL0     C 1342   0.782   3.735   1.724 -0.3326  0.3734 -0.1439
   11MOL0     C 1343   0.867   3.611   1.690  0.6034  0.0277  0.5278
   11MOL0     O 1344   1.008   3.620   1.680 -0.1345  0.2779  0.2027
   11MOL0     C 1345   1.047   3.654   1.554 -0.8250  0.5471  0.0941
   11MOL0     C 1346   1.123   3.774   1.521  0.9589  0.2888  0.0136
   11MOL0     C 1347   1.155   3.780   1.381  0.9622 -0.0160 -0.4572
   11MOL0     C 1348   1.121   3.687   1.275 -0.7792 -0.0800  0.0412
   11MOL0     C 1349   1.163   3.697   1.131 -0.3546 -0.1940 -0.5850
   11MOL0     O 1350   1.226   3.820   1.096  0.6416 -0.1117 -0.0014
   11MOL0     C 1351   1.287   3.828   0.975  0.3571 -0.6483 -1.2772
   11MOL0     C 1352   1.385   3.731   0.949  0.6673 -0.8698  0.0568
   11MOL0     C 1353   1.463   3.741   0.830  0.5390 -0.4321  1.0166
   11MOL0     C 1354   1.432   3.839   0.734 -0.5837 -0.1435 -0.0058
   11MOL0     O 1355   1.519   3.852   0.625 -0.0009 -0.2724  0.1583
   11MOL0     C 1356   1.471   3.890   0.492  0.0881  0.0618  0.1989
   11MOL0     C 1357   1.413   3.767   0.424 -0.9926  1.0833  0.5333
   11MOL0     C 1358   1.357   3.802   0.287 -0.1624  0.5182  0.1967
   11MOL0     C 1359   1.285   3.672   0.235 -0.5293  0.4594 -1.0117
   11MOL0     C 1360   1.219   3.713   0.095 -0.2947  0.3507 -1.2050
   11MOL0     C 1361   1.322   3.743  -0.014  0.6679  0.7128 -0.2824
   11MOL0     C 1362   1.254   3.768  -0.154 -0.3381  0.6361  0.0840
   11MOL0     C 1363   1.354   3.767  -0.276  0.4317  0.7531 -0.2063
   11MOL0    Cl 1364   1.477   3.903  -0.263 -0.1507  0.0705  0.3812
   11MOL0     C 1365   1.324   3.925   0.759  0.1383  0.4325  1.3727
   11MOL0     C 1366   1.256   3.920   0.880  0.4625 -0.2030 -0.5665
   11MOL0     O 1367   1.155   3.594   1.063 -0.1824  0.1648  0.6887
   11MOL0     C 1368   1.048   3.575   1.317 -0.2702 -0.5768  1.0730
   11MOL0     C 1369   1.024   3.554   1.451  0.8302 -0.0917 -0.3449
   11MOL0     N 1370   0.596   4.086   1.870 -0.3672  0.3517  0.6475
   11MOL0     N 1371   0.633   4.114   1.991 -1.1547  0.0884 -0.1932
   11MOL0     C 1372   0.610   3.036   2.274 -0.1638  0.4031  0.2603
   11MOL0     C 1373   0.686   2.924   2.286 -0.5192 -0.2405 -0.0177
   11MOL0     C 1374   0.865   2.525   2.185  0.9976  0.8058  0.7276
   11MOL0     C 1375   0.811   2.397   2.160 -0.0778  0.0299  0.1377
   11MOL0     C 1376   0.891   2.284   2.148  0.4397  0.2951  0.7485
   11MOL0     C 1377   1.028   2.307   2.157  0.3680 -0.7113 -0.6779
   11MOL0     O 1378   1.121   2.213   2.167 -0.1358  0.3880 -0.0126
   11MOL0     C 1379   1.109   2.081   2.103 -0.1492 -0.3252  0.4555
   11MOL0     C 1380   1.214   1.982   2.158 -0.3755 -0.0349 -0.1679
   11MOL0     C 1381   1.172   1.951   2.300 -0.3109  0.1692  0.1676
   11MOL0     C 1382   1.273   1.862   2.365  0.3938  0.0652  0.5157
   11MOL0     C 1383   1.250   1.720   2.357 -0.0106 -0.1552  1.0614
   11MOL0     C 1384   1.245   1.601   2.344 -0.2709  0.0206 -0.3361
   11MOL0     C 1385   1.084   2.427   2.182  0.2593 -0.7623 -0.4841
   11MOL0     C 1386   0.999   2.536   2.193 -0.3599  0.3330  0.1929
   11MOL0     H 1387   0.881   2.955   2.016  0.7952  0.2653  0.4743
   11MOL0     H 1388   0.756   3.147   1.983  1.2369 -0.8188 -0.0296
   11MOL0     H 1389   0.605   3.344   2.019 -1.9393 -2.1152  0.1720
   11MOL0     H 1390   0.733   3.367   2.147 -0.4267 -0.1538  1.9983
   11MOL0     H 1391   0.567   3.488   2.289 -1.0265 -1.4138  0.8098
   11MOL0     H 1392   0.445   3.472   2.159  0.4810  0.7719 -1.8869
   11MOL0     H 1393   0.540   3.629   2.038  1.1445 -2.0640 -2.2300
   11MOL0     H 1394   0.698   3.560   2.047  0.4479 -1.9659  0.4620
   11MOL0     H 1395   0.583   3.757   2.245  0.4520  0.3836  1.1763
   11MOL0     H 1396   0.713   3.642   2.289 -0.2725  2.6419  1.4722
   11MOL0     H 1397   0.706   3.819   2.044  1.7160 -1.2244 -1.9387
   11MOL0     H 1398   0.860   3.758   2.114 -0.2572  2.6987  0.0953
   11MOL0     H 1399   0.811   3.864   2.328  2.0838 -0.1570 -0.6051
   11MOL0     H 1400   0.690   3.961   2.235  0.2338 -1.0199  0.1094
   11MOL0     H 1401   0.928   4.032   2.296 -0.8079  0.0439 -0.1564
   11MOL0     H 1402   0.968   3.956   2.136  0.2205 -1.9358  1.4016
   11MOL0     H 1403   0.908   4.198   2.098 -2.0651  2.3324  2.7665
   11MOL0     H 1404   0.758   4.159   2.185  0.6266 -1.0282  1.3914
   11MOL0     H 1405   0.919   4.021   1.877  0.8754  2.6134  1.3093
   11MOL0     H 1406   0.690   4.055   1.590  1.1721 -0.1589  0.1329
   11MOL0     H 1407   0.585   3.943   1.678 -1.4429  3.8599  2.0198
   11MOL0     H 1408   0.901   3.897   1.662 -0.7224  0.5630  2.0255
   11MOL0     H 1409   0.809   3.825   1.536  0.5874 -1.8710  0.4866
   11MOL0     H 1410   0.805   3.767   1.827  2.5332 -1.9726  0.0904
   11MOL0     H 1411   0.677   3.709   1.713 -0.1563 -1.0899  1.2767
   11MOL0     H 1412   0.827   3.568   1.597  2.4887  1.4818 -1.0260
   11MOL0     H 1413   0.861   3.536   1.770  1.6685 -3.2758 -2.2169
   11MOL0     H 1414   1.137   3.843   1.604 -0.8478 -1.1055  1.5696
   11MOL0     H 1415   1.205   3.872   1.352  5.2012 -2.2904 -1.1657
   11MOL0     H 1416   1.400   3.658   1.029  2.2505  0.5496  1.1123
   11MOL0     H 1417   1.535   3.662   0.813  2.3514  0.7031  2.9517
   11MOL0     H 1418   1.552   3.936   0.435 -0.0987 -0.6518 -0.6687
   11MOL0     H 1419   1.394   3.967   0.505  1.5372  1.3667  1.3055
   11MOL0     H 1420   1.331   3.732   0.487 -0.1231  0.2515  1.2286
   11MOL0     H 1421   1.494   3.694   0.428 -1.2668  0.7171 -0.2460
   11MOL0     H 1422   1.444   3.846   0.237  1.2909  0.6389  2.6982
   11MOL0     H 1423   1.280   3.879   0.304  1.3930  2.1963 -0.0349
   11MOL0     H 1424   1.358   3.591   0.230 -1.8387 -0.9248  1.0207
   11MOL0     H 1425   1.209   3.635   0.304  2.8802  1.4569  3.7261
   11MOL0     H 1426   1.159   3.802   0.115 -3.9286 -1.9509 -0.7921
   11MOL0     H 1427   1.149   3.639   0.055 -1.1820  1.7087 -2.2335
   11MOL0     H 1428   1.390   3.658  -0.027 -1.2473 -0.7310 -1.3682
   11MOL0     H 1429   1.386   3.830   0.004 -1.4022  3.0950 -3.3969
   11MOL0     H 1430   1.190   3.683  -0.179  1.8442 -1.6394  1.7100
   11MOL0     H 1431   1.194   3.859  -0.160  3.2024  3.0724 -3.6066
   11MOL0     H 1432   1.306   3.751  -0.373 -1.2467  0.1738  0.6950
   11MOL0     H 1433   1.413   3.675  -0.276  0.6787  0.8913 -1.5362
   11MOL0     H 1434   1.306   3.997   0.680 -2.1710 -0.6019  0.8658
   11MOL0     H 1435   1.168   3.982   0.895  0.3573 -0.2603 -0.9526
   11MOL0     H 1436   1.003   3.501   1.251  0.0264 -0.6980  1.0034
   11MOL0     H 1437   0.968   3.465   1.474 -1.5542  1.7356  1.3940
   11MOL0     H 1438   0.541   3.054   2.356 -1.4782 -2.1005 -0.1950
   11MOL0     H 1439   0.676   2.870   2.380 -1.0591 -0.8089 -0.4019
   11MOL0     H 1440   0.705   2.383   2.144 -0.0328 -2.5279  1.5132
   11MOL0     H 1441   0.867   2.179   2.133  1.1554  0.1573  0.5222
   11MOL0     H 1442   1.137   2.107   2.000 -0.5143  1.4308  0.7674
   11MOL0     H 1443   1.010   2.037   2.088  0.5676 -3.2256  3.3184
   11MOL0     H 1444   1.210   1.900   2.086 -0.4074  0.4638 -0.7404
   11MOL0     H 1445   1.314   2.025   2.153  0.5923 -2.0061  0.9816
   11MOL0     H 1446   1.073   1.903   2.297  0.9272 -2.6358 -3.4789
   11MOL0     H 1447   1.167   2.044   2.357 -3.6968  1.0622 -1.2849
   11MOL0     H 1448   1.368   1.880   2.315  0.9464 -0.4724  1.3536
   11MOL0     H 1449   1.298   1.888   2.468  0.9962 -1.5551  0.8059
   11MOL0     H 1450   1.215   1.499   2.333  1.7753 -0.5136 -1.6304
   11MOL0     H 1451   1.189   2.450   2.195 -0.2015  1.8398 -0.7000
   11MOL0     H 1452   1.040   2.634   2.213 -2.2930  1.8145 -2.5885
   12MOL0     O 1453  10.065   5.978  10.988 -0.3850  0.6836 -0.0674
   12MOL0     C 1454  10.078   5.887  10.903 -0.3295 -0.4875 -0.2361
   12MOL0     O 1455  10.024   5.886  10.775  0.0365 -0.3141  0.0847
   12MOL0     C 1456   9.929   5.984  10.751 -0.8437  0.3103 -0.6403
   12MOL0     C 1457   9.796   5.957  10.751 -0.5590 -1.3854 -0.4503
   12MOL0     C 1458   9.708   6.049  10.707  0.1924  0.0420 -0.5214
   12MOL0     C 1459   9.758   6.168  10.652 -0.2570 -1.5296 -0.5938
   12MOL0     O 1460   9.675   6.262  10.594  0.7963  0.5692 -0.2539
   12MOL0     C 1461   9.579   6.313  10.696  0.3907  0.0525  0.1266
   12MOL0     C 1462   9.482   6.403  10.622  0.9334 -0.6993  0.3315
   12MOL0     C 1463   9.416   6.330  10.492  0.3913  0.3138 -0.4379
   12MOL0     C 1464   9.342   6.205  10.541  0.2924  0.6240 -0.6393
   12MOL0     C 1465   9.229   6.162  10.443  0.2199  0.4318 -0.7971
   12MOL0     C 1466   9.119   6.064  10.503 -0.0506  0.0495  0.5484
   12MOL0     C 1467   9.022   6.104  10.613  0.3587 -0.1860  0.0492
   12MOL0     C 1468   8.950   5.981  10.685 -0.6834 -0.2881 -0.2543
   12MOL0     N 1469   8.821   5.969  10.624 -0.3869  0.7200 -0.1726
   12MOL0     C 1470   8.725   6.067  10.629  0.6699  0.2457 -0.7453
   12MOL0     C 1471   8.639   6.025  10.532  0.1603 -0.2747 -0.4279
   12MOL0     C 1472   8.525   6.108  10.470 -0.2647  0.2802 -1.1960
   12MOL0     C 1473   8.565   6.149  10.339 -0.6099  0.4678 -0.2456
   12MOL0     C 1474   8.449   6.228  10.276 -0.3720  0.4725 -0.4376
   12MOL0     C 1475   8.313   6.152  10.266  0.5206 -0.0791  0.5900
   12MOL0     O 1476   8.228   6.229  10.177  0.3038  0.6169 -0.3179
   12MOL0     C 1477   8.087   6.216  10.187  0.3778  0.1567 -1.2322
   12MOL0     C 1478   8.003   6.300  10.114 -0.6855 -0.3059 -0.0116
   12MOL0     C 1479   7.865   6.283  10.126  0.2529 -0.7784 -0.0150
   12MOL0     C 1480   7.811   6.178  10.198 -0.6816  0.5193 -0.1653
   12MOL0     C 1481   7.665   6.163  10.200 -0.5724 -0.0352 -0.3006
   12MOL0     O 1482   7.582   6.255  10.137 -0.1709 -0.8401  0.1743
   12MOL0     C 1483   7.443   6.247  10.156  0.4061 -0.2854 -0.7948
   12MOL0     C 1484   7.380   6.235  10.279 -0.3490 -0.2769  0.1309
   12MOL0     C 1485   7.241   6.237  10.302  0.2552  0.6035 -0.8305
   12MOL0     C 1486   7.152   6.254  10.189 -0.5496 -0.4658 -0.4267
   12MOL0     O 1487   7.020   6.239  10.185 -0.0342 -0.3970 -0.0637
   12MOL0     C 1488   6.953   6.220  10.312 -0.7610  0.3397 -0.2740
   12MOL0     C 1489   6.964   6.088  10.380  0.7006 -0.1543 -0.0832
   12MOL0     C 1490   6.876   5.992  10.297  0.0623 -0.9637 -0.1417
   12MOL0     C 1491   6.886   5.854  10.364 -0.0370 -0.5185  0.0264
   12MOL0     C 1492   6.792   5.763  10.275 -0.1052 -0.4919 -0.2668
   12MOL0     C 1493   6.717   5.663  10.355  0.3730  0.5285 -1.0758
   12MOL0     C 1494   6.614   5.574  10.269  0.1076  0.4258  0.8312
   12MOL0     C 1495   6.560   5.451  10.328  1.1605 -0.0518  0.5335
   12MOL0    Cl 1496   6.688   5.339  10.322  0.0601  0.0863  0.1614
   12MOL0     C 1497   7.220   6.269  10.066 -0.7592  1.1042  0.2311
   12MOL0     C 1498   7.360   6.270  10.047  0.0364  0.6878  0.7103
   12MOL0     O 1499   7.624   6.074  10.273  0.0856  0.6178  0.6849
   12MOL0     C 1500   7.893   6.090  10.269 -0.6600  0.4206 -1.1261
   12MOL0     C 1501   8.030   6.108  10.254 -0.2501 -0.1737  0.0608
   12MOL0     N 1502   8.677   5.897  10.486  0.4801  0.5391  0.3008
   12MOL0     N 1503   8.786   5.868  10.548  0.7042 -0.4267  0.2159
   12MOL0     C 1504   9.892   6.201  10.651 -0.5908 -0.0757  0.1275
   12MOL0     C 1505   9.981   6.103  10.699  0.6263 -0.1103 -0.2393
   12MOL0     C 1506  10.177   5.785  10.941 -0.1384  1.0326 -0.7104
   12MOL0     C 1507  10.179   5.659  10.884  0.4267  0.6342  0.0331
   12MOL0     C 1508  10.269   5.558  10.918 -0.0030 -0.7285  0.8247
   12MOL0     C 1509  10.364   5.579  11.022 -0.4940  0.5829  0.9172
   12MOL0     O 1510  10.441   5.477  11.068 -0.1388 -0.7988  0.5794
   12MOL0     C 1511  10.576   5.518  11.093  0.8584  0.3424 -0.6758
   12MOL0     C 1512  10.666   5.576  10.989 -0.0563  0.2871  0.3797
   12MOL0     C 1513  10.810   5.567  11.013 -0.9814  0.7110  0.1546
   12MOL0     C 1514  10.874   5.422  10.983  0.1296 -0.1343  0.2534
   12MOL0     C 1515  11.005   5.433  10.932 -0.3239 -0.6810 -0.7037
   12MOL0     C 1516  11.113   5.453  10.881  0.5791  0.0342 -0.1935
   12MOL0     C 1517  10.352   5.707  11.092 -0.5450  0.5346 -0.1268
   12MOL0     C 1518  10.265   5.806  11.052  0.0956 -0.7355  0.5510
   12MOL0     H 1519   9.746   5.865  10.779 -1.7255 -0.3566  0.9903
   12MOL0     H 1520   9.603   6.026  10.723  0.1468  1.9235  2.8912
   12MOL0     H 1521   9.628   6.365  10.780 -0.6683  0.7358  0.3325
   12MOL0     H 1522   9.515   6.236  10.740  1.6093 -0.3881  1.2347
   12MOL0     H 1523   9.547   6.490  10.605 -2.3899  2.5065  2.3898
   12MOL0     H 1524   9.401   6.427  10.691 -0.8219 -0.4196 -1.7242
   12MOL0     H 1525   9.488   6.297  10.417  2.7517 -1.1793  2.2957
   12MOL0     H 1526   9.337   6.399  10.458  1.2867  1.6597  0.1240
   12MOL0     H 1527   9.419   6.128  10.551  1.9436  2.3304  0.4446
   12MOL0     H 1528   9.313   6.224  10.644 -0.6641 -3.1339 -0.0978
   12MOL0     H 1529   9.284   6.116  10.360  0.2481 -0.3622 -0.3495
   12MOL0     H 1530   9.182   6.250  10.398 -1.0903 -1.0403 -2.4487
   12MOL0     H 1531   9.166   5.975  10.547  1.7948  1.1095  0.7936
   12MOL0     H 1532   9.063   6.024  10.418  2.3396  0.8770 -1.5220
   12MOL0     H 1533   9.082   6.163  10.683 -1.7651  0.8653  1.0888
   12MOL0     H 1534   8.946   6.176  10.580  0.0631 -1.0301 -1.1438
   12MOL0     H 1535   8.929   6.012  10.788 -2.3199 -1.2158 -0.2708
   12MOL0     H 1536   9.015   5.893  10.694 -0.4276 -0.0093  0.8745
   12MOL0     H 1537   8.724   6.159  10.687 -2.6619  0.5327 -1.0641
   12MOL0     H 1538   8.507   6.199  10.527 -0.5627  0.9805 -2.3868
   12MOL0     H 1539   8.434   6.048  10.469  1.9057 -3.4105  0.7135
   12MOL0     H 1540   8.588   6.061  10.279  1.8636 -0.3582  1.7237
   12MOL0     H 1541   8.652   6.214  10.354 -0.7251  0.2463  1.7380
   12MOL0     H 1542   8.434   6.318  10.337  0.6143  0.2822  0.1052
   12MOL0     H 1543   8.486   6.257  10.177  1.7305 -0.6250 -0.0380
   12MOL0     H 1544   8.264   6.160  10.363 -2.3771 -0.2027 -0.7545
   12MOL0     H 1545   8.321   6.048  10.233  1.1852  0.6903 -1.9577
   12MOL0     H 1546   8.048   6.382  10.060  1.2601  0.1429  2.1181
   12MOL0     H 1547   7.801   6.349  10.069 -1.5105 -1.4305  1.1395
   12MOL0     H 1548   7.436   6.219  10.371 -1.8426 -1.7018  0.8573
   12MOL0     H 1549   7.206   6.223  10.404  0.4710  2.5108 -0.4614
   12MOL0     H 1550   6.845   6.235  10.297 -1.1950 -1.7084  0.4498
   12MOL0     H 1551   6.992   6.299  10.378  0.2073  0.6401 -1.1983
   12MOL0     H 1552   6.940   6.106  10.485  1.6102  2.3058 -0.2245
   12MOL0     H 1553   7.064   6.046  10.365  0.1679 -1.0604 -1.3092
   12MOL0     H 1554   6.912   5.989  10.193 -2.8331  2.0752 -1.4408
   12MOL0     H 1555   6.775   6.033  10.288  0.3218 -0.3272 -0.2788
   12MOL0     H 1556   6.992   5.826  10.367 -0.2187 -1.1565  1.2907
   12MOL0     H 1557   6.861   5.860  10.471 -1.3088 -0.5289 -0.2538
   12MOL0     H 1558   6.853   5.726  10.192 -0.3575 -0.7361 -0.3434
   12MOL0     H 1559   6.713   5.822  10.227  1.6930  1.4007 -1.0727
   12MOL0     H 1560   6.661   5.705  10.439  1.1476 -0.9942  0.2725
   12MOL0     H 1561   6.787   5.587  10.391 -0.2715 -0.9320 -2.7410
   12MOL0     H 1562   6.530   5.634  10.234  1.4139  1.3021 -1.0025
   12MOL0     H 1563   6.662   5.548  10.174 -2.1030 -0.6781 -0.0664
   12MOL0     H 1564   6.471   5.411  10.279  0.5017 -1.7432  2.9939
   12MOL0     H 1565   6.534   5.473  10.432  2.4371  0.5003  0.7673
   12MOL0     H 1566   7.157   6.278   9.978 -1.9970  1.9704  1.1714
   12MOL0     H 1567   7.407   6.276   9.949 -2.7175 -0.7880 -0.8175
   12MOL0     H 1568   7.856   6.014  10.337 -1.4094  1.3732 -0.4402
   12MOL0     H 1569   8.097   6.034  10.296 -0.4854  0.3502  1.4367
   12MOL0     H 1570   9.934   6.287  10.600 -1.3964  1.3673  1.8089
   12MOL0     H 1571  10.088   6.111  10.682  0.2621  1.6240 -2.2089
   12MOL0     H 1572  10.114   5.628  10.803 -1.6137  1.7204  1.1743
   12MOL0     H 1573  10.277   5.464  10.863  2.7183  0.9476 -1.9862
   12MOL0     H 1574  10.635   5.430  11.123  2.5832  2.0707  1.2939
   12MOL0     H 1575  10.565   5.578  11.184  1.9952  0.1363 -0.3858
   12MOL0     H 1576  10.645   5.518  10.898 -1.4609  1.8084 -0.3209
   12MOL0     H 1577  10.626   5.675  10.966 -2.6496 -0.8564 -0.4371
   12MOL0     H 1578  10.825   5.603  11.115 -1.8634  2.6703 -0.3463
   12MOL0     H 1579  10.850   5.647  10.950 -2.3898  1.6131  0.3531
   12MOL0     H 1580  10.889   5.360  11.072  3.4328 -1.4719 -1.0600
   12MOL0     H 1581  10.808   5.360  10.922 -1.8793 -0.4371  2.5606
   12MOL0     H 1582  11.207   5.465  10.831  0.3793  2.4695 -0.1184
   12MOL0     H 1583  10.415   5.714  11.180 -0.8671  0.3159  0.1218
   12MOL0     H 1584  10.247   5.899  11.106 -1.7754 -0.8399  0.1811
   13MOL0     O 1585   1.383   1.668  10.322 -0.5193 -0.2529 -1.0879
   13MOL0     C 1586   1.362   1.609  10.214  0.8079  0.3715 -0.5076
   13MOL0     O 1587   1.386   1.662  10.091 -0.1234  0.0940 -0.0045
   13MOL0     C 1588   1.464   1.776  10.087 -0.1351 -0.6042  0.6975
   13MOL0     C 1589   1.469   1.889  10.173 -0.0237  0.2684  0.4476
   13MOL0     C 1590   1.542   2.004  10.146 -0.1713  0.2771  0.6345
   13MOL0     C 1591   1.610   2.005  10.026  0.3208  0.1316 -0.0394
   13MOL0     O 1592   1.673   2.122   9.990  0.4970  0.4926  0.2034
   13MOL0     C 1593   1.807   2.112   9.985 -1.2970  0.5156 -0.4445
   13MOL0     C 1594   1.864   2.256   9.949 -0.2556  0.3510  0.6002
   13MOL0     C 1595   2.015   2.288   9.954 -1.3348  0.1567 -0.2173
   13MOL0     C 1596   2.108   2.168   9.943  0.6385 -0.3749 -0.3794
   13MOL0     C 1597   2.245   2.208   9.906 -0.5354 -0.5817 -0.6678
   13MOL0     C 1598   2.260   2.188   9.754 -0.0987  0.7065 -1.3460
   13MOL0     C 1599   2.393   2.227   9.690  0.3143 -0.0494 -0.1852
   13MOL0     C 1600   2.407   2.245   9.546 -0.1107  0.5311 -0.2371
   13MOL0     N 1601   2.406   2.115   9.477  0.1994  0.6195  0.5087
   13MOL0     C 1602   2.500   2.020   9.501  0.6574  0.4014 -0.3049
   13MOL0     C 1603   2.455   1.908   9.443  0.1401 -0.7031 -0.0682
   13MOL0     C 1604   2.524   1.784   9.461  0.4407  0.9046  0.4516
   13MOL0     C 1605   2.459   1.701   9.570  1.0303  0.1038 -0.2514
   13MOL0     C 1606   2.303   1.669   9.570 -0.7934  0.5224  0.1692
   13MOL0     C 1607   2.256   1.605   9.439  0.9712  0.2742  0.4780
   13MOL0     O 1608   2.356   1.521   9.373  0.0085  0.3217  0.0214
   13MOL0     C 1609   2.325   1.423   9.284  0.1239 -0.7841 -0.1381
   13MOL0     C 1610   2.191   1.384   9.239  0.1542  0.9498 -0.9067
   13MOL0     C 1611   2.182   1.285   9.141 -1.2603  0.1789 -0.3647
   13MOL0     C 1612   2.301   1.243   9.065  0.4694  0.6110 -1.1575
   13MOL0     C 1613   2.293   1.159   8.945 -0.1404 -0.3425  0.7284
   13MOL0     O 1614   2.402   1.086   8.919  0.0925 -0.0593  0.6663
   13MOL0     C 1615   2.415   0.990   8.826  0.2975 -0.1361  0.4392
   13MOL0     C 1616   2.538   0.977   8.780 -0.1752  0.7539 -0.1505
   13MOL0     C 1617   2.582   0.878   8.685 -0.6055  0.3424 -0.0873
   13MOL0     C 1618   2.480   0.798   8.641  0.0262  0.0245  0.3119
   13MOL0     O 1619   2.485   0.681   8.561  0.0525 -0.0167  0.2413
   13MOL0     C 1620   2.620   0.624   8.543  0.4728 -0.4820  0.1312
   13MOL0     C 1621   2.598   0.494   8.463  1.1277  0.4674 -1.0268
   13MOL0     C 1622   2.732   0.413   8.450 -0.2040  0.1470 -0.1254
   13MOL0     C 1623   2.718   0.286   8.377  0.6055  0.9556 -0.1706
   13MOL0     C 1624   2.836   0.246   8.303  0.6969  0.3818 -0.1476
   13MOL0     C 1625   2.810   0.149   8.188  0.2614  0.4089 -0.6948
   13MOL0     C 1626   2.910   0.028   8.184 -0.5947 -0.3770 -0.3957
   13MOL0     C 1627   2.915  -0.047   8.054 -0.0121 -0.1176  0.1867
   13MOL0    Cl 1628   3.025  -0.194   8.074 -0.4702  0.0035  0.5636
   13MOL0     C 1629   2.342   0.817   8.680  0.1864 -0.8597 -0.4253
   13MOL0     C 1630   2.314   0.911   8.780  0.4779 -0.6551  0.6443
   13MOL0     O 1631   2.190   1.143   8.890  0.3806  0.0358  0.0980
   13MOL0     C 1632   2.427   1.288   9.110  0.3775 -0.8606  0.3357
   13MOL0     C 1633   2.438   1.372   9.220 -0.2141 -0.5886 -0.1346
   13MOL0     N 1634   2.339   1.940   9.375  0.5238 -0.1563 -0.6852
   13MOL0     N 1635   2.306   2.061   9.396 -0.6485 -0.4110 -1.0361
   13MOL0     C 1636   1.597   1.902   9.942  0.1174 -0.2188  0.0428
   13MOL0     C 1637   1.521   1.790   9.965  0.5432 -0.3282 -0.0932
   13MOL0     C 1638   1.285   1.480  10.225 -1.0274  0.0310  0.6619
   13MOL0     C 1639   1.241   1.418  10.347 -0.0839 -0.4004  0.2940
   13MOL0     C 1640   1.164   1.298  10.344 -0.1955  0.9311 -0.1935
   13MOL0     C 1641   1.124   1.239  10.219  0.7074  0.1089  0.1994
   13MOL0     O 1642   1.033   1.134  10.216  0.9521 -0.3349  0.3637
   13MOL0     C 1643   0.960   1.088  10.334  0.3210 -0.9368 -0.9801
   13MOL0     C 1644   0.856   1.192  10.376  0.0954 -0.2855  0.8319
   13MOL0     C 1645   0.778   1.159  10.489  1.2171  1.0985 -0.7253
   13MOL0     C 1646   0.854   1.132  10.619 -0.9189 -0.8131 -0.0855
   13MOL0     C 1647   0.753   1.118  10.724  0.4414 -0.5728 -0.1448
   13MOL0     C 1648   0.673   1.113  10.826  0.7781  0.4107  0.5108
   13MOL0     C 1649   1.177   1.293  10.106  0.6253  0.6504 -0.7415
   13MOL0     C 1650   1.248   1.410  10.107  0.2717  0.1107 -0.0344
   13MOL0     H 1651   1.401   1.886  10.257  0.4110 -1.9910  0.7875
   13MOL0     H 1652   1.554   2.089  10.212  2.8585  2.4149 -2.4020
   13MOL0     H 1653   1.850   2.045   9.909 -1.3787 -0.1992  0.1328
   13MOL0     H 1654   1.847   2.088  10.084  1.0554  0.8733 -1.2299
   13MOL0     H 1655   1.811   2.337  10.000 -0.1382  1.6162 -1.1701
   13MOL0     H 1656   1.850   2.264   9.841  2.9559  0.2607  0.0681
   13MOL0     H 1657   2.030   2.339  10.050 -2.4797 -1.1858  0.7153
   13MOL0     H 1658   2.037   2.353   9.869  3.3994  0.4741  1.0185
   13MOL0     H 1659   2.096   2.113  10.037 -1.2082 -0.7632 -0.8115
   13MOL0     H 1660   2.066   2.107   9.864 -0.0859 -0.4870  0.0880
   13MOL0     H 1661   2.315   2.146   9.961 -1.4793  1.7289  3.6065
   13MOL0     H 1662   2.268   2.313   9.929 -3.0293  0.6988 -3.3379
   13MOL0     H 1663   2.177   2.248   9.716 -0.6221  0.0967 -1.1710
   13MOL0     H 1664   2.237   2.086   9.722  2.0298 -0.8507  1.6302
   13MOL0     H 1665   2.403   2.331   9.722  1.0072 -0.4717  1.0450
   13MOL0     H 1666   2.477   2.167   9.727 -0.6694 -0.2654  1.8329
   13MOL0     H 1667   2.508   2.284   9.531  0.5901 -2.1518 -3.5916
   13MOL0     H 1668   2.338   2.322   9.510 -1.3749  0.9507  2.7214
   13MOL0     H 1669   2.589   2.025   9.563  1.5870  2.5322 -1.6614
   13MOL0     H 1670   2.629   1.804   9.484  0.4624  0.6010  0.6213
   13MOL0     H 1671   2.515   1.728   9.368 -1.0000  0.8406  0.5947
   13MOL0     H 1672   2.474   1.758   9.663 -0.5299 -2.8314  1.9789
   13MOL0     H 1673   2.513   1.607   9.586 -2.0121 -1.7179  0.0105
   13MOL0     H 1674   2.286   1.591   9.646  1.6258 -0.5662 -0.2921
   13MOL0     H 1675   2.253   1.762   9.594  2.0603  1.6492  2.3117
   13MOL0     H 1676   2.230   1.683   9.366 -1.1261 -2.0948 -1.5046
   13MOL0     H 1677   2.168   1.541   9.453 -0.0252  1.1921 -1.1980
   13MOL0     H 1678   2.097   1.416   9.285 -1.1782 -5.0216  1.4776
   13MOL0     H 1679   2.094   1.239   9.096  0.0094 -1.3458 -1.3982
   13MOL0     H 1680   2.610   1.045   8.825  2.1953 -0.5222 -1.8043
   13MOL0     H 1681   2.685   0.866   8.653 -1.1249  2.4233 -3.0685
   13MOL0     H 1682   2.660   0.603   8.643 -0.4523  0.4546  0.7146
   13MOL0     H 1683   2.694   0.686   8.492  0.1709 -0.4774 -0.3023
   13MOL0     H 1684   2.557   0.516   8.364  1.2779  2.5080 -0.6812
   13MOL0     H 1685   2.525   0.435   8.519  2.8000 -3.5612 -2.7390
   13MOL0     H 1686   2.772   0.405   8.552 -1.4164 -0.7311  0.3010
   13MOL0     H 1687   2.797   0.480   8.393  0.7915  2.0129  2.9478
   13MOL0     H 1688   2.672   0.203   8.430  1.1892  0.7195 -0.0229
   13MOL0     H 1689   2.639   0.314   8.306 -0.5843 -3.2605 -0.7627
   13MOL0     H 1690   2.920   0.205   8.359 -0.1891  1.5955  2.2069
   13MOL0     H 1691   2.882   0.333   8.255  1.2945 -0.1628 -0.5772
   13MOL0     H 1692   2.807   0.201   8.092  3.0242  0.8247 -0.6457
   13MOL0     H 1693   2.713   0.105   8.211  1.8974 -1.8431  2.6026
   13MOL0     H 1694   3.009   0.076   8.184 -0.3025 -0.7985 -3.2497
   13MOL0     H 1695   2.899  -0.034   8.273  0.1116 -0.7711 -0.5697
   13MOL0     H 1696   2.959   0.006   7.969 -0.0571 -3.1288 -1.8789
   13MOL0     H 1697   2.816  -0.087   8.030  0.7805 -2.1922  0.1723
   13MOL0     H 1698   2.258   0.756   8.651 -0.1744 -0.8919  0.6206
   13MOL0     H 1699   2.211   0.921   8.814  1.0886  2.4683  1.9278
   13MOL0     H 1700   2.522   1.258   9.069  1.1728 -0.5581  1.8957
   13MOL0     H 1701   2.533   1.405   9.260 -0.0121 -1.8106  0.4333
   13MOL0     H 1702   1.646   1.904   9.845 -0.0717 -3.4723 -0.2441
   13MOL0     H 1703   1.509   1.705   9.898 -1.9447 -1.3666  1.4924
   13MOL0     H 1704   1.257   1.472  10.440  0.5621  2.2631 -1.2470
   13MOL0     H 1705   1.125   1.269  10.441  2.0465  5.2622  2.3359
   13MOL0     H 1706   1.029   1.069  10.417  0.2489  2.8278  0.1340
   13MOL0     H 1707   0.914   0.992  10.309  2.3713 -2.5605  1.0376
   13MOL0     H 1708   0.914   1.281  10.399 -0.6874  0.3762  0.3290
   13MOL0     H 1709   0.802   1.219  10.285  1.0304 -1.1835 -0.0095
   13MOL0     H 1710   0.704   1.081  10.470  1.5512  0.3355  0.9183
   13MOL0     H 1711   0.720   1.249  10.512  1.1011  0.5021  1.5230
   13MOL0     H 1712   0.902   1.033  10.611 -0.9283 -0.7987 -0.2989
   13MOL0     H 1713   0.924   1.211  10.650 -1.7439 -0.8593  2.1249
   13MOL0     H 1714   0.593   1.106  10.896  0.6625  0.4648  0.3847
   13MOL0     H 1715   1.144   1.254  10.010  0.9694 -0.5159 -0.4056
   13MOL0     H 1716   1.286   1.442  10.010  3.6630  0.0167  1.1090
   14MOL0     O 1717   9.431   0.008  10.446 -0.4295 -0.0846 -0.5516
   14MOL0     C 1718   9.395  -0.077  10.366 -0.0973  0.7816  0.5275
   14MOL0     O 1719   9.467  -0.133  10.266 -0.2375  0.1514 -0.6203
   14MOL0     C 1720   9.595  -0.085  10.242 -1.3080  0.2774 -1.8573
   14MOL0     C 1721   9.607  -0.022  10.123  0.0654 -0.9005  0.0835
   14MOL0     C 1722   9.734   0.022  10.074 -0.2241 -0.0651 -0.1699
   14MOL0     C 1723   9.849  -0.007  10.147 -0.3563 -0.7226  1.0687
   14MOL0     O 1724   9.970   0.019  10.106 -0.1344  0.3805  0.2622
   14MOL0     C 1725   9.996   0.131  10.023  0.1228  0.0102  0.5889
   14MOL0     C 1726   9.982   0.112   9.866 -0.6467  0.9671  0.7671
   14MOL0     C 1727  10.111   0.058   9.808 -0.0220 -0.0857 -0.2771
   14MOL0     C 1728  10.103   0.052   9.652  0.2312 -0.2396  0.5624
   14MOL0     C 1729  10.234   0.008   9.587 -0.1156  0.9188  0.7365
   14MOL0     C 1730  10.274  -0.145   9.611  0.4025 -0.5390 -0.1772
   14MOL0     C 1731  10.364  -0.205   9.509 -0.2819 -0.4320  0.2166
   14MOL0     C 1732  10.296  -0.334   9.450 -0.3427 -1.4870 -1.4685
   14MOL0     N 1733  10.195  -0.305   9.347  0.1306 -0.3260  0.3690
   14MOL0     C 1734  10.071  -0.254   9.358 -0.0742  0.0148 -1.1329
   14MOL0     C 1735  10.034  -0.210   9.234 -0.7221  0.3027 -0.4419
   14MOL0     C 1736   9.907  -0.142   9.199 -0.0929 -0.5086  0.2538
   14MOL0     C 1737   9.859  -0.047   9.306  0.4861  0.7637 -1.0908
   14MOL0     C 1738   9.736   0.037   9.267 -0.5473 -0.3700  0.8685
   14MOL0     C 1739   9.629  -0.037   9.191  0.6585  0.6286 -0.3223
   14MOL0     O 1740   9.517   0.043   9.167 -0.8601  0.6609 -0.4052
   14MOL0     C 1741   9.403  -0.010   9.120  0.5001  1.0857 -0.8384
   14MOL0     C 1742   9.282   0.059   9.143  0.4102 -0.0788 -0.2417
   14MOL0     C 1743   9.158   0.006   9.105 -0.0581  0.7656 -0.1309
   14MOL0     C 1744   9.149  -0.114   9.036  0.7103 -0.1050  0.4861
   14MOL0     C 1745   9.011  -0.171   9.005 -0.7756 -0.5338  0.3687
   14MOL0     O 1746   8.909  -0.131   9.086  0.2978  0.2767 -0.0339
   14MOL0     C 1747   8.779  -0.180   9.077  0.0896 -0.0605  0.3562
   14MOL0     C 1748   8.697  -0.150   9.188  0.2774  0.6900  0.2981
   14MOL0     C 1749   8.575  -0.202   9.205  0.2214  0.4594 -0.1237
   14MOL0     C 1750   8.511  -0.261   9.091 -0.0872  1.3781 -0.3179
   14MOL0     O 1751   8.384  -0.302   9.119  0.3804  0.4528  0.8154
   14MOL0     C 1752   8.291  -0.288   9.006  0.1963  0.4907 -0.0942
   14MOL0     C 1753   8.211  -0.420   8.972  0.0729 -0.2749 -0.5442
   14MOL0     C 1754   8.305  -0.541   8.984  0.1429 -0.3083 -0.5955
   14MOL0     C 1755   8.272  -0.651   8.881 -0.0999 -0.5750 -0.2847
   14MOL0     C 1756   8.320  -0.793   8.899 -0.2161  0.7538  0.9710
   14MOL0     C 1757   8.470  -0.805   8.940 -0.0943  0.2432 -0.4551
   14MOL0     C 1758   8.506  -0.919   9.029 -0.4206 -1.0272 -0.4436
   14MOL0     C 1759   8.553  -1.048   8.960 -0.5202 -0.2121 -0.6146
   14MOL0    Cl 1760   8.727  -1.045   8.905 -0.3798 -0.5869  0.1415
   14MOL0     C 1761   8.595  -0.285   8.978  0.6043 -0.3739 -0.3670
   14MOL0     C 1762   8.724  -0.244   8.969  0.3566 -0.7898  0.5482
   14MOL0     O 1763   9.002  -0.261   8.929 -0.2105 -0.1225  0.2676
   14MOL0     C 1764   9.271  -0.184   9.012 -0.2742  0.0529  0.5522
   14MOL0     C 1765   9.394  -0.141   9.053  0.0047 -0.0815 -0.5269
   14MOL0     N 1766  10.134  -0.235   9.143  0.7228  0.0610  0.6954
   14MOL0     N 1767  10.230  -0.285   9.211  0.0803 -0.2433 -0.8583
   14MOL0     C 1768   9.838  -0.058  10.275  1.1842  0.4133 -0.0098
   14MOL0     C 1769   9.707  -0.104  10.319 -0.2134  0.1382  0.6822
   14MOL0     C 1770   9.259  -0.126  10.372 -0.2241  0.6093 -1.0132
   14MOL0     C 1771   9.219  -0.251  10.304  0.4727 -0.3261 -0.4137
   14MOL0     C 1772   9.087  -0.306  10.327  0.0173 -0.9196  0.4689
   14MOL0     C 1773   9.002  -0.247  10.418 -0.7253  0.2031 -0.5651
   14MOL0     O 1774   8.876  -0.310  10.425  0.4077 -0.1273  0.5732
   14MOL0     C 1775   8.769  -0.234  10.464  0.1274 -1.0343  0.7156
   14MOL0     C 1776   8.634  -0.309  10.467 -0.2470  0.7226 -0.0509
   14MOL0     C 1777   8.637  -0.428  10.545  0.2796 -0.2377  0.7082
   14MOL0     C 1778   8.485  -0.463  10.570 -0.2274  0.2119  0.5687
   14MOL0     C 1779   8.416  -0.398  10.690  0.4712 -0.1568 -0.0196
   14MOL0     C 1780   8.361  -0.350  10.787  0.1819 -0.7180 -1.0599
   14MOL0     C 1781   9.039  -0.126  10.478  0.1547  0.5478 -0.2611
   14MOL0     C 1782   9.165  -0.063  10.449  0.2562  0.2863  0.4969
   14MOL0     H 1783   9.515   0.000  10.071  0.3498 -2.7146 -1.2814
   14MOL0     H 1784   9.742   0.080   9.983 -0.1497  1.7046  0.9045
   14MOL0     H 1785  10.098   0.168  10.036  0.7608 -0.8381 -1.5566
   14MOL0     H 1786   9.923   0.204  10.060 -2.1643 -3.4170  3.4642
   14MOL0     H 1787   9.976   0.211   9.820  0.6998  0.7112 -0.0173
   14MOL0     H 1788   9.891   0.066   9.826  0.7912 -0.5223 -0.9932
   14MOL0     H 1789  10.132  -0.045   9.837 -0.6482  0.1980  1.2430
   14MOL0     H 1790  10.194   0.117   9.848 -1.2714  0.9441  0.8887
   14MOL0     H 1791  10.021  -0.017   9.632  0.3533 -0.0580 -0.6174
   14MOL0     H 1792  10.069   0.150   9.616 -1.0224 -2.1117 -4.1832
   14MOL0     H 1793  10.320   0.069   9.616  1.8790 -2.2621  2.0920
   14MOL0     H 1794  10.203   0.013   9.482 -0.5630 -2.5236  0.5873
   14MOL0     H 1795  10.183  -0.205   9.618  0.4830 -0.5225  1.5752
   14MOL0     H 1796  10.317  -0.152   9.712  0.3771  1.7041  0.0349
   14MOL0     H 1797  10.393  -0.135   9.430 -2.4984  0.3238  0.0135
   14MOL0     H 1798  10.459  -0.226   9.559  1.2806 -1.0775 -2.7483
   14MOL0     H 1799  10.242  -0.390   9.527  1.3707  0.9172  1.7638
   14MOL0     H 1800  10.384  -0.380   9.404  2.0137  1.2959 -0.0999
   14MOL0     H 1801  10.009  -0.261   9.447  2.0978 -1.6683  0.3389
   14MOL0     H 1802   9.831  -0.216   9.173 -1.6195  1.4325 -1.1842
   14MOL0     H 1803   9.929  -0.089   9.105  0.2695 -1.2437 -0.0836
   14MOL0     H 1804   9.945   0.008   9.343  2.2794 -3.3123  1.5335
   14MOL0     H 1805   9.826  -0.118   9.382  0.5530 -1.1571 -2.7622
   14MOL0     H 1806   9.696   0.094   9.351 -2.6065 -2.0367  1.1096
   14MOL0     H 1807   9.767   0.108   9.190 -4.1012 -2.7369 -3.1990
   14MOL0     H 1808   9.613  -0.127   9.251  2.6515 -1.5279 -2.7695
   14MOL0     H 1809   9.671  -0.078   9.099 -0.3690 -0.9417 -0.1231
   14MOL0     H 1810   9.277   0.153   9.196 -2.5382 -0.9016  1.1880
   14MOL0     H 1811   9.067   0.063   9.125 -1.1268  0.0894 -2.6870
   14MOL0     H 1812   8.746  -0.103   9.272 -0.1397  0.5714  0.6085
   14MOL0     H 1813   8.519  -0.203   9.299  2.9255  0.3989  1.5876
   14MOL0     H 1814   8.347  -0.257   8.918  0.0552 -0.2211 -0.4450
   14MOL0     H 1815   8.215  -0.211   9.018  0.8403  1.6882 -2.9099
   14MOL0     H 1816   8.165  -0.403   8.875 -3.0055  0.5526  0.9262
   14MOL0     H 1817   8.118  -0.431   9.028 -2.0645  1.4180 -3.5051
   14MOL0     H 1818   8.281  -0.579   9.084 -1.7346  0.9397 -0.5051
   14MOL0     H 1819   8.409  -0.508   8.989  0.2104 -0.5946 -0.0780
   14MOL0     H 1820   8.164  -0.664   8.872  0.2429 -3.9415 -0.8678
   14MOL0     H 1821   8.319  -0.628   8.785  1.3934  0.6403  0.6721
   14MOL0     H 1822   8.297  -0.858   8.814  1.2216  1.5317 -0.0452
   14MOL0     H 1823   8.264  -0.840   8.981  0.4237 -1.3372  0.2847
   14MOL0     H 1824   8.483  -0.714   8.999  0.9070  0.3396 -0.8153
   14MOL0     H 1825   8.540  -0.800   8.856  2.0906  0.1291  1.2663
   14MOL0     H 1826   8.585  -0.884   9.096 -1.7473  0.5297  0.3739
   14MOL0     H 1827   8.429  -0.940   9.104 -0.3767 -2.1375 -0.6870
   14MOL0     H 1828   8.487  -1.072   8.876  0.0897 -0.7746 -0.9419
   14MOL0     H 1829   8.554  -1.134   9.028  0.0743  0.0987 -0.2257
   14MOL0     H 1830   8.556  -0.337   8.891  0.2176  1.1428 -1.1450
   14MOL0     H 1831   8.776  -0.255   8.875  3.0304  1.7140  1.5919
   14MOL0     H 1832   9.283  -0.277   8.957  2.9525  0.9759 -0.5184
   14MOL0     H 1833   9.473  -0.210   9.023 -1.2114 -0.0775 -4.0906
   14MOL0     H 1834   9.918  -0.069  10.347  1.4923  2.3698  0.0046
   14MOL0     H 1835   9.700  -0.141  10.421 -1.1833  2.3597  1.4899
   14MOL0     H 1836   9.294  -0.305  10.248  0.0563 -0.9937 -0.3412
   14MOL0     H 1837   9.058  -0.401  10.284  0.6672 -0.3282 -1.3478
   14MOL0     H 1838   8.743  -0.148  10.402 -1.9072 -0.3295  2.4321
   14MOL0     H 1839   8.788  -0.195  10.565  2.7699  3.0664 -1.0803
   14MOL0     H 1840   8.550  -0.247  10.500 -0.4003  0.7530 -0.5002
   14MOL0     H 1841   8.615  -0.345  10.366  1.0482  0.9057 -0.3743
   14MOL0     H 1842   8.683  -0.408  10.642 -0.2028 -0.5425  1.0077
   14MOL0     H 1843   8.685  -0.503  10.482 -1.8460  0.0753 -1.4633
   14MOL0     H 1844   8.417  -0.442  10.487  1.1648  1.4964 -0.2930
   14MOL0     H 1845   8.483  -0.570  10.594 -1.1216  0.2455  0.6834
   14MOL0     H 1846   8.314  -0.318  10.878  0.4645  0.1927 -1.2252
   14MOL0     H 1847   8.958  -0.085  10.539 -0.7167 -1.4624 -0.0047
   14MOL0     H 1848   9.173   0.037  10.490 -3.7934  1.8992 -2.0209
   15MOL0     O 1849   6.995   8.317   0.830 -0.3994  0.7207 -0.7399
   15MOL0     C 1850   6.879   8.295   0.864  0.2941  0.1350 -0.3612
   15MOL0     O 1851   6.835   8.267   1.004 -0.1609  0.7883 -0.4503
   15MOL0     C 1852   6.924   8.261   1.102 -0.8605  0.1579  0.5565
   15MOL0     C 1853   6.982   8.384   1.153  0.3829 -0.3234 -0.4683
   15MOL0     C 1854   7.085   8.385   1.245  0.6914 -0.5337 -0.1426
   15MOL0     C 1855   7.125   8.263   1.306 -0.0517 -0.5143  0.1804
   15MOL0     O 1856   7.222   8.251   1.402  0.4231 -0.3199  0.0707
   15MOL0     C 1857   7.178   8.286   1.531 -0.7063 -0.0870 -0.8156
   15MOL0     C 1858   7.301   8.292   1.630 -0.9796 -0.0808  0.5361
   15MOL0     C 1859   7.384   8.417   1.627 -0.5260  0.2253  0.2963
   15MOL0     C 1860   7.522   8.400   1.705  0.0968  0.3052  0.2859
   15MOL0     C 1861   7.601   8.528   1.721 -0.4125  0.8313  0.3124
   15MOL0     C 1862   7.726   8.506   1.799 -0.3920  0.1309  0.2860
   15MOL0     C 1863   7.828   8.616   1.783 -0.6514 -1.1214  0.0861
   15MOL0     C 1864   7.925   8.602   1.898  0.5454 -0.0104 -0.4430
   15MOL0     N 1865   8.021   8.714   1.914  0.9090  0.3267  0.4977
   15MOL0     C 1866   8.159   8.713   1.905 -0.3554 -0.2680  0.1671
   15MOL0     C 1867   8.188   8.844   1.923  0.1797  0.4098  0.4055
   15MOL0     C 1868   8.331   8.903   1.928  0.3911 -0.5613  0.4424
   15MOL0     C 1869   8.348   9.053   1.873 -0.8715 -0.3506  0.0514
   15MOL0     C 1870   8.322   9.070   1.718  0.0948 -1.3485 -0.5608
   15MOL0     C 1871   8.288   9.210   1.666 -0.4690  0.6902  0.0501
   15MOL0     O 1872   8.410   9.294   1.683  0.2729  0.1922 -0.1729
   15MOL0     C 1873   8.497   9.282   1.582  0.1932 -0.5580  0.6635
   15MOL0     C 1874   8.498   9.185   1.479 -0.2468 -1.2536 -0.1814
   15MOL0     C 1875   8.592   9.189   1.377 -0.2399  0.0951 -0.1046
   15MOL0     C 1876   8.688   9.292   1.381  0.3990 -0.4262 -0.2521
   15MOL0     C 1877   8.787   9.297   1.269 -0.6663  0.1829 -0.3803
   15MOL0     O 1878   8.881   9.392   1.272  0.2061 -0.4249  0.1800
   15MOL0     C 1879   8.986   9.394   1.190 -0.2099 -0.0255  0.5003
   15MOL0     C 1880   9.077   9.296   1.189  0.2837  1.1243  0.0842
   15MOL0     C 1881   9.188   9.283   1.104 -0.5190 -0.3352 -0.2326
   15MOL0     C 1882   9.223   9.391   1.023  0.1888  0.1261  0.3270
   15MOL0     O 1883   9.333   9.373   0.948  0.6830 -0.4212  0.1326
   15MOL0     C 1884   9.352   9.471   0.845  0.2394  0.4681  0.0761
   15MOL0     C 1885   9.474   9.440   0.760 -0.2141 -0.6634 -0.7884
   15MOL0     C 1886   9.605   9.459   0.841  0.2267 -0.2522 -1.0188
   15MOL0     C 1887   9.724   9.432   0.751 -0.4232  0.9382  0.2560
   15MOL0     C 1888   9.856   9.370   0.811 -0.0450  0.0909 -0.6137
   15MOL0     C 1889   9.929   9.472   0.899 -1.2513 -0.7239 -0.1030
   15MOL0     C 1890  10.055   9.416   0.976  0.1891 -0.7645 -0.4642
   15MOL0     C 1891  10.169   9.378   0.876 -0.9530  0.2574 -0.1774
   15MOL0    Cl 1892  10.295   9.277   0.958  0.0352  0.1118 -0.1419
   15MOL0     C 1893   9.137   9.499   1.022  0.3643 -0.8176 -0.9071
   15MOL0     C 1894   9.018   9.494   1.106  0.6100  0.0142 -0.0232
   15MOL0     O 1895   8.793   9.201   1.196  0.3156  0.0043  0.2059
   15MOL0     C 1896   8.689   9.385   1.491  0.3013  0.4126 -0.3821
   15MOL0     C 1897   8.596   9.375   1.593  0.2930  0.5649  0.7814
   15MOL0     N 1898   8.068   8.920   1.930  0.8109 -0.0097  0.0217
   15MOL0     N 1899   7.972   8.840   1.924 -0.6516 -0.0793  0.0980
   15MOL0     C 1900   7.062   8.147   1.254  0.0851  0.1496 -0.1997
   15MOL0     C 1901   6.961   8.141   1.154  0.2922 -0.0599  0.0153
   15MOL0     C 1902   6.765   8.294   0.764  0.1172 -0.5245 -0.9507
   15MOL0     C 1903   6.629   8.276   0.812 -0.2107  0.4844 -0.3979
   15MOL0     C 1904   6.529   8.268   0.719  0.6012 -0.5306 -0.0079
   15MOL0     C 1905   6.552   8.277   0.584  0.3165  0.0249  0.1762
   15MOL0     O 1906   6.452   8.273   0.490 -0.3758 -0.3389 -0.4634
   15MOL0     C 1907   6.338   8.196   0.519 -0.3219  0.3370  0.3169
   15MOL0     C 1908   6.266   8.199   0.386 -0.2301 -0.0784 -0.1843
   15MOL0     C 1909   6.118   8.146   0.399 -0.0181  0.0327  0.3507
   15MOL0     C 1910   6.058   8.120   0.258  0.3132 -0.2701  0.7042
   15MOL0     C 1911   5.969   8.000   0.266  0.8202  0.1283  1.0328
   15MOL0     C 1912   5.898   7.899   0.256 -0.1772  0.1779  0.0618
   15MOL0     C 1913   6.679   8.312   0.537  0.0651  0.3256 -0.1409
   15MOL0     C 1914   6.788   8.326   0.628  0.2833  0.2659  0.7105
   15MOL0     H 1915   6.948   8.479   1.113 -0.5450  0.2581  1.5437
   15MOL0     H 1916   7.140   8.475   1.269  1.8736 -1.2027 -0.2425
   15MOL0     H 1917   7.119   8.204   1.572 -2.0226  1.5205  0.6677
   15MOL0     H 1918   7.134   8.386   1.530  3.1170  1.8651  1.4820
   15MOL0     H 1919   7.364   8.204   1.615 -0.9825 -0.1561  0.9690
   15MOL0     H 1920   7.269   8.293   1.734 -0.3659 -2.9252  0.8255
   15MOL0     H 1921   7.334   8.509   1.657  1.6257  1.8134 -0.7217
   15MOL0     H 1922   7.411   8.430   1.521 -2.3975  2.8563  0.0376
   15MOL0     H 1923   7.505   8.345   1.799  1.1005  0.2124  0.4248
   15MOL0     H 1924   7.583   8.336   1.641 -1.6865  0.2989 -1.5252
   15MOL0     H 1925   7.541   8.603   1.774 -3.2565 -0.5953 -0.6903
   15MOL0     H 1926   7.646   8.558   1.626  2.5853  0.0137  1.3704
   15MOL0     H 1927   7.774   8.413   1.769  0.0041  0.4212 -0.0100
   15MOL0     H 1928   7.688   8.495   1.900  1.8379 -1.6831  1.0137
   15MOL0     H 1929   7.868   8.601   1.682 -0.8673 -2.1715  0.1509
   15MOL0     H 1930   7.766   8.707   1.786  0.5003 -0.3249  0.2535
   15MOL0     H 1931   7.994   8.521   1.873  0.1425 -0.8071  0.9644
   15MOL0     H 1932   7.872   8.596   1.993  2.0881  3.7783  0.8588
   15MOL0     H 1933   8.233   8.633   1.907  0.5669  0.5385 -0.4840
   15MOL0     H 1934   8.400   8.830   1.884  0.9906  0.7162 -0.8224
   15MOL0     H 1935   8.355   8.912   2.034  4.1941  2.2986 -0.4628
   15MOL0     H 1936   8.446   9.089   1.905 -1.9269  2.8457  0.0812
   15MOL0     H 1937   8.272   9.111   1.927 -1.3945 -1.1684  0.2028
   15MOL0     H 1938   8.411   9.030   1.669  0.0591 -1.5936 -0.4285
   15MOL0     H 1939   8.240   9.005   1.686 -1.0046  0.7305 -2.2034
   15MOL0     H 1940   8.200   9.258   1.709 -1.2895  0.1382 -0.9801
   15MOL0     H 1941   8.268   9.199   1.559  1.4156 -1.8318 -0.1530
   15MOL0     H 1942   8.422   9.107   1.472  0.4174 -1.8626 -0.8355
   15MOL0     H 1943   8.593   9.124   1.290  0.0525  2.0805 -1.6696
   15MOL0     H 1944   9.063   9.214   1.259  3.9834 -0.3218 -0.6408
   15MOL0     H 1945   9.257   9.200   1.097 -0.1027 -0.4289  3.3178
   15MOL0     H 1946   9.355   9.571   0.889  1.4917  1.1575 -1.4586
   15MOL0     H 1947   9.267   9.472   0.778 -0.6154 -1.7250  1.0167
   15MOL0     H 1948   9.474   9.510   0.676 -0.2086  0.3934  0.0681
   15MOL0     H 1949   9.457   9.345   0.709 -0.6191 -0.0437 -1.8307
   15MOL0     H 1950   9.605   9.395   0.930  1.3810 -0.7567 -1.3479
   15MOL0     H 1951   9.617   9.564   0.870 -1.5922 -1.0558  3.5775
   15MOL0     H 1952   9.686   9.353   0.685 -1.1453  0.7610  0.8691
   15MOL0     H 1953   9.752   9.517   0.688  1.8325 -0.3405 -0.5808
   15MOL0     H 1954   9.921   9.336   0.730  1.8606 -1.1654  1.3209
   15MOL0     H 1955   9.830   9.280   0.867  1.6026  0.5962  1.0950
   15MOL0     H 1956   9.866   9.495   0.986 -1.2763  0.8226 -0.5043
   15MOL0     H 1957   9.971   9.559   0.848  0.9642 -2.1028 -0.7789
   15MOL0     H 1958  10.089   9.489   1.051 -0.1844 -1.1246  0.0665
   15MOL0     H 1959  10.022   9.322   1.020  0.3124 -1.2050 -1.2987
   15MOL0     H 1960  10.203   9.468   0.825  1.7713 -1.1168 -0.9465
   15MOL0     H 1961  10.130   9.312   0.797  0.4563 -2.6587  1.4249
   15MOL0     H 1962   9.159   9.583   0.957 -2.6574  1.6143  0.8617
   15MOL0     H 1963   8.958   9.584   1.110  2.0566  1.0095  0.1319
   15MOL0     H 1964   8.759   9.466   1.503  1.0405 -0.2058 -0.4766
   15MOL0     H 1965   8.612   9.448   1.672 -1.7828  0.3503  1.4411
   15MOL0     H 1966   7.093   8.049   1.290 -1.2286 -0.0534  0.4624
   15MOL0     H 1967   6.908   8.051   1.124 -0.7929  1.0201 -1.4292
   15MOL0     H 1968   6.604   8.263   0.917  0.7009 -1.6837 -0.4118
   15MOL0     H 1969   6.427   8.249   0.751 -1.0567  0.6225 -3.9455
   15MOL0     H 1970   6.275   8.241   0.597  0.3171  1.4356  0.2174
   15MOL0     H 1971   6.366   8.093   0.543  0.3712  0.4187 -0.1257
   15MOL0     H 1972   6.265   8.297   0.338  2.3908  0.9956  1.7460
   15MOL0     H 1973   6.319   8.132   0.318 -1.3708  1.1834 -2.4275
   15MOL0     H 1974   6.055   8.210   0.460 -1.6257 -0.1402 -1.0469
   15MOL0     H 1975   6.131   8.049   0.448  2.2230  1.8506  3.6991
   15MOL0     H 1976   6.005   8.208   0.223 -2.2880 -2.5761 -1.6120
   15MOL0     H 1977   6.137   8.097   0.185  0.2397 -0.5144  0.7011
   15MOL0     H 1978   5.850   7.805   0.239 -2.1208  1.0597  0.3941
   15MOL0     H 1979   6.678   8.334   0.430  0.7663  1.5086  0.0913
   15MOL0     H 1980   6.887   8.356   0.594  0.7515 -0.1833  1.6096
   16MOL0     O 1981   0.472  10.373   2.580 -0.0659 -0.3341  0.0922
   16MOL0     C 1982   0.506  10.267   2.633  0.3852 -0.1747  0.3497
   16MOL0     O 1983   0.448  10.190   2.729  0.1089 -0.7289 -0.0818
   16MOL0     C 1984   0.318  10.199   2.762  0.2686 -0.4937 -1.0257
   16MOL0     C 1985   0.284  10.201   2.896 -0.0828 -0.3636 -0.2495
   16MOL0     C 1986   0.150  10.203   2.938 -1.1356 -1.0859 -0.4825
   16MOL0     C 1987   0.049  10.221   2.855  0.7042  0.3460 -0.0883
   16MOL0     O 1988  -0.084  10.213   2.892  0.3628 -0.8498 -0.1746
   16MOL0     C 1989  -0.163  10.330   2.884  1.1380  0.1968  0.6488
   16MOL0     C 1990  -0.306  10.294   2.916  0.6739 -0.4299  0.2393
   16MOL0     C 1991  -0.378  10.240   2.794  0.2266 -0.1391  0.1100
   16MOL0     C 1992  -0.528  10.215   2.836  0.3973 -0.1090 -0.1663
   16MOL0     C 1993  -0.616  10.167   2.725 -0.0295  0.5733  0.5301
   16MOL0     C 1994  -0.568  10.036   2.655  0.1303 -0.4652 -0.9477
   16MOL0     C 1995  -0.617   9.915   2.737  0.0820 -0.4081  0.0723
   16MOL0     C 1996  -0.551   9.785   2.688  0.8134 -0.3293 -0.5476
   16MOL0     N 1997  -0.592   9.674   2.778  0.5035  0.6451 -0.4403
   16MOL0     C 1998  -0.710   9.616   2.769  0.1498 -0.4122  0.6434
   16MOL0     C 1999  -0.701   9.511   2.856 -0.1460 -0.4657  0.9637
   16MOL0     C 2000  -0.817   9.422   2.896  0.6847  0.6506  0.1469
   16MOL0     C 2001  -0.939   9.509   2.928 -0.5320 -0.7669 -0.9750
   16MOL0     C 2002  -1.038   9.431   3.028 -0.8169  0.1612  0.5124
   16MOL0     C 2003  -0.990   9.452   3.176 -0.4416 -0.0589  1.2135
   16MOL0     O 2004  -1.085   9.384   3.259 -0.8258  0.0979 -0.3500
   16MOL0     C 2005  -1.205   9.437   3.278 -0.0133  0.1551  0.4591
   16MOL0     C 2006  -1.297   9.357   3.347 -0.0231  0.2286  0.4156
   16MOL0     C 2007  -1.430   9.400   3.356 -0.3171  0.2342 -0.6644
   16MOL0     C 2008  -1.470   9.527   3.314 -0.1622  0.2064  0.3527
   16MOL0     C 2009  -1.612   9.571   3.336 -0.5803 -0.3460 -1.2154
   16MOL0     O 2010  -1.702   9.469   3.361  0.6093  0.5311 -0.5946
   16MOL0     C 2011  -1.824   9.507   3.423 -0.0760 -1.0270 -0.0212
   16MOL0     C 2012  -1.821   9.572   3.548  0.0439 -0.3491 -0.7130
   16MOL0     C 2013  -1.943   9.620   3.601 -0.1556 -0.0562  0.1281
   16MOL0     C 2014  -2.068   9.586   3.551  0.5142 -0.1161  0.6021
   16MOL0     O 2015  -2.171   9.643   3.616  0.6029  0.2139  0.2284
   16MOL0     C 2016  -2.287   9.561   3.633  0.2391  0.1680  0.8141
   16MOL0     C 2017  -2.402   9.642   3.689  0.1689 -0.4639 -0.1124
   16MOL0     C 2018  -2.508   9.549   3.758 -0.7906 -0.0919 -0.1357
   16MOL0     C 2019  -2.456   9.505   3.893 -0.6286  0.3963  0.0720
   16MOL0     C 2020  -2.513   9.368   3.940 -0.3987  1.2566  0.9598
   16MOL0     C 2021  -2.656   9.406   3.981 -0.0383  0.3758 -0.1731
   16MOL0     C 2022  -2.725   9.274   4.017  0.7928  0.8043  1.1627
   16MOL0     C 2023  -2.874   9.275   4.067 -1.0634  0.5715 -0.3755
   16MOL0    Cl 2024  -2.969   9.391   3.986  0.4762 -0.1735 -0.4785
   16MOL0     C 2025  -2.065   9.521   3.428 -0.0013 -0.4298  0.1535
   16MOL0     C 2026  -1.943   9.491   3.360  0.0213 -0.3651 -0.0073
   16MOL0     O 2027  -1.644   9.689   3.315  0.6146 -0.0208 -0.2171
   16MOL0     C 2028  -1.372   9.610   3.257 -0.1606 -0.9201  0.7364
   16MOL0     C 2029  -1.240   9.563   3.231 -0.5132  0.0689 -0.9572
   16MOL0     N 2030  -0.581   9.507   2.921 -0.8896 -0.7209  0.6701
   16MOL0     N 2031  -0.510   9.608   2.864  0.2266  0.2051 -0.0807
   16MOL0     C 2032   0.079  10.229   2.721  0.2290 -0.1194 -1.0344
   16MOL0     C 2033   0.213  10.219   2.674 -0.4164 -0.5432  0.9662
   16MOL0     C 2034   0.652  10.240   2.591  0.1004  1.2460  0.1071
   16MOL0     C 2035   0.711  10.302   2.482 -0.2417  0.1654  0.6265
   16MOL0     C 2036   0.849  10.293   2.455  0.0062  0.7174  0.0949
   16MOL0     C 2037   0.931  10.218   2.538  0.5646 -0.1721  0.2605
   16MOL0     O 2038   1.062  10.211   2.526  0.0333  0.4012  0.0857
   16MOL0     C 2039   1.134  10.326   2.471 -0.3549 -0.5582 -0.0885
   16MOL0     C 2040   1.264  10.303   2.545 -0.4028  0.9246  0.1543
   16MOL0     C 2041   1.388  10.364   2.494  0.5743  0.4640  0.7073
   16MOL0     C 2042   1.511  10.303   2.574 -0.4790  1.0924 -0.7422
   16MOL0     C 2043   1.591  10.195   2.506 -0.5718  0.1891  0.0803
   16MOL0     C 2044   1.631  10.096   2.448  1.1418  0.2959 -0.5105
   16MOL0     C 2045   0.862  10.139   2.625  0.3532 -0.0389  0.5062
   16MOL0     C 2046   0.726  10.150   2.668  0.0797 -0.3997  0.7327
   16MOL0     H 2047   0.357  10.195   2.976  1.9577  0.7365 -1.9260
   16MOL0     H 2048   0.143  10.203   3.046  1.9487  0.3795 -0.1704
   16MOL0     H 2049  -0.154  10.370   2.783  1.9883 -1.4579  0.0328
   16MOL0     H 2050  -0.141  10.408   2.957 -2.0324  0.1577  1.7925
   16MOL0     H 2051  -0.358  10.386   2.947 -1.3803 -0.9511 -1.4147
   16MOL0     H 2052  -0.325  10.222   2.996 -1.1173  0.3601  0.5739
   16MOL0     H 2053  -0.335  10.143   2.767  1.4263  0.8221 -1.6779
   16MOL0     H 2054  -0.372  10.291   2.697  1.9094  0.6472  0.5987
   16MOL0     H 2055  -0.518  10.141   2.916  2.4259  2.5983  2.3174
   16MOL0     H 2056  -0.568  10.309   2.877 -0.2277 -0.3498 -0.2146
   16MOL0     H 2057  -0.609  10.243   2.647  0.5610 -0.0177 -0.0075
   16MOL0     H 2058  -0.723  10.155   2.743 -1.0077  4.5239 -1.6833
   16MOL0     H 2059  -0.462  10.024   2.634 -0.5532 -3.9155 -3.2010
   16MOL0     H 2060  -0.621  10.034   2.559 -0.6214  2.3501 -0.7048
   16MOL0     H 2061  -0.594   9.929   2.843 -0.2120 -0.4265  0.1399
   16MOL0     H 2062  -0.725   9.901   2.728  0.1421 -1.5887  0.9544
   16MOL0     H 2063  -0.445   9.803   2.708  0.7936 -0.9750  0.1940
   16MOL0     H 2064  -0.563   9.758   2.583 -1.8374  1.1091 -0.7150
   16MOL0     H 2065  -0.794   9.646   2.706  1.6891  3.1005  0.0781
   16MOL0     H 2066  -0.785   9.385   2.994 -1.5801 -0.4081  0.5661
   16MOL0     H 2067  -0.833   9.328   2.841 -0.1978 -1.0095  3.0197
   16MOL0     H 2068  -0.986   9.527   2.832  0.8971  0.1905 -1.5284
   16MOL0     H 2069  -0.898   9.605   2.961  3.0164 -1.8292 -1.8058
   16MOL0     H 2070  -1.141   9.467   3.023 -1.6165 -2.0000  0.2296
   16MOL0     H 2071  -1.041   9.326   2.999 -2.0111  0.6884 -1.4740
   16MOL0     H 2072  -0.981   9.559   3.194 -1.3506  0.2209  0.1159
   16MOL0     H 2073  -0.901   9.393   3.198 -0.5892 -0.8933 -0.2664
   16MOL0     H 2074  -1.271   9.262   3.393 -3.5770 -1.6883 -1.1656
   16MOL0     H 2075  -1.500   9.351   3.423  1.2764  2.0571  2.5984
   16MOL0     H 2076  -1.726   9.593   3.594 -0.9045 -2.5219  2.6014
   16MOL0     H 2077  -1.962   9.692   3.680 -1.9575  0.0851 -0.3954
   16MOL0     H 2078  -2.274   9.475   3.699 -0.6560  2.7265  4.6654
   16MOL0     H 2079  -2.316   9.524   3.535 -2.6460  3.2301  0.3429
   16MOL0     H 2080  -2.456   9.688   3.606  0.2016 -1.7865 -0.9044
   16MOL0     H 2081  -2.365   9.703   3.772 -3.4967  0.4660  1.0309
   16MOL0     H 2082  -2.517   9.458   3.698  1.2069  0.0249 -0.6669
   16MOL0     H 2083  -2.602   9.604   3.773 -0.0360  1.1560  0.1648
   16MOL0     H 2084  -2.350   9.481   3.886 -0.9201 -1.6017  1.5740
   16MOL0     H 2085  -2.474   9.578   3.973 -0.9824  2.5825 -1.8914
   16MOL0     H 2086  -2.456   9.314   4.017  1.7245  0.3041 -1.1686
   16MOL0     H 2087  -2.528   9.299   3.857 -5.5147 -0.4845  2.9082
   16MOL0     H 2088  -2.710   9.460   3.903  0.3909 -0.4860 -1.0863
   16MOL0     H 2089  -2.659   9.467   4.071 -3.6784 -2.3791  1.8482
   16MOL0     H 2090  -2.722   9.214   3.925 -0.7529  0.4092  1.3548
   16MOL0     H 2091  -2.665   9.223   4.094  2.0429 -0.6380 -0.6607
   16MOL0     H 2092  -2.884   9.298   4.173 -2.3665  0.8237 -0.5227
   16MOL0     H 2093  -2.911   9.174   4.049  2.2669 -0.8068 -0.1673
   16MOL0     H 2094  -2.155   9.495   3.375  0.3521 -0.6711 -0.3348
   16MOL0     H 2095  -1.945   9.444   3.262 -2.5466 -2.3088  0.8644
   16MOL0     H 2096  -1.394   9.714   3.237 -0.2455 -1.1039 -0.1469
   16MOL0     H 2097  -1.170   9.627   3.178  3.5056 -2.0679  1.2974
   16MOL0     H 2098   0.004  10.238   2.642  0.3869 -2.0749 -1.4483
   16MOL0     H 2099   0.239  10.224   2.568  0.3943 -0.5306  1.1610
   16MOL0     H 2100   0.653  10.361   2.411 -0.0876 -1.2931 -0.7873
   16MOL0     H 2101   0.872  10.351   2.366 -2.1810  1.5170 -0.0035
   16MOL0     H 2102   1.091  10.425   2.492 -0.1055 -0.4808  0.0696
   16MOL0     H 2103   1.141  10.321   2.362 -1.1285  0.4949 -0.2049
   16MOL0     H 2104   1.240  10.334   2.646 -0.5086 -0.5152  0.5958
   16MOL0     H 2105   1.275  10.194   2.541 -1.7310  0.7897 -0.6367
   16MOL0     H 2106   1.376  10.465   2.532  2.8866  0.2940  2.1433
   16MOL0     H 2107   1.399  10.361   2.385 -0.8636  0.3160  0.5482
   16MOL0     H 2108   1.585  10.383   2.580  1.5018 -0.1580 -4.7158
   16MOL0     H 2109   1.463  10.265   2.665 -3.2244  3.0466 -1.2537
   16MOL0     H 2110   1.683  10.008   2.414  4.1652  1.1855  1.3818
   16MOL0     H 2111   0.914  10.064   2.682 -2.3546 -1.0361  1.8369
   16MOL0     H 2112   0.669  10.087   2.734 -2.0986 -1.1705 -1.7163
   17MOL0     O 2113   6.973   1.193   4.443  0.0429  0.1637  0.2305
   17MOL0     C 2114   6.995   1.183   4.321 -0.9047 -0.3102  0.0572
   17MOL0     O 2115   7.111   1.187   4.260  0.0373 -0.6764  0.0353
   17MOL0     C 2116   7.230   1.211   4.334 -0.9516  0.2469  0.1228
   17MOL0     C 2117   7.257   1.330   4.402  0.7600  0.7381  0.2654
   17MOL0     C 2118   7.391   1.356   4.444  0.6292 -0.9045 -0.4382
   17MOL0     C 2119   7.497   1.261   4.434  0.2034  0.2007 -0.2923
   17MOL0     O 2120   7.621   1.296   4.484 -0.4397  0.3298 -0.0054
   17MOL0     C 2121   7.714   1.188   4.481 -0.4292 -0.5678  0.1303
   17MOL0     C 2122   7.851   1.226   4.548 -0.7313  0.0825 -0.2854
   17MOL0     C 2123   7.844   1.231   4.700  0.3670 -0.0222 -1.0771
   17MOL0     C 2124   7.977   1.268   4.762 -0.1163 -0.4907  0.0151
   17MOL0     C 2125   8.110   1.189   4.728 -0.1476 -0.7638  0.0227
   17MOL0     C 2126   8.116   1.052   4.771  0.1996  0.0496  0.1240
   17MOL0     C 2127   8.256   0.990   4.762 -0.2440 -0.0439 -1.0147
   17MOL0     C 2128   8.272   0.877   4.874 -0.0068 -0.0825  0.7671
   17MOL0     N 2129   8.421   0.858   4.871  0.7833  0.6208  0.3428
   17MOL0     C 2130   8.494   0.810   4.768 -1.0928 -0.4844  0.4030
   17MOL0     C 2131   8.622   0.796   4.820  0.3632 -0.8052  0.6794
   17MOL0     C 2132   8.738   0.750   4.739 -0.2873  0.2982  0.4223
   17MOL0     C 2133   8.873   0.796   4.789  0.0093 -0.2350 -0.3350
   17MOL0     C 2134   8.976   0.703   4.726 -0.4270  0.0928 -0.7383
   17MOL0     C 2135   9.115   0.764   4.734  0.4156  0.1297  0.1894
   17MOL0     O 2136   9.148   0.843   4.846 -0.3796  0.5129 -0.0802
   17MOL0     C 2137   9.265   0.822   4.921  0.5384  0.7742 -0.1143
   17MOL0     C 2138   9.261   0.809   5.058  0.4095 -0.1098  0.7553
   17MOL0     C 2139   9.374   0.777   5.134  0.3551  0.1326 -0.5477
   17MOL0     C 2140   9.499   0.769   5.066  0.5694 -0.0560 -0.1997
   17MOL0     C 2141   9.614   0.740   5.144 -0.7198 -0.1380 -0.0042
   17MOL0     O 2142   9.717   0.701   5.068 -0.3676  0.1892  0.0417
   17MOL0     C 2143   9.833   0.683   5.136  0.2914 -0.3368 -0.7254
   17MOL0     C 2144   9.898   0.800   5.186  0.6147  1.2215 -0.5610
   17MOL0     C 2145  10.022   0.791   5.259  0.0274 -0.5940  0.0522
   17MOL0     C 2146  10.089   0.671   5.259 -0.6676  0.3186 -0.2926
   17MOL0     O 2147  10.209   0.639   5.328 -0.4689 -0.3871  0.1108
   17MOL0     C 2148  10.216   0.713   5.453  0.2240 -0.3364 -0.2755
   17MOL0     C 2149  10.337   0.651   5.551 -0.0032 -1.2757  0.4523
   17MOL0     C 2150  10.310   0.502   5.559 -0.5584  0.4018 -0.5255
   17MOL0     C 2151  10.395   0.434   5.667 -1.2194 -0.1598 -0.5145
   17MOL0     C 2152  10.356   0.292   5.712 -0.5973 -0.4626  0.2839
   17MOL0     C 2153  10.372   0.178   5.594  0.1640 -0.3016  1.1464
   17MOL0     C 2154  10.356   0.044   5.658  0.0468  0.2765  0.2327
   17MOL0     C 2155  10.410  -0.076   5.558  0.6814 -0.6058 -0.2869
   17MOL0    Cl 2156  10.316  -0.080   5.403  0.7067 -0.2475  0.2524
   17MOL0     C 2157  10.033   0.557   5.199  0.2341  0.2462  0.5023
   17MOL0     C 2158   9.900   0.565   5.147 -0.8093 -0.1325  0.3178
   17MOL0     O 2159   9.612   0.750   5.268  0.2417 -0.4501  0.1152
   17MOL0     C 2160   9.503   0.790   4.924 -0.1559  0.3054 -0.6047
   17MOL0     C 2161   9.382   0.809   4.852  0.0022 -0.5098  0.7192
   17MOL0     N 2162   8.624   0.830   4.955  0.4524 -0.0039  0.4676
   17MOL0     N 2163   8.500   0.866   4.982  0.3970  0.2849 -0.4107
   17MOL0     C 2164   7.465   1.139   4.373 -0.0259  0.6081  0.3347
   17MOL0     C 2165   7.334   1.116   4.321  0.7023  0.4383  0.6005
   17MOL0     C 2166   6.873   1.178   4.241  0.3300  0.6205 -0.1859
   17MOL0     C 2167   6.865   1.216   4.106 -0.7607  0.4323 -0.1173
   17MOL0     C 2168   6.744   1.211   4.034 -0.5088 -0.8187 -1.3119
   17MOL0     C 2169   6.625   1.188   4.090  0.6084  0.4419 -0.5109
   17MOL0     O 2170   6.505   1.209   4.015  0.3101  0.3964 -0.7815
   17MOL0     C 2171   6.395   1.274   4.079  0.2456  0.3344 -0.9335
   17MOL0     C 2172   6.314   1.347   3.968 -0.5665  0.7075 -0.0576
   17MOL0     C 2173   6.392   1.453   3.898 -0.1203 -0.6180 -0.1045
   17MOL0     C 2174   6.480   1.401   3.784 -1.1405 -0.2969 -0.1323
   17MOL0     C 2175   6.486   1.509   3.678 -0.5939  0.2481 -0.0414
   17MOL0     C 2176   6.484   1.595   3.593 -0.4430  0.2207 -0.4540
   17MOL0     C 2177   6.632   1.141   4.223  0.2444 -0.0441  0.2369
   17MOL0     C 2178   6.751   1.129   4.299  0.5762 -0.8918  0.3337
   17MOL0     H 2179   7.194   1.418   4.414  2.5210  1.8728  1.7518
   17MOL0     H 2180   7.415   1.456   4.480 -0.3304 -1.5294  2.1744
   17MOL0     H 2181   7.725   1.167   4.374 -0.3218  1.2510 -0.2441
   17MOL0     H 2182   7.689   1.095   4.532  0.8352 -0.0207  1.8486
   17MOL0     H 2183   7.875   1.325   4.508 -1.2614  0.4569  0.3013
   17MOL0     H 2184   7.923   1.153   4.510 -0.3509  0.4966 -0.3611
   17MOL0     H 2185   7.812   1.137   4.743 -0.5906  0.8430  0.1711
   17MOL0     H 2186   7.767   1.303   4.728 -0.8209 -0.5332 -2.8751
   17MOL0     H 2187   7.983   1.370   4.721 -1.1466 -0.6691 -0.6180
   17MOL0     H 2188   7.978   1.270   4.871  1.4922  2.2189  0.0610
   17MOL0     H 2189   8.186   1.244   4.784  0.1739 -0.3509 -0.7978
   17MOL0     H 2190   8.136   1.202   4.622  1.6005 -0.6067  0.4395
   17MOL0     H 2191   8.051   0.988   4.710 -0.9262 -1.9759  3.2017
   17MOL0     H 2192   8.085   1.051   4.875  2.5307  0.7463  0.8856
   17MOL0     H 2193   8.273   0.931   4.671  1.5784 -1.9238  0.4698
   17MOL0     H 2194   8.334   1.066   4.776 -0.8216  0.2809  0.7079
   17MOL0     H 2195   8.216   0.788   4.845  3.0092 -1.9771  0.3256
   17MOL0     H 2196   8.245   0.915   4.972  2.2201 -0.8444  1.7367
   17MOL0     H 2197   8.468   0.759   4.677 -1.9916 -1.3541  1.1282
   17MOL0     H 2198   8.715   0.762   4.632  1.4757 -0.5188 -0.0921
   17MOL0     H 2199   8.734   0.642   4.758 -2.2803  0.1313 -0.6414
   17MOL0     H 2200   8.875   0.804   4.898 -1.2816 -0.5122 -0.2694
   17MOL0     H 2201   8.884   0.896   4.746 -0.2009 -0.9872 -2.2114
   17MOL0     H 2202   8.972   0.611   4.786 -1.5340  0.1815 -0.6633
   17MOL0     H 2203   8.957   0.675   4.622 -2.6239 -0.8500 -0.1319
   17MOL0     H 2204   9.119   0.839   4.654  0.8061  0.3724  0.4383
   17MOL0     H 2205   9.183   0.681   4.713 -1.6275 -1.5478 -0.2209
   17MOL0     H 2206   9.162   0.812   5.104 -0.0217  0.6456 -0.1903
   17MOL0     H 2207   9.363   0.758   5.240  0.9999 -2.4679 -0.8935
   17MOL0     H 2208   9.861   0.902   5.175  2.4125  2.2094  1.6622
   17MOL0     H 2209  10.060   0.880   5.309  2.7339 -1.0479 -1.0775
   17MOL0     H 2210  10.125   0.691   5.509  1.1954  2.5232  2.7511
   17MOL0     H 2211  10.231   0.821   5.451  1.7550 -0.5142  0.3701
   17MOL0     H 2212  10.345   0.695   5.651 -3.8104  2.0660 -0.4714
   17MOL0     H 2213  10.429   0.667   5.494  0.5693 -3.8514  0.5242
   17MOL0     H 2214  10.326   0.455   5.461  0.7987  2.9287 -1.6091
   17MOL0     H 2215  10.204   0.491   5.586 -0.3017 -0.0144  0.3479
   17MOL0     H 2216  10.497   0.438   5.629 -0.8249 -1.5746  0.3314
   17MOL0     H 2217  10.396   0.500   5.754 -0.9913 -1.6353  0.6524
   17MOL0     H 2218  10.253   0.293   5.750 -0.1491 -2.3997  1.6682
   17MOL0     H 2219  10.417   0.263   5.797  2.9552  2.9591 -0.7991
   17MOL0     H 2220  10.470   0.183   5.545 -0.2773  1.0645  0.3317
   17MOL0     H 2221  10.295   0.190   5.517  1.0814 -0.4880  0.1718
   17MOL0     H 2222  10.414   0.035   5.750 -1.8735 -0.5813  1.4291
   17MOL0     H 2223  10.251   0.026   5.685 -0.5383 -1.3711 -2.7187
   17MOL0     H 2224  10.400  -0.176   5.600 -1.6311  0.1570  1.1354
   17MOL0     H 2225  10.518  -0.058   5.552  0.8108  0.4259  3.0358
   17MOL0     H 2226  10.088   0.464   5.207 -2.0190 -1.2382 -0.3493
   17MOL0     H 2227   9.864   0.472   5.103  0.9032 -1.3372  1.3285
   17MOL0     H 2228   9.598   0.779   4.872  0.3154 -0.0823  0.3154
   17MOL0     H 2229   9.385   0.822   4.745  0.2168 -0.1561  0.7669
   17MOL0     H 2230   7.534   1.055   4.369  0.8226  1.2519  1.0601
   17MOL0     H 2231   7.311   1.021   4.272 -0.2418  1.3609 -0.8318
   17MOL0     H 2232   6.945   1.253   4.042 -1.9137  3.5788  0.1185
   17MOL0     H 2233   6.743   1.237   3.929 -1.7515 -1.3733 -1.4485
   17MOL0     H 2234   6.428   1.350   4.150 -1.1551 -0.6425  0.8558
   17MOL0     H 2235   6.331   1.206   4.136 -0.6252  2.2322  0.4803
   17MOL0     H 2236   6.279   1.274   3.894 -0.4348  0.7180 -0.1310
   17MOL0     H 2237   6.220   1.387   4.008 -0.7494 -2.5521  3.3337
   17MOL0     H 2238   6.450   1.520   3.962  0.0753  1.0538 -1.9502
   17MOL0     H 2239   6.315   1.518   3.855  1.7317  1.3775 -0.5932
   17MOL0     H 2240   6.577   1.388   3.833 -2.6141 -1.6443  2.6100
   17MOL0     H 2241   6.446   1.307   3.739  2.0746 -2.2356  1.0952
   17MOL0     H 2242   6.467   1.679   3.528  0.3315  0.5051 -0.3023
   17MOL0     H 2243   6.538   1.119   4.273 -0.3937  0.7460 -0.5862
   17MOL0     H 2244   6.739   1.104   4.404 -2.3404  0.2107  0.3760
   18MOL0     O 2245   7.730  11.249   0.313 -0.5019  0.3250 -1.1888
   18MOL0     C 2246   7.729  11.131   0.282 -0.6697  0.9269  0.6765
   18MOL0     O 2247   7.756  11.031   0.361  0.2793  0.8901  0.5302
   18MOL0     C 2248   7.806  11.054   0.486 -0.2223 -0.7286  0.0685
   18MOL0     C 2249   7.908  11.147   0.514 -0.5721 -0.5089 -0.0045
   18MOL0     C 2250   7.949  11.167   0.648 -0.2303 -0.1672  0.1227
   18MOL0     C 2251   7.882  11.103   0.749 -0.6849 -0.7981  0.1269
   18MOL0     O 2252   7.926  11.126   0.878 -0.0344 -0.3028 -0.6365
   18MOL0     C 2253   7.933  11.008   0.962  0.4288 -0.3786 -0.4561
   18MOL0     C 2254   7.986  11.044   1.100  0.1806  0.0353 -0.3416
   18MOL0     C 2255   8.003  10.919   1.199  0.0896 -0.5096 -0.4831
   18MOL0     C 2256   8.031  10.947   1.348 -0.1826  0.3323  1.5756
   18MOL0     C 2257   8.094  10.823   1.423  0.0710 -0.2731 -0.1083
   18MOL0     C 2258   8.055  10.691   1.367  0.5686 -0.6977 -0.4888
   18MOL0     C 2259   8.090  10.572   1.459  0.4420 -0.3577  0.2308
   18MOL0     C 2260   8.044  10.445   1.393 -0.9131  0.2392 -0.6227
   18MOL0     N 2261   8.054  10.325   1.480  0.2174  0.3814 -0.2582
   18MOL0     C 2262   8.167  10.249   1.496 -0.5807  0.6954 -0.4052
   18MOL0     C 2263   8.147  10.189   1.604 -0.9376 -0.4535  0.1800
   18MOL0     C 2264   8.231  10.092   1.671 -0.0795  0.1199 -0.0606
   18MOL0     C 2265   8.272  10.157   1.807  1.0082  0.3491  0.0312
   18MOL0     C 2266   8.334  10.053   1.904  0.2266  0.2342 -0.9165
   18MOL0     C 2267   8.469   9.997   1.873 -1.1636  0.3345 -0.6396
   18MOL0     O 2268   8.568  10.105   1.894 -0.1641 -0.5380  0.4634
   18MOL0     C 2269   8.633  10.108   2.017 -0.0442 -0.1889  0.5532
   18MOL0     C 2270   8.693  10.228   2.056 -0.3778  0.1785 -1.1145
   18MOL0     C 2271   8.749  10.242   2.185 -0.0786  0.1295 -0.1906
   18MOL0     C 2272   8.744  10.136   2.276 -0.0524 -0.6715  0.3589
   18MOL0     C 2273   8.792  10.161   2.414 -0.1506 -0.5758  0.5081
   18MOL0     O 2274   8.778  10.287   2.449 -0.2281 -0.2653 -0.2568
   18MOL0     C 2275   8.773  10.341   2.579 -0.8132  0.3445 -0.7265
   18MOL0     C 2276   8.788  10.482   2.584 -1.0985 -0.9166  0.6892
   18MOL0     C 2277   8.777  10.555   2.697 -0.1511  0.1030 -0.4969
   18MOL0     C 2278   8.760  10.492   2.824 -0.3844 -0.8965 -0.0072
   18MOL0     O 2279   8.749  10.566   2.937  0.2165  0.5647  0.2230
   18MOL0     C 2280   8.798  10.702   2.930 -0.2050  0.4246  0.3221
   18MOL0     C 2281   8.806  10.746   3.080 -0.0668 -0.4669 -0.2241
   18MOL0     C 2282   8.902  10.674   3.173 -1.1082  0.2840  0.2877
   18MOL0     C 2283   8.931  10.741   3.316  0.2500 -0.0063  0.3911
   18MOL0     C 2284   9.044  10.676   3.389 -0.7554 -0.7458 -0.1876
   18MOL0     C 2285   9.021  10.527   3.426 -0.1848 -0.4303 -0.2067
   18MOL0     C 2286   8.894  10.507   3.519 -0.1233 -0.0801 -0.6901
   18MOL0     C 2287   8.919  10.506   3.673 -0.3674  0.8597  0.1511
   18MOL0    Cl 2288   8.760  10.485   3.751  0.1957  0.2869  0.0252
   18MOL0     C 2289   8.750  10.353   2.817  0.4868  0.0119  0.4433
   18MOL0     C 2290   8.746  10.277   2.698 -0.7690  0.0380 -0.1471
   18MOL0     O 2291   8.852  10.074   2.477 -0.1249  1.1287  0.2884
   18MOL0     C 2292   8.710  10.005   2.235  1.0924  0.0265 -0.8505
   18MOL0     C 2293   8.642   9.995   2.116  0.6978 -0.3549  0.1478
   18MOL0     N 2294   8.012  10.204   1.650 -0.1789 -0.2317  0.2374
   18MOL0     N 2295   7.951  10.284   1.572 -0.2015  0.2971 -0.3736
   18MOL0     C 2296   7.789  10.997   0.720 -0.2610  0.0047  0.9932
   18MOL0     C 2297   7.752  10.975   0.587 -1.1326  0.5524 -0.6054
   18MOL0     C 2298   7.713  11.106   0.137 -1.7264 -0.7186  0.4545
   18MOL0     C 2299   7.711  10.977   0.084 -0.8481 -0.1950 -0.1311
   18MOL0     C 2300   7.680  10.938  -0.049  0.8398  0.5280 -0.1834
   18MOL0     C 2301   7.652  11.043  -0.140  0.1368  0.6917 -0.4736
   18MOL0     O 2302   7.613  11.019  -0.275 -0.1252 -1.2957 -0.2452
   18MOL0     C 2303   7.609  10.884  -0.309 -0.2275  0.8952  0.2848
   18MOL0     C 2304   7.565  10.879  -0.450 -0.5314 -0.2735  0.7397
   18MOL0     C 2305   7.688  10.923  -0.539 -0.0343  0.0067 -0.2229
   18MOL0     C 2306   7.693  10.862  -0.677  0.2751 -0.0668  0.2671
   18MOL0     C 2307   7.589  10.929  -0.759  1.5459 -0.8643  0.3142
   18MOL0     C 2308   7.544  10.985  -0.854  0.4330  0.7169 -0.2463
   18MOL0     C 2309   7.664  11.175  -0.092  0.8128  0.4723 -0.1159
   18MOL0     C 2310   7.689  11.210   0.044  0.2151  0.5202  0.7273
   18MOL0     H 2311   7.969  11.199   0.441 -0.0239  0.7296  1.2893
   18MOL0     H 2312   8.036  11.229   0.665 -0.1775  0.1236 -1.1360
   18MOL0     H 2313   7.995  10.929   0.919  2.1211  0.2094  0.7991
   18MOL0     H 2314   7.841  10.959   0.994 -0.0453  1.1766  0.6680
   18MOL0     H 2315   7.918  11.118   1.143  1.3600  1.1397 -0.3254
   18MOL0     H 2316   8.082  11.097   1.088  0.4097  0.2669  2.0814
   18MOL0     H 2317   8.090  10.874   1.151 -1.5235 -2.6175 -1.5855
   18MOL0     H 2318   7.917  10.851   1.194 -0.9040  0.8045 -3.1189
   18MOL0     H 2319   8.098  11.033   1.350  1.2527 -0.6497 -0.2593
   18MOL0     H 2320   7.934  10.970   1.393 -1.8909  2.0034 -2.3933
   18MOL0     H 2321   8.042  10.833   1.519  0.5880  1.6695  0.0054
   18MOL0     H 2322   8.202  10.834   1.431  0.2061 -1.0346 -0.7251
   18MOL0     H 2323   8.109  10.671   1.274  4.3194 -1.2760  1.6482
   18MOL0     H 2324   7.948  10.693   1.345  0.6217  1.3577 -0.7391
   18MOL0     H 2325   8.198  10.575   1.473  0.2482 -0.8987  2.0627
   18MOL0     H 2326   8.039  10.575   1.556 -3.3891 -1.9708 -1.5087
   18MOL0     H 2327   8.097  10.415   1.302  0.5167 -0.9166  0.5263
   18MOL0     H 2328   7.940  10.472   1.375  0.2568  4.2835 -2.4224
   18MOL0     H 2329   8.263  10.274   1.453 -0.4436 -1.4483 -1.4605
   18MOL0     H 2330   8.317  10.082   1.603  1.8550  3.9838  1.5021
   18MOL0     H 2331   8.191   9.991   1.680 -0.7499 -0.1750 -4.3715
   18MOL0     H 2332   8.187  10.213   1.848  1.1920  0.9159 -0.3504
   18MOL0     H 2333   8.347  10.234   1.788 -0.5110  1.0904 -3.8395
   18MOL0     H 2334   8.341  10.097   2.004  1.5642 -0.2055 -0.8031
   18MOL0     H 2335   8.268   9.966   1.905  2.5962 -1.6646  0.3797
   18MOL0     H 2336   8.478   9.954   1.773  1.9892 -1.6157  0.3005
   18MOL0     H 2337   8.488   9.911   1.939 -1.0741  1.1548  0.4391
   18MOL0     H 2338   8.687  10.309   1.984 -0.1581  1.1118 -0.1072
   18MOL0     H 2339   8.775  10.343   2.215 -2.3604  0.4020  1.0827
   18MOL0     H 2340   8.807  10.533   2.490 -1.4449 -1.8103  0.1174
   18MOL0     H 2341   8.783  10.661   2.672  0.9191  0.3559  0.7013
   18MOL0     H 2342   8.728  10.765   2.875 -0.7757 -0.1640  0.3574
   18MOL0     H 2343   8.898  10.718   2.888  1.7769 -4.3610  2.4719
   18MOL0     H 2344   8.711  10.737   3.134 -0.7567  0.1129 -1.2966
   18MOL0     H 2345   8.842  10.849   3.076  4.0038 -1.7476 -0.2538
   18MOL0     H 2346   8.997  10.667   3.118 -1.6780  1.1332 -0.8547
   18MOL0     H 2347   8.852  10.579   3.189 -1.8766  0.4053 -1.2140
   18MOL0     H 2348   8.964  10.843   3.294 -3.3048  0.9767 -1.1048
   18MOL0     H 2349   8.842  10.750   3.379 -0.2318  0.2925 -0.3144
   18MOL0     H 2350   9.050  10.731   3.483  0.3159  0.4937 -0.9602
   18MOL0     H 2351   9.139  10.692   3.338 -1.5094 -1.6129 -1.9699
   18MOL0     H 2352   9.114  10.484   3.465  1.7566 -1.5082 -5.2578
   18MOL0     H 2353   8.995  10.478   3.332  0.8890 -1.5434  0.0606
   18MOL0     H 2354   8.822  10.587   3.502  0.7028  1.3640  1.9304
   18MOL0     H 2355   8.850  10.409   3.502  1.7212 -0.8253 -1.3560
   18MOL0     H 2356   8.952  10.610   3.688 -0.7295  1.2000 -1.2908
   18MOL0     H 2357   8.992  10.435   3.713 -0.3752  1.7695  1.8653
   18MOL0     H 2358   8.743  10.300   2.912 -0.2599 -0.1184  0.3207
   18MOL0     H 2359   8.737  10.169   2.696  1.1286 -0.2338  1.7794
   18MOL0     H 2360   8.704   9.923   2.305 -0.6772  0.5912 -0.2826
   18MOL0     H 2361   8.579   9.908   2.098 -0.6884  1.2320 -3.7721
   18MOL0     H 2362   7.742  10.938   0.798 -0.2936 -1.7041 -0.2679
   18MOL0     H 2363   7.670  10.907   0.565  1.1425 -3.1518  1.2339
   18MOL0     H 2364   7.745  10.890   0.140  1.5294 -1.3754 -3.1184
   18MOL0     H 2365   7.685  10.837  -0.087 -2.7779  0.9057 -2.1283
   18MOL0     H 2366   7.540  10.829  -0.244 -1.6492 -0.9252 -2.5272
   18MOL0     H 2367   7.707  10.838  -0.289 -1.1710  0.1575  3.9104
   18MOL0     H 2368   7.542  10.777  -0.483 -0.4710  0.3115 -1.2829
   18MOL0     H 2369   7.480  10.947  -0.467  0.3695  0.3082 -2.0714
   18MOL0     H 2370   7.784  10.894  -0.496 -1.2761 -2.3101  1.2213
   18MOL0     H 2371   7.706  11.031  -0.538  0.7750 -0.1255  0.7684
   18MOL0     H 2372   7.794  10.873  -0.717  0.1245  0.5470  0.0444
   18MOL0     H 2373   7.698  10.753  -0.686  2.1546  0.1342 -1.9158
   18MOL0     H 2374   7.516  11.005  -0.956  0.8351  0.1736 -0.4702
   18MOL0     H 2375   7.638  11.248  -0.167  0.7439  0.5855  0.0182
   18MOL0     H 2376   7.708  11.315   0.062  3.0327  1.1581 -4.2425
   19MOL0     O 2377  11.221   5.889   9.821  0.5480 -0.3363  1.8291
   19MOL0     C 2378  11.244   5.977   9.903 -0.2149 -0.1335 -0.1854
   19MOL0     O 2379  11.173   6.091   9.934 -0.7618 -0.1113 -1.3312
   19MOL0     C 2380  11.073   6.131   9.856 -0.2881  0.2547 -0.0250
   19MOL0     C 2381  11.097   6.237   9.768 -0.0257  0.3287 -0.0098
   19MOL0     C 2382  11.000   6.260   9.669  0.6057  0.6349  0.0392
   19MOL0     C 2383  10.874   6.190   9.657 -0.1348  0.2201  0.3019
   19MOL0     O 2384  10.790   6.227   9.552 -0.0670 -0.7039 -0.6936
   19MOL0     C 2385  10.692   6.319   9.591 -0.3043 -1.0544  0.7299
   19MOL0     C 2386  10.598   6.336   9.469 -0.3651  0.0134 -0.0808
   19MOL0     C 2387  10.489   6.233   9.462 -0.3071 -0.6720 -0.0693
   19MOL0     C 2388  10.407   6.239   9.330 -1.0648 -0.4004 -0.3282
   19MOL0     C 2389  10.270   6.168   9.360  0.1608  0.8000  0.1447
   19MOL0     C 2390  10.190   6.175   9.239  0.6286 -0.3821 -0.2406
   19MOL0     C 2391  10.042   6.122   9.269  0.0652  0.9666  0.6028
   19MOL0     C 2392   9.961   6.087   9.143 -0.0632  0.1386  0.3358
   19MOL0     N 2393   9.902   6.204   9.077  0.4153  1.0611 -0.1941
   19MOL0     C 2394   9.767   6.236   9.084  0.9591  0.0106  0.3624
   19MOL0     C 2395   9.760   6.356   9.018  0.1105  0.4575  0.0622
   19MOL0     C 2396   9.639   6.444   9.032 -0.3308 -0.0791 -0.5891
   19MOL0     C 2397   9.511   6.377   8.978 -0.3405 -0.5055  0.0163
   19MOL0     C 2398   9.379   6.409   9.051  0.9709  0.0429  0.1361
   19MOL0     C 2399   9.243   6.340   9.012 -0.3943 -0.5246  0.0400
   19MOL0     O 2400   9.132   6.352   9.108 -0.4712  0.3836  0.2610
   19MOL0     C 2401   9.055   6.244   9.112  0.1244  0.2627  0.2481
   19MOL0     C 2402   9.095   6.119   9.161 -0.4834  0.4803 -0.1721
   19MOL0     C 2403   9.000   6.024   9.165  0.2806  0.0837 -0.0206
   19MOL0     C 2404   8.868   6.034   9.125  1.6917 -0.3813 -0.0579
   19MOL0     C 2405   8.768   5.925   9.114  0.0664  0.4367 -0.1174
   19MOL0     O 2406   8.815   5.794   9.137  0.3313  0.2107  0.4627
   19MOL0     C 2407   8.731   5.692   9.165  1.1740 -1.0778 -0.0997
   19MOL0     C 2408   8.695   5.598   9.066 -0.1202 -0.1196 -0.6831
   19MOL0     C 2409   8.613   5.495   9.103 -0.1196 -0.4594 -0.5504
   19MOL0     C 2410   8.559   5.482   9.234 -0.2841 -0.4410 -0.4514
   19MOL0     O 2411   8.492   5.379   9.281 -0.4525  0.5678 -0.3208
   19MOL0     C 2412   8.454   5.278   9.185 -0.1911 -0.6243  0.3554
   19MOL0     C 2413   8.389   5.169   9.267 -0.7483  0.1191 -0.3686
   19MOL0     C 2414   8.508   5.083   9.331  0.4543  0.1814  0.0705
   19MOL0     C 2415   8.444   4.943   9.360  0.4400 -0.0667 -0.1572
   19MOL0     C 2416   8.549   4.847   9.420 -0.0281 -0.7871  1.2713
   19MOL0     C 2417   8.520   4.704   9.452 -0.1521 -0.1106 -0.3796
   19MOL0     C 2418   8.395   4.699   9.549  0.7703  0.0506 -0.4147
   19MOL0     C 2419   8.365   4.562   9.596  0.5082 -1.0887 -0.2782
   19MOL0    Cl 2420   8.289   4.575   9.752 -0.7800 -0.4032 -0.7652
   19MOL0     C 2421   8.594   5.575   9.326 -0.8158 -0.0543 -0.4617
   19MOL0     C 2422   8.678   5.684   9.294 -0.3307 -0.4230  0.0494
   19MOL0     O 2423   8.650   5.958   9.100 -0.1965  0.8983 -0.0291
   19MOL0     C 2424   8.832   6.157   9.073  0.3219 -0.2010  0.1257
   19MOL0     C 2425   8.927   6.262   9.069  0.4191  0.0685  1.6257
   19MOL0     N 2426   9.883   6.387   8.956  0.6554 -0.5595 -0.2764
   19MOL0     N 2427   9.965   6.289   8.990  0.3539 -0.7442  0.0498
   19MOL0     C 2428  10.850   6.092   9.758  0.0579 -1.3942  0.6595
   19MOL0     C 2429  10.951   6.055   9.851 -0.7878 -0.4469  1.7011
   19MOL0     C 2430  11.371   5.956   9.976  0.6786  0.9355  0.0073
   19MOL0     C 2431  11.442   5.832   9.976  0.1785 -0.1651 -0.7125
   19MOL0     C 2432  11.562   5.809  10.050  1.2313 -0.7743  0.0330
   19MOL0     C 2433  11.613   5.925  10.117 -0.5839  0.0196  0.1654
   19MOL0     O 2434  11.727   5.934  10.204 -0.1843  0.2894 -0.6993
   19MOL0     C 2435  11.815   5.814  10.185 -0.7424 -0.2476 -0.3361
   19MOL0     C 2436  11.952   5.829  10.263 -0.0095 -0.5167 -0.5029
   19MOL0     C 2437  11.962   5.777  10.400 -0.9512  0.4149  1.1574
   19MOL0     C 2438  12.105   5.786  10.451 -0.0336  1.0282 -0.8492
   19MOL0     C 2439  12.135   5.674  10.549 -0.8799 -0.3309  0.0235
   19MOL0     C 2440  12.145   5.581  10.625 -0.1424 -0.3534  0.3059
   19MOL0     C 2441  11.557   6.045  10.099  0.5352 -1.1949 -0.3245
   19MOL0     C 2442  11.440   6.070  10.025  0.2417 -0.7440 -0.2077
   19MOL0     H 2443  11.197   6.277   9.760  0.7964 -1.2866  1.6166
   19MOL0     H 2444  11.014   6.332   9.588 -2.7358  0.4767 -0.7954
   19MOL0     H 2445  10.737   6.415   9.617 -0.1460  0.6148 -4.4937
   19MOL0     H 2446  10.637   6.281   9.678  2.1827 -0.1446  2.8234
   19MOL0     H 2447  10.655   6.350   9.377  0.4935  1.3381  0.6346
   19MOL0     H 2448  10.555   6.435   9.484  1.6013  1.2540 -2.1060
   19MOL0     H 2449  10.427   6.236   9.552  0.7989  0.4112  0.6712
   19MOL0     H 2450  10.544   6.138   9.460  0.0908 -0.5604 -4.6510
   19MOL0     H 2451  10.389   6.346   9.317  1.8012 -0.0197 -2.0371
   19MOL0     H 2452  10.448   6.193   9.239  0.7259 -0.2347  0.3478
   19MOL0     H 2453  10.219   6.211   9.447 -1.5432 -2.6364  1.0302
   19MOL0     H 2454  10.286   6.064   9.390 -0.2165  0.7586  0.2112
   19MOL0     H 2455  10.226   6.115   9.156  0.9981  0.3695 -0.6397
   19MOL0     H 2456  10.185   6.278   9.203 -1.2743 -0.7238 -1.0505
   19MOL0     H 2457  10.054   6.029   9.326  3.6611 -0.8714 -2.6575
   19MOL0     H 2458   9.981   6.184   9.334 -1.6718  2.9486 -2.6713
   19MOL0     H 2459   9.873   6.028   9.169  1.0117 -0.7593  2.1725
   19MOL0     H 2460  10.017   6.037   9.064 -0.9767  1.0148 -0.8975
   19MOL0     H 2461   9.695   6.190   9.150  0.7299  0.3286  0.3335
   19MOL0     H 2462   9.672   6.530   8.973 -0.7366 -1.2797 -2.6596
   19MOL0     H 2463   9.617   6.457   9.139 -2.4148 -1.1835 -0.8261
   19MOL0     H 2464   9.518   6.268   8.981 -1.8118 -0.6668 -1.0782
   19MOL0     H 2465   9.497   6.400   8.872 -0.2204  1.5079  0.3957
   19MOL0     H 2466   9.395   6.382   9.156  2.0671  0.9990  0.2306
   19MOL0     H 2467   9.362   6.517   9.056  1.3299  0.0528  3.5407
   19MOL0     H 2468   9.273   6.234   9.005  2.6491 -0.0401  2.9592
   19MOL0     H 2469   9.219   6.393   8.920  2.0690  1.1832  0.2707
   19MOL0     H 2470   9.194   6.088   9.191 -1.0077  1.1372  2.4579
   19MOL0     H 2471   9.039   5.934   9.210 -1.5256 -0.4007  0.6758
   19MOL0     H 2472   8.737   5.603   8.965  2.3829 -1.3244  0.2115
   19MOL0     H 2473   8.585   5.425   9.024 -0.7251 -2.9130  1.6884
   19MOL0     H 2474   8.546   5.242   9.138  2.4337  2.1313  2.9405
   19MOL0     H 2475   8.384   5.306   9.105  2.0150  2.5872 -0.6671
   19MOL0     H 2476   8.341   5.109   9.190  1.7922 -1.2666 -0.9709
   19MOL0     H 2477   8.332   5.208   9.353 -0.0316  4.5953 -1.6833
   19MOL0     H 2478   8.539   5.125   9.427  0.8078  1.1130 -0.4437
   19MOL0     H 2479   8.596   5.076   9.266  0.3063 -3.2721  0.0267
   19MOL0     H 2480   8.360   4.956   9.428 -1.7577 -4.8027 -1.4903
   19MOL0     H 2481   8.403   4.900   9.267  0.2326  1.0773 -0.6057
   19MOL0     H 2482   8.580   4.877   9.521  0.2765  1.7603  0.5014
   19MOL0     H 2483   8.642   4.851   9.363 -1.0393 -0.2787 -0.4239
   19MOL0     H 2484   8.609   4.658   9.497 -0.6116  1.0625  1.9149
   19MOL0     H 2485   8.495   4.656   9.358  1.0254  1.6930 -1.6991
   19MOL0     H 2486   8.439   4.756   9.632  0.2018 -1.9142  1.3344
   19MOL0     H 2487   8.298   4.743   9.525  0.7041  2.3940  3.3024
   19MOL0     H 2488   8.459   4.506   9.602  0.3025 -1.2826  1.9942
   19MOL0     H 2489   8.296   4.513   9.527  1.1816  0.5126 -2.1755
   19MOL0     H 2490   8.550   5.563   9.425  0.2874 -1.8324 -0.1340
   19MOL0     H 2491   8.702   5.765   9.361 -1.2717 -1.3182  1.5228
   19MOL0     H 2492   8.728   6.170   9.047  0.3715 -0.0574  0.0029
   19MOL0     H 2493   8.900   6.354   9.018  1.6831  0.4294  1.5699
   19MOL0     H 2494  10.758   6.034   9.752 -0.9709  0.1912  0.5676
   19MOL0     H 2495  10.932   5.964   9.907 -4.0935 -0.8767  0.1024
   19MOL0     H 2496  11.394   5.750   9.923 -2.3611  0.4391  0.4614
   19MOL0     H 2497  11.616   5.715  10.055  0.9328 -0.9297  0.3492
   19MOL0     H 2498  11.831   5.808  10.077 -1.9826 -0.1209 -0.5460
   19MOL0     H 2499  11.760   5.721  10.204 -3.7836  1.7842  1.6809
   19MOL0     H 2500  12.024   5.777  10.199  1.9119 -0.1260  1.2298
   19MOL0     H 2501  11.984   5.934  10.265  1.0854 -0.7523 -2.6730
   19MOL0     H 2502  11.930   5.673  10.387  0.0209  0.1562  0.7548
   19MOL0     H 2503  11.900   5.828  10.475  0.1391  2.2088  0.9124
   19MOL0     H 2504  12.179   5.772  10.372 -1.8907  0.6433 -2.5941
   19MOL0     H 2505  12.126   5.886  10.490  1.4871  0.0758  0.9559
   19MOL0     H 2506  12.152   5.494  10.688 -2.3249 -1.9668 -1.5296
   19MOL0     H 2507  11.606   6.128  10.149  1.9315 -2.3395  0.2668
   19MOL0     H 2508  11.398   6.169  10.019  2.3185  0.1079 -2.1719
   20MOL0     O 2509   7.371   6.536   7.831  0.3045  0.1061 -0.1238
   20MOL0     C 2510   7.412   6.651   7.874  0.1279 -0.4322 -1.2716
   20MOL0     O 2511   7.339   6.770   7.881 -0.4164 -0.5805 -0.2665
   20MOL0     C 2512   7.210   6.769   7.872  0.5370 -0.4897  0.2561
   20MOL0     C 2513   7.125   6.660   7.909 -0.0165 -1.0291  0.3180
   20MOL0     C 2514   6.985   6.667   7.886  0.6171  0.0536 -0.0895
   20MOL0     C 2515   6.935   6.781   7.826 -0.2456 -0.2583 -0.0285
   20MOL0     O 2516   6.811   6.760   7.783 -0.0157  0.7563 -0.6121
   20MOL0     C 2517   6.716   6.867   7.790  0.0912 -0.4208  0.6861
   20MOL0     C 2518   6.590   6.821   7.728  0.3596  0.1665 -0.4801
   20MOL0     C 2519   6.604   6.795   7.580  0.6337 -0.0342  1.0386
   20MOL0     C 2520   6.469   6.785   7.505 -0.7557 -0.3006 -0.0175
   20MOL0     C 2521   6.474   6.831   7.360 -0.1783  0.0703 -0.1955
   20MOL0     C 2522   6.334   6.859   7.303  1.3922  0.7238 -0.5582
   20MOL0     C 2523   6.317   6.854   7.146  0.0231 -0.2526 -0.2505
   20MOL0     C 2524   6.440   6.914   7.059  0.7521 -0.1536 -0.5868
   20MOL0     N 2525   6.438   7.060   7.064  0.3096  0.2052  0.3765
   20MOL0     C 2526   6.548   7.137   7.086  0.1396  0.0735  0.7155
   20MOL0     C 2527   6.511   7.255   7.028 -0.3577  0.8616  0.0300
   20MOL0     C 2528   6.598   7.378   7.013  0.1046 -0.2177  0.1074
   20MOL0     C 2529   6.519   7.512   7.030 -0.5258 -0.1880 -0.4551
   20MOL0     C 2530   6.432   7.544   6.908 -0.6191  0.5007  0.2659
   20MOL0     C 2531   6.506   7.624   6.804  0.2088  0.6981 -0.1318
   20MOL0     O 2532   6.431   7.675   6.694 -0.3168 -0.1622 -0.9743
   20MOL0     C 2533   6.338   7.780   6.714 -0.2298  0.2948  0.1733
   20MOL0     C 2534   6.251   7.797   6.615  0.3292  1.3713 -0.6074
   20MOL0     C 2535   6.150   7.901   6.609  0.3104 -0.4707 -0.4817
   20MOL0     C 2536   6.127   7.976   6.728 -0.1409 -0.6190  0.3814
   20MOL0     C 2537   6.026   8.093   6.731 -0.4731 -0.4986  0.8659
   20MOL0     O 2538   6.034   8.168   6.842 -0.6444 -0.1955  0.1579
   20MOL0     C 2539   5.976   8.298   6.848 -0.1203  0.6049 -0.3670
   20MOL0     C 2540   6.013   8.403   6.761  0.5942  0.4034  0.0052
   20MOL0     C 2541   5.960   8.528   6.792 -0.7447 -0.5211 -0.7577
   20MOL0     C 2542   5.895   8.558   6.913  0.2389 -0.0537  0.5260
   20MOL0     O 2543   5.860   8.685   6.961  0.1683  0.6577 -0.8501
   20MOL0     C 2544   5.809   8.779   6.871  0.0777 -0.1706  0.6902
   20MOL0     C 2545   5.682   8.849   6.918 -0.1208 -0.6522 -0.2912
   20MOL0     C 2546   5.570   8.750   6.959  0.6421 -0.1055  0.2979
   20MOL0     C 2547   5.503   8.803   7.079 -1.4154  0.1133  0.1248
   20MOL0     C 2548   5.355   8.753   7.092  0.5927  0.2920  0.7359
   20MOL0     C 2549   5.274   8.844   7.176  0.1807  0.2258  0.2617
   20MOL0     C 2550   5.133   8.785   7.198  1.3308 -0.3825  0.9882
   20MOL0     C 2551   5.049   8.789   7.074  0.0450  0.5273 -0.6178
   20MOL0    Cl 2552   5.032   8.954   7.008  0.3555  0.1770  0.9419
   20MOL0     C 2553   5.855   8.454   6.997 -0.3739  0.3507  0.0516
   20MOL0     C 2554   5.897   8.322   6.959  0.3336 -0.6841  0.3770
   20MOL0     O 2555   5.957   8.126   6.639  0.5676  0.2064  0.8067
   20MOL0     C 2556   6.204   7.940   6.841 -1.1521  0.0176 -0.1852
   20MOL0     C 2557   6.305   7.845   6.832 -0.1565  0.0805 -0.6764
   20MOL0     N 2558   6.379   7.248   6.988  0.5440  0.0203  1.0019
   20MOL0     N 2559   6.339   7.127   7.007  0.7305 -0.3145 -0.3052
   20MOL0     C 2560   7.010   6.894   7.796 -0.3624  0.8456  0.3956
   20MOL0     C 2561   7.147   6.883   7.816 -0.0760  0.4910  0.7740
   20MOL0     C 2562   7.558   6.663   7.898  0.3016  0.4642 -0.5847
   20MOL0     C 2563   7.635   6.539   7.884  0.3638  0.3475  0.3357
   20MOL0     C 2564   7.778   6.543   7.905 -0.4809  0.4312 -0.4503
   20MOL0     C 2565   7.839   6.652   7.961  0.0021 -0.9432  0.6777
   20MOL0     O 2566   7.979   6.670   7.981  1.2426 -0.6830  0.7036
   20MOL0     C 2567   8.074   6.576   7.926  0.6436 -0.1087 -0.7470
   20MOL0     C 2568   8.211   6.648   7.942  0.1215  0.2850 -0.1269
   20MOL0     C 2569   8.327   6.548   7.892 -0.2023  0.2438  0.4325
   20MOL0     C 2570   8.309   6.394   7.889  0.2048  0.1031  0.4834
   20MOL0     C 2571   8.299   6.344   8.029  0.3736 -0.4647  0.1215
   20MOL0     C 2572   8.310   6.317   8.147  0.2407 -0.3340  1.4072
   20MOL0     C 2573   7.765   6.771   7.964  0.6225 -0.6133 -0.3822
   20MOL0     C 2574   7.626   6.775   7.935 -0.4476 -0.0983 -1.1676
   20MOL0     H 2575   7.168   6.568   7.947  1.5534 -1.9732 -3.3181
   20MOL0     H 2576   6.925   6.581   7.915 -0.9896  0.8250 -1.0516
   20MOL0     H 2577   6.747   6.961   7.745 -2.6301  1.0353  1.6415
   20MOL0     H 2578   6.706   6.882   7.898  5.6248  1.3821  1.2874
   20MOL0     H 2579   6.523   6.907   7.742 -1.8919 -1.7258  1.2592
   20MOL0     H 2580   6.544   6.734   7.775 -2.2403  2.0086  0.6690
   20MOL0     H 2581   6.665   6.713   7.542  0.5802  0.4418 -0.1223
   20MOL0     H 2582   6.662   6.879   7.543 -0.5055  0.4477  0.2816
   20MOL0     H 2583   6.426   6.686   7.522  3.6998 -2.0874  2.9499
   20MOL0     H 2584   6.400   6.854   7.555 -0.3063  3.1734 -3.6712
   20MOL0     H 2585   6.517   6.752   7.297  1.3842 -0.3458  1.2982
   20MOL0     H 2586   6.540   6.918   7.350 -1.3688  1.3786  2.3374
   20MOL0     H 2587   6.294   6.955   7.337 -1.0277 -0.9798  1.7607
   20MOL0     H 2588   6.278   6.774   7.342  1.6184  0.2947 -1.1424
   20MOL0     H 2589   6.303   6.750   7.118 -0.7765  0.3998 -2.5410
   20MOL0     H 2590   6.223   6.905   7.122 -1.2967 -2.3652  0.2410
   20MOL0     H 2591   6.427   6.886   6.955 -1.1660  1.9512 -0.9945
   20MOL0     H 2592   6.534   6.872   7.096 -0.1147 -3.0020 -1.3327
   20MOL0     H 2593   6.647   7.107   7.119  1.0310  3.0603  1.1044
   20MOL0     H 2594   6.658   7.376   6.921 -0.5205 -0.5240 -0.2994
   20MOL0     H 2595   6.666   7.371   7.099  0.3390  0.9002  0.0390
   20MOL0     H 2596   6.586   7.594   7.059  1.9270 -1.9163 -0.8515
   20MOL0     H 2597   6.456   7.501   7.118  0.3878  0.0739  0.2476
   20MOL0     H 2598   6.406   7.457   6.847 -2.2918  1.5995 -0.7135
   20MOL0     H 2599   6.343   7.597   6.946  1.8570  3.4389  2.4929
   20MOL0     H 2600   6.586   7.562   6.763 -1.0275 -1.4411  0.4955
   20MOL0     H 2601   6.551   7.713   6.848 -0.5723  0.1228  1.9703
   20MOL0     H 2602   6.265   7.734   6.528 -0.0313  3.1112 -1.9645
   20MOL0     H 2603   6.083   7.928   6.529  1.6251  1.4582 -1.0004
   20MOL0     H 2604   6.067   8.395   6.666 -3.0041 -5.5690 -2.0745
   20MOL0     H 2605   5.992   8.604   6.721  1.7678 -2.5085 -1.9344
   20MOL0     H 2606   5.795   8.743   6.769 -3.2744  3.4740 -0.4058
   20MOL0     H 2607   5.887   8.854   6.853  0.9351 -1.3953 -1.0251
   20MOL0     H 2608   5.636   8.920   6.849  1.3305  1.3555  0.7376
   20MOL0     H 2609   5.717   8.911   7.000  2.7740  1.7997 -3.1275
   20MOL0     H 2610   5.599   8.647   6.979  0.5897 -1.4057 -5.0519
   20MOL0     H 2611   5.495   8.751   6.880  2.7440  2.4755 -1.8758
   20MOL0     H 2612   5.558   8.790   7.173  0.9516 -0.7413 -1.3000
   20MOL0     H 2613   5.496   8.912   7.072 -2.4573 -0.0239 -1.6199
   20MOL0     H 2614   5.353   8.649   7.126  0.0908  0.2098  0.4599
   20MOL0     H 2615   5.308   8.751   6.993  4.4296  2.9016 -1.3924
   20MOL0     H 2616   5.274   8.946   7.135  1.9586  0.1289 -0.0271
   20MOL0     H 2617   5.332   8.847   7.269  1.3459 -3.1909 -0.2446
   20MOL0     H 2618   5.144   8.682   7.235 -1.3913 -0.4033  1.9108
   20MOL0     H 2619   5.078   8.846   7.269 -0.0195 -1.3263  0.7969
   20MOL0     H 2620   4.954   8.742   7.100  0.7288 -1.4051 -1.4292
   20MOL0     H 2621   5.094   8.717   7.006 -2.6429 -2.7306  0.7782
   20MOL0     H 2622   5.818   8.473   7.097 -0.0322 -2.0436  0.6949
   20MOL0     H 2623   5.877   8.234   7.020  0.5316  0.4416  2.1266
   20MOL0     H 2624   6.204   7.998   6.933  0.6811 -0.0675 -0.0971
   20MOL0     H 2625   6.367   7.834   6.920 -2.6820  2.2432  1.5203
   20MOL0     H 2626   6.964   6.981   7.751 -1.7721  0.9235  1.8882
   20MOL0     H 2627   7.213   6.962   7.781 -1.1414 -0.1164 -2.9931
   20MOL0     H 2628   7.607   6.443   7.843 -0.4461  2.3707 -4.4255
   20MOL0     H 2629   7.840   6.455   7.889  0.3102  1.1553 -1.5473
   20MOL0     H 2630   8.041   6.537   7.830 -0.2866 -1.2057 -0.0066
   20MOL0     H 2631   8.071   6.484   7.985  0.6315 -1.6682 -3.0712
   20MOL0     H 2632   8.220   6.749   7.901 -1.6670 -0.5242 -2.7564
   20MOL0     H 2633   8.226   6.650   8.050 -0.9160 -1.6536  0.0962
   20MOL0     H 2634   8.428   6.564   7.932 -0.1259 -2.5811  1.6246
   20MOL0     H 2635   8.323   6.576   7.786 -0.7136  1.9633  0.8684
   20MOL0     H 2636   8.213   6.380   7.839 -1.1096  1.2319  2.5640
   20MOL0     H 2637   8.391   6.345   7.836  0.4611 -0.7615  1.6351
   20MOL0     H 2638   8.304   6.293   8.251 -1.9278 -1.5453  1.0829
   20MOL0     H 2639   7.807   6.857   8.014 -0.8958  0.3937 -0.7737
   20MOL0     H 2640   7.578   6.873   7.938  0.5593  0.3964  1.1881
   21MOL0     O 2641   1.505   7.005   7.939 -0.1029 -0.2562 -0.1837
   21MOL0     C 2642   1.604   7.073   7.915  0.4228  0.1690 -0.6225
   21MOL0     O 2643   1.654   7.182   7.977  0.3304 -0.5570  0.1884
   21MOL0     C 2644   1.587   7.231   8.087  0.5841 -0.2667 -0.9953
   21MOL0     C 2645   1.594   7.371   8.110  0.2994 -0.6190  0.0589
   21MOL0     C 2646   1.535   7.428   8.224 -0.2452 -0.0645  1.0371
   21MOL0     C 2647   1.476   7.346   8.313 -0.1120 -0.1333  0.5720
   21MOL0     O 2648   1.395   7.408   8.409 -0.0963  0.0201 -0.8478
   21MOL0     C 2649   1.374   7.349   8.541  0.3974 -0.3340  0.2578
   21MOL0     C 2650   1.253   7.419   8.604 -1.3861 -0.4003 -0.5805
   21MOL0     C 2651   1.263   7.575   8.601 -0.2691  0.4332 -0.7136
   21MOL0     C 2652   1.130   7.636   8.644  0.8614  0.7042  0.1165
   21MOL0     C 2653   1.129   7.786   8.624 -0.2469  0.1131  0.8764
   21MOL0     C 2654   1.135   7.817   8.476 -0.1450 -0.0045 -0.4059
   21MOL0     C 2655   1.124   7.965   8.457  0.0176  0.3948 -0.6402
   21MOL0     C 2656   1.157   7.991   8.303  0.2510  0.0178  0.2960
   21MOL0     N 2657   1.133   8.131   8.276  0.2384 -0.3471  0.3102
   21MOL0     C 2658   1.186   8.193   8.165 -0.1076  0.6150  0.4175
   21MOL0     C 2659   1.134   8.319   8.179  1.4469 -0.0445  0.6310
   21MOL0     C 2660   1.166   8.443   8.101  0.4608 -0.8986  0.0466
   21MOL0     C 2661   1.200   8.562   8.196  0.0327 -0.0176  0.0482
   21MOL0     C 2662   1.342   8.547   8.262 -0.5614 -0.0757 -0.4643
   21MOL0     C 2663   1.351   8.626   8.380  0.4524 -0.5363 -0.4293
   21MOL0     O 2664   1.251   8.582   8.478 -0.1348  0.7926 -0.2378
   21MOL0     C 2665   1.295   8.508   8.582  0.1982  0.2661  0.2234
   21MOL0     C 2666   1.418   8.507   8.646 -0.4265 -1.3161 -0.3896
   21MOL0     C 2667   1.449   8.421   8.751  0.6013 -0.6887  0.2912
   21MOL0     C 2668   1.360   8.315   8.784 -0.4735  0.4821  1.1161
   21MOL0     C 2669   1.386   8.199   8.882 -0.4016  0.3221 -0.1083
   21MOL0     O 2670   1.301   8.101   8.902  0.1197  0.5878 -1.5619
   21MOL0     C 2671   1.335   7.986   8.963 -0.5290  0.1169 -0.3028
   21MOL0     C 2672   1.379   7.880   8.886 -0.0562  0.7920 -0.0192
   21MOL0     C 2673   1.406   7.761   8.951 -0.3974 -0.7366 -0.1325
   21MOL0     C 2674   1.375   7.753   9.091 -0.7206  0.2429 -0.1595
   21MOL0     O 2675   1.402   7.643   9.161  0.0821 -0.1982  0.3173
   21MOL0     C 2676   1.334   7.521   9.115 -1.1564  0.6346  0.3620
   21MOL0     C 2677   1.391   7.422   9.216 -0.0940  0.6357 -0.3135
   21MOL0     C 2678   1.349   7.453   9.364  1.0042 -0.2061  0.0250
   21MOL0     C 2679   1.397   7.337   9.454 -0.0317  0.3563  0.5806
   21MOL0     C 2680   1.286   7.258   9.523  0.6721  0.8958 -0.4257
   21MOL0     C 2681   1.368   7.153   9.612  0.1750 -0.8235 -0.0972
   21MOL0     C 2682   1.277   7.061   9.695  1.0510 -0.4410 -0.7816
   21MOL0     C 2683   1.359   6.989   9.803 -0.3808 -0.2834  0.0296
   21MOL0    Cl 2684   1.275   6.901   9.918  0.4352  0.3619  0.2332
   21MOL0     C 2685   1.344   7.867   9.172  0.5201 -0.5498  0.3980
   21MOL0     C 2686   1.307   7.981   9.098 -0.1846 -0.7724 -0.2685
   21MOL0     O 2687   1.499   8.199   8.931  0.0496  0.1235 -0.3615
   21MOL0     C 2688   1.231   8.315   8.723 -0.4657 -0.3342  0.9412
   21MOL0     C 2689   1.203   8.407   8.621  0.3930 -0.5960  0.8079
   21MOL0     N 2690   1.038   8.321   8.282  0.3100 -0.1017  0.1033
   21MOL0     N 2691   1.039   8.208   8.333  1.1202 -0.1833 -0.0061
   21MOL0     C 2692   1.487   7.211   8.297 -0.0271  0.1939 -0.1998
   21MOL0     C 2693   1.530   7.156   8.182  0.6548  0.0133  0.4135
   21MOL0     C 2694   1.666   7.032   7.790 -0.2040  1.0048 -0.5230
   21MOL0     C 2695   1.634   6.919   7.716  0.7306 -0.6913 -0.1235
   21MOL0     C 2696   1.713   6.889   7.601 -1.2258  0.5897  0.8765
   21MOL0     C 2697   1.827   6.965   7.562  0.2319  0.3322  0.7042
   21MOL0     O 2698   1.891   6.958   7.438 -0.4521  0.6919 -0.7232
   21MOL0     C 2699   1.846   6.858   7.344  0.0709 -0.1275 -0.5155
   21MOL0     C 2700   1.948   6.855   7.239  0.4179  0.0705  0.2324
   21MOL0     C 2701   1.916   6.744   7.137  0.2414 -0.0522  0.0374
   21MOL0     C 2702   2.019   6.752   7.020  0.0875  0.6074  0.4096
   21MOL0     C 2703   2.143   6.682   7.060  0.0362  0.1293 -0.5259
   21MOL0     C 2704   2.217   6.594   7.105  0.5517 -0.2816 -0.5485
   21MOL0     C 2705   1.863   7.077   7.639  0.3182  0.2469  0.6537
   21MOL0     C 2706   1.772   7.115   7.744 -0.7644 -0.9597 -0.1847
   21MOL0     H 2707   1.647   7.435   8.040  1.4031  0.4708  1.8210
   21MOL0     H 2708   1.520   7.535   8.236  0.6125 -0.1156  2.9234
   21MOL0     H 2709   1.466   7.347   8.600  1.7095 -1.0567 -1.6830
   21MOL0     H 2710   1.364   7.240   8.530  2.8005 -0.8599  2.4008
   21MOL0     H 2711   1.258   7.385   8.708  0.8323 -1.9214 -1.1165
   21MOL0     H 2712   1.169   7.378   8.548  0.1933 -2.0893 -1.8097
   21MOL0     H 2713   1.287   7.597   8.497  4.8940 -0.1520  0.0877
   21MOL0     H 2714   1.339   7.615   8.669 -2.8731  3.0531  0.8415
   21MOL0     H 2715   1.046   7.590   8.593  1.7524  1.7538 -2.4792
   21MOL0     H 2716   1.126   7.611   8.750 -0.7863 -3.1504 -0.7064
   21MOL0     H 2717   1.222   7.826   8.666  0.3866  1.7924 -1.8803
   21MOL0     H 2718   1.042   7.830   8.674 -1.0581  0.0193 -0.4216
   21MOL0     H 2719   1.051   7.769   8.426 -0.2611 -1.0790  0.7773
   21MOL0     H 2720   1.233   7.790   8.436  2.7471  2.3979  4.1331
   21MOL0     H 2721   1.027   7.995   8.495  0.1963 -0.5825  0.6740
   21MOL0     H 2722   1.201   8.017   8.515  0.4063  2.6493 -2.9598
   21MOL0     H 2723   1.104   7.925   8.233  1.0882  1.0706 -1.3898
   21MOL0     H 2724   1.259   7.957   8.283  0.1563 -0.8793  1.2261
   21MOL0     H 2725   1.265   8.154   8.102 -0.9086 -1.3035  0.5437
   21MOL0     H 2726   1.069   8.469   8.056 -0.4014  1.6251  3.0046
   21MOL0     H 2727   1.237   8.433   8.018  0.4336  1.9571 -0.3980
   21MOL0     H 2728   1.118   8.557   8.269 -0.5460 -3.7117 -0.6856
   21MOL0     H 2729   1.189   8.659   8.146  1.5754 -0.7522 -1.8260
   21MOL0     H 2730   1.342   8.442   8.292 -0.2622  0.8245  3.2838
   21MOL0     H 2731   1.420   8.557   8.187  2.0646 -0.5314  2.0243
   21MOL0     H 2732   1.337   8.731   8.355  0.4548 -0.7092 -1.2059
   21MOL0     H 2733   1.452   8.629   8.422 -0.6308  0.0286  2.2924
   21MOL0     H 2734   1.487   8.579   8.604 -3.8443  0.2948 -3.8749
   21MOL0     H 2735   1.546   8.426   8.798  0.2231 -0.9306  1.1212
   21MOL0     H 2736   1.404   7.887   8.781  2.2808  0.4071  0.4594
   21MOL0     H 2737   1.442   7.675   8.895  1.7099 -0.5563  0.8326
   21MOL0     H 2738   1.358   7.491   9.013 -0.2352  4.8382 -0.8276
   21MOL0     H 2739   1.224   7.525   9.117 -1.2710 -1.0288 -0.7909
   21MOL0     H 2740   1.500   7.430   9.212 -0.1438  0.7547 -2.0972
   21MOL0     H 2741   1.355   7.321   9.195 -1.2448  0.7411  0.9739
   21MOL0     H 2742   1.246   7.479   9.388  1.0530 -0.0436  0.0600
   21MOL0     H 2743   1.400   7.547   9.389  0.3222  0.8983 -2.3925
   21MOL0     H 2744   1.460   7.265   9.400 -1.2394  0.0296 -0.4330
   21MOL0     H 2745   1.460   7.375   9.534 -2.7578  1.7872  2.1898
   21MOL0     H 2746   1.222   7.210   9.448  1.1423 -2.5320  1.1396
   21MOL0     H 2747   1.224   7.322   9.586 -0.4969  0.2887 -0.9335
   21MOL0     H 2748   1.431   7.217   9.673 -1.5253  0.9331 -0.0957
   21MOL0     H 2749   1.441   7.091   9.558  1.3532 -2.6397  3.2550
   21MOL0     H 2750   1.210   7.129   9.749  0.6276 -1.3188 -0.1699
   21MOL0     H 2751   1.221   6.995   9.628 -2.3796  1.4626 -0.0346
   21MOL0     H 2752   1.419   7.062   9.858  3.6325 -3.0505 -0.2231
   21MOL0     H 2753   1.434   6.930   9.750  1.3920 -0.2878  2.3511
   21MOL0     H 2754   1.338   7.860   9.280  0.4069 -2.4164  0.3054
   21MOL0     H 2755   1.269   8.065   9.155 -0.0635 -0.1705 -1.0662
   21MOL0     H 2756   1.169   8.231   8.751  2.2119 -2.6414  0.3812
   21MOL0     H 2757   1.102   8.394   8.584  0.1188  1.9314  0.5104
   21MOL0     H 2758   1.440   7.130   8.352  2.3126 -1.9245 -1.1060
   21MOL0     H 2759   1.539   7.048   8.180 -0.3807 -0.1355  2.0345
   21MOL0     H 2760   1.545   6.863   7.744  0.2789 -1.4759 -2.8167
   21MOL0     H 2761   1.667   6.803   7.553 -0.9650  0.0294  1.6166
   21MOL0     H 2762   1.755   6.900   7.302  1.7846  2.0246 -2.3530
   21MOL0     H 2763   1.824   6.766   7.399  3.1749  0.8483  2.7543
   21MOL0     H 2764   1.950   6.946   7.178  2.7949  0.7988  1.2576
   21MOL0     H 2765   2.048   6.835   7.279  0.2940 -1.9504 -0.3190
   21MOL0     H 2766   1.816   6.753   7.093  1.5001 -3.4926 -4.3491
   21MOL0     H 2767   1.930   6.647   7.184 -2.1687 -1.2275 -1.4663
   21MOL0     H 2768   1.989   6.692   6.933  0.3502 -1.8233  1.8966
   21MOL0     H 2769   2.047   6.851   6.983  2.9667 -0.2242  0.1534
   21MOL0     H 2770   2.270   6.511   7.146 -3.2364 -1.6349  2.0996
   21MOL0     H 2771   1.949   7.133   7.604  0.7933 -1.1273 -0.4834
   21MOL0     H 2772   1.805   7.193   7.811 -1.7692 -2.2880  1.9844
   22MOL0     O 2773   5.205   3.768   4.451 -0.2652  0.5574 -0.4577
   22MOL0     C 2774   5.191   3.824   4.350  0.5304 -0.3336  0.3016
   22MOL0     O 2775   5.269   3.932   4.308  1.1335  0.5846  0.1872
   22MOL0     C 2776   5.388   3.938   4.361 -0.6079  0.3278 -0.6016
   22MOL0     C 2777   5.441   4.064   4.408  0.3537  0.1291  0.0255
   22MOL0     C 2778   5.573   4.076   4.453 -0.6236 -0.4410 -0.3238
   22MOL0     C 2779   5.669   3.975   4.428  1.1250 -0.2151  0.3674
   22MOL0     O 2780   5.801   3.984   4.469  0.3668 -0.2661 -0.3758
   22MOL0     C 2781   5.847   4.093   4.551  0.2953 -0.0330  0.6546
   22MOL0     C 2782   5.980   4.045   4.607  0.4366  0.1037 -0.5105
   22MOL0     C 2783   6.074   4.161   4.636 -0.0829 -0.1382  0.0919
   22MOL0     C 2784   6.213   4.102   4.659  0.5611 -0.6597  0.5109
   22MOL0     C 2785   6.316   4.210   4.713  0.1114  0.6977  0.0823
   22MOL0     C 2786   6.458   4.145   4.735  0.4690  0.1982  0.3303
   22MOL0     C 2787   6.462   4.010   4.810 -0.4546 -0.9270  0.3214
   22MOL0     C 2788   6.372   3.997   4.941 -0.1510  0.3676 -0.1852
   22MOL0     N 2789   6.442   4.060   5.054 -0.0690 -0.1702 -0.2066
   22MOL0     C 2790   6.566   4.030   5.119  0.9596 -0.3363 -0.4977
   22MOL0     C 2791   6.591   4.139   5.200  0.6527  0.4330 -1.0965
   22MOL0     C 2792   6.703   4.156   5.292 -0.8461 -0.2560  0.0404
   22MOL0     C 2793   6.852   4.167   5.245 -0.2553 -0.2104 -0.1809
   22MOL0     C 2794   6.913   4.035   5.176 -0.2361 -0.0533  0.1218
   22MOL0     C 2795   7.062   4.060   5.167  0.1592  0.2860  0.4242
   22MOL0     O 2796   7.099   4.146   5.058  0.6744  0.0886 -0.0106
   22MOL0     C 2797   7.046   4.116   4.936 -0.4818 -0.0584 -0.6794
   22MOL0     C 2798   7.027   4.219   4.847  0.2151 -0.9948 -0.4545
   22MOL0     C 2799   6.967   4.189   4.723 -0.0736 -0.3923 -0.3786
   22MOL0     C 2800   6.921   4.056   4.688 -0.1435  0.3045 -1.1723
   22MOL0     C 2801   6.864   4.031   4.556  0.0035 -0.8992 -0.1960
   22MOL0     O 2802   6.782   3.915   4.552 -0.2215 -0.3043  0.6701
   22MOL0     C 2803   6.724   3.886   4.437  0.8177 -0.3776 -0.3780
   22MOL0     C 2804   6.599   3.934   4.402 -0.0512  0.7102  0.2798
   22MOL0     C 2805   6.534   3.887   4.288  0.1489 -1.5056 -0.0240
   22MOL0     C 2806   6.613   3.809   4.194 -0.7134 -0.1552  0.4127
   22MOL0     O 2807   6.589   3.775   4.067 -0.5025 -0.0181  1.0690
   22MOL0     C 2808   6.533   3.877   3.982 -0.4806  0.3924 -0.3339
   22MOL0     C 2809   6.384   3.847   3.960  0.6465 -0.2606  0.0799
   22MOL0     C 2810   6.313   3.964   3.877 -0.1066  0.1963 -1.0812
   22MOL0     C 2811   6.173   3.942   3.830  0.7346 -0.9928  0.7325
   22MOL0     C 2812   6.100   4.075   3.779  0.2578  1.0508  0.9367
   22MOL0     C 2813   5.951   4.054   3.752  0.4798 -0.0531  0.6325
   22MOL0     C 2814   5.896   4.184   3.676  0.3903  0.3706  0.4964
   22MOL0     C 2815   5.747   4.196   3.689 -0.3533  0.0608 -0.5834
   22MOL0    Cl 2816   5.670   4.324   3.580 -0.4862  0.1829  0.1676
   22MOL0     C 2817   6.747   3.773   4.225  1.0688 -0.2336  0.1919
   22MOL0     C 2818   6.798   3.801   4.350 -0.0531 -0.0674  0.2774
   22MOL0     O 2819   6.888   4.109   4.461  0.2557  0.2582  0.5962
   22MOL0     C 2820   6.951   3.947   4.779 -0.5688  0.1245 -0.9811
   22MOL0     C 2821   7.016   3.982   4.903 -0.0870 -0.0878  0.4333
   22MOL0     N 2822   6.490   4.223   5.178  0.3132  1.2327  0.5237
   22MOL0     N 2823   6.396   4.175   5.105  0.0064  0.2447 -0.0319
   22MOL0     C 2824   5.618   3.854   4.386 -0.3845  0.5969  1.0766
   22MOL0     C 2825   5.487   3.833   4.352  0.7247 -0.9252 -0.7597
   22MOL0     C 2826   5.075   3.779   4.263  0.7277  0.9005 -0.5815
   22MOL0     C 2827   5.052   3.823   4.136  0.9167  0.3807  0.9142
   22MOL0     C 2828   4.949   3.780   4.062  1.1364  0.1793 -0.2281
   22MOL0     C 2829   4.852   3.686   4.109 -1.0615 -0.4496  0.1340
   22MOL0     O 2830   4.757   3.646   4.024 -0.0596 -0.0061  0.4965
   22MOL0     C 2831   4.744   3.502   4.011 -1.1760  0.0451  0.0299
   22MOL0     C 2832   4.601   3.466   4.048 -0.2348  0.1696  0.1498
   22MOL0     C 2833   4.588   3.322   4.041  0.4211  0.0737  0.3712
   22MOL0     C 2834   4.451   3.260   4.078  0.0325 -0.0845  0.3661
   22MOL0     C 2835   4.416   3.286   4.217  0.2778 -0.0093 -0.1462
   22MOL0     C 2836   4.383   3.316   4.327  0.5710  0.5485  0.0969
   22MOL0     C 2837   4.869   3.639   4.243  0.4774  0.3718 -0.9672
   22MOL0     C 2838   4.987   3.689   4.318  0.9068  0.7039 -0.9774
   22MOL0     H 2839   5.376   4.151   4.408 -0.2517 -0.3193 -0.3156
   22MOL0     H 2840   5.594   4.167   4.509  2.5449 -0.5849 -1.0954
   22MOL0     H 2841   5.781   4.119   4.635  0.0873 -1.2659  0.8951
   22MOL0     H 2842   5.864   4.174   4.480  4.8807  1.0115  2.5984
   22MOL0     H 2843   6.035   3.971   4.547 -0.0878 -2.5073  2.0128
   22MOL0     H 2844   5.961   3.991   4.700  2.0826  1.7380  0.8641
   22MOL0     H 2845   6.039   4.214   4.725  0.8323 -0.9809  0.9713
   22MOL0     H 2846   6.068   4.233   4.554  0.2463 -0.1562  0.0509
   22MOL0     H 2847   6.209   4.019   4.731  1.1056  0.2368  1.6227
   22MOL0     H 2848   6.236   4.053   4.565  1.3891  0.7695 -0.0642
   22MOL0     H 2849   6.285   4.251   4.809  0.1276  0.3712  0.2280
   22MOL0     H 2850   6.323   4.303   4.656 -0.0047  0.5533 -0.1677
   22MOL0     H 2851   6.511   4.221   4.792 -1.0831  1.7389 -0.1885
   22MOL0     H 2852   6.514   4.130   4.642  2.5827 -2.6830  1.9023
   22MOL0     H 2853   6.425   3.937   4.737  1.6483  0.0689 -1.8626
   22MOL0     H 2854   6.559   3.976   4.846 -1.6131 -2.0644  2.5851
   22MOL0     H 2855   6.354   3.890   4.954  0.0341  0.6297  3.0529
   22MOL0     H 2856   6.278   4.052   4.932 -0.7825 -0.7936 -0.9878
   22MOL0     H 2857   6.633   3.945   5.112  0.2576 -0.8483 -1.2974
   22MOL0     H 2858   6.695   4.075   5.366  1.2603  1.0706  1.8556
   22MOL0     H 2859   6.669   4.251   5.333 -0.1534  0.8233 -1.7974
   22MOL0     H 2860   6.924   4.195   5.322  2.1758 -1.2768 -1.9625
   22MOL0     H 2861   6.863   4.240   5.165  4.1223  2.6656  2.6418
   22MOL0     H 2862   6.874   3.956   5.240 -2.1506  0.5834 -0.1661
   22MOL0     H 2863   6.861   4.027   5.080  2.5378  0.7457 -1.5529
   22MOL0     H 2864   7.103   3.959   5.156  0.1925  0.4749 -1.7017
   22MOL0     H 2865   7.112   4.100   5.255  2.0061 -0.9353 -0.0108
   22MOL0     H 2866   7.053   4.320   4.879 -0.9985 -0.8108  0.0033
   22MOL0     H 2867   6.961   4.263   4.643 -1.0419  0.5040  0.4795
   22MOL0     H 2868   6.539   4.002   4.463 -1.6214 -1.2458  1.0349
   22MOL0     H 2869   6.432   3.909   4.257 -0.1211 -2.3370  0.2427
   22MOL0     H 2870   6.588   3.876   3.888  0.6087  0.3973  0.2883
   22MOL0     H 2871   6.546   3.974   4.030  2.5553 -0.1042  0.0258
   22MOL0     H 2872   6.326   3.835   4.052 -1.4250 -0.8006 -1.2292
   22MOL0     H 2873   6.374   3.743   3.929 -1.2066 -1.0392  2.8577
   22MOL0     H 2874   6.376   3.988   3.791  1.8655  1.1623  0.5434
   22MOL0     H 2875   6.319   4.053   3.940  2.1291 -1.1566  0.7719
   22MOL0     H 2876   6.164   3.862   3.756  4.0600 -1.8663  1.1491
   22MOL0     H 2877   6.118   3.911   3.919 -0.8380  1.4145  0.7034
   22MOL0     H 2878   6.144   4.108   3.684  1.8403 -2.2152  0.3851
   22MOL0     H 2879   6.099   4.153   3.856  0.2798  1.2955  0.6924
   22MOL0     H 2880   5.886   4.051   3.841 -0.8594  5.1477  0.1685
   22MOL0     H 2881   5.932   3.961   3.698  1.8394 -2.4003  3.8675
   22MOL0     H 2882   5.938   4.271   3.727 -2.0157  0.4415  2.5285
   22MOL0     H 2883   5.919   4.188   3.569 -2.0737  0.5080 -0.0846
   22MOL0     H 2884   5.712   4.208   3.792 -1.2213  1.8260 -1.0431
   22MOL0     H 2885   5.716   4.095   3.662  0.2513 -0.2957 -0.0000
   22MOL0     H 2886   6.809   3.717   4.156  1.9878  0.0533  0.7590
   22MOL0     H 2887   6.899   3.782   4.385  0.9983  2.0582 -1.3346
   22MOL0     H 2888   6.923   3.848   4.744 -0.9853  0.2385 -0.9693
   22MOL0     H 2889   7.043   3.897   4.965 -0.9512  0.5999  1.8122
   22MOL0     H 2890   5.685   3.768   4.392 -3.1146 -1.5997  2.6238
   22MOL0     H 2891   5.447   3.742   4.310  0.9108 -0.6533 -1.5498
   22MOL0     H 2892   5.112   3.907   4.102 -0.1976  1.3051  1.1789
   22MOL0     H 2893   4.938   3.815   3.960  0.9422  1.3511  0.1850
   22MOL0     H 2894   4.818   3.442   4.064 -1.0846  0.9887  1.0061
   22MOL0     H 2895   4.754   3.465   3.909 -2.9486  1.2701 -0.6420
   22MOL0     H 2896   4.580   3.503   4.148  1.8290  1.1115  0.2855
   22MOL0     H 2897   4.537   3.515   3.975 -0.4280  0.3581  0.4465
   22MOL0     H 2898   4.672   3.271   4.090  0.1273  0.7446  1.6117
   22MOL0     H 2899   4.602   3.305   3.933  1.6980 -0.3328  0.5833
   22MOL0     H 2900   4.374   3.305   4.015 -3.3773 -1.2358  3.3918
   22MOL0     H 2901   4.438   3.153   4.062 -2.6632 -0.1322  2.2253
   22MOL0     H 2902   4.340   3.350   4.419 -0.0314 -1.3029  0.5398
   22MOL0     H 2903   4.792   3.578   4.290  1.3655  0.4887  0.7111
   22MOL0     H 2904   5.001   3.674   4.425  0.6218  2.5198 -0.6484
   23MOL0     O 2905   7.375   6.197   6.597 -0.4437 -0.1719 -0.0724
   23MOL0     C 2906   7.364   6.083   6.558 -0.1234  0.4489 -0.8943
   23MOL0     O 2907   7.463   5.994   6.531  0.4305 -0.4473 -0.1093
   23MOL0     C 2908   7.572   6.003   6.615  1.0571 -0.1834  2.0971
   23MOL0     C 2909   7.686   6.061   6.566 -0.7586 -0.2612 -0.2358
   23MOL0     C 2910   7.808   6.071   6.641  0.3392  0.6086  0.4162
   23MOL0     C 2911   7.805   6.027   6.776  0.1295  0.6711 -0.4542
   23MOL0     O 2912   7.905   6.044   6.872 -0.1074  0.0127 -0.4293
   23MOL0     C 2913   8.031   6.089   6.822  0.1621 -0.2597  0.4171
   23MOL0     C 2914   8.099   5.997   6.725 -0.6292 -0.6008  0.7463
   23MOL0     C 2915   8.251   6.025   6.710 -0.6058  0.5754 -0.2989
   23MOL0     C 2916   8.272   6.158   6.636  1.0731  1.0685  1.4997
   23MOL0     C 2917   8.414   6.197   6.632 -0.5375  0.6970  0.7756
   23MOL0     C 2918   8.441   6.319   6.539 -0.8050  0.0161 -0.5053
   23MOL0     C 2919   8.598   6.340   6.525 -0.1021  0.0981  0.5620
   23MOL0     C 2920   8.679   6.393   6.648 -0.9602  0.3871  0.2604
   23MOL0     N 2921   8.827   6.403   6.622  0.4393  0.7034 -0.2007
   23MOL0     C 2922   8.925   6.375   6.706 -0.1010  0.1574  0.4187
   23MOL0     C 2923   9.031   6.394   6.629 -0.2327  0.1835  0.4568
   23MOL0     C 2924   9.174   6.363   6.677 -0.0421  0.3538  0.6089
   23MOL0     C 2925   9.207   6.207   6.687 -0.6565  0.2549 -0.3230
   23MOL0     C 2926   9.364   6.187   6.713  1.0251 -0.0454  0.0160
   23MOL0     C 2927   9.456   6.247   6.618 -0.0234 -0.2408 -0.0221
   23MOL0     O 2928   9.461   6.383   6.653  0.5311 -0.3819  0.3300
   23MOL0     C 2929   9.582   6.446   6.653 -0.6735  0.4399  0.7679
   23MOL0     C 2930   9.683   6.421   6.563 -0.5531 -0.2832  0.0116
   23MOL0     C 2931   9.813   6.480   6.583 -0.5660  0.4674  0.2090
   23MOL0     C 2932   9.838   6.562   6.691 -0.8445 -0.1522  0.2913
   23MOL0     C 2933   9.974   6.608   6.724  0.3227 -0.1701  0.4098
   23MOL0     O 2934   9.993   6.607   6.860  0.4236  0.2069 -0.2898
   23MOL0     C 2935  10.097   6.687   6.900 -0.1898 -0.3925  0.3529
   23MOL0     C 2936  10.090   6.821   6.885  0.4412 -0.7515 -0.1824
   23MOL0     C 2937  10.196   6.910   6.922 -0.4860  0.9072  0.6729
   23MOL0     C 2938  10.312   6.856   6.971  0.0873 -0.5138 -0.2334
   23MOL0     O 2939  10.404   6.944   6.998 -0.1088 -0.2901 -1.1821
   23MOL0     C 2940  10.533   6.902   6.973 -0.6331 -1.0782 -0.3487
   23MOL0     C 2941  10.631   7.009   7.004  0.6565 -0.8327  0.4193
   23MOL0     C 2942  10.759   6.993   6.914  0.2860 -0.0720  0.2884
   23MOL0     C 2943  10.887   7.064   6.978 -1.1508  0.0532 -0.4973
   23MOL0     C 2944  11.022   7.037   6.905 -0.1012  0.4430 -0.3209
   23MOL0     C 2945  11.133   7.130   6.948 -0.6875  0.0889 -0.7755
   23MOL0     C 2946  11.151   7.144   7.098  0.2873 -0.0397  0.3616
   23MOL0     C 2947  11.267   7.248   7.132  1.0612 -0.7487 -0.9683
   23MOL0    Cl 2948  11.424   7.176   7.189  0.4300  0.2292  0.3965
   23MOL0     C 2949  10.326   6.713   6.978  0.0724 -0.4685  1.1223
   23MOL0     C 2950  10.219   6.632   6.947  0.8004 -0.1149  0.2962
   23MOL0     O 2951  10.059   6.630   6.633  0.2774  0.9951 -0.0923
   23MOL0     C 2952   9.724   6.612   6.767 -0.2103  0.4034  0.7923
   23MOL0     C 2953   9.596   6.549   6.745 -0.2291 -0.0960 -0.2710
   23MOL0     N 2954   8.999   6.446   6.508  0.4725 -0.6698  0.7116
   23MOL0     N 2955   8.866   6.453   6.501 -0.3263 -0.2330  0.1599
   23MOL0     C 2956   7.697   5.965   6.824 -0.3280  0.0756 -0.5655
   23MOL0     C 2957   7.581   5.938   6.738  0.1934 -0.3315  0.4982
   23MOL0     C 2958   7.219   6.040   6.544 -0.0796  0.7374 -0.2970
   23MOL0     C 2959   7.105   6.119   6.582  0.4100  0.8250 -0.2402
   23MOL0     C 2960   6.978   6.068   6.554 -0.3000  0.2592 -0.6271
   23MOL0     C 2961   6.958   5.933   6.515  0.1119 -1.2333 -0.9182
   23MOL0     O 2962   6.822   5.898   6.498 -0.2441 -0.0624 -0.2434
   23MOL0     C 2963   6.803   5.775   6.424 -0.1700 -0.9780 -0.6068
   23MOL0     C 2964   6.796   5.644   6.501 -0.1320 -0.5691 -0.3519
   23MOL0     C 2965   6.683   5.649   6.597  0.1469  1.2351 -0.3445
   23MOL0     C 2966   6.668   5.536   6.702  0.1223 -0.1060 -0.1591
   23MOL0     C 2967   6.791   5.484   6.771  0.2215 -0.0130  0.1134
   23MOL0     C 2968   6.880   5.427   6.826 -0.1094 -0.3180 -0.4439
   23MOL0     C 2969   7.066   5.851   6.502 -0.7716  0.1636 -0.0747
   23MOL0     C 2970   7.191   5.905   6.515 -0.6354 -0.0215  0.3728
   23MOL0     H 2971   7.680   6.102   6.466 -4.9475 -2.6600 -1.1862
   23MOL0     H 2972   7.891   6.116   6.588  3.3503 -2.0262  2.4386
   23MOL0     H 2973   8.102   6.114   6.901 -0.2572  0.2907  0.6263
   23MOL0     H 2974   8.024   6.187   6.774 -0.6458  0.1443  1.3166
   23MOL0     H 2975   8.050   6.016   6.629  0.6135  1.1707  0.4104
   23MOL0     H 2976   8.085   5.894   6.760 -1.0541 -0.0871  2.1755
   23MOL0     H 2977   8.290   5.949   6.642 -0.5049  0.2583  0.1069
   23MOL0     H 2978   8.299   6.016   6.808 -1.1276  1.7210  0.0783
   23MOL0     H 2979   8.238   6.145   6.533 -0.1295 -0.0304  2.0187
   23MOL0     H 2980   8.214   6.242   6.674 -2.4659  0.6455 -2.3069
   23MOL0     H 2981   8.478   6.119   6.590 -0.0033  0.2329  2.3628
   23MOL0     H 2982   8.457   6.215   6.731  1.7272  0.8270 -0.1927
   23MOL0     H 2983   8.387   6.409   6.570 -0.8637  0.1335 -0.9310
   23MOL0     H 2984   8.398   6.307   6.438 -0.5060 -2.0556 -0.4212
   23MOL0     H 2985   8.641   6.247   6.485 -3.1233 -0.4844 -1.6161
   23MOL0     H 2986   8.628   6.418   6.455  0.5468  0.0182  0.7434
   23MOL0     H 2987   8.678   6.323   6.732 -0.6556  2.7292  2.3189
   23MOL0     H 2988   8.650   6.494   6.678  1.4683  1.1349  0.3563
   23MOL0     H 2989   8.927   6.341   6.809  1.2357  1.8289  0.9913
   23MOL0     H 2990   9.192   6.419   6.769 -4.7760  1.1574  1.3447
   23MOL0     H 2991   9.223   6.410   6.591 -1.0674 -0.2667 -0.3528
   23MOL0     H 2992   9.175   6.157   6.596  0.0843  2.4500 -1.8740
   23MOL0     H 2993   9.148   6.162   6.768  0.5661  0.1205  0.5252
   23MOL0     H 2994   9.395   6.206   6.816 -1.0945  0.3775  0.6391
   23MOL0     H 2995   9.382   6.080   6.698  0.2557 -0.4783  1.7878
   23MOL0     H 2996   9.427   6.242   6.513 -1.0638  2.3749  0.0705
   23MOL0     H 2997   9.554   6.199   6.626  0.2923  0.7157  3.3061
   23MOL0     H 2998   9.663   6.354   6.480 -0.1966  0.2711 -0.5310
   23MOL0     H 2999   9.897   6.469   6.515  1.1421  1.3833  2.0701
   23MOL0     H 3000   9.998   6.866   6.849 -0.4732 -0.3643  2.4280
   23MOL0     H 3001  10.181   7.016   6.903 -0.6679  1.0454  1.5347
   23MOL0     H 3002  10.542   6.868   6.869  0.6380  3.0450 -1.7917
   23MOL0     H 3003  10.568   6.812   7.024  0.2505 -1.6266 -1.8405
   23MOL0     H 3004  10.666   7.010   7.107  1.3820  5.0051  0.4782
   23MOL0     H 3005  10.593   7.112   7.009  0.4983 -0.9395  3.5243
   23MOL0     H 3006  10.730   7.049   6.825 -1.1344 -0.6924  0.3224
   23MOL0     H 3007  10.782   6.892   6.879 -0.5720 -0.1006 -0.2238
   23MOL0     H 3008  10.863   7.170   6.969  2.5253  1.7675  4.8075
   23MOL0     H 3009  10.906   7.034   7.081  1.3372 -1.5067 -1.2883
   23MOL0     H 3010  11.001   7.043   6.797  1.6605  0.4875 -0.6810
   23MOL0     H 3011  11.048   6.932   6.923 -0.9576  0.6438  2.3940
   23MOL0     H 3012  11.117   7.227   6.900 -1.8868 -0.3391 -1.2721
   23MOL0     H 3013  11.227   7.086   6.913 -0.1210 -2.1936  2.9562
   23MOL0     H 3014  11.060   7.186   7.141 -0.0033  0.6940 -0.9178
   23MOL0     H 3015  11.164   7.044   7.139 -2.6047 -1.7905 -2.4759
   23MOL0     H 3016  11.231   7.306   7.217 -3.8083 -3.2130 -0.9930
   23MOL0     H 3017  11.275   7.321   7.051 -1.7293  1.5116  0.6049
   23MOL0     H 3018  10.416   6.663   7.013  0.5130 -0.6407 -0.1900
   23MOL0     H 3019  10.232   6.525   6.963  0.0126 -0.4030 -0.8327
   23MOL0     H 3020   9.728   6.689   6.842  1.0426  1.4180 -0.2591
   23MOL0     H 3021   9.516   6.589   6.807 -1.0289 -0.9008 -0.7560
   23MOL0     H 3022   7.695   5.934   6.928  0.3128 -2.2737 -1.1715
   23MOL0     H 3023   7.486   5.890   6.761 -0.9982  2.6152  2.2275
   23MOL0     H 3024   7.114   6.215   6.633  1.5805  1.3126 -1.2728
   23MOL0     H 3025   6.899   6.142   6.562  1.5257  2.0957  2.5982
   23MOL0     H 3026   6.868   5.763   6.338  0.2376  0.3997 -0.5113
   23MOL0     H 3027   6.705   5.778   6.375 -1.0626 -2.9413  0.8990
   23MOL0     H 3028   6.782   5.556   6.437  0.5041 -0.3147 -0.8493
   23MOL0     H 3029   6.896   5.630   6.542  0.2744 -2.3550 -1.8181
   23MOL0     H 3030   6.588   5.651   6.543 -1.1788 -1.0978  1.6913
   23MOL0     H 3031   6.685   5.739   6.658 -1.2432  0.0941  1.5049
   23MOL0     H 3032   6.591   5.573   6.770 -0.5654  1.9533 -1.9549
   23MOL0     H 3033   6.613   5.454   6.655  3.2897 -1.5434 -1.6439
   23MOL0     H 3034   6.965   5.374   6.862 -0.9518 -0.8003  0.9122
   23MOL0     H 3035   7.056   5.745   6.481  1.0468  0.3212 -2.1766
   23MOL0     H 3036   7.276   5.838   6.500  1.4032  2.5437 -0.2494
   24MOL0     O 3037   9.745   3.794   1.640  0.0436 -0.3868  0.3280
   24MOL0     C 3038   9.700   3.752   1.535 -0.5117  0.5532 -0.9293
   24MOL0     O 3039   9.582   3.687   1.515 -0.1740 -0.2258  0.1377
   24MOL0     C 3040   9.504   3.650   1.620 -0.1305  0.6476 -0.5387
   24MOL0     C 3041   9.423   3.744   1.696  0.1661  0.6701 -0.2749
   24MOL0     C 3042   9.348   3.695   1.811 -0.3928 -0.2222  0.8696
   24MOL0     C 3043   9.363   3.562   1.851  0.4740  1.1258 -1.1415
   24MOL0     O 3044   9.273   3.496   1.951 -0.9998 -0.4290  0.0312
   24MOL0     C 3045   9.150   3.556   1.993 -0.2820  0.0331  0.4906
   24MOL0     C 3046   9.061   3.433   2.030  0.5388  0.3658  0.9159
   24MOL0     C 3047   9.048   3.338   1.910  0.5478  0.2639 -1.2498
   24MOL0     C 3048   8.906   3.273   1.909 -0.7286  0.8025 -0.0044
   24MOL0     C 3049   8.805   3.373   1.852  0.8698 -0.5205  0.2378
   24MOL0     C 3050   8.672   3.311   1.819  1.3105  0.0931  0.2740
   24MOL0     C 3051   8.665   3.200   1.727  1.0788  0.0337  0.3058
   24MOL0     C 3052   8.514   3.156   1.724 -1.2533  1.2748  0.2526
   24MOL0     N 3053   8.506   3.049   1.624 -0.1676  0.0593 -0.2518
   24MOL0     C 3054   8.516   3.074   1.491 -0.2053  0.3154 -1.3585
   24MOL0     C 3055   8.529   2.957   1.430  0.4523  0.4638  0.0085
   24MOL0     C 3056   8.549   2.946   1.283  0.0213 -0.5354 -0.2039
   24MOL0     C 3057   8.424   2.971   1.201  0.7318 -0.7436 -1.4924
   24MOL0     C 3058   8.346   2.837   1.192 -1.0516 -0.0311  0.5822
   24MOL0     C 3059   8.204   2.854   1.139 -0.0430  0.1210  1.0972
   24MOL0     O 3060   8.123   2.739   1.113  0.5683  0.2614  0.4487
   24MOL0     C 3061   7.987   2.766   1.094  0.1316  0.2066 -0.1436
   24MOL0     C 3062   7.938   2.892   1.062  0.2723  0.1470  0.1406
   24MOL0     C 3063   7.803   2.914   1.054  0.9925  0.2327 -0.2226
   24MOL0     C 3064   7.702   2.808   1.067  0.1109  1.1043 -0.2780
   24MOL0     C 3065   7.554   2.833   1.066 -0.1310  0.1825 -0.0433
   24MOL0     O 3066   7.518   2.956   1.026  0.2398  0.1182  0.4455
   24MOL0     C 3067   7.397   3.012   1.043  1.3438  0.3596 -0.1601
   24MOL0     C 3068   7.363   3.095   0.938 -0.5032 -0.6741 -1.3958
   24MOL0     C 3069   7.231   3.141   0.926  0.7552 -0.3249 -0.3785
   24MOL0     C 3070   7.133   3.095   1.021 -0.4117  0.0588  0.4283
   24MOL0     O 3071   6.996   3.111   0.999  0.0989 -0.1776  0.5540
   24MOL0     C 3072   6.928   3.011   0.925  0.4276  0.6718 -0.2663
   24MOL0     C 3073   6.785   3.017   0.970  0.2475  0.5052 -0.3244
   24MOL0     C 3074   6.703   2.906   0.907  0.2652 -0.2888  0.4614
   24MOL0     C 3075   6.557   2.953   0.926 -0.3629 -0.1148 -0.5456
   24MOL0     C 3076   6.456   2.855   0.881 -0.6253  0.3919  0.3561
   24MOL0     C 3077   6.442   2.871   0.725 -0.8048 -0.3344  0.7671
   24MOL0     C 3078   6.378   2.745   0.665  0.1929 -0.0200  0.3864
   24MOL0     C 3079   6.462   2.641   0.597  0.1344 -0.8655  0.2739
   24MOL0    Cl 3080   6.603   2.584   0.715  0.1849 -0.0633  0.1137
   24MOL0     C 3081   7.171   3.018   1.128  0.3337  0.2601 -0.0365
   24MOL0     C 3082   7.305   2.972   1.142 -1.3276 -1.2669  0.4069
   24MOL0     O 3083   7.481   2.741   1.105  0.0498 -0.3374 -0.2154
   24MOL0     C 3084   7.749   2.675   1.074 -0.4493  0.9199 -0.1492
   24MOL0     C 3085   7.890   2.656   1.092 -0.1855  0.4513 -0.5293
   24MOL0     N 3086   8.515   2.860   1.531  0.4007 -0.6370  0.0191
   24MOL0     N 3087   8.509   2.917   1.645 -0.0285  0.6506  0.4813
   24MOL0     C 3088   9.441   3.473   1.782  0.1529  0.3042 -0.4965
   24MOL0     C 3089   9.511   3.517   1.670 -0.2575  0.4097  0.7950
   24MOL0     C 3090   9.795   3.779   1.413 -0.1518 -0.0318  0.3716
   24MOL0     C 3091   9.904   3.871   1.421  0.2570  0.3041  0.9703
   24MOL0     C 3092   9.990   3.892   1.319 -0.1453  0.4750 -0.0976
   24MOL0     C 3093   9.958   3.833   1.195  0.2284 -0.8503  0.3822
   24MOL0     O 3094  10.047   3.844   1.091 -0.2032 -0.0940 -0.1418
   24MOL0     C 3095   9.990   3.873   0.964 -0.0990  0.2452  0.7328
   24MOL0     C 3096  10.094   3.942   0.875 -0.4034  0.1249 -0.2393
   24MOL0     C 3097  10.070   4.095   0.851 -0.7487  0.5554 -1.4270
   24MOL0     C 3098   9.952   4.129   0.769  0.2592 -0.8861 -0.3836
   24MOL0     C 3099   9.948   4.069   0.638 -0.2373 -0.3315 -0.7757
   24MOL0     C 3100   9.946   4.028   0.524 -1.0945  0.1241  1.0765
   24MOL0     C 3101   9.849   3.748   1.184 -1.0539  1.0362  0.3002
   24MOL0     C 3102   9.765   3.724   1.285  0.4192 -0.1594 -1.1272
   24MOL0     H 3103   9.414   3.849   1.671 -1.5025  0.9158  1.1431
   24MOL0     H 3104   9.276   3.753   1.868  1.6198  1.6102  1.6830
   24MOL0     H 3105   9.093   3.608   1.914 -1.2405 -1.9779 -0.2105
   24MOL0     H 3106   9.146   3.623   2.079  0.3426 -0.1629  0.6724
   24MOL0     H 3107   8.966   3.471   2.069  1.0073  1.2978  1.1701
   24MOL0     H 3108   9.127   3.375   2.095 -0.9506 -0.3737  1.8324
   24MOL0     H 3109   9.129   3.265   1.922 -0.9828 -1.2268  0.4285
   24MOL0     H 3110   9.079   3.382   1.814 -1.5668  0.8149 -1.7292
   24MOL0     H 3111   8.921   3.185   1.845 -1.1400  1.2178 -0.6926
   24MOL0     H 3112   8.873   3.255   2.011 -2.2121  1.3142 -0.3656
   24MOL0     H 3113   8.859   3.419   1.768 -0.4642 -0.9101 -0.8523
   24MOL0     H 3114   8.789   3.440   1.938 -4.0453 -0.0833 -0.7350
   24MOL0     H 3115   8.607   3.389   1.778 -1.3264 -2.6757 -1.1952
   24MOL0     H 3116   8.633   3.279   1.917 -0.8354 -0.0668 -0.5774
   24MOL0     H 3117   8.682   3.242   1.627 -2.5715  2.4873  0.5394
   24MOL0     H 3118   8.728   3.118   1.762  0.9626 -0.8715 -1.4953
   24MOL0     H 3119   8.437   3.230   1.699 -2.7609 -1.0969 -2.7865
   24MOL0     H 3120   8.483   3.128   1.825 -2.0981 -0.3205 -0.4126
   24MOL0     H 3121   8.528   3.172   1.445 -1.3774 -0.3287 -3.1233
   24MOL0     H 3122   8.582   2.843   1.264 -2.1001 -1.2305 -0.3401
   24MOL0     H 3123   8.624   3.019   1.250 -0.9599  0.8355  0.5336
   24MOL0     H 3124   8.431   3.003   1.096  0.9714  2.0177 -0.7076
   24MOL0     H 3125   8.360   3.040   1.257  0.6136 -1.5602 -0.6030
   24MOL0     H 3126   8.397   2.777   1.116  0.9181  0.1922  1.6526
   24MOL0     H 3127   8.345   2.778   1.285 -0.2359 -2.0783 -0.6216
   24MOL0     H 3128   8.213   2.901   1.041  0.3148 -1.4941  0.3103
   24MOL0     H 3129   8.150   2.924   1.202  1.1543  2.5948 -0.4948
   24MOL0     H 3130   8.003   2.969   1.023  1.8358 -2.8298 -3.8346
   24MOL0     H 3131   7.758   3.012   1.043  0.1230 -0.0756  0.4651
   24MOL0     H 3132   7.441   3.118   0.866 -1.1047 -0.6443 -2.0451
   24MOL0     H 3133   7.188   3.209   0.854 -0.3406 -0.4747  0.1095
   24MOL0     H 3134   6.970   2.912   0.948 -0.3579  0.2930 -0.4264
   24MOL0     H 3135   6.923   3.035   0.819 -1.1495  1.1404 -0.1018
   24MOL0     H 3136   6.745   3.114   0.939 -2.1060  0.5184  2.3708
   24MOL0     H 3137   6.777   3.007   1.079 -1.6810  0.9598 -0.4064
   24MOL0     H 3138   6.717   2.805   0.946 -4.0046 -1.3421 -0.2154
   24MOL0     H 3139   6.737   2.906   0.803 -1.7460  0.0395 -0.2377
   24MOL0     H 3140   6.540   2.985   1.029  1.0211  0.9363 -0.6131
   24MOL0     H 3141   6.534   3.044   0.871  1.4908  1.5180  1.2031
   24MOL0     H 3142   6.360   2.881   0.927  0.9969  2.9002  2.5954
   24MOL0     H 3143   6.487   2.753   0.906 -0.7510  0.4151  0.6029
   24MOL0     H 3144   6.538   2.879   0.674 -2.3130  0.1167 -2.2343
   24MOL0     H 3145   6.375   2.952   0.695  0.0064  0.9785  2.3758
   24MOL0     H 3146   6.323   2.694   0.744 -1.7713  2.3406  0.6628
   24MOL0     H 3147   6.315   2.790   0.588  0.5833  1.0915  0.6946
   24MOL0     H 3148   6.501   2.687   0.505  1.5626  0.5249  1.5284
   24MOL0     H 3149   6.396   2.556   0.575 -1.4996  0.7948 -1.6156
   24MOL0     H 3150   7.098   2.978   1.197  0.4787 -3.7978 -1.9576
   24MOL0     H 3151   7.326   2.896   1.217  2.1372 -0.3374  0.5227
   24MOL0     H 3152   7.679   2.594   1.060  1.3135 -0.7358  0.2242
   24MOL0     H 3153   7.922   2.553   1.106  0.5539  0.4107 -2.2868
   24MOL0     H 3154   9.445   3.373   1.825 -0.0629  0.7176  0.4971
   24MOL0     H 3155   9.577   3.459   1.607 -1.8103  1.7057 -2.2294
   24MOL0     H 3156   9.937   3.923   1.511  1.4820  0.1678  0.6168
   24MOL0     H 3157  10.084   3.944   1.314  1.2582 -1.8839  0.3040
   24MOL0     H 3158   9.907   3.944   0.974  0.9699  1.6145  0.2327
   24MOL0     H 3159   9.950   3.780   0.923 -1.2623  0.2160  1.8832
   24MOL0     H 3160  10.193   3.930   0.919 -0.5002 -0.0562 -0.0735
   24MOL0     H 3161  10.095   3.889   0.779  1.1106 -1.9807  0.8720
   24MOL0     H 3162  10.159   4.138   0.805  0.8798  0.3420  1.3174
   24MOL0     H 3163  10.053   4.154   0.942 -1.1978 -0.4049 -0.8715
   24MOL0     H 3164   9.860   4.086   0.810  1.0248 -2.2372 -0.0072
   24MOL0     H 3165   9.954   4.235   0.742  1.1075 -1.1410 -1.4056
   24MOL0     H 3166   9.937   4.010   0.418 -2.5958  5.1422  0.0884
   24MOL0     H 3167   9.831   3.689   1.095  0.7759 -0.2822  0.7169
   24MOL0     H 3168   9.676   3.666   1.266  0.4239 -0.8592  0.7288
   25MOL0     O 3169   4.690   7.047   8.797 -0.4935  0.2121  0.4870
   25MOL0     C 3170   4.714   7.090   8.911  0.0345  0.5385  0.8992
   25MOL0     O 3171   4.621   7.103   9.006  0.1531 -0.2829  0.2622
   25MOL0     C 3172   4.485   7.081   8.972  0.6158  0.4919  0.4697
   25MOL0     C 3173   4.418   6.960   8.992 -0.6769 -0.1414 -0.8958
   25MOL0     C 3174   4.279   6.950   8.973 -0.2663 -0.7316  0.1846
   25MOL0     C 3175   4.218   7.056   8.905  0.6535  0.4292  0.3016
   25MOL0     O 3176   4.089   7.028   8.864  0.1112  0.0995  0.1473
   25MOL0     C 3177   4.034   7.093   8.746 -0.3835  0.4485 -0.2623
   25MOL0     C 3178   3.936   6.999   8.677  0.4522 -0.6965 -0.0464
   25MOL0     C 3179   3.866   7.061   8.553  0.5715 -0.8162  0.4539
   25MOL0     C 3180   3.757   7.170   8.578 -0.5026 -0.6931  0.5583
   25MOL0     C 3181   3.726   7.251   8.454 -1.5882 -1.0803  0.1674
   25MOL0     C 3182   3.654   7.386   8.478 -1.0630 -0.7695  0.0741
   25MOL0     C 3183   3.513   7.371   8.541  0.7422  0.5198  0.2021
   25MOL0     C 3184   3.483   7.483   8.640  0.9987 -0.6108 -0.3344
   25MOL0     N 3185   3.571   7.465   8.752 -0.2450  0.1364 -0.6854
   25MOL0     C 3186   3.564   7.363   8.842  0.4213  0.2630 -0.3435
   25MOL0     C 3187   3.663   7.382   8.943 -0.2895 -0.7699  0.5672
   25MOL0     C 3188   3.694   7.290   9.055 -0.7808  0.1067 -0.7117
   25MOL0     C 3189   3.787   7.180   9.009  0.2336  0.1113  0.7271
   25MOL0     C 3190   3.859   7.112   9.130  1.0052 -0.0649 -0.2865
   25MOL0     C 3191   3.782   7.004   9.197 -0.1241  0.4495 -0.4514
   25MOL0     O 3192   3.746   6.882   9.124  0.1156 -0.3612  0.5803
   25MOL0     C 3193   3.710   6.769   9.186 -0.2662  0.1189 -0.1681
   25MOL0     C 3194   3.644   6.758   9.307  0.6004 -0.2698  0.1654
   25MOL0     C 3195   3.604   6.632   9.365 -0.3870 -0.5761 -0.1344
   25MOL0     C 3196   3.658   6.515   9.308  0.4155 -0.1498  0.2338
   25MOL0     C 3197   3.637   6.375   9.367  0.2892  0.8887 -0.5691
   25MOL0     O 3198   3.700   6.268   9.308  0.5578 -0.3996  0.2626
   25MOL0     C 3199   3.669   6.142   9.361  0.5125  0.3238  0.1041
   25MOL0     C 3200   3.565   6.060   9.311  0.2556 -0.0125  0.4834
   25MOL0     C 3201   3.550   5.932   9.356 -0.7207  0.1824 -0.6456
   25MOL0     C 3202   3.630   5.878   9.464 -0.5115 -0.5311 -0.1207
   25MOL0     O 3203   3.601   5.763   9.538  0.7222  0.4093  0.3087
   25MOL0     C 3204   3.479   5.695   9.499  1.1339  0.0928 -0.2422
   25MOL0     C 3205   3.468   5.564   9.578  1.0608 -0.5714  0.3865
   25MOL0     C 3206   3.464   5.585   9.729  1.1563  0.8983 -0.7823
   25MOL0     C 3207   3.338   5.678   9.770 -0.7556 -0.1174 -0.3582
   25MOL0     C 3208   3.214   5.588   9.768  0.2148 -0.0030  0.0318
   25MOL0     C 3209   3.088   5.647   9.845  0.5909  0.4078 -0.2484
   25MOL0     C 3210   3.040   5.774   9.774 -0.6055 -0.8077  0.9593
   25MOL0     C 3211   2.916   5.846   9.824 -0.5880  0.1175  0.0642
   25MOL0    Cl 3212   2.769   5.744   9.800 -0.0611 -0.4930 -0.4531
   25MOL0     C 3213   3.746   5.951   9.501 -0.2302  0.2605  0.2595
   25MOL0     C 3214   3.759   6.081   9.444 -0.1547  0.2923 -0.5202
   25MOL0     O 3215   3.553   6.362   9.456 -0.5231 -0.6621  0.0127
   25MOL0     C 3216   3.734   6.531   9.190 -0.2856  0.0730  0.2527
   25MOL0     C 3217   3.747   6.652   9.123 -0.9995  0.4027  1.0755
   25MOL0     N 3218   3.741   7.480   8.889  0.5680 -0.4361 -0.5578
   25MOL0     N 3219   3.685   7.529   8.785 -0.0265  0.4918 -0.1656
   25MOL0     C 3220   4.283   7.172   8.869  0.0906 -0.0889  0.3494
   25MOL0     C 3221   4.410   7.186   8.904 -0.3151  0.9629 -0.6328
   25MOL0     C 3222   4.862   7.101   8.951  0.3757 -0.3578  0.9636
   25MOL0     C 3223   4.971   7.095   8.863  0.8135  0.3653 -0.9285
   25MOL0     C 3224   5.107   7.105   8.904  0.1997  0.2563  0.5260
   25MOL0     C 3225   5.137   7.102   9.038  0.6710 -0.2720 -0.9594
   25MOL0     O 3226   5.264   7.087   9.088 -1.0684 -0.0119 -0.4867
   25MOL0     C 3227   5.376   7.056   9.000  0.2861  0.8283 -0.2779
   25MOL0     C 3228   5.417   7.192   8.927 -0.6529  0.1363 -0.8665
   25MOL0     C 3229   5.476   7.168   8.793  0.6075 -0.0251 -0.8049
   25MOL0     C 3230   5.487   7.293   8.702 -0.3640 -0.6302  0.3982
   25MOL0     C 3231   5.348   7.347   8.675  0.5215  0.1368  0.5240
   25MOL0     C 3232   5.238   7.396   8.655  0.1982 -0.1051 -0.1933
   25MOL0     C 3233   5.028   7.096   9.129  0.3091 -0.2489  0.4043
   25MOL0     C 3234   4.902   7.107   9.085  0.8517  0.5821 -0.0442
   25MOL0     H 3235   4.466   6.873   9.035 -0.2246  0.8156  0.5967
   25MOL0     H 3236   4.235   6.857   9.009  2.2304 -1.1662  2.4102
   25MOL0     H 3237   4.120   7.118   8.683  1.0584  2.8953  2.4550
   25MOL0     H 3238   3.976   7.183   8.766  0.6412  0.6124  2.4909
   25MOL0     H 3239   3.859   6.962   8.745 -0.3318  0.6321 -0.1527
   25MOL0     H 3240   4.001   6.918   8.644  3.7260  1.6024  0.2399
   25MOL0     H 3241   3.810   6.980   8.506 -1.1457  1.6358 -2.0525
   25MOL0     H 3242   3.940   7.109   8.488 -0.1158 -0.6702 -0.2380
   25MOL0     H 3243   3.665   7.127   8.618 -1.8493  1.1164 -0.4976
   25MOL0     H 3244   3.786   7.254   8.643 -0.0072 -1.0028  0.7435
   25MOL0     H 3245   3.668   7.195   8.381 -0.3215 -1.7018 -0.4050
   25MOL0     H 3246   3.825   7.285   8.421 -0.3850 -1.1133  3.4328
   25MOL0     H 3247   3.655   7.453   8.392  1.6020 -2.4692 -1.3629
   25MOL0     H 3248   3.728   7.433   8.543  2.3846 -2.6473 -2.2257
   25MOL0     H 3249   3.437   7.353   8.465  1.5636 -2.3958 -0.0552
   25MOL0     H 3250   3.512   7.285   8.608 -2.4178  2.6750  3.2585
   25MOL0     H 3251   3.378   7.474   8.670  1.1586 -0.3777  0.3078
   25MOL0     H 3252   3.502   7.582   8.598 -0.9184  0.6826  1.6286
   25MOL0     H 3253   3.476   7.299   8.835  1.9352 -1.9025 -0.4641
   25MOL0     H 3254   3.606   7.243   9.099 -1.1178 -0.5273 -2.0083
   25MOL0     H 3255   3.743   7.338   9.141 -1.9305 -2.6837  1.6806
   25MOL0     H 3256   3.867   7.219   8.945  0.7985 -1.2673  0.5475
   25MOL0     H 3257   3.741   7.100   8.950  0.8813  1.5490 -1.8788
   25MOL0     H 3258   3.949   7.062   9.092  2.2923  2.8631 -1.4612
   25MOL0     H 3259   3.883   7.190   9.204 -1.5037  2.0140 -1.4909
   25MOL0     H 3260   3.693   7.048   9.244  0.7303  2.0512 -0.2475
   25MOL0     H 3261   3.834   6.983   9.290 -1.7024 -2.4396 -0.1098
   25MOL0     H 3262   3.598   6.853   9.336 -0.8641  0.3188 -3.5385
   25MOL0     H 3263   3.531   6.631   9.445 -0.6251 -0.9621 -0.3507
   25MOL0     H 3264   3.502   6.095   9.230  1.4730 -1.9066 -1.4131
   25MOL0     H 3265   3.472   5.871   9.312 -0.9678 -0.5372  0.7230
   25MOL0     H 3266   3.471   5.660   9.395 -3.3960 -3.5025  0.9853
   25MOL0     H 3267   3.386   5.753   9.507 -1.3660 -3.5302 -0.5211
   25MOL0     H 3268   3.551   5.498   9.551 -0.4989 -2.8931  0.9594
   25MOL0     H 3269   3.387   5.508   9.530  1.0682  0.9239 -1.5240
   25MOL0     H 3270   3.560   5.625   9.764  1.2805 -3.5271  5.5416
   25MOL0     H 3271   3.462   5.483   9.768  0.7737  1.1386 -0.1661
   25MOL0     H 3272   3.363   5.707   9.873 -1.2807 -1.0884  0.0570
   25MOL0     H 3273   3.332   5.774   9.720 -0.2768 -0.4822 -1.1452
   25MOL0     H 3274   3.245   5.494   9.815 -0.5554 -0.6508 -0.7216
   25MOL0     H 3275   3.179   5.575   9.665  2.3158  0.2631 -0.7659
   25MOL0     H 3276   3.111   5.661   9.951  0.6623 -1.5483  0.0451
   25MOL0     H 3277   3.014   5.566   9.843  1.5753 -0.5095 -1.8198
   25MOL0     H 3278   3.130   5.837   9.773  1.2918 -3.3182  2.2098
   25MOL0     H 3279   3.022   5.735   9.674  2.2412 -1.1675  0.5188
   25MOL0     H 3280   2.904   5.944   9.776  0.8293  2.8878  4.7657
   25MOL0     H 3281   2.926   5.870   9.930  2.1156 -2.4712  0.5334
   25MOL0     H 3282   3.831   5.912   9.557  1.0474  1.1342 -0.9949
   25MOL0     H 3283   3.849   6.136   9.471 -0.1667  1.2451 -2.3241
   25MOL0     H 3284   3.766   6.446   9.131 -3.0726  0.6618 -2.3502
   25MOL0     H 3285   3.806   6.645   9.032 -0.4958  0.9580  1.3596
   25MOL0     H 3286   4.231   7.253   8.818 -0.9339 -1.3959 -0.7853
   25MOL0     H 3287   4.447   7.286   8.888  0.9538  0.8767  1.4581
   25MOL0     H 3288   4.945   7.087   8.757  2.3850 -1.2975 -1.2341
   25MOL0     H 3289   5.184   7.120   8.829  0.2662  1.3327  0.7958
   25MOL0     H 3290   5.344   6.979   8.930 -1.5941 -0.7360  2.1553
   25MOL0     H 3291   5.464   7.022   9.055  0.3595  1.6526  0.1358
   25MOL0     H 3292   5.325   7.249   8.919 -0.3496  0.8269  0.3425
   25MOL0     H 3293   5.492   7.232   8.996 -0.5676  0.7707 -1.3179
   25MOL0     H 3294   5.422   7.094   8.735 -0.4376  0.5615 -0.6140
   25MOL0     H 3295   5.577   7.128   8.809  1.5244  1.5125 -2.4041
   25MOL0     H 3296   5.539   7.368   8.762  1.4495 -0.9937 -0.6697
   25MOL0     H 3297   5.549   7.283   8.612  1.0879 -1.6076  1.4642
   25MOL0     H 3298   5.137   7.428   8.647 -0.4589 -2.0658 -0.2880
   25MOL0     H 3299   5.069   7.085   9.229  1.1494  2.8468  0.5052
   25MOL0     H 3300   4.823   7.105   9.159 -0.4501  3.1599 -1.2381
   26MOL0     O 3301   6.362   5.481   0.940  0.5994  0.5535 -0.3959
   26MOL0     C 3302   6.286   5.387   0.959 -0.0232  0.3189 -0.3141
   26MOL0     O 3303   6.168   5.372   0.904  0.5101 -0.2861  0.0556
   26MOL0     C 3304   6.113   5.457   0.816  0.1690  0.2684 -1.3989
   26MOL0     C 3305   5.974   5.469   0.815 -0.6941 -0.1832  0.1475
   26MOL0     C 3306   5.912   5.539   0.715 -0.5550  0.6387 -0.0477
   26MOL0     C 3307   5.979   5.611   0.623 -0.1432 -0.8799  0.1980
   26MOL0     O 3308   5.890   5.686   0.550 -0.3041  1.0002  0.4333
   26MOL0     C 3309   5.937   5.755   0.432 -0.6435  0.2410 -0.9664
   26MOL0     C 3310   5.975   5.668   0.312  1.1477  0.5616 -0.6488
   26MOL0     C 3311   6.013   5.757   0.190  0.1111  0.5778 -0.0765
   26MOL0     C 3312   6.057   5.671   0.068  0.4697  0.5876  0.7605
   26MOL0     C 3313   6.134   5.751  -0.038 -0.5199  1.2802 -0.2444
   26MOL0     C 3314   6.176   5.664  -0.160  0.4850 -0.1927 -0.1314
   26MOL0     C 3315   6.034   5.627  -0.221  0.3384 -0.9737  0.6349
   26MOL0     C 3316   6.055   5.582  -0.371  0.2649 -0.8887  0.5899
   26MOL0     N 3317   6.095   5.691  -0.467  0.8775 -0.3797 -0.2402
   26MOL0     C 3318   6.050   5.818  -0.466  0.3941 -0.4794  0.6287
   26MOL0     C 3319   6.130   5.887  -0.549  0.3159  0.5165  1.1031
   26MOL0     C 3320   6.107   6.021  -0.604 -0.6865 -0.9779 -0.0133
   26MOL0     C 3321   5.991   6.021  -0.694 -0.4481 -0.2251 -0.2604
   26MOL0     C 3322   6.003   6.145  -0.788 -0.3354 -0.4869  0.0013
   26MOL0     C 3323   5.875   6.151  -0.865 -0.2741 -0.0492  0.0683
   26MOL0     O 3324   5.889   6.205  -0.991  0.4413 -0.4792  0.7295
   26MOL0     C 3325   5.765   6.212  -1.064  0.4797  0.1520  0.5023
   26MOL0     C 3326   5.642   6.148  -1.034 -0.2418 -0.1955 -0.0503
   26MOL0     C 3327   5.528   6.180  -1.101 -0.0995  0.6783  0.1977
   26MOL0     C 3328   5.526   6.254  -1.222  0.3959 -0.8072 -0.4168
   26MOL0     C 3329   5.404   6.281  -1.288  1.3352  0.7475 -1.2645
   26MOL0     O 3330   5.381   6.403  -1.341  0.0481 -0.3248  0.6465
   26MOL0     C 3331   5.252   6.447  -1.361 -0.3535 -0.3436  0.9620
   26MOL0     C 3332   5.189   6.428  -1.484  0.5610  0.8828 -0.6291
   26MOL0     C 3333   5.055   6.471  -1.498 -0.1908  0.6474 -0.4533
   26MOL0     C 3334   4.989   6.542  -1.400  0.2487  0.7253 -0.5932
   26MOL0     O 3335   4.852   6.571  -1.422 -0.0666  0.1657  0.2957
   26MOL0     C 3336   4.768   6.560  -1.308  0.6829 -0.8127 -0.0744
   26MOL0     C 3337   4.699   6.696  -1.272 -0.1430 -0.0324 -0.7696
   26MOL0     C 3338   4.622   6.691  -1.140  0.2790  0.3202 -0.3975
   26MOL0     C 3339   4.551   6.826  -1.127  0.0064  0.6480 -0.1535
   26MOL0     C 3340   4.447   6.822  -1.021 -0.1599  0.1275 -0.0990
   26MOL0     C 3341   4.383   6.969  -1.013  0.0943 -0.1072 -0.2907
   26MOL0     C 3342   4.263   6.966  -0.922  0.1542 -0.0590  0.4545
   26MOL0     C 3343   4.218   7.104  -0.894  0.8580 -1.1030 -0.1937
   26MOL0    Cl 3344   4.340   7.209  -0.837 -0.1954 -0.1727  0.1316
   26MOL0     C 3345   5.058   6.578  -1.287 -0.1725 -0.4607 -0.2877
   26MOL0     C 3346   5.188   6.521  -1.269  0.0551 -0.7992  0.1097
   26MOL0     O 3347   5.317   6.195  -1.276 -0.0962  0.5312  0.0903
   26MOL0     C 3348   5.645   6.320  -1.255  0.3247 -0.3144 -0.0113
   26MOL0     C 3349   5.764   6.293  -1.182 -0.3629  0.1745 -0.1246
   26MOL0     N 3350   6.215   5.792  -0.604  0.2625  0.4413 -0.0259
   26MOL0     N 3351   6.190   5.674  -0.558 -0.0493  0.2673  0.4941
   26MOL0     C 3352   6.116   5.605   0.623  0.2913 -0.6059  0.5954
   26MOL0     C 3353   6.182   5.533   0.718  0.3246 -0.0072  0.1538
   26MOL0     C 3354   6.336   5.271   1.044  0.7993 -0.7582  0.3516
   26MOL0     C 3355   6.466   5.274   1.088 -0.3704  0.8304  0.9180
   26MOL0     C 3356   6.509   5.177   1.175 -0.3984 -0.2135 -0.1775
   26MOL0     C 3357   6.418   5.080   1.223 -0.9783  0.0217 -0.2916
   26MOL0     O 3358   6.447   4.983   1.318 -0.3764  0.1710 -0.4889
   26MOL0     C 3359   6.583   4.946   1.326  0.2918  0.0536  0.0757
   26MOL0     C 3360   6.599   4.825   1.434  0.0909  0.1875 -0.1646
   26MOL0     C 3361   6.746   4.773   1.426  0.4100  0.5595  0.2423
   26MOL0     C 3362   6.753   4.664   1.529  0.1192 -0.3186 -0.6605
   26MOL0     C 3363   6.896   4.629   1.571  0.0218  0.1901 -0.0854
   26MOL0     C 3364   7.014   4.589   1.592 -0.0356 -0.2286  0.0912
   26MOL0     C 3365   6.291   5.078   1.178 -0.0039 -0.3520  0.1688
   26MOL0     C 3366   6.245   5.169   1.086 -0.3889 -0.3867 -0.3860
   26MOL0     H 3367   5.927   5.404   0.889 -0.4604 -0.2475  0.2403
   26MOL0     H 3368   5.806   5.518   0.713 -0.2594 -0.9870  0.1416
   26MOL0     H 3369   6.024   5.819   0.444  1.9485 -2.6376 -2.6309
   26MOL0     H 3370   5.851   5.816   0.404  0.2939  1.2054 -1.8437
   26MOL0     H 3371   5.892   5.603   0.284  0.1974  0.5397  1.9830
   26MOL0     H 3372   6.053   5.598   0.345 -1.1203 -1.8778 -0.1278
   26MOL0     H 3373   6.097   5.822   0.218  0.6049  0.3535 -1.0100
   26MOL0     H 3374   5.931   5.818   0.151 -0.2001 -0.1643 -0.5832
   26MOL0     H 3375   6.129   5.593   0.094  1.5447 -0.1104 -3.6489
   26MOL0     H 3376   5.967   5.625   0.027  3.4405 -4.6741 -0.8427
   26MOL0     H 3377   6.227   5.790   0.003  0.5288 -1.0743 -0.2533
   26MOL0     H 3378   6.076   5.840  -0.066 -1.7101  0.9502  1.0679
   26MOL0     H 3379   6.227   5.576  -0.120  0.0341  1.3524  4.4384
   26MOL0     H 3380   6.234   5.714  -0.238  1.0297 -0.2540  0.2320
   26MOL0     H 3381   5.999   5.535  -0.173  3.4777 -2.4457  0.2977
   26MOL0     H 3382   5.972   5.717  -0.212 -1.5812 -2.2823  1.1126
   26MOL0     H 3383   5.964   5.540  -0.415  1.1501 -0.0497 -2.2261
   26MOL0     H 3384   6.124   5.499  -0.384  0.9865  0.1289 -3.2560
   26MOL0     H 3385   5.957   5.857  -0.426  0.7022  1.0879 -0.0923
   26MOL0     H 3386   6.189   6.053  -0.669 -1.6140  1.1015 -0.2446
   26MOL0     H 3387   6.095   6.096  -0.525  0.4643  1.9958 -2.4224
   26MOL0     H 3388   5.897   6.020  -0.637  0.9789 -0.7237  2.2054
   26MOL0     H 3389   5.996   5.928  -0.752 -0.6326 -0.3690 -0.0492
   26MOL0     H 3390   6.016   6.237  -0.730  0.7263 -1.6441  1.7117
   26MOL0     H 3391   6.087   6.125  -0.855  0.2430 -1.8952  1.1043
   26MOL0     H 3392   5.805   6.214  -0.808 -0.0810 -0.0682  0.3268
   26MOL0     H 3393   5.830   6.052  -0.868 -0.1115 -0.2847  2.8577
   26MOL0     H 3394   5.641   6.090  -0.943 -1.7020 -2.4698 -1.4004
   26MOL0     H 3395   5.433   6.143  -1.063  0.6537  1.1994  2.7732
   26MOL0     H 3396   5.244   6.378  -1.564  3.6701 -0.5713  2.1901
   26MOL0     H 3397   4.996   6.450  -1.586  0.8848 -0.9556 -0.8417
   26MOL0     H 3398   4.822   6.519  -1.222  0.1765 -1.6397 -0.1430
   26MOL0     H 3399   4.686   6.491  -1.328 -1.9424  2.0767 -0.1791
   26MOL0     H 3400   4.625   6.711  -1.351  0.8535 -0.7471 -1.8669
   26MOL0     H 3401   4.758   6.788  -1.261 -1.8823  0.8404  3.0548
   26MOL0     H 3402   4.697   6.662  -1.066  1.5579 -1.2456 -2.1979
   26MOL0     H 3403   4.549   6.609  -1.136  1.8941 -1.1805 -0.2040
   26MOL0     H 3404   4.621   6.910  -1.117 -1.0417  2.0650 -3.3098
   26MOL0     H 3405   4.498   6.852  -1.219  1.2788 -0.5624 -1.2732
   26MOL0     H 3406   4.487   6.798  -0.922 -1.3314  3.1724  1.2478
   26MOL0     H 3407   4.370   6.749  -1.046  0.2998  0.3894 -2.5617
   26MOL0     H 3408   4.354   7.016  -1.107  0.5548 -0.0928 -0.4315
   26MOL0     H 3409   4.469   7.025  -0.974  0.7904 -0.0127 -1.8796
   26MOL0     H 3410   4.192   6.902  -0.974 -0.5767  0.2692  1.0250
   26MOL0     H 3411   4.285   6.929  -0.821 -2.1159 -0.5779  0.8342
   26MOL0     H 3412   4.151   7.102  -0.808  2.6617 -2.6301  1.2477
   26MOL0     H 3413   4.169   7.143  -0.984  1.3335 -0.8781 -0.3566
   26MOL0     H 3414   5.016   6.644  -1.212 -0.1740  1.0435 -1.5543
   26MOL0     H 3415   5.246   6.552  -1.182 -0.2271 -0.1865  0.0853
   26MOL0     H 3416   5.628   6.394  -1.333  0.3423 -0.3082 -0.0087
   26MOL0     H 3417   5.852   6.357  -1.186 -0.7404  0.7232  0.1700
   26MOL0     H 3418   6.184   5.665   0.563 -1.7786  3.2425  1.8118
   26MOL0     H 3419   6.288   5.525   0.698  0.0119 -0.9622 -1.2466
   26MOL0     H 3420   6.526   5.353   1.044 -1.4652  0.4768 -1.3215
   26MOL0     H 3421   6.606   5.200   1.219 -1.0616  1.4099  0.5159
   26MOL0     H 3422   6.644   5.030   1.361 -0.3906  0.1525  1.0575
   26MOL0     H 3423   6.621   4.929   1.225 -1.6809 -1.3714 -0.4795
   26MOL0     H 3424   6.572   4.860   1.534  1.5001 -0.3794  0.4352
   26MOL0     H 3425   6.530   4.746   1.404 -1.1008  1.8548 -2.0613
   26MOL0     H 3426   6.815   4.849   1.465 -1.5983  1.3067  2.5948
   26MOL0     H 3427   6.773   4.735   1.327  1.2675 -2.2308  1.4457
   26MOL0     H 3428   6.710   4.699   1.624  3.0032  1.3894  0.1518
   26MOL0     H 3429   6.715   4.572   1.485  1.0106 -1.0856  0.1210
   26MOL0     H 3430   7.118   4.570   1.605  0.2042  1.1248  0.3580
   26MOL0     H 3431   6.228   4.998   1.214 -0.3574 -0.3515 -0.4429
   26MOL0     H 3432   6.147   5.146   1.046 -0.4352 -2.8448  0.9557
   27MOL0     O 3433   6.466   0.210   6.802  0.3713  0.0302 -0.9094
   27MOL0     C 3434   6.453   0.085   6.804 -0.0379 -0.1175  0.2469
   27MOL0     O 3435   6.351   0.006   6.749  0.3242 -0.1617 -0.6328
   27MOL0     C 3436   6.247   0.071   6.687  0.3304 -0.3718  0.2570
   27MOL0     C 3437   6.274   0.148   6.571 -0.3675  0.3995 -0.4337
   27MOL0     C 3438   6.176   0.201   6.485  0.4323 -0.4173 -0.4376
   27MOL0     C 3439   6.037   0.202   6.522 -0.0465  0.5734  1.1293
   27MOL0     O 3440   5.939   0.256   6.443 -0.0158 -0.0196 -0.1964
   27MOL0     C 3441   5.934   0.396   6.426 -0.3875 -0.6758 -0.4966
   27MOL0     C 3442   5.788   0.427   6.414  0.2294 -0.6860 -0.0554
   27MOL0     C 3443   5.780   0.575   6.434  0.5921  0.0804 -0.4888
   27MOL0     C 3444   5.635   0.594   6.472  0.0728  0.0810 -0.1979
   27MOL0     C 3445   5.576   0.730   6.451 -1.2177  0.5295 -0.5678
   27MOL0     C 3446   5.429   0.738   6.479 -0.0261  0.5163 -0.1584
   27MOL0     C 3447   5.381   0.731   6.622  0.4037  0.1641 -0.2075
   27MOL0     C 3448   5.279   0.828   6.659 -0.2796 -0.3026 -0.2030
   27MOL0     N 3449   5.203   0.792   6.780 -0.6138 -0.0545  0.3089
   27MOL0     C 3450   5.109   0.865   6.844  0.3371  0.6191 -0.4067
   27MOL0     C 3451   5.081   0.797   6.961 -0.5717 -0.7447 -0.0751
   27MOL0     C 3452   4.980   0.838   7.062  0.3531 -1.0216  0.8430
   27MOL0     C 3453   4.838   0.792   7.039  0.9673  0.7292 -0.3211
   27MOL0     C 3454   4.774   0.835   6.907 -0.2628  0.2924  0.7763
   27MOL0     C 3455   4.634   0.783   6.906 -0.1795 -0.5389  0.1743
   27MOL0     O 3456   4.557   0.858   6.816  0.3335  0.0854 -0.4971
   27MOL0     C 3457   4.481   0.964   6.860 -0.5548  0.5692 -0.3843
   27MOL0     C 3458   4.356   0.980   6.807 -0.5904 -0.7474  0.2843
   27MOL0     C 3459   4.271   1.078   6.853 -0.6734  0.2895  0.8576
   27MOL0     C 3460   4.291   1.152   6.969 -1.4563 -1.4918 -0.3194
   27MOL0     C 3461   4.194   1.249   7.027 -0.0675 -0.5319  0.7905
   27MOL0     O 3462   4.068   1.245   6.971  0.1626 -0.4115  0.4336
   27MOL0     C 3463   3.993   1.367   6.988 -0.3202  0.7084  0.2287
   27MOL0     C 3464   3.988   1.452   7.091  0.3261 -0.6593 -0.6599
   27MOL0     C 3465   3.904   1.567   7.095 -0.1168 -0.8219  0.6225
   27MOL0     C 3466   3.835   1.601   6.981 -0.6137  0.3398 -0.3530
   27MOL0     O 3467   3.751   1.713   6.961  0.3126  0.7211 -1.4556
   27MOL0     C 3468   3.750   1.810   7.060  0.2568  0.4640 -0.0555
   27MOL0     C 3469   3.680   1.934   6.999  0.0709 -0.0278  0.6965
   27MOL0     C 3470   3.590   2.045   7.083  0.0499  0.4932 -0.2029
   27MOL0     C 3471   3.682   2.142   7.166 -0.7415  0.7995 -0.4315
   27MOL0     C 3472   3.747   2.086   7.293  0.3478  1.1087 -0.7143
   27MOL0     C 3473   3.750   2.190   7.403  0.8025  0.5051 -0.1023
   27MOL0     C 3474   3.871   2.259   7.420 -0.1067 -0.2082 -0.2198
   27MOL0     C 3475   3.846   2.383   7.500 -0.1793  0.5171 -0.7563
   27MOL0    Cl 3476   3.759   2.343   7.666 -0.6836 -0.0355  0.2899
   27MOL0     C 3477   3.844   1.513   6.864  0.0327  0.9559  0.6381
   27MOL0     C 3478   3.916   1.393   6.879  0.4232  0.6216  0.7338
   27MOL0     O 3479   4.238   1.331   7.105  0.2505  0.0525 -0.6372
   27MOL0     C 3480   4.424   1.138   7.024 -0.3074 -0.0447  0.3929
   27MOL0     C 3481   4.521   1.052   6.968  0.2783 -0.0262 -1.0637
   27MOL0     N 3482   5.185   0.707   6.967 -0.2432  0.1548 -0.6913
   27MOL0     N 3483   5.259   0.697   6.863  1.0114 -0.4477  0.9948
   27MOL0     C 3484   6.016   0.120   6.635 -0.1515  0.8355 -0.2754
   27MOL0     C 3485   6.112   0.062   6.713  0.8451 -0.7343 -0.1303
   27MOL0     C 3486   6.564   0.007   6.859 -0.7862 -0.6542  0.2045
   27MOL0     C 3487   6.693   0.057   6.861  0.0355  0.1356 -0.1195
   27MOL0     C 3488   6.802  -0.011   6.910 -0.9681 -0.2050  0.1577
   27MOL0     C 3489   6.780  -0.138   6.970  0.3879  0.2197 -0.6785
   27MOL0     O 3490   6.882  -0.210   7.033 -1.0632  0.0989 -0.2273
   27MOL0     C 3491   6.994  -0.134   7.083  1.2835  0.7457 -0.0694
   27MOL0     C 3492   7.070  -0.218   7.191 -0.3087 -0.2627  0.5567
   27MOL0     C 3493   7.194  -0.298   7.140 -0.5007 -0.2950 -0.4522
   27MOL0     C 3494   7.283  -0.345   7.257  0.4432  0.2194  0.2223
   27MOL0     C 3495   7.397  -0.417   7.206 -0.7262  0.0926  0.1753
   27MOL0     C 3496   7.507  -0.462   7.169  0.0969  0.5372  0.1115
   27MOL0     C 3497   6.647  -0.185   6.973  0.1152  0.0813 -0.0810
   27MOL0     C 3498   6.542  -0.112   6.917  0.5808  0.6532  0.0699
   27MOL0     H 3499   6.379   0.155   6.546  0.0944 -2.5194  0.2549
   27MOL0     H 3500   6.215   0.251   6.397 -2.3700 -1.3811 -2.3539
   27MOL0     H 3501   5.967   0.440   6.331 -3.1263  0.6511 -0.9483
   27MOL0     H 3502   5.986   0.454   6.502 -1.1404  1.5324 -1.5900
   27MOL0     H 3503   5.758   0.382   6.510  2.0750 -1.5708  0.1410
   27MOL0     H 3504   5.736   0.372   6.335 -0.4084 -0.8869  0.4796
   27MOL0     H 3505   5.801   0.621   6.337 -1.3555 -0.7874 -1.3759
   27MOL0     H 3506   5.851   0.616   6.506  1.6872 -2.0927 -0.2651
   27MOL0     H 3507   5.570   0.525   6.417 -1.8276 -1.0939  3.2310
   27MOL0     H 3508   5.620   0.570   6.577 -2.3071  0.1467 -0.4607
   27MOL0     H 3509   5.587   0.757   6.346 -0.1519  2.9550  0.0866
   27MOL0     H 3510   5.634   0.804   6.507  1.2661 -1.8940  0.2985
   27MOL0     H 3511   5.381   0.651   6.434 -0.8781 -0.1633  1.9232
   27MOL0     H 3512   5.383   0.826   6.433 -2.0036  0.3061  1.2986
   27MOL0     H 3513   5.351   0.630   6.649 -0.1674  0.3587 -0.1031
   27MOL0     H 3514   5.460   0.756   6.693  0.3295 -3.2241  1.2486
   27MOL0     H 3515   5.206   0.824   6.577 -0.5238  0.8376 -0.0606
   27MOL0     H 3516   5.314   0.931   6.674  0.9495 -0.8598  0.8442
   27MOL0     H 3517   5.066   0.955   6.800 -0.5137  0.1309 -0.5798
   27MOL0     H 3518   4.995   0.946   7.066  1.1451 -0.8016 -3.3359
   27MOL0     H 3519   5.007   0.804   7.163 -1.5224  1.7176  2.3929
   27MOL0     H 3520   4.783   0.836   7.122  1.7666  0.5470  0.3183
   27MOL0     H 3521   4.826   0.684   7.055 -1.8268  1.1018  0.6543
   27MOL0     H 3522   4.776   0.944   6.898  2.1423  0.2966  0.7443
   27MOL0     H 3523   4.821   0.781   6.824 -1.0679 -0.3360  0.7219
   27MOL0     H 3524   4.597   0.797   7.007 -0.1745  0.8791  0.0030
   27MOL0     H 3525   4.628   0.678   6.876  0.5345 -0.0630 -1.8076
   27MOL0     H 3526   4.333   0.918   6.721  0.6789  1.3061 -1.6534
   27MOL0     H 3527   4.168   1.058   6.826 -0.2311 -2.4252  0.8969
   27MOL0     H 3528   4.043   1.430   7.182 -3.4024  0.1185  1.9991
   27MOL0     H 3529   3.910   1.620   7.189  2.5902  0.0085  0.0756
   27MOL0     H 3530   3.843   1.838   7.111 -1.2127  1.2843  2.3491
   27MOL0     H 3531   3.684   1.784   7.143  2.3587  1.1314  1.9056
   27MOL0     H 3532   3.606   1.890   6.932 -1.9157  0.4913  2.4226
   27MOL0     H 3533   3.757   2.001   6.960  1.1044 -0.0355  2.6117
   27MOL0     H 3534   3.514   1.992   7.140 -0.4710  0.0046 -1.3129
   27MOL0     H 3535   3.530   2.090   7.002  1.8043 -3.3504 -4.0376
   27MOL0     H 3536   3.770   2.156   7.102 -0.1686 -0.7561 -0.0311
   27MOL0     H 3537   3.630   2.234   7.195  0.8688  1.2061  1.3337
   27MOL0     H 3538   3.847   2.048   7.270 -0.5671 -1.3433 -0.9587
   27MOL0     H 3539   3.677   2.016   7.341  2.0441  0.9095  1.6372
   27MOL0     H 3540   3.739   2.134   7.497  0.6241  0.8855  0.1054
   27MOL0     H 3541   3.668   2.263   7.394  0.4925  0.0397 -1.2856
   27MOL0     H 3542   3.952   2.199   7.462 -0.7686 -0.9419  0.0329
   27MOL0     H 3543   3.902   2.294   7.321 -1.5470  1.9189  0.0260
   27MOL0     H 3544   3.790   2.462   7.449 -0.0692  0.2529 -1.2935
   27MOL0     H 3545   3.938   2.438   7.522 -2.1236  4.2951 -1.2308
   27MOL0     H 3546   3.791   1.542   6.773 -2.3849 -0.3538  1.5375
   27MOL0     H 3547   3.905   1.320   6.800 -1.8821  0.9368  0.6952
   27MOL0     H 3548   4.450   1.202   7.108 -6.4415  2.3647  0.9254
   27MOL0     H 3549   4.617   1.031   7.015 -0.0798 -1.3637 -0.8725
   27MOL0     H 3550   5.913   0.102   6.664  0.4539 -0.9163  0.9126
   27MOL0     H 3551   6.079   0.007   6.800 -1.8677  0.6165 -0.2014
   27MOL0     H 3552   6.705   0.149   6.804  1.6987 -1.7350 -3.0708
   27MOL0     H 3553   6.901   0.033   6.906 -1.5096  1.0154 -3.0294
   27MOL0     H 3554   6.950  -0.045   7.129 -0.3768 -0.0753  0.0103
   27MOL0     H 3555   7.052  -0.114   6.992  0.9510  0.7397 -0.2844
   27MOL0     H 3556   7.112  -0.148   7.264  0.5858  0.0102 -0.1970
   27MOL0     H 3557   7.003  -0.292   7.235 -1.7372 -0.1723 -1.3221
   27MOL0     H 3558   7.260  -0.234   7.081 -0.9394 -0.1097 -0.7518
   27MOL0     H 3559   7.167  -0.388   7.084 -0.1390 -0.1591 -0.8561
   27MOL0     H 3560   7.329  -0.269   7.321  2.2316 -1.6061  1.2401
   27MOL0     H 3561   7.236  -0.415   7.327  2.4600  0.7114  2.1845
   27MOL0     H 3562   7.603  -0.488   7.130 -0.2433  0.8970 -0.9824
   27MOL0     H 3563   6.627  -0.286   7.009  2.2233  0.8148  3.6216
   27MOL0     H 3564   6.440  -0.149   6.917 -0.3992  3.1068  2.3951
   28MOL0     O 3565   4.039  10.050  11.370  0.2033  0.6575  0.1058
   28MOL0     C 3566   3.967  10.121  11.301  0.6867  0.3952  0.1124
   28MOL0     O 3567   4.007  10.195  11.191  0.3476 -0.3536  0.0936
   28MOL0     C 3568   4.132  10.181  11.144  0.4192 -0.8157 -0.0439
   28MOL0     C 3569   4.190  10.060  11.113  0.0062 -0.5491  0.7483
   28MOL0     C 3570   4.316  10.053  11.043  1.1749 -0.6481 -0.3825
   28MOL0     C 3571   4.378  10.173  11.010  0.3745 -0.4721  0.1319
   28MOL0     O 3572   4.488  10.190  10.931 -0.3160  0.4388 -0.3220
   28MOL0     C 3573   4.484  10.112  10.813 -0.0985  0.5579 -0.1603
   28MOL0     C 3574   4.588  10.174  10.711  0.5208  0.2046  0.1984
   28MOL0     C 3575   4.736  10.148  10.751 -0.5614 -0.2406 -0.0469
   28MOL0     C 3576   4.835  10.170  10.632 -1.1440 -0.0152  0.0762
   28MOL0     C 3577   4.979  10.123  10.670  0.1402 -0.7236  0.2079
   28MOL0     C 3578   5.081  10.135  10.547  1.2501  0.3263 -0.3405
   28MOL0     C 3579   5.196  10.045  10.577  0.5529  0.0915 -0.2616
   28MOL0     C 3580   5.267  10.017  10.445 -0.2793  0.6093 -0.0710
   28MOL0     N 3581   5.374  10.107  10.405 -0.4899  0.7009  0.9532
   28MOL0     C 3582   5.353  10.219  10.327  0.9969 -0.8321  0.8306
   28MOL0     C 3583   5.476  10.275  10.321  0.5181 -0.7786 -0.2526
   28MOL0     C 3584   5.513  10.398  10.247  0.1511 -0.0172 -0.1997
   28MOL0     C 3585   5.657  10.425  10.220 -1.2739  1.0775 -0.0980
   28MOL0     C 3586   5.709  10.532  10.320 -0.4690 -0.4524  1.0517
   28MOL0     C 3587   5.858  10.569  10.293  0.3922 -0.6887  0.0743
   28MOL0     O 3588   5.900  10.665  10.390 -0.7456 -0.0148 -0.2754
   28MOL0     C 3589   5.839  10.789  10.398 -1.1312 -0.0250  0.0984
   28MOL0     C 3590   5.767  10.851  10.298 -0.3227  0.1766  0.1005
   28MOL0     C 3591   5.711  10.971  10.321 -0.2511 -1.0787  0.5238
   28MOL0     C 3592   5.714  11.029  10.452 -0.3266  0.1590  0.4306
   28MOL0     C 3593   5.658  11.166  10.478  0.0753 -0.4244  0.8720
   28MOL0     O 3594   5.568  11.208  10.380  0.0788  0.1935  0.3039
   28MOL0     C 3595   5.515  11.332  10.381  0.1242  0.2317  0.0450
   28MOL0     C 3596   5.580  11.445  10.414  0.1894  0.2003  0.5500
   28MOL0     C 3597   5.521  11.571  10.392  0.0293 -0.5827  0.1710
   28MOL0     C 3598   5.398  11.578  10.335  0.6909  0.3028  0.3303
   28MOL0     O 3599   5.323  11.692  10.333 -0.3540 -0.3266 -0.0141
   28MOL0     C 3600   5.266  11.738  10.468  0.4178  0.0303  1.1580
   28MOL0     C 3601   5.174  11.857  10.442  0.1278  0.3423  0.3169
   28MOL0     C 3602   5.073  11.875  10.559 -0.0168  0.1909  0.3091
   28MOL0     C 3603   4.978  11.993  10.539 -0.1055 -0.6831  0.1371
   28MOL0     C 3604   4.889  12.030  10.654 -0.3699 -1.1886  0.0219
   28MOL0     C 3605   4.802  11.912  10.687 -0.2321  0.0122 -0.2823
   28MOL0     C 3606   4.672  11.961  10.751  0.5816  1.2582 -0.9034
   28MOL0     C 3607   4.583  11.832  10.766 -0.2007  0.3817  0.2079
   28MOL0    Cl 3608   4.399  11.870  10.714 -0.5658  0.0478  0.2986
   28MOL0     C 3609   5.335  11.473  10.282 -0.0739  0.1887 -0.4750
   28MOL0     C 3610   5.393  11.347  10.301  0.8009  0.1500 -0.1093
   28MOL0     O 3611   5.705  11.232  10.572  0.4437  0.1828 -0.0238
   28MOL0     C 3612   5.773  10.963  10.551  0.5526  0.8756 -0.3020
   28MOL0     C 3613   5.841  10.842  10.522  0.2297 -1.1338 -0.0628
   28MOL0     N 3614   5.567  10.202  10.394 -0.4142 -0.4529  1.6170
   28MOL0     N 3615   5.506  10.099  10.439  0.6070  0.3182  0.1468
   28MOL0     C 3616   4.313  10.293  11.050 -0.3322  0.0999 -0.4173
   28MOL0     C 3617   4.198  10.299  11.122  0.1442  0.2058 -0.1633
   28MOL0     C 3618   3.829  10.142  11.362  1.0194  0.1042  0.1463
   28MOL0     C 3619   3.735  10.227  11.300 -1.5601 -0.2452 -0.2573
   28MOL0     C 3620   3.607  10.257  11.360 -0.2070  0.4571  0.2230
   28MOL0     C 3621   3.571  10.185  11.473  0.5852 -0.7868  0.3383
   28MOL0     O 3622   3.440  10.194  11.510  0.1528 -0.5194 -0.3015
   28MOL0     C 3623   3.413  10.327  11.577  0.4398 -0.5743  0.6131
   28MOL0     C 3624   3.298  10.322  11.665 -0.2258 -0.6803 -0.3280
   28MOL0     C 3625   3.310  10.209  11.770  0.0336  0.2562 -0.5639
   28MOL0     C 3626   3.203  10.215  11.871 -0.1406  0.0693 -0.7646
   28MOL0     C 3627   3.204  10.086  11.946 -0.4318 -0.5690  1.2915
   28MOL0     C 3628   3.197   9.977  12.004 -0.3854 -1.3463  0.6850
   28MOL0     C 3629   3.661  10.095  11.537 -0.3329 -1.0371 -0.1934
   28MOL0     C 3630   3.792  10.077  11.490  0.2109  0.5160 -0.1171
   28MOL0     H 3631   4.136   9.968  11.134 -0.2704 -1.4462 -3.0290
   28MOL0     H 3632   4.368   9.960  11.027 -2.2829 -2.9870  0.8725
   28MOL0     H 3633   4.383  10.130  10.773  0.7059  0.3006 -2.4936
   28MOL0     H 3634   4.515  10.008  10.824  0.1290  0.5778 -0.6044
   28MOL0     H 3635   4.572  10.282  10.702  0.0988  0.0487 -1.0767
   28MOL0     H 3636   4.558  10.125  10.618  0.8001  2.7286 -1.3187
   28MOL0     H 3637   4.754  10.044  10.780  2.5191  0.1013 -0.3412
   28MOL0     H 3638   4.748  10.209  10.841  0.0599  1.0247 -0.9623
   28MOL0     H 3639   4.802  10.103  10.552 -0.4449  2.1261 -2.1479
   28MOL0     H 3640   4.834  10.276  10.604  0.7918  0.9637  3.2018
   28MOL0     H 3641   4.978  10.017  10.695 -0.2255 -0.7837 -0.0551
   28MOL0     H 3642   5.006  10.188  10.754  0.6612 -1.0331  0.2848
   28MOL0     H 3643   5.107  10.241  10.543 -0.1972  0.9128  2.9076
   28MOL0     H 3644   5.040  10.109  10.449 -0.2386  2.5316 -0.3696
   28MOL0     H 3645   5.264  10.084  10.653  1.0560 -0.6761 -0.3060
   28MOL0     H 3646   5.157   9.951  10.617  0.8205  0.2851  0.4682
   28MOL0     H 3647   5.199   9.996  10.362 -0.6382 -0.6419  0.5199
   28MOL0     H 3648   5.317   9.920  10.454  2.4551  1.7877 -1.5202
   28MOL0     H 3649   5.268  10.228  10.261  0.6853 -1.8694  1.0644
   28MOL0     H 3650   5.468  10.479  10.305 -0.7741 -1.4067  1.1065
   28MOL0     H 3651   5.453  10.393  10.156 -2.9222 -0.0612  1.7119
   28MOL0     H 3652   5.661  10.460  10.116 -2.0298 -0.5834 -0.7115
   28MOL0     H 3653   5.731  10.346  10.236  5.2294  5.9592 -1.3962
   28MOL0     H 3654   5.638  10.615  10.310  2.3405  2.3072  2.4618
   28MOL0     H 3655   5.700  10.500  10.424  0.1719  1.1552  1.6370
   28MOL0     H 3656   5.875  10.618  10.197  0.0920 -0.5529  0.0879
   28MOL0     H 3657   5.926  10.483  10.290  1.0886 -0.1108 -1.5517
   28MOL0     H 3658   5.759  10.806  10.200  1.8128 -0.0172 -0.0416
   28MOL0     H 3659   5.661  11.017  10.236  3.2918  0.3331 -0.9891
   28MOL0     H 3660   5.679  11.444  10.457  2.0230  0.1205 -3.2041
   28MOL0     H 3661   5.576  11.658  10.426  0.7379 -1.3381  1.0348
   28MOL0     H 3662   5.354  11.756  10.530  0.4103 -0.2112  1.2407
   28MOL0     H 3663   5.212  11.645  10.488  0.0142 -0.0690 -0.2635
   28MOL0     H 3664   5.121  11.859  10.346 -1.8769 -0.5730  1.3528
   28MOL0     H 3665   5.243  11.942  10.435 -1.1457  1.5719  1.7680
   28MOL0     H 3666   5.131  11.891  10.650  2.2914  0.0755 -1.0641
   28MOL0     H 3667   5.021  11.781  10.576 -1.2466  0.8461  0.2630
   28MOL0     H 3668   5.030  12.083  10.506  2.8459 -1.1493  2.9311
   28MOL0     H 3669   4.927  11.963  10.448  1.6196 -0.4146 -0.9795
   28MOL0     H 3670   4.841  12.124  10.624 -0.7038 -1.9137 -1.7781
   28MOL0     H 3671   4.948  12.047  10.745 -0.1005  1.6281 -0.5873
   28MOL0     H 3672   4.861  11.851  10.756  1.6323  0.9241 -0.9998
   28MOL0     H 3673   4.778  11.855  10.597  3.4779 -4.3288  1.1128
   28MOL0     H 3674   4.691  12.006  10.848  1.5003 -0.6267 -0.1708
   28MOL0     H 3675   4.611  12.029  10.689 -0.8910  1.3895  0.6061
   28MOL0     H 3676   4.590  11.809  10.873 -1.4100  1.7494  0.6095
   28MOL0     H 3677   4.619  11.747  10.706 -0.6887  0.0812  0.3319
   28MOL0     H 3678   5.238  11.482  10.234 -0.0655 -1.1600 -0.7657
   28MOL0     H 3679   5.331  11.264  10.270  1.8994  0.5466 -3.8037
   28MOL0     H 3680   5.779  10.998  10.654  2.2593  0.1850 -0.1206
   28MOL0     H 3681   5.900  10.800  10.603  1.2057 -1.1145 -0.7403
   28MOL0     H 3682   4.366  10.385  11.028 -0.9397 -0.0018 -2.4578
   28MOL0     H 3683   4.161  10.391  11.165  1.4341  0.3101  0.8095
   28MOL0     H 3684   3.763  10.264  11.202  1.4758 -4.0786 -1.0782
   28MOL0     H 3685   3.535  10.320  11.309 -2.2869 -0.1074  2.2711
   28MOL0     H 3686   3.418  10.410  11.506  2.0281  0.3365  1.7446
   28MOL0     H 3687   3.500  10.351  11.638  0.4682 -1.7711  1.0623
   28MOL0     H 3688   3.296  10.411  11.729 -1.4051 -1.7782  1.2474
   28MOL0     H 3689   3.204  10.316  11.610  0.3480  2.0733 -1.7824
   28MOL0     H 3690   3.404  10.223  11.824 -1.3997  0.6130  2.0218
   28MOL0     H 3691   3.309  10.110  11.722 -2.2379  0.0219 -0.1769
   28MOL0     H 3692   3.206  10.295  11.946 -5.4014 -1.4436  1.5946
   28MOL0     H 3693   3.109  10.236  11.819 -0.4367 -1.1122 -0.7425
   28MOL0     H 3694   3.180   9.879  12.044 -0.6371 -2.8434 -2.7266
   28MOL0     H 3695   3.618  10.047  11.624 -1.7109  0.2353 -0.1293
   28MOL0     H 3696   3.863  10.020  11.548  0.3084  0.0744 -0.6557
   29MOL0     O 3697   4.414   6.181   1.340 -0.1095  0.1671  0.3250
   29MOL0     C 3698   4.382   6.253   1.431 -0.8476  0.3389  0.5678
   29MOL0     O 3699   4.276   6.232   1.510 -0.5374  0.1576  0.2188
   29MOL0     C 3700   4.220   6.102   1.520 -0.0110 -0.7645  0.2585
   29MOL0     C 3701   4.303   6.002   1.572 -0.0132  0.7385 -0.0477
   29MOL0     C 3702   4.253   5.876   1.599 -0.4042  0.9826 -0.0250
   29MOL0     C 3703   4.116   5.844   1.573 -0.3295 -0.6530  0.6315
   29MOL0     O 3704   4.069   5.726   1.611 -0.0245  0.7478 -0.0310
   29MOL0     C 3705   4.115   5.612   1.532  0.4044  0.4780 -0.0843
   29MOL0     C 3706   4.174   5.494   1.625  0.2632 -0.8140  0.3037
   29MOL0     C 3707   4.223   5.372   1.550  0.1087  0.2071 -0.7161
   29MOL0     C 3708   4.115   5.309   1.468  1.2031  0.9970 -0.7524
   29MOL0     C 3709   4.144   5.168   1.414 -0.3639 -0.6495  0.3266
   29MOL0     C 3710   4.264   5.144   1.319  0.1830  0.7702 -0.2565
   29MOL0     C 3711   4.326   5.013   1.342 -0.3306 -0.6018 -0.5389
   29MOL0     C 3712   4.236   4.918   1.266  0.2698 -0.5730 -0.8171
   29MOL0     N 3713   4.257   4.775   1.275  0.0001  0.4130  0.4275
   29MOL0     C 3714   4.175   4.676   1.231 -0.4466  0.9638  0.4802
   29MOL0     C 3715   4.239   4.555   1.246 -0.4842 -0.4069  0.0044
   29MOL0     C 3716   4.204   4.424   1.197  0.4822  0.3041 -0.6507
   29MOL0     C 3717   4.311   4.354   1.107  0.0751 -0.4480  0.7340
   29MOL0     C 3718   4.292   4.218   1.031  0.0214  0.5790  0.3115
   29MOL0     C 3719   4.431   4.170   0.980 -0.8725  0.6395  0.3630
   29MOL0     O 3720   4.494   4.276   0.913 -0.2208 -0.4309  0.1479
   29MOL0     C 3721   4.637   4.290   0.923  0.2962  0.3771 -0.2118
   29MOL0     C 3722   4.701   4.412   0.912  0.1255  0.4567  0.4901
   29MOL0     C 3723   4.843   4.421   0.892 -0.2435  1.1126  0.6838
   29MOL0     C 3724   4.917   4.304   0.885 -0.7993 -0.6880 -0.9328
   29MOL0     C 3725   5.066   4.317   0.880 -0.0441 -0.4898  0.7145
   29MOL0     O 3726   5.140   4.207   0.893 -0.3067  0.6477  0.0353
   29MOL0     C 3727   5.271   4.199   0.859  0.2440 -0.2428 -0.5575
   29MOL0     C 3728   5.335   4.124   0.958  0.1723  0.7123  0.0660
   29MOL0     C 3729   5.467   4.086   0.939  0.5151  0.5455  0.5133
   29MOL0     C 3730   5.541   4.144   0.830 -0.7743 -0.8546 -0.5699
   29MOL0     O 3731   5.677   4.119   0.823  0.3768 -0.1609 -0.3117
   29MOL0     C 3732   5.751   4.028   0.905  0.2193  0.1389 -0.2759
   29MOL0     C 3733   5.889   4.012   0.844  0.9567  0.1025  0.1808
   29MOL0     C 3734   5.964   3.891   0.886  0.0191 -0.4966  0.4393
   29MOL0     C 3735   5.958   3.777   0.789 -0.3309 -0.9697  0.3004
   29MOL0     C 3736   6.012   3.644   0.848  0.2387 -1.1808  0.1783
   29MOL0     C 3737   6.031   3.533   0.744 -0.0620 -1.2584  0.1028
   29MOL0     C 3738   6.102   3.403   0.781 -0.4207 -0.6597  0.6486
   29MOL0     C 3739   6.163   3.329   0.672  0.0607  0.4045  0.1917
   29MOL0    Cl 3740   6.217   3.183   0.764  0.2158 -0.3414 -0.1150
   29MOL0     C 3741   5.475   4.227   0.736  0.1635 -0.6820 -0.4790
   29MOL0     C 3742   5.334   4.253   0.746  0.8032  0.4870  0.2233
   29MOL0     O 3743   5.115   4.427   0.860  0.3247  0.1797  0.1503
   29MOL0     C 3744   4.850   4.179   0.884 -0.3581  0.8479  0.1988
   29MOL0     C 3745   4.712   4.172   0.909  0.0559  0.2851  0.7595
   29MOL0     N 3746   4.362   4.593   1.311 -1.0498 -0.2647  1.1920
   29MOL0     N 3747   4.368   4.721   1.338  0.1299  0.3648 -1.0870
   29MOL0     C 3748   4.033   5.943   1.518 -0.4357 -0.5576 -0.0224
   29MOL0     C 3749   4.089   6.074   1.494  0.1573 -1.0194 -0.3725
   29MOL0     C 3750   4.475   6.372   1.461 -0.0491  0.2553  0.0222
   29MOL0     C 3751   4.438   6.475   1.546 -0.6771  0.0574  0.7324
   29MOL0     C 3752   4.503   6.597   1.565 -0.0636  0.2041  0.1566
   29MOL0     C 3753   4.617   6.617   1.488  0.0214  0.1849  0.4177
   29MOL0     O 3754   4.688   6.732   1.473  0.9360 -0.3622  0.5411
   29MOL0     C 3755   4.690   6.842   1.564  0.2777 -0.9554 -1.3762
   29MOL0     C 3756   4.834   6.869   1.603 -1.0041  0.1959  0.0667
   29MOL0     C 3757   4.849   6.974   1.713  0.2211 -0.0202 -0.5498
   29MOL0     C 3758   4.797   6.915   1.848 -1.1896 -0.1644 -0.0668
   29MOL0     C 3759   4.684   6.987   1.901 -0.5354 -0.0145 -0.1876
   29MOL0     C 3760   4.595   7.051   1.940  0.2833  0.2081 -0.2871
   29MOL0     C 3761   4.657   6.519   1.388 -0.3103 -0.3191  0.3326
   29MOL0     C 3762   4.587   6.399   1.387 -0.1673 -0.7686 -0.0106
   29MOL0     H 3763   4.407   6.008   1.602 -0.1491 -2.4391  1.4411
   29MOL0     H 3764   4.300   5.793   1.652  0.6307 -0.5492 -3.1303
   29MOL0     H 3765   4.181   5.647   1.452 -0.5664 -2.7431 -2.4759
   29MOL0     H 3766   4.031   5.572   1.475  1.3320  0.4204 -1.4781
   29MOL0     H 3767   4.093   5.472   1.695  1.4263 -0.6411  1.7458
   29MOL0     H 3768   4.258   5.532   1.683  0.3340 -1.1106  0.3964
   29MOL0     H 3769   4.243   5.302   1.632  1.9385  1.1366 -0.3221
   29MOL0     H 3770   4.323   5.380   1.506  2.0735 -3.1530  2.5455
   29MOL0     H 3771   4.034   5.314   1.542  3.6593  1.8025  2.0870
   29MOL0     H 3772   4.093   5.369   1.379 -0.5580  0.1681 -0.9305
   29MOL0     H 3773   4.050   5.136   1.368 -0.7707 -1.5564  1.7070
   29MOL0     H 3774   4.156   5.106   1.504  0.2932 -1.6962 -0.4644
   29MOL0     H 3775   4.338   5.223   1.334 -0.7599  1.8870 -1.2959
   29MOL0     H 3776   4.227   5.153   1.217 -1.4260  3.3953  0.4563
   29MOL0     H 3777   4.428   5.008   1.301 -1.0093  1.7465 -2.7619
   29MOL0     H 3778   4.334   4.986   1.448  0.9202 -1.3161 -0.7880
   29MOL0     H 3779   4.240   4.934   1.158 -0.3573 -1.5383 -0.9946
   29MOL0     H 3780   4.134   4.937   1.301  1.2563  0.9999  1.4917
   29MOL0     H 3781   4.073   4.687   1.195 -0.4199  0.3347  0.1938
   29MOL0     H 3782   4.109   4.436   1.145 -0.4204 -2.2672  0.2689
   29MOL0     H 3783   4.178   4.361   1.283 -1.2653  3.0808  1.0179
   29MOL0     H 3784   4.397   4.356   1.175  2.0883  1.0033 -1.6518
   29MOL0     H 3785   4.332   4.427   1.028 -0.0699 -0.4496  0.6941
   29MOL0     H 3786   4.258   4.147   1.107  2.1330  0.8195  1.5597
   29MOL0     H 3787   4.210   4.216   0.958  0.7861 -0.1892 -0.5571
   29MOL0     H 3788   4.414   4.082   0.918  3.4444 -0.5540  0.5235
   29MOL0     H 3789   4.496   4.135   1.061  1.2442 -1.7219 -2.1648
   29MOL0     H 3790   4.648   4.507   0.905 -0.8118 -0.1476 -0.9522
   29MOL0     H 3791   4.880   4.521   0.874 -1.5379  1.6769  1.0231
   29MOL0     H 3792   5.279   4.092   1.045 -1.4111  2.0151 -0.4343
   29MOL0     H 3793   5.515   4.018   1.009  0.4098  2.2037  2.3043
   29MOL0     H 3794   5.705   3.928   0.915 -2.8407  1.5143  0.7454
   29MOL0     H 3795   5.761   4.060   1.009 -1.3538 -0.2771  0.0344
   29MOL0     H 3796   5.954   4.094   0.876  5.5728 -2.5110 -1.6545
   29MOL0     H 3797   5.888   4.009   0.734  1.9599 -0.6722  0.1893
   29MOL0     H 3798   5.918   3.856   0.979 -1.0603 -1.2657 -0.3717
   29MOL0     H 3799   6.064   3.933   0.899 -0.1637 -0.8662  4.2180
   29MOL0     H 3800   5.855   3.768   0.755 -0.2543 -1.7458  0.2608
   29MOL0     H 3801   6.019   3.817   0.708 -2.3237  2.9533  0.5381
   29MOL0     H 3802   5.952   3.621   0.937  1.1163  0.4542  1.2415
   29MOL0     H 3803   6.113   3.660   0.885 -0.7118 -0.5228  2.7246
   29MOL0     H 3804   6.075   3.573   0.652 -1.5708 -1.9345 -0.9719
   29MOL0     H 3805   5.933   3.498   0.710 -0.3180  0.1555 -0.7051
   29MOL0     H 3806   6.178   3.405   0.859  0.2607  1.3131 -0.0069
   29MOL0     H 3807   6.025   3.341   0.828 -3.3225  2.2863  0.1801
   29MOL0     H 3808   6.257   3.360   0.626 -0.7663 -1.2849 -2.9263
   29MOL0     H 3809   6.082   3.307   0.602  1.1230 -0.6035 -0.7450
   29MOL0     H 3810   5.532   4.259   0.649 -1.0452  0.8608 -0.7545
   29MOL0     H 3811   5.281   4.309   0.670 -0.5644 -2.4592 -1.1428
   29MOL0     H 3812   4.907   4.091   0.855 -1.3753  1.0063 -2.5588
   29MOL0     H 3813   4.675   4.070   0.909  1.1876 -0.2515 -2.3388
   29MOL0     H 3814   3.927   5.931   1.497 -0.3129 -1.4008 -0.1984
   29MOL0     H 3815   4.035   6.162   1.460  0.2485 -1.5252 -1.8761
   29MOL0     H 3816   4.339   6.463   1.587 -1.8309 -1.6848 -2.2115
   29MOL0     H 3817   4.463   6.681   1.619  3.1090  0.9630  1.5715
   29MOL0     H 3818   4.635   6.812   1.653  2.2345 -0.1531  0.1850
   29MOL0     H 3819   4.634   6.928   1.526  2.6264  0.4231 -1.9256
   29MOL0     H 3820   4.886   6.773   1.608  1.6493  1.5714  4.1720
   29MOL0     H 3821   4.895   6.916   1.525 -0.0320 -1.4111 -0.2035
   29MOL0     H 3822   4.800   7.068   1.685  2.6980  1.7940  0.8052
   29MOL0     H 3823   4.957   6.993   1.717  0.9589 -1.3815 -6.0446
   29MOL0     H 3824   4.765   6.810   1.845 -2.6165  0.2286  0.5826
   29MOL0     H 3825   4.882   6.931   1.916  1.1309  1.4295 -3.0891
   29MOL0     H 3826   4.527   7.121   1.985  1.0021  0.1601  0.9288
   29MOL0     H 3827   4.727   6.541   1.309 -0.4174 -2.2380 -0.3271
   29MOL0     H 3828   4.615   6.332   1.306  2.3257 -0.4315  0.4918
   30MOL0     O 3829   1.494   4.699   4.592 -0.3910 -0.2796  0.2352
   30MOL0     C 3830   1.543   4.631   4.687 -0.6836 -0.4248  0.1177
   30MOL0     O 3831   1.488   4.604   4.803 -0.3672 -0.1069 -0.3743
   30MOL0     C 3832   1.361   4.624   4.841 -0.8958  0.1500 -1.0277
   30MOL0     C 3833   1.252   4.667   4.760 -0.1290 -0.0103 -0.2074
   30MOL0     C 3834   1.131   4.710   4.813 -0.2562 -1.6108  0.0618
   30MOL0     C 3835   1.116   4.717   4.948  0.8445 -0.1244 -0.4921
   30MOL0     O 3836   0.998   4.779   4.984 -0.3945 -0.5331  0.2970
   30MOL0     C 3837   0.999   4.838   5.124 -0.1443 -0.2500 -0.5120
   30MOL0     C 3838   0.879   4.929   5.148 -0.7115  0.1605  0.2983
   30MOL0     C 3839   0.745   4.851   5.153 -0.1966 -0.7082  0.1637
   30MOL0     C 3840   0.628   4.956   5.174 -0.2609  0.4724  0.9077
   30MOL0     C 3841   0.487   4.886   5.185 -0.0893  0.1961 -1.3800
   30MOL0     C 3842   0.430   4.859   5.040  0.7204 -0.3281 -0.0775
   30MOL0     C 3843   0.309   4.773   5.042  0.6893  0.0463 -0.2994
   30MOL0     C 3844   0.334   4.642   5.123  0.3001 -0.2260 -0.2136
   30MOL0     N 3845   0.226   4.539   5.099 -0.2882  0.8025  0.5535
   30MOL0     C 3846   0.092   4.558   5.115  1.5179 -0.1084  0.3399
   30MOL0     C 3847   0.033   4.476   5.025 -1.5344 -0.3694 -0.2924
   30MOL0     C 3848  -0.113   4.478   4.994 -0.1642  0.8062  0.1798
   30MOL0     C 3849  -0.189   4.441   5.122  1.1694 -0.2752  0.8228
   30MOL0     C 3850  -0.334   4.416   5.091 -0.4329 -0.1975  0.8317
   30MOL0     C 3851  -0.407   4.410   5.216  0.6297  0.3186 -0.3499
   30MOL0     O 3852  -0.548   4.400   5.184  0.0598 -0.7584 -0.5673
   30MOL0     C 3853  -0.634   4.440   5.284  0.6280  0.6519  0.0238
   30MOL0     C 3854  -0.601   4.493   5.420  0.0011  0.4237  0.4888
   30MOL0     C 3855  -0.699   4.515   5.513  0.8063 -0.2728  0.1008
   30MOL0     C 3856  -0.843   4.500   5.481  0.0858 -0.1032 -0.3602
   30MOL0     C 3857  -0.944   4.530   5.580  0.2857  0.0825  0.0377
   30MOL0     O 3858  -1.076   4.495   5.552 -0.4985  0.2493 -0.3577
   30MOL0     C 3859  -1.166   4.480   5.653  0.2712  0.3138 -0.2255
   30MOL0     C 3860  -1.258   4.382   5.624  0.1777  0.5677 -0.1183
   30MOL0     C 3861  -1.361   4.354   5.711  0.5442  0.4874  0.0316
   30MOL0     C 3862  -1.386   4.428   5.824 -0.2593 -0.3936  0.2503
   30MOL0     O 3863  -1.495   4.395   5.899 -0.2075 -0.0804  0.0636
   30MOL0     C 3864  -1.587   4.503   5.940  0.0275 -0.7302  0.3852
   30MOL0     C 3865  -1.723   4.439   5.982 -0.3277  0.3346  0.2796
   30MOL0     C 3866  -1.785   4.346   5.881  0.6638  0.3930 -0.0037
   30MOL0     C 3867  -1.738   4.203   5.898  0.4528  0.8205 -0.2450
   30MOL0     C 3868  -1.828   4.126   5.802  0.4457  1.4010  0.1018
   30MOL0     C 3869  -1.978   4.119   5.808 -0.1721  0.4391  0.1434
   30MOL0     C 3870  -2.022   4.082   5.951  0.6316  0.7890 -0.2530
   30MOL0     C 3871  -2.164   4.040   5.951  0.3133 -0.2358  0.0358
   30MOL0    Cl 3872  -2.187   3.863   5.908  0.2027  0.0132 -0.3848
   30MOL0     C 3873  -1.294   4.540   5.849  0.8956  0.5126  0.0124
   30MOL0     C 3874  -1.185   4.565   5.761  0.5875  0.5919  0.2964
   30MOL0     O 3875  -0.904   4.585   5.687 -0.7442 -0.3894 -0.0172
   30MOL0     C 3876  -0.874   4.434   5.359  0.0208 -1.3692 -0.3572
   30MOL0     C 3877  -0.770   4.414   5.263  0.3998  0.8629 -0.1828
   30MOL0     N 3878   0.129   4.396   4.971 -0.2253 -0.0479 -0.3325
   30MOL0     N 3879   0.244   4.442   5.008  0.7537 -0.5430 -0.9896
   30MOL0     C 3880   1.213   4.667   5.031 -0.4733  0.1841 -0.3330
   30MOL0     C 3881   1.344   4.622   4.981  0.5683 -0.2211  0.0012
   30MOL0     C 3882   1.687   4.595   4.679 -0.1843  0.0216  0.0206
   30MOL0     C 3883   1.771   4.660   4.596 -0.4451 -0.2309 -0.3865
   30MOL0     C 3884   1.909   4.637   4.591 -0.2906  0.2391 -0.2137
   30MOL0     C 3885   1.959   4.522   4.670  0.3610  0.3201  0.8626
   30MOL0     O 3886   2.084   4.462   4.692  0.0792 -1.0297 -0.2444
   30MOL0     C 3887   2.199   4.520   4.640  0.4966 -1.3802 -0.6482
   30MOL0     C 3888   2.315   4.434   4.689  0.2173 -0.7339  0.4693
   30MOL0     C 3889   2.453   4.495   4.661 -0.3808 -0.8051 -0.4254
   30MOL0     C 3890   2.499   4.603   4.769  0.0413 -0.2049  0.4883
   30MOL0     C 3891   2.645   4.635   4.767 -0.3260  1.4921  0.3554
   30MOL0     C 3892   2.761   4.671   4.765 -0.0840  0.9487  0.0621
   30MOL0     C 3893   1.875   4.459   4.754  1.0330 -0.3742  0.5921
   30MOL0     C 3894   1.739   4.495   4.758  0.6488 -0.2193  0.4736
   30MOL0     H 3895   1.264   4.672   4.653  2.7997  0.6877  0.0824
   30MOL0     H 3896   1.047   4.727   4.746  2.2255 -0.3837 -2.9943
   30MOL0     H 3897   1.090   4.900   5.125 -0.4396  0.4259  3.5918
   30MOL0     H 3898   1.003   4.764   5.204 -2.1625  4.1206  4.2087
   30MOL0     H 3899   0.870   4.991   5.059 -0.6640  0.4388  0.4883
   30MOL0     H 3900   0.899   4.990   5.237 -1.6138  1.3182 -0.2674
   30MOL0     H 3901   0.740   4.770   5.226 -1.7360 -1.1491 -0.4022
   30MOL0     H 3902   0.737   4.799   5.057 -1.5134  1.7048 -1.1168
   30MOL0     H 3903   0.659   5.016   5.261 -1.0605 -2.2924  3.2753
   30MOL0     H 3904   0.630   5.023   5.088 -2.2033 -1.5842 -0.8421
   30MOL0     H 3905   0.414   4.938   5.248 -0.4457 -3.3950  1.4389
   30MOL0     H 3906   0.502   4.789   5.232  1.4948  0.8545 -0.4599
   30MOL0     H 3907   0.500   4.803   4.978  0.6257  0.6608 -1.1273
   30MOL0     H 3908   0.408   4.953   4.988  2.3679  0.4806  0.6193
   30MOL0     H 3909   0.238   4.824   5.108  1.7341  0.4636  0.5530
   30MOL0     H 3910   0.277   4.760   4.939 -3.1583 -2.4781  0.9809
   30MOL0     H 3911   0.334   4.656   5.231 -1.8393 -1.1177 -0.0294
   30MOL0     H 3912   0.433   4.600   5.104  0.8440  0.4087  1.0879
   30MOL0     H 3913   0.030   4.622   5.177  2.9984 -0.0545  1.8189
   30MOL0     H 3914  -0.120   4.405   4.913  1.8709 -0.0113  0.6720
   30MOL0     H 3915  -0.128   4.581   4.961 -0.0124  0.6254 -0.4597
   30MOL0     H 3916  -0.185   4.526   5.192  0.0647  0.8978 -0.4671
   30MOL0     H 3917  -0.147   4.351   5.168  4.1719  0.4117 -0.3888
   30MOL0     H 3918  -0.378   4.499   5.034 -0.0438  0.0739  0.9214
   30MOL0     H 3919  -0.332   4.318   5.042  0.2600 -0.5220  1.4990
   30MOL0     H 3920  -0.385   4.499   5.277 -1.1605  0.3242  0.3338
   30MOL0     H 3921  -0.385   4.331   5.288  2.2901  0.6021 -0.5095
   30MOL0     H 3922  -0.500   4.525   5.443  1.2669 -0.4248 -3.0972
   30MOL0     H 3923  -0.664   4.544   5.611  2.6200 -1.3962 -0.1610
   30MOL0     H 3924  -1.237   4.313   5.543  4.0734  0.4272  0.7928
   30MOL0     H 3925  -1.409   4.264   5.675 -1.9864  1.6968  0.1441
   30MOL0     H 3926  -1.605   4.566   5.852 -1.6541 -1.1077  0.4316
   30MOL0     H 3927  -1.552   4.568   6.021  0.3523 -0.9305  0.4083
   30MOL0     H 3928  -1.790   4.524   5.995 -2.9454 -1.3786 -1.2204
   30MOL0     H 3929  -1.702   4.382   6.073  4.4816  3.9414  1.8307
   30MOL0     H 3930  -1.769   4.380   5.778  0.8250 -0.1346 -0.1569
   30MOL0     H 3931  -1.893   4.357   5.896  0.5616  0.9324 -1.0546
   30MOL0     H 3932  -1.633   4.183   5.874  1.2717  0.4020  3.2506
   30MOL0     H 3933  -1.756   4.171   6.001 -1.2776 -2.3621 -1.3980
   30MOL0     H 3934  -1.804   4.019   5.812 -2.1369  0.6646 -0.7201
   30MOL0     H 3935  -1.797   4.156   5.702  1.7695 -2.3635 -0.7826
   30MOL0     H 3936  -2.013   4.046   5.735  1.1582 -1.3126  1.1879
   30MOL0     H 3937  -2.017   4.218   5.780 -0.2469  0.4317  0.2205
   30MOL0     H 3938  -1.959   4.004   5.995  0.0579 -0.1801 -1.1116
   30MOL0     H 3939  -2.022   4.167   6.020  1.0228 -0.8255  1.8487
   30MOL0     H 3940  -2.222   4.103   5.883  3.1496  0.4907 -1.8961
   30MOL0     H 3941  -2.207   4.049   6.051 -2.9871 -1.3342 -1.1209
   30MOL0     H 3942  -1.317   4.608   5.930 -0.7901  0.2750 -0.2256
   30MOL0     H 3943  -1.111   4.642   5.778  2.2096 -1.1371  1.4368
   30MOL0     H 3944  -0.975   4.403   5.334 -1.4595  0.7638  2.4591
   30MOL0     H 3945  -0.794   4.359   5.172  0.8621 -3.7121  2.1525
   30MOL0     H 3946   1.198   4.673   5.138 -2.0750 -0.0207 -0.5168
   30MOL0     H 3947   1.427   4.602   5.048  1.2496 -2.9672 -1.4995
   30MOL0     H 3948   1.718   4.739   4.545  0.8643  0.4403 -0.7551
   30MOL0     H 3949   1.968   4.686   4.515 -1.7074  4.1177  0.9631
   30MOL0     H 3950   2.212   4.622   4.679 -3.5063 -0.6115 -0.8887
   30MOL0     H 3951   2.178   4.524   4.532 -4.2859  1.6208  0.1049
   30MOL0     H 3952   2.299   4.426   4.797  1.2208 -1.1079  0.5954
   30MOL0     H 3953   2.306   4.333   4.650 -0.7088 -1.0454  1.4429
   30MOL0     H 3954   2.464   4.523   4.556  1.9457 -1.6054 -0.4592
   30MOL0     H 3955   2.531   4.420   4.680 -0.4919 -0.5354  1.2671
   30MOL0     H 3956   2.452   4.701   4.754 -2.2320 -1.1600  0.9314
   30MOL0     H 3957   2.467   4.571   4.868 -2.8647 -0.0775 -0.3076
   30MOL0     H 3958   2.864   4.687   4.789 -0.3378 -0.6544  2.7248
   30MOL0     H 3959   1.905   4.376   4.818  0.3221 -1.4786 -0.4644
   30MOL0     H 3960   1.671   4.439   4.821 -0.4253  1.5017  0.9123
   31MOL0     O 3961   3.654   7.292   0.096 -0.3963  1.0799 -0.3710
   31MOL0     C 3962   3.708   7.185   0.144  0.0260  0.3194  0.3659
   31MOL0     O 3963   3.645   7.100   0.234 -0.6815  0.1199 -0.0524
   31MOL0     C 3964   3.514   7.115   0.257 -1.0728 -0.0336 -0.5084
   31MOL0     C 3965   3.468   7.202   0.351 -0.1062  0.1366 -0.4143
   31MOL0     C 3966   3.333   7.217   0.359  0.0701  0.6965 -0.3650
   31MOL0     C 3967   3.240   7.135   0.292 -0.7227 -0.9660  0.5296
   31MOL0     O 3968   3.112   7.147   0.331  0.3649 -0.4328  0.6370
   31MOL0     C 3969   3.022   7.037   0.329 -0.5840 -0.0187 -0.2661
   31MOL0     C 3970   2.889   7.074   0.389  0.1569 -0.8663  0.2028
   31MOL0     C 3971   2.905   7.127   0.541 -0.5747  0.4147  0.2367
   31MOL0     C 3972   2.766   7.143   0.600  0.4498 -0.4294  0.2426
   31MOL0     C 3973   2.772   7.187   0.750 -0.6443  0.2710  0.1469
   31MOL0     C 3974   2.630   7.196   0.809 -0.4884  0.4324 -0.5647
   31MOL0     C 3975   2.630   7.209   0.968  0.2532 -0.2560  0.7109
   31MOL0     C 3976   2.483   7.220   1.012  0.6309 -0.6376 -0.0695
   31MOL0     N 3977   2.432   7.351   0.954  0.9541  0.0265 -0.7179
   31MOL0     C 3978   2.480   7.479   0.970  0.1008  0.8050  0.3999
   31MOL0     C 3979   2.415   7.560   0.895  1.5888  0.8484 -0.6872
   31MOL0     C 3980   2.459   7.694   0.868  0.1158  0.2034 -0.0173
   31MOL0     C 3981   2.355   7.775   0.785  0.1511  0.3071 -0.4653
   31MOL0     C 3982   2.400   7.924   0.765  0.4644 -0.4191 -0.2287
   31MOL0     C 3983   2.541   7.952   0.689  0.3151  0.5253  0.0369
   31MOL0     O 3984   2.554   7.861   0.577  0.3582  0.2921 -0.2050
   31MOL0     C 3985   2.632   7.897   0.473 -0.2301  0.1084 -0.2093
   31MOL0     C 3986   2.720   8.003   0.476 -0.3260  0.0762  0.0689
   31MOL0     C 3987   2.820   8.028   0.381 -0.1587 -0.6928  0.7727
   31MOL0     C 3988   2.815   7.947   0.264  0.3418 -0.3882 -0.5047
   31MOL0     C 3989   2.907   7.973   0.153 -0.0642 -0.2954  0.5075
   31MOL0     O 3990   2.876   7.912   0.033 -0.3605  0.2933  0.3856
   31MOL0     C 3991   2.965   7.909  -0.067 -0.3049 -0.0151  0.0743
   31MOL0     C 3992   2.996   8.032  -0.123  0.7336 -0.7974 -0.2612
   31MOL0     C 3993   3.081   8.048  -0.231 -0.1864 -0.0931  0.1677
   31MOL0     C 3994   3.134   7.939  -0.297  0.1322  0.3638 -0.3243
   31MOL0     O 3995   3.202   7.958  -0.415 -0.5975 -0.4119  0.6965
   31MOL0     C 3996   3.321   8.034  -0.424  0.5308 -0.2573 -1.0278
   31MOL0     C 3997   3.377   8.011  -0.558 -0.2760 -0.2712  1.0329
   31MOL0     C 3998   3.446   7.873  -0.571 -0.4747  0.0201 -0.0568
   31MOL0     C 3999   3.516   7.863  -0.698  0.0772 -0.0907 -0.0579
   31MOL0     C 4000   3.592   7.733  -0.706 -0.3645  0.3043  0.3818
   31MOL0     C 4001   3.688   7.727  -0.833  0.9990 -0.6341 -0.1351
   31MOL0     C 4002   3.615   7.774  -0.963  0.2790 -0.5559  0.2545
   31MOL0     C 4003   3.725   7.778  -1.075 -0.0984 -0.6219  1.0240
   31MOL0    Cl 4004   3.879   7.884  -1.053  0.1010 -0.3748  0.0223
   31MOL0     C 4005   3.095   7.812  -0.243  0.3765 -0.9268 -0.0214
   31MOL0     C 4006   3.019   7.794  -0.129  0.0893 -0.0957  0.1105
   31MOL0     O 4007   3.008   8.034   0.182 -0.3020 -0.1138  0.7445
   31MOL0     C 4008   2.714   7.849   0.247 -0.3442  1.0037 -0.0281
   31MOL0     C 4009   2.623   7.831   0.356 -0.0171 -0.0791  0.7082
   31MOL0     N 4010   2.322   7.485   0.829 -0.1771  0.5237  0.0657
   31MOL0     N 4011   2.329   7.354   0.867  0.3605 -0.0137  0.7050
   31MOL0     C 4012   3.286   7.048   0.189  0.1002  0.2677 -0.3881
   31MOL0     C 4013   3.426   7.044   0.172  0.3020  0.3776  0.4536
   31MOL0     C 4014   3.829   7.134   0.089  0.1803  0.7747  0.5810
   31MOL0     C 4015   3.833   7.125  -0.053 -0.1987 -0.2328  1.1048
   31MOL0     C 4016   3.930   7.053  -0.120  0.2080 -0.9135 -1.4468
   31MOL0     C 4017   4.030   6.982  -0.045  0.4773 -0.7023 -0.3188
   31MOL0     O 4018   4.134   6.921  -0.110 -0.1898 -0.5265  0.1854
   31MOL0     C 4019   4.195   6.817  -0.034  0.1130  0.3812 -0.1206
   31MOL0     C 4020   4.273   6.736  -0.149 -0.9118 -0.2649 -0.4269
   31MOL0     C 4021   4.287   6.587  -0.111 -0.0120  0.5437 -0.0740
   31MOL0     C 4022   4.348   6.512  -0.232  0.7975  0.6313 -0.2981
   31MOL0     C 4023   4.488   6.543  -0.253 -0.2170  1.1498 -0.2174
   31MOL0     C 4024   4.610   6.582  -0.265  0.3279  0.9853 -0.0756
   31MOL0     C 4025   4.039   7.015   0.093 -0.3802 -0.1005  0.7312
   31MOL0     C 4026   3.938   7.084   0.161 -0.2742 -1.2384 -0.3367
   31MOL0     H 4027   3.530   7.254   0.424 -0.4385  0.3407 -0.2792
   31MOL0     H 4028   3.297   7.285   0.435  2.9175  1.6633  0.2471
   31MOL0     H 4029   3.063   6.975   0.410  1.3996  2.4261  0.7486
   31MOL0     H 4030   2.995   6.986   0.236 -1.0250 -1.5546  0.6540
   31MOL0     H 4031   2.816   6.993   0.389  1.8620 -2.4650 -0.1060
   31MOL0     H 4032   2.840   7.148   0.324  2.0460 -0.4333 -0.8292
   31MOL0     H 4033   2.961   7.221   0.546 -0.2105  0.2427 -0.5109
   31MOL0     H 4034   2.969   7.058   0.596  0.7480  1.7170  0.4139
   31MOL0     H 4035   2.717   7.225   0.547  2.7037  0.3169 -0.8304
   31MOL0     H 4036   2.701   7.056   0.602 -2.5091  1.6558  1.9194
   31MOL0     H 4037   2.814   7.287   0.760  2.3257 -0.4281 -3.2216
   31MOL0     H 4038   2.837   7.115   0.798 -0.7996 -0.3925 -0.6084
   31MOL0     H 4039   2.565   7.110   0.788 -0.2673  0.4169 -1.1993
   31MOL0     H 4040   2.573   7.276   0.762 -2.4550 -1.9506 -2.5254
   31MOL0     H 4041   2.667   7.127   1.030 -1.4712 -0.9072  0.9353
   31MOL0     H 4042   2.695   7.295   0.990 -0.1681  0.1549  0.3838
   31MOL0     H 4043   2.478   7.214   1.122 -0.1435 -1.7966 -0.1560
   31MOL0     H 4044   2.424   7.134   0.979  1.6492 -0.0128 -3.9329
   31MOL0     H 4045   2.559   7.524   1.030  2.3750 -0.4408 -1.4898
   31MOL0     H 4046   2.554   7.671   0.819  0.8360 -1.6451  2.0799
   31MOL0     H 4047   2.469   7.751   0.961  2.4957  1.4362 -0.9389
   31MOL0     H 4048   2.258   7.767   0.834 -0.7599  0.1684 -2.2134
   31MOL0     H 4049   2.337   7.739   0.683  1.0905  2.3102 -1.3955
   31MOL0     H 4050   2.315   7.960   0.708 -0.2906  0.2009  1.2533
   31MOL0     H 4051   2.394   7.987   0.854  1.1064 -0.9394  0.1976
   31MOL0     H 4052   2.625   7.952   0.759  0.2504  2.3245  0.1839
   31MOL0     H 4053   2.541   8.059   0.664  0.8350 -0.2421 -3.7823
   31MOL0     H 4054   2.728   8.066   0.564  0.1962 -1.5705  1.2532
   31MOL0     H 4055   2.888   8.112   0.383  1.1258 -1.6099 -1.2050
   31MOL0     H 4056   2.949   8.124  -0.089 -1.4671 -1.4005 -1.4507
   31MOL0     H 4057   3.110   8.146  -0.268  0.3683  0.9106  3.0375
   31MOL0     H 4058   3.383   7.996  -0.342 -1.9397 -0.0126  1.0660
   31MOL0     H 4059   3.308   8.142  -0.416  1.9100 -0.1419  0.1463
   31MOL0     H 4060   3.456   8.086  -0.560  1.6570 -2.2248 -0.9040
   31MOL0     H 4061   3.299   8.015  -0.635  0.7997 -0.3704 -0.0861
   31MOL0     H 4062   3.372   7.792  -0.571  1.1317 -1.5909 -2.3541
   31MOL0     H 4063   3.518   7.864  -0.489  1.7894  3.4405 -1.4671
   31MOL0     H 4064   3.443   7.872  -0.779 -0.2176  0.6175  0.2739
   31MOL0     H 4065   3.584   7.949  -0.708 -0.6628  0.3628 -1.6607
   31MOL0     H 4066   3.532   7.642  -0.703 -0.2688  0.1652 -1.2290
   31MOL0     H 4067   3.654   7.740  -0.616  2.3481 -0.3237 -1.3393
   31MOL0     H 4068   3.735   7.628  -0.839  1.6663 -0.2955 -0.6431
   31MOL0     H 4069   3.766   7.798  -0.807 -1.3565  1.1224  2.6657
   31MOL0     H 4070   3.529   7.718  -0.999  0.5526 -0.2707 -0.8598
   31MOL0     H 4071   3.587   7.879  -0.951  2.4672  0.2258 -0.9946
   31MOL0     H 4072   3.670   7.807  -1.164 -0.2745  0.2452  1.4014
   31MOL0     H 4073   3.766   7.677  -1.086  2.9148  0.2582  2.8618
   31MOL0     H 4074   3.119   7.728  -0.307  1.2213 -0.0281 -0.9345
   31MOL0     H 4075   2.979   7.703  -0.084  2.1489 -0.8337  0.5898
   31MOL0     H 4076   2.688   7.803   0.152  0.7930  3.1537 -1.4635
   31MOL0     H 4077   2.555   7.748   0.339  0.4902 -0.0231 -2.2996
   31MOL0     H 4078   3.213   6.984   0.140 -0.5022  0.0352  0.7916
   31MOL0     H 4079   3.461   6.971   0.101 -0.2399 -0.3739  0.9416
   31MOL0     H 4080   3.753   7.153  -0.121  0.0954 -0.2151  0.7640
   31MOL0     H 4081   3.918   7.040  -0.227  3.5963 -0.8206 -1.9285
   31MOL0     H 4082   4.124   6.763   0.030  0.2409  1.3750  0.8895
   31MOL0     H 4083   4.279   6.856   0.024  2.1232 -2.1587 -1.0892
   31MOL0     H 4084   4.203   6.725  -0.232 -0.8367 -2.6064 -0.2512
   31MOL0     H 4085   4.370   6.784  -0.163  0.3824 -2.3371  0.8639
   31MOL0     H 4086   4.187   6.550  -0.087 -0.1182  1.5156  1.0920
   31MOL0     H 4087   4.355   6.574  -0.027 -1.2733  2.3067  1.2899
   31MOL0     H 4088   4.342   6.406  -0.206  0.0846  1.1639  1.9140
   31MOL0     H 4089   4.294   6.529  -0.326 -1.8618  1.3981  1.2616
   31MOL0     H 4090   4.714   6.608  -0.260  0.3595  1.3643 -2.1477
   31MOL0     H 4091   4.120   6.967   0.146 -0.4175  1.3982  2.2102
   31MOL0     H 4092   3.932   7.103   0.267 -0.2291 -0.9372 -0.3875
   32MOL0     O 4093   5.032   8.583   9.511  0.0014  0.8773 -0.5018
   32MOL0     C 4094   5.066   8.497   9.431 -0.3619  0.7326  0.7285
   32MOL0     O 4095   4.991   8.411   9.361  0.0038 -0.5375  0.7338
   32MOL0     C 4096   4.856   8.434   9.365  0.0148  0.3573  0.6496
   32MOL0     C 4097   4.797   8.463   9.243  0.4946  0.1412  0.7182
   32MOL0     C 4098   4.658   8.483   9.235  1.1101  0.0722 -1.4550
   32MOL0     C 4099   4.579   8.481   9.349  0.6162 -0.6639  0.0138
   32MOL0     O 4100   4.441   8.487   9.337 -0.6551  0.3650  0.3777
   32MOL0     C 4101   4.363   8.541   9.447 -0.3556  0.4432  0.1088
   32MOL0     C 4102   4.304   8.670   9.379  0.6953  0.4293  0.4595
   32MOL0     C 4103   4.185   8.732   9.451  0.5173  0.5452 -0.2716
   32MOL0     C 4104   4.216   8.741   9.599  0.4686  0.7820  0.0105
   32MOL0     C 4105   4.100   8.807   9.661 -0.1354 -0.1661  0.5033
   32MOL0     C 4106   4.133   8.833   9.804 -0.1810  1.1032 -0.1521
   32MOL0     C 4107   4.020   8.920   9.850  0.5148 -0.5726  0.2879
   32MOL0     C 4108   4.028   8.939   9.997 -0.3083  0.2954  0.7454
   32MOL0     N 4109   3.915   9.023  10.038 -0.1466  0.2012 -0.1939
   32MOL0     C 4110   3.894   9.159  10.006  0.3934  0.3452 -0.0606
   32MOL0     C 4111   3.774   9.182  10.060 -1.2908 -1.2442  0.3546
   32MOL0     C 4112   3.695   9.301  10.052  0.1517 -0.0073 -0.6525
   32MOL0     C 4113   3.629   9.334  10.182 -0.1009  0.0928  1.0284
   32MOL0     C 4114   3.539   9.463  10.184  0.6865 -0.2078  0.1349
   32MOL0     C 4115   3.513   9.489  10.337 -0.0697  0.4881  0.3715
   32MOL0     O 4116   3.368   9.483  10.355 -0.7445 -0.6040 -0.2862
   32MOL0     C 4117   3.311   9.388  10.426 -0.0950  0.5860 -0.2868
   32MOL0     C 4118   3.299   9.404  10.563 -0.3690 -0.5185  0.5561
   32MOL0     C 4119   3.202   9.332  10.633  0.1598 -0.0202 -0.2277
   32MOL0     C 4120   3.138   9.218  10.580 -0.3380 -0.4284  0.2841
   32MOL0     C 4121   3.051   9.122  10.651  0.4301  0.7706  0.3080
   32MOL0     O 4122   3.050   9.146  10.784  0.1789 -0.1392  0.5234
   32MOL0     C 4123   2.970   9.059  10.852  0.2087  0.6232 -0.0573
   32MOL0     C 4124   2.845   9.093  10.903 -1.2812 -0.4956  0.3118
   32MOL0     C 4125   2.781   9.014  10.993  0.5971 -0.1953  0.4859
   32MOL0     C 4126   2.822   8.890  11.031 -0.8789  0.6718  0.2151
   32MOL0     O 4127   2.761   8.810  11.129 -0.5284 -0.6541  0.3037
   32MOL0     C 4128   2.631   8.775  11.087  0.9471  0.3794 -0.1761
   32MOL0     C 4129   2.542   8.715  11.202  0.4834 -0.6138 -0.5811
   32MOL0     C 4130   2.427   8.635  11.147  1.1943  0.2514 -1.0277
   32MOL0     C 4131   2.321   8.713  11.073  1.3227  0.4340  0.6018
   32MOL0     C 4132   2.206   8.632  11.022  0.3607  0.8977 -0.1654
   32MOL0     C 4133   2.100   8.715  10.958  1.0313 -0.2136 -1.1768
   32MOL0     C 4134   1.994   8.634  10.877  1.9897  0.6790 -0.3794
   32MOL0     C 4135   1.916   8.526  10.952  0.2862 -0.8193 -1.4494
   32MOL0    Cl 4136   1.999   8.362  10.933  0.1807  0.1630 -0.3629
   32MOL0     C 4137   2.945   8.848  10.980 -0.1306 -0.5369  0.4365
   32MOL0     C 4138   3.019   8.933  10.895  0.3472 -0.5501 -0.5423
   32MOL0     O 4139   2.976   9.047  10.588  0.4677 -0.6481  0.7638
   32MOL0     C 4140   3.170   9.190  10.448  0.9928 -0.6856 -0.0509
   32MOL0     C 4141   3.244   9.280  10.371  0.1061 -0.8235  0.6734
   32MOL0     N 4142   3.722   9.062  10.104  0.4446 -0.5050  0.5527
   32MOL0     N 4143   3.804   8.962  10.098  0.5473 -0.5899  0.5405
   32MOL0     C 4144   4.648   8.453   9.470  0.7727  0.1721 -0.0284
   32MOL0     C 4145   4.779   8.434   9.482  0.0780 -0.1942  0.2812
   32MOL0     C 4146   5.210   8.498   9.409  0.9658  0.2334 -0.1688
   32MOL0     C 4147   5.275   8.378   9.389 -0.0544 -0.3662 -0.7932
   32MOL0     C 4148   5.415   8.383   9.358 -0.3636 -0.4612  0.7148
   32MOL0     C 4149   5.480   8.509   9.348  0.5689 -0.0733 -0.4578
   32MOL0     O 4150   5.619   8.526   9.322  0.8356  0.2910 -0.2033
   32MOL0     C 4151   5.712   8.414   9.318 -0.0035 -0.4986 -0.0173
   32MOL0     C 4152   5.695   8.362   9.173  0.3605 -0.3155  0.5915
   32MOL0     C 4153   5.732   8.468   9.068  0.1747 -0.1199  0.1215
   32MOL0     C 4154   5.715   8.406   8.925 -0.7736  0.3508 -0.2895
   32MOL0     C 4155   5.745   8.512   8.825  1.1163  0.3481  0.1932
   32MOL0     C 4156   5.734   8.599   8.739  0.5230 -0.0749 -0.3975
   32MOL0     C 4157   5.409   8.625   9.376  0.3855 -0.4413 -0.8333
   32MOL0     C 4158   5.277   8.614   9.406 -0.9403 -0.5809 -0.1565
   32MOL0     H 4159   4.857   8.457   9.153 -3.6209 -0.6918 -2.2963
   32MOL0     H 4160   4.610   8.527   9.148 -1.7005  3.1262  1.3271
   32MOL0     H 4161   4.432   8.574   9.525  2.0606  0.1243 -1.7779
   32MOL0     H 4162   4.284   8.476   9.487  0.0379  0.6521  1.2548
   32MOL0     H 4163   4.265   8.651   9.279 -0.2657  3.8738  0.0425
   32MOL0     H 4164   4.390   8.738   9.371  0.5279  0.8793  2.0320
   32MOL0     H 4165   4.090   8.681   9.438  1.5982 -1.9850  1.0425
   32MOL0     H 4166   4.181   8.836   9.418  1.1252 -0.4248 -3.7797
   32MOL0     H 4167   4.233   8.641   9.641 -0.7598  0.4871 -0.1674
   32MOL0     H 4168   4.305   8.802   9.618 -0.1351  1.8581 -0.5608
   32MOL0     H 4169   4.011   8.744   9.649 -1.0051  1.5837 -3.9491
   32MOL0     H 4170   4.075   8.905   9.621  0.7651  0.1226  0.6225
   32MOL0     H 4171   4.229   8.879   9.828  0.1639 -1.4579  4.8542
   32MOL0     H 4172   4.130   8.740   9.861  3.4053 -0.7259 -2.6656
   32MOL0     H 4173   4.028   9.017   9.801 -4.7906 -0.9077 -1.9347
   32MOL0     H 4174   3.921   8.885   9.822 -0.0492  1.9703 -1.1231
   32MOL0     H 4175   4.123   8.980  10.031  0.2564  0.2596 -0.7218
   32MOL0     H 4176   4.008   8.841  10.041  0.4245 -0.7410 -1.1164
   32MOL0     H 4177   3.957   9.222   9.945  0.7309 -0.1398 -0.2223
   32MOL0     H 4178   3.618   9.292   9.976 -1.8618  0.6797  1.2083
   32MOL0     H 4179   3.761   9.383  10.020  1.1888 -0.1226  1.0297
   32MOL0     H 4180   3.696   9.345  10.267 -3.0988 -0.6417  3.6789
   32MOL0     H 4181   3.555   9.256  10.200 -3.2978  2.0573 -2.2518
   32MOL0     H 4182   3.595   9.552  10.153  0.8306  0.9660  3.4179
   32MOL0     H 4183   3.448   9.449  10.124  0.7920 -0.3387  0.0038
   32MOL0     H 4184   3.556   9.585  10.369  2.5419 -0.2113 -0.8175
   32MOL0     H 4185   3.558   9.413  10.401  0.6641 -0.6610 -1.4493
   32MOL0     H 4186   3.359   9.475  10.619 -1.9014  1.7823 -0.5849
   32MOL0     H 4187   3.175   9.334  10.738  2.5373 -0.5400  0.4604
   32MOL0     H 4188   2.805   9.189  10.874 -1.9113 -0.8165  0.0949
   32MOL0     H 4189   2.686   9.045  11.037  0.8054 -1.7277  2.1170
   32MOL0     H 4190   2.649   8.713  10.999  1.3058  0.3270 -0.0672
   32MOL0     H 4191   2.574   8.864  11.058  2.8089  0.3056 -4.9716
   32MOL0     H 4192   2.501   8.799  11.260 -2.5522 -1.0722 -1.8545
   32MOL0     H 4193   2.610   8.650  11.258  0.2599  0.7029  1.3482
   32MOL0     H 4194   2.363   8.603  11.230 -1.7725  1.8585 -2.5065
   32MOL0     H 4195   2.461   8.549  11.089  0.1496 -0.7439 -0.2044
   32MOL0     H 4196   2.285   8.792  11.140 -1.6245  0.3051 -0.6863
   32MOL0     H 4197   2.371   8.759  10.987 -2.3453  2.6876 -0.5833
   32MOL0     H 4198   2.152   8.575  11.098  0.8655  1.2630  0.4773
   32MOL0     H 4199   2.241   8.570  10.939 -3.2210 -1.6583 -0.0191
   32MOL0     H 4200   2.151   8.791  10.897 -0.7530  2.8756  0.9012
   32MOL0     H 4201   2.050   8.777  11.033 -1.3647 -1.7639 -1.3805
   32MOL0     H 4202   1.920   8.695  10.824 -0.3645  1.1886  3.1352
   32MOL0     H 4203   2.053   8.574  10.807  2.3195  1.3445 -0.6834
   32MOL0     H 4204   1.823   8.520  10.895  0.0136  2.0638 -1.4588
   32MOL0     H 4205   1.896   8.540  11.059 -1.3017 -2.1540 -1.5407
   32MOL0     H 4206   2.986   8.752  11.011  1.0363 -0.4337 -0.6940
   32MOL0     H 4207   3.120   8.905  10.866  0.0595 -0.7425 -1.3873
   32MOL0     H 4208   3.114   9.105  10.410  0.4678 -2.2747  3.8044
   32MOL0     H 4209   3.270   9.264  10.267 -0.3857  2.0763  0.0209
   32MOL0     H 4210   4.578   8.446   9.553  2.5567 -0.2614  1.5264
   32MOL0     H 4211   4.826   8.396   9.572  2.9468  2.7982  0.2303
   32MOL0     H 4212   5.219   8.290   9.419 -3.5322  1.6647 -0.7674
   32MOL0     H 4213   5.465   8.287   9.349 -0.8458 -0.6085 -0.5501
   32MOL0     H 4214   5.677   8.326   9.373  1.0189 -2.8343 -2.8500
   32MOL0     H 4215   5.817   8.434   9.341 -0.6628 -0.4382  3.5705
   32MOL0     H 4216   5.761   8.274   9.164  0.9164 -0.0313  1.7217
   32MOL0     H 4217   5.593   8.324   9.159  0.6299 -0.9255  0.2230
   32MOL0     H 4218   5.837   8.497   9.081  0.4318 -1.8407  2.5958
   32MOL0     H 4219   5.665   8.555   9.072 -0.1891 -0.4551  1.6307
   32MOL0     H 4220   5.795   8.332   8.913  0.7853  1.6663  1.3345
   32MOL0     H 4221   5.616   8.362   8.913 -0.3170 -0.4763 -1.1794
   32MOL0     H 4222   5.692   8.658   8.661  1.0032 -0.8554 -1.2718
   32MOL0     H 4223   5.442   8.728   9.392  0.1735 -0.0549 -2.6350
   32MOL0     H 4224   5.220   8.705   9.425 -0.3861  0.5234 -3.1578
   33MOL0     O 4225   7.930   5.175   4.020 -1.1590 -1.1838  0.0694
   33MOL0     C 4226   7.833   5.128   3.962 -0.2237 -0.2740 -0.9425
   33MOL0     O 4227   7.730   5.203   3.909 -0.5154  0.1151  0.8728
   33MOL0     C 4228   7.740   5.339   3.913 -0.7004 -0.2730 -0.1209
   33MOL0     C 4229   7.847   5.417   3.855  0.6255 -0.0765 -0.3251
   33MOL0     C 4230   7.868   5.549   3.884 -0.5873 -1.0037 -0.3535
   33MOL0     C 4231   7.782   5.620   3.956  0.0118  0.0799 -0.0624
   33MOL0     O 4232   7.804   5.756   3.968 -0.7110  0.2675  1.0156
   33MOL0     C 4233   7.711   5.854   3.931  0.1710 -0.2862  0.0954
   33MOL0     C 4234   7.684   5.854   3.773 -1.5863 -0.3794  0.2311
   33MOL0     C 4235   7.578   5.763   3.722  0.6139  0.2819 -0.1799
   33MOL0     C 4236   7.534   5.819   3.592  0.2610 -0.3261  0.5214
   33MOL0     C 4237   7.430   5.728   3.521 -0.3868  1.0264  0.9601
   33MOL0     C 4238   7.340   5.790   3.409  1.7008 -0.2690 -0.4028
   33MOL0     C 4239   7.251   5.911   3.448  0.7657  0.2460 -0.1808
   33MOL0     C 4240   7.122   5.868   3.523  0.4710 -0.1989  0.4793
   33MOL0     N 4241   7.161   5.860   3.661  0.7932  0.1095  0.0153
   33MOL0     C 4242   7.162   5.756   3.739 -0.3352  0.2135 -0.1494
   33MOL0     C 4243   7.209   5.800   3.855  0.4622 -0.3564 -0.1887
   33MOL0     C 4244   7.214   5.719   3.983  0.1264  0.8347 -0.1438
   33MOL0     C 4245   7.289   5.585   3.966 -0.9042 -0.4747 -0.1899
   33MOL0     C 4246   7.304   5.514   4.107  1.1704  0.7017  0.4083
   33MOL0     C 4247   7.176   5.433   4.148 -0.6636 -0.6542  0.5953
   33MOL0     O 4248   7.225   5.325   4.227 -0.3003 -0.5141  0.2442
   33MOL0     C 4249   7.128   5.262   4.288 -0.0461  1.0622 -0.8423
   33MOL0     C 4250   7.085   5.279   4.428  0.9815  0.0319 -0.5696
   33MOL0     C 4251   6.974   5.194   4.483 -0.4397 -0.6980  0.6891
   33MOL0     C 4252   6.890   5.121   4.395 -0.8162 -0.5449  0.0291
   33MOL0     C 4253   6.752   5.081   4.431  0.7530  0.8602  0.1223
   33MOL0     O 4254   6.665   5.045   4.323 -0.3649  0.4432 -1.1384
   33MOL0     C 4255   6.540   5.018   4.370  0.8181 -0.6504  0.6300
   33MOL0     C 4256   6.442   5.126   4.371 -0.5182  0.8086 -0.2562
   33MOL0     C 4257   6.312   5.098   4.410 -0.2231  0.7456  0.7238
   33MOL0     C 4258   6.267   4.979   4.463  0.1942 -0.0903 -0.1563
   33MOL0     O 4259   6.138   4.965   4.506 -0.2534 -0.2658  0.1452
   33MOL0     C 4260   6.028   5.049   4.458 -0.6293 -0.3092  0.8042
   33MOL0     C 4261   5.900   4.998   4.510 -0.5900 -0.7006 -0.4580
   33MOL0     C 4262   5.862   4.870   4.442 -0.3443 -0.3142 -0.8826
   33MOL0     C 4263   5.838   4.887   4.298  0.0552  0.6287 -0.0073
   33MOL0     C 4264   5.742   4.786   4.242  0.1791  0.0536  0.0886
   33MOL0     C 4265   5.711   4.800   4.103  0.1294  0.1427  0.3183
   33MOL0     C 4266   5.601   4.904   4.081 -0.1404  0.2243 -0.1310
   33MOL0     C 4267   5.559   4.902   3.932  0.6469  0.1727 -0.0932
   33MOL0    Cl 4268   5.443   4.769   3.884  0.3881  0.0428  0.3300
   33MOL0     C 4269   6.362   4.876   4.475 -0.0568 -0.5742  0.1253
   33MOL0     C 4270   6.488   4.891   4.412 -0.9062 -0.3160 -0.3892
   33MOL0     O 4271   6.732   5.064   4.551  0.8635 -0.1046  0.4341
   33MOL0     C 4272   6.931   5.114   4.260  0.2562 -0.6473  0.5080
   33MOL0     C 4273   7.060   5.175   4.213 -0.3366  0.4830 -0.0281
   33MOL0     N 4274   7.240   5.937   3.841 -0.7197  0.0722  0.7104
   33MOL0     N 4275   7.215   5.976   3.725 -0.0501  0.4547 -0.0090
   33MOL0     C 4276   7.668   5.555   4.004 -0.6121  0.5525 -0.0652
   33MOL0     C 4277   7.645   5.415   3.994  0.2015 -0.0430 -0.3859
   33MOL0     C 4278   7.831   4.983   3.914  0.2791 -0.9467  0.0569
   33MOL0     C 4279   7.709   4.926   3.864 -0.4801  0.3568 -0.3393
   33MOL0     C 4280   7.695   4.788   3.863  0.6692  0.9490 -0.0897
   33MOL0     C 4281   7.798   4.704   3.894  0.3441  0.7390 -0.4089
   33MOL0     O 4282   7.768   4.565   3.904  0.8177 -0.3479  0.6048
   33MOL0     C 4283   7.779   4.516   4.036 -0.8820 -0.6923  0.4912
   33MOL0     C 4284   7.725   4.375   4.043 -0.7393  0.2694 -0.7251
   33MOL0     C 4285   7.751   4.284   3.918  0.0407 -0.2128  0.0357
   33MOL0     C 4286   7.828   4.159   3.973  0.5654 -0.1719  0.0606
   33MOL0     C 4287   7.945   4.192   4.046  0.1743  0.5090 -0.3677
   33MOL0     C 4288   8.041   4.235   4.108  0.3041  0.9502  0.4268
   33MOL0     C 4289   7.919   4.759   3.923  0.2761 -0.3873  0.0827
   33MOL0     C 4290   7.937   4.896   3.940  0.0853  1.0203  0.3170
   33MOL0     H 4291   7.922   5.352   3.811  1.2786 -1.1314  2.1949
   33MOL0     H 4292   7.955   5.600   3.845  0.2521 -0.3342  2.2209
   33MOL0     H 4293   7.747   5.955   3.953  3.5685 -1.1357 -1.0670
   33MOL0     H 4294   7.619   5.835   3.987  1.4818  1.9014  3.3136
   33MOL0     H 4295   7.776   5.836   3.717 -0.0997  2.5258  1.5375
   33MOL0     H 4296   7.663   5.956   3.740  0.7818 -0.1334 -0.7442
   33MOL0     H 4297   7.494   5.779   3.790  0.7885  1.0860 -0.1368
   33MOL0     H 4298   7.596   5.655   3.720  1.5478  0.2667  3.0135
   33MOL0     H 4299   7.480   5.913   3.603 -2.7982 -1.4242 -3.0448
   33MOL0     H 4300   7.613   5.843   3.520 -1.9359  1.4608 -1.4486
   33MOL0     H 4301   7.373   5.670   3.594  2.5216  0.5747  3.0375
   33MOL0     H 4302   7.476   5.638   3.477 -3.3728  0.1637 -0.7074
   33MOL0     H 4303   7.274   5.713   3.366  0.0480  0.4230  0.7635
   33MOL0     H 4304   7.400   5.816   3.322 -0.3228 -2.7109 -2.6934
   33MOL0     H 4305   7.314   5.992   3.485  0.1257  2.5478 -3.6849
   33MOL0     H 4306   7.226   5.956   3.352 -1.1327 -0.0146  0.1601
   33MOL0     H 4307   7.074   5.779   3.481  0.4009  0.2725 -0.4656
   33MOL0     H 4308   7.049   5.949   3.512  1.8950  0.7489 -6.3685
   33MOL0     H 4309   7.120   5.658   3.721 -3.0437  1.3952 -0.6652
   33MOL0     H 4310   7.110   5.698   4.009 -1.0542  0.2723 -4.5299
   33MOL0     H 4311   7.272   5.768   4.061  1.7481 -0.1564 -0.6612
   33MOL0     H 4312   7.391   5.608   3.933 -1.1423 -1.3062 -1.5972
   33MOL0     H 4313   7.227   5.518   3.905 -1.0992  0.1063 -0.6441
   33MOL0     H 4314   7.384   5.439   4.108 -1.3197 -2.1506 -0.0995
   33MOL0     H 4315   7.330   5.591   4.180 -0.7852  0.8910  0.9557
   33MOL0     H 4316   7.138   5.395   4.053 -1.5014 -2.9264  1.7582
   33MOL0     H 4317   7.107   5.499   4.200  1.1656  1.6717  0.2463
   33MOL0     H 4318   7.143   5.344   4.494  1.1020 -2.0604  1.5257
   33MOL0     H 4319   6.951   5.192   4.589  1.3287  1.9444  1.2201
   33MOL0     H 4320   6.471   5.229   4.352 -0.3602  1.0341  1.1020
   33MOL0     H 4321   6.234   5.172   4.401 -1.7146 -0.8429  0.0957
   33MOL0     H 4322   6.033   5.062   4.350 -1.1090  0.9897  0.9181
   33MOL0     H 4323   6.053   5.146   4.502  0.6174 -0.3475  0.2179
   33MOL0     H 4324   5.830   5.082   4.499  0.1638  0.2478  1.5089
   33MOL0     H 4325   5.915   4.995   4.619 -0.4124  2.6645 -0.2959
   33MOL0     H 4326   5.769   4.843   4.494 -0.2428  3.9055  1.9769
   33MOL0     H 4327   5.931   4.787   4.457 -2.0843 -1.9397 -1.4420
   33MOL0     H 4328   5.792   4.984   4.278  1.9271  1.4570 -0.4971
   33MOL0     H 4329   5.933   4.890   4.245  2.1116 -1.5127  3.1630
   33MOL0     H 4330   5.649   4.782   4.300 -1.6059 -0.8401 -2.6412
   33MOL0     H 4331   5.788   4.689   4.263  2.7382  0.8696 -1.3097
   33MOL0     H 4332   5.663   4.708   4.069 -2.0122  1.9524 -2.0282
   33MOL0     H 4333   5.806   4.818   4.051 -0.7242  3.7950 -0.3009
   33MOL0     H 4334   5.516   4.887   4.148 -0.4963 -2.7565 -1.1662
   33MOL0     H 4335   5.639   5.004   4.105 -0.4249 -0.1811  2.1542
   33MOL0     H 4336   5.647   4.906   3.868 -0.6569  3.8696 -1.9263
   33MOL0     H 4337   5.518   5.002   3.913 -0.5587 -0.5816 -1.7028
   33MOL0     H 4338   6.331   4.780   4.515 -2.2097 -0.3212 -0.8109
   33MOL0     H 4339   6.560   4.811   4.407 -0.8002 -0.1527 -3.3252
   33MOL0     H 4340   6.872   5.051   4.193  1.6386 -2.1516  0.6354
   33MOL0     H 4341   7.078   5.172   4.106 -0.9237 -0.1490 -0.1144
   33MOL0     H 4342   7.609   5.623   4.065 -0.7228  0.9904 -0.6580
   33MOL0     H 4343   7.569   5.355   4.043  2.4197 -1.2229  1.7757
   33MOL0     H 4344   7.626   4.996   3.853 -0.5242  0.5270  0.9913
   33MOL0     H 4345   7.596   4.757   3.833 -1.0072  2.7548  3.0034
   33MOL0     H 4346   7.725   4.577   4.109  0.4843  1.4302 -0.1739
   33MOL0     H 4347   7.880   4.527   4.075 -1.0678  1.5881  0.4633
   33MOL0     H 4348   7.755   4.337   4.141 -0.7295 -1.9541 -1.5377
   33MOL0     H 4349   7.617   4.376   4.063 -0.4223  2.8612  1.5478
   33MOL0     H 4350   7.811   4.340   3.846  0.4410 -0.3781  0.2347
   33MOL0     H 4351   7.658   4.260   3.866  0.9222  0.3674 -1.8901
   33MOL0     H 4352   7.757   4.115   4.043 -1.2217 -0.3506 -1.7687
   33MOL0     H 4353   7.850   4.086   3.894  2.8351  0.0656  0.4025
   33MOL0     H 4354   8.131   4.260   4.162  1.6557 -0.3980 -1.0816
   33MOL0     H 4355   7.994   4.684   3.947 -2.2277 -3.7374 -1.6982
   33MOL0     H 4356   8.035   4.935   3.968  1.2903 -1.6241  0.0102
   34MOL0     O 4357   5.729  10.384  10.922 -0.1852 -0.0654 -0.1641
   34MOL0     C 4358   5.850  10.357  10.907 -0.5477 -0.4010 -0.7583
   34MOL0     O 4359   5.948  10.403  10.997  0.1975 -0.4446  0.1742
   34MOL0     C 4360   5.921  10.510  11.083 -0.4644 -0.5476  0.6135
   34MOL0     C 4361   6.001  10.630  11.093 -0.7235  1.0707  0.5850
   34MOL0     C 4362   5.972  10.737  11.184 -0.2765  1.2821 -0.1063
   34MOL0     C 4363   5.869  10.726  11.271 -0.3504  0.3658  1.0110
   34MOL0     O 4364   5.835  10.818  11.368 -0.0933  0.0435 -0.1959
   34MOL0     C 4365   5.932  10.910  11.411  0.0747  0.2333 -0.5757
   34MOL0     C 4366   5.888  11.000  11.529  0.6959 -0.0796 -0.7369
   34MOL0     C 4367   5.768  11.096  11.506  0.4123 -0.2494 -0.0851
   34MOL0     C 4368   5.744  11.216  11.593 -0.0541  0.0564 -0.1241
   34MOL0     C 4369   5.604  11.280  11.565  0.3096  0.1895 -0.1347
   34MOL0     C 4370   5.561  11.399  11.657 -0.4348 -0.8996 -0.4157
   34MOL0     C 4371   5.578  11.365  11.816  1.2306  0.6358 -0.1818
   34MOL0     C 4372   5.505  11.472  11.908 -0.2064  0.3170  1.6911
   34MOL0     N 4373   5.525  11.454  12.054  0.4382 -0.1246 -0.2411
   34MOL0     C 4374   5.638  11.487  12.120 -0.7361 -0.5915  0.2044
   34MOL0     C 4375   5.613  11.455  12.243  0.1948  0.2216  0.3347
   34MOL0     C 4376   5.706  11.486  12.351 -0.2987 -0.1323 -0.0068
   34MOL0     C 4377   5.726  11.630  12.384  0.3395  0.2695  0.4238
   34MOL0     C 4378   5.858  11.667  12.465  0.7815 -0.3115  0.3552
   34MOL0     C 4379   5.849  11.670  12.621  0.1087 -0.4217 -0.7894
   34MOL0     O 4380   5.970  11.715  12.684  0.1680 -0.1952 -0.2259
   34MOL0     C 4381   5.995  11.847  12.715 -0.0327 -0.0702  0.4260
   34MOL0     C 4382   6.128  11.883  12.760  0.4503 -0.2170 -0.5936
   34MOL0     C 4383   6.160  12.021  12.790  0.4605 -0.7223  0.3811
   34MOL0     C 4384   6.062  12.117  12.790  0.2599  0.7126 -0.0863
   34MOL0     C 4385   6.089  12.261  12.811  0.3846 -1.2554  0.2239
   34MOL0     O 4386   6.004  12.350  12.751 -1.1014  0.4332 -0.1371
   34MOL0     C 4387   6.021  12.488  12.774 -0.8124  0.1331 -0.5476
   34MOL0     C 4388   5.910  12.564  12.798  0.5617  0.1483  0.0849
   34MOL0     C 4389   5.923  12.700  12.835  0.4182  0.6760 -0.3082
   34MOL0     C 4390   6.044  12.767  12.822  0.3176  0.3669  0.0516
   34MOL0     O 4391   6.042  12.903  12.819  0.0556 -0.1694 -0.2219
   34MOL0     C 4392   6.066  12.951  12.951  0.6680  0.0494 -0.2797
   34MOL0     C 4393   5.992  13.078  12.969  0.4194  0.0249  0.2189
   34MOL0     C 4394   6.031  13.197  12.879  0.3991  0.2388 -1.2256
   34MOL0     C 4395   6.180  13.232  12.869 -0.9749 -0.1790  0.1262
   34MOL0     C 4396   6.240  13.279  12.999  0.4291  0.2583 -0.5425
   34MOL0     C 4397   6.392  13.273  12.996 -0.2574 -0.0757 -0.0361
   34MOL0     C 4398   6.472  13.363  13.104  1.0257 -0.7117  0.5626
   34MOL0     C 4399   6.614  13.386  13.052  0.1564  0.3174 -0.0356
   34MOL0    Cl 4400   6.616  13.508  12.934 -0.4212 -0.6168 -0.5890
   34MOL0     C 4401   6.156  12.690  12.791 -0.0954 -0.1779 -0.0993
   34MOL0     C 4402   6.143  12.555  12.779 -0.3351 -0.7754  0.2416
   34MOL0     O 4403   6.168  12.285  12.894  0.1168  0.2159  0.7805
   34MOL0     C 4404   5.924  12.086  12.762 -0.4885  0.4594 -0.4396
   34MOL0     C 4405   5.898  11.952  12.722 -0.4854 -1.3461 -0.6469
   34MOL0     N 4406   5.497  11.388  12.251  0.3239 -0.3266 -0.7594
   34MOL0     N 4407   5.441  11.392  12.138  0.2174 -0.3124 -0.5697
   34MOL0     C 4408   5.782  10.618  11.257  0.7450 -0.4287 -0.5369
   34MOL0     C 4409   5.813  10.506  11.174 -0.2391 -0.0241  0.2109
   34MOL0     C 4410   5.896  10.270  10.796 -0.3047 -0.1106  0.2854
   34MOL0     C 4411   6.013  10.186  10.800  1.0609  0.5326 -0.0934
   34MOL0     C 4412   6.046  10.104  10.689 -0.1151  0.2476 -0.4019
   34MOL0     C 4413   5.970  10.094  10.571  0.4253 -0.7538  1.0309
   34MOL0     O 4414   6.003  10.012  10.467  0.1902  0.1752  0.2720
   34MOL0     C 4415   6.090   9.897  10.494  0.9961 -0.0747 -0.4853
   34MOL0     C 4416   6.094   9.809  10.366  0.3960 -0.7560 -0.7429
   34MOL0     C 4417   6.135   9.892  10.237  0.8837  0.6693  0.1734
   34MOL0     C 4418   6.272   9.914  10.220  0.4904  0.6738  0.2938
   34MOL0     C 4419   6.364   9.803  10.220 -0.0819  0.0916  0.2853
   34MOL0     C 4420   6.448   9.713  10.231 -0.7724 -0.8956  0.9151
   34MOL0     C 4421   5.853  10.167  10.571  0.4564 -0.1803 -0.0253
   34MOL0     C 4422   5.818  10.259  10.672 -0.6302 -0.1245  0.4932
   34MOL0     H 4423   6.092  10.629  11.034 -1.6028  2.3453 -0.8488
   34MOL0     H 4424   6.056  10.806  11.196 -0.2494  1.0194  1.3660
   34MOL0     H 4425   5.938  10.972  11.321  1.3950 -1.9481 -2.0716
   34MOL0     H 4426   6.026  10.863  11.440 -1.5924 -1.2915  3.0188
   34MOL0     H 4427   5.982  11.052  11.549  2.1963 -2.5775 -0.7746
   34MOL0     H 4428   5.872  10.947  11.624 -1.2053  2.3963  0.4227
   34MOL0     H 4429   5.682  11.027  11.505  1.4952 -1.6725 -1.4953
   34MOL0     H 4430   5.783  11.136  11.405 -0.3716 -2.2752 -1.0807
   34MOL0     H 4431   5.744  11.185  11.698 -1.5131  1.8193  0.4388
   34MOL0     H 4432   5.827  11.285  11.579  0.7377 -0.6248  1.0379
   34MOL0     H 4433   5.533  11.204  11.597 -0.2084  0.2703 -1.0804
   34MOL0     H 4434   5.588  11.294  11.458  0.7812 -3.0989 -0.7271
   34MOL0     H 4435   5.458  11.421  11.629 -0.8279 -0.5170  1.2240
   34MOL0     H 4436   5.620  11.488  11.634 -1.9860  0.6967  1.4487
   34MOL0     H 4437   5.532  11.269  11.844 -0.2337  1.1146 -0.8305
   34MOL0     H 4438   5.684  11.360  11.841  1.6180  0.0017 -1.8006
   34MOL0     H 4439   5.403  11.468  11.870  0.6561  1.0999 -0.9283
   34MOL0     H 4440   5.529  11.577  11.885 -0.0597 -0.2456 -0.9689
   34MOL0     H 4441   5.732  11.517  12.076 -0.7394  0.3908  0.8428
   34MOL0     H 4442   5.800  11.436  12.326 -0.3084  0.6005 -1.6310
   34MOL0     H 4443   5.687  11.425  12.440 -0.1700 -1.1415 -0.6611
   34MOL0     H 4444   5.634  11.664  12.434 -0.5887 -1.6305  0.0948
   34MOL0     H 4445   5.723  11.685  12.289 -1.5905 -2.3157 -1.1338
   34MOL0     H 4446   5.940  11.600  12.437  0.0466 -3.3107  4.3851
   34MOL0     H 4447   5.878  11.769  12.431  1.6001 -1.0199 -1.4167
   34MOL0     H 4448   5.834  11.566  12.655 -2.3195 -0.7719 -2.6620
   34MOL0     H 4449   5.759  11.726  12.650  1.6130  0.3844  2.9372
   34MOL0     H 4450   6.201  11.804  12.770 -2.0709 -2.7702 -1.0556
   34MOL0     H 4451   6.264  12.049  12.806  1.7901 -2.2956 -4.0177
   34MOL0     H 4452   5.814  12.513  12.799  1.0287 -0.7590  1.0139
   34MOL0     H 4453   5.834  12.760  12.854 -1.0216 -0.9662 -1.5280
   34MOL0     H 4454   6.174  12.956  12.973  0.8669  0.7309 -1.3502
   34MOL0     H 4455   6.025  12.884  13.027 -1.4747  0.7955 -0.7173
   34MOL0     H 4456   5.991  13.098  13.077 -0.2893 -2.1739  0.6849
   34MOL0     H 4457   5.887  13.070  12.940 -0.2880 -0.1169  2.5753
   34MOL0     H 4458   5.975  13.279  12.925  1.9848 -0.2726  1.9695
   34MOL0     H 4459   6.007  13.191  12.773  0.2213  0.9097 -1.2242
   34MOL0     H 4460   6.232  13.143  12.831 -2.6247 -2.3589  2.5957
   34MOL0     H 4461   6.196  13.313  12.797  2.3792 -1.4577 -0.7497
   34MOL0     H 4462   6.202  13.210  13.076 -1.0976 -0.8825 -2.2471
   34MOL0     H 4463   6.210  13.380  13.028 -1.3231 -0.5832  0.8468
   34MOL0     H 4464   6.417  13.311  12.897 -2.1842 -3.3590 -1.9677
   34MOL0     H 4465   6.423  13.170  13.015 -0.8628 -0.0932  0.9598
   34MOL0     H 4466   6.419  13.457  13.121 -1.1224 -1.7277 -0.1156
   34MOL0     H 4467   6.463  13.310  13.200 -0.4489  0.7092  1.2687
   34MOL0     H 4468   6.654  13.294  13.010  2.4884  0.4238  1.7162
   34MOL0     H 4469   6.679  13.408  13.137 -1.0360 -0.5934  1.1534
   34MOL0     H 4470   6.245  12.744  12.759  0.9539 -1.8373 -0.1396
   34MOL0     H 4471   6.233  12.496  12.766  1.4416  1.3252  2.2136
   34MOL0     H 4472   5.846  12.161  12.755  0.9184  1.9207 -0.9350
   34MOL0     H 4473   5.802  11.929  12.678 -1.1048 -0.4422  0.1853
   34MOL0     H 4474   5.708  10.615  11.336 -0.0135  1.7564 -1.0826
   34MOL0     H 4475   5.747  10.420  11.176 -1.0346  0.5616 -0.2377
   34MOL0     H 4476   6.081  10.181  10.884 -0.3508 -0.1110  1.0608
   34MOL0     H 4477   6.144  10.056  10.691 -1.1091 -2.0516 -2.3018
   34MOL0     H 4478   6.065   9.845  10.587  3.0446  0.3943  0.4051
   34MOL0     H 4479   6.191   9.937  10.509  0.2224  4.1141 -4.3663
   34MOL0     H 4480   6.155   9.720  10.387 -1.2204 -1.3263  2.0148
   34MOL0     H 4481   5.992   9.771  10.356 -1.6582  2.8473  3.3475
   34MOL0     H 4482   6.092   9.993  10.234 -0.9923 -0.1018 -0.4714
   34MOL0     H 4483   6.090   9.844  10.149  0.6101 -0.4333  0.8854
   34MOL0     H 4484   6.282   9.975  10.130  0.6054 -2.5190 -1.9977
   34MOL0     H 4485   6.304   9.984  10.298 -1.8369  0.0725  1.9082
   34MOL0     H 4486   6.530   9.645  10.245 -0.0325 -0.9782 -2.8176
   34MOL0     H 4487   5.788  10.163  10.485 -1.6349  2.1128  1.3025
   34MOL0     H 4488   5.729  10.317  10.651 -0.5710 -0.0297  0.5097
   35MOL0     O 4489   0.562   5.393   4.331  0.1722 -0.9934 -0.2849
   35MOL0     C 4490   0.661   5.331   4.309  0.2178 -0.0420 -0.3710
   35MOL0     O 4491   0.679   5.223   4.227 -0.0644  0.9165 -0.5027
   35MOL0     C 4492   0.573   5.138   4.207 -0.3976 -0.9199  0.5902
   35MOL0     C 4493   0.472   5.177   4.127 -0.1783  0.3261  0.6293
   35MOL0     C 4494   0.363   5.089   4.104 -1.2773  0.7912 -0.0677
   35MOL0     C 4495   0.359   4.964   4.174 -0.2436 -1.3641  0.9531
   35MOL0     O 4496   0.258   4.881   4.150  0.1502 -0.4459 -0.2263
   35MOL0     C 4497   0.223   4.796   4.262  0.6442 -0.2147 -0.5541
   35MOL0     C 4498   0.089   4.754   4.257 -1.3874 -0.0760  0.0433
   35MOL0     C 4499  -0.014   4.869   4.235 -1.6242  0.2822 -0.8476
   35MOL0     C 4500  -0.149   4.821   4.267 -0.0922  0.6272  0.9713
   35MOL0     C 4501  -0.261   4.922   4.242 -0.3409 -0.3703  0.2721
   35MOL0     C 4502  -0.389   4.856   4.288  0.2992 -0.2731  0.0724
   35MOL0     C 4503  -0.513   4.945   4.228 -0.3254  0.5169  0.3736
   35MOL0     C 4504  -0.657   4.895   4.270 -0.1693  0.4303 -0.8004
   35MOL0     N 4505  -0.674   4.750   4.254  0.0634 -0.6237  0.5584
   35MOL0     C 4506  -0.668   4.693   4.132  0.3934 -0.8203  0.1597
   35MOL0     C 4507  -0.672   4.561   4.143  1.5176  0.8402 -0.3145
   35MOL0     C 4508  -0.639   4.459   4.040  0.4331 -0.3851 -0.4834
   35MOL0     C 4509  -0.487   4.473   4.009  0.0125  1.0133  0.3389
   35MOL0     C 4510  -0.390   4.427   4.128  0.4199  0.2728 -0.4996
   35MOL0     C 4511  -0.251   4.461   4.086  0.0321  0.3261 -0.0327
   35MOL0     O 4512  -0.156   4.426   4.188 -0.6914  0.1516  0.3570
   35MOL0     C 4513  -0.025   4.412   4.141 -0.4227  0.7003  0.3988
   35MOL0     C 4514   0.022   4.442   4.010 -0.7591 -0.4490  0.0884
   35MOL0     C 4515   0.162   4.450   3.985 -0.2144 -0.1405  0.7625
   35MOL0     C 4516   0.256   4.439   4.091 -0.0185  0.4526 -0.6919
   35MOL0     C 4517   0.400   4.466   4.071 -0.4474 -0.4563 -1.0288
   35MOL0     O 4518   0.461   4.489   4.190 -0.0059 -0.2776 -0.6920
   35MOL0     C 4519   0.577   4.558   4.201  1.0447  0.3251  1.1428
   35MOL0     C 4520   0.641   4.646   4.106 -0.4640  0.0506  0.7192
   35MOL0     C 4521   0.753   4.719   4.135  0.0951 -0.4267 -0.4014
   35MOL0     C 4522   0.795   4.728   4.268  0.3128 -0.0821 -0.3941
   35MOL0     O 4523   0.906   4.791   4.312 -0.0221  0.2350  0.1792
   35MOL0     C 4524   0.960   4.880   4.220 -0.8764 -0.0743  0.0851
   35MOL0     C 4525   1.074   4.968   4.284  0.4602 -0.1771 -1.2576
   35MOL0     C 4526   1.131   5.057   4.183 -0.3122  0.0607  0.1841
   35MOL0     C 4527   1.244   5.139   4.239 -0.4166  0.0048 -0.3404
   35MOL0     C 4528   1.365   5.058   4.286 -0.1796 -0.1057  0.2479
   35MOL0     C 4529   1.494   5.137   4.267  0.3909 -0.4386 -0.3021
   35MOL0     C 4530   1.540   5.182   4.122  0.9667  0.5820  0.6447
   35MOL0     C 4531   1.680   5.240   4.139  0.3877  0.0973 -0.0638
   35MOL0    Cl 4532   1.750   5.277   3.971 -0.1577  0.0260  0.4315
   35MOL0     C 4533   0.732   4.645   4.366 -0.3408  0.0786 -0.4646
   35MOL0     C 4534   0.621   4.562   4.327 -0.1191 -0.5800  0.0369
   35MOL0     O 4535   0.443   4.489   3.956  0.2798  0.4351  0.4923
   35MOL0     C 4536   0.203   4.395   4.218 -0.8284  0.2843  0.3219
   35MOL0     C 4537   0.066   4.387   4.239  0.3913 -0.3948 -0.0940
   35MOL0     N 4538  -0.681   4.535   4.282 -0.4734  0.1714 -0.3526
   35MOL0     N 4539  -0.680   4.646   4.347 -0.3077 -0.5502 -0.6152
   35MOL0     C 4540   0.460   4.926   4.255  0.0404  0.5624  0.4686
   35MOL0     C 4541   0.573   5.012   4.263  0.4180  0.5801  0.3704
   35MOL0     C 4542   0.774   5.387   4.379 -0.7992 -0.7940 -0.1206
   35MOL0     C 4543   0.898   5.318   4.371  0.3034 -0.3205  0.6796
   35MOL0     C 4544   1.005   5.346   4.455 -0.4306 -1.5185 -0.6532
   35MOL0     C 4545   0.999   5.457   4.533 -0.0236 -0.6157 -0.5639
   35MOL0     O 4546   1.105   5.464   4.619 -0.1461 -0.3550 -0.8655
   35MOL0     C 4547   1.189   5.582   4.610  0.2732 -0.4957 -0.1559
   35MOL0     C 4548   1.300   5.567   4.714  0.2040  0.8038  0.0268
   35MOL0     C 4549   1.403   5.458   4.671  0.4773 -1.3251  0.1461
   35MOL0     C 4550   1.538   5.479   4.744 -0.4127 -0.1556 -0.5479
   35MOL0     C 4551   1.582   5.611   4.783 -0.8928 -0.0519  1.0817
   35MOL0     C 4552   1.612   5.726   4.827  0.5704 -0.2742  0.2123
   35MOL0     C 4553   0.889   5.538   4.543  0.9775  0.5400  0.6385
   35MOL0     C 4554   0.778   5.500   4.469  0.6590 -0.3669  0.1840
   35MOL0     H 4555   0.491   5.266   4.067  0.4619 -1.9611 -2.8881
   35MOL0     H 4556   0.289   5.124   4.032 -0.4156 -0.5217 -1.6635
   35MOL0     H 4557   0.235   4.857   4.353  0.3885  1.5176 -1.6351
   35MOL0     H 4558   0.292   4.711   4.268  1.3853  0.2590 -2.0040
   35MOL0     H 4559   0.074   4.695   4.349 -0.1779 -0.7031 -0.1469
   35MOL0     H 4560   0.081   4.683   4.174  2.4845  1.5303 -1.9150
   35MOL0     H 4561  -0.003   4.902   4.131  1.5150 -1.7851 -1.3075
   35MOL0     H 4562   0.002   4.956   4.300  2.2336 -0.0426 -1.1124
   35MOL0     H 4563  -0.168   4.725   4.219  2.2585 -0.7324  2.5805
   35MOL0     H 4564  -0.157   4.809   4.375  0.0050  1.5167  1.0887
   35MOL0     H 4565  -0.265   4.945   4.135  1.7687 -1.1188 -0.0184
   35MOL0     H 4566  -0.235   5.005   4.308  0.2383 -1.1238  1.0086
   35MOL0     H 4567  -0.397   4.862   4.397 -0.8117 -2.3990  0.1656
   35MOL0     H 4568  -0.397   4.749   4.268 -0.3715 -0.4725  1.2511
   35MOL0     H 4569  -0.498   5.048   4.261 -3.2883  1.1371  0.0737
   35MOL0     H 4570  -0.514   4.944   4.119 -0.5821  2.0056  0.3483
   35MOL0     H 4571  -0.734   4.957   4.224 -0.3208  2.4575  1.9393
   35MOL0     H 4572  -0.667   4.925   4.375  1.6215 -2.5763  0.3596
   35MOL0     H 4573  -0.656   4.760   4.047 -1.0691  0.2313  0.7547
   35MOL0     H 4574  -0.703   4.483   3.955  1.2019 -0.6629 -1.1516
   35MOL0     H 4575  -0.659   4.355   4.067  0.6469 -1.0512 -2.7131
   35MOL0     H 4576  -0.456   4.571   3.970  7.5513 -0.7861  0.2088
   35MOL0     H 4577  -0.474   4.401   3.927 -1.4231  0.1373  0.8405
   35MOL0     H 4578  -0.420   4.481   4.218  2.5124  2.4281 -0.9912
   35MOL0     H 4579  -0.406   4.320   4.145  0.8117 -0.7961 -5.3579
   35MOL0     H 4580  -0.237   4.569   4.077 -1.2829  0.7325  1.9737
   35MOL0     H 4581  -0.232   4.412   3.990 -0.4834 -0.0606  0.0586
   35MOL0     H 4582  -0.040   4.455   3.921  0.7642  0.0961 -0.9322
   35MOL0     H 4583   0.195   4.470   3.884 -1.6017 -1.1311  0.0725
   35MOL0     H 4584   0.615   4.660   4.001 -1.3397 -0.6487  0.8274
   35MOL0     H 4585   0.787   4.795   4.066  0.1960  0.9762  1.1123
   35MOL0     H 4586   0.885   4.944   4.173 -0.8097  0.0545  0.1539
   35MOL0     H 4587   1.004   4.825   4.137  4.2239  1.5047  1.3810
   35MOL0     H 4588   1.156   4.910   4.330  1.1921  0.1192 -2.1672
   35MOL0     H 4589   1.031   5.030   4.363  0.2931 -1.5854 -0.2021
   35MOL0     H 4590   1.058   5.133   4.151 -1.4936 -0.2562  1.9673
   35MOL0     H 4591   1.161   4.999   4.095  1.2077 -1.3706  1.5927
   35MOL0     H 4592   1.263   5.210   4.157 -2.1428 -1.2636 -1.9256
   35MOL0     H 4593   1.209   5.206   4.318  2.5193  3.3279 -1.5627
   35MOL0     H 4594   1.386   4.965   4.233 -0.8175 -0.0753 -0.0736
   35MOL0     H 4595   1.340   5.017   4.384 -5.3023  1.2671 -0.2181
   35MOL0     H 4596   1.571   5.084   4.324  0.8742  0.4790 -0.0684
   35MOL0     H 4597   1.478   5.229   4.325  0.6160 -0.2646 -0.5124
   35MOL0     H 4598   1.535   5.088   4.067 -3.6343 -0.0929  1.8135
   35MOL0     H 4599   1.478   5.251   4.063 -0.8611 -2.9097 -1.8606
   35MOL0     H 4600   1.754   5.174   4.184  1.4956  1.4331  0.1538
   35MOL0     H 4601   1.663   5.334   4.193  0.7777 -0.6576  1.4410
   35MOL0     H 4602   0.776   4.659   4.464  0.9337  3.1115 -1.3248
   35MOL0     H 4603   0.577   4.495   4.400 -1.4319  0.0181 -0.1831
   35MOL0     H 4604   0.269   4.368   4.299  1.1710 -1.1259 -1.6318
   35MOL0     H 4605   0.029   4.346   4.333  0.8123  0.8759  0.6568
   35MOL0     H 4606   0.466   4.831   4.306  0.6796 -0.4336 -1.3620
   35MOL0     H 4607   0.660   4.979   4.318 -0.3155 -1.1048  0.6089
   35MOL0     H 4608   0.909   5.225   4.315 -1.2658  0.5064 -1.1066
   35MOL0     H 4609   1.094   5.285   4.459 -0.3742 -1.5281 -1.8105
   35MOL0     H 4610   1.135   5.673   4.636 -1.5439 -0.9861 -1.9532
   35MOL0     H 4611   1.230   5.594   4.509  1.9318 -1.9136  0.3054
   35MOL0     H 4612   1.351   5.663   4.724 -0.1489  0.9958  0.0100
   35MOL0     H 4613   1.258   5.533   4.809  1.7615  0.9876  0.8138
   35MOL0     H 4614   1.422   5.478   4.565  2.9715 -3.8154  0.0056
   35MOL0     H 4615   1.365   5.358   4.696 -1.4292  0.1975  4.1381
   35MOL0     H 4616   1.531   5.422   4.837  2.2336 -0.0287 -0.1915
   35MOL0     H 4617   1.612   5.427   4.681 -0.7736  1.6310 -2.5600
   35MOL0     H 4618   1.629   5.820   4.877 -3.3952  0.5025  0.4198
   35MOL0     H 4619   0.894   5.620   4.613  0.6078  1.5980 -0.5203
   35MOL0     H 4620   0.695   5.568   4.484  0.7321 -0.1741 -0.2744
   36MOL0     O 4621   7.324   1.245   8.077 -0.0105  0.1356  0.1403
   36MOL0     C 4622   7.428   1.194   8.048  0.0836  0.1016  0.0407
   36MOL0     O 4623   7.461   1.068   8.084 -0.2442  0.2751  0.0301
   36MOL0     C 4624   7.373   0.997   8.161 -0.3103 -0.1027  0.8529
   36MOL0     C 4625   7.339   0.873   8.101  0.0764 -0.4376 -1.2161
   36MOL0     C 4626   7.261   0.780   8.178 -0.3925  1.2053  0.4890
   36MOL0     C 4627   7.213   0.799   8.304 -0.0427 -0.2037 -0.4936
   36MOL0     O 4628   7.138   0.723   8.389 -0.3929  0.1750  0.2349
   36MOL0     C 4629   7.080   0.600   8.342 -0.6092  1.0336 -0.2714
   36MOL0     C 4630   7.015   0.528   8.464  0.6905  0.7817  0.0484
   36MOL0     C 4631   7.114   0.485   8.574 -0.7125 -0.6836 -0.0876
   36MOL0     C 4632   7.050   0.386   8.675 -0.6791 -0.2439 -0.0585
   36MOL0     C 4633   7.131   0.380   8.813  0.0626 -0.2257  0.2935
   36MOL0     C 4634   7.281   0.340   8.786 -0.0581 -0.8373  0.0739
   36MOL0     C 4635   7.296   0.217   8.707 -0.5891 -0.8831 -1.1767
   36MOL0     C 4636   7.428   0.215   8.620  0.7297  0.0605  0.3406
   36MOL0     N 4637   7.496   0.347   8.599 -0.1166  0.0770 -0.9470
   36MOL0     C 4638   7.475   0.427   8.496  0.0023 -0.5525  1.1207
   36MOL0     C 4639   7.564   0.529   8.517  0.0677 -0.2896  0.4956
   36MOL0     C 4640   7.567   0.645   8.418 -0.2413 -0.1378 -0.6502
   36MOL0     C 4641   7.661   0.613   8.307 -0.1455 -0.4200  1.0753
   36MOL0     C 4642   7.590   0.523   8.205 -0.5089  0.2260  0.6888
   36MOL0     C 4643   7.694   0.486   8.101 -0.4456  0.5866  0.0058
   36MOL0     O 4644   7.757   0.607   8.039  0.5565  0.0297 -0.5028
   36MOL0     C 4645   7.813   0.598   7.915 -0.5672  0.4225  0.5058
   36MOL0     C 4646   7.872   0.475   7.867 -0.3069 -0.8143  0.6866
   36MOL0     C 4647   7.952   0.481   7.746  0.1155  0.1236 -0.2890
   36MOL0     C 4648   7.984   0.607   7.697  0.7752  0.4223  0.1953
   36MOL0     C 4649   8.097   0.623   7.602 -1.2003 -0.3223 -1.2568
   36MOL0     O 4650   8.112   0.741   7.541 -0.3455  0.1848 -0.6512
   36MOL0     C 4651   8.185   0.765   7.422 -0.2659  0.2317 -0.0599
   36MOL0     C 4652   8.136   0.855   7.332 -0.6569 -0.3356  0.3114
   36MOL0     C 4653   8.216   0.886   7.223 -0.1926 -0.0696  0.5198
   36MOL0     C 4654   8.337   0.821   7.187  0.3917  1.1907  0.9599
   36MOL0     O 4655   8.389   0.831   7.064 -0.4531  0.5109 -0.0393
   36MOL0     C 4656   8.489   0.734   7.016  0.6027  0.1542 -0.8247
   36MOL0     C 4657   8.472   0.712   6.857  0.2720  0.2749 -0.3267
   36MOL0     C 4658   8.559   0.593   6.813 -0.2005  0.0717  0.0803
   36MOL0     C 4659   8.529   0.543   6.664  0.7887  0.0776  0.2849
   36MOL0     C 4660   8.400   0.466   6.640 -1.3482  0.0956 -0.3263
   36MOL0     C 4661   8.409   0.377   6.519 -0.4727  0.3810 -0.8694
   36MOL0     C 4662   8.273   0.329   6.476 -0.1674  0.6399  0.3390
   36MOL0     C 4663   8.235   0.208   6.561 -0.9702  1.0958 -0.2737
   36MOL0    Cl 4664   8.076   0.211   6.642 -0.0755  0.1554  0.5075
   36MOL0     C 4665   8.392   0.742   7.290  0.5578 -0.5953 -1.3098
   36MOL0     C 4666   8.312   0.717   7.405  1.0569  0.4418 -0.9443
   36MOL0     O 4667   8.150   0.519   7.562  0.8049  0.4253 -0.3648
   36MOL0     C 4668   7.922   0.727   7.742 -0.4265 -0.2965  0.6083
   36MOL0     C 4669   7.831   0.718   7.846  0.3420  0.4169  0.5982
   36MOL0     N 4670   7.646   0.504   8.629 -0.6926 -0.2936 -0.0389
   36MOL0     N 4671   7.604   0.393   8.678 -0.4270  0.6651  0.3894
   36MOL0     C 4672   7.256   0.924   8.353 -0.1442 -0.3605  0.1126
   36MOL0     C 4673   7.336   1.018   8.290  0.6302 -0.1348  0.0776
   36MOL0     C 4674   7.520   1.275   7.960 -0.0119  0.1676  0.2785
   36MOL0     C 4675   7.626   1.221   7.900 -0.2478  0.2391 -0.1607
   36MOL0     C 4676   7.689   1.284   7.795 -0.2745  0.6605 -0.1354
   36MOL0     C 4677   7.655   1.410   7.747 -0.0146  0.1937 -1.1988
   36MOL0     O 4678   7.735   1.471   7.657  0.1319 -0.1523  0.3144
   36MOL0     C 4679   7.683   1.592   7.600 -0.2243  0.6784  0.5265
   36MOL0     C 4680   7.813   1.654   7.520  0.5845 -0.0417 -0.0755
   36MOL0     C 4681   7.909   1.732   7.609  0.4340  0.4733 -0.7229
   36MOL0     C 4682   8.050   1.720   7.551  0.0013 -0.6650  0.9212
   36MOL0     C 4683   8.155   1.773   7.631 -0.6108 -0.7586 -0.1562
   36MOL0     C 4684   8.248   1.813   7.695 -0.6240 -0.1981  0.2468
   36MOL0     C 4685   7.548   1.475   7.821  0.8763  1.0377  0.7706
   36MOL0     C 4686   7.482   1.406   7.924  0.3684 -0.5282  0.1411
   36MOL0     H 4687   7.365   0.859   7.997  0.9366 -3.3462 -0.6852
   36MOL0     H 4688   7.247   0.683   8.131  3.1190  1.6688 -1.8676
   36MOL0     H 4689   7.161   0.534   8.312 -0.6477 -0.1422  1.9620
   36MOL0     H 4690   7.014   0.634   8.263 -2.7985  0.5895  1.2850
   36MOL0     H 4691   6.963   0.442   8.421  0.1009  1.9779 -1.7389
   36MOL0     H 4692   6.938   0.592   8.508  0.9633  1.1112  0.0503
   36MOL0     H 4693   7.160   0.570   8.624  0.5794 -1.1156 -0.4939
   36MOL0     H 4694   7.200   0.433   8.531  1.3836  0.1688  2.8262
   36MOL0     H 4695   6.954   0.424   8.711  0.8794  2.0811  1.9803
   36MOL0     H 4696   7.029   0.290   8.628  0.4530  0.2264 -1.6156
   36MOL0     H 4697   7.078   0.310   8.878 -0.9816  1.4169  1.2952
   36MOL0     H 4698   7.114   0.474   8.867  0.3603  1.7998 -2.8718
   36MOL0     H 4699   7.338   0.343   8.880  1.6584  4.0462 -0.8268
   36MOL0     H 4700   7.319   0.427   8.730  0.1498 -0.6482  0.5021
   36MOL0     H 4701   7.303   0.132   8.775 -2.1521 -1.4988 -1.7521
   36MOL0     H 4702   7.210   0.187   8.646 -2.2575 -0.5974  0.9321
   36MOL0     H 4703   7.394   0.169   8.527  2.5030 -0.2927 -0.1594
   36MOL0     H 4704   7.497   0.146   8.669 -0.9531 -1.9031  0.0827
   36MOL0     H 4705   7.401   0.412   8.419  1.1740 -0.2313 -0.1077
   36MOL0     H 4706   7.599   0.736   8.470  0.5030 -0.2509 -0.8832
   36MOL0     H 4707   7.469   0.670   8.378  0.0876 -0.0184 -1.4046
   36MOL0     H 4708   7.757   0.572   8.339 -0.8820 -1.8990  1.4583
   36MOL0     H 4709   7.680   0.709   8.257 -1.0960  0.3945  2.2187
   36MOL0     H 4710   7.553   0.430   8.250 -0.7025  0.0227  0.1094
   36MOL0     H 4711   7.508   0.581   8.163  0.0290  1.7756  1.6809
   36MOL0     H 4712   7.636   0.436   8.023 -1.3757  0.5476  0.7179
   36MOL0     H 4713   7.773   0.420   8.137  0.6382  0.5555 -2.2264
   36MOL0     H 4714   7.862   0.380   7.919  0.9238 -0.2787  1.9617
   36MOL0     H 4715   8.005   0.393   7.712  0.1949 -0.6428  1.7344
   36MOL0     H 4716   8.042   0.905   7.355  1.7273  3.9226  1.9614
   36MOL0     H 4717   8.178   0.965   7.160 -0.3289 -2.7197 -3.0273
   36MOL0     H 4718   8.466   0.640   7.067  0.3998  0.9375  0.5861
   36MOL0     H 4719   8.583   0.775   7.055  0.0874  1.1967 -0.6314
   36MOL0     H 4720   8.507   0.799   6.801  2.4371 -0.1691  0.2489
   36MOL0     H 4721   8.366   0.700   6.833  0.4232 -2.2498 -0.0102
   36MOL0     H 4722   8.562   0.509   6.884  3.3381 -0.0445 -0.0060
   36MOL0     H 4723   8.664   0.623   6.809  0.0274 -0.3507  1.9314
   36MOL0     H 4724   8.535   0.632   6.601  0.9434  1.4884  2.1992
   36MOL0     H 4725   8.601   0.466   6.635 -0.9462 -1.3868 -0.2591
   36MOL0     H 4726   8.319   0.539   6.636 -0.4595  1.0640 -1.0216
   36MOL0     H 4727   8.391   0.404   6.730  3.2712 -3.1679 -1.7455
   36MOL0     H 4728   8.469   0.288   6.539  1.7251  2.2312  1.3910
   36MOL0     H 4729   8.472   0.427   6.445  2.1722 -1.9128 -0.2846
   36MOL0     H 4730   8.198   0.406   6.493 -0.0474  0.9861 -0.6144
   36MOL0     H 4731   8.260   0.311   6.369  0.3606 -1.0399  0.5241
   36MOL0     H 4732   8.301   0.197   6.648 -3.1586  2.1658  1.6354
   36MOL0     H 4733   8.245   0.113   6.506 -1.9018  0.1084  1.1789
   36MOL0     H 4734   8.491   0.700   7.295  2.1583  2.9591  0.7615
   36MOL0     H 4735   8.363   0.674   7.491 -1.1027  3.1156  1.8619
   36MOL0     H 4736   7.939   0.819   7.688  1.3792 -2.6776 -3.2979
   36MOL0     H 4737   7.788   0.810   7.885 -2.2113 -0.6219  0.3998
   36MOL0     H 4738   7.228   0.927   8.458 -0.6313 -4.3475  0.2739
   36MOL0     H 4739   7.358   1.114   8.336 -1.8465  0.7321 -0.3712
   36MOL0     H 4740   7.647   1.116   7.915 -0.1132  0.1875 -0.7060
   36MOL0     H 4741   7.778   1.249   7.743 -0.1366  2.9690 -1.5678
   36MOL0     H 4742   7.648   1.667   7.672 -0.4592 -1.6083  2.9260
   36MOL0     H 4743   7.611   1.577   7.519  1.1054 -1.9354 -0.2856
   36MOL0     H 4744   7.861   1.574   7.463  0.7687  0.9662 -1.3679
   36MOL0     H 4745   7.775   1.734   7.457 -1.2814 -0.5092  0.3852
   36MOL0     H 4746   7.913   1.689   7.709 -2.7269  3.2728  0.7964
   36MOL0     H 4747   7.876   1.831   7.639 -0.0402  0.1675 -0.2249
   36MOL0     H 4748   8.068   1.613   7.549 -1.8703 -1.0241  1.1415
   36MOL0     H 4749   8.051   1.760   7.449 -0.9792  2.9219  2.1514
   36MOL0     H 4750   8.339   1.828   7.748  0.6725 -5.1743 -0.0870
   36MOL0     H 4751   7.510   1.574   7.799 -0.6943  0.3862  0.4408
   36MOL0     H 4752   7.396   1.457   7.966 -1.1926  0.7170 -4.0098
   37MOL0     O 4753   2.595   0.302   3.499  1.0729 -0.3883  0.4324
   37MOL0     C 4754   2.526   0.394   3.463  0.4396 -0.4680  1.0045
   37MOL0     O 4755   2.415   0.442   3.520  0.6594  0.1654  0.3528
   37MOL0     C 4756   2.354   0.396   3.638  0.6378 -0.8647  1.3058
   37MOL0     C 4757   2.225   0.445   3.647 -0.6045 -0.2868 -0.6842
   37MOL0     C 4758   2.136   0.419   3.757  0.3888 -0.2055  0.6919
   37MOL0     C 4759   2.170   0.337   3.860 -0.2934 -0.5518  0.2199
   37MOL0     O 4760   2.096   0.295   3.969 -0.5520 -0.0230  0.6903
   37MOL0     C 4761   1.964   0.345   3.983  0.3838 -0.1246  0.0099
   37MOL0     C 4762   1.908   0.338   4.121 -0.7568  0.1604 -0.6969
   37MOL0     C 4763   1.949   0.210   4.194  0.7034  0.4406 -1.1093
   37MOL0     C 4764   1.862   0.181   4.320  0.0929 -0.9141  0.6295
   37MOL0     C 4765   1.879   0.036   4.364  0.5185 -1.4287  0.2674
   37MOL0     C 4766   1.991   0.030   4.460 -0.6333  0.0981  0.0941
   37MOL0     C 4767   2.018  -0.126   4.475  0.1955 -0.2027  0.1898
   37MOL0     C 4768   2.132  -0.155   4.573  0.1233  0.2809 -0.2105
   37MOL0     N 4769   2.178  -0.294   4.577  0.6173  0.2460 -0.5914
   37MOL0     C 4770   2.265  -0.351   4.500 -0.5634 -0.3764  0.4097
   37MOL0     C 4771   2.285  -0.477   4.544 -0.1945  0.0358 -0.3678
   37MOL0     C 4772   2.369  -0.575   4.480 -0.3004 -0.0075  1.2423
   37MOL0     C 4773   2.425  -0.672   4.582  0.0757 -0.0695  0.5854
   37MOL0     C 4774   2.507  -0.777   4.508 -0.5469  0.8733  0.6692
   37MOL0     C 4775   2.432  -0.913   4.492 -0.2020  0.1036  0.6688
   37MOL0     O 4776   2.419  -0.970   4.627 -0.3115  0.3073  0.3112
   37MOL0     C 4777   2.382  -1.104   4.650 -0.3861 -0.6343  0.0429
   37MOL0     C 4778   2.345  -1.195   4.549 -1.3154 -0.2724  0.1109
   37MOL0     C 4779   2.323  -1.333   4.574  0.0071 -0.0445 -0.0592
   37MOL0     C 4780   2.324  -1.386   4.703 -0.3612  0.0846 -0.0007
   37MOL0     C 4781   2.298  -1.523   4.726 -0.1137 -0.7905  0.3138
   37MOL0     O 4782   2.280  -1.611   4.618 -0.1908  0.7246  0.5227
   37MOL0     C 4783   2.273  -1.745   4.626 -0.8710  0.3539  0.5667
   37MOL0     C 4784   2.289  -1.816   4.499 -0.4077 -0.0084  0.2955
   37MOL0     C 4785   2.282  -1.958   4.503  0.3136 -0.2196  0.2775
   37MOL0     C 4786   2.258  -2.029   4.617  0.0160  0.0710 -0.8477
   37MOL0     O 4787   2.294  -2.167   4.602  0.8051 -0.1637 -0.4317
   37MOL0     C 4788   2.174  -2.245   4.564  0.5474 -0.1935  0.1590
   37MOL0     C 4789   2.202  -2.394   4.552  0.3449 -0.2039  0.9529
   37MOL0     C 4790   2.243  -2.446   4.692  0.3570  0.0864 -0.0349
   37MOL0     C 4791   2.306  -2.585   4.681 -0.4840  0.7111  0.6927
   37MOL0     C 4792   2.377  -2.623   4.809 -0.5279  0.5316 -0.0712
   37MOL0     C 4793   2.484  -2.730   4.778 -0.0603 -0.3325  0.7875
   37MOL0     C 4794   2.424  -2.861   4.776  1.1607  0.6960 -0.3589
   37MOL0     C 4795   2.498  -2.991   4.803  0.1863  0.4168 -1.0389
   37MOL0    Cl 4796   2.386  -3.127   4.813 -0.2646 -0.0084  0.1674
   37MOL0     C 4797   2.236  -1.968   4.739  0.1613 -1.0111  0.2874
   37MOL0     C 4798   2.247  -1.822   4.743 -0.4256 -0.5562  0.3470
   37MOL0     O 4799   2.295  -1.553   4.845  0.3669  0.8016 -0.7760
   37MOL0     C 4800   2.344  -1.290   4.805  0.0702  0.0803 -0.6459
   37MOL0     C 4801   2.384  -1.155   4.782  0.4820  0.2405  1.4099
   37MOL0     N 4802   2.205  -0.492   4.657  0.1955  0.0772  0.1588
   37MOL0     N 4803   2.132  -0.385   4.667  0.6806 -0.0532 -0.9488
   37MOL0     C 4804   2.300   0.292   3.849  0.8588 -1.2974  0.2050
   37MOL0     C 4805   2.386   0.305   3.740  0.6425 -0.1338  0.6466
   37MOL0     C 4806   2.559   0.462   3.332 -0.4222  0.2454  0.4843
   37MOL0     C 4807   2.484   0.566   3.284 -0.0664 -0.5091 -0.5759
   37MOL0     C 4808   2.520   0.629   3.165  0.1437 -0.1527 -0.6395
   37MOL0     C 4809   2.636   0.592   3.095  0.2085  1.2868 -0.0444
   37MOL0     O 4810   2.683   0.647   2.976  0.2231  0.7129 -0.8747
   37MOL0     C 4811   2.650   0.784   2.945  0.2401  1.0711 -0.0522
   37MOL0     C 4812   2.714   0.886   3.030 -0.2308 -0.1385 -0.0638
   37MOL0     C 4813   2.711   1.027   2.980 -0.1923 -0.4870  0.2292
   37MOL0     C 4814   2.753   1.126   3.092 -0.7164 -0.0302  0.6104
   37MOL0     C 4815   2.739   1.263   3.039  0.6959 -0.7009 -0.8710
   37MOL0     C 4816   2.744   1.379   3.011 -0.0235 -1.0702  0.4662
   37MOL0     C 4817   2.713   0.482   3.137  1.2281 -0.3835  0.1008
   37MOL0     C 4818   2.673   0.421   3.254 -0.7792 -0.0321  0.2287
   37MOL0     H 4819   2.194   0.503   3.561  1.6907 -1.4996 -2.4366
   37MOL0     H 4820   2.041   0.472   3.754  0.1612 -0.6308 -1.6603
   37MOL0     H 4821   1.893   0.297   3.916 -0.2705  2.8094 -1.5977
   37MOL0     H 4822   1.966   0.450   3.952  1.2162 -0.8431 -2.6253
   37MOL0     H 4823   1.800   0.331   4.101 -0.4631 -0.1044 -2.3700
   37MOL0     H 4824   1.932   0.426   4.180  0.8516 -1.2171  0.7964
   37MOL0     H 4825   2.055   0.221   4.217  1.2505 -0.0235 -3.1921
   37MOL0     H 4826   1.944   0.127   4.122 -1.4853 -2.7018  2.2768
   37MOL0     H 4827   1.882   0.251   4.401  2.3156  2.0229 -2.2140
   37MOL0     H 4828   1.759   0.205   4.292  0.3625  0.5736  0.8687
   37MOL0     H 4829   1.887  -0.030   4.277 -0.1696  1.4575 -2.2016
   37MOL0     H 4830   1.786   0.010   4.415 -0.3835 -2.0275 -1.5568
   37MOL0     H 4831   1.952   0.072   4.553  2.1088  3.2765  0.0051
   37MOL0     H 4832   2.086   0.073   4.426 -0.0407  2.0681  3.6380
   37MOL0     H 4833   1.925  -0.174   4.505 -1.8793  2.9892 -0.6329
   37MOL0     H 4834   2.051  -0.163   4.377 -1.2406  0.6474 -0.6485
   37MOL0     H 4835   2.078  -0.144   4.668 -1.9621 -1.3997 -1.1134
   37MOL0     H 4836   2.216  -0.085   4.563  2.5103 -2.6049 -2.1939
   37MOL0     H 4837   2.300  -0.308   4.406 -1.2238 -3.0392 -1.1724
   37MOL0     H 4838   2.455  -0.527   4.432 -1.1506  1.1963  0.8775
   37MOL0     H 4839   2.323  -0.619   4.391 -0.0440  1.3268  0.4081
   37MOL0     H 4840   2.343  -0.711   4.643  0.1705  1.7920  1.9894
   37MOL0     H 4841   2.494  -0.626   4.654  2.0115 -2.1279  0.1646
   37MOL0     H 4842   2.514  -0.748   4.402  0.2516  0.5098  0.6193
   37MOL0     H 4843   2.603  -0.800   4.554 -2.3948 -0.5837  4.1896
   37MOL0     H 4844   2.490  -0.981   4.429  2.0689  0.4580  2.2771
   37MOL0     H 4845   2.333  -0.896   4.449 -0.7149  0.4717  1.9557
   37MOL0     H 4846   2.355  -1.177   4.443  1.0152 -2.2828 -0.1003
   37MOL0     H 4847   2.305  -1.401   4.492 -2.3687 -0.0116  0.3870
   37MOL0     H 4848   2.315  -1.757   4.411  4.4340  0.6851  1.8676
   37MOL0     H 4849   2.300  -2.015   4.412 -2.9332 -2.2975  0.7424
   37MOL0     H 4850   2.144  -2.204   4.466  1.1295 -1.5038 -0.5918
   37MOL0     H 4851   2.098  -2.224   4.639  1.4964  0.5711  0.9336
   37MOL0     H 4852   2.286  -2.406   4.483  1.1524  2.4890  1.3445
   37MOL0     H 4853   2.113  -2.447   4.516  1.4754 -1.2954 -0.3639
   37MOL0     H 4854   2.153  -2.460   4.752 -1.0803 -0.1745 -2.1496
   37MOL0     H 4855   2.314  -2.378   4.740 -1.7811  2.7695 -0.4523
   37MOL0     H 4856   2.246  -2.670   4.647  1.4877 -0.0716 -1.0413
   37MOL0     H 4857   2.377  -2.584   4.597 -2.2829 -0.6986 -0.9499
   37MOL0     H 4858   2.310  -2.653   4.890 -1.0399 -1.4927 -1.1841
   37MOL0     H 4859   2.427  -2.535   4.852 -3.9759  2.4209  0.4076
   37MOL0     H 4860   2.560  -2.725   4.856  0.3592  1.6268  0.2945
   37MOL0     H 4861   2.541  -2.713   4.686 -0.6611 -1.3152  0.2087
   37MOL0     H 4862   2.338  -2.855   4.843  0.0886 -0.6389 -1.5362
   37MOL0     H 4863   2.390  -2.888   4.675  1.2610 -1.4894  0.1476
   37MOL0     H 4864   2.550  -2.989   4.899  1.1770  0.0984 -1.5550
   37MOL0     H 4865   2.571  -3.006   4.723  0.9894 -0.2911 -0.2007
   37MOL0     H 4866   2.204  -2.013   4.833 -2.4719  1.5538  0.7661
   37MOL0     H 4867   2.235  -1.775   4.840 -0.9417  2.0670 -0.8904
   37MOL0     H 4868   2.326  -1.329   4.905  0.5355 -3.0161 -1.6621
   37MOL0     H 4869   2.404  -1.086   4.863  0.1559  0.6879  1.1122
   37MOL0     H 4870   2.337   0.231   3.931 -0.5791 -1.1095  1.0337
   37MOL0     H 4871   2.481   0.251   3.744 -0.0051 -1.3681 -0.1759
   37MOL0     H 4872   2.395   0.599   3.336 -0.5715 -1.2651 -0.9356
   37MOL0     H 4873   2.452   0.705   3.129  1.6246  2.1885  1.1656
   37MOL0     H 4874   2.543   0.802   2.955  0.4724  4.7017 -2.1155
   37MOL0     H 4875   2.677   0.799   2.840  1.0760 -3.4208 -0.6584
   37MOL0     H 4876   2.670   0.888   3.130 -0.6785  0.5722 -0.2679
   37MOL0     H 4877   2.818   0.853   3.037 -0.2021 -0.4904 -1.8005
   37MOL0     H 4878   2.613   1.058   2.943  0.0241  1.5777  1.2643
   37MOL0     H 4879   2.774   1.031   2.891 -1.1415  2.0575 -0.3930
   37MOL0     H 4880   2.695   1.114   3.183 -0.3672  3.8899  1.5557
   37MOL0     H 4881   2.854   1.109   3.128 -1.5581  1.3428  3.9232
   37MOL0     H 4882   2.720   1.476   2.974  1.3221 -1.0398 -0.3899
   37MOL0     H 4883   2.807   0.466   3.084  1.0038 -0.7016 -0.2120
   37MOL0     H 4884   2.736   0.338   3.285  0.2678 -0.4717 -2.7779
   38MOL0     O 4885   7.443   6.818   5.043  0.4201 -0.2223  0.1555
   38MOL0     C 4886   7.509   6.752   5.126 -0.3815 -0.3974  0.7051
   38MOL0     O 4887   7.463   6.703   5.243 -0.0855 -0.1558 -0.4182
   38MOL0     C 4888   7.329   6.720   5.279 -0.0823 -0.3981 -1.1928
   38MOL0     C 4889   7.225   6.713   5.188 -0.4664 -0.0565 -0.0703
   38MOL0     C 4890   7.091   6.706   5.230 -0.0526 -0.5478  0.0519
   38MOL0     C 4891   7.056   6.734   5.369  0.9558 -0.2949  0.0770
   38MOL0     O 4892   6.918   6.731   5.394 -0.2720 -0.5115 -0.0499
   38MOL0     C 4893   6.877   6.810   5.509 -0.5924  0.1603 -0.4394
   38MOL0     C 4894   6.729   6.792   5.510  0.7541 -0.1003  1.0437
   38MOL0     C 4895   6.666   6.863   5.632 -0.0252  0.2061 -0.0665
   38MOL0     C 4896   6.521   6.830   5.654  0.3303  0.4816 -0.5444
   38MOL0     C 4897   6.463   6.903   5.765 -0.1051  0.0153 -0.6685
   38MOL0     C 4898   6.317   6.887   5.754  0.1241 -0.1594 -0.0850
   38MOL0     C 4899   6.245   6.929   5.877 -0.6357 -0.0710 -0.3934
   38MOL0     C 4900   6.096   6.900   5.873  0.3825  0.6333  0.2725
   38MOL0     N 4901   6.038   6.988   5.770  1.2101  0.2953 -0.3227
   38MOL0     C 4902   6.009   7.122   5.789 -0.1002 -0.6396 -1.0989
   38MOL0     C 4903   5.947   7.159   5.682 -0.1594 -0.1864 -0.0489
   38MOL0     C 4904   5.912   7.305   5.670 -0.9742  0.5815 -0.3802
   38MOL0     C 4905   5.828   7.342   5.546 -0.1635 -0.0724 -0.6798
   38MOL0     C 4906   5.898   7.318   5.411  0.3257  0.1774 -0.5178
   38MOL0     C 4907   5.820   7.352   5.290  0.8408 -0.3769 -0.4191
   38MOL0     O 4908   5.899   7.324   5.174  1.1092 -0.6442  0.1532
   38MOL0     C 4909   5.841   7.348   5.054 -0.3548 -0.2792  0.2710
   38MOL0     C 4910   5.705   7.394   5.040  0.3562  0.1084 -0.2256
   38MOL0     C 4911   5.652   7.427   4.915 -0.4072 -0.2292  0.5651
   38MOL0     C 4912   5.728   7.413   4.793  0.0322 -0.5755 -0.6676
   38MOL0     C 4913   5.682   7.443   4.660  0.3050  0.8167 -0.0143
   38MOL0     O 4914   5.731   7.388   4.540  0.2936 -0.1623  0.6155
   38MOL0     C 4915   5.667   7.373   4.414 -1.2607  0.2422 -0.2838
   38MOL0     C 4916   5.543   7.413   4.384  0.4080 -1.1137  1.7408
   38MOL0     C 4917   5.497   7.385   4.257 -0.0331 -0.3423  1.1526
   38MOL0     C 4918   5.572   7.305   4.161 -0.2416 -0.4292  0.0032
   38MOL0     O 4919   5.509   7.297   4.046  0.7720  0.0529 -0.0554
   38MOL0     C 4920   5.586   7.252   3.932  0.1144 -0.3494  0.7330
   38MOL0     C 4921   5.506   7.264   3.808 -0.5690 -0.2031  0.9100
   38MOL0     C 4922   5.376   7.189   3.832 -0.2405  0.3182  0.7722
   38MOL0     C 4923   5.292   7.166   3.702  0.2151 -0.4204  0.5726
   38MOL0     C 4924   5.191   7.054   3.715  0.5218 -0.6621  0.1382
   38MOL0     C 4925   5.081   7.059   3.611 -0.7730  0.2425  0.7641
   38MOL0     C 4926   5.147   7.022   3.468 -0.7663  0.9174 -0.3433
   38MOL0     C 4927   5.061   7.037   3.345  0.0129 -0.3114 -0.0593
   38MOL0    Cl 4928   5.131   7.041   3.178  0.2520  0.1514  0.1714
   38MOL0     C 4929   5.693   7.274   4.195 -0.1188  0.2418  0.2205
   38MOL0     C 4930   5.747   7.309   4.316  0.6684 -0.4349  0.5470
   38MOL0     O 4931   5.591   7.522   4.662  0.1779 -0.1664  0.5115
   38MOL0     C 4932   5.859   7.375   4.806  0.1138 -0.2187  0.4614
   38MOL0     C 4933   5.911   7.343   4.932  0.3068  0.4666  0.5236
   38MOL0     N 4934   5.927   7.049   5.599  0.3542 -0.4911 -0.1194
   38MOL0     N 4935   5.979   6.946   5.657 -0.2594  0.3398 -0.1455
   38MOL0     C 4936   7.164   6.765   5.454 -0.1851  0.7303  0.4037
   38MOL0     C 4937   7.299   6.747   5.410  0.3623  1.3137 -1.0621
   38MOL0     C 4938   7.652   6.727   5.087 -0.3451  0.8529  0.2044
   38MOL0     C 4939   7.735   6.667   5.187  0.6728 -0.2516 -0.8751
   38MOL0     C 4940   7.880   6.644   5.153  0.3296  0.4685  0.3673
   38MOL0     C 4941   7.929   6.663   5.025  0.5929 -0.0350  0.2236
   38MOL0     O 4942   8.062   6.644   5.006  0.1810 -0.8565 -0.1618
   38MOL0     C 4943   8.096   6.518   4.945  0.5317 -1.4967 -0.4207
   38MOL0     C 4944   8.215   6.453   5.005  0.4805 -0.3047  0.7405
   38MOL0     C 4945   8.349   6.527   4.992 -0.2175  0.3388  0.2665
   38MOL0     C 4946   8.457   6.413   4.974 -0.4760 -0.2950  0.4315
   38MOL0     C 4947   8.588   6.468   4.979 -0.6652 -0.0527  0.0871
   38MOL0     C 4948   8.701   6.521   4.973 -0.3167 -0.4695  0.3073
   38MOL0     C 4949   7.840   6.720   4.928  0.1705 -0.2540 -0.4045
   38MOL0     C 4950   7.703   6.756   4.960 -0.5701  0.3417 -0.4290
   38MOL0     H 4951   7.238   6.700   5.081  0.1629 -1.8669  0.1823
   38MOL0     H 4952   7.016   6.674   5.159 -3.1188  4.2496  0.6262
   38MOL0     H 4953   6.917   6.910   5.492  0.5133 -0.6531 -3.1061
   38MOL0     H 4954   6.925   6.766   5.597  1.6692  0.9565 -1.2111
   38MOL0     H 4955   6.699   6.688   5.519 -0.3381  0.0266 -0.7486
   38MOL0     H 4956   6.694   6.829   5.413 -0.3880 -0.0833  1.4500
   38MOL0     H 4957   6.676   6.972   5.624 -0.5789  0.2310 -0.5842
   38MOL0     H 4958   6.712   6.833   5.726 -1.8419 -0.6814  0.5828
   38MOL0     H 4959   6.472   6.857   5.560 -0.2664  0.2482 -0.3053
   38MOL0     H 4960   6.516   6.724   5.679 -0.7201  0.7018  0.2696
   38MOL0     H 4961   6.485   7.010   5.762 -0.0945  0.1035  1.2885
   38MOL0     H 4962   6.506   6.852   5.852 -2.0353 -0.9128 -0.1925
   38MOL0     H 4963   6.293   6.781   5.738  1.7092 -1.0153  2.6742
   38MOL0     H 4964   6.288   6.940   5.663 -1.5914  1.3497  1.2535
   38MOL0     H 4965   6.281   6.877   5.967 -2.5176  0.2335  0.5757
   38MOL0     H 4966   6.265   7.036   5.889 -0.2353 -0.3301  1.6903
   38MOL0     H 4967   6.054   6.935   5.968 -0.0128  2.1004 -0.4166
   38MOL0     H 4968   6.081   6.794   5.852  4.6666 -0.3410  1.0574
   38MOL0     H 4969   6.040   7.185   5.872  0.3299 -1.0079 -0.9803
   38MOL0     H 4970   6.007   7.358   5.680 -1.8040  1.7341  2.3096
   38MOL0     H 4971   5.847   7.330   5.754 -1.4089 -2.1942  0.2316
   38MOL0     H 4972   5.814   7.450   5.554 -0.1556 -0.1202  0.0493
   38MOL0     H 4973   5.730   7.293   5.546  0.6302 -1.7806  0.6667
   38MOL0     H 4974   5.984   7.385   5.411 -0.0919  0.7966  1.5559
   38MOL0     H 4975   5.924   7.213   5.396 -0.3836 -0.1322  0.2946
   38MOL0     H 4976   5.779   7.453   5.293  1.6113 -0.0402 -0.8759
   38MOL0     H 4977   5.728   7.294   5.300 -1.8408  3.6484  0.3766
   38MOL0     H 4978   5.637   7.393   5.124 -1.3223 -2.2041 -1.5006
   38MOL0     H 4979   5.551   7.466   4.907  0.3899  2.1916  1.4884
   38MOL0     H 4980   5.474   7.467   4.449 -1.3510 -0.0269 -0.8737
   38MOL0     H 4981   5.393   7.410   4.238 -0.1407 -0.9480  0.9283
   38MOL0     H 4982   5.610   7.146   3.944  0.0522 -0.2733  1.5937
   38MOL0     H 4983   5.678   7.306   3.911 -0.5500  0.0760 -1.3823
   38MOL0     H 4984   5.574   7.218   3.736  1.9558 -3.3949  4.9001
   38MOL0     H 4985   5.494   7.369   3.781  0.2461 -0.0731  1.0136
   38MOL0     H 4986   5.328   7.257   3.903  3.2488  2.8756  0.9268
   38MOL0     H 4987   5.394   7.098   3.889 -0.0423 -0.3702 -0.3588
   38MOL0     H 4988   5.248   7.262   3.672  2.5160  0.6029  0.2893
   38MOL0     H 4989   5.361   7.142   3.621 -0.1238 -0.9000  0.4200
   38MOL0     H 4990   5.137   7.073   3.808 -0.5145 -0.2723 -0.5158
   38MOL0     H 4991   5.251   6.963   3.725 -0.7955 -1.5715  0.1129
   38MOL0     H 4992   5.043   7.161   3.602 -0.5595  0.1242 -3.8273
   38MOL0     H 4993   5.001   6.987   3.633  0.1148 -2.0123 -2.5246
   38MOL0     H 4994   5.236   7.081   3.445  1.5387 -2.6545 -1.2681
   38MOL0     H 4995   5.179   6.918   3.473  3.7950  2.1436  1.7530
   38MOL0     H 4996   4.995   7.124   3.354 -0.8670 -0.5256 -3.3582
   38MOL0     H 4997   4.996   6.949   3.349  2.7107 -2.4097 -0.1969
   38MOL0     H 4998   5.750   7.212   4.126 -0.5893  0.2410 -0.1721
   38MOL0     H 4999   5.850   7.280   4.336  1.1766  0.4633 -0.6173
   38MOL0     H 5000   5.917   7.373   4.714 -0.6015 -1.8020  0.0039
   38MOL0     H 5001   6.019   7.332   4.939  0.4057  2.0798  3.2520
   38MOL0     H 5002   7.159   6.802   5.556  1.7579  2.3766 -0.0527
   38MOL0     H 5003   7.375   6.765   5.484  1.7664 -1.2115 -1.7687
   38MOL0     H 5004   7.697   6.658   5.289 -0.2343 -1.4459 -1.2933
   38MOL0     H 5005   7.950   6.614   5.229  0.4275  1.8513  0.8471
   38MOL0     H 5006   8.122   6.534   4.840  2.2104 -2.9914 -0.2695
   38MOL0     H 5007   8.015   6.445   4.954 -0.0193 -1.0881 -1.7470
   38MOL0     H 5008   8.197   6.438   5.112  1.1435  0.8854  1.0419
   38MOL0     H 5009   8.226   6.353   4.962  1.6346 -0.1611  0.6664
   38MOL0     H 5010   8.356   6.594   5.078 -0.0260  0.6615  0.0076
   38MOL0     H 5011   8.355   6.599   4.909 -4.1737  0.0747 -0.4468
   38MOL0     H 5012   8.446   6.356   5.067  0.3106 -0.5799  0.3548
   38MOL0     H 5013   8.451   6.353   4.883  1.9997  0.3449 -0.2317
   38MOL0     H 5014   8.793   6.577   4.974  0.6053 -1.9173  0.7171
   38MOL0     H 5015   7.874   6.760   4.833 -0.2002 -2.3750 -1.5057
   38MOL0     H 5016   7.649   6.795   4.874  1.7894  0.3572 -1.9860
   39MOL0     O 5017   8.868   6.905   9.274 -0.3649  0.2148  0.0067
   39MOL0     C 5018   8.866   6.826   9.183 -0.1387  0.8305  0.1917
   39MOL0     O 5019   8.976   6.778   9.119 -0.8082 -0.2795 -0.1835
   39MOL0     C 5020   9.105   6.823   9.139 -0.1390  0.2705 -0.5472
   39MOL0     C 5021   9.147   6.963   9.150  0.1590 -0.4801 -0.5608
   39MOL0     C 5022   9.281   7.001   9.179 -0.3656  0.8434  1.1319
   39MOL0     C 5023   9.377   6.900   9.172  0.3311  0.4069 -0.3298
   39MOL0     O 5024   9.503   6.939   9.177  1.2440 -0.0465  0.4486
   39MOL0     C 5025   9.614   6.849   9.151 -0.5345 -0.3290 -0.1113
   39MOL0     C 5026   9.735   6.938   9.172  0.2080 -0.7560 -0.5916
   39MOL0     C 5027   9.879   6.889   9.127  1.4978 -0.0847 -0.4843
   39MOL0     C 5028   9.908   6.742   9.155 -0.3853  0.2872 -0.3585
   39MOL0     C 5029  10.057   6.694   9.123 -0.2391  0.0764 -0.3069
   39MOL0     C 5030  10.156   6.753   9.224 -0.0157  0.4940  0.4189
   39MOL0     C 5031  10.301   6.726   9.176  0.0087 -0.2203 -0.0501
   39MOL0     C 5032  10.404   6.795   9.276 -0.0207  0.3983  0.6965
   39MOL0     N 5033  10.537   6.773   9.223 -0.1337  0.3849  0.8268
   39MOL0     C 5034  10.613   6.672   9.258 -0.3170 -0.4008 -0.1575
   39MOL0     C 5035  10.742   6.714   9.240  1.0578  0.8332 -0.2508
   39MOL0     C 5036  10.854   6.624   9.279  0.9336 -0.1857  1.1013
   39MOL0     C 5037  10.875   6.520   9.164 -0.6743 -0.2800  0.0588
   39MOL0     C 5038  10.996   6.427   9.189 -0.0155  0.6750  0.0100
   39MOL0     C 5039  11.000   6.315   9.084  0.7048 -0.3954 -0.6191
   39MOL0     O 5040  11.104   6.334   8.992  0.1377  0.5966  0.3519
   39MOL0     C 5041  11.127   6.240   8.900 -0.3812 -1.0247  0.4185
   39MOL0     C 5042  11.055   6.121   8.886 -0.4108 -0.2042 -0.0630
   39MOL0     C 5043  11.094   6.023   8.792  0.0445 -0.3609 -0.1794
   39MOL0     C 5044  11.206   6.048   8.701  0.3401 -0.7059  0.1826
   39MOL0     C 5045  11.241   5.949   8.600  0.5419 -0.4309  1.0431
   39MOL0     O 5046  11.358   5.969   8.532  0.5302  0.5107  0.6608
   39MOL0     C 5047  11.406   5.881   8.430 -0.4043 -0.8696  0.9682
   39MOL0     C 5048  11.324   5.852   8.317  0.4059  0.2352 -0.5416
   39MOL0     C 5049  11.367   5.760   8.227 -0.4343  0.6548  0.9913
   39MOL0     C 5050  11.491   5.691   8.232 -0.2211  0.1391 -1.1114
   39MOL0     O 5051  11.546   5.604   8.138  0.0029  0.9045 -0.4008
   39MOL0     C 5052  11.569   5.476   8.197  0.6240  0.5941  0.3558
   39MOL0     C 5053  11.688   5.415   8.126 -0.2972  0.9515  0.3372
   39MOL0     C 5054  11.713   5.266   8.171 -0.4027 -0.1666 -0.0921
   39MOL0     C 5055  11.768   5.242   8.314  1.0586 -1.1403 -0.3743
   39MOL0     C 5056  11.917   5.237   8.303 -1.0031  0.1356  0.1616
   39MOL0     C 5057  12.003   5.235   8.432  0.8582 -0.0968  0.4418
   39MOL0     C 5058  12.139   5.186   8.378  0.4053 -0.4095 -0.0554
   39MOL0     C 5059  12.246   5.200   8.487 -0.2153 -0.0603 -0.1707
   39MOL0    Cl 5060  12.401   5.170   8.422  0.5698  0.2675 -0.1152
   39MOL0     C 5061  11.573   5.737   8.340 -0.4139  0.1586 -0.3030
   39MOL0     C 5062  11.532   5.822   8.439  0.3898 -0.7195 -0.4569
   39MOL0     O 5063  11.159   5.861   8.574  0.2592  0.7049  0.0265
   39MOL0     C 5064  11.276   6.172   8.716 -0.8975  0.3594  0.0763
   39MOL0     C 5065  11.237   6.256   8.813 -0.1799  0.0564 -0.0027
   39MOL0     N 5066  10.740   6.842   9.198  0.6818 -0.6434 -0.3984
   39MOL0     N 5067  10.618   6.877   9.190 -0.8106  0.1870  0.7734
   39MOL0     C 5068   9.336   6.767   9.149  0.0997 -0.1405  0.0296
   39MOL0     C 5069   9.203   6.729   9.137 -0.5190  0.8260 -0.1408
   39MOL0     C 5070   8.736   6.771   9.142  0.5230 -0.2209  0.3410
   39MOL0     C 5071   8.615   6.769   9.215  0.6044  0.5143 -0.0153
   39MOL0     C 5072   8.492   6.700   9.177 -0.9343  0.3946  0.3112
   39MOL0     C 5073   8.489   6.606   9.066 -0.1795  0.0368  0.7642
   39MOL0     O 5074   8.400   6.511   9.020  0.3313 -0.0733 -0.7712
   39MOL0     C 5075   8.263   6.553   9.030 -0.8826  0.5045  0.3910
   39MOL0     C 5076   8.222   6.623   8.903 -0.5392 -0.2783 -0.0787
   39MOL0     C 5077   8.139   6.751   8.947 -0.0634 -0.5844  0.2350
   39MOL0     C 5078   8.088   6.823   8.818  0.3497  0.7111  0.1259
   39MOL0     C 5079   7.984   6.914   8.858 -0.0648 -0.1103 -0.6535
   39MOL0     C 5080   7.897   6.985   8.893 -0.1884 -0.3930 -0.6494
   39MOL0     C 5081   8.613   6.610   8.998 -0.5031 -0.5933  1.1551
   39MOL0     C 5082   8.724   6.694   9.030  0.1207 -0.2347  0.2407
   39MOL0     H 5083   9.073   7.040   9.135  0.3032 -0.2890 -0.3086
   39MOL0     H 5084   9.289   7.103   9.215 -0.9329  1.4010 -0.2324
   39MOL0     H 5085   9.615   6.811   9.048 -0.5286  1.8958 -1.0090
   39MOL0     H 5086   9.617   6.763   9.217 -1.3564 -1.5504 -1.6104
   39MOL0     H 5087   9.737   6.968   9.278  2.4054 -2.0222 -0.2013
   39MOL0     H 5088   9.715   7.024   9.108  0.2837  0.2940  0.7426
   39MOL0     H 5089   9.946   6.950   9.189  1.3805 -1.9752  1.6563
   39MOL0     H 5090   9.877   6.898   9.018  0.4130  2.3461 -0.3208
   39MOL0     H 5091   9.885   6.721   9.260 -2.6261 -0.8214 -1.0142
   39MOL0     H 5092   9.830   6.690   9.098 -1.5430 -0.2324  1.5954
   39MOL0     H 5093  10.085   6.720   9.021  2.1903  0.4463  0.3974
   39MOL0     H 5094  10.068   6.585   9.135 -0.1470 -0.2651 -2.9952
   39MOL0     H 5095  10.138   6.712   9.324 -0.5157  2.8903  1.3817
   39MOL0     H 5096  10.129   6.857   9.240 -0.0970  1.2463 -3.6069
   39MOL0     H 5097  10.320   6.619   9.167  0.0662 -0.0446 -2.7789
   39MOL0     H 5098  10.318   6.757   9.073  1.9069 -0.2552  0.2313
   39MOL0     H 5099  10.392   6.745   9.373  1.1040  0.6596  0.9786
   39MOL0     H 5100  10.381   6.901   9.287  0.7785  0.5459  0.9686
   39MOL0     H 5101  10.581   6.576   9.299 -3.0042  0.4455 -0.0518
   39MOL0     H 5102  10.834   6.566   9.370  0.0395 -0.8843  0.4694
   39MOL0     H 5103  10.952   6.672   9.286  0.9992 -0.4792  2.4899
   39MOL0     H 5104  10.899   6.573   9.072  1.9857 -1.2054  0.1360
   39MOL0     H 5105  10.789   6.453   9.156 -0.4839 -0.3697 -1.4547
   39MOL0     H 5106  11.091   6.482   9.187  1.3729 -1.5262  1.4604
   39MOL0     H 5107  10.980   6.378   9.285  1.1982  2.3864  1.1588
   39MOL0     H 5108  10.902   6.306   9.038 -0.3402  0.2444  1.3501
   39MOL0     H 5109  11.013   6.223   9.143 -2.5130 -1.4814 -1.4096
   39MOL0     H 5110  10.973   6.094   8.952  0.2971 -0.8056  0.5766
   39MOL0     H 5111  11.045   5.927   8.785 -0.0468 -0.4490  1.2582
   39MOL0     H 5112  11.232   5.906   8.298  0.9877  1.9345  1.0826
   39MOL0     H 5113  11.296   5.734   8.148 -0.4844  1.3109  0.8148
   39MOL0     H 5114  11.488   5.406   8.173  2.3260 -1.1448 -0.6474
   39MOL0     H 5115  11.597   5.490   8.301  4.0839 -0.2621 -0.3301
   39MOL0     H 5116  11.774   5.480   8.145  0.3833  1.3723 -3.3514
   39MOL0     H 5117  11.669   5.426   8.019 -0.2871 -0.7705  0.1399
   39MOL0     H 5118  11.787   5.220   8.104  1.9378  0.4189  1.9432
   39MOL0     H 5119  11.625   5.203   8.151 -0.0081 -0.0658 -2.4834
   39MOL0     H 5120  11.732   5.326   8.375 -1.7926 -1.5990 -1.2599
   39MOL0     H 5121  11.723   5.153   8.358 -2.0608 -1.0457 -3.0151
   39MOL0     H 5122  11.969   5.313   8.243 -0.8784  0.1650  0.3050
   39MOL0     H 5123  11.936   5.147   8.244 -0.6166  0.4574 -0.2142
   39MOL0     H 5124  11.959   5.163   8.501  3.9139 -1.7223  0.8581
   39MOL0     H 5125  12.009   5.338   8.467 -2.2480  1.1740 -2.2214
   39MOL0     H 5126  12.129   5.085   8.337 -1.1772  0.2817 -1.5131
   39MOL0     H 5127  12.164   5.255   8.298 -3.1538 -0.1696 -1.1506
   39MOL0     H 5128  12.225   5.141   8.577 -0.2554  2.9336  1.9310
   39MOL0     H 5129  12.256   5.304   8.520  1.9422  0.0325 -0.9837
   39MOL0     H 5130  11.671   5.692   8.344 -0.5303 -0.2142 -1.4583
   39MOL0     H 5131  11.577   5.839   8.536 -2.3048  0.6000  0.6620
   39MOL0     H 5132  11.370   6.175   8.662  0.0737 -1.9595  1.4551
   39MOL0     H 5133  11.293   6.346   8.833  0.9982 -1.1131  2.4573
   39MOL0     H 5134   9.413   6.693   9.171 -1.7842 -1.6920  1.7937
   39MOL0     H 5135   9.183   6.625   9.112  0.2649 -0.6179  4.2004
   39MOL0     H 5136   8.603   6.822   9.309 -1.3159 -0.4398  0.3359
   39MOL0     H 5137   8.408   6.690   9.244 -1.2036 -2.4004 -0.3366
   39MOL0     H 5138   8.244   6.608   9.123 -0.1453  1.9308 -0.2697
   39MOL0     H 5139   8.200   6.465   9.046  0.4229 -0.2061  1.9857
   39MOL0     H 5140   8.313   6.665   8.861 -0.5832  5.1094  4.0484
   39MOL0     H 5141   8.167   6.550   8.843 -1.1208  0.3023 -0.2817
   39MOL0     H 5142   8.199   6.818   9.009 -1.6062 -0.0431  1.1818
   39MOL0     H 5143   8.057   6.710   9.007 -1.1094 -0.5166 -1.0963
   39MOL0     H 5144   8.163   6.872   8.755 -0.1351  2.3283  0.7511
   39MOL0     H 5145   8.041   6.739   8.767  1.4005 -2.9828  4.5171
   39MOL0     H 5146   7.812   7.048   8.908 -0.4622 -1.3745  3.0150
   39MOL0     H 5147   8.622   6.551   8.907 -1.6315 -1.1800  1.3996
   39MOL0     H 5148   8.811   6.681   8.966 -2.5809 -0.4406 -3.6973
   40MOL0     O 5149  11.286   8.925   7.360 -0.0651  0.3196  0.3903
   40MOL0     C 5150  11.368   9.010   7.392 -0.7194  0.6979  0.3222
   40MOL0     O 5151  11.396   9.131   7.324 -0.9159  0.3001  0.1220
   40MOL0     C 5152  11.317   9.167   7.218 -0.7126 -0.1438 -0.5949
   40MOL0     C 5153  11.265   9.093   7.117 -0.3651  0.7126  0.7442
   40MOL0     C 5154  11.178   9.151   7.025 -0.4623  0.6855 -0.9854
   40MOL0     C 5155  11.144   9.289   7.037  0.5315  0.8513  0.0484
   40MOL0     O 5156  11.059   9.336   6.939  0.3222  0.9770 -0.0011
   40MOL0     C 5157  10.952   9.416   6.986  0.2464  0.3679 -0.5644
   40MOL0     C 5158  10.836   9.430   6.888 -0.2952  0.2828  0.2147
   40MOL0     C 5159  10.726   9.524   6.928  0.0636  0.3099  0.1501
   40MOL0     C 5160  10.639   9.463   7.041 -0.5455 -0.3622  0.0602
   40MOL0     C 5161  10.516   9.557   7.066 -0.7628 -0.1500 -0.6932
   40MOL0     C 5162  10.399   9.543   6.967 -0.4008  0.9213  0.7543
   40MOL0     C 5163  10.283   9.619   7.027  0.0336 -1.1723 -0.3920
   40MOL0     C 5164  10.303   9.774   7.035  1.1031  0.2566 -0.6995
   40MOL0     N 5165  10.176   9.841   7.087  0.2900  0.1281 -0.8712
   40MOL0     C 5166  10.098   9.840   7.199 -0.5915  0.4939 -0.4182
   40MOL0     C 5167   9.998   9.931   7.190  0.9228 -0.0154  0.5938
   40MOL0     C 5168   9.894   9.946   7.303  0.3025  0.7437  0.0950
   40MOL0     C 5169   9.801  10.068   7.294  0.1484  0.5381 -0.0272
   40MOL0     C 5170   9.715  10.053   7.176 -0.1698  1.5026  0.6307
   40MOL0     C 5171   9.651  10.180   7.138  0.7068  0.3746  0.8075
   40MOL0     O 5172   9.561  10.237   7.237  1.1475  0.0364  0.0152
   40MOL0     C 5173   9.430  10.191   7.229  0.3308  0.4384  0.8899
   40MOL0     C 5174   9.373  10.070   7.181  0.3676 -0.1332  1.6931
   40MOL0     C 5175   9.235  10.048   7.193  0.0343  1.0699  0.2255
   40MOL0     C 5176   9.145  10.146   7.245 -0.3326 -0.3923 -0.8545
   40MOL0     C 5177   9.003  10.114   7.265  0.5894  0.3030 -0.3263
   40MOL0     O 5178   8.947  10.005   7.199 -0.0383 -0.5834 -0.0682
   40MOL0     C 5179   8.817   9.981   7.216  0.8370  0.1757 -0.1173
   40MOL0     C 5180   8.742   9.974   7.336  0.7025 -0.0188  0.6228
   40MOL0     C 5181   8.604   9.941   7.328 -0.0451 -0.2427  0.1436
   40MOL0     C 5182   8.542   9.922   7.204 -0.4088  0.2760  0.3854
   40MOL0     O 5183   8.407   9.888   7.192  0.4389 -0.3522 -0.3004
   40MOL0     C 5184   8.328   9.910   7.303 -0.4023 -0.2125 -0.2556
   40MOL0     C 5185   8.181   9.886   7.290 -0.8669  0.3320  0.7234
   40MOL0     C 5186   8.092   9.883   7.413  0.2791 -0.7720  0.3009
   40MOL0     C 5187   8.134   9.989   7.524  0.3145  0.5985  1.0882
   40MOL0     C 5188   8.033   9.974   7.644 -1.1179 -0.4369 -1.5418
   40MOL0     C 5189   8.019   9.835   7.704 -0.4682 -0.2173  1.2663
   40MOL0     C 5190   8.017   9.830   7.854  0.1927  0.4773 -0.2886
   40MOL0     C 5191   8.155   9.866   7.914 -0.4846  0.2486 -1.0858
   40MOL0    Cl 5192   8.270   9.728   7.896  0.1805 -0.5455 -0.0459
   40MOL0     C 5193   8.616   9.941   7.086 -1.0398 -0.1788  0.7139
   40MOL0     C 5194   8.753   9.969   7.091 -0.6500  0.3614 -0.1266
   40MOL0     O 5195   8.937  10.195   7.335 -0.4618  0.0560 -0.1593
   40MOL0     C 5196   9.204  10.267   7.298  0.6257  0.1415 -0.2888
   40MOL0     C 5197   9.343  10.282   7.292 -0.4823 -0.3055  0.1352
   40MOL0     N 5198  10.018   9.980   7.064  0.2855 -0.5122  0.4274
   40MOL0     N 5199  10.122   9.936   7.005 -0.7695 -1.0562 -0.2408
   40MOL0     C 5200  11.217   9.370   7.133 -0.6601 -0.6429  0.0950
   40MOL0     C 5201  11.309   9.307   7.223  0.4066 -0.5899 -1.0210
   40MOL0     C 5202  11.469   8.970   7.489 -0.2826  0.5757  0.2101
   40MOL0     C 5203  11.556   9.062   7.558 -0.6389 -0.8475  0.2728
   40MOL0     C 5204  11.647   9.018   7.642  0.6101 -1.1265 -0.3246
   40MOL0     C 5205  11.649   8.881   7.678  0.6082 -0.2590 -0.4368
   40MOL0     O 5206  11.727   8.830   7.782 -0.2928 -0.6264 -0.7498
   40MOL0     C 5207  11.868   8.814   7.748 -0.1968  0.0843  0.4396
   40MOL0     C 5208  11.921   8.680   7.688 -0.7082 -0.4371  0.3741
   40MOL0     C 5209  11.979   8.587   7.798 -0.1301 -0.3656  0.6058
   40MOL0     C 5210  12.136   8.605   7.815 -0.3852  0.2521  0.3734
   40MOL0     C 5211  12.190   8.488   7.874 -0.2236  0.1875  1.5080
   40MOL0     C 5212  12.215   8.379   7.926 -0.5884 -0.9802  0.5260
   40MOL0     C 5213  11.579   8.784   7.600 -0.0389 -0.5304 -0.0500
   40MOL0     C 5214  11.488   8.827   7.513 -0.4039  0.2705 -0.5769
   40MOL0     H 5215  11.282   8.986   7.124 -1.2206  0.6773  2.6810
   40MOL0     H 5216  11.129   9.092   6.948  0.7530 -0.9087 -0.6017
   40MOL0     H 5217  10.984   9.518   7.007 -0.3158  0.0566  2.4011
   40MOL0     H 5218  10.906   9.372   7.076 -0.7376  0.4786 -0.9980
   40MOL0     H 5219  10.792   9.330   6.881  1.7094 -0.6523  0.2856
   40MOL0     H 5220  10.879   9.450   6.789 -3.2212  1.1047 -1.0183
   40MOL0     H 5221  10.677   9.541   6.832  1.8273  1.6188 -0.5717
   40MOL0     H 5222  10.757   9.626   6.954  0.3705 -0.1806  1.8555
   40MOL0     H 5223  10.606   9.359   7.031 -0.3361 -0.4526  0.2908
   40MOL0     H 5224  10.700   9.460   7.132 -0.7742 -1.6276  0.1991
   40MOL0     H 5225  10.553   9.659   7.050 -1.7094  0.1846 -0.8383
   40MOL0     H 5226  10.478   9.543   7.168 -1.0926  1.1742 -0.6127
   40MOL0     H 5227  10.388   9.437   6.947  0.3436  0.9809 -0.0261
   40MOL0     H 5228  10.430   9.583   6.870 -2.3597 -0.0634 -0.3174
   40MOL0     H 5229  10.198   9.600   6.961  0.4856 -0.5423 -1.1754
   40MOL0     H 5230  10.247   9.580   7.123 -0.8561  0.1618 -0.1558
   40MOL0     H 5231  10.311   9.796   6.928  1.3619 -2.0607 -1.2147
   40MOL0     H 5232  10.392   9.803   7.091  1.7056 -1.4400 -0.7264
   40MOL0     H 5233  10.111   9.780   7.288 -0.1709  2.3019  0.8128
   40MOL0     H 5234   9.944   9.946   7.400  1.7094  0.8923 -0.6072
   40MOL0     H 5235   9.838   9.851   7.302  2.0041 -0.3059 -1.5627
   40MOL0     H 5236   9.866  10.156   7.286  0.9423 -0.1602 -1.6078
   40MOL0     H 5237   9.729  10.080   7.376  0.1933  3.0466 -0.2698
   40MOL0     H 5238   9.767   9.995   7.099 -1.1748 -1.3544  1.9553
   40MOL0     H 5239   9.643   9.977   7.209  3.4701 -2.5785  0.1021
   40MOL0     H 5240   9.586  10.165   7.052 -1.7785  4.9483  1.5803
   40MOL0     H 5241   9.715  10.262   7.104 -0.7304  1.6931  1.1333
   40MOL0     H 5242   9.431  10.001   7.121 -1.5185  1.8230 -2.8315
   40MOL0     H 5243   9.203   9.948   7.166 -0.8463  0.9781  1.5056
   40MOL0     H 5244   8.805   9.986   7.423  1.4425  1.4067 -0.0816
   40MOL0     H 5245   8.544   9.941   7.418 -2.2068 -0.1330 -1.2373
   40MOL0     H 5246   8.350  10.003   7.356  0.2883  0.1288 -1.1293
   40MOL0     H 5247   8.347   9.820   7.363  2.3393 -1.2029 -2.4032
   40MOL0     H 5248   8.162   9.794   7.232 -3.4873 -1.6778  4.3369
   40MOL0     H 5249   8.142   9.968   7.229  1.0949 -0.3691 -1.6293
   40MOL0     H 5250   8.090   9.782   7.454  0.3529 -0.4522  1.1355
   40MOL0     H 5251   7.993   9.915   7.379  0.1275  0.5821  1.8576
   40MOL0     H 5252   8.235   9.966   7.558  0.1485 -2.8536 -0.2674
   40MOL0     H 5253   8.136  10.084   7.469  2.1821 -0.0780 -0.1142
   40MOL0     H 5254   7.934  10.012   7.617  0.0035  2.1696 -2.3521
   40MOL0     H 5255   8.076  10.042   7.718 -0.8055  0.1246 -2.2197
   40MOL0     H 5256   8.094   9.766   7.664 -0.3384  1.4238 -1.5975
   40MOL0     H 5257   7.925   9.788   7.675  1.6245 -4.5382  0.5471
   40MOL0     H 5258   7.940   9.893   7.899 -2.8709 -3.9521  1.4033
   40MOL0     H 5259   7.984   9.732   7.888 -2.5138  1.5037  0.3255
   40MOL0     H 5260   8.143   9.872   8.023 -1.0569  0.1259 -1.1384
   40MOL0     H 5261   8.202   9.959   7.881 -0.8938  0.7252 -0.3642
   40MOL0     H 5262   8.573   9.922   6.988 -1.2500  1.5707  0.4312
   40MOL0     H 5263   8.796   9.968   6.991 -1.5015  1.6670 -0.5217
   40MOL0     H 5264   9.151  10.347   7.350 -2.2016 -0.7883 -1.5147
   40MOL0     H 5265   9.386  10.368   7.342  0.1637  0.3115 -1.4422
   40MOL0     H 5266  11.216   9.479   7.131  2.9444 -0.4713 -1.9723
   40MOL0     H 5267  11.354   9.372   7.298 -1.5378  2.8962 -2.6153
   40MOL0     H 5268  11.548   9.165   7.524  1.5736 -0.7214 -0.0418
   40MOL0     H 5269  11.713   9.090   7.690  0.8018 -1.6498  0.2116
   40MOL0     H 5270  11.936   8.847   7.827  0.5779  0.0167 -0.1824
   40MOL0     H 5271  11.889   8.887   7.670 -0.7564  0.3427  0.5256
   40MOL0     H 5272  11.839   8.629   7.637 -0.6763 -2.0155  1.8149
   40MOL0     H 5273  11.989   8.706   7.606 -0.3771 -1.6913  0.2377
   40MOL0     H 5274  11.948   8.492   7.752  0.8707  0.6198 -2.3029
   40MOL0     H 5275  11.927   8.588   7.895 -0.7667 -1.4309  0.2866
   40MOL0     H 5276  12.186   8.637   7.723 -0.0026  1.6623  1.0343
   40MOL0     H 5277  12.155   8.687   7.885  4.3036 -0.8487  0.7020
   40MOL0     H 5278  12.243   8.282   7.963 -2.7937 -1.3982  1.2371
   40MOL0     H 5279  11.593   8.684   7.640  0.8339 -0.4753 -0.1982
   40MOL0     H 5280  11.421   8.772   7.448  0.1409  0.5057 -1.3519
   41MOL0     O 5281   7.166   5.696   5.570 -0.0077  0.0752 -0.1240
   41MOL0     C 5282   7.185   5.783   5.497  0.0509 -1.0500  0.3634
   41MOL0     O 5283   7.101   5.881   5.468  0.3194  1.2609  0.2592
   41MOL0     C 5284   6.987   5.883   5.546 -0.3668  0.2636 -0.4710
   41MOL0     C 5285   6.991   5.963   5.665 -0.2818 -0.8920 -0.2291
   41MOL0     C 5286   6.876   5.978   5.740  0.3213  0.6827 -0.7008
   41MOL0     C 5287   6.754   5.912   5.704  0.1641 -0.1851  0.5838
   41MOL0     O 5288   6.635   5.933   5.772 -0.4343 -0.5116 -0.4684
   41MOL0     C 5289   6.509   5.896   5.707  0.4122 -0.3300 -0.1983
   41MOL0     C 5290   6.400   5.992   5.759 -1.0270  0.2896  0.7675
   41MOL0     C 5291   6.349   5.972   5.904  0.0799  0.1205  0.8185
   41MOL0     C 5292   6.265   6.092   5.943 -0.0703  0.1768 -0.5771
   41MOL0     C 5293   6.161   6.059   6.051 -0.3640 -0.7087  0.3929
   41MOL0     C 5294   6.216   6.076   6.195  0.3833 -0.8441 -0.8266
   41MOL0     C 5295   6.142   5.998   6.310 -0.5698 -0.3065  0.7359
   41MOL0     C 5296   6.021   6.050   6.393  0.8639  0.0424  0.5360
   41MOL0     N 5297   5.894   6.081   6.335  0.1801 -0.3371 -0.7094
   41MOL0     C 5298   5.858   6.178   6.251  0.1503 -0.7802  0.3291
   41MOL0     C 5299   5.729   6.202   6.278 -0.0842  0.6777 -0.5746
   41MOL0     C 5300   5.641   6.293   6.205  0.9504  0.2655  0.1302
   41MOL0     C 5301   5.570   6.219   6.084  0.9490 -0.4756 -0.8078
   41MOL0     C 5302   5.485   6.321   6.005 -0.2259 -0.0054  0.1367
   41MOL0     C 5303   5.387   6.245   5.912  0.4874  0.0062 -0.3350
   41MOL0     O 5304   5.452   6.182   5.805 -0.2879 -0.0834  0.4514
   41MOL0     C 5305   5.514   6.253   5.702  1.0561  0.5899  0.1190
   41MOL0     C 5306   5.601   6.168   5.633 -0.5510 -0.0554  0.1708
   41MOL0     C 5307   5.689   6.225   5.538 -0.0251  0.9062 -0.3539
   41MOL0     C 5308   5.706   6.363   5.536  0.1889 -0.6983 -0.6118
   41MOL0     C 5309   5.818   6.429   5.456  0.2792 -0.9927  0.1526
   41MOL0     O 5310   5.812   6.567   5.424 -0.4260 -1.0938  0.0296
   41MOL0     C 5311   5.929   6.625   5.377 -0.3227  0.5162 -0.2778
   41MOL0     C 5312   5.957   6.616   5.246 -0.1760 -0.1619  0.2276
   41MOL0     C 5313   6.074   6.686   5.186  0.4410  0.2406 -1.0025
   41MOL0     C 5314   6.164   6.750   5.274 -0.8174 -0.0988 -0.2914
   41MOL0     O 5315   6.282   6.820   5.238 -0.1843 -0.1504  0.8482
   41MOL0     C 5316   6.339   6.788   5.105  0.8018  0.0122  0.2441
   41MOL0     C 5317   6.402   6.641   5.116  0.3225 -0.7848 -0.8589
   41MOL0     C 5318   6.466   6.596   4.989  0.3755  0.7203  0.2590
   41MOL0     C 5319   6.547   6.462   5.016  0.2538  0.1982  0.2667
   41MOL0     C 5320   6.568   6.391   4.880  0.3880  0.2593 -0.9549
   41MOL0     C 5321   6.662   6.270   4.896  0.6595  0.8243 -0.8186
   41MOL0     C 5322   6.710   6.201   4.764  1.1200  0.3046 -0.0893
   41MOL0     C 5323   6.806   6.088   4.780  0.1721 -0.0023  1.3378
   41MOL0    Cl 5324   6.973   6.140   4.819 -0.3942 -0.6993 -0.2240
   41MOL0     C 5325   6.127   6.750   5.418  1.0218 -0.0622  0.4437
   41MOL0     C 5326   6.013   6.687   5.464  0.3574  0.1072  0.0972
   41MOL0     O 5327   5.906   6.351   5.437 -0.0879 -0.6639  0.5405
   41MOL0     C 5328   5.610   6.453   5.604 -0.4692  0.7564 -0.1747
   41MOL0     C 5329   5.507   6.390   5.682  0.2484 -0.9630 -0.4735
   41MOL0     N 5330   5.697   6.113   6.379  0.4329 -0.3657  0.6182
   41MOL0     N 5331   5.797   6.031   6.407  0.7467 -0.5787  0.7356
   41MOL0     C 5332   6.765   5.824   5.587 -0.3294 -0.6802  0.6403
   41MOL0     C 5333   6.875   5.815   5.515 -0.3690 -0.3031  0.2415
   41MOL0     C 5334   7.319   5.804   5.447 -0.2080  0.3528 -0.1276
   41MOL0     C 5335   7.427   5.704   5.460 -0.1150 -1.0585 -0.7873
   41MOL0     C 5336   7.547   5.723   5.391 -0.2043  0.2294 -0.2245
   41MOL0     C 5337   7.572   5.845   5.321  0.4867  0.0632  0.2718
   41MOL0     O 5338   7.701   5.879   5.278  0.0815 -0.5337  0.7547
   41MOL0     C 5339   7.718   5.907   5.140  0.1840  0.0745 -0.1476
   41MOL0     C 5340   7.843   5.835   5.085  0.0330  0.0804  1.4187
   41MOL0     C 5341   7.839   5.682   5.081 -0.7042 -0.2200 -0.1868
   41MOL0     C 5342   7.965   5.612   5.024  0.6676 -0.6802  0.2429
   41MOL0     C 5343   7.980   5.624   4.876 -0.0307  0.0175 -0.6489
   41MOL0     C 5344   7.990   5.627   4.755  0.6574  0.0365 -0.2387
   41MOL0     C 5345   7.470   5.927   5.295 -0.2269  0.2980 -1.1376
   41MOL0     C 5346   7.347   5.903   5.356  0.1960 -0.4513 -0.0021
   41MOL0     H 5347   7.080   6.018   5.691 -1.1024  1.2129 -1.6126
   41MOL0     H 5348   6.877   6.053   5.818  4.0809 -0.6840  0.8004
   41MOL0     H 5349   6.482   5.792   5.731  0.2213 -0.0986  0.6187
   41MOL0     H 5350   6.514   5.906   5.598 -0.8310 -1.6340 -0.4160
   41MOL0     H 5351   6.318   5.969   5.690  2.5134 -0.9629 -3.4348
   41MOL0     H 5352   6.438   6.092   5.740 -2.5049  0.7179 -0.1318
   41MOL0     H 5353   6.444   5.975   5.959  1.0599  3.4288 -0.7804
   41MOL0     H 5354   6.291   5.880   5.915  2.8974 -2.2486 -2.4289
   41MOL0     H 5355   6.332   6.169   5.983  1.4005 -1.3166 -0.0463
   41MOL0     H 5356   6.214   6.125   5.853  2.0749 -0.4111 -2.0818
   41MOL0     H 5357   6.128   5.957   6.029 -0.2976 -0.5152 -0.6538
   41MOL0     H 5358   6.070   6.121   6.048 -0.5181 -0.9704 -1.4784
   41MOL0     H 5359   6.212   6.184   6.207 -0.5188 -0.4069 -3.9905
   41MOL0     H 5360   6.321   6.047   6.201  0.8913  0.8114 -1.2434
   41MOL0     H 5361   6.094   5.915   6.256 -0.9727  1.4387 -1.7844
   41MOL0     H 5362   6.224   5.967   6.376 -0.2239  0.7930  0.8430
   41MOL0     H 5363   6.055   6.148   6.429 -3.5167  2.6012 -1.5505
   41MOL0     H 5364   6.012   5.972   6.469 -0.2459 -0.2663  0.1041
   41MOL0     H 5365   5.918   6.247   6.191 -1.1849 -0.9115 -1.2388
   41MOL0     H 5366   5.718   6.354   6.156 -0.6895 -0.6320 -4.0320
   41MOL0     H 5367   5.567   6.346   6.265  1.7731 -0.3215  1.7066
   41MOL0     H 5368   5.519   6.133   6.128  1.8725 -0.9374 -0.6141
   41MOL0     H 5369   5.653   6.176   6.028  2.2287  2.6992 -1.6081
   41MOL0     H 5370   5.430   6.396   6.064  0.5055 -0.4905  1.4640
   41MOL0     H 5371   5.557   6.376   5.944  0.1919 -0.4159  0.2564
   41MOL0     H 5372   5.308   6.313   5.879 -1.5567 -1.5949  0.9964
   41MOL0     H 5373   5.342   6.167   5.974  2.1648  0.2146  1.2327
   41MOL0     H 5374   5.590   6.060   5.642 -0.0139 -0.4974 -3.1174
   41MOL0     H 5375   5.739   6.160   5.467  0.2930  0.9174 -0.1388
   41MOL0     H 5376   5.890   6.554   5.187 -1.6370  0.8027  0.8272
   41MOL0     H 5377   6.089   6.678   5.079 -1.8434  2.5778 -1.5834
   41MOL0     H 5378   6.412   6.866   5.084  1.7812 -1.2236 -1.1959
   41MOL0     H 5379   6.267   6.792   5.022 -0.8392  1.5421  1.6598
   41MOL0     H 5380   6.320   6.569   5.125  1.2684 -1.6704  1.6873
   41MOL0     H 5381   6.467   6.625   5.203 -0.3629  0.0679 -0.1717
   41MOL0     H 5382   6.540   6.664   4.946  0.4344  0.9217  0.6782
   41MOL0     H 5383   6.381   6.574   4.924  1.7405 -0.7487 -1.1244
   41MOL0     H 5384   6.637   6.476   5.077 -0.0683  0.7734  0.6294
   41MOL0     H 5385   6.490   6.397   5.083  2.0228 -0.9635  0.6994
   41MOL0     H 5386   6.627   6.453   4.811  2.6068 -0.2833  0.3464
   41MOL0     H 5387   6.480   6.351   4.830  1.4084  0.0445 -2.6486
   41MOL0     H 5388   6.612   6.199   4.963 -0.8312  2.8712  0.3379
   41MOL0     H 5389   6.752   6.298   4.952 -0.6844 -0.1602  2.0270
   41MOL0     H 5390   6.632   6.168   4.693  1.7344 -2.1340  0.2924
   41MOL0     H 5391   6.765   6.281   4.713 -0.6372  0.2752 -2.2416
   41MOL0     H 5392   6.795   6.025   4.691  2.5241  2.2820 -0.7091
   41MOL0     H 5393   6.766   6.025   4.860  1.3958 -2.1158  0.3614
   41MOL0     H 5394   6.181   6.806   5.493  2.0666 -0.9034  0.3440
   41MOL0     H 5395   5.981   6.689   5.568 -0.6915  1.7220 -0.2198
   41MOL0     H 5396   5.607   6.562   5.604  1.6220  0.8816  1.1518
   41MOL0     H 5397   5.442   6.450   5.745 -1.8963 -4.2881  0.7543
   41MOL0     H 5398   6.676   5.786   5.539  1.6350 -0.7268 -3.3065
   41MOL0     H 5399   6.864   5.754   5.426  1.4188  0.0082 -0.2456
   41MOL0     H 5400   7.414   5.613   5.517  0.3433 -2.6330 -3.0809
   41MOL0     H 5401   7.624   5.647   5.393 -2.2664 -2.0410 -1.8740
   41MOL0     H 5402   7.715   6.011   5.108  2.0486  1.0825  2.5589
   41MOL0     H 5403   7.640   5.849   5.090 -0.0267  0.4073 -0.2055
   41MOL0     H 5404   7.870   5.870   4.985  3.4355  0.8459  2.4609
   41MOL0     H 5405   7.917   5.874   5.155  0.2853 -2.4393  2.6438
   41MOL0     H 5406   7.746   5.644   5.038 -0.3342 -0.0691 -1.1595
   41MOL0     H 5407   7.841   5.661   5.188  3.3230  2.3028  0.4518
   41MOL0     H 5408   8.053   5.657   5.071  0.1713 -0.2559  0.7815
   41MOL0     H 5409   7.965   5.506   5.051 -0.6163 -0.9099 -0.5820
   41MOL0     H 5410   7.986   5.622   4.648  5.2418 -0.9197 -0.5633
   41MOL0     H 5411   7.487   6.014   5.233  0.9711 -0.0929 -1.3743
   41MOL0     H 5412   7.259   5.965   5.344 -1.1777 -2.1869  0.6080
   42MOL0     O 5413   1.393   3.585   6.278 -0.5933  0.5869  0.0581
   42MOL0     C 5414   1.457   3.512   6.211  0.2098 -0.5921  0.7745
   42MOL0     O 5415   1.529   3.404   6.244 -0.6730 -0.2527 -0.7699
   42MOL0     C 5416   1.555   3.364   6.372  0.6273  0.1641 -0.7723
   42MOL0     C 5417   1.596   3.235   6.387  0.1791 -0.3267 -0.6162
   42MOL0     C 5418   1.633   3.187   6.515 -0.0137  0.4104 -0.1196
   42MOL0     C 5419   1.621   3.267   6.630  0.1520 -0.8076  0.2145
   42MOL0     O 5420   1.653   3.209   6.756 -0.2413  0.1009 -0.7463
   42MOL0     C 5421   1.624   3.283   6.872  0.0412  0.0817  0.1552
   42MOL0     C 5422   1.641   3.204   6.993  0.4624  0.4547 -0.5521
   42MOL0     C 5423   1.707   3.277   7.105  0.5932  0.7136 -0.1805
   42MOL0     C 5424   1.856   3.301   7.070 -0.1348  0.2598 -0.2319
   42MOL0     C 5425   1.930   3.363   7.185  0.1545  0.4608 -0.1311
   42MOL0     C 5426   1.857   3.497   7.235 -0.4596  0.3919  0.4874
   42MOL0     C 5427   1.950   3.575   7.329  0.1475 -0.3953 -0.5387
   42MOL0     C 5428   1.903   3.705   7.394  0.0199  0.0950  0.4804
   42MOL0     N 5429   1.914   3.825   7.299  0.0611  0.5469 -0.0111
   42MOL0     C 5430   2.035   3.850   7.227  0.6851 -0.9737  0.5474
   42MOL0     C 5431   2.016   3.974   7.181 -0.3243  1.1373  0.4187
   42MOL0     C 5432   2.123   4.050   7.097 -0.4116 -0.3226  0.4797
   42MOL0     C 5433   2.059   4.115   6.963 -1.0657 -0.6243 -0.7218
   42MOL0     C 5434   2.083   4.267   6.965  0.8627 -0.0163 -0.3542
   42MOL0     C 5435   2.220   4.316   6.915 -0.7115  0.0235  0.3247
   42MOL0     O 5436   2.205   4.455   6.899 -0.4701 -0.0615  0.2039
   42MOL0     C 5437   2.282   4.533   6.812  0.2010 -0.0320  0.3935
   42MOL0     C 5438   2.404   4.498   6.750 -1.0246  0.6710 -0.6287
   42MOL0     C 5439   2.460   4.570   6.642 -0.0817  0.2970 -0.6027
   42MOL0     C 5440   2.404   4.692   6.595 -0.7953  0.1900  0.1116
   42MOL0     C 5441   2.468   4.787   6.495  0.6018  0.3275  0.8051
   42MOL0     O 5442   2.580   4.745   6.431 -0.2280 -0.6018  0.0890
   42MOL0     C 5443   2.646   4.818   6.332 -0.1296 -0.2459  0.0408
   42MOL0     C 5444   2.762   4.753   6.285  1.1797  0.4624  0.5637
   42MOL0     C 5445   2.841   4.797   6.180  1.3706 -0.4319  0.4115
   42MOL0     C 5446   2.815   4.918   6.120  0.9858  0.4209 -0.4802
   42MOL0     O 5447   2.883   4.962   6.008 -0.7566  0.3924  0.6621
   42MOL0     C 5448   3.023   4.926   5.988  0.0224 -0.4718  0.4874
   42MOL0     C 5449   3.108   5.032   6.053 -0.5238 -0.1602 -0.3320
   42MOL0     C 5450   3.055   5.177   6.060  0.2519 -0.2999 -0.5632
   42MOL0     C 5451   3.042   5.229   5.918  0.1609 -0.7352  0.5687
   42MOL0     C 5452   2.998   5.373   5.927  0.5144 -0.8354 -0.6831
   42MOL0     C 5453   2.988   5.453   5.795 -0.0275  0.7692 -0.2377
   42MOL0     C 5454   2.981   5.603   5.826  0.3029 -0.0362 -0.3100
   42MOL0     C 5455   2.937   5.683   5.705  0.2957  0.1991  0.7030
   42MOL0    Cl 5456   3.056   5.680   5.581  0.0841  0.3822 -0.1620
   42MOL0     C 5457   2.704   4.995   6.167  0.1300  0.2083 -0.5556
   42MOL0     C 5458   2.620   4.944   6.276 -0.5709  0.2404  0.2906
   42MOL0     O 5459   2.407   4.892   6.473  0.3112  0.5382 -0.0265
   42MOL0     C 5460   2.282   4.727   6.660 -0.5824 -0.0257  0.1997
   42MOL0     C 5461   2.218   4.644   6.763  0.4126 -0.3760  0.6605
   42MOL0     N 5462   1.902   4.028   7.243  0.7862  1.0316  0.8294
   42MOL0     N 5463   1.834   3.932   7.299  0.2765 -0.2677  0.0120
   42MOL0     C 5464   1.587   3.406   6.620 -0.2078  0.3371 -0.3705
   42MOL0     C 5465   1.549   3.449   6.492  0.6609  0.9445 -0.0490
   42MOL0     C 5466   1.458   3.536   6.065 -0.4592  0.0124 -0.1859
   42MOL0     C 5467   1.348   3.589   5.998  0.2382 -0.5007  0.3472
   42MOL0     C 5468   1.359   3.611   5.865  0.0686  0.6685  0.6778
   42MOL0     C 5469   1.469   3.583   5.785 -0.0282 -1.2390 -0.1405
   42MOL0     O 5470   1.470   3.616   5.651 -0.2749  0.3224  0.0007
   42MOL0     C 5471   1.559   3.553   5.558  0.6343  0.2835  1.0120
   42MOL0     C 5472   1.614   3.653   5.449  0.4382  0.0951 -0.1482
   42MOL0     C 5473   1.692   3.576   5.342 -0.3101  0.2141 -0.9989
   42MOL0     C 5474   1.785   3.670   5.269 -0.3912 -0.2627 -0.1892
   42MOL0     C 5475   1.821   3.609   5.145 -0.3425  0.4293  0.3162
   42MOL0     C 5476   1.832   3.572   5.027  0.3176 -0.0092  0.0558
   42MOL0     C 5477   1.582   3.536   5.857 -0.7180 -0.2867  0.4560
   42MOL0     C 5478   1.574   3.512   5.995  0.0971 -0.5895  0.1405
   42MOL0     H 5479   1.603   3.178   6.294  0.2014 -1.2609 -0.0566
   42MOL0     H 5480   1.660   3.083   6.514  0.0464  0.4244 -1.5472
   42MOL0     H 5481   1.516   3.304   6.868 -1.7401 -6.4286  2.0258
   42MOL0     H 5482   1.678   3.378   6.866 -1.6750  1.0787 -0.1791
   42MOL0     H 5483   1.693   3.110   6.974  0.1241 -0.1591  1.3117
   42MOL0     H 5484   1.538   3.177   7.019  0.0286 -1.0315 -3.4670
   42MOL0     H 5485   1.705   3.207   7.188  1.4808 -1.3853 -1.8583
   42MOL0     H 5486   1.644   3.366   7.118  2.0077  2.1728 -2.5816
   42MOL0     H 5487   1.904   3.206   7.045 -3.0696 -0.9259 -1.9130
   42MOL0     H 5488   1.849   3.359   6.978  0.4262 -3.2296 -2.6502
   42MOL0     H 5489   2.030   3.382   7.145 -0.0888  1.8401 -0.1414
   42MOL0     H 5490   1.936   3.295   7.270  0.7091  0.8546  0.1489
   42MOL0     H 5491   1.762   3.473   7.284 -1.4658 -0.1444 -1.6000
   42MOL0     H 5492   1.828   3.552   7.145 -1.7994 -1.9526 -0.6229
   42MOL0     H 5493   1.984   3.505   7.405 -3.6805 -3.0638 -0.9640
   42MOL0     H 5494   2.044   3.589   7.274  1.7464 -2.2070  1.5872
   42MOL0     H 5495   1.973   3.734   7.473 -0.2951  3.3042 -0.2677
   42MOL0     H 5496   1.802   3.701   7.435 -0.0501  0.7683  0.3874
   42MOL0     H 5497   2.116   3.784   7.198 -0.8675 -2.4056 -0.7970
   42MOL0     H 5498   2.207   3.991   7.059 -0.5078  1.1043 -2.2258
   42MOL0     H 5499   2.168   4.122   7.165  0.3349 -1.2972  1.0378
   42MOL0     H 5500   1.953   4.093   6.978 -0.5285 -0.8614  4.5468
   42MOL0     H 5501   2.098   4.068   6.872  1.5984 -3.0268  1.4779
   42MOL0     H 5502   1.996   4.312   6.916 -1.1869  0.7794  3.6061
   42MOL0     H 5503   2.080   4.308   7.067 -0.3127 -0.8797 -0.0167
   42MOL0     H 5504   2.245   4.273   6.818 -0.6646  0.0271  0.3353
   42MOL0     H 5505   2.309   4.305   6.977 -1.1553  0.1348  0.9868
   42MOL0     H 5506   2.460   4.416   6.794 -1.1955 -0.0987 -1.8047
   42MOL0     H 5507   2.547   4.527   6.594 -0.5268 -0.6754 -0.5452
   42MOL0     H 5508   2.773   4.645   6.296  1.9286  0.5407  0.6211
   42MOL0     H 5509   2.927   4.737   6.156  1.5209 -0.3438  0.7212
   42MOL0     H 5510   3.052   4.932   5.883 -1.4212  0.0725  0.1006
   42MOL0     H 5511   3.052   4.823   6.010 -0.3628 -0.7330 -0.1765
   42MOL0     H 5512   3.210   5.033   6.014  0.1236  0.7852  1.2842
   42MOL0     H 5513   3.111   4.995   6.156 -2.2978  1.1422  0.2451
   42MOL0     H 5514   3.131   5.234   6.114 -0.9927 -2.2755  3.6698
   42MOL0     H 5515   2.958   5.178   6.110 -0.3650 -0.0691 -1.7307
   42MOL0     H 5516   3.141   5.219   5.873  0.8936  2.0831  1.3366
   42MOL0     H 5517   2.965   5.175   5.863 -2.7862  3.6547 -0.1060
   42MOL0     H 5518   3.055   5.430   6.000 -2.3023 -1.7864  2.5162
   42MOL0     H 5519   2.899   5.371   5.973  0.7171 -0.2915 -0.2171
   42MOL0     H 5520   2.892   5.436   5.744  0.0393  1.3789 -0.5819
   42MOL0     H 5521   3.072   5.421   5.733  0.2937 -1.5630  1.2765
   42MOL0     H 5522   2.907   5.621   5.905  0.1457  1.4906 -0.7754
   42MOL0     H 5523   3.075   5.634   5.872  1.4200 -3.1432 -0.3132
   42MOL0     H 5524   2.928   5.789   5.729 -0.4013  0.3087 -0.0077
   42MOL0     H 5525   2.844   5.638   5.668 -0.5177  0.2882  2.5381
   42MOL0     H 5526   2.689   5.090   6.118  0.5226  1.1030  0.9941
   42MOL0     H 5527   2.551   5.010   6.328  1.6987  1.2684  2.1848
   42MOL0     H 5528   2.233   4.820   6.631  1.2454  1.4448  1.6231
   42MOL0     H 5529   2.124   4.662   6.815  0.2512 -1.1503  0.6439
   42MOL0     H 5530   1.586   3.476   6.702 -1.6779  1.1939 -1.0768
   42MOL0     H 5531   1.534   3.557   6.496  4.2909  1.5845  0.1250
   42MOL0     H 5532   1.250   3.617   6.035  0.6831  0.7876  0.6287
   42MOL0     H 5533   1.277   3.649   5.805  0.0461 -1.7883 -1.0079
   42MOL0     H 5534   1.512   3.466   5.510 -0.1944 -0.0436  2.3368
   42MOL0     H 5535   1.654   3.527   5.605  2.6046  4.4580 -0.1906
   42MOL0     H 5536   1.529   3.704   5.402  0.4036  0.1898  0.0149
   42MOL0     H 5537   1.669   3.736   5.496 -2.0798  1.2631  0.9379
   42MOL0     H 5538   1.630   3.511   5.280  0.7150  0.3773 -2.2284
   42MOL0     H 5539   1.754   3.500   5.391  0.1274 -1.0289 -3.3349
   42MOL0     H 5540   1.726   3.761   5.257 -4.0710 -2.5059 -0.7163
   42MOL0     H 5541   1.866   3.713   5.329 -2.6813 -0.5741  3.4333
   42MOL0     H 5542   1.849   3.550   4.923 -0.6698 -0.4146 -0.0314
   42MOL0     H 5543   1.683   3.527   5.818  0.9128  0.6838  4.0087
   42MOL0     H 5544   1.667   3.480   6.041 -0.0502  0.2481  1.0537
   43MOL0     O 5545   6.657   1.683   0.487  0.0704 -0.3357  0.1560
   43MOL0     C 5546   6.707   1.748   0.401  0.0328  0.0203 -0.1379
   43MOL0     O 5547   6.639   1.820   0.302  0.3169  0.9545  0.3520
   43MOL0     C 5548   6.502   1.798   0.279 -0.3732 -0.0771  0.2460
   43MOL0     C 5549   6.451   1.670   0.247 -0.4183  0.3306  0.6703
   43MOL0     C 5550   6.316   1.644   0.225 -0.2657  0.8656 -0.4943
   43MOL0     C 5551   6.224   1.751   0.236  0.6393 -0.3479 -0.1081
   43MOL0     O 5552   6.099   1.706   0.215 -0.3306  0.0025  0.5655
   43MOL0     C 5553   6.000   1.791   0.155  0.1364  0.6099  0.1428
   43MOL0     C 5554   5.861   1.726   0.170  1.0776 -0.7171  0.8565
   43MOL0     C 5555   5.752   1.836   0.164 -0.4866 -0.2765  0.9786
   43MOL0     C 5556   5.607   1.801   0.170  0.8407 -0.0939 -0.6304
   43MOL0     C 5557   5.517   1.912   0.146  0.3929 -0.3219 -0.0072
   43MOL0     C 5558   5.369   1.883   0.161  0.1278  0.3856 -0.1675
   43MOL0     C 5559   5.308   1.785   0.050 -0.0535 -0.0024 -0.5819
   43MOL0     C 5560   5.289   1.855  -0.088  0.3304  0.4613 -0.0963
   43MOL0     N 5561   5.173   1.944  -0.077 -0.0928 -0.4533  1.3157
   43MOL0     C 5562   5.044   1.897  -0.056 -0.7151 -0.4105  0.8058
   43MOL0     C 5563   4.973   2.009  -0.033  0.0398  0.7228  0.6939
   43MOL0     C 5564   4.826   2.002  -0.013 -0.2831  0.1167  0.3213
   43MOL0     C 5565   4.772   1.879   0.066  0.4980  0.7783 -0.0059
   43MOL0     C 5566   4.825   1.875   0.211 -0.3746  0.9387  1.2006
   43MOL0     C 5567   4.792   1.986   0.297  0.0056  0.1854 -0.2423
   43MOL0     O 5568   4.750   1.938   0.421 -0.0747 -0.3126 -0.3283
   43MOL0     C 5569   4.847   1.923   0.516 -0.1581 -0.2926  0.3990
   43MOL0     C 5570   4.994   1.926   0.504 -0.4571 -1.3119  0.8343
   43MOL0     C 5571   5.076   1.886   0.618 -0.9124 -0.0132 -0.6681
   43MOL0     C 5572   5.016   1.849   0.739  0.1678  0.0065 -0.5574
   43MOL0     C 5573   5.100   1.827   0.855 -0.4651 -0.2065 -0.8155
   43MOL0     O 5574   5.040   1.788   0.972  0.3195 -0.7131 -1.1198
   43MOL0     C 5575   5.103   1.781   1.093  0.3807  1.5609  0.2304
   43MOL0     C 5576   5.028   1.704   1.187 -0.4872 -0.0768  0.7942
   43MOL0     C 5577   5.079   1.671   1.313 -0.1921  0.4171  0.4645
   43MOL0     C 5578   5.191   1.723   1.354 -0.4283  1.0825 -0.8030
   43MOL0     O 5579   5.227   1.702   1.489  0.2904  1.1112  0.2581
   43MOL0     C 5580   5.332   1.783   1.547  0.4951 -0.5273  0.3706
   43MOL0     C 5581   5.295   1.927   1.563 -0.4921 -0.1146 -0.4476
   43MOL0     C 5582   5.416   2.012   1.625 -0.2940  0.4201  1.0498
   43MOL0     C 5583   5.357   2.133   1.687  0.0426  0.3159 -0.3735
   43MOL0     C 5584   5.475   2.220   1.728  0.6848  0.1348  0.9225
   43MOL0     C 5585   5.432   2.366   1.761 -0.4878 -0.4424  0.2918
   43MOL0     C 5586   5.364   2.445   1.658 -0.6167  0.2162  0.0181
   43MOL0     C 5587   5.352   2.591   1.696  0.5178  0.2848 -0.0194
   43MOL0    Cl 5588   5.227   2.673   1.585  0.5879 -0.1821  0.8880
   43MOL0     C 5589   5.266   1.796   1.265  0.0332  0.0880  0.6137
   43MOL0     C 5590   5.226   1.824   1.127 -0.2069  0.1392  0.2337
   43MOL0     O 5591   5.220   1.859   0.845 -0.3375  0.5622 -0.0461
   43MOL0     C 5592   4.877   1.852   0.749  0.4499  0.7149 -1.0848
   43MOL0     C 5593   4.803   1.888   0.634  0.6188  0.1183 -0.8364
   43MOL0     N 5594   5.051   2.119  -0.062  0.2123 -0.4692  0.4331
   43MOL0     N 5595   5.170   2.080  -0.070  0.5970 -0.2286 -0.1411
   43MOL0     C 5596   6.273   1.888   0.258  0.0807  0.1814 -0.2483
   43MOL0     C 5597   6.411   1.901   0.281  0.1105 -0.0776  0.1311
   43MOL0     C 5598   6.867   1.762   0.407  1.1862  1.0341  0.1591
   43MOL0     C 5599   6.938   1.706   0.509 -0.1634 -0.3949 -0.5682
   43MOL0     C 5600   7.079   1.721   0.503  0.1820  0.3196  0.0692
   43MOL0     C 5601   7.145   1.767   0.389  0.4938  0.0072 -0.7426
   43MOL0     O 5602   7.276   1.765   0.380 -0.6889  1.3388  0.0810
   43MOL0     C 5603   7.337   1.639   0.343 -0.3510 -0.9605 -0.3692
   43MOL0     C 5604   7.343   1.609   0.190 -0.3318 -0.1679 -0.1092
   43MOL0     C 5605   7.448   1.697   0.111 -0.3258 -0.0911  0.2906
   43MOL0     C 5606   7.478   1.625  -0.018 -0.0586 -0.5093 -1.0149
   43MOL0     C 5607   7.591   1.683  -0.091  0.4259 -0.3608  0.7982
   43MOL0     C 5608   7.687   1.719  -0.162  0.1311  0.0734  0.0167
   43MOL0     C 5609   7.068   1.828   0.288  0.1049 -1.0227  0.4179
   43MOL0     C 5610   6.928   1.821   0.297  0.3144  0.6489  0.0576
   43MOL0     H 5611   6.515   1.584   0.229 -0.7623 -0.0986  1.4209
   43MOL0     H 5612   6.288   1.548   0.182 -0.8410  1.6015 -1.8375
   43MOL0     H 5613   6.023   1.802   0.049  0.7251  0.0024  0.2055
   43MOL0     H 5614   6.001   1.886   0.210 -0.1492  0.3839  0.5432
   43MOL0     H 5615   5.844   1.674   0.265 -0.2241 -1.8549  0.0537
   43MOL0     H 5616   5.834   1.643   0.103  0.3784  0.2929 -0.1518
   43MOL0     H 5617   5.771   1.885   0.068  2.7529  0.1083  1.6999
   43MOL0     H 5618   5.779   1.913   0.237  2.6955  1.3616 -1.7005
   43MOL0     H 5619   5.586   1.721   0.099  1.5942  0.3789 -1.4015
   43MOL0     H 5620   5.586   1.762   0.271  0.7586  0.3130 -0.4894
   43MOL0     H 5621   5.536   1.948   0.044  2.8326 -3.6279 -0.8714
   43MOL0     H 5622   5.536   1.979   0.230 -1.7653 -4.4487  4.1765
   43MOL0     H 5623   5.306   1.973   0.164  1.0188  1.0817 -1.5242
   43MOL0     H 5624   5.344   1.819   0.246  0.4115 -0.7194 -0.9022
   43MOL0     H 5625   5.372   1.697   0.043 -0.7197 -0.6408  0.8916
   43MOL0     H 5626   5.210   1.742   0.073 -0.0559 -1.1540 -2.5902
   43MOL0     H 5627   5.269   1.783  -0.167 -0.9469 -3.1558  3.1730
   43MOL0     H 5628   5.385   1.899  -0.117  1.2536 -0.4229  1.4811
   43MOL0     H 5629   5.003   1.796  -0.055  0.4062 -0.8861  2.1586
   43MOL0     H 5630   4.774   2.000  -0.110  0.5197  0.1610 -0.1225
   43MOL0     H 5631   4.809   2.095   0.042  3.1039  0.8079  0.3918
   43MOL0     H 5632   4.788   1.784   0.015 -2.4200  1.0128 -1.5309
   43MOL0     H 5633   4.663   1.890   0.071  0.6541  2.7450 -0.1126
   43MOL0     H 5634   4.784   1.785   0.257  2.3083  0.3494  2.6400
   43MOL0     H 5635   4.933   1.860   0.200  0.2391  5.5719 -1.5253
   43MOL0     H 5636   4.707   2.040   0.254 -0.5551 -0.4679  0.0277
   43MOL0     H 5637   4.876   2.056   0.295  0.1529  0.0636 -3.3150
   43MOL0     H 5638   5.039   1.947   0.407  1.5559  0.4667  2.0694
   43MOL0     H 5639   5.184   1.895   0.612 -0.6392 -1.1359  1.4508
   43MOL0     H 5640   4.934   1.659   1.154  0.3012 -1.1794 -0.0664
   43MOL0     H 5641   5.013   1.603   1.367  0.3423 -0.1940  0.3590
   43MOL0     H 5642   5.420   1.779   1.482 -0.4402  0.7210 -1.0513
   43MOL0     H 5643   5.367   1.756   1.647  3.1604  3.6500  0.8236
   43MOL0     H 5644   5.206   1.935   1.627 -0.9567 -0.5719 -1.0241
   43MOL0     H 5645   5.274   1.982   1.471 -0.4854  0.8669  0.1222
   43MOL0     H 5646   5.497   2.027   1.552  0.2699  0.4314  1.6662
   43MOL0     H 5647   5.461   1.955   1.707 -1.9094  1.1647  2.5161
   43MOL0     H 5648   5.301   2.181   1.606 -0.6909 -0.8217 -0.5655
   43MOL0     H 5649   5.293   2.114   1.774  1.3268  1.2086  0.7938
   43MOL0     H 5650   5.540   2.223   1.640  0.0239 -0.8457  0.3869
   43MOL0     H 5651   5.532   2.186   1.815  0.3818  1.2517  1.5925
   43MOL0     H 5652   5.530   2.411   1.780 -0.5224  0.4181 -1.3921
   43MOL0     H 5653   5.371   2.380   1.851 -0.0468  0.3005  0.4800
   43MOL0     H 5654   5.416   2.442   1.562 -0.0237 -1.2440  0.3571
   43MOL0     H 5655   5.269   2.395   1.639 -0.6879  1.5432 -4.0470
   43MOL0     H 5656   5.447   2.642   1.682  0.7589  1.6694  4.7945
   43MOL0     H 5657   5.324   2.607   1.801 -0.5078  1.7659 -0.4921
   43MOL0     H 5658   5.351   1.859   1.294 -1.1054  2.3785 -0.7567
   43MOL0     H 5659   5.292   1.887   1.069  1.1696 -3.2685 -2.2314
   43MOL0     H 5660   4.824   1.831   0.841  2.2495 -1.2367 -0.4252
   43MOL0     H 5661   4.696   1.870   0.642  0.4425  1.4993  0.2357
   43MOL0     H 5662   6.205   1.973   0.258 -0.7086 -0.4302 -1.1706
   43MOL0     H 5663   6.448   2.002   0.293 -0.2687  0.2580 -1.2789
   43MOL0     H 5664   6.890   1.656   0.593  0.6505 -0.7055 -0.2715
   43MOL0     H 5665   7.148   1.675   0.573 -0.1588 -1.3436 -0.6517
   43MOL0     H 5666   7.289   1.550   0.385 -1.4141 -0.6891 -0.9883
   43MOL0     H 5667   7.438   1.637   0.384 -0.6800  1.4962  0.7490
   43MOL0     H 5668   7.377   1.506   0.175  1.2147  0.5764 -2.1243
   43MOL0     H 5669   7.250   1.635   0.139 -0.6186  0.9559  0.9404
   43MOL0     H 5670   7.537   1.705   0.174 -0.9133  3.5649  0.8572
   43MOL0     H 5671   7.406   1.797   0.099 -0.9162 -0.4930 -1.2891
   43MOL0     H 5672   7.481   1.515  -0.014 -3.7781 -0.6904  1.2863
   43MOL0     H 5673   7.396   1.652  -0.085  0.1423 -0.8065 -1.3882
   43MOL0     H 5674   7.770   1.727  -0.228  0.5050 -2.6827  0.0246
   43MOL0     H 5675   7.104   1.892   0.209  0.9643  2.4056  3.3237
   43MOL0     H 5676   6.868   1.853   0.213  1.6897  0.0435 -1.2058
   44MOL0     O 5677  10.333  11.059   9.940  0.3333  0.7877 -0.4314
   44MOL0     C 5678  10.395  10.973   9.997  1.5224  0.9201 -0.8163
   44MOL0     O 5679  10.408  10.963  10.139  0.2776 -0.4367  0.7611
   44MOL0     C 5680  10.362  11.063  10.220  0.6802 -0.0926 -1.3229
   44MOL0     C 5681  10.443  11.113  10.326  0.2438  0.7939  0.2118
   44MOL0     C 5682  10.402  11.206  10.415  0.5262  1.3077  0.3145
   44MOL0     C 5683  10.280  11.271  10.395 -0.2526  0.3008 -0.9170
   44MOL0     O 5684  10.232  11.374  10.472  0.1912 -0.2339 -0.6406
   44MOL0     C 5685  10.332  11.458  10.540  0.6660 -0.2798  0.8548
   44MOL0     C 5686  10.277  11.600  10.565  0.8969  0.0921  0.2982
   44MOL0     C 5687  10.395  11.686  10.609 -0.3355  0.1243  0.3185
   44MOL0     C 5688  10.457  11.776  10.502 -0.1469 -0.5513 -0.1017
   44MOL0     C 5689  10.594  11.829  10.556  0.9326  0.9886  0.3925
   44MOL0     C 5690  10.708  11.730  10.569 -0.5262  0.1298 -0.3901
   44MOL0     C 5691  10.728  11.650  10.436  0.1700 -0.1851 -0.4679
   44MOL0     C 5692  10.834  11.546  10.441 -0.5667 -0.2322 -0.2656
   44MOL0     N 5693  10.806  11.441  10.539 -0.6292  0.3713 -0.5980
   44MOL0     C 5694  10.857  11.426  10.672  0.2324 -1.3795  0.2597
   44MOL0     C 5695  10.778  11.334  10.725 -0.1169 -0.6483  0.2595
   44MOL0     C 5696  10.769  11.292  10.866  0.0955 -0.1797 -1.0432
   44MOL0     C 5697  10.668  11.371  10.954  0.4215 -0.0824  0.0481
   44MOL0     C 5698  10.652  11.526  10.912 -0.0034 -0.1354 -0.1170
   44MOL0     C 5699  10.556  11.604  11.013 -0.3468 -0.2426 -0.7154
   44MOL0     O 5700  10.415  11.585  10.980 -0.5390 -0.5924  1.0939
   44MOL0     C 5701  10.321  11.655  11.050  0.7046 -0.0333  0.5489
   44MOL0     C 5702  10.331  11.728  11.162  0.1456 -0.1844  0.0757
   44MOL0     C 5703  10.220  11.781  11.229 -0.1652  0.0177 -0.1414
   44MOL0     C 5704  10.089  11.747  11.189 -0.2232  0.1088 -1.4126
   44MOL0     C 5705   9.976  11.794  11.270  0.4243 -0.7406 -0.2208
   44MOL0     O 5706   9.859  11.767  11.212  0.2972  0.4752  0.4681
   44MOL0     C 5707   9.748  11.823  11.260  0.8031 -0.7148  0.0896
   44MOL0     C 5708   9.673  11.791  11.374 -0.2808 -0.2443  0.4039
   44MOL0     C 5709   9.575  11.867  11.424  1.6260 -0.3961  0.6232
   44MOL0     C 5710   9.534  11.984  11.354  0.2265  0.0315  0.1340
   44MOL0     O 5711   9.447  12.070  11.417 -0.1046  0.1776 -0.4061
   44MOL0     C 5712   9.398  12.187  11.359  0.0915 -0.2417 -0.2650
   44MOL0     C 5713   9.300  12.155  11.248 -0.5337  0.6147  0.1920
   44MOL0     C 5714   9.184  12.262  11.260  0.4844  0.4663 -0.4216
   44MOL0     C 5715   9.203  12.409  11.216  0.0616 -0.8860  0.4268
   44MOL0     C 5716   9.106  12.513  11.264 -0.0721  0.8343  0.7404
   44MOL0     C 5717   8.983  12.504  11.165 -0.0724 -0.3821 -0.0262
   44MOL0     C 5718   8.874  12.602  11.186  0.2380  0.3610  0.2258
   44MOL0     C 5719   8.781  12.552  11.278  0.4839 -0.3890  0.7146
   44MOL0    Cl 5720   8.652  12.462  11.196 -0.5535  0.3525  0.0596
   44MOL0     C 5721   9.588  12.004  11.226  0.0754 -1.2984 -0.1644
   44MOL0     C 5722   9.695  11.925  11.179 -0.6505 -0.3494 -0.2782
   44MOL0     O 5723   9.997  11.873  11.359  0.0338 -0.9726 -0.4636
   44MOL0     C 5724  10.072  11.664  11.084 -0.5684  0.3096  0.0054
   44MOL0     C 5725  10.189  11.620  11.016  0.3926 -0.0566 -0.4158
   44MOL0     N 5726  10.679  11.292  10.636 -0.2219  0.2635  0.6467
   44MOL0     N 5727  10.707  11.351  10.523  0.0851  0.4764 -1.1336
   44MOL0     C 5728  10.196  11.226  10.293 -0.0403 -0.3190  0.9903
   44MOL0     C 5729  10.232  11.121  10.203  0.5286 -0.8929  0.1305
   44MOL0     C 5730  10.447  10.866   9.897  0.5734 -0.2478 -0.1457
   44MOL0     C 5731  10.429  10.869   9.758  0.2001 -0.0715 -0.4610
   44MOL0     C 5732  10.463  10.765   9.676 -0.4647 -0.2355 -0.1555
   44MOL0     C 5733  10.529  10.657   9.720 -0.2794 -0.3086 -0.7469
   44MOL0     O 5734  10.558  10.563   9.623 -1.1594 -0.2172 -0.1604
   44MOL0     C 5735  10.621  10.443   9.665 -0.1867  0.4413 -0.6014
   44MOL0     C 5736  10.552  10.337   9.574 -0.7590  0.3333  0.6320
   44MOL0     C 5737  10.401  10.331   9.612 -0.1171 -0.5767  0.6629
   44MOL0     C 5738  10.327  10.211   9.557  0.2549  0.4252 -0.3374
   44MOL0     C 5739  10.310  10.210   9.412  0.9729  0.9579  0.3404
   44MOL0     C 5740  10.306  10.217   9.290 -0.1869 -0.0128 -0.1312
   44MOL0     C 5741  10.565  10.664   9.859  0.7279 -0.1170 -0.5258
   44MOL0     C 5742  10.524  10.760   9.948 -0.8158  0.3514  0.4234
   44MOL0     H 5743  10.542  11.069  10.338 -0.6079 -0.7644  1.9241
   44MOL0     H 5744  10.464  11.239  10.498  2.6664 -0.1875 -0.6048
   44MOL0     H 5745  10.412  11.468  10.467  0.5132 -0.1474  0.7056
   44MOL0     H 5746  10.360  11.402  10.630 -0.9481  1.8480  2.8146
   44MOL0     H 5747  10.208  11.601  10.649  1.2218 -1.0633  0.5987
   44MOL0     H 5748  10.228  11.630  10.472 -2.0484  0.3746  1.8529
   44MOL0     H 5749  10.473  11.622  10.652  0.6873 -0.9267 -2.7954
   44MOL0     H 5750  10.357  11.749  10.690 -2.6069  0.1598 -0.7006
   44MOL0     H 5751  10.463  11.735  10.401 -3.4168  1.4378 -1.2684
   44MOL0     H 5752  10.392  11.864  10.507  2.5431  1.5687 -0.1599
   44MOL0     H 5753  10.572  11.872  10.654  0.7369 -0.1408  0.8489
   44MOL0     H 5754  10.633  11.904  10.486 -0.9573  1.6145 -0.0329
   44MOL0     H 5755  10.704  11.671  10.662  1.0239 -1.0198 -1.0031
   44MOL0     H 5756  10.799  11.791  10.580 -0.9720  0.7948 -0.3293
   44MOL0     H 5757  10.635  11.600  10.409 -1.4389  2.4039 -0.0554
   44MOL0     H 5758  10.760  11.712  10.353  1.0801 -1.5395 -1.1679
   44MOL0     H 5759  10.920  11.603  10.477 -1.6438  0.9389  0.5426
   44MOL0     H 5760  10.866  11.502  10.346  2.5071 -1.7107  1.3215
   44MOL0     H 5761  10.932  11.491  10.715 -0.7949 -0.1908  0.3382
   44MOL0     H 5762  10.865  11.305  10.916 -0.1947  2.2641 -0.9865
   44MOL0     H 5763  10.734  11.189  10.878 -0.7064  0.1718 -0.1584
   44MOL0     H 5764  10.699  11.346  11.057 -0.7345 -2.4824 -0.1281
   44MOL0     H 5765  10.570  11.325  10.942  0.3516 -0.9129  2.9563
   44MOL0     H 5766  10.751  11.572  10.902 -0.1691  0.3378  0.3319
   44MOL0     H 5767  10.608  11.530  10.812  1.9770  0.0580 -1.0074
   44MOL0     H 5768  10.574  11.712  11.008  0.5196 -0.4169 -1.5641
   44MOL0     H 5769  10.563  11.579  11.120 -2.2515  0.7604 -0.3112
   44MOL0     H 5770  10.432  11.753  11.192  0.7697 -3.1236  0.7158
   44MOL0     H 5771  10.234  11.852  11.310 -2.0753  0.6610 -0.3170
   44MOL0     H 5772   9.714  11.712  11.437  0.7218 -0.0975 -0.0485
   44MOL0     H 5773   9.532  11.840  11.520  0.4978  1.7540  0.8003
   44MOL0     H 5774   9.492  12.236  11.330 -0.4112  1.2959  0.5705
   44MOL0     H 5775   9.350  12.256  11.430 -2.2728  0.9901 -2.8727
   44MOL0     H 5776   9.263  12.052  11.250 -0.0309  0.3431  4.0918
   44MOL0     H 5777   9.343  12.156  11.148 -0.5305 -1.6176  0.1119
   44MOL0     H 5778   9.128  12.269  11.353  2.6543  3.4268  0.8195
   44MOL0     H 5779   9.112  12.222  11.188  0.9244  0.5196 -0.9034
   44MOL0     H 5780   9.300  12.443  11.255 -0.3757  1.3002 -0.2642
   44MOL0     H 5781   9.220  12.401  11.109  0.7073 -1.3853  0.5613
   44MOL0     H 5782   9.144  12.615  11.262 -2.0718  1.6167 -0.4411
   44MOL0     H 5783   9.079  12.488  11.367 -2.0127  0.7643  0.2645
   44MOL0     H 5784   8.944  12.402  11.163 -0.2310 -0.3114 -1.1744
   44MOL0     H 5785   9.025  12.513  11.065  1.5663 -2.6020  0.4052
   44MOL0     H 5786   8.911  12.704  11.203 -0.2899  0.4338  0.9795
   44MOL0     H 5787   8.816  12.615  11.095 -2.4223  1.6878  1.9949
   44MOL0     H 5788   8.749  12.637  11.340  0.1860  3.2146 -3.8718
   44MOL0     H 5789   8.826  12.481  11.348 -1.5351 -4.2329 -1.5956
   44MOL0     H 5790   9.568  12.088  11.160 -1.7864 -0.8438  0.9004
   44MOL0     H 5791   9.730  11.953  11.080 -0.4877  0.5746  0.0274
   44MOL0     H 5792   9.976  11.623  11.053 -0.4476 -0.0121  0.0503
   44MOL0     H 5793  10.183  11.560  10.926  0.3395  1.3472 -1.3639
   44MOL0     H 5794  10.101  11.273  10.267  0.7621  0.2619 -1.0806
   44MOL0     H 5795  10.166  11.105  10.118  1.0573  3.2346 -1.3375
   44MOL0     H 5796  10.361  10.942   9.715  0.6816  0.7125  0.0732
   44MOL0     H 5797  10.426  10.765   9.574  0.5418  1.3378 -0.5616
   44MOL0     H 5798  10.614  10.409   9.769  1.7020 -1.2828 -0.9594
   44MOL0     H 5799  10.728  10.441   9.641  0.1501 -1.5337  0.8009
   44MOL0     H 5800  10.545  10.364   9.469 -2.4870  1.8853  1.0814
   44MOL0     H 5801  10.601  10.242   9.594  2.3023  2.1954  2.7907
   44MOL0     H 5802  10.355  10.428   9.590 -1.2794 -1.1337  0.5546
   44MOL0     H 5803  10.389  10.324   9.721 -1.3207  1.3452  0.7010
   44MOL0     H 5804  10.383  10.123   9.588  1.1198  0.5092 -1.5975
   44MOL0     H 5805  10.227  10.209   9.601 -1.3206  1.3124 -3.5505
   44MOL0     H 5806  10.321  10.244   9.187  3.0104 -0.0801  0.2161
   44MOL0     H 5807  10.624  10.583   9.900 -0.2665 -0.2117  0.8003
   44MOL0     H 5808  10.566  10.764  10.048  4.5005 -0.9558 -1.4132
   45MOL0     O 5809   0.236  10.247   6.082 -0.1592  0.3191  0.0294
   45MOL0     C 5810   0.169  10.300   5.992 -0.9987  0.1149 -0.3347
   45MOL0     O 5811   0.155  10.259   5.860  0.5942 -0.9384 -0.4445
   45MOL0     C 5812   0.211  10.148   5.803  0.6824  0.3392  0.2269
   45MOL0     C 5813   0.257  10.162   5.679 -1.2147 -0.0201 -1.4098
   45MOL0     C 5814   0.308  10.052   5.613  0.5728 -0.6279  0.2414
   45MOL0     C 5815   0.285   9.916   5.661 -0.5236  0.2177 -0.4502
   45MOL0     O 5816   0.332   9.806   5.591  0.0862 -0.3875 -0.7302
   45MOL0     C 5817   0.472   9.817   5.555  0.6745  0.0487 -0.0739
   45MOL0     C 5818   0.521   9.678   5.525 -0.9294  0.1913  0.3327
   45MOL0     C 5819   0.673   9.667   5.476  0.9576 -0.0702 -1.0433
   45MOL0     C 5820   0.686   9.533   5.411 -0.3112 -0.0009 -0.6198
   45MOL0     C 5821   0.830   9.525   5.353  0.1925 -0.1038  0.2216
   45MOL0     C 5822   0.903   9.391   5.377  0.6817  0.2419 -0.6551
   45MOL0     C 5823   0.894   9.301   5.257 -0.1920  0.7589 -0.0061
   45MOL0     C 5824   1.005   9.197   5.239 -0.3034 -0.4066  0.3984
   45MOL0     N 5825   1.093   9.243   5.130 -0.1823 -0.0294 -0.4209
   45MOL0     C 5826   1.165   9.354   5.135  0.0305 -0.3769 -0.3682
   45MOL0     C 5827   1.276   9.331   5.065 -0.7595  0.5745  1.4207
   45MOL0     C 5828   1.409   9.399   5.078 -0.4223 -0.4718  1.0096
   45MOL0     C 5829   1.419   9.540   5.032  0.0665 -0.0933 -0.7377
   45MOL0     C 5830   1.340   9.643   5.125 -0.3848 -0.0753  0.5479
   45MOL0     C 5831   1.327   9.786   5.071  0.2075 -0.1413  0.1017
   45MOL0     O 5832   1.270   9.858   5.181  0.5824  0.3150 -0.3415
   45MOL0     C 5833   1.133   9.890   5.181 -0.4184 -0.6681 -0.3346
   45MOL0     C 5834   1.079   9.922   5.308  0.5253 -0.2768 -0.3735
   45MOL0     C 5835   0.950   9.968   5.339  0.0703  0.5092  0.4721
   45MOL0     C 5836   0.862   9.979   5.223  0.2066 -0.4471  0.5166
   45MOL0     C 5837   0.721  10.008   5.244 -0.5490  0.4923  0.4330
   45MOL0     O 5838   0.635   9.989   5.138 -0.9362 -0.4439 -0.3686
   45MOL0     C 5839   0.508  10.036   5.144  0.6769 -0.2623 -0.0822
   45MOL0     C 5840   0.477  10.153   5.076 -0.6883 -0.6981 -0.5491
   45MOL0     C 5841   0.350  10.218   5.063 -0.4183 -0.8610 -0.5077
   45MOL0     C 5842   0.246  10.159   5.135  0.8720  0.4424  0.7888
   45MOL0     O 5843   0.120  10.216   5.121  0.2846  0.1575  0.2419
   45MOL0     C 5844   0.028  10.249   5.225  1.4115  0.3610 -0.3172
   45MOL0     C 5845   0.010  10.391   5.245 -0.1626  0.4614  0.2398
   45MOL0     C 5846  -0.002  10.430   5.389  0.6225 -0.8502 -0.1387
   45MOL0     C 5847  -0.146  10.399   5.453 -0.5097  0.5376  0.2844
   45MOL0     C 5848  -0.177  10.453   5.588 -0.5920  0.0881  0.2917
   45MOL0     C 5849  -0.144  10.606   5.608  0.4281  0.4329  0.1601
   45MOL0     C 5850  -0.218  10.680   5.499  0.6255 -0.4121  0.6553
   45MOL0     C 5851  -0.171  10.827   5.493 -0.4628 -0.3717 -0.3276
   45MOL0    Cl 5852  -0.233  10.916   5.636  0.4939  0.0215 -0.1503
   45MOL0     C 5853   0.266  10.041   5.216  0.6233 -0.5662 -0.2651
   45MOL0     C 5854   0.402   9.985   5.214  0.2991  0.8043  1.3271
   45MOL0     O 5855   0.681  10.043   5.350  0.1878 -1.4398 -1.2885
   45MOL0     C 5856   0.921   9.959   5.093  0.1631 -0.6789 -0.3091
   45MOL0     C 5857   1.048   9.908   5.071 -0.6321  0.7229 -0.1710
   45MOL0     N 5858   1.255   9.218   4.983  0.1321  0.9449 -0.0116
   45MOL0     N 5859   1.153   9.160   5.039 -0.3111 -0.0619 -0.4455
   45MOL0     C 5860   0.224   9.903   5.784 -0.8392  0.2965 -0.0533
   45MOL0     C 5861   0.197  10.020   5.864 -0.0821  0.9730  0.9771
   45MOL0     C 5862   0.094  10.428   6.043 -0.1435 -0.1103 -0.0837
   45MOL0     C 5863   0.001  10.501   5.959 -0.0057 -0.4295  0.0108
   45MOL0     C 5864  -0.052  10.618   6.007  0.6964 -0.5198  0.5294
   45MOL0     C 5865  -0.042  10.669   6.137 -0.6923  0.0048 -0.6103
   45MOL0     O 5866  -0.090  10.793   6.177 -0.3541 -0.0995 -0.3330
   45MOL0     C 5867  -0.092  10.896   6.068  0.5329 -0.0846 -0.4991
   45MOL0     C 5868  -0.248  10.898   6.018 -0.2068  0.0243  0.1216
   45MOL0     C 5869  -0.355  10.950   6.118  0.0269 -0.5698  0.5940
   45MOL0     C 5870  -0.343  11.103   6.122  0.2103  0.8853  0.1177
   45MOL0     C 5871  -0.424  11.157   6.007  0.2206  0.3383  0.1019
   45MOL0     C 5872  -0.483  11.185   5.904  0.5503 -0.5243  0.0117
   45MOL0     C 5873   0.056  10.608   6.219  0.4450  0.0707  0.2716
   45MOL0     C 5874   0.122  10.484   6.172  0.1635 -0.1843  0.0156
   45MOL0     H 5875   0.270  10.260   5.633  2.9533 -1.3729 -3.6495
   45MOL0     H 5876   0.368  10.074   5.526 -3.1903  1.1050 -2.1612
   45MOL0     H 5877   0.534   9.859   5.635 -0.9513 -1.4670  2.0886
   45MOL0     H 5878   0.482   9.884   5.468 -0.7998  2.0646  1.2127
   45MOL0     H 5879   0.453   9.641   5.448 -0.9239  0.6718  0.0925
   45MOL0     H 5880   0.504   9.612   5.611  0.9483 -1.8873 -0.7541
   45MOL0     H 5881   0.737   9.667   5.565 -0.3023  0.6524 -0.1053
   45MOL0     H 5882   0.708   9.743   5.405 -0.7737 -0.8889 -2.8896
   45MOL0     H 5883   0.678   9.460   5.492  1.4021 -0.1651 -0.5593
   45MOL0     H 5884   0.611   9.523   5.332 -0.5260  1.8975 -0.6960
   45MOL0     H 5885   0.892   9.610   5.386 -3.0530  3.4053 -1.8855
   45MOL0     H 5886   0.840   9.539   5.245  1.6990  0.5254  0.4201
   45MOL0     H 5887   0.876   9.350   5.475  0.3385  0.5829 -0.6007
   45MOL0     H 5888   1.003   9.433   5.385  0.2950  3.0566 -5.7926
   45MOL0     H 5889   0.802   9.245   5.276 -0.3325  0.7584 -0.6484
   45MOL0     H 5890   0.875   9.351   5.162  2.9028 -0.2760 -1.3232
   45MOL0     H 5891   0.971   9.096   5.212 -0.5025 -0.0008 -0.9364
   45MOL0     H 5892   1.069   9.188   5.327  2.1385  1.7328 -1.0227
   45MOL0     H 5893   1.153   9.438   5.203  3.9448  0.4916 -0.4728
   45MOL0     H 5894   1.465   9.344   5.002  0.5795  2.0152 -0.1774
   45MOL0     H 5895   1.454   9.392   5.177 -0.6418  3.1275  1.4841
   45MOL0     H 5896   1.386   9.545   4.928 -2.1904 -1.3996 -0.1347
   45MOL0     H 5897   1.523   9.575   5.033 -0.4736  1.6548  1.6855
   45MOL0     H 5898   1.236   9.614   5.142 -1.3898  1.7518 -1.8509
   45MOL0     H 5899   1.385   9.654   5.224 -0.3232 -0.9224  0.6199
   45MOL0     H 5900   1.270   9.794   4.979  2.9221 -2.2961 -1.9383
   45MOL0     H 5901   1.417   9.846   5.053  0.3754 -1.4059 -4.2185
   45MOL0     H 5902   1.152   9.900   5.386 -0.6514 -1.9941  0.3084
   45MOL0     H 5903   0.916  10.004   5.436 -1.3863 -0.3523  0.3222
   45MOL0     H 5904   0.558  10.209   5.030  1.2348  0.0346  3.3229
   45MOL0     H 5905   0.335  10.313   5.013  0.1085 -2.7109 -4.5765
   45MOL0     H 5906   0.059  10.202   5.319 -1.3643  1.5434  1.3113
   45MOL0     H 5907  -0.066  10.201   5.196  1.3820  0.6646 -0.7358
   45MOL0     H 5908  -0.082  10.429   5.199  0.1902  1.5390  0.4158
   45MOL0     H 5909   0.101  10.437   5.207 -0.4254 -0.1419 -1.1764
   45MOL0     H 5910   0.012  10.538   5.387 -2.4276 -0.3700 -0.7344
   45MOL0     H 5911   0.081  10.389   5.448 -0.1370 -1.2283  0.6944
   45MOL0     H 5912  -0.217  10.434   5.378  1.2341  3.7639 -0.0364
   45MOL0     H 5913  -0.155  10.290   5.459 -4.0370  0.7030  0.1386
   45MOL0     H 5914  -0.114  10.401   5.661  1.0211  1.4782 -0.0448
   45MOL0     H 5915  -0.284  10.433   5.604 -0.7388  0.0012 -0.7591
   45MOL0     H 5916  -0.039  10.633   5.600  1.1578 -2.1957 -0.1814
   45MOL0     H 5917  -0.169  10.650   5.705  0.3505  0.6157  0.0576
   45MOL0     H 5918  -0.210  10.636   5.399 -2.4511  0.7863 -0.2462
   45MOL0     H 5919  -0.327  10.678   5.511 -0.2398  2.7900 -3.8994
   45MOL0     H 5920  -0.204  10.875   5.400  0.7921  1.2065 -0.0042
   45MOL0     H 5921  -0.063  10.839   5.500  0.0924 -4.7284  1.2434
   45MOL0     H 5922   0.180   9.999   5.267 -0.8159 -0.0731 -2.1449
   45MOL0     H 5923   0.417   9.889   5.263 -0.4657 -0.4257 -0.6722
   45MOL0     H 5924   0.866   9.983   5.003  0.4301 -2.2155 -0.9183
   45MOL0     H 5925   1.076   9.881   4.970  1.7165 -2.1415  1.1275
   45MOL0     H 5926   0.221   9.804   5.829  0.8622  0.9596  1.6575
   45MOL0     H 5927   0.152  10.026   5.963  0.7083  0.5715  1.3722
   45MOL0     H 5928  -0.010  10.476   5.854  1.3684  0.6008 -0.4092
   45MOL0     H 5929  -0.132  10.653   5.943  1.8794  2.4136  0.4729
   45MOL0     H 5930  -0.024  10.867   5.988 -0.9522 -0.7801 -1.5772
   45MOL0     H 5931  -0.065  10.995   6.104 -0.7834 -0.7229  2.5480
   45MOL0     H 5932  -0.251  10.942   5.918  1.4485  1.2006  0.5516
   45MOL0     H 5933  -0.276  10.792   6.011 -0.5959 -0.1051  2.6348
   45MOL0     H 5934  -0.322  10.905   6.212  2.3444 -0.9840 -0.3524
   45MOL0     H 5935  -0.452  10.908   6.087  0.5640 -0.3458 -1.5629
   45MOL0     H 5936  -0.382  11.138   6.218  2.1291  0.1004  1.2462
   45MOL0     H 5937  -0.241  11.141   6.109  0.6652  0.0470  1.1149
   45MOL0     H 5938  -0.560  11.214   5.836 -1.9095 -0.9292  2.4563
   45MOL0     H 5939   0.064  10.645   6.321  0.9327 -1.9291  1.0012
   45MOL0     H 5940   0.184  10.429   6.242  3.2540 -0.2713 -2.5748
   46MOL0     O 5941   5.373   0.824   0.195 -0.3491  0.6204  0.4627
   46MOL0     C 5942   5.448   0.898   0.257  0.7160  0.3645 -0.6345
   46MOL0     O 5943   5.413   0.962   0.365  0.0439 -0.8659 -0.6022
   46MOL0     C 5944   5.295   0.952   0.432  0.4521 -0.0808  0.3491
   46MOL0     C 5945   5.266   1.049   0.529  0.1130 -0.0976 -0.0467
   46MOL0     C 5946   5.147   1.047   0.606 -1.2616 -0.5370  0.7184
   46MOL0     C 5947   5.054   0.945   0.586 -0.0210 -0.1531 -0.5751
   46MOL0     O 5948   4.931   0.941   0.643  0.6913 -0.7058  0.0946
   46MOL0     C 5949   4.882   1.074   0.671 -0.1217 -0.8720 -0.9329
   46MOL0     C 5950   4.732   1.054   0.697 -0.0094  0.2985 -0.0850
   46MOL0     C 5951   4.651   1.015   0.565 -0.5416  0.2659 -0.4071
   46MOL0     C 5952   4.636   0.861   0.560 -0.0722  0.6365  0.1637
   46MOL0     C 5953   4.598   0.792   0.425 -0.3714 -0.9395  0.6920
   46MOL0     C 5954   4.460   0.831   0.383  0.1399 -0.1726  0.3173
   46MOL0     C 5955   4.431   0.750   0.251 -0.3759 -0.5069  0.3701
   46MOL0     C 5956   4.360   0.616   0.267  0.7124 -0.2468  0.1112
   46MOL0     N 5957   4.213   0.649   0.270 -0.5112  0.4834  0.6979
   46MOL0     C 5958   4.125   0.631   0.160 -0.1697 -0.9826 -0.7424
   46MOL0     C 5959   4.008   0.686   0.211 -0.0820 -1.1328  0.0248
   46MOL0     C 5960   3.880   0.707   0.132  0.7523  0.4277 -0.3454
   46MOL0     C 5961   3.766   0.768   0.222  0.2216  0.6906  0.6212
   46MOL0     C 5962   3.640   0.764   0.136  0.0655  0.8327 -1.1255
   46MOL0     C 5963   3.517   0.813   0.221  0.0658 -0.0093  0.2918
   46MOL0     O 5964   3.481   0.736   0.337 -0.5196 -0.1207 -0.6341
   46MOL0     C 5965   3.361   0.772   0.397  0.6642 -0.9447  0.0532
   46MOL0     C 5966   3.296   0.681   0.471 -1.2565  0.5319  0.8064
   46MOL0     C 5967   3.179   0.712   0.534 -0.1193 -1.3247 -0.0424
   46MOL0     C 5968   3.123   0.843   0.523  0.5762 -0.6429 -0.5561
   46MOL0     C 5969   3.001   0.876   0.598 -0.6114 -0.1405  0.0642
   46MOL0     O 5970   2.936   0.990   0.555  0.3502  0.1260  0.7861
   46MOL0     C 5971   2.856   1.048   0.647  0.0692  0.2192  0.0175
   46MOL0     C 5972   2.717   1.033   0.640 -0.1126  0.0074  0.0785
   46MOL0     C 5973   2.634   1.080   0.744  1.2059  0.2452 -0.6074
   46MOL0     C 5974   2.694   1.144   0.852 -0.3366 -0.6174 -0.3638
   46MOL0     O 5975   2.600   1.183   0.944 -0.0264  0.6813  0.6111
   46MOL0     C 5976   2.626   1.151   1.080 -0.5190  0.6211 -0.9121
   46MOL0     C 5977   2.516   1.209   1.164  0.3377  1.0330 -0.5596
   46MOL0     C 5978   2.510   1.172   1.318 -0.6989 -0.1590 -0.5969
   46MOL0     C 5979   2.645   1.193   1.381  0.3055  0.2258 -0.4790
   46MOL0     C 5980   2.654   1.162   1.531 -0.3910  0.0258  0.3999
   46MOL0     C 5981   2.799   1.121   1.570 -1.7498 -0.2481 -1.0653
   46MOL0     C 5982   2.821   1.150   1.720 -0.6449  0.6100  0.2256
   46MOL0     C 5983   2.867   1.015   1.799  0.0266 -0.0824 -0.5233
   46MOL0    Cl 5984   2.944   1.050   1.952  0.0229  0.2602  0.0235
   46MOL0     C 5985   2.831   1.160   0.861  0.6705 -0.0694 -0.3154
   46MOL0     C 5986   2.917   1.106   0.761 -0.0787 -0.2610  0.2784
   46MOL0     O 5987   2.968   0.810   0.692  0.0696 -0.3046 -0.0502
   46MOL0     C 5988   3.188   0.933   0.442 -0.2290  0.3630  0.2593
   46MOL0     C 5989   3.308   0.898   0.373  0.7997 -0.5533  0.3338
   46MOL0     N 5990   4.022   0.711   0.351 -0.8519  0.4409  0.5654
   46MOL0     N 5991   4.146   0.693   0.382  0.1764 -0.1258  0.9346
   46MOL0     C 5992   5.077   0.840   0.495 -0.3835 -0.2887  0.1420
   46MOL0     C 5993   5.196   0.848   0.418 -0.3375  0.4675 -0.0294
   46MOL0     C 5994   5.586   0.922   0.204  0.9060 -0.1183 -0.3107
   46MOL0     C 5995   5.674   0.990   0.284  0.2139  0.4361  0.1657
   46MOL0     C 5996   5.808   1.000   0.247  0.6223  0.0725  0.2130
   46MOL0     C 5997   5.847   0.961   0.119 -0.1984 -0.7287 -0.7503
   46MOL0     O 5998   5.972   0.960   0.074 -0.0503  0.7007  1.0689
   46MOL0     C 5999   6.001   1.043  -0.035  0.5594 -0.4183  0.5933
   46MOL0     C 6000   6.069   1.174   0.021  0.4140  0.0386  1.1730
   46MOL0     C 6001   6.051   1.297  -0.090  1.2918  0.1175  0.3820
   46MOL0     C 6002   6.104   1.432  -0.025  0.1920  0.1619 -0.3221
   46MOL0     C 6003   6.120   1.546  -0.118  0.0696  0.2214  0.8825
   46MOL0     C 6004   6.144   1.641  -0.192  0.2774  0.4744 -0.9011
   46MOL0     C 6005   5.765   0.880   0.041 -0.6507  0.2051  0.3327
   46MOL0     C 6006   5.630   0.876   0.076  0.5746  0.5490  0.0800
   46MOL0     H 6007   5.341   1.126   0.542 -0.1509 -0.0552  1.4914
   46MOL0     H 6008   5.132   1.131   0.673  1.4662  1.8407 -1.4129
   46MOL0     H 6009   4.892   1.136   0.582  1.6249 -0.1345 -0.2657
   46MOL0     H 6010   4.938   1.120   0.753  0.1434 -2.2765 -0.2951
   46MOL0     H 6011   4.689   1.147   0.735 -0.8963  0.6652 -1.8555
   46MOL0     H 6012   4.726   0.975   0.772  0.3443  0.7282  0.4025
   46MOL0     H 6013   4.700   1.046   0.472 -0.0194  2.1671  0.4346
   46MOL0     H 6014   4.557   1.072   0.569 -0.9987 -0.4439 -0.7939
   46MOL0     H 6015   4.735   0.822   0.584 -0.1721 -0.5626 -1.2551
   46MOL0     H 6016   4.564   0.829   0.636  1.2519 -0.9762  0.8155
   46MOL0     H 6017   4.592   0.685   0.447  1.1240 -0.6242  3.1236
   46MOL0     H 6018   4.678   0.815   0.353  1.1807  0.1251  2.6470
   46MOL0     H 6019   4.448   0.938   0.367 -1.1363 -0.1303  1.4041
   46MOL0     H 6020   4.385   0.815   0.461  0.6216  4.5021  2.0238
   46MOL0     H 6021   4.363   0.802   0.183  1.8060 -1.2329 -2.6110
   46MOL0     H 6022   4.523   0.735   0.194  0.2503  0.9610  0.9310
   46MOL0     H 6023   4.401   0.571   0.358 -0.7426 -0.0061  0.9040
   46MOL0     H 6024   4.389   0.556   0.180 -1.5650 -4.0328  1.7264
   46MOL0     H 6025   4.153   0.609   0.057  0.9268 -0.8901 -0.4826
   46MOL0     H 6026   3.851   0.612   0.088  1.6327  0.1071 -0.2636
   46MOL0     H 6027   3.884   0.763   0.038  0.5122  0.4868 -0.3208
   46MOL0     H 6028   3.785   0.870   0.255  1.7499  1.7058 -2.9560
   46MOL0     H 6029   3.748   0.709   0.313  0.5255  1.4744  1.1955
   46MOL0     H 6030   3.658   0.839   0.058 -2.5685  0.7457 -1.9207
   46MOL0     H 6031   3.623   0.669   0.086  1.5406  1.7754 -3.6167
   46MOL0     H 6032   3.431   0.812   0.154  0.7909 -0.8288 -0.6424
   46MOL0     H 6033   3.545   0.913   0.254  0.4540 -0.9800  3.2451
   46MOL0     H 6034   3.329   0.578   0.476 -2.4816 -0.1021 -2.2560
   46MOL0     H 6035   3.123   0.639   0.592  2.4796 -3.1957  0.3401
   46MOL0     H 6036   2.683   0.988   0.548  0.6491 -1.0017  0.2731
   46MOL0     H 6037   2.531   1.047   0.744  0.2395  2.9461  0.2789
   46MOL0     H 6038   2.714   1.211   1.103 -1.5754  2.0885 -0.5473
   46MOL0     H 6039   2.637   1.043   1.094  1.3881  0.8233 -0.5822
   46MOL0     H 6040   2.419   1.182   1.119 -0.1142 -1.8722  1.7909
   46MOL0     H 6041   2.528   1.318   1.164 -0.0045  1.0755  0.3859
   46MOL0     H 6042   2.485   1.067   1.337 -0.4284 -1.5207 -5.9989
   46MOL0     H 6043   2.432   1.236   1.361 -0.9013  0.2594 -1.5543
   46MOL0     H 6044   2.732   1.144   1.336  1.0019  0.3306  0.7243
   46MOL0     H 6045   2.674   1.297   1.366  3.1895 -0.4425 -0.0949
   46MOL0     H 6046   2.577   1.088   1.555 -3.1653  2.5660 -0.1041
   46MOL0     H 6047   2.635   1.257   1.582  0.4211  0.6664 -0.4669
   46MOL0     H 6048   2.867   1.187   1.515 -0.5758  0.5741  1.2285
   46MOL0     H 6049   2.816   1.018   1.537 -2.3940 -0.4114 -0.8940
   46MOL0     H 6050   2.896   1.229   1.723 -0.7641  1.1462 -4.5607
   46MOL0     H 6051   2.735   1.193   1.771 -0.6423 -0.7134  1.4231
   46MOL0     H 6052   2.940   0.954   1.745 -1.0116 -0.8536 -1.0775
   46MOL0     H 6053   2.771   0.964   1.812  0.5788 -1.9775 -3.1653
   46MOL0     H 6054   2.870   1.217   0.944  3.2981 -2.5584  0.3152
   46MOL0     H 6055   3.025   1.113   0.774  0.0406 -0.7204 -0.3892
   46MOL0     H 6056   3.165   1.038   0.424 -0.0367  0.2671 -0.6013
   46MOL0     H 6057   3.352   0.971   0.305  0.7988 -2.5150 -1.9047
   46MOL0     H 6058   4.995   0.772   0.473  1.0818 -2.2326  0.3819
   46MOL0     H 6059   5.198   0.774   0.338  1.5733  1.2540 -0.7750
   46MOL0     H 6060   5.639   1.035   0.377  0.4791 -0.6142  0.7953
   46MOL0     H 6061   5.876   1.058   0.309  2.2513 -0.5327 -0.9263
   46MOL0     H 6062   5.909   1.075  -0.084 -1.1867 -2.6175  2.2453
   46MOL0     H 6063   6.062   1.000  -0.115 -0.1825  3.3278 -2.2417
   46MOL0     H 6064   6.018   1.200   0.113  0.4734  2.3617  0.6114
   46MOL0     H 6065   6.174   1.146   0.036  0.4829 -2.5575 -2.5538
   46MOL0     H 6066   5.943   1.305  -0.107  1.2686 -0.7909  0.0311
   46MOL0     H 6067   6.088   1.272  -0.190 -1.4220 -0.4838 -0.5624
   46MOL0     H 6068   6.033   1.466   0.051 -1.7518 -2.0676 -1.0146
   46MOL0     H 6069   6.197   1.409   0.028  1.0458  1.5506 -1.1643
   46MOL0     H 6070   6.162   1.732  -0.244 -1.2572  1.0787 -0.4306
   46MOL0     H 6071   5.802   0.830  -0.048  0.6434 -1.4275  1.7142
   46MOL0     H 6072   5.567   0.836  -0.002 -0.2133  0.4182  0.7786
   47MOL0     O 6073   7.711   9.499  11.217 -0.6957  0.4455  0.5830
   47MOL0     C 6074   7.701   9.558  11.328  0.1134 -0.0628  0.5838
   47MOL0     O 6075   7.618   9.665  11.354 -0.3701  0.7593  0.7811
   47MOL0     C 6076   7.533   9.708  11.254 -0.6507  0.5424 -0.1018
   47MOL0     C 6077   7.571   9.782  11.145 -0.2844 -0.6855 -0.1010
   47MOL0     C 6078   7.478   9.844  11.065 -0.1484  0.5516 -0.1515
   47MOL0     C 6079   7.344   9.837  11.101  1.2069  0.0554 -0.4349
   47MOL0     O 6080   7.240   9.880  11.026 -0.1417  0.3052  0.2490
   47MOL0     C 6081   7.264   9.934  10.894 -0.0844  0.3580  0.1409
   47MOL0     C 6082   7.153  10.024  10.850  0.2932 -0.3798 -0.1180
   47MOL0     C 6083   7.188  10.097  10.716  0.2796  0.6800  0.0221
   47MOL0     C 6084   7.069  10.109  10.616 -0.0210 -0.1524 -0.3950
   47MOL0     C 6085   6.954  10.192  10.676 -0.1269  0.2944 -0.1492
   47MOL0     C 6086   6.993  10.339  10.705 -0.0645 -0.7175  1.0160
   47MOL0     C 6087   6.884  10.434  10.684  0.9468 -1.1079 -1.6016
   47MOL0     C 6088   6.848  10.444  10.540  1.1466 -0.6644 -0.0761
   47MOL0     N 6089   6.761  10.572  10.514 -0.1876 -0.6279 -0.1373
   47MOL0     C 6090   6.656  10.606  10.597  0.0815 -1.1818  0.1520
   47MOL0     C 6091   6.628  10.742  10.580 -0.5103  0.4905  0.8050
   47MOL0     C 6092   6.538  10.835  10.644 -0.0162 -0.6201 -0.1176
   47MOL0     C 6093   6.407  10.766  10.696  0.2845  0.0965 -0.2084
   47MOL0     C 6094   6.313  10.873  10.754  0.9788 -1.5048 -1.3969
   47MOL0     C 6095   6.351  10.935  10.890  0.1554  0.4120 -0.0073
   47MOL0     O 6096   6.323  10.835  10.987 -0.1881  0.3337 -0.0836
   47MOL0     C 6097   6.348  10.856  11.116  0.3338 -0.2376 -0.4084
   47MOL0     C 6098   6.424  10.764  11.182 -0.1025  0.1404 -0.3227
   47MOL0     C 6099   6.460  10.782  11.317  0.3148 -0.1475  0.6355
   47MOL0     C 6100   6.396  10.887  11.391 -0.3399  0.5159 -0.2541
   47MOL0     C 6101   6.403  10.885  11.543 -0.0185 -0.3943 -0.9028
   47MOL0     O 6102   6.338  10.990  11.607  0.0506  0.0442  0.4144
   47MOL0     C 6103   6.337  10.993  11.744  0.1397 -0.8914 -0.1873
   47MOL0     C 6104   6.219  11.023  11.805  0.1328  0.6265 -0.7598
   47MOL0     C 6105   6.213  11.024  11.944 -0.4411 -0.1222  0.1573
   47MOL0     C 6106   6.325  10.994  12.022 -0.1821  0.7017  0.1479
   47MOL0     O 6107   6.337  10.982  12.154 -0.0739  0.0510 -0.2052
   47MOL0     C 6108   6.217  10.973  12.238  0.0884 -0.1741  0.1280
   47MOL0     C 6109   6.248  10.892  12.368 -0.4992  0.2405 -0.7743
   47MOL0     C 6110   6.377  10.801  12.365  0.5795  0.4036 -0.0651
   47MOL0     C 6111   6.403  10.732  12.499 -0.2739 -0.7023  0.5648
   47MOL0     C 6112   6.537  10.651  12.499 -1.3822 -1.4756 -0.6203
   47MOL0     C 6113   6.662  10.741  12.530 -0.2768 -0.0681 -0.0399
   47MOL0     C 6114   6.790  10.653  12.535 -0.9229  0.0213 -0.2988
   47MOL0     C 6115   6.853  10.635  12.399  0.2991  0.8857 -0.2274
   47MOL0    Cl 6116   7.009  10.562  12.395 -0.4561 -0.2224 -0.0154
   47MOL0     C 6117   6.449  10.984  11.958 -0.4282  0.5362 -0.1533
   47MOL0     C 6118   6.449  10.973  11.813 -1.3497  0.6515 -0.9755
   47MOL0     O 6119   6.444  10.778  11.604  0.2185 -0.3693  0.4009
   47MOL0     C 6120   6.302  10.968  11.321  0.7477  0.1674 -0.1887
   47MOL0     C 6121   6.285  10.953  11.184 -0.1045 -1.2954 -0.2329
   47MOL0     N 6122   6.728  10.794  10.488  0.4856  0.1811 -1.2228
   47MOL0     N 6123   6.801  10.693  10.461  0.2865  0.3478  0.5998
   47MOL0     C 6124   7.303   9.765  11.212 -0.3791 -1.4891 -0.2879
   47MOL0     C 6125   7.401   9.700  11.283  0.7619 -0.2536  0.1207
   47MOL0     C 6126   7.787   9.515  11.438 -0.1826  0.9884  0.6311
   47MOL0     C 6127   7.846   9.392  11.461  0.6987 -0.1993  0.2814
   47MOL0     C 6128   7.924   9.374  11.579 -0.6786  0.6382 -0.0549
   47MOL0     C 6129   7.943   9.465  11.677  0.8426  0.1904 -0.1155
   47MOL0     O 6130   7.996   9.433  11.798 -0.0324 -0.3987 -0.3191
   47MOL0     C 6131   8.141   9.443  11.818 -0.7598 -0.2079 -0.1550
   47MOL0     C 6132   8.156   9.441  11.975 -0.2558  0.2158  0.3945
   47MOL0     C 6133   8.310   9.436  12.016  0.7829 -0.4078  0.3705
   47MOL0     C 6134   8.333   9.451  12.168 -0.7912  0.4854  0.0481
   47MOL0     C 6135   8.411   9.349  12.230 -0.8005 -0.0865  0.0180
   47MOL0     C 6136   8.490   9.266  12.277 -0.5555 -0.8013  0.4967
   47MOL0     C 6137   7.882   9.581  11.659 -0.5430  0.0880  1.6926
   47MOL0     C 6138   7.797   9.611  11.544  0.2190  0.2508 -0.0505
   47MOL0     H 6139   7.677   9.783  11.120 -0.2531  1.1822 -0.0196
   47MOL0     H 6140   7.523   9.892  10.979 -0.2087  3.4007  1.2825
   47MOL0     H 6141   7.271   9.856  10.817  1.1333  1.2513 -0.6970
   47MOL0     H 6142   7.361   9.985  10.895  1.3554 -2.1726 -0.9193
   47MOL0     H 6143   7.129  10.099  10.926  0.2055 -1.4568  0.9592
   47MOL0     H 6144   7.054   9.978  10.862  0.1455  0.4162  2.1927
   47MOL0     H 6145   7.265  10.033  10.673 -3.5193 -1.8925 -3.7070
   47MOL0     H 6146   7.231  10.193  10.744 -0.5979  1.6644 -1.8534
   47MOL0     H 6147   7.102  10.147  10.520 -0.9411 -2.2934 -1.6323
   47MOL0     H 6148   7.037  10.007  10.594 -1.3210 -0.6453  3.0553
   47MOL0     H 6149   6.918  10.150  10.770  0.3131 -3.1929 -1.3730
   47MOL0     H 6150   6.881  10.186  10.594  1.8085  2.6201 -2.2094
   47MOL0     H 6151   7.077  10.366  10.641 -0.4664 -1.6791  0.0659
   47MOL0     H 6152   7.028  10.356  10.808  0.6670  2.8945  0.3158
   47MOL0     H 6153   6.786  10.415  10.730 -0.7621  1.8730 -3.6295
   47MOL0     H 6154   6.922  10.530  10.718  0.0928 -1.4903  0.5830
   47MOL0     H 6155   6.784  10.356  10.535 -0.1656  0.2740 -0.3998
   47MOL0     H 6156   6.942  10.438  10.486  1.2833 -2.1282  0.2964
   47MOL0     H 6157   6.595  10.546  10.664  1.9345 -1.3785  1.7468
   47MOL0     H 6158   6.509  10.910  10.569 -0.4156  3.5626  3.7562
   47MOL0     H 6159   6.587  10.881  10.730 -0.8711  0.1891 -0.0403
   47MOL0     H 6160   6.442  10.702  10.777  0.8106 -0.4191 -0.8288
   47MOL0     H 6161   6.356  10.702  10.623  0.9219  0.9492 -1.4464
   47MOL0     H 6162   6.307  10.958  10.686 -2.2495 -1.6686 -1.4579
   47MOL0     H 6163   6.212  10.831  10.759  1.6673 -3.0526  2.0438
   47MOL0     H 6164   6.308  11.035  10.902  0.0217  0.1370  2.4557
   47MOL0     H 6165   6.458  10.955  10.893 -0.0440  1.3921  1.3844
   47MOL0     H 6166   6.473  10.683  11.130  1.7518  0.9738  0.0114
   47MOL0     H 6167   6.517  10.709  11.374 -0.4354 -1.2604 -0.0009
   47MOL0     H 6168   6.130  11.015  11.743 -0.0559 -1.3015 -0.3221
   47MOL0     H 6169   6.116  11.040  11.990  0.0247  4.5923  0.0720
   47MOL0     H 6170   6.137  10.936  12.173  0.5400 -1.8248  0.4490
   47MOL0     H 6171   6.195  11.070  12.283 -1.3328 -1.9996  3.7541
   47MOL0     H 6172   6.169  10.818  12.385 -0.9490  0.8888  0.0695
   47MOL0     H 6173   6.251  10.961  12.453  4.5873  1.0189 -1.3225
   47MOL0     H 6174   6.465  10.861  12.339  0.8250 -0.1145 -0.4423
   47MOL0     H 6175   6.363  10.721  12.292 -2.5118  0.2446  0.5689
   47MOL0     H 6176   6.408  10.804  12.581 -1.0451  2.1232 -1.6841
   47MOL0     H 6177   6.321  10.665  12.527  0.4869 -2.0308 -0.2362
   47MOL0     H 6178   6.553  10.598  12.405 -1.3538 -2.4495 -0.0857
   47MOL0     H 6179   6.543  10.577  12.580  0.4866  0.9732  1.6535
   47MOL0     H 6180   6.659  10.790  12.628 -0.3825 -0.5174  0.1862
   47MOL0     H 6181   6.668  10.821  12.456  1.7704  2.3415  2.5106
   47MOL0     H 6182   6.860  10.692  12.609 -0.5138  1.0872 -1.2180
   47MOL0     H 6183   6.768  10.550  12.565 -0.6999 -0.3715 -1.4155
   47MOL0     H 6184   6.860  10.739  12.365 -1.6120  1.3033  0.5288
   47MOL0     H 6185   6.774  10.584  12.344 -2.0379  1.4983  2.3037
   47MOL0     H 6186   6.541  10.960  12.010 -1.2728 -2.2869  0.1816
   47MOL0     H 6187   6.548  10.980  11.770 -0.6492 -0.9227  0.2572
   47MOL0     H 6188   6.239  11.037  11.378 -0.5496 -0.0318 -1.3413
   47MOL0     H 6189   6.207  11.007  11.131  0.6098  1.8077  1.6190
   47MOL0     H 6190   7.201   9.772  11.249 -0.0688  1.4730  0.2846
   47MOL0     H 6191   7.366   9.646  11.370  2.1040 -0.0480  0.8202
   47MOL0     H 6192   7.821   9.309  11.395  3.0788 -0.9449  0.2139
   47MOL0     H 6193   7.966   9.275  11.599 -3.1233 -0.3324  0.5443
   47MOL0     H 6194   8.166   9.544  11.783 -1.5888 -0.0237 -0.2414
   47MOL0     H 6195   8.192   9.358  11.773 -0.2277  0.8803 -1.7268
   47MOL0     H 6196   8.117   9.536  12.014  1.4786  1.4654 -0.7433
   47MOL0     H 6197   8.104   9.356  12.021 -2.2189  1.3677  0.4164
   47MOL0     H 6198   8.360   9.513  11.957  1.0176 -0.5992  0.3157
   47MOL0     H 6199   8.340   9.337  11.980  0.2096  0.1124 -1.7087
   47MOL0     H 6200   8.373   9.549  12.196 -1.1269  0.2262  1.5533
   47MOL0     H 6201   8.235   9.464  12.216 -0.5510 -0.5819  0.8692
   47MOL0     H 6202   8.573   9.207  12.311  3.4114  3.3563 -0.9695
   47MOL0     H 6203   7.893   9.656  11.736 -0.4727  0.1844  1.5891
   47MOL0     H 6204   7.755   9.710  11.529  1.2463  0.5375 -1.2659
   48MOL0     O 6205   3.766   4.365   7.263 -0.0783 -0.0973 -0.4963
   48MOL0     C 6206   3.723   4.304   7.170 -0.6740 -0.8496 -1.0009
   48MOL0     O 6207   3.687   4.365   7.052  1.0778  0.9603  0.1571
   48MOL0     C 6208   3.698   4.501   7.041 -0.0605 -0.5496  0.3870
   48MOL0     C 6209   3.809   4.561   6.983 -0.6792  0.5249  0.5694
   48MOL0     C 6210   3.812   4.698   6.976 -0.3413 -0.1166 -0.1870
   48MOL0     C 6211   3.708   4.779   7.023  0.0137 -0.0710 -0.2167
   48MOL0     O 6212   3.698   4.917   7.011 -0.0160  0.2928 -0.0226
   48MOL0     C 6213   3.824   4.977   7.043  0.1416  0.1953 -0.4279
   48MOL0     C 6214   3.815   5.126   7.018  0.0141 -0.9047 -0.2876
   48MOL0     C 6215   3.947   5.196   7.049  0.7506  0.6593  0.6317
   48MOL0     C 6216   4.050   5.159   6.942  0.2924  0.3533  0.5801
   48MOL0     C 6217   4.176   5.230   6.962  0.0404 -0.0379  0.3664
   48MOL0     C 6218   4.280   5.207   6.853 -0.4634  0.6016 -0.0539
   48MOL0     C 6219   4.411   5.281   6.897  0.2055  0.7874  0.5519
   48MOL0     C 6220   4.497   5.347   6.788  0.5676 -0.2011 -0.1005
   48MOL0     N 6221   4.421   5.430   6.693  0.3750 -0.0946  0.5237
   48MOL0     C 6222   4.436   5.412   6.556  0.0745  0.6199 -0.4265
   48MOL0     C 6223   4.358   5.502   6.498 -0.0519  0.2444  0.1152
   48MOL0     C 6224   4.359   5.514   6.348 -0.5975 -0.3373  1.1288
   48MOL0     C 6225   4.463   5.604   6.284 -0.2648  0.1442  0.4532
   48MOL0     C 6226   4.607   5.538   6.284 -0.2275 -0.6295 -1.3100
   48MOL0     C 6227   4.708   5.640   6.229 -0.7184 -0.4741  0.0882
   48MOL0     O 6228   4.685   5.676   6.093 -0.2380  0.4869  0.4592
   48MOL0     C 6229   4.765   5.775   6.044 -0.4299 -0.6999 -0.7308
   48MOL0     C 6230   4.906   5.770   6.036  0.8054  1.0963 -0.7975
   48MOL0     C 6231   4.978   5.879   5.988 -0.0995 -0.3451  0.4860
   48MOL0     C 6232   4.915   5.992   5.937  0.0179  0.5017 -0.6333
   48MOL0     C 6233   4.997   6.104   5.886  0.3280 -0.3057  0.3253
   48MOL0     O 6234   4.955   6.172   5.768 -0.6501 -0.3660  0.8264
   48MOL0     C 6235   5.025   6.282   5.733  0.5338  0.7446  0.0274
   48MOL0     C 6236   5.060   6.292   5.597 -0.7389  0.4599 -0.4914
   48MOL0     C 6237   5.123   6.405   5.552  0.7418  1.5439  0.2618
   48MOL0     C 6238   5.147   6.512   5.633 -0.2764  0.7230  0.5284
   48MOL0     O 6239   5.220   6.614   5.583  0.8001 -0.5002  0.0735
   48MOL0     C 6240   5.234   6.734   5.667  0.9283  0.0115 -0.1587
   48MOL0     C 6241   5.262   6.857   5.583  0.0503  0.7419 -0.0933
   48MOL0     C 6242   5.407   6.859   5.532  0.2270 -0.4456 -0.2162
   48MOL0     C 6243   5.455   6.998   5.492 -0.5153 -0.3767  0.2231
   48MOL0     C 6244   5.611   7.003   5.506 -0.2357 -1.0986 -0.5312
   48MOL0     C 6245   5.684   6.889   5.443  0.1486 -0.4590 -0.8226
   48MOL0     C 6246   5.659   6.867   5.290  0.2569  0.1142  0.1770
   48MOL0     C 6247   5.769   6.908   5.193 -0.2210  0.0088 -0.8903
   48MOL0    Cl 6248   5.725   6.851   5.036 -0.4728  0.0773 -0.3232
   48MOL0     C 6249   5.120   6.502   5.778 -0.5052  0.0964 -0.0965
   48MOL0     C 6250   5.052   6.387   5.826  1.2108 -0.1972  0.3492
   48MOL0     O 6251   5.100   6.142   5.955  0.2228 -0.6765  0.6853
   48MOL0     C 6252   4.774   5.990   5.931 -0.2631 -0.9154 -0.9421
   48MOL0     C 6253   4.702   5.878   5.982 -0.0485  0.2368 -0.0917
   48MOL0     N 6254   4.292   5.571   6.595  0.9075  0.6887 -0.1399
   48MOL0     N 6255   4.325   5.524   6.708 -0.4527 -0.1101 -1.0145
   48MOL0     C 6256   3.619   4.724   7.110  0.4999 -0.2581  0.9429
   48MOL0     C 6257   3.613   4.582   7.111  1.5163 -0.5597  0.2675
   48MOL0     C 6258   3.713   4.158   7.171 -0.2832 -0.3107  0.2124
   48MOL0     C 6259   3.633   4.085   7.083 -0.1242 -0.0101 -0.1762
   48MOL0     C 6260   3.635   3.941   7.068  0.5870  0.2210 -0.6538
   48MOL0     C 6261   3.706   3.872   7.169 -0.5546  0.1595  0.5625
   48MOL0     O 6262   3.725   3.740   7.138  0.4559 -0.5366 -0.2363
   48MOL0     C 6263   3.844   3.663   7.180  1.0156 -0.7975  0.6317
   48MOL0     C 6264   3.963   3.693   7.079 -0.0357 -1.0852 -0.3142
   48MOL0     C 6265   3.921   3.693   6.928 -0.6293  0.5360  0.4823
   48MOL0     C 6266   3.928   3.553   6.855 -0.1049 -0.3948  0.4651
   48MOL0     C 6267   4.070   3.535   6.808  0.9952 -0.2046  0.1600
   48MOL0     C 6268   4.177   3.513   6.759  0.1482  0.5035  0.4269
   48MOL0     C 6269   3.781   3.936   7.258 -0.0291 -1.4020 -0.9193
   48MOL0     C 6270   3.788   4.074   7.255 -0.7724  0.1888 -1.4538
   48MOL0     H 6271   3.887   4.510   6.926 -2.3324  0.8094 -2.1576
   48MOL0     H 6272   3.891   4.746   6.919  0.1318  1.6185  1.8131
   48MOL0     H 6273   3.899   4.935   6.975  2.6864  2.0282  1.0992
   48MOL0     H 6274   3.848   4.950   7.146 -2.0148  1.1813  0.3949
   48MOL0     H 6275   3.737   5.174   7.079  0.8296 -1.0864  0.9342
   48MOL0     H 6276   3.783   5.141   6.915  0.1522  1.0019 -0.0935
   48MOL0     H 6277   3.985   5.155   7.144  2.5893 -1.7157 -0.9998
   48MOL0     H 6278   3.925   5.303   7.050  0.6413  0.6534 -0.2226
   48MOL0     H 6279   4.085   5.055   6.939  1.3453  0.7180 -0.8167
   48MOL0     H 6280   4.007   5.176   6.843  1.4643 -0.0321 -0.0210
   48MOL0     H 6281   4.219   5.196   7.057  0.9992  1.2205  0.4003
   48MOL0     H 6282   4.151   5.336   6.967 -0.2157  0.0842 -2.3189
   48MOL0     H 6283   4.247   5.257   6.761 -1.9630  2.0698  1.2210
   48MOL0     H 6284   4.297   5.099   6.850 -1.7704  0.2156  3.0225
   48MOL0     H 6285   4.393   5.361   6.969 -0.0909  0.7650  0.5054
   48MOL0     H 6286   4.471   5.207   6.951  2.0862  1.3228 -0.7103
   48MOL0     H 6287   4.539   5.258   6.740 -0.4810 -0.9017  0.2577
   48MOL0     H 6288   4.582   5.397   6.837  0.1409  0.6033 -0.1710
   48MOL0     H 6289   4.510   5.350   6.506  0.3962  1.7766 -1.4512
   48MOL0     H 6290   4.265   5.566   6.331 -1.5598 -2.5195 -0.7454
   48MOL0     H 6291   4.357   5.416   6.300  0.4264 -0.0539  0.4595
   48MOL0     H 6292   4.472   5.693   6.346  0.9316  1.7420 -1.8621
   48MOL0     H 6293   4.437   5.637   6.183 -0.5850  1.7967  1.0464
   48MOL0     H 6294   4.630   5.516   6.389 -1.0240 -2.0799 -1.4210
   48MOL0     H 6295   4.602   5.446   6.225 -4.3558 -3.7940  3.1908
   48MOL0     H 6296   4.808   5.599   6.242  0.1075  0.5788 -2.3944
   48MOL0     H 6297   4.702   5.737   6.279  0.6728 -1.5542  2.4739
   48MOL0     H 6298   4.949   5.675   6.068 -2.9307 -1.1490 -1.7340
   48MOL0     H 6299   5.085   5.861   5.984  0.1505  1.0476 -3.1996
   48MOL0     H 6300   5.041   6.216   5.522  1.6336  0.5651 -1.2518
   48MOL0     H 6301   5.154   6.401   5.448 -0.2284 -1.0363 -0.0177
   48MOL0     H 6302   5.321   6.718   5.732  0.5870 -1.5862 -0.0693
   48MOL0     H 6303   5.141   6.761   5.717  0.9762 -1.8610  1.0410
   48MOL0     H 6304   5.237   6.949   5.637 -2.2474  0.0991  0.0242
   48MOL0     H 6305   5.187   6.860   5.504 -3.9242 -0.1740  3.2758
   48MOL0     H 6306   5.427   6.795   5.446 -1.5295  0.9530 -1.7673
   48MOL0     H 6307   5.472   6.835   5.616 -0.9863  0.9387  1.2001
   48MOL0     H 6308   5.441   7.019   5.386  2.3611  0.8915  0.0282
   48MOL0     H 6309   5.406   7.074   5.553 -0.8591  1.9874 -2.7763
   48MOL0     H 6310   5.641   6.997   5.611 -4.4782  0.8303  1.0315
   48MOL0     H 6311   5.654   7.097   5.469  1.1141 -2.7697 -3.5728
   48MOL0     H 6312   5.675   6.797   5.501 -4.2508  0.3036  0.0036
   48MOL0     H 6313   5.788   6.915   5.464 -0.0057 -0.6326  0.1953
   48MOL0     H 6314   5.653   6.759   5.277  0.3675  0.0202  0.8348
   48MOL0     H 6315   5.561   6.899   5.254  0.1063  1.9976  2.0344
   48MOL0     H 6316   5.863   6.867   5.232 -1.0095 -0.8971  0.1116
   48MOL0     H 6317   5.790   7.016   5.198 -1.9493  0.5622 -3.5986
   48MOL0     H 6318   5.141   6.586   5.844 -4.5992  0.7797  0.5938
   48MOL0     H 6319   5.029   6.376   5.931  1.7185 -0.4228  0.4409
   48MOL0     H 6320   4.706   6.070   5.906 -1.5806 -0.3150  3.6297
   48MOL0     H 6321   4.594   5.876   5.974 -0.3055  4.0573  0.6254
   48MOL0     H 6322   3.557   4.789   7.172 -0.6533 -0.5077  0.0902
   48MOL0     H 6323   3.544   4.546   7.186  2.6001 -0.7580  1.1818
   48MOL0     H 6324   3.581   4.148   7.012  2.5442  2.8701  0.2097
   48MOL0     H 6325   3.583   3.878   6.997  0.4608 -0.1107 -0.2687
   48MOL0     H 6326   3.816   3.557   7.183  0.1787 -0.5827  3.7773
   48MOL0     H 6327   3.871   3.693   7.282 -0.7702 -0.4516  1.0345
   48MOL0     H 6328   4.003   3.793   7.097  1.7477 -1.6357 -0.9641
   48MOL0     H 6329   4.049   3.629   7.104  1.5045  0.0293 -2.4008
   48MOL0     H 6330   3.975   3.765   6.865 -0.1021  1.7765  2.2686
   48MOL0     H 6331   3.818   3.729   6.920 -0.5900  0.4166 -0.8208
   48MOL0     H 6332   3.910   3.472   6.927 -0.1893 -0.0748  0.8113
   48MOL0     H 6333   3.872   3.544   6.762  2.0321  0.0717 -0.9225
   48MOL0     H 6334   4.275   3.525   6.716 -0.7161  2.4526 -1.1293
   48MOL0     H 6335   3.845   3.883   7.327 -0.3794 -0.6228  0.0279
   48MOL0     H 6336   3.852   4.115   7.332 -2.2617  1.8202 -1.0059
   49MOL0     O 6337   2.276   8.284   6.712  0.7241 -0.8459  0.0224
   49MOL0     C 6338   2.245   8.395   6.764  0.6289  0.6003  0.9025
   49MOL0     O 6339   2.285   8.515   6.715 -0.0623 -0.0508  0.2392
   49MOL0     C 6340   2.330   8.533   6.588  0.7246 -0.2047 -0.0429
   49MOL0     C 6341   2.265   8.477   6.480  0.7008 -0.2250 -0.4906
   49MOL0     C 6342   2.327   8.467   6.354 -0.3120  0.3703 -0.4133
   49MOL0     C 6343   2.455   8.506   6.340 -1.0988  0.6579  0.4480
   49MOL0     O 6344   2.510   8.483   6.215 -0.1995 -0.0475 -0.1856
   49MOL0     C 6345   2.514   8.350   6.174  0.2362 -0.1469  0.2763
   49MOL0     C 6346   2.623   8.328   6.065  0.1837  0.2883  0.3171
   49MOL0     C 6347   2.744   8.412   6.098  0.4053 -0.8092 -0.2337
   49MOL0     C 6348   2.862   8.405   5.997 -0.0352 -1.1184 -0.0316
   49MOL0     C 6349   2.969   8.502   6.047  1.5150 -0.1993 -0.7357
   49MOL0     C 6350   3.105   8.474   5.983 -0.1275  0.4743 -1.3676
   49MOL0     C 6351   3.207   8.553   6.058 -0.5215 -0.1433 -0.3463
   49MOL0     C 6352   3.339   8.480   6.073  0.4516  0.4052 -0.6966
   49MOL0     N 6353   3.405   8.448   5.945  0.7261 -0.7697  0.6866
   49MOL0     C 6354   3.424   8.544   5.844  0.4778  0.3168 -0.9588
   49MOL0     C 6355   3.459   8.466   5.740  0.3069 -0.1149 -0.2678
   49MOL0     C 6356   3.476   8.527   5.605  0.1396  0.1534  0.3647
   49MOL0     C 6357   3.628   8.548   5.580 -0.1862  0.4473 -0.9747
   49MOL0     C 6358   3.655   8.615   5.452  0.1722 -0.0751 -0.7760
   49MOL0     C 6359   3.812   8.602   5.428  0.4530 -0.3273  0.0577
   49MOL0     O 6360   3.853   8.676   5.313  0.1586 -0.5590  0.1932
   49MOL0     C 6361   3.987   8.684   5.293  0.1201 -0.1641 -0.3293
   49MOL0     C 6362   4.089   8.673   5.383  0.6623 -0.7423  0.6170
   49MOL0     C 6363   4.224   8.689   5.345  0.9654 -0.2878  0.2839
   49MOL0     C 6364   4.253   8.703   5.207  0.3284  0.9524 -0.3445
   49MOL0     C 6365   4.392   8.720   5.165  0.1466 -0.0779  1.5516
   49MOL0     O 6366   4.483   8.729   5.256  0.8094  0.4045  0.2910
   49MOL0     C 6367   4.611   8.762   5.209  0.1162  0.2167  0.6734
   49MOL0     C 6368   4.667   8.883   5.252  0.3654  0.2115 -0.6811
   49MOL0     C 6369   4.798   8.918   5.216 -0.2327  0.5144  0.2689
   49MOL0     C 6370   4.881   8.844   5.127  0.5234  0.3160  0.0907
   49MOL0     O 6371   5.000   8.894   5.081  0.5546  0.0163  0.8447
   49MOL0     C 6372   5.109   8.861   5.164 -0.0525  0.7159  0.6789
   49MOL0     C 6373   5.158   8.992   5.240  0.3818 -0.3348 -0.1914
   49MOL0     C 6374   5.258   9.083   5.167  0.2467  0.2858  0.0239
   49MOL0     C 6375   5.294   9.199   5.266  1.1836 -0.6180  0.2766
   49MOL0     C 6376   5.386   9.302   5.208  0.0877 -0.4516  1.5373
   49MOL0     C 6377   5.535   9.253   5.216 -0.8403 -0.9693  0.8458
   49MOL0     C 6378   5.626   9.353   5.136 -0.1821 -0.8908  0.0982
   49MOL0     C 6379   5.766   9.345   5.200 -1.1153 -0.3722 -0.2145
   49MOL0    Cl 6380   5.881   9.438   5.098  0.0690  0.1777  0.0078
   49MOL0     C 6381   4.834   8.718   5.098 -0.5890  0.4901  0.4515
   49MOL0     C 6382   4.702   8.675   5.137 -0.3259 -0.2763 -0.3602
   49MOL0     O 6383   4.414   8.703   5.039 -0.4820  0.0018 -0.2760
   49MOL0     C 6384   4.147   8.713   5.116  0.4679  0.0310  0.7828
   49MOL0     C 6385   4.015   8.705   5.157  0.1926  0.7905 -0.2903
   49MOL0     N 6386   3.479   8.333   5.783 -0.1397 -0.9043  0.1873
   49MOL0     N 6387   3.441   8.324   5.903  0.2528  0.2065  0.3620
   49MOL0     C 6388   2.518   8.575   6.439 -0.2640 -0.1317 -0.6602
   49MOL0     C 6389   2.459   8.585   6.564 -0.3317 -0.0237 -0.0734
   49MOL0     C 6390   2.192   8.395   6.899  0.5108 -0.0358  0.1968
   49MOL0     C 6391   2.145   8.270   6.956  0.1083  0.2479  0.0476
   49MOL0     C 6392   2.095   8.270   7.089  0.0705 -0.5239 -0.0058
   49MOL0     C 6393   2.100   8.394   7.157  0.3834  0.1026 -0.1266
   49MOL0     O 6394   2.060   8.407   7.289  0.2723 -0.2384 -0.1025
   49MOL0     C 6395   1.986   8.297   7.358  0.0924 -0.0281  0.6058
   49MOL0     C 6396   1.898   8.347   7.474  0.4478  1.1485 -0.0785
   49MOL0     C 6397   1.967   8.453   7.554  0.6781  1.5862 -0.2616
   49MOL0     C 6398   1.874   8.523   7.642  0.0776  0.1875 -0.1625
   49MOL0     C 6399   1.810   8.450   7.746  0.4907  0.1322 -0.0291
   49MOL0     C 6400   1.749   8.392   7.835 -0.1280 -0.7494  0.1248
   49MOL0     C 6401   2.154   8.509   7.103  0.2414 -0.1891 -0.6464
   49MOL0     C 6402   2.203   8.511   6.974  0.4002 -0.8239  0.3178
   49MOL0     H 6403   2.165   8.438   6.493  0.8624 -0.1898  1.0955
   49MOL0     H 6404   2.272   8.437   6.265 -1.6726  0.9000  0.2240
   49MOL0     H 6405   2.417   8.315   6.136  0.6304 -0.1893 -0.7341
   49MOL0     H 6406   2.548   8.288   6.257 -2.9185 -0.4301  1.4987
   49MOL0     H 6407   2.582   8.350   5.966 -0.6938 -2.9173 -0.1391
   49MOL0     H 6408   2.650   8.223   6.050  0.3150  0.4751 -0.8862
   49MOL0     H 6409   2.774   8.372   6.195 -4.2605 -3.4940  0.4070
   49MOL0     H 6410   2.715   8.517   6.105  1.7716 -0.3688 -0.8934
   49MOL0     H 6411   2.904   8.305   5.992 -3.0348 -2.5255  0.9090
   49MOL0     H 6412   2.822   8.431   5.898 -2.5599 -3.3014  0.3056
   49MOL0     H 6413   2.982   8.487   6.155  1.3216 -0.7554 -0.7883
   49MOL0     H 6414   2.943   8.609   6.041  2.5836  0.2013  0.9747
   49MOL0     H 6415   3.101   8.500   5.877 -0.0040 -0.0793 -1.5130
   49MOL0     H 6416   3.126   8.367   5.988 -2.1317  0.0792 -0.4257
   49MOL0     H 6417   3.215   8.649   6.006  2.4450  0.7717  1.5451
   49MOL0     H 6418   3.170   8.573   6.159  1.7184 -0.4191  0.6036
   49MOL0     H 6419   3.327   8.390   6.134 -1.3774  0.0509 -1.5256
   49MOL0     H 6420   3.409   8.547   6.124  1.5444 -1.1360 -0.0860
   49MOL0     H 6421   3.388   8.646   5.847  0.3469  0.2497  0.4268
   49MOL0     H 6422   3.416   8.619   5.602 -1.1160 -0.6452 -0.2764
   49MOL0     H 6423   3.434   8.459   5.531 -0.9438  1.1864 -0.0160
   49MOL0     H 6424   3.685   8.454   5.583  2.4133  1.9487  0.7345
   49MOL0     H 6425   3.656   8.606   5.668 -1.1786 -0.5741  0.0411
   49MOL0     H 6426   3.593   8.582   5.369  0.3112 -0.9956 -0.5279
   49MOL0     H 6427   3.639   8.722   5.469  1.5911 -0.1983  1.8593
   49MOL0     H 6428   3.839   8.497   5.413  0.5484 -0.5433  1.6142
   49MOL0     H 6429   3.867   8.637   5.516  4.4207 -0.1819 -2.2517
   49MOL0     H 6430   4.070   8.650   5.487  1.9790 -2.0123  0.6118
   49MOL0     H 6431   4.304   8.669   5.416  1.1111  1.6381  0.7352
   49MOL0     H 6432   4.614   8.955   5.313  1.9501  2.1856 -1.5235
   49MOL0     H 6433   4.834   9.017   5.243 -0.0067  2.0480 -4.6763
   49MOL0     H 6434   5.191   8.827   5.101 -2.4544 -0.7684 -1.8755
   49MOL0     H 6435   5.086   8.778   5.232  0.6973  0.3360  0.4831
   49MOL0     H 6436   5.210   8.949   5.326  1.2673  0.5427 -0.2827
   49MOL0     H 6437   5.066   9.039   5.276  0.1872 -2.0907  1.7672
   49MOL0     H 6438   5.214   9.118   5.073  0.4619 -4.1986 -2.0470
   49MOL0     H 6439   5.342   9.026   5.126  0.9023  2.4025 -1.7949
   49MOL0     H 6440   5.201   9.245   5.301  0.6868 -1.7010  0.4272
   49MOL0     H 6441   5.348   9.153   5.350  2.9563 -2.0681 -1.5591
   49MOL0     H 6442   5.379   9.394   5.266 -1.0005  0.4674  0.0457
   49MOL0     H 6443   5.366   9.331   5.104  4.4020  1.3134  0.9842
   49MOL0     H 6444   5.539   9.161   5.156 -0.3240  0.1166 -0.8891
   49MOL0     H 6445   5.565   9.234   5.319  1.2332  0.3819  0.5660
   49MOL0     H 6446   5.646   9.307   5.039  0.7376 -0.4991  0.0932
   49MOL0     H 6447   5.585   9.454   5.132 -0.9375 -1.2360 -2.1525
   49MOL0     H 6448   5.797   9.242   5.216  1.7547  0.0395 -2.3617
   49MOL0     H 6449   5.769   9.401   5.294 -0.0384 -0.4218 -0.2040
   49MOL0     H 6450   4.905   8.652   5.050  1.2097  1.7368  1.2677
   49MOL0     H 6451   4.674   8.575   5.107 -1.4050  0.3693 -1.6726
   49MOL0     H 6452   4.167   8.728   5.010  0.8035 -4.7452 -0.0408
   49MOL0     H 6453   3.939   8.720   5.080 -0.4423  3.0218  0.7068
   49MOL0     H 6454   2.613   8.627   6.427  0.1469 -0.1052  2.0294
   49MOL0     H 6455   2.526   8.617   6.643  1.1130 -1.6059 -0.6062
   49MOL0     H 6456   2.138   8.181   6.895 -0.0979  2.0662 -2.7877
   49MOL0     H 6457   2.051   8.183   7.135  1.3962 -2.4926 -2.2506
   49MOL0     H 6458   2.061   8.223   7.389  2.0049  0.4003 -2.6143
   49MOL0     H 6459   1.919   8.246   7.289 -3.3668  4.0615  0.5183
   49MOL0     H 6460   1.804   8.377   7.425 -0.8607 -2.1412  0.1731
   49MOL0     H 6461   1.861   8.274   7.547 -1.6066  1.4261 -0.7664
   49MOL0     H 6462   2.021   8.527   7.495  1.0029  1.3210 -0.3002
   49MOL0     H 6463   2.047   8.411   7.615 -0.4282  0.9532  0.8037
   49MOL0     H 6464   1.919   8.613   7.685  2.4504 -2.6737  3.9733
   49MOL0     H 6465   1.792   8.549   7.573 -1.0377  0.0079  1.0618
   49MOL0     H 6466   1.700   8.349   7.920 -2.4013  3.6127  1.3025
   49MOL0     H 6467   2.162   8.595   7.169  3.8145 -1.9009  1.4560
   49MOL0     H 6468   2.245   8.603   6.935  4.1677 -2.5702 -0.1849
   50MOL0     O 6469   5.563   4.854   1.272  0.2229 -0.7329  0.3522
   50MOL0     C 6470   5.472   4.799   1.323 -0.0255  0.4315 -0.3692
   50MOL0     O 6471   5.347   4.833   1.331  0.4436 -0.3639  0.4273
   50MOL0     C 6472   5.295   4.948   1.271 -0.3879 -0.7860 -0.8898
   50MOL0     C 6473   5.357   5.032   1.181  0.4152 -1.2619 -0.7089
   50MOL0     C 6474   5.278   5.142   1.118 -0.0566  0.1982  0.2492
   50MOL0     C 6475   5.146   5.165   1.162  0.0109  0.0093 -0.2264
   50MOL0     O 6476   5.058   5.268   1.107  0.5009 -0.5350  0.5486
   50MOL0     C 6477   5.105   5.337   0.991  0.1641 -0.2188 -0.4584
   50MOL0     C 6478   5.211   5.438   1.038 -0.5280  0.8527  0.1514
   50MOL0     C 6479   5.155   5.580   1.058 -0.0316  0.4067 -0.6808
   50MOL0     C 6480   5.265   5.687   1.085 -0.0509 -1.0113 -0.3545
   50MOL0     C 6481   5.215   5.836   1.066  0.7925 -0.1789  0.0998
   50MOL0     C 6482   5.143   5.879   1.193  0.8720  0.1830 -0.6889
   50MOL0     C 6483   5.088   6.029   1.185 -0.0311 -0.0694 -0.6762
   50MOL0     C 6484   4.958   6.043   1.104 -0.6471  0.6903  0.3331
   50MOL0     N 6485   4.921   6.185   1.106 -0.8000 -0.0647 -0.1095
   50MOL0     C 6486   4.955   6.276   1.008 -1.2770  0.4087 -0.0468
   50MOL0     C 6487   4.906   6.398   1.046  0.8604 -0.4462  0.7600
   50MOL0     C 6488   4.915   6.524   0.964 -0.0079  0.3202  0.1669
   50MOL0     C 6489   5.040   6.607   0.968  1.3031  0.4180  0.3116
   50MOL0     C 6490   5.157   6.532   0.909 -0.1816  0.6719  0.1923
   50MOL0     C 6491   5.276   6.630   0.883  0.8330 -0.3687  0.8432
   50MOL0     O 6492   5.298   6.719   0.997 -1.1462  0.2930 -0.5676
   50MOL0     C 6493   5.418   6.708   1.067  0.7001 -0.5083 -0.4401
   50MOL0     C 6494   5.442   6.813   1.152 -0.4779 -0.4463  0.3945
   50MOL0     C 6495   5.565   6.822   1.225  0.4471  1.1513 -0.4872
   50MOL0     C 6496   5.651   6.707   1.229  0.9144  0.0029  0.6794
   50MOL0     C 6497   5.769   6.715   1.307 -0.3780  0.1034 -0.3781
   50MOL0     O 6498   5.796   6.830   1.371  0.2787 -0.6657 -0.0952
   50MOL0     C 6499   5.915   6.842   1.445  0.4160  0.8020 -0.8073
   50MOL0     C 6500   6.042   6.790   1.418 -0.1635 -0.0104  1.1564
   50MOL0     C 6501   6.156   6.830   1.494 -0.6059  0.1167 -0.1564
   50MOL0     C 6502   6.141   6.918   1.601  0.5084 -0.1248 -0.3173
   50MOL0     O 6503   6.248   6.960   1.675 -0.5715 -0.7275 -0.5367
   50MOL0     C 6504   6.314   6.862   1.763 -0.1460  0.3858  0.5177
   50MOL0     C 6505   6.254   6.835   1.903  0.0822 -0.9344  0.5531
   50MOL0     C 6506   6.355   6.753   1.997  0.7822  0.9204 -0.0126
   50MOL0     C 6507   6.485   6.826   2.020  0.0224  0.7981  0.0708
   50MOL0     C 6508   6.546   6.770   2.152 -0.0503  0.1349 -0.0480
   50MOL0     C 6509   6.685   6.835   2.170  0.7954  0.1497 -0.2355
   50MOL0     C 6510   6.688   6.906   2.306 -0.2173 -0.2861 -1.0016
   50MOL0     C 6511   6.827   6.960   2.337  0.9332  0.1693 -0.3085
   50MOL0    Cl 6512   6.868   7.076   2.202  0.1741  0.1223  0.0280
   50MOL0     C 6513   6.011   6.963   1.634 -0.4654 -0.2544  0.1130
   50MOL0     C 6514   5.905   6.923   1.560 -0.2137 -0.3300  0.2001
   50MOL0     O 6515   5.828   6.608   1.315  0.0197  0.0599 -0.1227
   50MOL0     C 6516   5.626   6.599   1.145  0.4707  1.1918 -0.3448
   50MOL0     C 6517   5.506   6.602   1.067  0.0850 -0.2614  0.0327
   50MOL0     N 6518   4.841   6.378   1.166  0.2968 -0.0741  0.5888
   50MOL0     N 6519   4.848   6.256   1.206 -0.5425  0.8048 -0.3217
   50MOL0     C 6520   5.089   5.076   1.251  0.5972  0.1125  1.1020
   50MOL0     C 6521   5.160   4.967   1.299 -0.5274 -1.0466  0.2500
   50MOL0     C 6522   5.511   4.675   1.397  0.5089  0.3722 -0.5761
   50MOL0     C 6523   5.408   4.592   1.452  0.9440 -0.3510  0.2272
   50MOL0     C 6524   5.436   4.473   1.526  0.5219 -0.0584 -0.8582
   50MOL0     C 6525   5.570   4.443   1.551 -0.1609 -0.5907 -0.1987
   50MOL0     O 6526   5.603   4.332   1.619  0.5727  0.3631  0.1018
   50MOL0     C 6527   5.712   4.254   1.583  0.4023  0.4777  0.5693
   50MOL0     C 6528   5.751   4.160   1.695  0.1503  0.1915 -0.6804
   50MOL0     C 6529   5.849   4.065   1.637  0.2324  0.0110  0.8741
   50MOL0     C 6530   5.862   3.943   1.724 -0.2109  0.1595  0.0594
   50MOL0     C 6531   5.975   3.862   1.671 -0.4851  0.3640  0.2333
   50MOL0     C 6532   6.074   3.815   1.618  0.5635  0.5037  0.3558
   50MOL0     C 6533   5.669   4.532   1.515  0.1767 -0.7603  1.1837
   50MOL0     C 6534   5.636   4.644   1.435 -0.0019  0.0050 -0.0253
   50MOL0     H 6535   5.456   5.024   1.139 -1.0551 -0.5109 -4.6883
   50MOL0     H 6536   5.328   5.205   1.046  1.2020 -1.9545 -0.8605
   50MOL0     H 6537   5.016   5.392   0.957 -3.5992 -4.3465  1.7624
   50MOL0     H 6538   5.142   5.270   0.913  0.3217 -1.1747  0.4300
   50MOL0     H 6539   5.297   5.431   0.970  1.1296  2.6960  1.9194
   50MOL0     H 6540   5.260   5.414   1.133  3.5737  2.0091 -1.4133
   50MOL0     H 6541   5.079   5.571   1.136  1.8209 -1.8048  1.0237
   50MOL0     H 6542   5.114   5.604   0.960  3.3351 -0.5564 -2.4532
   50MOL0     H 6543   5.308   5.662   1.183 -1.6911 -0.2537  0.5983
   50MOL0     H 6544   5.340   5.667   1.009 -0.3696  0.4806 -1.0885
   50MOL0     H 6545   5.154   5.853   0.977  0.5224 -0.0005  0.3195
   50MOL0     H 6546   5.303   5.901   1.059 -0.6834  2.3207  2.7131
   50MOL0     H 6547   5.216   5.874   1.274  2.7637  1.9768 -2.1448
   50MOL0     H 6548   5.062   5.808   1.205 -0.0052  1.0847 -1.1419
   50MOL0     H 6549   5.082   6.072   1.285  0.6277 -0.3905 -0.4875
   50MOL0     H 6550   5.171   6.081   1.135  2.8966 -0.7879  2.9517
   50MOL0     H 6551   4.889   5.981   1.162  3.5808 -2.2941  2.6771
   50MOL0     H 6552   4.973   6.006   1.002  2.0470 -0.4917  1.0838
   50MOL0     H 6553   5.027   6.265   0.927  0.4491  1.4513  1.2671
   50MOL0     H 6554   4.843   6.589   1.014  0.4040  0.1094  1.0631
   50MOL0     H 6555   4.878   6.497   0.865 -1.1151 -0.8601  0.8689
   50MOL0     H 6556   5.065   6.629   1.072 -1.9500 -1.6106  1.6978
   50MOL0     H 6557   5.020   6.686   0.895  1.9766 -1.7062 -2.3568
   50MOL0     H 6558   5.183   6.450   0.977  0.2969  1.4930  1.0326
   50MOL0     H 6559   5.125   6.482   0.817  0.1955  0.5779  0.1126
   50MOL0     H 6560   5.250   6.688   0.793 -0.2414  0.4637  1.6608
   50MOL0     H 6561   5.370   6.584   0.851  1.0124  2.1956 -2.9830
   50MOL0     H 6562   5.358   6.879   1.176  1.0761  0.9269  2.4967
   50MOL0     H 6563   5.591   6.902   1.294 -0.1109 -0.5224  1.8015
   50MOL0     H 6564   6.061   6.715   1.341 -2.2206 -0.3707  0.9503
   50MOL0     H 6565   6.253   6.792   1.465 -2.3591 -4.6978 -0.6749
   50MOL0     H 6566   6.418   6.892   1.778 -0.5146  0.3917  3.9139
   50MOL0     H 6567   6.324   6.763   1.718  0.2302  0.0951  1.2257
   50MOL0     H 6568   6.158   6.786   1.888  0.3151 -0.5029 -3.1674
   50MOL0     H 6569   6.229   6.926   1.960 -2.7286  0.0045 -1.9031
   50MOL0     H 6570   6.372   6.651   1.963 -2.1943 -0.9458  3.4588
   50MOL0     H 6571   6.303   6.742   2.092  3.4359  1.5881  1.6267
   50MOL0     H 6572   6.553   6.818   1.935  0.9916  2.5819  0.6276
   50MOL0     H 6573   6.463   6.933   2.023 -5.1349  0.0515 -0.6584
   50MOL0     H 6574   6.559   6.664   2.174  1.8354  0.9138  3.2095
   50MOL0     H 6575   6.482   6.803   2.234  0.2283  1.3410 -0.2885
   50MOL0     H 6576   6.701   6.917   2.099 -0.8024  2.7132  2.1506
   50MOL0     H 6577   6.762   6.758   2.162  0.8591  0.2465 -0.5712
   50MOL0     H 6578   6.615   6.986   2.314  0.1774 -0.0803  1.3836
   50MOL0     H 6579   6.656   6.835   2.383 -1.1326 -0.6852 -1.7370
   50MOL0     H 6580   6.905   6.885   2.344  0.0038 -1.1672 -2.9201
   50MOL0     H 6581   6.831   7.012   2.433  1.7895  3.3235 -1.8919
   50MOL0     H 6582   5.991   7.020   1.724 -1.8193  1.8668 -1.4366
   50MOL0     H 6583   5.806   6.951   1.593 -1.1136 -0.9209 -1.8744
   50MOL0     H 6584   5.691   6.512   1.144  1.0387  1.6124 -0.3458
   50MOL0     H 6585   5.481   6.512   1.012 -3.2678  0.0358  0.8330
   50MOL0     H 6586   4.984   5.084   1.277 -0.0888 -2.2314 -0.5761
   50MOL0     H 6587   5.111   4.887   1.353  0.0557 -2.7186 -1.5379
   50MOL0     H 6588   5.308   4.628   1.432  0.1481 -2.8948 -0.7937
   50MOL0     H 6589   5.358   4.407   1.563 -0.9435  1.2910 -1.4365
   50MOL0     H 6590   5.798   4.308   1.542  0.8612 -0.1367  0.7041
   50MOL0     H 6591   5.672   4.203   1.495  0.0529  1.8311 -0.0856
   50MOL0     H 6592   5.799   4.214   1.777 -1.5186 -0.6388  0.9090
   50MOL0     H 6593   5.660   4.124   1.744 -0.7319  0.7082 -1.8849
   50MOL0     H 6594   5.950   4.106   1.627  0.4609 -0.9654 -1.3473
   50MOL0     H 6595   5.806   4.033   1.542  0.5534 -0.2240  0.8053
   50MOL0     H 6596   5.888   3.960   1.828  1.3618 -5.3544  0.9058
   50MOL0     H 6597   5.766   3.891   1.730  0.6666 -1.7038 -0.9967
   50MOL0     H 6598   6.165   3.777   1.575  0.1922  1.1312 -1.0595
   50MOL0     H 6599   5.772   4.519   1.544  1.3126  2.8858 -0.6857
   50MOL0     H 6600   5.721   4.701   1.397  0.2808  1.5599  2.6772
   51MOL0     O 6601   1.198   7.810   0.829  0.0597  0.1948  0.5009
   51MOL0     C 6602   1.149   7.897   0.755 -0.0212  0.8009  0.9479
   51MOL0     O 6603   1.216   7.955   0.654  0.2631 -0.1673 -0.4294
   51MOL0     C 6604   1.352   7.973   0.648  0.5344 -0.6486  0.5244
   51MOL0     C 6605   1.393   8.102   0.619 -0.0763 -0.7472  0.1454
   51MOL0     C 6606   1.537   8.137   0.623  0.7064  0.1223 -1.2050
   51MOL0     C 6607   1.625   8.039   0.661 -0.5218 -0.8726  1.3125
   51MOL0     O 6608   1.760   8.079   0.672  0.0779  0.2378 -0.2287
   51MOL0     C 6609   1.861   7.980   0.674  0.0594  0.2737 -1.1143
   51MOL0     C 6610   2.003   8.021   0.623 -0.1238  0.6362  0.8770
   51MOL0     C 6611   2.073   8.136   0.699 -0.8853 -0.4295 -0.0177
   51MOL0     C 6612   2.182   8.222   0.630 -0.6574  0.9211 -0.1595
   51MOL0     C 6613   2.162   8.371   0.622 -0.0280  0.0084  0.6014
   51MOL0     C 6614   2.249   8.438   0.510  0.4758 -0.4436  1.3765
   51MOL0     C 6615   2.400   8.405   0.528 -1.0496 -0.6824 -0.1923
   51MOL0     C 6616   2.460   8.461   0.657 -0.1668 -0.1016  0.4418
   51MOL0     N 6617   2.598   8.408   0.675  0.6994 -0.0011 -0.8116
   51MOL0     C 6618   2.713   8.440   0.612 -0.4654  0.2401 -0.4499
   51MOL0     C 6619   2.809   8.354   0.671  0.9921 -0.7974 -0.2699
   51MOL0     C 6620   2.952   8.356   0.630  0.4164  0.4227 -1.0110
   51MOL0     C 6621   3.047   8.327   0.752 -0.1548 -0.4653 -0.0607
   51MOL0     C 6622   3.179   8.399   0.741  0.9670  0.3568 -0.2800
   51MOL0     C 6623   3.302   8.327   0.798 -1.0649  0.4994  0.2685
   51MOL0     O 6624   3.410   8.405   0.745 -0.3802 -0.3495 -0.9888
   51MOL0     C 6625   3.530   8.338   0.741 -0.2746  0.2179 -0.7159
   51MOL0     C 6626   3.623   8.380   0.643 -0.3695 -0.8298  0.0015
   51MOL0     C 6627   3.758   8.331   0.646  0.2993  0.1734 -0.7913
   51MOL0     C 6628   3.792   8.235   0.743  0.4922 -0.4193 -0.4228
   51MOL0     C 6629   3.932   8.184   0.750 -0.2060 -0.3180  0.3369
   51MOL0     O 6630   4.021   8.234   0.656  0.3708 -1.3422  0.1140
   51MOL0     C 6631   4.157   8.249   0.683 -0.2212 -0.1463  0.0505
   51MOL0     C 6632   4.218   8.252   0.810  0.2691 -0.0747 -0.5209
   51MOL0     C 6633   4.358   8.275   0.837  0.1280 -0.4671  0.0131
   51MOL0     C 6634   4.447   8.272   0.735 -0.6147 -0.1570  0.3151
   51MOL0     O 6635   4.585   8.270   0.775 -0.3919 -0.5958  0.0850
   51MOL0     C 6636   4.682   8.202   0.683 -1.1927  0.0689  0.5018
   51MOL0     C 6637   4.810   8.196   0.745 -0.3027 -0.2123  0.2846
   51MOL0     C 6638   4.925   8.167   0.644  0.1023  0.3301 -0.7735
   51MOL0     C 6639   5.060   8.163   0.718  1.1742  0.6548  0.8542
   51MOL0     C 6640   5.080   8.031   0.780  0.8292  0.4401 -0.1475
   51MOL0     C 6641   5.206   8.009   0.856  0.4708 -0.5732 -1.0850
   51MOL0     C 6642   5.197   7.873   0.936 -0.5238  0.9649 -0.0087
   51MOL0     C 6643   5.313   7.773   0.906 -1.2282 -1.5488 -0.1952
   51MOL0    Cl 6644   5.271   7.665   0.757  0.0794  0.4040 -0.2485
   51MOL0     C 6645   4.390   8.260   0.604 -0.1740 -1.0162 -0.3177
   51MOL0     C 6646   4.258   8.257   0.579 -0.0554  1.2178 -0.8942
   51MOL0     O 6647   3.963   8.103   0.839  0.1573 -0.3793  0.9313
   51MOL0     C 6648   3.690   8.188   0.830 -0.9019  0.4774 -0.9960
   51MOL0     C 6649   3.562   8.240   0.826  0.4490  0.9571  0.7498
   51MOL0     N 6650   2.736   8.266   0.754  0.0217 -0.1762 -0.6385
   51MOL0     N 6651   2.620   8.308   0.765 -0.3630  0.1906 -0.2133
   51MOL0     C 6652   1.584   7.906   0.680  0.2335 -0.8093 -0.1723
   51MOL0     C 6653   1.449   7.872   0.679 -0.1992  0.4213  0.3750
   51MOL0     C 6654   1.013   7.942   0.773  0.0435  0.5187 -0.0976
   51MOL0     C 6655   0.953   8.003   0.665 -0.5517 -0.1893 -0.0860
   51MOL0     C 6656   0.813   8.018   0.662 -0.2560  0.1422  0.9285
   51MOL0     C 6657   0.733   7.978   0.765  0.3449 -0.4781 -0.7539
   51MOL0     O 6658   0.600   7.958   0.735 -0.6506  0.2039 -0.0654
   51MOL0     C 6659   0.497   8.022   0.807 -0.2098  0.2679  0.0203
   51MOL0     C 6660   0.350   7.981   0.779 -0.3169  0.2625  0.3563
   51MOL0     C 6661   0.244   8.085   0.809  0.1008 -0.8714  0.7251
   51MOL0     C 6662   0.215   8.094   0.956  0.5000 -0.5789  0.1825
   51MOL0     C 6663   0.131   7.986   0.998  0.7409  0.0054  0.0655
   51MOL0     C 6664   0.059   7.912   1.057  0.3731  0.3936 -0.1024
   51MOL0     C 6665   0.800   7.946   0.892 -0.5455  0.5447  0.5377
   51MOL0     C 6666   0.939   7.918   0.896  0.2684  1.0369 -0.4193
   51MOL0     H 6667   1.327   8.181   0.586 -0.8656 -0.7514  1.6390
   51MOL0     H 6668   1.559   8.238   0.590  3.4155 -0.5235 -1.6742
   51MOL0     H 6669   1.840   7.901   0.602  0.2933  0.5205 -1.4583
   51MOL0     H 6670   1.884   7.948   0.776 -0.3724  4.1888  0.3955
   51MOL0     H 6671   1.995   8.064   0.522 -4.0016  0.7354  1.0946
   51MOL0     H 6672   2.069   7.934   0.621 -1.5714 -0.5381 -1.5564
   51MOL0     H 6673   2.112   8.105   0.796 -0.5669 -1.7810 -0.5576
   51MOL0     H 6674   2.002   8.212   0.735  1.4977  1.4330  0.9895
   51MOL0     H 6675   2.272   8.198   0.688 -1.5193 -0.0221  0.8283
   51MOL0     H 6676   2.192   8.174   0.532 -1.3885  1.1803 -0.3663
   51MOL0     H 6677   2.182   8.416   0.720  3.0253  0.7194 -0.2195
   51MOL0     H 6678   2.055   8.389   0.610  0.0962  1.8493  1.7331
   51MOL0     H 6679   2.226   8.545   0.511  1.1072 -0.2309 -0.8893
   51MOL0     H 6680   2.216   8.396   0.414 -0.5799  0.5610  1.2685
   51MOL0     H 6681   2.417   8.298   0.516  1.9772 -0.2891 -0.2834
   51MOL0     H 6682   2.456   8.464   0.455  1.6174 -1.0592  1.3835
   51MOL0     H 6683   2.401   8.455   0.749  1.4887  0.4891  1.5724
   51MOL0     H 6684   2.462   8.570   0.645  1.4802 -0.1582  0.0622
   51MOL0     H 6685   2.731   8.522   0.544  0.1642 -1.2428 -2.1489
   51MOL0     H 6686   2.980   8.453   0.589  2.3175  0.7881  0.9608
   51MOL0     H 6687   2.965   8.271   0.562 -0.6784 -0.5787  0.0010
   51MOL0     H 6688   3.069   8.220   0.749 -0.6380 -0.5442 -1.2793
   51MOL0     H 6689   3.004   8.360   0.847  4.2481 -0.3336  2.1301
   51MOL0     H 6690   3.198   8.416   0.635 -0.1650  0.1008 -0.5388
   51MOL0     H 6691   3.171   8.493   0.796  3.2068 -0.8740  2.4399
   51MOL0     H 6692   3.301   8.222   0.768  0.6671  0.7734 -0.8944
   51MOL0     H 6693   3.307   8.331   0.907 -2.0356 -0.4611  0.3640
   51MOL0     H 6694   3.589   8.456   0.574 -2.8814 -1.0052  0.9611
   51MOL0     H 6695   3.837   8.363   0.578  3.0382 -1.3395  1.4470
   51MOL0     H 6696   4.159   8.235   0.900 -0.9330 -0.5281 -1.3749
   51MOL0     H 6697   4.388   8.272   0.941  0.4065 -0.6785 -0.0714
   51MOL0     H 6698   4.691   8.264   0.593 -1.3076  0.2338  0.6046
   51MOL0     H 6699   4.650   8.102   0.651 -1.5575  0.5786 -0.7772
   51MOL0     H 6700   4.807   8.129   0.832 -0.5999  2.0527  2.1367
   51MOL0     H 6701   4.837   8.295   0.783 -1.9427  0.0812  0.7532
   51MOL0     H 6702   4.922   8.251   0.575 -0.3715  0.8868 -0.0930
   51MOL0     H 6703   4.912   8.079   0.580 -0.0596  0.3304 -0.7424
   51MOL0     H 6704   5.132   8.181   0.638 -3.0807  3.1989 -2.8822
   51MOL0     H 6705   5.070   8.249   0.786 -4.0800  2.4130 -0.1478
   51MOL0     H 6706   5.076   7.959   0.698 -1.3969  1.5324 -1.0745
   51MOL0     H 6707   4.994   8.011   0.845  1.3596  0.9461  0.7305
   51MOL0     H 6708   5.213   8.092   0.927  1.0312 -0.9324 -0.7169
   51MOL0     H 6709   5.287   8.006   0.782 -0.0960  0.6249 -1.7912
   51MOL0     H 6710   5.187   7.894   1.043 -0.1405 -1.2134  0.4847
   51MOL0     H 6711   5.118   7.807   0.900 -0.8178  0.8092  0.9143
   51MOL0     H 6712   5.355   7.725   0.995 -0.0407 -0.9055 -0.3958
   51MOL0     H 6713   5.400   7.835   0.883 -0.9523 -0.3808  3.3684
   51MOL0     H 6714   4.459   8.239   0.523  2.0490  1.3404  0.8065
   51MOL0     H 6715   4.240   8.238   0.474  0.9304  0.4917 -0.9443
   51MOL0     H 6716   3.703   8.123   0.916 -0.9638 -0.3337 -1.5910
   51MOL0     H 6717   3.492   8.223   0.907 -0.2983  2.9792  0.5899
   51MOL0     H 6718   1.657   7.827   0.696 -0.4288 -1.5577 -0.7681
   51MOL0     H 6719   1.432   7.768   0.706 -2.8618  1.2342  2.2934
   51MOL0     H 6720   1.004   8.025   0.572 -0.0808  0.1964  0.2612
   51MOL0     H 6721   0.765   8.070   0.580 -1.2603 -1.6340  0.3311
   51MOL0     H 6722   0.513   8.127   0.781  1.8849 -0.4587 -1.9778
   51MOL0     H 6723   0.517   8.020   0.915  0.2627  1.3800 -0.0335
   51MOL0     H 6724   0.353   7.970   0.670 -1.4264 -2.2238  0.5211
   51MOL0     H 6725   0.328   7.882   0.821 -0.4810 -0.3713 -1.1559
   51MOL0     H 6726   0.154   8.054   0.756  0.0492  0.3574  0.0551
   51MOL0     H 6727   0.287   8.179   0.771  6.5233 -4.5450 -2.8978
   51MOL0     H 6728   0.301   8.080   1.021  0.8660 -0.8226 -0.3487
   51MOL0     H 6729   0.173   8.191   0.983 -2.3807 -1.6509 -0.0766
   51MOL0     H 6730  -0.014   7.855   1.112 -0.8541  3.1271  1.3451
   51MOL0     H 6731   0.728   7.923   0.970 -1.3782  0.2107 -0.3104
   51MOL0     H 6732   0.979   7.866   0.982 -0.5047 -2.1843 -1.8546
   52MOL0     O 6733   2.125   4.727   7.814  0.3353 -0.3935  0.4958
   52MOL0     C 6734   2.158   4.618   7.857  0.2217 -0.2530  0.3170
   52MOL0     O 6735   2.285   4.567   7.842  0.7210 -0.3547  0.2748
   52MOL0     C 6736   2.383   4.648   7.800  0.0081 -0.0076  0.7513
   52MOL0     C 6737   2.473   4.588   7.711 -0.0016  0.7080  0.4058
   52MOL0     C 6738   2.587   4.651   7.674 -1.2347 -0.0642  0.2462
   52MOL0     C 6739   2.618   4.778   7.708  0.4291 -0.3683 -0.8416
   52MOL0     O 6740   2.738   4.835   7.662 -0.6506 -0.5893 -0.0546
   52MOL0     C 6741   2.765   4.973   7.704 -0.5004  0.3638  0.0138
   52MOL0     C 6742   2.898   5.000   7.657  0.1612  0.3300  0.4299
   52MOL0     C 6743   2.967   5.117   7.724 -0.3626 -0.4226 -0.0355
   52MOL0     C 6744   3.116   5.107   7.698 -0.4788  0.0486 -0.2641
   52MOL0     C 6745   3.201   5.227   7.758  0.2177 -1.1637  0.5774
   52MOL0     C 6746   3.353   5.215   7.726 -0.2945  0.5658  0.1025
   52MOL0     C 6747   3.430   5.187   7.859  0.3502 -0.5809 -0.4847
   52MOL0     C 6748   3.575   5.151   7.823 -0.2028 -0.4727  0.2101
   52MOL0     N 6749   3.654   5.100   7.941 -0.2911 -0.3916 -0.3997
   52MOL0     C 6750   3.660   4.968   7.976 -0.2196  0.1632 -0.1011
   52MOL0     C 6751   3.754   4.954   8.068  1.1378  0.5557 -0.3300
   52MOL0     C 6752   3.806   4.828   8.131  0.8564 -0.8105 -0.8793
   52MOL0     C 6753   3.922   4.871   8.228 -0.6500 -0.0976  0.0890
   52MOL0     C 6754   4.026   4.754   8.262 -0.0709 -0.5249 -0.3481
   52MOL0     C 6755   4.078   4.694   8.140  0.0175  0.3309  0.2532
   52MOL0     O 6756   4.189   4.598   8.146  0.1339 -0.2554 -0.4637
   52MOL0     C 6757   4.314   4.638   8.170  0.1603 -0.5290 -0.4598
   52MOL0     C 6758   4.411   4.533   8.160  0.0337  0.3528  0.2151
   52MOL0     C 6759   4.540   4.556   8.214 -0.1377 -0.0416 -0.6534
   52MOL0     C 6760   4.571   4.675   8.268  0.0742  0.5377 -0.7044
   52MOL0     C 6761   4.708   4.686   8.326 -0.7002 -0.0582  0.3125
   52MOL0     O 6762   4.793   4.587   8.301  0.1714 -0.0087  0.1738
   52MOL0     C 6763   4.920   4.612   8.355 -0.9605 -0.1558  0.7717
   52MOL0     C 6764   4.970   4.524   8.449  0.7508  1.1830  0.3655
   52MOL0     C 6765   5.091   4.544   8.518 -0.3696  0.0115  1.4327
   52MOL0     C 6766   5.174   4.654   8.473  0.7885  0.0972  0.9520
   52MOL0     O 6767   5.290   4.677   8.531 -0.6020  0.0911  0.5628
   52MOL0     C 6768   5.407   4.646   8.464  0.3145 -0.2518 -0.6026
   52MOL0     C 6769   5.512   4.768   8.462  0.5107  0.2844  0.4838
   52MOL0     C 6770   5.442   4.902   8.503 -0.8102 -0.0510  0.3089
   52MOL0     C 6771   5.531   5.029   8.477 -0.0794  0.3493  0.3424
   52MOL0     C 6772   5.650   5.026   8.579 -0.0017  0.5361 -0.0250
   52MOL0     C 6773   5.715   5.159   8.588 -0.7466 -0.8261 -0.3834
   52MOL0     C 6774   5.847   5.158   8.654 -0.1355 -0.2613  0.2887
   52MOL0     C 6775   5.894   5.307   8.688  0.6465  1.0157 -0.4467
   52MOL0    Cl 6776   6.060   5.296   8.766  0.4262 -0.4496  0.1491
   52MOL0     C 6777   5.136   4.728   8.361  0.2970 -1.3874 -0.2233
   52MOL0     C 6778   5.007   4.718   8.310  0.1630 -0.2444 -1.0299
   52MOL0     O 6779   4.736   4.787   8.390 -0.0412 -0.0636 -0.0980
   52MOL0     C 6780   4.480   4.783   8.262 -0.5777  0.2164 -0.3580
   52MOL0     C 6781   4.353   4.764   8.217 -0.1264 -0.0925  0.1514
   52MOL0     N 6782   3.786   5.087   8.101 -0.2532 -0.0873  0.6238
   52MOL0     N 6783   3.727   5.170   8.027  0.3796  0.1721  0.0559
   52MOL0     C 6784   2.551   4.829   7.823 -0.4371  0.4266  0.3131
   52MOL0     C 6785   2.432   4.765   7.861 -0.3969 -0.4064  0.2381
   52MOL0     C 6786   2.055   4.538   7.928 -0.0727 -0.9528 -0.7114
   52MOL0     C 6787   1.913   4.554   7.899 -0.1885 -0.8404 -0.1979
   52MOL0     C 6788   1.819   4.474   7.951  0.7855  0.5996 -0.8278
   52MOL0     C 6789   1.853   4.367   8.036 -1.5599  0.8028 -0.3709
   52MOL0     O 6790   1.763   4.276   8.093  0.2306 -0.4824 -0.2634
   52MOL0     C 6791   1.633   4.336   8.124 -0.2538  0.0318 -0.5412
   52MOL0     C 6792   1.548   4.287   8.020 -0.4180 -0.1109 -0.1771
   52MOL0     C 6793   1.528   4.137   8.018  0.0367 -0.0453  0.7884
   52MOL0     C 6794   1.444   4.105   7.888 -0.2247  0.4069 -0.6600
   52MOL0     C 6795   1.441   3.965   7.872  0.8172 -0.1350 -0.8153
   52MOL0     C 6796   1.423   3.849   7.871  0.0789 -0.1573 -1.0242
   52MOL0     C 6797   1.985   4.364   8.085 -0.3795  0.4939  0.7360
   52MOL0     C 6798   2.086   4.440   8.028 -0.0929 -0.6560  0.1942
   52MOL0     H 6799   2.451   4.489   7.671  0.6861  1.1754 -1.2096
   52MOL0     H 6800   2.658   4.596   7.613 -3.7270 -3.8482  0.4364
   52MOL0     H 6801   2.765   4.975   7.814  0.0858  1.3188  0.0041
   52MOL0     H 6802   2.689   5.049   7.683  2.4867  4.0443  1.3930
   52MOL0     H 6803   2.886   5.018   7.549 -3.7339 -1.9578  0.3266
   52MOL0     H 6804   2.955   4.907   7.664 -1.4025 -0.7013 -0.1051
   52MOL0     H 6805   2.952   5.128   7.832  0.5039 -0.1452  0.0624
   52MOL0     H 6806   2.926   5.206   7.675 -2.6561 -1.7028 -0.6147
   52MOL0     H 6807   3.145   5.020   7.758 -0.1378 -0.2338 -0.8299
   52MOL0     H 6808   3.124   5.086   7.591 -1.5106  1.9769 -0.7720
   52MOL0     H 6809   3.192   5.230   7.867 -0.3757 -1.0491  0.5269
   52MOL0     H 6810   3.164   5.322   7.718  2.7038  0.0094  0.8751
   52MOL0     H 6811   3.385   5.310   7.683 -1.0847  0.5378 -0.5689
   52MOL0     H 6812   3.368   5.129   7.659 -0.5508 -1.8186  2.8922
   52MOL0     H 6813   3.430   5.274   7.925  1.8963 -2.2941  1.9222
   52MOL0     H 6814   3.380   5.107   7.916  0.7829 -0.9263 -0.5834
   52MOL0     H 6815   3.621   5.248   7.803 -3.2691  0.6912 -1.9853
   52MOL0     H 6816   3.584   5.077   7.743  1.8513 -0.2227  0.1515
   52MOL0     H 6817   3.608   4.890   7.921  0.2225  1.7149 -2.9090
   52MOL0     H 6818   3.841   4.766   8.048 -1.7222  0.3922 -3.0201
   52MOL0     H 6819   3.733   4.774   8.192  1.8029  1.2105  2.3144
   52MOL0     H 6820   3.886   4.910   8.324 -0.6262  1.1824 -0.4061
   52MOL0     H 6821   3.968   4.962   8.189 -2.3675  0.5747 -0.4639
   52MOL0     H 6822   4.101   4.803   8.325  0.0499  0.2517 -1.0744
   52MOL0     H 6823   3.996   4.683   8.339 -0.9873  3.5751  3.5169
   52MOL0     H 6824   4.097   4.768   8.062 -0.7289 -0.9433 -1.1919
   52MOL0     H 6825   4.002   4.624   8.104  2.1295 -1.4328 -1.0197
   52MOL0     H 6826   4.384   4.430   8.136 -1.9379  1.1467 -1.1948
   52MOL0     H 6827   4.605   4.471   8.227  1.1791  1.0806  0.4097
   52MOL0     H 6828   4.930   4.425   8.470  1.4339  0.5943 -0.9771
   52MOL0     H 6829   5.121   4.479   8.599  1.5709 -2.3162 -1.0031
   52MOL0     H 6830   5.393   4.595   8.368  1.3248 -1.2848 -0.2303
   52MOL0     H 6831   5.451   4.569   8.529 -2.3443 -1.3117  0.0912
   52MOL0     H 6832   5.568   4.776   8.369 -0.2037  1.0998  0.1164
   52MOL0     H 6833   5.576   4.754   8.550 -1.3314 -0.0427  1.8314
   52MOL0     H 6834   5.412   4.908   8.608 -0.9785  2.2888  0.1964
   52MOL0     H 6835   5.350   4.914   8.445 -0.1038 -1.0476 -1.0559
   52MOL0     H 6836   5.572   5.022   8.376 -4.4403  0.8262 -1.6611
   52MOL0     H 6837   5.482   5.125   8.492  0.6325  0.3816  2.9814
   52MOL0     H 6838   5.722   4.948   8.553  0.5082  1.1861 -0.6361
   52MOL0     H 6839   5.602   5.006   8.674 -1.7483 -1.3725 -1.2335
   52MOL0     H 6840   5.648   5.226   8.644 -0.4200 -0.6061 -0.2563
   52MOL0     H 6841   5.719   5.201   8.487 -3.8796  3.3787  0.9336
   52MOL0     H 6842   5.840   5.098   8.745 -0.7634 -0.4010  0.1485
   52MOL0     H 6843   5.926   5.120   8.587 -0.0212  2.6775 -1.4225
   52MOL0     H 6844   5.824   5.370   8.743 -0.1001 -1.4926  1.6870
   52MOL0     H 6845   5.896   5.369   8.597 -2.3407  0.5302 -0.9338
   52MOL0     H 6846   5.201   4.811   8.337 -0.6582  0.3127  2.5371
   52MOL0     H 6847   4.957   4.779   8.235 -1.8575 -0.7243 -0.1273
   52MOL0     H 6848   4.511   4.879   8.304 -1.5075  1.2549 -1.9524
   52MOL0     H 6849   4.284   4.847   8.206 -0.3690  0.0124  2.0771
   52MOL0     H 6850   2.589   4.910   7.884  3.5813 -0.1495 -1.1047
   52MOL0     H 6851   2.363   4.802   7.936 -1.4038 -0.7328 -0.4977
   52MOL0     H 6852   1.876   4.624   7.825 -0.2637  0.4567  1.0238
   52MOL0     H 6853   1.715   4.490   7.926  0.5502  0.9370  0.3161
   52MOL0     H 6854   1.637   4.445   8.138 -0.2239  0.1942 -1.6580
   52MOL0     H 6855   1.605   4.303   8.224  2.6009 -3.2686 -0.6273
   52MOL0     H 6856   1.452   4.337   8.038  0.6524  2.0318 -0.0843
   52MOL0     H 6857   1.573   4.321   7.919  1.7395 -0.6465  0.1377
   52MOL0     H 6858   1.471   4.088   8.097 -1.0794 -0.5960 -0.3129
   52MOL0     H 6859   1.627   4.092   8.026 -0.1285 -0.6201 -0.2142
   52MOL0     H 6860   1.339   4.136   7.883 -0.0106  1.2336 -0.1909
   52MOL0     H 6861   1.497   4.154   7.806 -2.7380  1.2467 -1.8839
   52MOL0     H 6862   1.425   3.742   7.872 -1.3928 -0.1910 -0.7354
   52MOL0     H 6863   2.024   4.299   8.163  0.7342  1.8979  1.3849
   52MOL0     H 6864   2.188   4.420   8.056 -0.0664 -3.1787 -1.4486
   53MOL0     O 6865   9.969   0.390   6.258  0.3273  0.8377  0.3335
   53MOL0     C 6866  10.005   0.308   6.340 -0.7334  0.1449  0.4866
   53MOL0     O 6867   9.951   0.283   6.462 -0.6337 -0.4414 -0.0049
   53MOL0     C 6868   9.843   0.362   6.496 -0.4142  0.3630 -0.2740
   53MOL0     C 6869   9.850   0.437   6.614  1.1373  0.0213  0.0277
   53MOL0     C 6870   9.747   0.523   6.649  0.5643  0.2788  0.6306
   53MOL0     C 6871   9.627   0.522   6.570  0.6772  0.5846 -0.4414
   53MOL0     O 6872   9.521   0.600   6.624 -0.7942 -0.3841  0.2356
   53MOL0     C 6873   9.390   0.569   6.589  0.2096  0.2022  0.5446
   53MOL0     C 6874   9.308   0.606   6.706  1.3587 -0.2443 -0.3067
   53MOL0     C 6875   9.180   0.514   6.706 -0.3980 -0.4033 -0.6775
   53MOL0     C 6876   9.105   0.519   6.846  0.0927  0.1913  0.4302
   53MOL0     C 6877   8.965   0.454   6.833 -0.4311 -0.4170  0.3909
   53MOL0     C 6878   8.945   0.324   6.752  0.6618 -0.7947 -0.0801
   53MOL0     C 6879   8.804   0.274   6.783 -0.6355  0.2390  0.9405
   53MOL0     C 6880   8.793   0.119   6.789 -0.4402  0.2713  0.4837
   53MOL0     N 6881   8.669   0.058   6.745 -0.1292  0.5704 -0.4428
   53MOL0     C 6882   8.595  -0.028   6.829 -0.4329 -0.0736 -0.2333
   53MOL0     C 6883   8.497  -0.068   6.746 -0.2983  0.7740 -0.6685
   53MOL0     C 6884   8.383  -0.154   6.799 -0.6657  0.6452 -0.3876
   53MOL0     C 6885   8.330  -0.113   6.939  0.2976  0.3111 -0.7547
   53MOL0     C 6886   8.210  -0.193   6.974  1.2957  0.6522 -1.4036
   53MOL0     C 6887   8.082  -0.147   6.900  0.1992  1.5786 -1.0757
   53MOL0     O 6888   7.970  -0.204   6.963 -0.3359 -0.0986  0.5324
   53MOL0     C 6889   7.848  -0.182   6.897 -0.8445  0.4347  0.3240
   53MOL0     C 6890   7.736  -0.260   6.936  0.2665 -0.4284 -0.6337
   53MOL0     C 6891   7.612  -0.245   6.866  0.2004  0.3032  0.2584
   53MOL0     C 6892   7.599  -0.146   6.759  0.2519  0.8773  0.6708
   53MOL0     C 6893   7.470  -0.134   6.688  0.2959 -0.8564 -0.4008
   53MOL0     O 6894   7.352  -0.191   6.742 -0.5968  0.5085 -0.3296
   53MOL0     C 6895   7.225  -0.197   6.682  0.2363 -0.6119 -0.9347
   53MOL0     C 6896   7.200  -0.153   6.551  0.1443 -0.3143 -0.9078
   53MOL0     C 6897   7.070  -0.137   6.510 -0.4349  0.1749  0.4026
   53MOL0     C 6898   6.963  -0.181   6.582 -0.1488 -0.0588 -0.1997
   53MOL0     O 6899   6.846  -0.144   6.547  0.2579 -0.1783 -0.1043
   53MOL0     C 6900   6.734  -0.201   6.607  0.3550  1.1856 -0.8461
   53MOL0     C 6901   6.609  -0.149   6.531 -0.4047  0.4775  0.3294
   53MOL0     C 6902   6.598  -0.171   6.380  0.0672  0.0922 -0.9307
   53MOL0     C 6903   6.494  -0.077   6.315  0.3109 -0.1568 -0.0647
   53MOL0     C 6904   6.490  -0.103   6.161  0.0983 -0.3171  0.0366
   53MOL0     C 6905   6.375  -0.033   6.092  0.2119 -0.4533  0.2272
   53MOL0     C 6906   6.368  -0.084   5.950 -0.0493  0.4730 -1.3084
   53MOL0     C 6907   6.290   0.001   5.849  0.9753 -0.2649  0.1950
   53MOL0    Cl 6908   6.251  -0.104   5.710 -0.1557  0.0293  0.1492
   53MOL0     C 6909   6.994  -0.241   6.713 -0.4758 -0.1129 -0.0094
   53MOL0     C 6910   7.126  -0.238   6.764  1.2711 -0.8219  0.4083
   53MOL0     O 6911   7.472  -0.066   6.586  0.2272 -0.3169  0.3900
   53MOL0     C 6912   7.709  -0.068   6.725  0.7898 -0.0586  0.9503
   53MOL0     C 6913   7.832  -0.085   6.790  0.3072  0.1682  0.1601
   53MOL0     N 6914   8.516  -0.017   6.616  0.0163 -0.6670  0.0289
   53MOL0     N 6915   8.619   0.064   6.621 -0.1505 -0.5600 -0.3418
   53MOL0     C 6916   9.617   0.441   6.458  1.2142 -0.3108  0.8069
   53MOL0     C 6917   9.721   0.354   6.421 -0.2433 -0.0443  0.1151
   53MOL0     C 6918  10.119   0.221   6.290  0.3097  0.4918  0.7463
   53MOL0     C 6919  10.144   0.095   6.347  0.7272 -0.4135  0.4386
   53MOL0     C 6920  10.253   0.020   6.328  0.4423 -0.3909  0.4133
   53MOL0     C 6921  10.349   0.069   6.234 -0.6606 -0.5707 -0.9048
   53MOL0     O 6922  10.475   0.020   6.210 -0.3595 -0.3239  0.0760
   53MOL0     C 6923  10.498  -0.111   6.271  0.7711 -1.1968 -0.2721
   53MOL0     C 6924  10.629  -0.167   6.214 -0.1569 -0.6259  0.0615
   53MOL0     C 6925  10.706  -0.240   6.330  0.4163  0.1604 -0.2827
   53MOL0     C 6926  10.618  -0.358   6.391  0.4477 -0.5070  0.8001
   53MOL0     C 6927  10.601  -0.454   6.289  0.4029  0.3027  0.4364
   53MOL0     C 6928  10.569  -0.511   6.183 -0.7599  0.1163 -0.9789
   53MOL0     C 6929  10.318   0.176   6.151  1.0150  0.3219 -0.0230
   53MOL0     C 6930  10.196   0.246   6.176 -0.1020  0.2017 -0.7456
   53MOL0     H 6931   9.935   0.445   6.681 -0.8808  2.5926  2.5584
   53MOL0     H 6932   9.765   0.576   6.742 -0.6345 -1.8953  2.2088
   53MOL0     H 6933   9.377   0.462   6.569 -0.0177  0.7937 -3.0033
   53MOL0     H 6934   9.362   0.623   6.499  0.5760 -1.4992 -0.6504
   53MOL0     H 6935   9.295   0.714   6.712  4.5504  0.3164 -1.4442
   53MOL0     H 6936   9.360   0.583   6.800  3.2584  0.3061 -1.1753
   53MOL0     H 6937   9.197   0.411   6.675 -0.6875 -0.0777 -1.9843
   53MOL0     H 6938   9.119   0.555   6.624 -2.2496 -0.6925  0.4900
   53MOL0     H 6939   9.168   0.472   6.922 -1.4288  0.4628  1.9132
   53MOL0     H 6940   9.096   0.627   6.863  1.3561  1.1504 -3.8021
   53MOL0     H 6941   8.890   0.530   6.807 -0.7594  0.1542  2.7706
   53MOL0     H 6942   8.923   0.441   6.933 -0.0982 -0.8985  0.4731
   53MOL0     H 6943   9.021   0.255   6.789 -0.0630 -0.6493  1.8103
   53MOL0     H 6944   8.961   0.327   6.644  2.2355 -3.1014  0.0078
   53MOL0     H 6945   8.753   0.327   6.863  0.1390  2.7401 -0.1422
   53MOL0     H 6946   8.746   0.291   6.692  0.9954 -0.2646 -0.2309
   53MOL0     H 6947   8.797   0.085   6.893 -0.1567  0.4267  0.5253
   53MOL0     H 6948   8.873   0.081   6.725  0.9076 -0.0978  2.3082
   53MOL0     H 6949   8.610  -0.045   6.935 -1.5639  0.9486  0.1073
   53MOL0     H 6950   8.412  -0.260   6.798 -2.9720 -0.0535  0.4901
   53MOL0     H 6951   8.298  -0.144   6.731 -1.6022  0.7951  0.7729
   53MOL0     H 6952   8.301  -0.008   6.945  2.5631  0.8940  2.4783
   53MOL0     H 6953   8.406  -0.135   7.015 -2.5450 -1.3131  1.8700
   53MOL0     H 6954   8.219  -0.301   6.962  0.0090  0.6445 -2.4281
   53MOL0     H 6955   8.189  -0.177   7.081 -2.6114 -2.1303 -1.5694
   53MOL0     H 6956   8.080  -0.174   6.794 -1.2776  1.5040 -1.0590
   53MOL0     H 6957   8.079  -0.039   6.919  2.7337  1.9847 -2.5349
   53MOL0     H 6958   7.756  -0.313   7.029  4.1717  0.7496 -0.6065
   53MOL0     H 6959   7.523  -0.299   6.898  0.7491 -0.3031  0.7815
   53MOL0     H 6960   7.274  -0.128   6.477 -0.1914  2.6910 -0.3277
   53MOL0     H 6961   7.054  -0.089   6.414 -0.6711  0.7485  0.7283
   53MOL0     H 6962   6.726  -0.187   6.715  0.7319 -0.5334 -0.5710
   53MOL0     H 6963   6.734  -0.308   6.588 -0.0543  0.6682  1.6641
   53MOL0     H 6964   6.595  -0.045   6.561  0.3113  0.1842  1.7551
   53MOL0     H 6965   6.518  -0.187   6.577 -2.2768  1.2113 -2.5194
   53MOL0     H 6966   6.572  -0.277   6.371 -0.5817 -0.2504  3.1350
   53MOL0     H 6967   6.696  -0.145   6.338  1.4306 -1.4073  1.1278
   53MOL0     H 6968   6.393  -0.085   6.357 -0.7689  2.4951 -1.8065
   53MOL0     H 6969   6.525   0.028   6.321  1.0866 -0.3658 -0.2868
   53MOL0     H 6970   6.469  -0.207   6.135  1.7447 -0.6254 -0.1535
   53MOL0     H 6971   6.586  -0.078   6.115  1.1712 -3.2260  0.5183
   53MOL0     H 6972   6.394   0.074   6.103 -0.8312 -0.0968 -1.1666
   53MOL0     H 6973   6.276  -0.061   6.130  1.1333 -4.8291 -0.0437
   53MOL0     H 6974   6.469  -0.112   5.918 -0.2847 -0.8123 -1.0201
   53MOL0     H 6975   6.307  -0.175   5.948 -1.3695  1.2486  0.6540
   53MOL0     H 6976   6.354   0.079   5.808  0.1491 -1.7731 -4.5359
   53MOL0     H 6977   6.199   0.043   5.894  1.3311  1.7200 -0.8657
   53MOL0     H 6978   6.919  -0.296   6.768 -1.6282 -1.5860 -2.8786
   53MOL0     H 6979   7.159  -0.255   6.866  2.3185  1.6634  0.5501
   53MOL0     H 6980   7.711   0.008   6.647 -0.7724 -1.9099 -1.0235
   53MOL0     H 6981   7.908  -0.023   6.745 -0.8456  0.6143 -1.2523
   53MOL0     H 6982   9.520   0.454   6.410  0.2556 -1.2816  2.3846
   53MOL0     H 6983   9.715   0.288   6.335  1.1754  3.1139 -2.6279
   53MOL0     H 6984  10.068   0.056   6.414 -1.5241 -0.0328 -1.7487
   53MOL0     H 6985  10.270  -0.074   6.380 -0.6024 -0.3824  0.7928
   53MOL0     H 6986  10.422  -0.188   6.252 -0.3550  0.8990 -6.3328
   53MOL0     H 6987  10.514  -0.083   6.376  0.3038 -1.0273 -0.2405
   53MOL0     H 6988  10.608  -0.226   6.125 -0.0615 -3.7047  1.9612
   53MOL0     H 6989  10.693  -0.079   6.198  1.2215 -1.4442  0.8664
   53MOL0     H 6990  10.735  -0.160   6.399 -2.8520  1.5710 -0.3544
   53MOL0     H 6991  10.795  -0.287   6.288 -0.1504 -0.5697 -0.6798
   53MOL0     H 6992  10.677  -0.403   6.472  2.3760  0.9249  0.2566
   53MOL0     H 6993  10.521  -0.320   6.426 -0.1911 -0.2636 -1.1058
   53MOL0     H 6994  10.547  -0.548   6.085  2.7071  0.3272 -1.9507
   53MOL0     H 6995  10.386   0.199   6.069  0.7854  4.0204  0.6695
   53MOL0     H 6996  10.172   0.326   6.106  1.1029  1.2047 -0.0676
   54MOL0     O 6997   4.430   0.441   5.305  0.1405  0.5080  0.6786
   54MOL0     C 6998   4.463   0.371   5.398 -0.0881 -0.2424 -0.0161
   54MOL0     O 6999   4.507   0.241   5.387  0.4356 -0.6331 -0.1666
   54MOL0     C 7000   4.591   0.217   5.284  0.7390  0.2626  0.6952
   54MOL0     C 7001   4.713   0.276   5.272  0.0308  0.2219  0.0576
   54MOL0     C 7002   4.799   0.239   5.165 -0.0188 -0.8481  0.5177
   54MOL0     C 7003   4.763   0.153   5.060  0.2653  0.0487 -0.3888
   54MOL0     O 7004   4.838   0.122   4.945  0.6813  0.6252 -0.0587
   54MOL0     C 7005   4.971   0.156   4.950 -0.4727  0.0891  0.0344
   54MOL0     C 7006   4.995   0.302   4.905  0.2658 -0.6851  0.0031
   54MOL0     C 7007   4.983   0.329   4.752  0.1165  0.1744  0.8360
   54MOL0     C 7008   5.033   0.467   4.719  1.0584 -0.6133  0.1842
   54MOL0     C 7009   5.021   0.521   4.579  0.1733  0.0848 -0.1357
   54MOL0     C 7010   5.083   0.437   4.465  0.0097  0.2227 -1.2030
   54MOL0     C 7011   5.109   0.518   4.338  0.3459 -1.0457  0.3651
   54MOL0     C 7012   5.131   0.423   4.220 -0.3471  0.2429  0.0782
   54MOL0     N 7013   5.283   0.406   4.184  0.7621  0.3305  0.6286
   54MOL0     C 7014   5.364   0.489   4.110 -0.0550 -0.3264  0.0336
   54MOL0     C 7015   5.488   0.431   4.088 -0.0509  0.5468  0.0842
   54MOL0     C 7016   5.589   0.493   4.007 -0.5530 -0.3400  0.4389
   54MOL0     C 7017   5.601   0.435   3.870 -0.8973 -0.9457  0.2530
   54MOL0     C 7018   5.750   0.431   3.813  0.1561  0.8681 -0.5511
   54MOL0     C 7019   5.840   0.349   3.910  0.0857  0.2355  0.2020
   54MOL0     O 7020   5.937   0.282   3.835  0.2267  0.3582  1.3123
   54MOL0     C 7021   6.030   0.358   3.759 -0.0666  0.4604 -0.8098
   54MOL0     C 7022   6.060   0.491   3.767  1.5454  0.3242 -0.2545
   54MOL0     C 7023   6.146   0.548   3.678 -0.6314  0.6245  0.8551
   54MOL0     C 7024   6.213   0.463   3.585  0.4536  0.2729 -0.3799
   54MOL0     C 7025   6.311   0.524   3.483  0.9672  0.0382 -0.2483
   54MOL0     O 7026   6.322   0.657   3.477 -0.5669 -0.2280 -0.4060
   54MOL0     C 7027   6.404   0.726   3.383  0.0187 -0.2423  0.3855
   54MOL0     C 7028   6.361   0.848   3.321  0.2703  0.5601 -0.6757
   54MOL0     C 7029   6.437   0.913   3.220  0.0684  0.4368 -0.1402
   54MOL0     C 7030   6.567   0.860   3.189 -0.2791 -0.2262 -0.0788
   54MOL0     O 7031   6.642   0.943   3.108  0.4029  0.0239 -0.5230
   54MOL0     C 7032   6.779   0.917   3.074  0.1298  0.1285 -0.7770
   54MOL0     C 7033   6.833   1.017   2.975  0.6463 -0.3325 -0.1177
   54MOL0     C 7034   6.979   0.973   2.941  0.2458 -0.3249  0.0624
   54MOL0     C 7035   7.046   1.046   2.824 -0.4159 -0.5018 -0.3708
   54MOL0     C 7036   6.956   1.043   2.703  0.0553  0.2142 -0.0913
   54MOL0     C 7037   7.037   1.077   2.577  0.4568 -0.6216  0.2367
   54MOL0     C 7038   6.945   1.098   2.454 -0.0875 -0.7279  0.2345
   54MOL0     C 7039   7.039   1.165   2.349  0.4847 -0.0915  0.4796
   54MOL0    Cl 7040   6.956   1.192   2.186 -0.2881  0.4364 -0.3780
   54MOL0     C 7041   6.618   0.745   3.250 -0.0164  0.1216 -0.1369
   54MOL0     C 7042   6.535   0.686   3.348 -0.8782  0.1380 -0.4315
   54MOL0     O 7043   6.354   0.448   3.400 -1.3888  0.3545  0.3605
   54MOL0     C 7044   6.200   0.323   3.595  0.4885  1.4803  0.0099
   54MOL0     C 7045   6.106   0.272   3.686  0.5196  1.0885  0.2758
   54MOL0     N 7046   5.477   0.301   4.132  0.0524 -0.6002 -0.3845
   54MOL0     N 7047   5.357   0.289   4.190 -0.2207 -0.2020 -0.1675
   54MOL0     C 7048   4.638   0.097   5.070  0.7986  0.4014  0.4196
   54MOL0     C 7049   4.554   0.120   5.185 -0.8661  0.4137  0.3518
   54MOL0     C 7050   4.424   0.416   5.534 -0.4945  0.4648  0.0820
   54MOL0     C 7051   4.469   0.545   5.581 -0.1709  0.1964  0.3547
   54MOL0     C 7052   4.432   0.601   5.705 -0.1810  0.3234  0.5637
   54MOL0     C 7053   4.364   0.526   5.792 -0.1742  0.4528 -0.1678
   54MOL0     O 7054   4.328   0.585   5.909 -0.1521 -0.0267 -0.0815
   54MOL0     C 7055   4.298   0.497   6.025 -0.6262 -0.3707  0.1842
   54MOL0     C 7056   4.294   0.585   6.152 -0.6980  0.0434 -0.2741
   54MOL0     C 7057   4.269   0.492   6.275 -0.3108 -0.0815 -0.5140
   54MOL0     C 7058   4.255   0.558   6.416 -0.2799  0.5793  0.2954
   54MOL0     C 7059   4.380   0.572   6.494 -0.5399  0.5608  0.1703
   54MOL0     C 7060   4.477   0.592   6.574 -0.7167  0.3547  0.0491
   54MOL0     C 7061   4.322   0.394   5.755 -0.4742 -0.6279  0.1245
   54MOL0     C 7062   4.358   0.334   5.624 -0.0724 -0.0791 -0.7814
   54MOL0     H 7063   4.751   0.360   5.329  2.5612 -0.1748 -0.9120
   54MOL0     H 7064   4.885   0.306   5.163 -1.2843  0.8691 -1.7759
   54MOL0     H 7065   5.019   0.092   4.874  0.7833  0.3334  0.5862
   54MOL0     H 7066   5.022   0.132   5.044  1.2849  2.8414 -0.0891
   54MOL0     H 7067   5.089   0.346   4.940  0.9380 -1.1120 -1.2297
   54MOL0     H 7068   4.911   0.353   4.954 -0.1042 -2.6006  1.4764
   54MOL0     H 7069   4.883   0.322   4.707  0.6783 -2.2562 -0.2066
   54MOL0     H 7070   5.042   0.252   4.701 -1.3528 -0.0914 -0.5676
   54MOL0     H 7071   4.977   0.536   4.783  2.2150  0.5869 -0.0750
   54MOL0     H 7072   5.138   0.465   4.750  0.8854 -0.4450  0.8035
   54MOL0     H 7073   5.061   0.623   4.580 -2.2098  1.1225 -1.7599
   54MOL0     H 7074   4.915   0.534   4.557  0.1896  0.7878  0.1554
   54MOL0     H 7075   5.018   0.351   4.443  0.6026 -0.1446 -1.5697
   54MOL0     H 7076   5.177   0.394   4.502  0.0216  1.6259  0.4831
   54MOL0     H 7077   5.020   0.575   4.310  1.0196  0.2045  0.6626
   54MOL0     H 7078   5.196   0.584   4.349 -0.0688  0.0441 -2.1009
   54MOL0     H 7079   5.092   0.477   4.134  2.1982  2.1304 -0.0099
   54MOL0     H 7080   5.071   0.334   4.240  1.0180 -0.5632  0.6965
   54MOL0     H 7081   5.332   0.587   4.074 -0.2361 -0.5886 -0.5363
   54MOL0     H 7082   5.683   0.472   4.060  1.2562  0.9305 -2.0285
   54MOL0     H 7083   5.591   0.602   4.000  0.8325 -0.1768  2.4780
   54MOL0     H 7084   5.559   0.508   3.800 -0.4037 -1.8320 -0.9833
   54MOL0     H 7085   5.543   0.343   3.866 -3.5353  0.6006  0.1893
   54MOL0     H 7086   5.752   0.391   3.711 -0.1185 -0.2090 -0.1464
   54MOL0     H 7087   5.776   0.536   3.799 -0.7256  1.1631 -0.0308
   54MOL0     H 7088   5.784   0.276   3.968  0.8245 -0.5409 -0.0419
   54MOL0     H 7089   5.888   0.410   3.987 -1.5219 -1.3539  2.6092
   54MOL0     H 7090   6.009   0.555   3.839  1.9387  1.8655 -1.2887
   54MOL0     H 7091   6.143   0.657   3.679  0.8492  0.6787  1.6419
   54MOL0     H 7092   6.266   0.890   3.352  0.4756 -0.8534  2.1822
   54MOL0     H 7093   6.404   0.998   3.161  0.3642 -1.5827 -3.4771
   54MOL0     H 7094   6.791   0.817   3.031 -3.1395 -0.7814  0.2270
   54MOL0     H 7095   6.835   0.923   3.167 -2.4248 -3.1103  1.1540
   54MOL0     H 7096   6.828   1.124   2.999  0.3781  1.2284 -5.6559
   54MOL0     H 7097   6.769   1.013   2.887 -0.5506 -3.2016  0.7665
   54MOL0     H 7098   6.974   0.868   2.911 -4.2772 -0.3019  0.0435
   54MOL0     H 7099   7.037   0.985   3.033 -0.3366  1.6760  0.2099
   54MOL0     H 7100   7.066   1.151   2.850 -1.1016  0.1781 -2.3919
   54MOL0     H 7101   7.143   0.998   2.805 -0.9927 -1.5262 -0.7758
   54MOL0     H 7102   6.879   1.119   2.717  1.7520  2.0419 -0.2791
   54MOL0     H 7103   6.917   0.941   2.708  4.4341 -1.5996  3.5041
   54MOL0     H 7104   7.109   0.997   2.558  1.8973  0.3042  1.5205
   54MOL0     H 7105   7.088   1.173   2.589 -2.4866  0.9159  1.4247
   54MOL0     H 7106   6.914   1.008   2.400  0.8437  0.2161 -1.9881
   54MOL0     H 7107   6.860   1.159   2.485  1.9564  3.1642 -1.1567
   54MOL0     H 7108   7.126   1.101   2.333 -2.0676 -3.5098 -0.9571
   54MOL0     H 7109   7.065   1.268   2.377  1.8514 -0.0111 -0.9343
   54MOL0     H 7110   6.711   0.692   3.229 -0.4854 -1.0840  0.7020
   54MOL0     H 7111   6.568   0.600   3.406  3.8561  1.4303 -0.7738
   54MOL0     H 7112   6.250   0.256   3.525 -0.8777  2.0212 -1.5667
   54MOL0     H 7113   6.083   0.166   3.677 -0.3889  1.3789 -1.0368
   54MOL0     H 7114   4.605   0.030   4.991  3.2545 -0.1429 -0.2430
   54MOL0     H 7115   4.468   0.056   5.205  0.8866 -1.4620  2.3547
   54MOL0     H 7116   4.527   0.607   5.513  1.1216  1.1247  2.2173
   54MOL0     H 7117   4.458   0.700   5.742  0.6181  0.7910 -1.1462
   54MOL0     H 7118   4.380   0.425   6.024  1.0440  1.3965  1.7238
   54MOL0     H 7119   4.199   0.454   6.007 -0.9394  1.4406 -3.3863
   54MOL0     H 7120   4.392   0.630   6.170 -1.1542  0.4311  1.3765
   54MOL0     H 7121   4.212   0.656   6.139 -0.2499  0.2012 -2.6491
   54MOL0     H 7122   4.343   0.412   6.284 -1.6734 -1.6454 -2.4468
   54MOL0     H 7123   4.187   0.422   6.261 -1.3008  0.0599  3.4159
   54MOL0     H 7124   4.203   0.652   6.392 -2.8390 -0.6364  0.7422
   54MOL0     H 7125   4.176   0.514   6.477  0.2431  0.8008  1.1632
   54MOL0     H 7126   4.562   0.617   6.633 -0.0684 -3.4026  1.0114
   54MOL0     H 7127   4.250   0.347   5.822 -0.7621  0.0678  0.3098
   54MOL0     H 7128   4.322   0.235   5.599 -0.3584  0.2119 -1.5854
   55MOL0     O 7129  10.844   1.800   1.278 -0.3394  0.1066  0.7763
   55MOL0     C 7130  10.913   1.856   1.192 -0.2354 -0.1078  1.8414
   55MOL0     O 7131  11.045   1.821   1.152 -0.5647 -0.4977  0.1250
   55MOL0     C 7132  11.113   1.714   1.219  0.0030 -0.2697 -0.2135
   55MOL0     C 7133  11.099   1.673   1.352 -0.2759  0.0086 -0.3831
   55MOL0     C 7134  11.177   1.572   1.420  0.0020  0.0904  0.2830
   55MOL0     C 7135  11.264   1.500   1.333 -0.4283  0.2335 -0.5943
   55MOL0     O 7136  11.314   1.381   1.387 -0.7220 -1.4988  0.4144
   55MOL0     C 7137  11.443   1.405   1.435  0.0585 -0.2385 -0.2335
   55MOL0     C 7138  11.481   1.322   1.558 -0.4292  0.2516  0.7344
   55MOL0     C 7139  11.630   1.301   1.583  0.3451 -0.1756 -0.4212
   55MOL0     C 7140  11.689   1.195   1.486 -0.2643 -0.1687 -0.2178
   55MOL0     C 7141  11.807   1.128   1.557 -1.6906  0.5110  0.0665
   55MOL0     C 7142  11.888   1.025   1.475 -0.6942 -0.2388 -0.8744
   55MOL0     C 7143  11.820   0.893   1.485  0.7129 -0.5513  0.9966
   55MOL0     C 7144  11.922   0.796   1.550  0.8690 -0.6011 -0.4102
   55MOL0     N 7145  11.857   0.663   1.580 -0.9728 -0.3707  0.5522
   55MOL0     C 7146  11.912   0.543   1.561 -0.9274  0.0960 -0.1337
   55MOL0     C 7147  11.836   0.455   1.632  1.0730  0.3377 -0.0514
   55MOL0     C 7148  11.864   0.314   1.654 -0.2830  0.9909 -0.1072
   55MOL0     C 7149  11.915   0.294   1.800  0.9741  0.3776 -0.3955
   55MOL0     C 7150  11.910   0.148   1.846  0.0222 -0.4730 -0.1566
   55MOL0     C 7151  11.915   0.142   1.999 -1.1222 -0.9055 -0.2276
   55MOL0     O 7152  12.049   0.188   2.031  0.1402  0.0121 -0.0140
   55MOL0     C 7153  12.078   0.231   2.161  1.2496 -0.2913  0.1721
   55MOL0     C 7154  11.980   0.251   2.262  0.2565 -1.0157 -0.2748
   55MOL0     C 7155  12.013   0.317   2.374 -0.9482  0.4706 -1.3274
   55MOL0     C 7156  12.149   0.350   2.395 -0.6071  0.0411  0.1166
   55MOL0     C 7157  12.185   0.428   2.515  0.3002 -0.4145 -0.4673
   55MOL0     O 7158  12.083   0.501   2.577  0.3970 -0.0590  0.1445
   55MOL0     C 7159  12.111   0.621   2.633  1.6076 -0.2694 -0.3548
   55MOL0     C 7160  12.196   0.714   2.575 -0.1726 -0.5122  0.4191
   55MOL0     C 7161  12.210   0.834   2.641  0.1587  0.0065  0.6875
   55MOL0     C 7162  12.138   0.875   2.755 -0.2269  0.6214 -0.7628
   55MOL0     O 7163  12.157   1.005   2.804  0.5535 -0.4224 -0.2440
   55MOL0     C 7164  12.200   1.009   2.941 -0.1236 -0.2514 -0.2357
   55MOL0     C 7165  12.245   1.151   2.976  0.3459  0.5395 -0.2724
   55MOL0     C 7166  12.388   1.189   2.916 -0.4251 -0.3147  0.5111
   55MOL0     C 7167  12.413   1.216   2.771  0.4249 -1.0825  0.1726
   55MOL0     C 7168  12.340   1.346   2.698  0.3231  0.7376 -1.0339
   55MOL0     C 7169  12.392   1.477   2.758 -0.7232 -1.0637  0.1310
   55MOL0     C 7170  12.377   1.592   2.670 -0.0387  0.7761  0.3632
   55MOL0     C 7171  12.457   1.721   2.694 -0.0264 -0.3912 -0.4068
   55MOL0    Cl 7172  12.387   1.836   2.580  0.7048 -0.1223  0.1687
   55MOL0     C 7173  12.051   0.777   2.818  0.1961  0.9789  0.0011
   55MOL0     C 7174  12.038   0.647   2.759  0.6425 -1.1197  0.8512
   55MOL0     O 7175  12.307   0.431   2.542  1.4107 -0.1731 -0.3361
   55MOL0     C 7176  12.245   0.302   2.316  0.0980  0.2665  0.0722
   55MOL0     C 7177  12.207   0.247   2.194 -0.1507  0.5256 -0.5387
   55MOL0     N 7178  11.729   0.523   1.693 -0.5924 -0.1755  0.5426
   55MOL0     N 7179  11.755   0.653   1.675 -0.5897 -0.0312  0.1815
   55MOL0     C 7180  11.287   1.528   1.197  0.0412  0.0462  0.4845
   55MOL0     C 7181  11.209   1.633   1.141  1.3939 -0.2298 -0.6600
   55MOL0     C 7182  10.844   1.949   1.095 -0.1096  0.1715  0.4189
   55MOL0     C 7183  10.719   2.001   1.136 -0.2904 -0.0031  0.4509
   55MOL0     C 7184  10.650   2.100   1.059 -0.3964 -0.1001 -0.5912
   55MOL0     C 7185  10.699   2.131   0.933 -1.0652  0.2635  0.3900
   55MOL0     O 7186  10.617   2.221   0.862  0.4156  0.0653  0.1247
   55MOL0     C 7187  10.668   2.350   0.856  0.6605  0.9702  0.1216
   55MOL0     C 7188  10.587   2.421   0.747  0.1856  0.1513 -0.2051
   55MOL0     C 7189  10.465   2.475   0.806  0.6101 -0.6220 -1.0199
   55MOL0     C 7190  10.368   2.504   0.698 -0.2150  0.6011  0.4013
   55MOL0     C 7191  10.248   2.552   0.770 -0.4317 -0.4222 -0.5771
   55MOL0     C 7192  10.143   2.562   0.833 -0.0187 -0.9418  0.0093
   55MOL0     C 7193  10.823   2.075   0.884 -0.1111 -1.1860  0.3054
   55MOL0     C 7194  10.895   1.986   0.964 -0.3816  0.8251 -0.4906
   55MOL0     H 7195  11.033   1.723   1.422  0.3288  0.0120  0.1970
   55MOL0     H 7196  11.158   1.540   1.522 -0.9225 -2.4973 -0.6136
   55MOL0     H 7197  11.466   1.511   1.447 -1.3758  0.1229 -0.5592
   55MOL0     H 7198  11.512   1.359   1.363  1.8005  1.1523  0.4907
   55MOL0     H 7199  11.438   1.221   1.547 -3.8453  1.2275  3.2480
   55MOL0     H 7200  11.428   1.357   1.647  0.1842 -0.8568  1.5575
   55MOL0     H 7201  11.628   1.261   1.685 -2.1286  1.5205  0.2896
   55MOL0     H 7202  11.697   1.387   1.577 -1.4111  1.2365 -0.7594
   55MOL0     H 7203  11.608   1.122   1.471 -1.9894  1.5888  0.2073
   55MOL0     H 7204  11.735   1.242   1.399 -0.3656 -1.4422 -0.9824
   55MOL0     H 7205  11.774   1.076   1.648  0.0965 -0.1798  0.3707
   55MOL0     H 7206  11.886   1.201   1.576 -1.5735  0.1963  0.8599
   55MOL0     H 7207  11.989   1.014   1.516 -1.9919  0.0500  2.7315
   55MOL0     H 7208  11.906   1.058   1.373  0.3469 -0.7128 -0.8535
   55MOL0     H 7209  11.728   0.889   1.543 -1.5041 -1.9802 -2.2622
   55MOL0     H 7210  11.790   0.859   1.385  4.0711 -1.2148  0.0953
   55MOL0     H 7211  11.952   0.841   1.645 -0.6482  1.9439 -1.0508
   55MOL0     H 7212  12.017   0.788   1.496  0.2659 -1.9033 -1.3412
   55MOL0     H 7213  12.009   0.538   1.511 -0.7465 -2.7182  0.3321
   55MOL0     H 7214  11.939   0.266   1.591 -1.2712 -2.1624  0.9196
   55MOL0     H 7215  11.778   0.253   1.625  1.7936 -1.1215 -2.2673
   55MOL0     H 7216  11.844   0.335   1.872  1.9338 -0.5499  1.1310
   55MOL0     H 7217  12.017   0.332   1.816  0.1759  1.1298  4.6975
   55MOL0     H 7218  11.814   0.107   1.813  0.0643 -1.5818  1.0249
   55MOL0     H 7219  11.994   0.089   1.809  0.9465 -0.1299  1.3329
   55MOL0     H 7220  11.925   0.040   2.038  2.2044  0.1743  2.2631
   55MOL0     H 7221  11.824   0.185   2.041 -0.7450  0.1822 -0.5059
   55MOL0     H 7222  11.875   0.233   2.243 -0.4051  0.6678  1.4649
   55MOL0     H 7223  11.940   0.356   2.445  0.3867  3.0672 -1.2636
   55MOL0     H 7224  12.266   0.694   2.495  2.3202 -0.5012  2.4779
   55MOL0     H 7225  12.285   0.901   2.599  2.0408 -1.3955  1.6478
   55MOL0     H 7226  12.278   0.935   2.960  3.8796  3.0142 -2.3037
   55MOL0     H 7227  12.121   0.983   3.012  0.1052  4.3996  2.1456
   55MOL0     H 7228  12.252   1.161   3.085  0.5051  2.3679 -0.4136
   55MOL0     H 7229  12.173   1.228   2.948 -2.5590 -1.3517  1.5478
   55MOL0     H 7230  12.459   1.108   2.934  0.5059  0.9858  3.2266
   55MOL0     H 7231  12.423   1.279   2.967 -0.1846  0.2836 -0.6678
   55MOL0     H 7232  12.520   1.236   2.761  0.4845  0.4612  2.8770
   55MOL0     H 7233  12.382   1.124   2.719  1.0805 -1.5925  0.6698
   55MOL0     H 7234  12.235   1.345   2.726  0.2730 -1.2748 -1.1899
   55MOL0     H 7235  12.353   1.341   2.590  1.1514  0.3745 -0.9271
   55MOL0     H 7236  12.500   1.471   2.771 -0.8639 -1.4866  1.1885
   55MOL0     H 7237  12.350   1.500   2.856 -0.7563 -1.5954  0.2448
   55MOL0     H 7238  12.407   1.560   2.570 -0.2124 -0.0156  0.5561
   55MOL0     H 7239  12.269   1.609   2.661 -0.3905  0.3655  3.0063
   55MOL0     H 7240  12.566   1.713   2.685 -0.1360 -2.7914 -0.4698
   55MOL0     H 7241  12.439   1.758   2.795 -0.7312 -3.4652  0.7040
   55MOL0     H 7242  12.003   0.795   2.913 -1.9416  0.1508 -0.8513
   55MOL0     H 7243  11.974   0.581   2.817 -0.3906 -1.7262 -0.8960
   55MOL0     H 7244  12.351   0.325   2.325 -0.1387  1.4041  0.1689
   55MOL0     H 7245  12.282   0.240   2.116  1.0658  2.1847  0.4273
   55MOL0     H 7246  11.353   1.467   1.136 -2.1274 -1.4187 -0.5005
   55MOL0     H 7247  11.199   1.653   1.035  0.3294  3.1082 -0.0775
   55MOL0     H 7248  10.673   1.960   1.225  1.0523  1.6335  1.9713
   55MOL0     H 7249  10.565   2.151   1.102 -0.6890  0.8182 -2.1787
   55MOL0     H 7250  10.776   2.347   0.837  0.7476 -0.2698  0.7041
   55MOL0     H 7251  10.658   2.407   0.949 -3.5796  2.2955 -0.9534
   55MOL0     H 7252  10.645   2.504   0.706  1.6743 -1.7880 -2.2759
   55MOL0     H 7253  10.576   2.343   0.671  0.1507 -0.4178  0.3720
   55MOL0     H 7254  10.483   2.569   0.859 -1.9369  0.0364 -1.1606
   55MOL0     H 7255  10.419   2.403   0.875 -0.4362  0.2500 -0.7684
   55MOL0     H 7256  10.407   2.574   0.624 -0.9152 -1.7694 -2.4206
   55MOL0     H 7257  10.343   2.412   0.643  0.1226 -0.6290  2.2457
   55MOL0     H 7258  10.059   2.599   0.888  0.7278  1.2127 -0.2160
   55MOL0     H 7259  10.863   2.111   0.790  2.5959  2.2537  2.5449
   55MOL0     H 7260  10.988   1.941   0.932 -1.4108 -1.0312 -1.0264
   56MOL0     O 7261   6.648   3.874   8.669  0.6036 -0.0409  0.9275
   56MOL0     C 7262   6.728   3.902   8.759 -0.4056 -0.1107  0.1282
   56MOL0     O 7263   6.735   4.029   8.817 -1.2139 -0.2005 -0.5109
   56MOL0     C 7264   6.637   4.121   8.778 -0.5405 -0.1290 -0.2296
   56MOL0     C 7265   6.544   4.162   8.866  0.5735 -0.3002 -0.5126
   56MOL0     C 7266   6.453   4.259   8.820  0.3185 -0.0230 -0.3740
   56MOL0     C 7267   6.457   4.324   8.695  0.0763  0.5810 -0.1471
   56MOL0     O 7268   6.392   4.437   8.667 -0.0607 -0.3004  0.1925
   56MOL0     C 7269   6.253   4.444   8.701 -0.0714 -0.2277 -0.3172
   56MOL0     C 7270   6.188   4.525   8.590 -0.1702  0.5350  0.3081
   56MOL0     C 7271   6.145   4.447   8.459  0.2300  0.0967  0.0869
   56MOL0     C 7272   6.001   4.395   8.478 -0.7769  0.6773  0.3933
   56MOL0     C 7273   5.956   4.320   8.351  0.9536 -0.2995 -0.3457
   56MOL0     C 7274   6.016   4.183   8.331 -0.1215  0.4025  0.1985
   56MOL0     C 7275   5.921   4.087   8.257  0.1467  0.1394  0.6701
   56MOL0     C 7276   5.842   4.133   8.136 -0.9804 -0.6634  0.4551
   56MOL0     N 7277   5.701   4.152   8.159  0.0614 -0.4341 -0.5056
   56MOL0     C 7278   5.634   4.267   8.171  0.6220 -0.4252  0.4266
   56MOL0     C 7279   5.496   4.239   8.182 -0.8841 -0.5818 -0.0501
   56MOL0     C 7280   5.371   4.321   8.214  0.8985 -0.8742  0.0071
   56MOL0     C 7281   5.275   4.335   8.099  0.3815  0.0796 -1.1702
   56MOL0     C 7282   5.153   4.432   8.134 -1.2855  0.0278  0.0893
   56MOL0     C 7283   5.036   4.427   8.043  0.0570 -0.0186 -0.1749
   56MOL0     O 7284   4.990   4.562   8.024  0.1941 -0.0808  1.6310
   56MOL0     C 7285   4.865   4.582   7.974 -0.3924  0.3810  0.7039
   56MOL0     C 7286   4.791   4.474   7.928  0.0817  0.3107  0.2539
   56MOL0     C 7287   4.653   4.500   7.886 -0.2372 -0.9757  0.1531
   56MOL0     C 7288   4.605   4.634   7.878 -0.8084  0.6303 -1.5923
   56MOL0     C 7289   4.468   4.652   7.819  0.2949  0.6066 -0.0590
   56MOL0     O 7290   4.392   4.536   7.802 -0.7500 -0.7732  0.4821
   56MOL0     C 7291   4.268   4.543   7.739  0.7487 -0.7056  0.6064
   56MOL0     C 7292   4.151   4.511   7.803  1.7634 -0.4523  0.9736
   56MOL0     C 7293   4.037   4.511   7.725  0.4947  0.2930  1.4852
   56MOL0     C 7294   4.032   4.565   7.591 -0.7923 -0.4282 -1.1074
   56MOL0     O 7295   3.920   4.578   7.520  0.2267  0.4280 -0.5928
   56MOL0     C 7296   3.797   4.591   7.587 -0.5074 -1.0587  0.7745
   56MOL0     C 7297   3.693   4.633   7.487  0.2955  0.9293 -0.0696
   56MOL0     C 7298   3.555   4.583   7.546 -0.4448 -0.2089  0.2009
   56MOL0     C 7299   3.436   4.634   7.469  0.1791 -0.6808 -0.5507
   56MOL0     C 7300   3.307   4.573   7.508 -0.1784 -0.4142 -0.9115
   56MOL0     C 7301   3.174   4.668   7.484 -0.6919  0.8642  0.3391
   56MOL0     C 7302   3.050   4.582   7.509  0.0886 -0.2008 -0.3773
   56MOL0     C 7303   3.027   4.530   7.645  0.3042  0.0480 -0.0625
   56MOL0    Cl 7304   2.927   4.379   7.662  0.2214 -0.2465 -0.5970
   56MOL0     C 7305   4.147   4.618   7.538  0.1945  0.3869 -0.4924
   56MOL0     C 7306   4.269   4.600   7.610 -0.6586 -0.2828  0.1094
   56MOL0     O 7307   4.442   4.773   7.787  0.2243 -0.1645 -0.3252
   56MOL0     C 7308   4.684   4.744   7.921  0.4677  0.3945  0.1447
   56MOL0     C 7309   4.813   4.717   7.970 -0.3606 -0.7290  0.2314
   56MOL0     N 7310   5.493   4.104   8.182  1.1451  1.0735 -0.3752
   56MOL0     N 7311   5.614   4.062   8.164  0.5060  0.3717  0.6240
   56MOL0     C 7312   6.551   4.277   8.600  0.3981 -0.6085  0.1071
   56MOL0     C 7313   6.638   4.177   8.647 -0.3588 -0.3635  0.2795
   56MOL0     C 7314   6.809   3.784   8.805  0.4912  0.8698 -0.8135
   56MOL0     C 7315   6.789   3.655   8.743 -0.4161 -0.1552  0.7602
   56MOL0     C 7316   6.881   3.551   8.771 -0.6550 -0.7728  0.0212
   56MOL0     C 7317   6.994   3.575   8.856 -0.1823 -0.0231 -1.1334
   56MOL0     O 7318   7.082   3.475   8.890 -0.4123  0.0638  0.0034
   56MOL0     C 7319   7.059   3.338   8.846  0.1639  0.0250  0.4469
   56MOL0     C 7320   7.160   3.239   8.908  0.7827 -0.4496 -0.7521
   56MOL0     C 7321   7.295   3.250   8.825  0.3574 -0.1665 -0.1253
   56MOL0     C 7322   7.358   3.391   8.860 -0.1302 -0.3585 -1.0407
   56MOL0     C 7323   7.495   3.383   8.813  0.8242  0.5003 -0.0286
   56MOL0     C 7324   7.603   3.360   8.756 -0.3522 -0.2168  0.5828
   56MOL0     C 7325   7.009   3.700   8.914 -0.7324 -0.5872  0.2375
   56MOL0     C 7326   6.916   3.806   8.889  0.0507  0.6728  0.6660
   56MOL0     H 7327   6.544   4.140   8.972 -1.9192 -0.5952 -0.5215
   56MOL0     H 7328   6.372   4.284   8.888 -1.3077  0.6683 -2.4773
   56MOL0     H 7329   6.245   4.495   8.798  2.6976 -0.6770  0.2228
   56MOL0     H 7330   6.196   4.351   8.710 -1.4298  0.4449 -1.4994
   56MOL0     H 7331   6.264   4.598   8.561  0.4755 -0.2146  0.0495
   56MOL0     H 7332   6.099   4.575   8.628  0.1057  0.9015  0.4759
   56MOL0     H 7333   6.218   4.369   8.438 -1.0940 -0.7846 -1.5247
   56MOL0     H 7334   6.152   4.526   8.384 -0.3882 -0.9166 -1.0801
   56MOL0     H 7335   6.001   4.322   8.558 -0.2472  1.1260  0.8125
   56MOL0     H 7336   5.933   4.476   8.504 -2.2991  0.6570 -2.9716
   56MOL0     H 7337   5.965   4.397   8.273 -2.5798  1.1508  0.4721
   56MOL0     H 7338   5.848   4.302   8.354  1.3088 -2.7127 -0.2008
   56MOL0     H 7339   6.034   4.142   8.431 -2.0115  1.5374  1.0643
   56MOL0     H 7340   6.113   4.191   8.282 -0.2771 -2.2400 -0.7150
   56MOL0     H 7341   5.985   4.009   8.215 -1.3654 -1.4154  1.1049
   56MOL0     H 7342   5.851   4.038   8.326  2.0555 -1.7272  1.4061
   56MOL0     H 7343   5.860   4.061   8.056  1.3451  1.0785 -0.7275
   56MOL0     H 7344   5.885   4.229   8.104 -0.3450 -0.7059  1.1487
   56MOL0     H 7345   5.684   4.362   8.185 -1.7444  1.0209 -0.2796
   56MOL0     H 7346   5.401   4.425   8.235  2.7720 -1.4828  0.5852
   56MOL0     H 7347   5.320   4.282   8.302 -2.5751  0.6285 -1.1599
   56MOL0     H 7348   5.228   4.237   8.087  1.2186 -0.4909  0.0230
   56MOL0     H 7349   5.329   4.366   8.009  0.0474  2.0744 -0.7181
   56MOL0     H 7350   5.119   4.408   8.235  0.7067  1.8546  1.2856
   56MOL0     H 7351   5.192   4.534   8.140 -0.1505 -0.2684 -1.5338
   56MOL0     H 7352   4.956   4.376   8.098 -1.9586  2.6842 -0.3901
   56MOL0     H 7353   5.044   4.366   7.953 -0.2960 -0.1208 -0.1384
   56MOL0     H 7354   4.817   4.369   7.938  1.0054  0.6463  1.5726
   56MOL0     H 7355   4.592   4.414   7.860  1.4152 -2.0008 -0.5218
   56MOL0     H 7356   4.146   4.456   7.897 -2.5925 -1.2308  0.4895
   56MOL0     H 7357   3.947   4.471   7.771 -0.1813 -0.7022 -0.5917
   56MOL0     H 7358   3.802   4.669   7.664 -0.0766  0.3482 -0.6362
   56MOL0     H 7359   3.770   4.498   7.638 -1.5797 -1.5945 -0.7124
   56MOL0     H 7360   3.709   4.574   7.397  0.8933 -1.4092  1.4927
   56MOL0     H 7361   3.699   4.741   7.468  2.1983  1.0028  0.7548
   56MOL0     H 7362   3.530   4.609   7.650 -4.6639  1.9744 -1.1061
   56MOL0     H 7363   3.550   4.474   7.554 -2.2443 -0.0795  1.6661
   56MOL0     H 7364   3.428   4.739   7.499  2.3801 -0.3635 -0.9065
   56MOL0     H 7365   3.449   4.641   7.361 -0.9304  1.5135 -0.6000
   56MOL0     H 7366   3.308   4.551   7.615 -4.0113 -0.0534 -0.6710
   56MOL0     H 7367   3.300   4.471   7.469  3.3966 -1.0303 -0.3323
   56MOL0     H 7368   3.170   4.705   7.381 -0.6326 -0.9402 -0.3340
   56MOL0     H 7369   3.162   4.754   7.552 -3.8172 -0.9895  2.3861
   56MOL0     H 7370   2.970   4.657   7.502  0.6457  0.4485  0.0273
   56MOL0     H 7371   3.046   4.493   7.447  4.0441  0.2292 -1.5428
   56MOL0     H 7372   2.981   4.601   7.714 -1.5982 -1.0641 -0.0981
   56MOL0     H 7373   3.124   4.504   7.688  1.0755  0.4518 -1.4846
   56MOL0     H 7374   4.139   4.658   7.437 -2.0223 -2.5594 -1.6193
   56MOL0     H 7375   4.367   4.616   7.566  1.2690  1.1487  4.4082
   56MOL0     H 7376   4.643   4.844   7.936 -1.0366 -0.2939  0.8897
   56MOL0     H 7377   4.870   4.803   8.002  2.3863 -3.1867  2.5856
   56MOL0     H 7378   6.565   4.331   8.507 -0.0470 -1.6631 -0.5938
   56MOL0     H 7379   6.722   4.140   8.589  0.0436 -1.3189  1.4398
   56MOL0     H 7380   6.696   3.630   8.692 -1.2779  0.7321  1.8313
   56MOL0     H 7381   6.875   3.458   8.717 -0.9737 -0.4412 -0.5181
   56MOL0     H 7382   7.093   3.349   8.742 -1.3173  0.2118 -0.0391
   56MOL0     H 7383   6.954   3.308   8.851 -0.4601  2.2384  1.8169
   56MOL0     H 7384   7.179   3.260   9.014  1.7178 -0.7048 -0.8556
   56MOL0     H 7385   7.117   3.138   8.910  0.8101 -0.5678  3.6106
   56MOL0     H 7386   7.275   3.251   8.717  0.9241  0.7124 -0.2388
   56MOL0     H 7387   7.367   3.174   8.854  0.2480  0.3688  1.6670
   56MOL0     H 7388   7.309   3.476   8.811 -1.6628  0.1484  1.2023
   56MOL0     H 7389   7.351   3.411   8.967  0.3774  3.0492 -1.5374
   56MOL0     H 7390   7.695   3.340   8.706 -0.5042 -1.9682  0.9081
   56MOL0     H 7391   7.092   3.721   8.981 -1.3520 -1.3133  1.2787
   56MOL0     H 7392   6.924   3.902   8.940  0.2577 -0.1777  2.2946
   57MOL0     O 7393   6.612   8.113   0.137  0.3294  0.5155 -0.0945
   57MOL0     C 7394   6.644   8.149   0.026 -0.2317 -0.6112 -0.5212
   57MOL0     O 7395   6.574   8.227  -0.055  0.2210 -0.6652 -0.9686
   57MOL0     C 7396   6.464   8.290  -0.015  0.3731  0.4701  0.5673
   57MOL0     C 7397   6.354   8.304  -0.102  1.1358  0.2895  0.0552
   57MOL0     C 7398   6.240   8.378  -0.068  0.8669  0.0329 -0.2694
   57MOL0     C 7399   6.232   8.442   0.055 -0.5167  0.2798 -1.1961
   57MOL0     O 7400   6.116   8.514   0.076  0.1059 -0.5175  0.5799
   57MOL0     C 7401   6.108   8.581   0.204  0.1442 -0.2223  0.1916
   57MOL0     C 7402   5.970   8.636   0.197 -0.2630 -0.5756  0.3424
   57MOL0     C 7403   5.912   8.681   0.332  0.2499 -0.2021  0.2161
   57MOL0     C 7404   5.996   8.790   0.411 -0.0608  0.2779  0.1161
   57MOL0     C 7405   6.005   8.925   0.326 -0.2780 -0.4987 -0.4513
   57MOL0     C 7406   5.884   9.012   0.330  0.7988 -0.5248  0.1799
   57MOL0     C 7407   5.924   9.145   0.262  0.1521 -0.3168  0.6292
   57MOL0     C 7408   5.813   9.204   0.181  0.0802  0.3567  0.4121
   57MOL0     N 7409   5.688   9.250   0.255  0.2521 -0.0963  0.4260
   57MOL0     C 7410   5.590   9.317   0.186  0.2731  0.2825  0.2547
   57MOL0     C 7411   5.503   9.345   0.285 -0.2207  0.1281  0.2273
   57MOL0     C 7412   5.365   9.418   0.273  0.7953 -0.1109 -0.0784
   57MOL0     C 7413   5.283   9.397   0.138  0.2976  0.2011  0.5841
   57MOL0     C 7414   5.230   9.250   0.101  0.4391 -0.1961  0.8076
   57MOL0     C 7415   5.313   9.135   0.153  1.3475  0.6368  1.1428
   57MOL0     O 7416   5.249   9.005   0.134  0.1417 -0.1470  0.6216
   57MOL0     C 7417   5.307   8.905   0.206  0.1219 -0.5837  0.1805
   57MOL0     C 7418   5.427   8.909   0.280 -0.6735  0.2534  0.4037
   57MOL0     C 7419   5.478   8.803   0.347  0.6477 -0.1903  0.3537
   57MOL0     C 7420   5.420   8.675   0.341  0.3079 -0.2104 -0.9679
   57MOL0     C 7421   5.469   8.564   0.416  0.2775  0.6970  0.2853
   57MOL0     O 7422   5.406   8.439   0.395 -0.3994 -0.1403  0.6270
   57MOL0     C 7423   5.472   8.319   0.420 -0.3717 -0.0186  1.0512
   57MOL0     C 7424   5.614   8.303   0.405  0.9507  0.1555 -0.4257
   57MOL0     C 7425   5.677   8.189   0.443  0.0077 -0.5512 -0.4224
   57MOL0     C 7426   5.599   8.094   0.497  0.0872  0.2606  0.7333
   57MOL0     O 7427   5.659   7.975   0.526  0.1428  0.1784 -0.1890
   57MOL0     C 7428   5.617   7.899   0.641  0.8764  0.2600  0.3896
   57MOL0     C 7429   5.723   7.835   0.726 -0.4417  0.0562  0.4412
   57MOL0     C 7430   5.838   7.786   0.636  0.1217 -0.9274 -0.2834
   57MOL0     C 7431   5.938   7.695   0.719  0.5924 -0.7153 -0.8088
   57MOL0     C 7432   5.983   7.577   0.638 -0.2051  0.1263 -0.3967
   57MOL0     C 7433   6.030   7.447   0.722 -1.0366  0.6190  0.3460
   57MOL0     C 7434   6.163   7.472   0.790  0.0282 -0.7482 -0.5668
   57MOL0     C 7435   6.247   7.351   0.822 -0.1988  0.4668  1.1686
   57MOL0    Cl 7436   6.273   7.248   0.689 -0.2513  0.1033  0.0833
   57MOL0     C 7437   5.459   8.106   0.511 -0.4822 -0.0750  0.2331
   57MOL0     C 7438   5.398   8.219   0.466  0.2357  0.6813  0.1717
   57MOL0     O 7439   5.570   8.581   0.478 -0.3647  0.3956  1.1237
   57MOL0     C 7440   5.299   8.663   0.272 -0.7782 -0.4333  0.5252
   57MOL0     C 7441   5.238   8.778   0.211  0.1717  0.1740 -0.6270
   57MOL0     N 7442   5.561   9.302   0.403  0.5996 -0.4444  0.3763
   57MOL0     N 7443   5.681   9.261   0.382  0.7804  0.4643 -0.2048
   57MOL0     C 7444   6.346   8.432   0.141  0.1706  0.7411 -0.3369
   57MOL0     C 7445   6.463   8.361   0.111 -0.4994 -0.0202  0.1507
   57MOL0     C 7446   6.785   8.107  -0.020  0.8628 -0.3358  0.1772
   57MOL0     C 7447   6.823   8.129  -0.156  0.5649  0.9883  0.6352
   57MOL0     C 7448   6.943   8.071  -0.210 -0.8399 -0.7611  0.2772
   57MOL0     C 7449   7.038   8.018  -0.115 -0.0736 -0.0236  0.3605
   57MOL0     O 7450   7.168   8.001  -0.156 -0.5726 -0.7699 -0.1296
   57MOL0     C 7451   7.230   8.127  -0.172  0.0256  0.1497  0.1585
   57MOL0     C 7452   7.339   8.138  -0.064 -0.7842  0.3243 -0.0427
   57MOL0     C 7453   7.427   8.010  -0.051 -1.0086  0.5512  0.1025
   57MOL0     C 7454   7.523   8.033   0.068  0.7549  0.5366  0.5213
   57MOL0     C 7455   7.619   8.143   0.057 -0.5954 -0.1976  0.4409
   57MOL0     C 7456   7.720   8.207   0.034  0.3057  0.1281 -0.7609
   57MOL0     C 7457   7.007   8.003   0.016  0.0015  0.6555 -1.4186
   57MOL0     C 7458   6.885   8.045   0.060 -0.5000  0.2748 -0.6964
   57MOL0     H 7459   6.357   8.281  -0.208 -3.6234  1.4492 -0.5426
   57MOL0     H 7460   6.150   8.387  -0.128 -0.7778 -1.5741  1.7862
   57MOL0     H 7461   6.181   8.662   0.213 -0.4694  0.3347  0.2261
   57MOL0     H 7462   6.100   8.509   0.286 -3.7207  1.2668  1.3611
   57MOL0     H 7463   5.909   8.562   0.145  2.3667 -3.9101  1.6238
   57MOL0     H 7464   5.961   8.728   0.139  0.4238  0.9773  2.6039
   57MOL0     H 7465   5.899   8.588   0.388 -2.7790 -1.5044 -2.3343
   57MOL0     H 7466   5.812   8.722   0.318  0.6876  0.3679 -1.5453
   57MOL0     H 7467   5.944   8.808   0.506 -4.8704  1.0913 -2.3818
   57MOL0     H 7468   6.099   8.755   0.427  0.0809 -0.4896 -2.1145
   57MOL0     H 7469   6.025   8.898   0.221 -0.0181 -1.7449 -0.0996
   57MOL0     H 7470   6.084   8.979   0.377 -1.7875 -1.3631  3.0888
   57MOL0     H 7471   5.854   9.032   0.433 -0.6936 -2.3862  0.1867
   57MOL0     H 7472   5.801   8.976   0.268  0.0084  2.9747 -0.9997
   57MOL0     H 7473   5.960   9.218   0.334 -2.8485  2.5983 -0.5538
   57MOL0     H 7474   5.996   9.129   0.182 -0.5167 -1.9942  0.3172
   57MOL0     H 7475   5.787   9.130   0.104  0.1647  0.2377  0.4969
   57MOL0     H 7476   5.849   9.297   0.136  1.3665 -0.3196 -0.0339
   57MOL0     H 7477   5.575   9.338   0.081 -1.5784  0.2487  0.4695
   57MOL0     H 7478   5.377   9.526   0.276 -0.2615  0.0284 -0.3471
   57MOL0     H 7479   5.304   9.402   0.362 -0.4298  0.4368 -0.7917
   57MOL0     H 7480   5.343   9.426   0.052 -1.5659 -0.4219 -1.0013
   57MOL0     H 7481   5.199   9.467   0.146  0.0979  0.4373 -2.5096
   57MOL0     H 7482   5.130   9.233   0.140 -1.2208  1.5587 -2.3212
   57MOL0     H 7483   5.228   9.248  -0.008  0.2541  2.5338  0.6974
   57MOL0     H 7484   5.332   9.139   0.261  2.5516 -1.9592  1.1211
   57MOL0     H 7485   5.409   9.138   0.102  1.4939 -1.1366  1.2363
   57MOL0     H 7486   5.495   8.992   0.299 -1.1318  0.7972 -0.2776
   57MOL0     H 7487   5.560   8.828   0.413 -0.7362  1.3684  1.5820
   57MOL0     H 7488   5.682   8.387   0.393 -0.7331  2.1158  2.4018
   57MOL0     H 7489   5.784   8.184   0.424  0.4060  2.3567  0.5505
   57MOL0     H 7490   5.553   7.819   0.604  2.1330 -1.1028  1.0677
   57MOL0     H 7491   5.558   7.967   0.703 -0.9855 -0.8763 -0.0739
   57MOL0     H 7492   5.672   7.747   0.767  1.0346 -1.4273 -0.8046
   57MOL0     H 7493   5.764   7.902   0.802  0.5829  1.2346 -1.0952
   57MOL0     H 7494   5.901   7.869   0.602 -2.8513  0.6528 -2.4577
   57MOL0     H 7495   5.802   7.752   0.538  2.5223  1.2653 -2.0655
   57MOL0     H 7496   6.019   7.760   0.755  0.2297 -0.3483 -0.6448
   57MOL0     H 7497   5.880   7.667   0.807 -1.3676  2.5038 -0.9081
   57MOL0     H 7498   6.063   7.599   0.568  0.8306 -2.6018 -0.1955
   57MOL0     H 7499   5.896   7.545   0.580 -0.6353  3.0018 -1.5275
   57MOL0     H 7500   6.021   7.356   0.662  0.7352  3.3521 -4.6153
   57MOL0     H 7501   5.962   7.433   0.807 -0.3065 -3.1181  0.4770
   57MOL0     H 7502   6.223   7.525   0.715 -0.3942  0.0085 -0.3799
   57MOL0     H 7503   6.156   7.529   0.883 -3.4355 -1.1250 -0.4923
   57MOL0     H 7504   6.179   7.297   0.889  1.5647 -1.0593  1.8130
   57MOL0     H 7505   6.343   7.380   0.864  0.6563  2.0191 -1.6020
   57MOL0     H 7506   5.401   8.023   0.551  0.7279 -0.1338  1.9579
   57MOL0     H 7507   5.291   8.232   0.480 -0.2608 -0.6857 -1.8857
   57MOL0     H 7508   5.233   8.577   0.273  2.2561 -2.9016 -0.2426
   57MOL0     H 7509   5.138   8.767   0.171 -1.2135  0.7879  2.3487
   57MOL0     H 7510   6.344   8.487   0.235 -3.2935 -2.0670  1.4419
   57MOL0     H 7511   6.538   8.351   0.189 -0.7229 -1.3174  0.2219
   57MOL0     H 7512   6.748   8.180  -0.215  1.3125 -1.6285 -2.9063
   57MOL0     H 7513   6.958   8.081  -0.317 -0.3957 -1.9366  0.2140
   57MOL0     H 7514   7.164   8.213  -0.165 -0.0358 -0.0266  2.4147
   57MOL0     H 7515   7.283   8.120  -0.268  0.2020 -0.3264  0.2870
   57MOL0     H 7516   7.417   8.209  -0.092  0.1237 -0.7216 -0.2152
   57MOL0     H 7517   7.303   8.172   0.034  1.6992 -1.2782  1.5425
   57MOL0     H 7518   7.482   7.993  -0.144 -1.0322 -0.0329  0.1924
   57MOL0     H 7519   7.369   7.921  -0.027  0.1822  0.0313  1.1562
   57MOL0     H 7520   7.468   8.038   0.162 -1.4859  2.6477 -0.8015
   57MOL0     H 7521   7.590   7.947   0.057  1.9931  1.4437  0.8063
   57MOL0     H 7522   7.805   8.272   0.023  2.1375 -2.0698 -0.2685
   57MOL0     H 7523   7.076   7.948   0.080 -1.6333  0.9221  0.6795
   57MOL0     H 7524   6.864   8.026   0.165 -1.8911 -0.5343 -1.0936
   58MOL0     O 7525   4.892   4.464   2.782  0.2638 -0.1259  0.0454
   58MOL0     C 7526   4.802   4.389   2.725 -0.5188 -0.0530  0.1462
   58MOL0     O 7527   4.799   4.250   2.716 -0.9199  0.3713 -0.7672
   58MOL0     C 7528   4.916   4.193   2.745 -0.9078 -0.6078  0.9860
   58MOL0     C 7529   4.924   4.130   2.879 -0.0561 -0.5508  0.6251
   58MOL0     C 7530   5.042   4.087   2.930 -0.6915  0.5651  0.7050
   58MOL0     C 7531   5.168   4.110   2.856  0.1684  1.3221 -0.1316
   58MOL0     O 7532   5.287   4.070   2.912 -0.6763 -0.6020  0.6034
   58MOL0     C 7533   5.423   4.121   2.890 -0.0921 -0.2657  1.0473
   58MOL0     C 7534   5.540   4.034   2.924  0.2762 -0.1383 -0.1387
   58MOL0     C 7535   5.533   3.970   3.065  0.5548  0.0163  0.1947
   58MOL0     C 7536   5.639   3.864   3.072  0.1025 -0.8421 -0.6703
   58MOL0     C 7537   5.675   3.803   3.208 -0.4187 -0.4721  0.5377
   58MOL0     C 7538   5.794   3.702   3.192 -0.0016  0.6239  0.4136
   58MOL0     C 7539   5.850   3.670   3.326 -0.1217 -0.3712  0.9207
   58MOL0     C 7540   5.965   3.570   3.305 -1.0859  1.0954  0.9628
   58MOL0     N 7541   6.013   3.531   3.436  0.2674  0.3878  0.4551
   58MOL0     C 7542   5.986   3.410   3.501  0.1998 -0.7019 -1.1704
   58MOL0     C 7543   6.071   3.416   3.610 -0.2174 -0.4505  0.2082
   58MOL0     C 7544   6.093   3.304   3.707 -0.1977 -0.2126  0.0683
   58MOL0     C 7545   6.186   3.329   3.825  1.0929 -0.0263 -0.5835
   58MOL0     C 7546   6.333   3.342   3.805  0.2654 -0.7062 -0.5888
   58MOL0     C 7547   6.408   3.391   3.932 -0.7503 -0.0438 -0.3930
   58MOL0     O 7548   6.375   3.302   4.039 -0.7223  0.0575 -0.4144
   58MOL0     C 7549   6.415   3.338   4.160  0.0868 -0.1069 -0.1267
   58MOL0     C 7550   6.472   3.464   4.200 -0.3343  0.4697  0.7822
   58MOL0     C 7551   6.497   3.503   4.330  1.0467  0.2549 -0.2934
   58MOL0     C 7552   6.462   3.412   4.432 -0.1183 -0.2681 -1.2069
   58MOL0     C 7553   6.495   3.458   4.573  1.2604  0.2569  0.6610
   58MOL0     O 7554   6.547   3.577   4.592  0.3556  0.1753  0.7490
   58MOL0     C 7555   6.588   3.613   4.716  0.0100  0.4001  0.3640
   58MOL0     C 7556   6.490   3.643   4.816  0.1850 -0.3184  0.3698
   58MOL0     C 7557   6.533   3.676   4.944 -0.5898 -0.9300  0.1677
   58MOL0     C 7558   6.666   3.675   4.976 -0.1912  0.5213  0.2424
   58MOL0     O 7559   6.715   3.704   5.099 -0.0919 -0.5972  0.3431
   58MOL0     C 7560   6.631   3.677   5.208 -0.0892 -0.3382  0.6048
   58MOL0     C 7561   6.712   3.707   5.341  0.1450 -0.7758  0.0269
   58MOL0     C 7562   6.844   3.630   5.352  0.9161 -0.3649  0.4020
   58MOL0     C 7563   6.920   3.697   5.466  1.2324  0.3621  0.8113
   58MOL0     C 7564   7.070   3.658   5.460 -0.0352  0.8613  0.5664
   58MOL0     C 7565   7.167   3.750   5.381  0.4084 -0.5535 -0.5361
   58MOL0     C 7566   7.307   3.707   5.380  0.1475 -0.8688 -0.2049
   58MOL0     C 7567   7.405   3.824   5.382  0.4493 -0.0994 -0.0635
   58MOL0    Cl 7568   7.387   3.933   5.231  0.5552 -0.0884  0.0631
   58MOL0     C 7569   6.763   3.653   4.870  0.3743 -0.4662  0.5248
   58MOL0     C 7570   6.724   3.632   4.736 -0.9687  0.8621 -0.1343
   58MOL0     O 7571   6.467   3.373   4.658 -0.5583 -0.1873 -0.0794
   58MOL0     C 7572   6.408   3.284   4.401  0.1359 -0.9919  0.2218
   58MOL0     C 7573   6.383   3.249   4.266 -1.3410  0.8286  0.1143
   58MOL0     N 7574   6.114   3.544   3.631  0.3989  0.3464  1.3530
   58MOL0     N 7575   6.074   3.613   3.526  0.1432  0.2933 -0.7731
   58MOL0     C 7576   5.164   4.166   2.723 -0.0104 -0.4397 -0.3138
   58MOL0     C 7577   5.035   4.201   2.669 -0.2309 -0.3972  0.2487
   58MOL0     C 7578   4.703   4.464   2.656  0.0744 -0.7686  0.6126
   58MOL0     C 7579   4.708   4.605   2.652  1.0161 -0.3040  0.9985
   58MOL0     C 7580   4.623   4.671   2.554  0.3140  0.0631  0.1338
   58MOL0     C 7581   4.518   4.605   2.484 -0.3930  0.6287  1.1678
   58MOL0     O 7582   4.440   4.685   2.404  0.0739 -0.2134  0.0480
   58MOL0     C 7583   4.331   4.635   2.326 -0.3787  0.1600 -0.5666
   58MOL0     C 7584   4.386   4.551   2.211  0.0590  0.1616  0.0647
   58MOL0     C 7585   4.280   4.488   2.125  0.9562  0.3979 -0.9057
   58MOL0     C 7586   4.344   4.438   1.989 -0.1668 -0.1072 -0.5944
   58MOL0     C 7587   4.414   4.313   1.988 -0.0148  0.2416 -0.1894
   58MOL0     C 7588   4.476   4.207   1.987  1.0771  0.0913 -0.0355
   58MOL0     C 7589   4.502   4.470   2.512  0.7384 -0.0606 -0.2613
   58MOL0     C 7590   4.598   4.405   2.592 -0.0042  0.3245  0.3883
   58MOL0     H 7591   4.832   4.122   2.934 -0.0676 -0.5260  0.6097
   58MOL0     H 7592   5.057   4.051   3.031  0.7925 -0.6978  0.0687
   58MOL0     H 7593   5.429   4.220   2.936  2.5525  0.3828 -0.5026
   58MOL0     H 7594   5.433   4.133   2.782  1.1700  0.7917  1.2541
   58MOL0     H 7595   5.627   4.095   2.897 -0.0130  0.2886 -0.0996
   58MOL0     H 7596   5.537   3.959   2.844  0.2477  1.5424 -1.7969
   58MOL0     H 7597   5.433   3.929   3.081 -0.6672  3.3279  2.0491
   58MOL0     H 7598   5.540   4.050   3.139  1.0785 -0.4058  0.6067
   58MOL0     H 7599   5.608   3.786   3.002 -0.7763  0.3910 -1.7144
   58MOL0     H 7600   5.730   3.908   3.031 -0.4503  0.5882 -0.4160
   58MOL0     H 7601   5.587   3.753   3.251 -3.6031  1.9567 -2.5325
   58MOL0     H 7602   5.700   3.884   3.277 -0.3891  1.5924 -1.7363
   58MOL0     H 7603   5.883   3.727   3.134  0.1558 -2.1387 -0.6906
   58MOL0     H 7604   5.755   3.614   3.140 -0.4505  0.9161  0.2471
   58MOL0     H 7605   5.885   3.751   3.390  1.6810 -0.7755  0.5063
   58MOL0     H 7606   5.768   3.624   3.381  1.7247 -2.8147  1.8200
   58MOL0     H 7607   6.049   3.607   3.245  2.9890 -5.1646  1.9413
   58MOL0     H 7608   5.929   3.475   3.265  0.8821 -1.5818  4.9822
   58MOL0     H 7609   5.914   3.333   3.475 -3.3005  1.9367 -0.1360
   58MOL0     H 7610   6.135   3.216   3.657  1.9011 -0.5553  2.2609
   58MOL0     H 7611   5.995   3.277   3.747 -0.0252 -1.4084 -0.2834
   58MOL0     H 7612   6.174   3.244   3.894  0.9334  1.8451  1.8462
   58MOL0     H 7613   6.162   3.419   3.883 -1.3630  0.1263 -1.6895
   58MOL0     H 7614   6.375   3.245   3.776  2.1741  0.0461 -0.4816
   58MOL0     H 7615   6.344   3.407   3.718 -2.0351 -1.0098 -1.1710
   58MOL0     H 7616   6.373   3.488   3.969 -1.3957 -0.5812  0.4377
   58MOL0     H 7617   6.517   3.398   3.920 -0.4850 -1.5811  0.8103
   58MOL0     H 7618   6.490   3.536   4.121 -1.3043  1.4453  1.4238
   58MOL0     H 7619   6.544   3.600   4.338 -1.4781  1.4001  3.0578
   58MOL0     H 7620   6.388   3.655   4.780  0.1482 -0.6576  0.3587
   58MOL0     H 7621   6.448   3.681   5.013 -2.5649 -0.1608 -2.1820
   58MOL0     H 7622   6.579   3.582   5.219 -0.6278 -0.1055  0.0894
   58MOL0     H 7623   6.558   3.758   5.198  3.7056  3.1680 -2.4315
   58MOL0     H 7624   6.643   3.695   5.425 -1.3002  2.3136 -0.5647
   58MOL0     H 7625   6.732   3.815   5.343 -2.2561 -0.1437 -2.8485
   58MOL0     H 7626   6.905   3.649   5.264 -0.8377  0.1826 -0.7516
   58MOL0     H 7627   6.842   3.522   5.371  1.6505 -0.9971 -2.6926
   58MOL0     H 7628   6.921   3.806   5.468 -0.6750  0.4069  0.4113
   58MOL0     H 7629   6.884   3.646   5.556  0.4575 -2.1429 -0.7964
   58MOL0     H 7630   7.079   3.565   5.403  1.8753 -0.2339  2.5129
   58MOL0     H 7631   7.116   3.637   5.557  0.8463 -1.1949 -0.2503
   58MOL0     H 7632   7.152   3.847   5.429 -1.1524 -1.0700  0.0870
   58MOL0     H 7633   7.145   3.764   5.274  1.5029 -0.9237 -0.8259
   58MOL0     H 7634   7.332   3.655   5.473  2.9723 -1.1133 -1.0113
   58MOL0     H 7635   7.329   3.650   5.289  2.6387 -1.3806  0.6387
   58MOL0     H 7636   7.509   3.794   5.393  0.4483  0.1613  0.7014
   58MOL0     H 7637   7.385   3.900   5.458  1.8466  1.9689 -1.6587
   58MOL0     H 7638   6.860   3.656   4.918  0.0253  2.3787  1.2536
   58MOL0     H 7639   6.806   3.604   4.670 -0.3268 -0.4015  1.1495
   58MOL0     H 7640   6.379   3.219   4.482  0.5649  0.3202  1.4681
   58MOL0     H 7641   6.339   3.156   4.233  2.5440 -0.3938 -2.3792
   58MOL0     H 7642   5.246   4.182   2.654 -1.3909  2.5847 -1.3981
   58MOL0     H 7643   5.038   4.244   2.569  1.8296 -1.0757 -0.0405
   58MOL0     H 7644   4.782   4.659   2.710 -0.0601  1.3605  0.9019
   58MOL0     H 7645   4.638   4.778   2.540  3.9255 -0.2175  0.9755
   58MOL0     H 7646   4.271   4.709   2.272  0.1572 -0.2441 -1.7578
   58MOL0     H 7647   4.267   4.563   2.379  1.4859 -1.0235  0.1695
   58MOL0     H 7648   4.453   4.614   2.152 -3.5489  2.5596 -1.8522
   58MOL0     H 7649   4.443   4.462   2.238 -1.3814 -0.9748 -0.5072
   58MOL0     H 7650   4.202   4.561   2.100  0.6994  1.4599  2.5441
   58MOL0     H 7651   4.241   4.406   2.187 -0.0215 -0.7354 -2.9147
   58MOL0     H 7652   4.256   4.449   1.924 -2.6159  2.5121  2.8390
   58MOL0     H 7653   4.420   4.510   1.959  1.5140 -1.3907  0.4651
   58MOL0     H 7654   4.517   4.111   1.964 -2.0622 -0.5533 -4.1412
   58MOL0     H 7655   4.422   4.415   2.463  1.5601 -1.6262  0.0729
   58MOL0     H 7656   4.588   4.297   2.600  3.4435 -0.0539  1.4003
   59MOL0     O 7657   3.689   7.938   1.517  0.8290 -0.2802 -0.3855
   59MOL0     C 7658   3.566   7.962   1.525  0.9281  0.8988 -0.2182
   59MOL0     O 7659   3.494   8.065   1.476 -0.3727 -0.0397  0.0664
   59MOL0     C 7660   3.553   8.168   1.409 -0.2316  0.8121  0.4754
   59MOL0     C 7661   3.531   8.303   1.445 -0.4012  0.7108  0.9467
   59MOL0     C 7662   3.601   8.406   1.376  0.3414 -0.7130  0.4760
   59MOL0     C 7663   3.667   8.378   1.255 -0.6519 -0.0306 -0.6116
   59MOL0     O 7664   3.704   8.483   1.180 -0.0978 -0.3550  0.0326
   59MOL0     C 7665   3.711   8.443   1.037 -1.0807 -0.2061  0.8966
   59MOL0     C 7666   3.697   8.567   0.952  0.9533 -0.2504  0.1013
   59MOL0     C 7667   3.768   8.698   1.006  0.4619  0.9201  0.1741
   59MOL0     C 7668   3.773   8.810   0.900 -0.1399 -0.0612 -0.3684
   59MOL0     C 7669   3.878   8.796   0.791 -1.0982 -0.1448 -0.1592
   59MOL0     C 7670   3.854   8.905   0.688  0.4083  0.0040 -0.6568
   59MOL0     C 7671   3.927   8.902   0.554  0.1876 -0.2737  0.1474
   59MOL0     C 7672   3.894   8.783   0.478  0.0144 -0.1769 -0.2620
   59MOL0     N 7673   3.752   8.765   0.448 -0.3924  0.7395  0.3568
   59MOL0     C 7674   3.680   8.847   0.363 -0.0654 -0.9570  0.9221
   59MOL0     C 7675   3.547   8.828   0.395  0.0349 -0.4813  0.2674
   59MOL0     C 7676   3.431   8.895   0.326 -0.1641  0.5903 -0.3885
   59MOL0     C 7677   3.455   8.892   0.171 -0.1167 -0.0289 -0.1814
   59MOL0     C 7678   3.474   8.745   0.120 -0.3062  0.3679  0.6008
   59MOL0     C 7679   3.356   8.650   0.156  0.0078 -0.0104 -0.8423
   59MOL0     O 7680   3.242   8.726   0.126  0.1129 -0.0487  0.1906
   59MOL0     C 7681   3.128   8.652   0.108 -0.4293  0.1751 -0.2221
   59MOL0     C 7682   3.087   8.570   0.212 -0.1430  0.2167 -0.3561
   59MOL0     C 7683   2.969   8.497   0.197 -0.3500 -0.0279  0.3182
   59MOL0     C 7684   2.886   8.513   0.085 -0.4925 -0.8834  0.4997
   59MOL0     C 7685   2.763   8.437   0.063 -0.2241  0.7472 -0.1030
   59MOL0     O 7686   2.685   8.401   0.168 -0.8692 -1.2658  0.4818
   59MOL0     C 7687   2.568   8.329   0.151 -0.3692  0.1044  0.4942
   59MOL0     C 7688   2.530   8.236   0.232  0.1307 -0.6680  0.0221
   59MOL0     C 7689   2.393   8.176   0.227 -0.5479  0.2555 -0.2780
   59MOL0     C 7690   2.320   8.206   0.117  0.4510 -0.3584  0.4680
   59MOL0     O 7691   2.215   8.121   0.089  0.8164 -0.3167 -0.3146
   59MOL0     C 7692   2.085   8.186   0.060  0.3238  0.1909 -0.5908
   59MOL0     C 7693   2.050   8.277   0.172 -0.1037 -0.4546 -0.1423
   59MOL0     C 7694   1.918   8.358   0.161  0.3537  0.0931 -0.0241
   59MOL0     C 7695   1.802   8.256   0.139 -1.4918  0.2876  0.3427
   59MOL0     C 7696   1.670   8.328   0.156 -0.8972  0.2241  0.3416
   59MOL0     C 7697   1.545   8.237   0.164  0.0724  1.1122 -0.2437
   59MOL0     C 7698   1.532   8.159   0.294 -0.2900  0.2925 -0.4285
   59MOL0     C 7699   1.454   8.028   0.271  0.1138  0.4211 -0.4288
   59MOL0    Cl 7700   1.284   8.048   0.224  0.4597  0.5191  0.2066
   59MOL0     C 7701   2.358   8.297   0.023  0.2982  1.1520 -0.5295
   59MOL0     C 7702   2.478   8.362   0.040 -0.1042 -0.9774 -0.4232
   59MOL0     O 7703   2.748   8.394  -0.050  0.6578  0.3617 -0.1724
   59MOL0     C 7704   2.933   8.606  -0.011 -0.4372  0.1065  0.6044
   59MOL0     C 7705   3.052   8.674   0.000  0.3102 -0.9345  0.8943
   59MOL0     N 7706   3.546   8.728   0.493  0.0938  0.6727 -0.2020
   59MOL0     N 7707   3.669   8.699   0.527 -0.0891 -0.1231  0.2138
   59MOL0     C 7708   3.682   8.241   1.223 -0.9263 -0.6229 -0.5863
   59MOL0     C 7709   3.637   8.140   1.300  0.4133  0.0895 -0.3923
   59MOL0     C 7710   3.491   7.870   1.612 -0.2105  0.2546 -0.4485
   59MOL0     C 7711   3.402   7.926   1.712  0.2395 -0.1317  0.5084
   59MOL0     C 7712   3.326   7.835   1.798 -0.7650 -0.8690 -1.0165
   59MOL0     C 7713   3.336   7.697   1.782  0.3535  0.3406  0.0091
   59MOL0     O 7714   3.269   7.624   1.878  0.3015  0.3401 -0.2270
   59MOL0     C 7715   3.312   7.486   1.894 -0.1239 -0.5599  0.2786
   59MOL0     C 7716   3.225   7.409   1.991 -0.6570 -0.1414 -0.9461
   59MOL0     C 7717   3.083   7.395   1.950  1.4407 -0.4315  0.3254
   59MOL0     C 7718   3.004   7.309   2.062 -0.3821  0.4672 -0.5839
   59MOL0     C 7719   2.970   7.392   2.187 -0.0618  0.9173  0.3003
   59MOL0     C 7720   2.958   7.436   2.298  0.5759  0.1371 -0.8301
   59MOL0     C 7721   3.428   7.644   1.684 -0.1475  0.2058  0.0038
   59MOL0     C 7722   3.494   7.729   1.600 -0.6809  0.1768  0.4350
   59MOL0     H 7723   3.471   8.317   1.534 -1.6131 -3.0530  0.8881
   59MOL0     H 7724   3.573   8.507   1.404 -1.2975 -0.6735 -1.1403
   59MOL0     H 7725   3.633   8.370   1.011 -1.5044 -0.2638  2.2444
   59MOL0     H 7726   3.810   8.405   1.009 -2.1116 -0.8453 -2.3673
   59MOL0     H 7727   3.590   8.586   0.942  1.0377  1.3464  1.7114
   59MOL0     H 7728   3.731   8.542   0.851  0.7363  0.4191 -0.1473
   59MOL0     H 7729   3.874   8.678   1.024  0.2956 -1.2920 -0.9915
   59MOL0     H 7730   3.707   8.739   1.087  2.3142  3.0367  0.5986
   59MOL0     H 7731   3.674   8.816   0.853 -0.3153  1.7188  0.1657
   59MOL0     H 7732   3.787   8.903   0.954 -0.7431  0.0343 -0.3676
   59MOL0     H 7733   3.864   8.697   0.745  0.1705 -0.4360  0.0540
   59MOL0     H 7734   3.980   8.786   0.830 -1.1171  1.0021  0.2171
   59MOL0     H 7735   3.876   9.001   0.736  2.9605  1.3172 -4.0748
   59MOL0     H 7736   3.749   8.919   0.659  0.8607  1.4559 -1.7656
   59MOL0     H 7737   3.908   8.988   0.489  1.8953 -0.0642 -0.1101
   59MOL0     H 7738   4.033   8.898   0.578 -0.0590 -0.5259  1.2557
   59MOL0     H 7739   3.934   8.695   0.529 -0.5607 -0.2603  0.0440
   59MOL0     H 7740   3.955   8.795   0.387  2.1135 -2.0570  0.8009
   59MOL0     H 7741   3.730   8.902   0.284 -0.1805 -2.9059 -0.5820
   59MOL0     H 7742   3.433   9.001   0.354  0.3140  0.4420  0.1390
   59MOL0     H 7743   3.337   8.840   0.339 -0.9562  1.8685 -0.4699
   59MOL0     H 7744   3.542   8.953   0.147  0.0471 -0.2432 -0.1354
   59MOL0     H 7745   3.372   8.941   0.118 -1.1902 -2.6959 -1.1528
   59MOL0     H 7746   3.487   8.746   0.011  0.7918 -3.9679  0.5199
   59MOL0     H 7747   3.563   8.700   0.165 -0.9417 -1.1296  0.4290
   59MOL0     H 7748   3.358   8.637   0.265 -1.6236  1.9205 -0.5235
   59MOL0     H 7749   3.363   8.548   0.115 -2.8871 -0.3559 -0.6824
   59MOL0     H 7750   3.154   8.555   0.296  1.8027 -2.2261 -2.2303
   59MOL0     H 7751   2.938   8.421   0.267 -3.6569  0.1098 -0.8107
   59MOL0     H 7752   2.601   8.205   0.307  1.4733 -1.0579 -1.3700
   59MOL0     H 7753   2.358   8.100   0.295 -2.5049  1.6218  0.3516
   59MOL0     H 7754   2.006   8.111   0.056  0.3458  0.0944  0.5266
   59MOL0     H 7755   2.082   8.248  -0.030 -1.7698 -1.8846 -2.0442
   59MOL0     H 7756   2.133   8.347   0.187 -2.3005  2.1835  0.4116
   59MOL0     H 7757   2.045   8.221   0.266  0.4906  0.4915  0.4719
   59MOL0     H 7758   1.935   8.429   0.080  2.1823 -0.0790  0.1734
   59MOL0     H 7759   1.897   8.420   0.249 -1.3819  3.3142 -2.4881
   59MOL0     H 7760   1.797   8.231   0.032 -1.0172 -0.6295  0.5260
   59MOL0     H 7761   1.812   8.169   0.205  1.5855  1.7441  2.0261
   59MOL0     H 7762   1.645   8.393   0.072 -1.7051 -2.3807 -1.5793
   59MOL0     H 7763   1.671   8.379   0.252  2.4790 -2.2740  1.8319
   59MOL0     H 7764   1.563   8.171   0.079  1.6914  2.9611 -1.4089
   59MOL0     H 7765   1.451   8.289   0.139 -0.7603 -0.2525 -0.0540
   59MOL0     H 7766   1.631   8.136   0.336 -0.4521 -0.3239 -0.3764
   59MOL0     H 7767   1.480   8.212   0.374  1.6359  2.9044 -0.7621
   59MOL0     H 7768   1.465   7.972   0.365 -1.3178  0.0347 -0.4633
   59MOL0     H 7769   1.509   7.979   0.191  2.7733 -2.8933  3.0161
   59MOL0     H 7770   2.304   8.305  -0.071  2.3030 -1.4066 -2.0454
   59MOL0     H 7771   2.502   8.434  -0.038  0.7599 -0.5276  0.2480
   59MOL0     H 7772   2.865   8.632  -0.091  1.7647  2.6010 -0.5903
   59MOL0     H 7773   3.084   8.738  -0.081  0.1179 -3.5614 -1.3847
   59MOL0     H 7774   3.736   8.211   1.134  2.8044  0.7338  1.0077
   59MOL0     H 7775   3.662   8.037   1.275 -2.3983 -1.4357  2.4423
   59MOL0     H 7776   3.407   8.033   1.728  4.0631 -0.2553  1.1118
   59MOL0     H 7777   3.269   7.868   1.885  0.9273 -3.5723  1.3194
   59MOL0     H 7778   3.414   7.484   1.933 -0.1842 -4.4402  0.5723
   59MOL0     H 7779   3.305   7.439   1.796 -0.4838  2.5372 -1.2969
   59MOL0     H 7780   3.265   7.308   1.999 -0.5798  0.0297  2.1254
   59MOL0     H 7781   3.231   7.446   2.094 -0.1242 -0.2333 -0.9393
   59MOL0     H 7782   3.070   7.353   1.850 -0.0124  0.6276  0.0288
   59MOL0     H 7783   3.036   7.494   1.947 -0.7087 -1.4010 -1.7457
   59MOL0     H 7784   2.903   7.283   2.029 -0.5983  3.5235 -2.7253
   59MOL0     H 7785   3.062   7.222   2.092  0.3028  0.6943 -1.2274
   59MOL0     H 7786   2.941   7.475   2.396  1.3952  1.5638 -1.2356
   59MOL0     H 7787   3.447   7.537   1.676  0.8450  0.3022  0.8184
   59MOL0     H 7788   3.556   7.691   1.519 -0.1856  0.7211  0.5522
   60MOL0     O 7789   9.122   9.113   3.141 -0.2976  1.1485 -0.0442
   60MOL0     C 7790   9.200   9.030   3.088  0.7730  0.0331  0.2495
   60MOL0     O 7791   9.174   8.892   3.059 -0.0887 -0.2020  0.3315
   60MOL0     C 7792   9.059   8.831   3.092  0.0067 -0.5562  0.6478
   60MOL0     C 7793   9.068   8.686   3.107  0.2054 -0.5709 -0.7700
   60MOL0     C 7794   8.960   8.612   3.156 -0.4207 -0.3785  0.4990
   60MOL0     C 7795   8.833   8.670   3.160 -0.0127 -0.1829 -0.3702
   60MOL0     O 7796   8.724   8.600   3.199  0.7751  0.1836  0.2578
   60MOL0     C 7797   8.730   8.465   3.141  0.8370  0.3757 -0.5999
   60MOL0     C 7798   8.586   8.415   3.170  0.9356  1.1738 -0.2805
   60MOL0     C 7799   8.576   8.263   3.141 -0.0107  0.0013 -0.7034
   60MOL0     C 7800   8.440   8.205   3.148  0.6413 -0.0853 -0.0876
   60MOL0     C 7801   8.430   8.060   3.101 -0.0801  0.6530 -0.0418
   60MOL0     C 7802   8.513   7.960   3.186 -0.2483  0.6501  0.0113
   60MOL0     C 7803   8.490   7.811   3.147 -0.4313 -0.3079 -0.2131
   60MOL0     C 7804   8.596   7.714   3.202  0.6274 -0.0893  0.4225
   60MOL0     N 7805   8.553   7.650   3.332  1.0605  0.1974  0.0721
   60MOL0     C 7806   8.529   7.719   3.446  0.7872 -0.0746 -1.0197
   60MOL0     C 7807   8.476   7.623   3.527 -0.8066 -0.3332  0.6501
   60MOL0     C 7808   8.443   7.653   3.668  0.7355 -0.9708 -0.5698
   60MOL0     C 7809   8.563   7.631   3.771 -0.3574 -0.4739  0.1952
   60MOL0     C 7810   8.667   7.741   3.734 -0.3252 -0.1487 -0.1015
   60MOL0     C 7811   8.780   7.729   3.840  0.8867  0.4351  0.3857
   60MOL0     O 7812   8.877   7.834   3.837 -0.3391  0.0304  0.1011
   60MOL0     C 7813   8.831   7.955   3.876  0.2633 -0.8147  1.2442
   60MOL0     C 7814   8.853   8.067   3.794 -0.4324 -0.6878 -0.2150
   60MOL0     C 7815   8.816   8.194   3.839  0.3337  0.2590 -0.1431
   60MOL0     C 7816   8.766   8.214   3.970 -0.1123  0.8583  0.7868
   60MOL0     C 7817   8.732   8.356   4.006  0.5953  0.6556 -1.4228
   60MOL0     O 7818   8.795   8.458   3.946  0.2373  0.7096 -0.3649
   60MOL0     C 7819   8.794   8.573   4.025  0.5008  0.7913  0.1955
   60MOL0     C 7820   8.740   8.692   3.980 -1.1565 -0.3942 -0.5912
   60MOL0     C 7821   8.770   8.804   4.060 -0.5162 -0.0440  0.8333
   60MOL0     C 7822   8.830   8.805   4.182  0.2972  0.0352  0.1373
   60MOL0     O 7823   8.828   8.926   4.238  0.2426  0.1857 -0.6003
   60MOL0     C 7824   8.865   8.943   4.372  0.0233  0.2387 -0.4105
   60MOL0     C 7825   8.900   9.085   4.390  0.2170  0.3442  0.0849
   60MOL0     C 7826   8.920   9.125   4.534  0.1847 -1.1776  0.6121
   60MOL0     C 7827   9.066   9.091   4.576  0.8000 -0.3367 -0.4620
   60MOL0     C 7828   9.097   9.168   4.707  0.5800 -0.2553 -0.1338
   60MOL0     C 7829   9.217   9.094   4.764 -0.3872 -0.1612  0.2339
   60MOL0     C 7830   9.289   9.159   4.886  0.1889  0.1293  0.1248
   60MOL0     C 7831   9.416   9.083   4.924 -0.7242 -1.1454  0.3329
   60MOL0    Cl 7832   9.482   9.133   5.084 -0.1779 -0.4586  0.1426
   60MOL0     C 7833   8.876   8.686   4.225  0.4648 -0.3878 -0.9068
   60MOL0     C 7834   8.856   8.574   4.149  0.5436  0.1147 -0.6601
   60MOL0     O 7835   8.636   8.364   4.092 -0.3727 -0.3383  0.4374
   60MOL0     C 7836   8.753   8.104   4.056 -0.0103 -0.3092  0.1949
   60MOL0     C 7837   8.785   7.979   4.009 -0.0655 -0.0751  0.2428
   60MOL0     N 7838   8.443   7.504   3.457 -0.6981 -0.3039 -0.4647
   60MOL0     N 7839   8.507   7.513   3.341  0.3374  0.8078 -0.3505
   60MOL0     C 7840   8.822   8.811   3.134 -0.3406  0.1816 -0.3743
   60MOL0     C 7841   8.933   8.890   3.094  0.5826  0.7845 -0.0124
   60MOL0     C 7842   9.336   9.081   3.059  0.0875  0.5087  0.2155
   60MOL0     C 7843   9.440   8.997   3.027  0.6364  0.1372  0.5940
   60MOL0     C 7844   9.572   9.046   3.037  0.7436 -0.6922  0.1454
   60MOL0     C 7845   9.594   9.182   3.027 -0.6128 -0.0586  0.0959
   60MOL0     O 7846   9.727   9.218   3.041  0.3701  0.7290 -0.0849
   60MOL0     C 7847   9.759   9.354   3.010  0.3856  0.1770 -0.4679
   60MOL0     C 7848   9.774   9.366   2.866 -0.3931  0.5706 -0.2973
   60MOL0     C 7849   9.895   9.277   2.820  0.8749  0.5083 -0.5952
   60MOL0     C 7850  10.029   9.325   2.872  0.5121 -0.2781  1.1411
   60MOL0     C 7851  10.127   9.256   2.785  0.4573 -1.4662 -1.0403
   60MOL0     C 7852  10.209   9.214   2.706  0.2139  0.1676 -0.1243
   60MOL0     C 7853   9.482   9.268   3.029 -0.5134  0.0453 -0.0641
   60MOL0     C 7854   9.360   9.222   3.062  0.9918 -0.0820  0.6023
   60MOL0     H 7855   9.169   8.645   3.104  1.6843  2.7009 -0.8618
   60MOL0     H 7856   8.991   8.509   3.165  1.7035  0.2990  1.4985
   60MOL0     H 7857   8.793   8.407   3.210 -2.2807 -1.7232  0.7446
   60MOL0     H 7858   8.761   8.459   3.037  0.4132 -4.5990 -0.6617
   60MOL0     H 7859   8.508   8.481   3.132  0.6621  0.5209 -0.8740
   60MOL0     H 7860   8.558   8.421   3.275 -0.8300 -0.6470 -0.5658
   60MOL0     H 7861   8.643   8.209   3.208 -0.8466 -0.8514 -0.5427
   60MOL0     H 7862   8.612   8.250   3.038 -3.0183 -2.9234 -1.5560
   60MOL0     H 7863   8.395   8.216   3.247  0.7637  1.9696 -0.2096
   60MOL0     H 7864   8.371   8.261   3.083 -1.8653  0.7771  3.0583
   60MOL0     H 7865   8.458   8.053   2.996  0.2519 -1.2559  0.1524
   60MOL0     H 7866   8.323   8.040   3.098 -0.5693  3.0557 -1.7814
   60MOL0     H 7867   8.494   7.974   3.293 -0.2050 -1.1951  0.2908
   60MOL0     H 7868   8.619   7.984   3.175 -0.4231  0.3201 -4.0166
   60MOL0     H 7869   8.390   7.779   3.177 -1.5686  2.3623 -0.7672
   60MOL0     H 7870   8.491   7.801   3.038 -2.1304 -0.4607 -0.2469
   60MOL0     H 7871   8.695   7.759   3.199  0.3568  0.4773 -0.3775
   60MOL0     H 7872   8.601   7.627   3.136 -0.5384 -2.6311  3.4167
   60MOL0     H 7873   8.542   7.823   3.473  0.6070 -0.1267 -0.7269
   60MOL0     H 7874   8.366   7.588   3.711 -2.0764  2.5711  0.3179
   60MOL0     H 7875   8.401   7.754   3.666 -1.0141 -1.6637 -1.1993
   60MOL0     H 7876   8.608   7.532   3.769  2.3620  0.4538  4.1138
   60MOL0     H 7877   8.527   7.633   3.875  0.2622  0.1676  0.4023
   60MOL0     H 7878   8.700   7.726   3.631 -1.4602  0.2192 -0.5412
   60MOL0     H 7879   8.625   7.842   3.745 -1.4443 -0.7414  1.5288
   60MOL0     H 7880   8.829   7.635   3.812 -0.0622 -0.7712  2.5908
   60MOL0     H 7881   8.762   7.729   3.948  2.5942  0.9872  0.7005
   60MOL0     H 7882   8.899   8.069   3.696 -1.3747  1.6789 -0.6995
   60MOL0     H 7883   8.832   8.280   3.775 -0.2247  0.0517 -0.5740
   60MOL0     H 7884   8.700   8.694   3.879  1.0557  0.9670 -1.5189
   60MOL0     H 7885   8.737   8.896   4.012  0.6770  0.7443  1.4983
   60MOL0     H 7886   8.947   8.876   4.399  0.3508  0.2098 -1.4090
   60MOL0     H 7887   8.770   8.926   4.424 -1.2714  1.3027 -2.2851
   60MOL0     H 7888   8.809   9.144   4.377  0.4485  0.5147 -0.8338
   60MOL0     H 7889   8.986   9.107   4.326  1.7447  0.5954  2.1234
   60MOL0     H 7890   8.842   9.089   4.601  0.4980  1.4203  2.5589
   60MOL0     H 7891   8.913   9.234   4.542  1.2766 -0.8445 -1.8859
   60MOL0     H 7892   9.081   8.983   4.585  0.7939 -0.3276 -0.3553
   60MOL0     H 7893   9.137   9.141   4.508  1.1670  2.3798  1.7156
   60MOL0     H 7894   9.007   9.178   4.767  1.3756  1.4780  0.8313
   60MOL0     H 7895   9.128   9.265   4.668  1.7241 -0.2344  0.7553
   60MOL0     H 7896   9.288   9.079   4.682 -0.6220 -0.2201  0.0376
   60MOL0     H 7897   9.190   8.993   4.797 -1.9587 -0.5456 -2.0002
   60MOL0     H 7898   9.302   9.266   4.867  0.7737  0.5241  2.4289
   60MOL0     H 7899   9.223   9.148   4.972 -1.9564  0.6360 -1.3666
   60MOL0     H 7900   9.486   9.099   4.843 -0.3554 -0.7426  0.7290
   60MOL0     H 7901   9.387   8.977   4.931  1.2472 -1.6370  2.6946
   60MOL0     H 7902   8.934   8.678   4.316 -1.7001  2.2631  0.8561
   60MOL0     H 7903   8.895   8.478   4.181  0.9104  0.7235  0.8526
   60MOL0     H 7904   8.710   8.120   4.154  5.3972 -1.7012  3.1776
   60MOL0     H 7905   8.768   7.896   4.078 -1.3317 -0.3096 -0.3238
   60MOL0     H 7906   8.723   8.855   3.144 -0.0459  0.3969  2.2133
   60MOL0     H 7907   8.922   8.988   3.050 -0.6220  1.9709  2.7108
   60MOL0     H 7908   9.413   8.893   3.015 -4.8784  1.1468  1.5322
   60MOL0     H 7909   9.666   8.993   3.041 -0.2886 -2.6578 -0.3709
   60MOL0     H 7910   9.848   9.383   3.066 -1.0340 -2.2256  3.5090
   60MOL0     H 7911   9.679   9.422   3.042 -0.4700 -0.9804 -0.0767
   60MOL0     H 7912   9.676   9.330   2.835  0.3020 -0.7577 -1.0793
   60MOL0     H 7913   9.794   9.467   2.828 -0.1918 -0.4351 -3.1818
   60MOL0     H 7914   9.887   9.281   2.710  2.6153 -2.3138 -0.9002
   60MOL0     H 7915   9.870   9.177   2.856 -1.4155  1.5763  1.0846
   60MOL0     H 7916  10.042   9.432   2.854 -0.8455 -0.2519  0.1205
   60MOL0     H 7917  10.050   9.314   2.979 -4.5226  1.2857  2.5991
   60MOL0     H 7918  10.269   9.174   2.626  0.7350 -0.6459  0.6558
   60MOL0     H 7919   9.483   9.376   3.037 -0.5017 -0.0720  2.2308
   60MOL0     H 7920   9.286   9.301   3.075  1.1695  0.1168  0.4166
   61MOL0     O 7921   3.658   7.475   6.808  0.8847 -0.5256 -0.3036
   61MOL0     C 7922   3.610   7.418   6.711  0.3321  0.3129  0.7164
   61MOL0     O 7923   3.676   7.320   6.635 -0.6313  0.1567 -0.5002
   61MOL0     C 7924   3.810   7.312   6.641  0.2073  1.1478 -0.4107
   61MOL0     C 7925   3.907   7.416   6.656  0.5119  0.3713  0.1410
   61MOL0     C 7926   4.039   7.392   6.681 -0.5877 -0.3306 -0.7760
   61MOL0     C 7927   4.075   7.257   6.683 -0.3537  0.3312 -0.2629
   61MOL0     O 7928   4.207   7.232   6.690  0.7075  0.3861  0.0531
   61MOL0     C 7929   4.297   7.292   6.790  0.3090 -0.1474 -0.1742
   61MOL0     C 7930   4.385   7.406   6.728  0.5594  1.1925 -0.1939
   61MOL0     C 7931   4.481   7.482   6.831 -0.4671  0.6093  0.0363
   61MOL0     C 7932   4.575   7.583   6.763 -0.1496  0.4348 -0.4286
   61MOL0     C 7933   4.661   7.652   6.867 -0.3756 -0.5419  1.2403
   61MOL0     C 7934   4.742   7.561   6.964  0.6159  0.9731 -0.2802
   61MOL0     C 7935   4.822   7.648   7.060  0.4397 -0.6545 -0.0954
   61MOL0     C 7936   4.735   7.722   7.166 -0.1992 -0.0668 -0.6969
   61MOL0     N 7937   4.809   7.818   7.247 -0.1670  0.1327 -0.0727
   61MOL0     C 7938   4.812   7.951   7.222  0.3410 -0.2246 -0.5043
   61MOL0     C 7939   4.878   8.011   7.326  0.7625 -0.2960 -0.7967
   61MOL0     C 7940   4.919   8.155   7.343  0.6739 -0.2920  1.0651
   61MOL0     C 7941   4.905   8.251   7.220 -0.0336 -0.2257 -0.3773
   61MOL0     C 7942   4.993   8.379   7.240 -0.2483 -0.4396 -0.5893
   61MOL0     C 7943   4.934   8.476   7.349  0.7034  0.0524 -1.0992
   61MOL0     O 7944   4.823   8.554   7.294 -0.8786 -0.5847  0.5241
   61MOL0     C 7945   4.725   8.605   7.374  0.4023  0.4770  0.3080
   61MOL0     C 7946   4.741   8.640   7.507 -0.5411 -0.6105  0.3339
   61MOL0     C 7947   4.643   8.689   7.588 -0.0423 -0.8202  0.8274
   61MOL0     C 7948   4.507   8.705   7.536 -0.3023  0.0407  0.5457
   61MOL0     C 7949   4.404   8.762   7.622  0.3621  0.3902 -0.2892
   61MOL0     O 7950   4.440   8.813   7.743  0.9148  0.1957  0.3274
   61MOL0     C 7951   4.355   8.870   7.838  0.5200  0.1616  0.3517
   61MOL0     C 7952   4.264   8.794   7.911 -1.3199 -0.7069  0.3265
   61MOL0     C 7953   4.181   8.857   8.009  0.1322 -0.0826 -0.1989
   61MOL0     C 7954   4.196   8.998   8.040  0.1240  0.7918  0.1537
   61MOL0     O 7955   4.110   9.049   8.127 -0.3707 -0.4606  0.0970
   61MOL0     C 7956   4.015   9.121   8.047 -0.2069  0.1837 -0.5996
   61MOL0     C 7957   3.978   9.256   8.110  0.3316 -0.7691  0.2710
   61MOL0     C 7958   4.023   9.291   8.242 -0.4160 -0.1387  0.4065
   61MOL0     C 7959   3.970   9.196   8.348  0.7312  0.7446  0.4021
   61MOL0     C 7960   3.963   9.253   8.480  0.3903  0.0721  0.6575
   61MOL0     C 7961   4.094   9.291   8.555  0.1035 -0.3440 -0.0485
   61MOL0     C 7962   4.064   9.372   8.676  0.9978  0.7008 -0.3253
   61MOL0     C 7963   4.030   9.272   8.790 -0.2668 -0.4626 -1.2970
   61MOL0    Cl 7964   4.007   9.367   8.953 -0.1883 -0.0216 -0.3658
   61MOL0     C 7965   4.290   9.068   7.966  0.7143  0.4262 -0.2408
   61MOL0     C 7966   4.373   9.004   7.871  0.4129 -0.1613  1.1779
   61MOL0     O 7967   4.295   8.762   7.572 -0.0618 -0.1163 -0.8196
   61MOL0     C 7968   4.485   8.689   7.397 -0.3716  0.1413  0.4540
   61MOL0     C 7969   4.592   8.637   7.314 -0.5915  1.3358 -0.3774
   61MOL0     N 7970   4.921   7.917   7.409  0.7284  0.3036  0.3348
   61MOL0     N 7971   4.881   7.798   7.364 -1.0190 -0.9665  0.9175
   61MOL0     C 7972   3.992   7.154   6.667  0.4255  0.4447 -0.7247
   61MOL0     C 7973   3.857   7.181   6.644 -0.4663 -1.2588 -0.2559
   61MOL0     C 7974   3.465   7.443   6.679  0.2206 -0.7106  0.3510
   61MOL0     C 7975   3.374   7.482   6.781  0.6200  0.4863 -0.0196
   61MOL0     C 7976   3.244   7.506   6.750  0.4502  0.2955  0.2872
   61MOL0     C 7977   3.189   7.502   6.620  0.2592 -0.4241 -0.1669
   61MOL0     O 7978   3.057   7.526   6.607  0.1334 -0.3647 -0.1977
   61MOL0     C 7979   2.990   7.505   6.480 -1.2534  0.8142  0.7031
   61MOL0     C 7980   2.958   7.357   6.459  0.0214  0.1222 -0.3544
   61MOL0     C 7981   2.865   7.346   6.335  0.2195 -0.1763  0.0986
   61MOL0     C 7982   2.821   7.204   6.307  0.2370 -0.6313 -0.3143
   61MOL0     C 7983   2.728   7.180   6.193  0.9542 -0.3869 -0.0391
   61MOL0     C 7984   2.648   7.167   6.100 -0.6930 -0.1687 -0.0866
   61MOL0     C 7985   3.278   7.462   6.522 -0.8420 -0.0200  0.1692
   61MOL0     C 7986   3.410   7.423   6.551 -0.8826 -0.5547 -0.2272
   61MOL0     H 7987   3.871   7.516   6.676 -0.4737  0.0457  0.0293
   61MOL0     H 7988   4.100   7.475   6.713  0.4080 -1.9649  1.9076
   61MOL0     H 7989   4.367   7.220   6.833 -0.8737 -2.6637 -2.2295
   61MOL0     H 7990   4.237   7.332   6.873  0.3242  0.0795 -0.2738
   61MOL0     H 7991   4.331   7.472   6.660  1.2523  2.7702  0.7385
   61MOL0     H 7992   4.445   7.355   6.651 -1.6182 -1.1659 -0.4660
   61MOL0     H 7993   4.541   7.413   6.892 -0.6214  1.0311  0.6726
   61MOL0     H 7994   4.422   7.533   6.908 -1.1100  0.3391 -0.2720
   61MOL0     H 7995   4.637   7.535   6.687  1.3211 -0.2340  1.1143
   61MOL0     H 7996   4.511   7.652   6.707 -1.0111 -1.0709 -1.3550
   61MOL0     H 7997   4.599   7.723   6.923 -0.3362 -0.6806  1.4601
   61MOL0     H 7998   4.728   7.717   6.811 -0.8800  2.6943  4.0562
   61MOL0     H 7999   4.807   7.489   6.914  0.3311 -1.1512  2.2308
   61MOL0     H 8000   4.677   7.495   7.022  2.2422  0.0572  0.5697
   61MOL0     H 8001   4.899   7.589   7.110  0.2023  0.9175  2.2861
   61MOL0     H 8002   4.869   7.726   6.999  0.3741 -0.4234  0.1482
   61MOL0     H 8003   4.692   7.638   7.221 -1.3498  2.1313  1.9834
   61MOL0     H 8004   4.655   7.777   7.114 -1.6500  0.0017  1.4753
   61MOL0     H 8005   4.777   7.999   7.131  0.8148  0.2165 -0.4576
   61MOL0     H 8006   5.023   8.160   7.376  2.5088 -4.4519 -3.0050
   61MOL0     H 8007   4.857   8.204   7.419 -0.4193 -1.2164  0.7904
   61MOL0     H 8008   4.798   8.273   7.209  0.0814  1.2439  1.1272
   61MOL0     H 8009   4.941   8.199   7.130  1.4303 -3.2594  1.7855
   61MOL0     H 8010   5.092   8.360   7.282 -1.5873 -3.9258  1.3980
   61MOL0     H 8011   5.002   8.439   7.148  1.0383  3.6332  1.9195
   61MOL0     H 8012   5.013   8.543   7.384  1.5038 -1.9494  1.1586
   61MOL0     H 8013   4.902   8.419   7.437  0.8958  1.1369 -0.3155
   61MOL0     H 8014   4.841   8.631   7.548  0.9263 -0.1320 -2.7849
   61MOL0     H 8015   4.642   8.696   7.696 -2.1056  1.9755  0.7644
   61MOL0     H 8016   4.255   8.689   7.886  1.8343 -0.8908 -0.5207
   61MOL0     H 8017   4.105   8.803   8.065 -0.1766 -0.7703 -1.2574
   61MOL0     H 8018   3.925   9.060   8.037  1.2204 -2.4927  1.4628
   61MOL0     H 8019   4.058   9.150   7.950  1.2930  0.2807  0.0716
   61MOL0     H 8020   3.869   9.264   8.106  0.3462 -0.1681 -3.7924
   61MOL0     H 8021   4.014   9.330   8.037  0.5570  0.2126  1.3494
   61MOL0     H 8022   4.012   9.395   8.272  4.8817  0.4458  1.1737
   61MOL0     H 8023   4.130   9.271   8.237 -0.5875 -0.9815 -0.0681
   61MOL0     H 8024   3.864   9.177   8.325  0.3238  0.8893  2.0692
   61MOL0     H 8025   4.027   9.103   8.339 -3.8794 -2.2896 -0.8750
   61MOL0     H 8026   3.918   9.169   8.534  0.5917 -1.4537 -1.4297
   61MOL0     H 8027   3.897   9.340   8.483  2.5044  1.8791 -1.1857
   61MOL0     H 8028   4.136   9.368   8.490 -0.9434 -2.0379 -2.9341
   61MOL0     H 8029   4.167   9.215   8.582  0.6944  0.9601  2.3095
   61MOL0     H 8030   4.150   9.434   8.703 -0.4322  1.5493  2.7225
   61MOL0     H 8031   3.975   9.434   8.662  2.8437  4.1904  1.9444
   61MOL0     H 8032   4.115   9.204   8.803  1.4031  1.6333 -0.8013
   61MOL0     H 8033   3.935   9.225   8.763  0.5621 -1.0383 -3.3977
   61MOL0     H 8034   4.303   9.173   7.987  2.3881 -0.2654  2.7705
   61MOL0     H 8035   4.453   9.050   7.814 -1.5306  3.0899  0.8436
   61MOL0     H 8036   4.385   8.700   7.355  1.1996 -0.7656 -4.1868
   61MOL0     H 8037   4.584   8.618   7.208 -3.7265  1.4815 -0.2362
   61MOL0     H 8038   4.036   7.055   6.667  3.3430  1.6354 -1.1563
   61MOL0     H 8039   3.789   7.097   6.648  0.1073 -1.7605 -0.8401
   61MOL0     H 8040   3.394   7.490   6.887  0.0603 -1.6960  0.3068
   61MOL0     H 8041   3.184   7.526   6.838  1.4220 -0.5915  1.1735
   61MOL0     H 8042   3.047   7.547   6.397 -3.2041  0.1906 -1.0193
   61MOL0     H 8043   2.891   7.552   6.482 -2.1658 -0.8765 -1.2612
   61MOL0     H 8044   3.051   7.301   6.443  1.1914  2.0728 -0.7012
   61MOL0     H 8045   2.909   7.315   6.547  1.4981 -0.7892  0.0592
   61MOL0     H 8046   2.917   7.384   6.247 -1.4408  0.0918 -0.8067
   61MOL0     H 8047   2.774   7.399   6.363  0.4409 -0.7964  2.1920
   61MOL0     H 8048   2.914   7.154   6.278  1.5168  1.1987  0.4445
   61MOL0     H 8049   2.779   7.155   6.396  1.3689  0.0284  0.6090
   61MOL0     H 8050   2.588   7.158   6.012 -0.5691 -1.2394 -0.0775
   61MOL0     H 8051   3.256   7.460   6.415 -0.5259  1.9427  0.0377
   61MOL0     H 8052   3.474   7.396   6.468 -1.3274  1.7816 -1.4066
   62MOL0     O 8053   0.437   5.041   6.215 -0.0465 -0.5121  0.7487
   62MOL0     C 8054   0.378   5.055   6.321  0.9759  0.3568  0.5969
   62MOL0     O 8055   0.434   5.075   6.440 -0.0152  0.5153 -0.6341
   62MOL0     C 8056   0.573   5.103   6.436 -0.7618 -0.1737 -0.9526
   62MOL0     C 8057   0.647   5.058   6.544  0.1867  0.7341 -0.1896
   62MOL0     C 8058   0.780   5.081   6.553  0.0911 -0.3983  0.0009
   62MOL0     C 8059   0.849   5.163   6.446 -0.8907  0.2340 -0.0568
   62MOL0     O 8060   0.979   5.207   6.458 -0.5219 -0.0687 -0.0005
   62MOL0     C 8061   1.038   5.223   6.589  0.1574  0.2506  0.6400
   62MOL0     C 8062   1.117   5.351   6.599 -0.1122  0.0330 -0.5015
   62MOL0     C 8063   1.269   5.348   6.557  0.5170 -0.0955  0.0630
   62MOL0     C 8064   1.337   5.485   6.591  0.5937  0.2690  0.2160
   62MOL0     C 8065   1.488   5.466   6.619  0.1731  0.7709 -0.0753
   62MOL0     C 8066   1.567   5.424   6.503  0.1372 -0.0726 -0.4187
   62MOL0     C 8067   1.718   5.423   6.520 -0.7119 -0.2978 -0.2264
   62MOL0     C 8068   1.795   5.369   6.393  0.0287 -0.5405  0.2424
   62MOL0     N 8069   1.798   5.223   6.381  0.3458 -1.1551  0.2747
   62MOL0     C 8070   1.861   5.145   6.287 -1.0927  0.6212  0.1526
   62MOL0     C 8071   1.863   5.024   6.343  0.1647 -0.1593 -0.6457
   62MOL0     C 8072   1.923   4.893   6.280  0.0472  0.6888  0.4174
   62MOL0     C 8073   2.071   4.899   6.272 -0.3268 -0.4921 -0.1226
   62MOL0     C 8074   2.141   4.770   6.215 -0.0319  0.5480 -0.3987
   62MOL0     C 8075   2.267   4.816   6.140 -0.5852  0.9587  0.6161
   62MOL0     O 8076   2.226   4.885   6.024 -0.4121 -0.2803  0.0649
   62MOL0     C 8077   2.323   4.950   5.955 -0.3444  0.4229 -0.5213
   62MOL0     C 8078   2.464   4.927   5.959  0.7699 -0.6285  0.4011
   62MOL0     C 8079   2.544   5.000   5.868 -0.2042 -0.1468  0.2006
   62MOL0     C 8080   2.490   5.092   5.771  0.0391 -0.0352 -0.3845
   62MOL0     C 8081   2.583   5.157   5.681  0.5467  0.3376 -0.4889
   62MOL0     O 8082   2.531   5.226   5.564 -1.2688 -0.1006 -0.0142
   62MOL0     C 8083   2.624   5.269   5.476  0.1932  1.2461 -0.5289
   62MOL0     C 8084   2.651   5.203   5.357  0.3077  0.0033  0.4102
   62MOL0     C 8085   2.730   5.269   5.263  0.0769 -0.3791 -0.2237
   62MOL0     C 8086   2.788   5.396   5.287  0.9313  0.0325 -0.2718
   62MOL0     O 8087   2.871   5.443   5.192 -0.9729  0.1796 -0.4763
   62MOL0     C 8088   2.916   5.580   5.195  0.5556 -0.8188  0.4119
   62MOL0     C 8089   2.968   5.632   5.065 -0.1542  0.0775  1.0933
   62MOL0     C 8090   2.848   5.666   4.961 -0.3112  0.1747  0.3780
   62MOL0     C 8091   2.780   5.794   5.010 -0.1846  0.0205  0.1481
   62MOL0     C 8092   2.635   5.820   4.968  0.2154 -0.2960  0.4912
   62MOL0     C 8093   2.605   5.904   4.835  0.5739  0.0530  0.3300
   62MOL0     C 8094   2.611   6.061   4.859 -0.2678  0.6014 -0.1231
   62MOL0     C 8095   2.552   6.144   4.753 -0.4877  0.0032 -0.5639
   62MOL0    Cl 8096   2.656   6.140   4.599 -0.1825 -0.5172 -0.1240
   62MOL0     C 8097   2.770   5.454   5.416  0.0113  0.1289 -0.0956
   62MOL0     C 8098   2.687   5.387   5.507 -1.0134 -1.6133 -0.0050
   62MOL0     O 8099   2.700   5.160   5.714 -0.8287 -0.5647  0.4872
   62MOL0     C 8100   2.355   5.122   5.777 -0.2237  0.5517 -0.6159
   62MOL0     C 8101   2.275   5.046   5.859  0.6293 -2.1490 -0.2876
   62MOL0     N 8102   1.792   5.026   6.456  0.3108  0.2890 -0.1719
   62MOL0     N 8103   1.760   5.144   6.484 -1.3910 -0.5697  0.4263
   62MOL0     C 8104   0.781   5.203   6.332 -0.0579 -0.5145  0.0025
   62MOL0     C 8105   0.639   5.178   6.334 -0.1304 -0.0543 -0.1563
   62MOL0     C 8106   0.227   5.060   6.326  0.8175  0.2345  0.2002
   62MOL0     C 8107   0.163   5.125   6.434 -0.1566  0.6546 -0.3664
   62MOL0     C 8108   0.023   5.144   6.450  0.4877  0.1092  0.3115
   62MOL0     C 8109  -0.057   5.092   6.350  0.1791 -0.4132 -0.1873
   62MOL0     O 8110  -0.186   5.117   6.358 -0.2933 -0.2428  0.6978
   62MOL0     C 8111  -0.249   5.102   6.496  0.1875 -0.3064 -0.6953
   62MOL0     C 8112  -0.396   5.102   6.476 -1.0824  0.3813  0.5799
   62MOL0     C 8113  -0.461   5.159   6.593  0.4780 -1.1561 -0.2018
   62MOL0     C 8114  -0.610   5.167   6.596 -0.2858  0.1366 -0.7431
   62MOL0     C 8115  -0.679   5.040   6.591  0.5728  0.7821 -0.4819
   62MOL0     C 8116  -0.754   4.941   6.590 -0.6843  0.3421 -0.9100
   62MOL0     C 8117   0.003   5.015   6.239 -0.7853 -0.2051 -0.6744
   62MOL0     C 8118   0.140   4.992   6.235  0.1109 -0.6696  0.8922
   62MOL0     H 8119   0.601   4.999   6.623  2.4199  0.6626  1.1354
   62MOL0     H 8120   0.839   5.040   6.634 -0.3211 -2.3769 -0.6491
   62MOL0     H 8121   1.102   5.138   6.616  1.5018  0.4823 -1.5281
   62MOL0     H 8122   0.962   5.228   6.667 -3.3647 -1.4824 -2.4153
   62MOL0     H 8123   1.130   5.377   6.705  3.2196 -0.9095 -0.5682
   62MOL0     H 8124   1.063   5.435   6.557 -0.3550 -0.7173 -1.7285
   62MOL0     H 8125   1.290   5.319   6.454 -2.5043 -1.7638 -0.1981
   62MOL0     H 8126   1.320   5.259   6.595  0.2419 -0.0811  0.4762
   62MOL0     H 8127   1.328   5.540   6.497 -3.8361 -2.7210 -1.3988
   62MOL0     H 8128   1.294   5.540   6.675 -0.9020  0.1081 -0.4183
   62MOL0     H 8129   1.502   5.405   6.708 -0.7713  0.3423 -0.2161
   62MOL0     H 8130   1.526   5.566   6.645  1.9965 -0.2692  1.4530
   62MOL0     H 8131   1.536   5.485   6.418 -1.9048  2.9044  2.2316
   62MOL0     H 8132   1.537   5.322   6.477  0.0108 -0.4977  1.2599
   62MOL0     H 8133   1.748   5.528   6.519 -0.2902 -0.4235 -1.1541
   62MOL0     H 8134   1.745   5.368   6.611  4.4782 -0.2292 -1.4179
   62MOL0     H 8135   1.899   5.399   6.409 -0.6622  1.0242  2.3768
   62MOL0     H 8136   1.750   5.427   6.312  0.7949  2.2948  1.7166
   62MOL0     H 8137   1.912   5.186   6.200  2.8394 -1.7423  1.1291
   62MOL0     H 8138   1.875   4.880   6.183 -0.0018 -1.1635  0.6487
   62MOL0     H 8139   1.897   4.808   6.344  0.9777 -0.3395 -0.5352
   62MOL0     H 8140   2.109   4.927   6.370 -0.5056  0.9485 -0.4359
   62MOL0     H 8141   2.098   4.980   6.204 -0.2093 -1.1000 -0.8232
   62MOL0     H 8142   2.162   4.689   6.286  3.8110 -2.2708 -4.1958
   62MOL0     H 8143   2.083   4.729   6.131  2.8188 -0.7491 -1.8866
   62MOL0     H 8144   2.323   4.728   6.108 -2.8626  0.2107 -1.5989
   62MOL0     H 8145   2.332   4.867   6.212  1.2334 -1.9178  1.1811
   62MOL0     H 8146   2.511   4.849   6.018  1.6204  0.3974  1.1113
   62MOL0     H 8147   2.649   4.978   5.858 -0.2526  0.2414 -1.4334
   62MOL0     H 8148   2.611   5.105   5.332  1.3416  0.1489 -2.2348
   62MOL0     H 8149   2.752   5.215   5.172 -0.7616  0.4925 -0.9634
   62MOL0     H 8150   3.000   5.587   5.266  0.0879  4.8270  0.8421
   62MOL0     H 8151   2.851   5.652   5.245  0.0054 -1.3949  0.5318
   62MOL0     H 8152   3.041   5.568   5.015 -0.3986  0.0282  0.7922
   62MOL0     H 8153   3.020   5.727   5.074  1.2567 -0.1179 -3.1336
   62MOL0     H 8154   2.777   5.585   4.944  0.6700 -0.8600  1.0924
   62MOL0     H 8155   2.897   5.691   4.867 -0.9626 -0.1424 -0.0464
   62MOL0     H 8156   2.775   5.791   5.119 -1.7200  0.4705  0.1155
   62MOL0     H 8157   2.833   5.886   4.984 -1.6354  0.7358 -0.3619
   62MOL0     H 8158   2.604   5.880   5.054 -1.3780 -0.8825  0.3461
   62MOL0     H 8159   2.576   5.728   4.968 -3.3520  1.7931 -0.7728
   62MOL0     H 8160   2.510   5.863   4.800 -0.3308 -0.9441  3.5631
   62MOL0     H 8161   2.681   5.891   4.757 -1.3107  1.4631 -1.8559
   62MOL0     H 8162   2.563   6.079   4.955  1.3976 -1.7201  1.2438
   62MOL0     H 8163   2.714   6.096   4.872  0.4160 -1.8491  1.8662
   62MOL0     H 8164   2.557   6.244   4.797  0.8967 -1.3676  2.7190
   62MOL0     H 8165   2.448   6.116   4.738 -0.9195  0.9117  0.5007
   62MOL0     H 8166   2.832   5.537   5.449 -0.1471  0.3191 -0.2753
   62MOL0     H 8167   2.670   5.436   5.603  3.2276 -1.5043  0.8760
   62MOL0     H 8168   2.322   5.204   5.714 -0.8374  0.8966  0.1362
   62MOL0     H 8169   2.170   5.071   5.866  0.6704 -1.5646 -1.4000
   62MOL0     H 8170   0.831   5.250   6.249  2.3963  0.7387  2.0435
   62MOL0     H 8171   0.593   5.230   6.250 -0.1381  1.1086  0.5470
   62MOL0     H 8172   0.218   5.168   6.518 -1.3815  2.9163 -0.6437
   62MOL0     H 8173  -0.020   5.196   6.535  2.1962  1.9522  0.1386
   62MOL0     H 8174  -0.224   5.187   6.561 -1.6171 -1.0873  1.1419
   62MOL0     H 8175  -0.224   5.012   6.553  0.0893  0.2387  0.2183
   62MOL0     H 8176  -0.429   5.144   6.380  1.2331 -1.9886 -1.3914
   62MOL0     H 8177  -0.424   4.997   6.464 -0.5083  0.3550 -0.7828
   62MOL0     H 8178  -0.427   5.262   6.607  1.2955 -1.5287  0.6208
   62MOL0     H 8179  -0.425   5.115   6.686  0.6973 -1.0380 -0.2300
   62MOL0     H 8180  -0.632   5.224   6.688 -0.7471  0.5070 -1.0757
   62MOL0     H 8181  -0.647   5.224   6.511  3.2784  1.0211 -1.8586
   62MOL0     H 8182  -0.804   4.847   6.601  0.0145  0.1367  0.8595
   62MOL0     H 8183  -0.045   4.972   6.152 -1.9816  0.1376 -0.2096
   62MOL0     H 8184   0.177   4.935   6.151  1.6316 -2.2580  2.5415
   63MOL0     O 8185   7.983   2.937   7.069 -0.6255 -0.3137  0.0828
   63MOL0     C 8186   7.981   3.047   7.004  1.1254  0.4936  0.2311
   63MOL0     O 8187   7.891   3.147   7.032 -0.0478  0.2167  0.4611
   63MOL0     C 8188   7.793   3.138   7.125 -0.8755 -0.6900  0.3281
   63MOL0     C 8189   7.726   3.024   7.167 -0.3379 -0.1831  0.0956
   63MOL0     C 8190   7.633   3.026   7.269 -0.8743 -0.3132 -0.3091
   63MOL0     C 8191   7.591   3.150   7.315  0.6509  1.4976 -0.7341
   63MOL0     O 8192   7.496   3.157   7.415  0.6225 -0.1048  0.4701
   63MOL0     C 8193   7.368   3.098   7.397 -0.6809  0.2719 -0.1851
   63MOL0     C 8194   7.332   2.990   7.493  0.2087  0.5433 -0.1266
   63MOL0     C 8195   7.203   2.922   7.449 -0.0752 -0.1727 -0.9320
   63MOL0     C 8196   7.179   2.791   7.523  0.0822 -0.1012  0.2376
   63MOL0     C 8197   7.272   2.674   7.496  0.1343 -0.2294 -0.3465
   63MOL0     C 8198   7.256   2.640   7.350  0.1202 -0.5079 -0.7757
   63MOL0     C 8199   7.381   2.549   7.302  0.4996 -0.4466  0.2764
   63MOL0     C 8200   7.372   2.394   7.314  0.1911 -0.8493  0.3938
   63MOL0     N 8201   7.377   2.357   7.456 -0.2100 -0.3162  0.1923
   63MOL0     C 8202   7.494   2.362   7.528  0.8337 -0.2987 -0.1831
   63MOL0     C 8203   7.462   2.302   7.642 -0.0837  0.1624 -1.1900
   63MOL0     C 8204   7.558   2.284   7.759  0.1395 -0.5259 -0.8385
   63MOL0     C 8205   7.626   2.147   7.740 -1.3946  0.5431 -0.4816
   63MOL0     C 8206   7.680   2.105   7.876  0.4855  0.2027 -0.2061
   63MOL0     C 8207   7.745   1.969   7.867  0.3251  0.6795 -0.7087
   63MOL0     O 8208   7.763   1.927   8.000  0.4080 -0.3320 -0.0676
   63MOL0     C 8209   7.813   1.804   8.003 -0.3869  0.5284  0.8056
   63MOL0     C 8210   7.735   1.695   8.036  0.2052 -0.2636 -0.6953
   63MOL0     C 8211   7.792   1.567   8.024  0.4730 -0.0583 -0.1885
   63MOL0     C 8212   7.920   1.545   7.979 -0.5610  0.2327 -0.0647
   63MOL0     C 8213   7.982   1.402   7.959 -0.3818 -0.5171 -0.5652
   63MOL0     O 8214   7.918   1.290   8.009  0.5277 -0.4403 -0.5003
   63MOL0     C 8215   8.001   1.188   8.060  0.1629  0.6100  0.2116
   63MOL0     C 8216   7.959   1.056   8.031 -0.0431 -0.0945  0.2488
   63MOL0     C 8217   8.032   0.951   8.088  0.7678 -0.3341  0.2791
   63MOL0     C 8218   8.152   0.968   8.153 -0.4999 -0.1218 -0.1312
   63MOL0     O 8219   8.189   0.854   8.217 -1.5581  0.2173  0.2431
   63MOL0     C 8220   8.327   0.837   8.257 -0.1015 -0.6793  0.7878
   63MOL0     C 8221   8.399   0.747   8.163  0.1723  0.3684  0.1172
   63MOL0     C 8222   8.549   0.733   8.200  0.0862  0.3935  0.1178
   63MOL0     C 8223   8.625   0.662   8.092 -0.4549 -0.1012  0.1073
   63MOL0     C 8224   8.769   0.619   8.123 -0.9018  0.3489 -0.6993
   63MOL0     C 8225   8.858   0.585   8.012  1.0232  0.4527 -0.1853
   63MOL0     C 8226   8.999   0.544   8.056  0.0024 -0.3416  0.1960
   63MOL0     C 8227   9.082   0.470   7.950  0.0175  0.0845 -0.1602
   63MOL0    Cl 8228   9.213   0.397   8.059  0.1548 -0.1869  0.3282
   63MOL0     C 8229   8.190   1.094   8.191  0.3136 -0.1186 -0.4151
   63MOL0     C 8230   8.113   1.203   8.153  1.1734  0.7962  0.7805
   63MOL0     O 8231   8.099   1.400   7.915  0.5343 -0.9426  0.0138
   63MOL0     C 8232   8.003   1.661   7.962  0.4624  0.6326  0.0058
   63MOL0     C 8233   7.946   1.784   7.969 -0.1719  0.4178  0.2207
   63MOL0     N 8234   7.330   2.257   7.637 -0.3651 -0.1860 -0.5720
   63MOL0     N 8235   7.276   2.308   7.528  0.0050 -0.4788 -0.3997
   63MOL0     C 8236   7.655   3.266   7.280 -0.2831  0.6706 -1.0018
   63MOL0     C 8237   7.756   3.262   7.178  0.2715 -0.4895  0.0572
   63MOL0     C 8238   8.057   3.059   6.880 -0.8547 -0.0976  0.1225
   63MOL0     C 8239   8.031   3.170   6.796 -0.1936 -0.6449  0.6431
   63MOL0     C 8240   8.087   3.190   6.665 -1.1832  0.5341 -0.3972
   63MOL0     C 8241   8.182   3.087   6.621  0.5824 -0.4313  0.4042
   63MOL0     O 8242   8.233   3.079   6.494 -0.1411 -0.3061 -0.0889
   63MOL0     C 8243   8.192   3.171   6.387 -0.0744  1.1752 -0.1521
   63MOL0     C 8244   8.269   3.133   6.251  0.0142 -0.5891  0.4163
   63MOL0     C 8245   8.235   3.228   6.129  0.8512  0.0629  0.3750
   63MOL0     C 8246   8.295   3.368   6.148  0.8787  0.6264 -0.0619
   63MOL0     C 8247   8.315   3.423   6.017  0.0097  0.3932  0.5092
   63MOL0     C 8248   8.341   3.468   5.909  0.4739  0.8983  0.5489
   63MOL0     C 8249   8.209   2.982   6.715  0.2885 -0.2155  0.2894
   63MOL0     C 8250   8.153   2.969   6.843  0.3265 -0.4817 -0.3409
   63MOL0     H 8251   7.756   2.928   7.127 -2.7781 -1.1816  0.4701
   63MOL0     H 8252   7.575   2.943   7.309 -0.2998  0.1989  1.7525
   63MOL0     H 8253   7.354   3.052   7.299  1.2571 -0.7897 -0.0282
   63MOL0     H 8254   7.285   3.168   7.410 -0.8264  0.3067 -1.2623
   63MOL0     H 8255   7.331   3.023   7.597 -0.0847 -0.4513  0.1923
   63MOL0     H 8256   7.404   2.907   7.497 -1.4278 -0.9501 -0.3073
   63MOL0     H 8257   7.193   2.916   7.340 -0.1543  1.8722 -1.0758
   63MOL0     H 8258   7.124   2.990   7.483  0.2743  0.5341 -1.4805
   63MOL0     H 8259   7.190   2.821   7.628  2.8236 -1.3913  0.3965
   63MOL0     H 8260   7.080   2.747   7.509  0.5971 -1.2387  0.0958
   63MOL0     H 8261   7.250   2.586   7.557  1.1500 -0.4294 -0.2515
   63MOL0     H 8262   7.371   2.701   7.532  0.3587 -2.7445  1.1819
   63MOL0     H 8263   7.256   2.724   7.279  0.1012 -0.0258 -0.2113
   63MOL0     H 8264   7.161   2.588   7.342  1.0758 -2.2571 -1.3984
   63MOL0     H 8265   7.397   2.552   7.193  2.0330 -2.9213  0.3399
   63MOL0     H 8266   7.467   2.603   7.342 -2.2901  3.4215  1.6827
   63MOL0     H 8267   7.445   2.337   7.255 -1.9364 -4.2092  0.7549
   63MOL0     H 8268   7.278   2.355   7.275  0.4128  1.0823 -2.3851
   63MOL0     H 8269   7.591   2.405   7.506  0.9149  0.3395  1.2669
   63MOL0     H 8270   7.522   2.304   7.860  5.3847  4.0145  0.6587
   63MOL0     H 8271   7.638   2.358   7.751  0.2659 -0.5217  0.3395
   63MOL0     H 8272   7.704   2.153   7.664 -1.5026  0.2034 -0.6220
   63MOL0     H 8273   7.554   2.068   7.719 -0.8906 -0.4261  1.2037
   63MOL0     H 8274   7.751   2.176   7.918  0.8065  0.1293 -0.6271
   63MOL0     H 8275   7.593   2.090   7.941  1.9012 -1.1027  1.5178
   63MOL0     H 8276   7.845   1.967   7.822  0.9217  0.6357  0.5773
   63MOL0     H 8277   7.676   1.899   7.819  0.8966 -0.5110  0.1422
   63MOL0     H 8278   7.630   1.711   8.060 -0.6173 -5.2074 -0.0359
   63MOL0     H 8279   7.721   1.491   8.056 -1.4613  2.7390  2.8413
   63MOL0     H 8280   7.868   1.045   7.973  0.0858 -1.2089  0.2307
   63MOL0     H 8281   7.992   0.852   8.070 -3.4827  1.0724  0.7993
   63MOL0     H 8282   8.320   0.778   8.349 -5.4099  2.2315  2.6983
   63MOL0     H 8283   8.380   0.929   8.283  0.7537  0.0820 -3.0703
   63MOL0     H 8284   8.383   0.782   8.061 -2.9895 -2.2604 -0.4599
   63MOL0     H 8285   8.347   0.651   8.155 -1.7924  1.4004 -0.2936
   63MOL0     H 8286   8.560   0.678   8.294  0.4841 -0.9030 -0.6569
   63MOL0     H 8287   8.588   0.832   8.225  3.5291 -1.0690  1.0834
   63MOL0     H 8288   8.577   0.565   8.075 -0.0528 -0.4201  0.7624
   63MOL0     H 8289   8.610   0.727   8.005 -2.4717  0.3127  0.7123
   63MOL0     H 8290   8.777   0.538   8.196 -1.6338  0.1573 -0.8251
   63MOL0     H 8291   8.805   0.710   8.171 -0.1503 -0.1586 -0.2884
   63MOL0     H 8292   8.872   0.677   7.955  0.5311  1.4861  1.3179
   63MOL0     H 8293   8.809   0.517   7.941 -2.4488  0.6302  1.7881
   63MOL0     H 8294   9.051   0.636   8.083 -0.5133  0.4047 -1.2691
   63MOL0     H 8295   8.982   0.493   8.152  1.3149  1.9006  1.6924
   63MOL0     H 8296   9.124   0.535   7.873 -0.2162 -1.3364 -1.5263
   63MOL0     H 8297   9.023   0.390   7.906  0.3691  0.1672 -0.7907
   63MOL0     H 8298   8.277   1.107   8.255  1.3508  1.8120 -2.0813
   63MOL0     H 8299   8.129   1.303   8.193  1.7217  0.1031  2.3831
   63MOL0     H 8300   8.110   1.653   7.944  0.5861  2.2003 -0.1446
   63MOL0     H 8301   8.013   1.868   7.951  4.0675 -2.3133  1.7444
   63MOL0     H 8302   7.611   3.357   7.320 -3.2903 -1.4578  0.9661
   63MOL0     H 8303   7.808   3.352   7.145 -2.5758  0.6714 -1.6286
   63MOL0     H 8304   7.969   3.251   6.833  0.2062  1.4218 -2.8375
   63MOL0     H 8305   8.063   3.280   6.611 -1.1247  0.5320 -0.4260
   63MOL0     H 8306   8.214   3.275   6.414  1.3786  1.2883 -1.6067
   63MOL0     H 8307   8.087   3.153   6.360  0.0786 -0.8755  0.4230
   63MOL0     H 8308   8.374   3.109   6.267  0.0285  1.2380  4.0671
   63MOL0     H 8309   8.233   3.031   6.230 -0.8628  0.0456 -1.4020
   63MOL0     H 8310   8.127   3.245   6.123  0.8282 -0.4093 -0.9138
   63MOL0     H 8311   8.275   3.180   6.040  0.2362  0.9550 -0.4021
   63MOL0     H 8312   8.234   3.440   6.204  1.4528  1.8021 -0.9075
   63MOL0     H 8313   8.390   3.353   6.200  0.5514 -1.0696  0.0897
   63MOL0     H 8314   8.352   3.514   5.813 -2.4655  0.1126 -0.2810
   63MOL0     H 8315   8.263   2.900   6.668 -1.6490 -1.0186 -0.6388
   63MOL0     H 8316   8.172   2.881   6.904 -0.7845 -0.9135 -0.5882
   64MOL0     O 8317   2.957   2.548   3.197 -0.0186  0.0369  0.0038
   64MOL0     C 8318   3.045   2.461   3.176 -0.3385 -0.9487  0.9906
   64MOL0     O 8319   3.029   2.324   3.184 -0.2748 -0.2133  0.0200
   64MOL0     C 8320   2.908   2.291   3.245 -1.1459 -1.1435  0.3598
   64MOL0     C 8321   2.786   2.275   3.169  0.0299  0.0369 -0.2256
   64MOL0     C 8322   2.674   2.234   3.238 -1.3321 -0.0745 -0.0874
   64MOL0     C 8323   2.678   2.198   3.372  0.1549  0.1459  0.0447
   64MOL0     O 8324   2.563   2.155   3.435  0.1553  0.9316 -0.0390
   64MOL0     C 8325   2.569   2.035   3.518  0.4830  0.2097  0.3019
   64MOL0     C 8326   2.437   1.965   3.526  0.8375  0.1368  0.3465
   64MOL0     C 8327   2.403   1.882   3.402  0.3242 -0.2198  0.1049
   64MOL0     C 8328   2.254   1.835   3.400 -0.1575 -0.4160  0.6500
   64MOL0     C 8329   2.219   1.752   3.274 -0.5684 -0.6147  0.0151
   64MOL0     C 8330   2.060   1.750   3.240 -0.4508  0.2304 -0.5104
   64MOL0     C 8331   2.042   1.656   3.122 -0.3655 -0.3141 -0.1534
   64MOL0     C 8332   1.895   1.650   3.080  0.7740  0.4157 -0.4513
   64MOL0     N 8333   1.795   1.620   3.178  0.5402 -0.3472 -0.2867
   64MOL0     C 8334   1.704   1.713   3.201  0.5208  0.6290 -0.5703
   64MOL0     C 8335   1.611   1.654   3.288  0.7494  0.7411  0.4443
   64MOL0     C 8336   1.481   1.710   3.341 -0.0774  0.5187 -0.2697
   64MOL0     C 8337   1.489   1.787   3.476 -0.2643 -0.1758  0.1748
   64MOL0     C 8338   1.365   1.868   3.520  0.6832 -0.2039  0.0390
   64MOL0     C 8339   1.251   1.769   3.554  0.1474 -0.7413  0.7915
   64MOL0     O 8340   1.281   1.696   3.673 -0.2341 -0.0885 -0.3490
   64MOL0     C 8341   1.171   1.655   3.745 -0.0422 -0.5120  0.5838
   64MOL0     C 8342   1.180   1.664   3.879 -0.3731 -0.0833 -0.7547
   64MOL0     C 8343   1.073   1.651   3.964  0.0102 -1.1659  0.2181
   64MOL0     C 8344   0.952   1.594   3.914 -0.0714 -0.2530  0.2853
   64MOL0     C 8345   0.840   1.572   4.002 -0.4602  0.0927  0.2130
   64MOL0     O 8346   0.751   1.480   3.968 -0.9478 -0.1688 -0.1865
   64MOL0     C 8347   0.620   1.516   3.996  0.2836 -0.8231  1.0137
   64MOL0     C 8348   0.568   1.649   3.974 -0.2608  1.0983  0.2435
   64MOL0     C 8349   0.433   1.679   4.013 -1.8053 -0.5473  0.6009
   64MOL0     C 8350   0.360   1.580   4.071 -0.8924  0.2192  0.0621
   64MOL0     O 8351   0.236   1.606   4.109 -0.1731 -0.0227  0.2230
   64MOL0     C 8352   0.127   1.522   4.068 -0.4371  0.0886 -0.2358
   64MOL0     C 8353   0.005   1.622   4.084 -0.5842 -0.5578 -0.7626
   64MOL0     C 8354  -0.125   1.551   4.073  0.4588  0.2473 -0.0013
   64MOL0     C 8355  -0.248   1.644   4.074  0.8155 -0.6968  0.2798
   64MOL0     C 8356  -0.380   1.568   4.059 -0.0053 -0.1573  0.7946
   64MOL0     C 8357  -0.403   1.484   3.930 -0.9474  0.7872 -0.1698
   64MOL0     C 8358  -0.550   1.426   3.929 -0.3060 -0.0470 -0.4033
   64MOL0     C 8359  -0.580   1.365   3.789 -0.5572 -0.2465 -0.2663
   64MOL0    Cl 8360  -0.735   1.281   3.798  0.1763 -0.3647  0.0246
   64MOL0     C 8361   0.419   1.451   4.099  0.4672 -0.3449  0.0454
   64MOL0     C 8362   0.545   1.420   4.051 -0.0158  0.0628  0.0217
   64MOL0     O 8363   0.835   1.640   4.106 -0.6168  0.1464  0.0502
   64MOL0     C 8364   0.951   1.567   3.775  1.1188 -0.7620 -0.4633
   64MOL0     C 8365   1.054   1.599   3.693 -0.3910  0.2878 -0.7675
   64MOL0     N 8366   1.667   1.532   3.316  0.3550  0.5949  0.2875
   64MOL0     N 8367   1.772   1.509   3.246 -0.2238 -0.0585 -0.3777
   64MOL0     C 8368   2.793   2.225   3.446  0.7432 -0.2087 -0.5209
   64MOL0     C 8369   2.905   2.258   3.379 -0.1418  1.4043  0.0817
   64MOL0     C 8370   3.188   2.486   3.150 -0.5986 -0.2595  0.2944
   64MOL0     C 8371   3.230   2.620   3.125  0.3928 -0.9832 -0.2704
   64MOL0     C 8372   3.355   2.651   3.088 -0.7076 -0.0877  0.7807
   64MOL0     C 8373   3.452   2.555   3.091 -0.6923 -0.1670  0.5042
   64MOL0     O 8374   3.587   2.586   3.054  0.2044  0.2161 -0.4514
   64MOL0     C 8375   3.668   2.643   3.160  0.5264  0.2967  0.6251
   64MOL0     C 8376   3.657   2.792   3.146 -0.4207  0.1967 -0.0952
   64MOL0     C 8377   3.780   2.871   3.189  0.1093  0.6418 -0.4017
   64MOL0     C 8378   3.807   2.853   3.336  0.3295  0.1910 -0.8721
   64MOL0     C 8379   3.870   2.973   3.392 -0.0088 -0.8563 -0.3767
   64MOL0     C 8380   3.923   3.076   3.420 -0.1434  0.3655 -0.0301
   64MOL0     C 8381   3.421   2.425   3.123  0.3927  0.8457 -0.3289
   64MOL0     C 8382   3.290   2.393   3.149  0.1120  1.2529  0.0641
   64MOL0     H 8383   2.785   2.303   3.064  0.8596  0.3199 -0.1632
   64MOL0     H 8384   2.587   2.211   3.178  0.5276  0.3811 -3.1548
   64MOL0     H 8385   2.588   2.065   3.622  2.0205 -1.6371  0.6080
   64MOL0     H 8386   2.642   1.963   3.481  2.2641  1.2857  1.5566
   64MOL0     H 8387   2.360   2.043   3.525  0.8529  0.1962  1.8367
   64MOL0     H 8388   2.437   1.909   3.619  2.2057 -0.9509 -0.2829
   64MOL0     H 8389   2.468   1.796   3.385  0.1113 -0.3903  0.1516
   64MOL0     H 8390   2.416   1.952   3.319 -3.0822 -0.2911 -0.6437
   64MOL0     H 8391   2.235   1.783   3.493 -2.4467 -1.5898 -0.3987
   64MOL0     H 8392   2.201   1.930   3.406 -0.0748 -0.0510 -2.4796
   64MOL0     H 8393   2.248   1.647   3.283 -0.4046 -0.6488 -0.8896
   64MOL0     H 8394   2.278   1.784   3.188  0.9765  1.1192  1.6249
   64MOL0     H 8395   2.028   1.852   3.215 -3.5713 -0.3567  0.7654
   64MOL0     H 8396   1.998   1.710   3.320 -1.8470  2.7973 -0.1929
   64MOL0     H 8397   2.112   1.677   3.040 -1.6086  1.9527 -0.7220
   64MOL0     H 8398   2.074   1.561   3.165 -2.0306 -0.7191  0.2837
   64MOL0     H 8399   1.884   1.572   3.004 -2.4989  1.2018 -0.9151
   64MOL0     H 8400   1.872   1.744   3.031 -0.8000 -0.0513 -0.6477
   64MOL0     H 8401   1.704   1.807   3.147  2.6473  1.6260  1.0167
   64MOL0     H 8402   1.410   1.630   3.363 -1.0372  0.9060 -1.7971
   64MOL0     H 8403   1.444   1.778   3.264 -1.1243 -2.8410 -2.9728
   64MOL0     H 8404   1.569   1.863   3.473  0.2511 -0.6570  1.2714
   64MOL0     H 8405   1.513   1.723   3.561  0.1515  0.9944  0.9669
   64MOL0     H 8406   1.381   1.928   3.610  0.4530 -3.2197  2.2250
   64MOL0     H 8407   1.336   1.929   3.434  1.2413  1.1248  0.7616
   64MOL0     H 8408   1.240   1.700   3.470  1.1870 -2.5294  2.0647
   64MOL0     H 8409   1.156   1.823   3.559  0.8966  1.1398 -2.2033
   64MOL0     H 8410   1.275   1.687   3.926 -1.0353  1.3190 -0.0724
   64MOL0     H 8411   1.080   1.671   4.070 -1.0087 -2.0643  0.4786
   64MOL0     H 8412   0.642   1.717   3.934  0.1700 -0.8139 -2.4963
   64MOL0     H 8413   0.384   1.772   3.983 -1.4556 -0.9300 -1.3048
   64MOL0     H 8414   0.125   1.428   4.125 -2.5801 -1.2318 -2.3205
   64MOL0     H 8415   0.139   1.494   3.964 -2.6692  1.5112 -0.9616
   64MOL0     H 8416   0.022   1.704   4.013  0.9790 -0.0540  0.1439
   64MOL0     H 8417   0.025   1.678   4.176  4.4129  1.5973 -2.8105
   64MOL0     H 8418  -0.124   1.487   4.161 -3.7193  0.0638  0.1169
   64MOL0     H 8419  -0.132   1.490   3.982  2.5247 -1.4216  0.8795
   64MOL0     H 8420  -0.242   1.694   4.171 -0.2765  3.0342 -1.4046
   64MOL0     H 8421  -0.235   1.720   3.996 -3.2205  0.8650  0.9343
   64MOL0     H 8422  -0.463   1.640   4.059  0.0904  0.0679 -2.0429
   64MOL0     H 8423  -0.382   1.488   4.133  1.0403 -2.1379 -1.1813
   64MOL0     H 8424  -0.323   1.409   3.922  0.7705  2.6178 -1.2381
   64MOL0     H 8425  -0.384   1.558   3.851  0.2753  0.7998  0.1114
   64MOL0     H 8426  -0.549   1.350   4.008  1.7741 -0.5277 -0.8377
   64MOL0     H 8427  -0.633   1.494   3.954 -3.2239 -3.1555 -0.8748
   64MOL0     H 8428  -0.497   1.303   3.753  0.8165  2.3866 -1.9884
   64MOL0     H 8429  -0.599   1.452   3.726  0.4497 -0.3483 -0.7390
   64MOL0     H 8430   0.351   1.390   4.159  0.0644  0.1104  0.0542
   64MOL0     H 8431   0.589   1.321   4.056 -2.3371 -1.1866 -2.0698
   64MOL0     H 8432   0.858   1.530   3.733  0.5625 -0.4918  0.5019
   64MOL0     H 8433   1.047   1.587   3.585 -0.3545 -1.6118 -0.5981
   64MOL0     H 8434   2.808   2.226   3.554 -0.1751  0.2152 -0.3898
   64MOL0     H 8435   2.995   2.269   3.438  0.1718  4.0112 -0.7087
   64MOL0     H 8436   3.166   2.707   3.134  1.6912  0.0554 -0.7086
   64MOL0     H 8437   3.379   2.754   3.062 -2.5442 -0.0225 -0.9143
   64MOL0     H 8438   3.768   2.601   3.148  0.6603 -0.1844  2.9585
   64MOL0     H 8439   3.619   2.606   3.251 -1.6100 -0.5614 -0.7726
   64MOL0     H 8440   3.623   2.814   3.044  2.5153  3.1425 -0.5925
   64MOL0     H 8441   3.571   2.815   3.210 -0.6610  1.3360 -0.7960
   64MOL0     H 8442   3.763   2.977   3.171  1.2080  0.6702 -1.4082
   64MOL0     H 8443   3.869   2.838   3.136 -0.0049 -0.9270  0.3148
   64MOL0     H 8444   3.705   2.840   3.372 -0.5761  4.0643 -1.5582
   64MOL0     H 8445   3.866   2.766   3.366  0.3216  1.1484  2.3136
   64MOL0     H 8446   3.958   3.168   3.460 -1.6290  1.4555 -1.1262
   64MOL0     H 8447   3.501   2.352   3.129 -2.3274 -2.5963 -2.4231
   64MOL0     H 8448   3.273   2.289   3.171 -0.5343  1.3776  0.1672
   65MOL0     O 8449   4.300   5.137   5.403  0.2970 -0.3974  0.1433
   65MOL0     C 8450   4.215   5.210   5.451 -0.5583  0.3694  0.1568
   65MOL0     O 8451   4.115   5.170   5.536 -0.3627  1.1385 -0.2915
   65MOL0     C 8452   4.115   5.039   5.576 -0.5785  0.5660 -0.5645
   65MOL0     C 8453   3.998   4.964   5.550 -0.5936  0.1548  0.7806
   65MOL0     C 8454   3.989   4.838   5.601  0.5609  0.9844 -0.1107
   65MOL0     C 8455   4.085   4.790   5.695 -0.2458  0.0466  0.1809
   65MOL0     O 8456   4.055   4.669   5.743  0.1887 -0.6879 -0.1108
   65MOL0     C 8457   4.157   4.581   5.702  0.4143 -0.6344 -0.5153
   65MOL0     C 8458   4.181   4.456   5.791 -0.2518  1.0834 -0.2403
   65MOL0     C 8459   4.082   4.341   5.791 -0.8137  0.4136 -0.2032
   65MOL0     C 8460   4.036   4.289   5.650  0.6684 -0.1283 -0.3211
   65MOL0     C 8461   3.927   4.189   5.673 -0.1444  0.8965  0.1664
   65MOL0     C 8462   3.983   4.046   5.715  0.1860 -1.2032 -0.5586
   65MOL0     C 8463   3.870   3.939   5.745 -0.4205  0.4979  0.2448
   65MOL0     C 8464   3.922   3.808   5.809 -0.5971  0.0040  0.1231
   65MOL0     N 8465   3.823   3.702   5.792 -0.9353 -0.7672 -0.1130
   65MOL0     C 8466   3.784   3.649   5.670  1.0444  0.2201 -0.2819
   65MOL0     C 8467   3.675   3.570   5.702 -0.0874 -0.4278 -0.2359
   65MOL0     C 8468   3.606   3.474   5.612 -0.5496  0.6352 -0.6330
   65MOL0     C 8469   3.484   3.408   5.670  0.2526  0.2407 -0.3871
   65MOL0     C 8470   3.509   3.296   5.768  0.4583 -0.2613  0.3645
   65MOL0     C 8471   3.395   3.200   5.785 -0.6362 -0.3317  0.4236
   65MOL0     O 8472   3.268   3.261   5.818  0.3231  0.3195  0.4695
   65MOL0     C 8473   3.158   3.186   5.798 -0.1520 -0.0207 -0.2291
   65MOL0     C 8474   3.033   3.236   5.816  0.4416 -0.8758  0.1462
   65MOL0     C 8475   2.920   3.157   5.807 -0.0438 -0.5830  1.0246
   65MOL0     C 8476   2.926   3.016   5.798  0.5181 -0.0355 -0.6434
   65MOL0     C 8477   2.806   2.927   5.818  0.8866 -0.0535  0.6912
   65MOL0     O 8478   2.832   2.801   5.814 -0.1213  0.1434 -0.0929
   65MOL0     C 8479   2.736   2.707   5.838 -0.8905  1.1633  0.7686
   65MOL0     C 8480   2.620   2.707   5.918 -0.4103 -0.3371 -0.5788
   65MOL0     C 8481   2.525   2.598   5.917  0.6426 -0.5518  0.6046
   65MOL0     C 8482   2.536   2.493   5.832 -0.3207 -0.5272  0.6659
   65MOL0     O 8483   2.438   2.402   5.833  0.2472  0.2965 -0.2888
   65MOL0     C 8484   2.438   2.284   5.752 -0.4738  0.7038  0.2177
   65MOL0     C 8485   2.301   2.207   5.763 -0.5813 -0.0623  0.6616
   65MOL0     C 8486   2.246   2.194   5.909 -0.0704 -0.4040  0.9059
   65MOL0     C 8487   2.119   2.109   5.900  0.2766  0.1900  0.5833
   65MOL0     C 8488   2.004   2.171   5.815  0.1327  0.0206  1.3742
   65MOL0     C 8489   1.863   2.106   5.824 -0.3937  0.6095 -0.7488
   65MOL0     C 8490   1.801   2.111   5.683  0.0096 -0.0371 -0.3333
   65MOL0     C 8491   1.666   2.047   5.678 -0.5341 -0.1836  0.3532
   65MOL0    Cl 8492   1.551   2.139   5.781 -0.7494 -0.0895  0.2007
   65MOL0     C 8493   2.649   2.490   5.746 -0.8064 -0.1103  0.0129
   65MOL0     C 8494   2.747   2.590   5.748  0.7279 -0.4871  0.5600
   65MOL0     O 8495   2.694   2.973   5.833 -0.1939 -0.1521  0.4262
   65MOL0     C 8496   3.056   2.955   5.773 -0.1822 -0.4667  0.4706
   65MOL0     C 8497   3.162   3.050   5.780 -0.2804 -0.0886  0.2265
   65MOL0     N 8498   3.658   3.576   5.844  0.6696  1.3925 -0.7358
   65MOL0     N 8499   3.750   3.653   5.891  0.2895  0.6992 -0.3530
   65MOL0     C 8500   4.196   4.876   5.734 -0.2943 -0.1937  0.0218
   65MOL0     C 8501   4.207   4.997   5.672  0.5022  0.0914 -0.0700
   65MOL0     C 8502   4.213   5.352   5.409  0.5043 -0.1855 -0.3720
   65MOL0     C 8503   4.123   5.440   5.468  0.5390  0.1813  0.9783
   65MOL0     C 8504   4.117   5.575   5.440 -1.0094 -0.4118  0.8696
   65MOL0     C 8505   4.216   5.637   5.355 -0.5797 -0.2349  0.4784
   65MOL0     O 8506   4.216   5.773   5.350  0.1977  0.9071  0.1260
   65MOL0     C 8507   4.326   5.842   5.298  0.3638 -0.3125 -0.0786
   65MOL0     C 8508   4.345   5.972   5.366  0.1325  0.0239  0.1679
   65MOL0     C 8509   4.448   6.061   5.293  0.0025  0.1685 -0.4408
   65MOL0     C 8510   4.594   6.036   5.368  0.2842 -0.4223  0.3281
   65MOL0     C 8511   4.689   6.129   5.301 -0.4656  0.6417 -0.5324
   65MOL0     C 8512   4.773   6.200   5.252 -0.4615 -0.2885  0.1473
   65MOL0     C 8513   4.305   5.549   5.296  0.2453 -0.7105  0.7066
   65MOL0     C 8514   4.308   5.412   5.326  0.0858  0.5598 -0.3944
   65MOL0     H 8515   3.915   5.008   5.496 -0.7421 -0.0239  0.8628
   65MOL0     H 8516   3.905   4.771   5.583  1.0889 -0.6558  2.9020
   65MOL0     H 8517   4.258   4.622   5.704  0.4244 -0.6521 -0.6821
   65MOL0     H 8518   4.135   4.549   5.600  2.1414 -1.0147 -0.7916
   65MOL0     H 8519   4.192   4.485   5.896  0.1203 -0.9848  0.3289
   65MOL0     H 8520   4.275   4.415   5.755 -2.3504 -2.7530 -1.9841
   65MOL0     H 8521   4.004   4.365   5.864 -0.0130 -0.7204  1.0943
   65MOL0     H 8522   4.136   4.259   5.840 -0.3663  2.9284  4.0484
   65MOL0     H 8523   4.004   4.372   5.587  0.5586 -0.3173 -0.5166
   65MOL0     H 8524   4.116   4.241   5.593  0.8597  2.5824 -2.5075
   65MOL0     H 8525   3.878   4.178   5.575 -0.5909  0.0739  0.4646
   65MOL0     H 8526   3.859   4.227   5.749 -2.2154 -1.3089 -0.4312
   65MOL0     H 8527   4.046   4.055   5.803  0.4034 -1.1981 -0.7135
   65MOL0     H 8528   4.056   4.018   5.638  2.5277  5.0949 -1.2473
   65MOL0     H 8529   3.801   3.988   5.815  0.6102  0.4084  1.3562
   65MOL0     H 8530   3.834   3.913   5.645  0.5345  0.2484 -0.0421
   65MOL0     H 8531   3.949   3.837   5.911  0.9745  1.9697 -0.7850
   65MOL0     H 8532   4.016   3.781   5.759 -1.7444 -2.7078 -0.7800
   65MOL0     H 8533   3.829   3.664   5.573 -2.8751  1.8984 -2.0394
   65MOL0     H 8534   3.668   3.406   5.552 -0.4621  0.7689 -0.6967
   65MOL0     H 8535   3.573   3.548   5.539  1.2045  3.0956  0.8865
   65MOL0     H 8536   3.423   3.366   5.590  1.2430  0.5083 -1.3019
   65MOL0     H 8537   3.418   3.485   5.712 -1.5618 -1.0870 -0.6804
   65MOL0     H 8538   3.586   3.236   5.720 -1.6963 -2.3803 -0.7010
   65MOL0     H 8539   3.542   3.331   5.866 -1.8777 -0.6572  1.3679
   65MOL0     H 8540   3.423   3.140   5.871 -2.0262 -0.7747  0.5959
   65MOL0     H 8541   3.402   3.132   5.699  0.8187 -0.9632  1.0195
   65MOL0     H 8542   3.034   3.344   5.822  3.3363 -0.7136 -1.3470
   65MOL0     H 8543   2.826   3.210   5.824 -0.8878 -0.3798 -3.1768
   65MOL0     H 8544   2.588   2.792   5.976 -0.8918  0.9335 -2.6228
   65MOL0     H 8545   2.443   2.603   5.987  0.9241  1.4528  0.8336
   65MOL0     H 8546   2.516   2.216   5.785 -1.5354 -0.8330 -0.3437
   65MOL0     H 8547   2.452   2.314   5.647  0.2741 -3.4779 -1.0712
   65MOL0     H 8548   2.305   2.104   5.729  0.7177 -0.2028  1.1523
   65MOL0     H 8549   2.224   2.264   5.711  0.6941  1.0531 -0.0882
   65MOL0     H 8550   2.199   2.283   5.952 -2.3402  0.0044 -2.0948
   65MOL0     H 8551   2.320   2.151   5.977 -0.7684  1.4328  2.9290
   65MOL0     H 8552   2.133   2.012   5.852  0.0856  0.4658 -0.0413
   65MOL0     H 8553   2.090   2.079   6.001  3.1286 -0.9439  1.1662
   65MOL0     H 8554   2.032   2.163   5.709  1.1808  0.5712  1.6060
   65MOL0     H 8555   2.006   2.279   5.830 -0.6328  0.3659 -0.6439
   65MOL0     H 8556   1.811   2.169   5.897  0.3537  1.5137 -0.9760
   65MOL0     H 8557   1.866   2.005   5.867 -0.1437  1.2661  0.8523
   65MOL0     H 8558   1.786   2.213   5.646 -3.0816 -0.3438 -0.2094
   65MOL0     H 8559   1.869   2.056   5.617  0.4837 -0.5033  0.5351
   65MOL0     H 8560   1.682   1.951   5.729 -0.3320  0.9427  2.5232
   65MOL0     H 8561   1.628   2.044   5.575 -0.1870 -1.8646  0.2359
   65MOL0     H 8562   2.651   2.396   5.691 -1.5353 -0.6600  0.9005
   65MOL0     H 8563   2.815   2.608   5.666 -1.5591  2.6649 -0.8602
   65MOL0     H 8564   3.081   2.850   5.771 -2.4994 -1.0973  1.4380
   65MOL0     H 8565   3.250   2.987   5.775 -0.0488  0.1208  1.4295
   65MOL0     H 8566   4.274   4.851   5.805  1.0898 -0.1972 -1.4310
   65MOL0     H 8567   4.287   5.061   5.709  0.2699  0.2327  0.1993
   65MOL0     H 8568   4.048   5.396   5.533  0.0850  0.5974  0.7410
   65MOL0     H 8569   4.054   5.648   5.490  1.0062  1.4935  0.7636
   65MOL0     H 8570   4.306   5.853   5.191 -2.6909 -4.1089 -0.0900
   65MOL0     H 8571   4.420   5.786   5.307 -0.3708 -1.8674 -1.4612
   65MOL0     H 8572   4.251   6.026   5.355  0.3718  0.5262  0.5588
   65MOL0     H 8573   4.370   5.958   5.472  2.1380 -1.6456 -0.4376
   65MOL0     H 8574   4.436   6.169   5.302 -0.2249  0.0218  1.2195
   65MOL0     H 8575   4.451   6.039   5.185 -1.8355 -2.9672  0.0152
   65MOL0     H 8576   4.585   6.063   5.473 -0.5629 -1.0907  0.4371
   65MOL0     H 8577   4.620   5.931   5.355 -3.6970 -1.9128  2.6151
   65MOL0     H 8578   4.843   6.258   5.195 -2.1258  0.5674 -1.0991
   65MOL0     H 8579   4.377   5.583   5.222 -1.0498 -1.4779 -0.9794
   65MOL0     H 8580   4.393   5.366   5.277  0.2135  0.4934 -0.1141
   66MOL0     O 8581   5.862  10.959   5.710 -0.4794  0.9387 -0.3483
   66MOL0     C 8582   5.796  10.993   5.619 -0.1415 -0.0252  0.1901
   66MOL0     O 8583   5.661  10.982   5.603 -0.1749 -1.2144 -0.3522
   66MOL0     C 8584   5.579  10.954   5.716  0.1214 -0.6502  0.5776
   66MOL0     C 8585   5.476  11.041   5.746  0.4355  0.8160 -0.3415
   66MOL0     C 8586   5.387  11.010   5.852 -0.1880  0.7379 -0.5853
   66MOL0     C 8587   5.395  10.880   5.920  0.6032  0.3847  0.9502
   66MOL0     O 8588   5.296  10.852   6.007 -1.2762 -0.0852  0.4342
   66MOL0     C 8589   5.330  10.873   6.145 -0.6277  0.1424  1.2909
   66MOL0     C 8590   5.247  10.794   6.241  0.1942  0.6772 -0.0720
   66MOL0     C 8591   5.099  10.831   6.229 -0.1085 -0.0983  0.3970
   66MOL0     C 8592   5.018  10.761   6.337  0.2603  0.3059  0.0321
   66MOL0     C 8593   4.868  10.783   6.330  0.3566  0.5347  0.1794
   66MOL0     C 8594   4.828  10.907   6.405 -1.0337 -0.3526  1.2332
   66MOL0     C 8595   4.777  10.877   6.551 -1.3074  0.2917 -0.9833
   66MOL0     C 8596   4.627  10.849   6.556  0.8017  0.7916 -0.1385
   66MOL0     N 8597   4.606  10.859   6.702  0.2082 -0.2835  0.3469
   66MOL0     C 8598   4.520  10.951   6.764 -1.0150 -0.6891 -0.2740
   66MOL0     C 8599   4.533  10.910   6.893  0.2493 -0.6572 -0.4947
   66MOL0     C 8600   4.453  10.975   7.004  0.1372  0.3105 -0.2361
   66MOL0     C 8601   4.345  10.875   7.045  0.2462  0.1225 -1.3695
   66MOL0     C 8602   4.295  10.902   7.192  0.4995 -0.5140 -0.0036
   66MOL0     C 8603   4.232  11.042   7.227 -0.1751  1.1358 -0.5767
   66MOL0     O 8604   4.160  11.092   7.118  0.0546 -0.6427  0.6974
   66MOL0     C 8605   4.020  11.086   7.121  0.0861  0.1017 -0.1172
   66MOL0     C 8606   3.938  10.996   7.198  0.4155 -0.1947  0.1203
   66MOL0     C 8607   3.803  10.997   7.181  0.1371 -0.5163  0.1396
   66MOL0     C 8608   3.725  11.070   7.090  0.3972 -1.0811 -0.9678
   66MOL0     C 8609   3.578  11.077   7.103 -0.0076 -0.7474  0.3503
   66MOL0     O 8610   3.513  11.087   6.981 -0.9722 -0.3099  0.2232
   66MOL0     C 8611   3.383  11.100   6.969  0.7362 -1.0407 -0.7699
   66MOL0     C 8612   3.285  11.040   7.056  1.4413 -0.5348  0.2811
   66MOL0     C 8613   3.144  11.074   7.030  0.5593 -0.2373  0.6712
   66MOL0     C 8614   3.103  11.146   6.917 -0.7341  0.0765  0.3632
   66MOL0     O 8615   2.973  11.184   6.910  0.4051  1.3409 -0.7975
   66MOL0     C 8616   2.955  11.303   6.970 -0.1495 -0.7010  0.4808
   66MOL0     C 8617   2.841  11.306   7.076 -0.2907 -0.2067  0.7241
   66MOL0     C 8618   2.756  11.429   7.060  0.4218 -0.0851  0.4216
   66MOL0     C 8619   2.834  11.546   7.108  0.5427 -0.9365 -1.0105
   66MOL0     C 8620   2.809  11.572   7.261 -0.0075  0.5450  0.6925
   66MOL0     C 8621   2.681  11.649   7.275  0.3637 -0.6440 -0.5276
   66MOL0     C 8622   2.668  11.718   7.410  1.1934 -0.1039 -0.0339
   66MOL0     C 8623   2.536  11.792   7.415 -0.9473 -0.5204 -0.2126
   66MOL0    Cl 8624   2.402  11.669   7.379 -0.7039  0.1921  0.1083
   66MOL0     C 8625   3.194  11.181   6.819  0.0761  0.3018  0.5646
   66MOL0     C 8626   3.334  11.160   6.844  0.1741 -0.0741  0.1755
   66MOL0     O 8627   3.526  11.065   7.215  0.0961 -0.3586 -0.2456
   66MOL0     C 8628   3.808  11.168   7.020 -0.5382  0.3315  0.8224
   66MOL0     C 8629   3.950  11.176   7.034  0.3798  0.4748 -0.1088
   66MOL0     N 8630   4.619  10.796   6.906 -0.0439 -0.1742 -0.3830
   66MOL0     N 8631   4.673  10.774   6.786 -0.6529 -0.3916 -0.3955
   66MOL0     C 8632   5.499  10.793   5.888 -0.5535  0.7338 -0.2947
   66MOL0     C 8633   5.593  10.825   5.783 -0.3502  0.0549  0.1405
   66MOL0     C 8634   5.863  11.035   5.503 -0.4810 -0.1232  1.4166
   66MOL0     C 8635   6.001  11.052   5.503 -0.0594 -0.4867 -0.3877
   66MOL0     C 8636   6.073  11.098   5.395 -0.4581 -0.8748  0.1065
   66MOL0     C 8637   6.017  11.128   5.271 -0.6381 -0.4354 -0.0140
   66MOL0     O 8638   6.097  11.178   5.175  0.6815  0.0804  0.2826
   66MOL0     C 8639   6.041  11.221   5.050  0.2743  0.9654 -1.5832
   66MOL0     C 8640   6.155  11.237   4.958  0.1990 -0.5823  0.6559
   66MOL0     C 8641   6.230  11.117   4.923 -1.0707 -0.0054 -0.4514
   66MOL0     C 8642   6.332  11.124   4.801 -0.1747 -0.8277 -0.0265
   66MOL0     C 8643   6.279  11.177   4.666 -0.5110  0.2684 -0.3420
   66MOL0     C 8644   6.220  11.214   4.563 -0.0939 -0.2566  0.3509
   66MOL0     C 8645   5.871  11.122   5.274 -0.7999  0.3494  0.0296
   66MOL0     C 8646   5.795  11.071   5.385  0.5311 -0.1176 -0.0506
   66MOL0     H 8647   5.471  11.136   5.694  2.3328  0.3278 -1.5508
   66MOL0     H 8648   5.311  11.074   5.895  0.5899  0.1237  1.8895
   66MOL0     H 8649   5.321  10.981   6.162  0.6898  0.3578  0.7131
   66MOL0     H 8650   5.435  10.846   6.160  0.2718  0.3982 -3.1628
   66MOL0     H 8651   5.277  10.831   6.339  0.3863  1.6077 -0.4685
   66MOL0     H 8652   5.262  10.686   6.228 -3.4505 -0.1752  1.6832
   66MOL0     H 8653   5.045  10.807   6.137  1.2386  3.8522 -1.6717
   66MOL0     H 8654   5.083  10.940   6.228 -0.2228 -0.1194 -0.4478
   66MOL0     H 8655   5.032  10.653   6.326  0.4095  0.4661 -1.4308
   66MOL0     H 8656   5.056  10.775   6.439  0.7527  1.9390 -0.3489
   66MOL0     H 8657   4.816  10.696   6.370  2.1288 -2.5726 -3.5878
   66MOL0     H 8658   4.848  10.791   6.222 -1.6228 -1.4064  0.3099
   66MOL0     H 8659   4.747  10.944   6.342  1.3005 -1.4344 -2.7573
   66MOL0     H 8660   4.906  10.983   6.403 -0.3610 -0.8132 -4.0378
   66MOL0     H 8661   4.834  10.797   6.599 -1.9229  1.2223  1.4740
   66MOL0     H 8662   4.808  10.964   6.610  0.9398 -0.4975 -0.9018
   66MOL0     H 8663   4.620  10.744   6.524  0.9038 -0.1596  2.6432
   66MOL0     H 8664   4.554  10.913   6.505 -1.6904 -1.9675 -0.3130
   66MOL0     H 8665   4.470  11.038   6.722 -1.3597 -0.4734  0.5494
   66MOL0     H 8666   4.406  11.059   6.951 -0.3896  0.4221  0.3991
   66MOL0     H 8667   4.520  11.002   7.086  1.9157 -1.0291 -1.1756
   66MOL0     H 8668   4.389  10.775   7.041  0.8060  0.1967  1.1731
   66MOL0     H 8669   4.262  10.874   6.974 -1.8704 -0.9978  0.9556
   66MOL0     H 8670   4.218  10.825   7.203 -0.6355  0.3746 -1.3272
   66MOL0     H 8671   4.370  10.883   7.269  0.5465 -0.0228  0.0777
   66MOL0     H 8672   4.311  11.110   7.261  2.6014 -0.6280 -3.0196
   66MOL0     H 8673   4.176  11.026   7.320  0.0046 -1.1240 -0.8075
   66MOL0     H 8674   3.980  10.932   7.276  0.2160  0.3777  0.7049
   66MOL0     H 8675   3.750  10.926   7.244 -0.0379 -1.9469 -1.5500
   66MOL0     H 8676   3.299  10.980   7.145 -3.6659  2.3509  3.5312
   66MOL0     H 8677   3.063  11.050   7.099 -0.0501  1.0968  0.4542
   66MOL0     H 8678   2.929  11.369   6.886  2.0868  2.5368  2.0893
   66MOL0     H 8679   3.054  11.339   7.000  0.3616 -2.3616  0.8889
   66MOL0     H 8680   2.880  11.294   7.178 -0.4108  0.5284  0.8612
   66MOL0     H 8681   2.779  11.218   7.056 -2.2036  1.6750 -2.4025
   66MOL0     H 8682   2.666  11.429   7.121  0.7913  0.5337  0.9862
   66MOL0     H 8683   2.741  11.449   6.953  0.8489 -2.9559 -0.2596
   66MOL0     H 8684   2.940  11.534   7.087  0.8065  1.2730 -1.2081
   66MOL0     H 8685   2.801  11.640   7.062  0.6014 -1.8798 -3.0545
   66MOL0     H 8686   2.892  11.628   7.306 -0.1174 -0.0289  1.6418
   66MOL0     H 8687   2.819  11.485   7.326 -1.7239  0.5706  1.0351
   66MOL0     H 8688   2.589  11.590   7.265 -1.6950  1.7052  2.4115
   66MOL0     H 8689   2.657  11.719   7.194 -2.8313 -0.7838  0.1601
   66MOL0     H 8690   2.663  11.645   7.492 -0.9636  1.0866  0.9703
   66MOL0     H 8691   2.753  11.786   7.418  0.2437  1.0154  0.8953
   66MOL0     H 8692   2.542  11.874   7.343  4.0381  2.0986  2.7155
   66MOL0     H 8693   2.524  11.838   7.514  4.6152  0.1525  0.4201
   66MOL0     H 8694   3.167  11.218   6.721 -1.4868 -1.1933  0.3762
   66MOL0     H 8695   3.408  11.171   6.765 -1.1238  0.6890 -0.9900
   66MOL0     H 8696   3.755  11.244   6.962  0.9913  1.2581  0.5859
   66MOL0     H 8697   4.012  11.246   6.979  1.8042  0.6891  1.6606
   66MOL0     H 8698   5.514  10.700   5.942 -0.4975  0.8155 -0.1684
   66MOL0     H 8699   5.671  10.757   5.751 -1.4806 -0.8210 -0.8008
   66MOL0     H 8700   6.061  11.029   5.591 -1.2449  1.9817  1.1626
   66MOL0     H 8701   6.180  11.113   5.401  0.0523 -4.3124  1.7486
   66MOL0     H 8702   5.991  11.318   5.059 -1.2208  0.1328 -0.4772
   66MOL0     H 8703   5.974  11.143   5.013  2.4098 -1.2110 -1.1191
   66MOL0     H 8704   6.118  11.282   4.865 -0.3810 -1.1825  0.5931
   66MOL0     H 8705   6.232  11.306   4.994  0.7069 -1.0108  0.4080
   66MOL0     H 8706   6.151  11.043   4.908 -0.7564 -0.2577 -0.8785
   66MOL0     H 8707   6.294  11.081   5.004 -1.1093 -3.3782 -1.7657
   66MOL0     H 8708   6.417  11.190   4.823 -0.5229  0.5949 -2.5548
   66MOL0     H 8709   6.360  11.020   4.784 -1.4159 -1.0651 -0.7001
   66MOL0     H 8710   6.163  11.253   4.480  0.4646  1.0509  0.5593
   66MOL0     H 8711   5.822  11.129   5.178  1.8828 -1.2183 -1.5821
   66MOL0     H 8712   5.688  11.085   5.373  0.8721  1.2840 -1.9506
   67MOL0     O 8713   3.359   9.686   6.920  0.2672 -0.0387 -0.3043
   67MOL0     C 8714   3.267   9.725   6.853  0.9734 -0.1419 -1.0351
   67MOL0     O 8715   3.248   9.701   6.721 -0.3334  0.2062 -0.2861
   67MOL0     C 8716   3.357   9.644   6.648  0.4020 -1.1685  0.3431
   67MOL0     C 8717   3.413   9.716   6.545  0.4487  0.9518  0.0549
   67MOL0     C 8718   3.519   9.665   6.475 -0.6447  0.5983 -0.3592
   67MOL0     C 8719   3.584   9.545   6.497 -0.8116  0.0919 -0.2942
   67MOL0     O 8720   3.705   9.502   6.431  0.0618  1.0980 -0.5313
   67MOL0     C 8721   3.757   9.605   6.348 -0.0952 -0.6463 -0.3690
   67MOL0     C 8722   3.903   9.577   6.295  0.4073  0.4092  0.5490
   67MOL0     C 8723   3.948   9.693   6.212 -0.4578 -0.3886  0.8433
   67MOL0     C 8724   4.081   9.668   6.140  0.3967 -0.5077  0.4518
   67MOL0     C 8725   4.150   9.801   6.103  0.0514 -0.2978  0.1849
   67MOL0     C 8726   4.227   9.792   5.977  0.1445 -0.1480 -0.3261
   67MOL0     C 8727   4.352   9.704   5.989  0.6056 -0.3069 -0.3895
   67MOL0     C 8728   4.362   9.582   5.892 -0.2412 -0.5266  0.6254
   67MOL0     N 8729   4.367   9.615   5.744  0.7767  0.3235  0.5428
   67MOL0     C 8730   4.447   9.704   5.680 -0.6386  0.4911  0.3292
   67MOL0     C 8731   4.429   9.694   5.551 -1.4399  0.0839 -0.1846
   67MOL0     C 8732   4.519   9.759   5.448 -0.1130 -0.7099  0.2384
   67MOL0     C 8733   4.485   9.908   5.437 -0.3073 -0.3053 -0.2797
   67MOL0     C 8734   4.352   9.946   5.365  0.0283  0.3952  0.1122
   67MOL0     C 8735   4.296  10.087   5.401 -0.9506  0.2364  0.7070
   67MOL0     O 8736   4.150  10.087   5.395 -0.1769  0.1329  0.2292
   67MOL0     C 8737   4.074  10.036   5.503 -0.8499 -1.1625 -0.3991
   67MOL0     C 8738   3.944  10.035   5.479 -1.4379  0.2330 -0.1985
   67MOL0     C 8739   3.860   9.996   5.571 -0.7514  1.0068  0.5233
   67MOL0     C 8740   3.903   9.977   5.703  0.1683 -0.2109 -0.1397
   67MOL0     C 8741   3.793   9.953   5.812  0.4098 -0.3297 -0.5392
   67MOL0     O 8742   3.825   9.919   5.941  0.2320  0.1337 -0.2083
   67MOL0     C 8743   3.724   9.940   6.040 -0.2758 -0.1179 -0.0739
   67MOL0     C 8744   3.599   9.885   6.050  0.5166  0.0012  1.4152
   67MOL0     C 8745   3.517   9.925   6.162 -0.1647  0.9355 -0.4163
   67MOL0     C 8746   3.570   9.988   6.273 -0.0714 -0.6333  0.8091
   67MOL0     O 8747   3.488  10.008   6.380  0.6333  1.4275 -0.0178
   67MOL0     C 8748   3.527  10.081   6.488  0.1758 -0.3869 -0.2375
   67MOL0     C 8749   3.423  10.086   6.606  0.4002 -0.4971 -0.3352
   67MOL0     C 8750   3.468  10.161   6.730 -0.2440  0.2858 -0.5198
   67MOL0     C 8751   3.354  10.152   6.829 -0.0683 -0.6336 -0.1702
   67MOL0     C 8752   3.386  10.238   6.957 -0.4051  1.0654  0.7773
   67MOL0     C 8753   3.272  10.311   7.015  0.2993 -0.1149  0.5917
   67MOL0     C 8754   3.327  10.429   7.098  0.7207  0.0156 -0.3937
   67MOL0     C 8755   3.209  10.514   7.136 -0.8252 -0.3240 -0.2651
   67MOL0    Cl 8756   3.094  10.557   7.003  0.4698  0.4856 -0.2082
   67MOL0     C 8757   3.700  10.044   6.268 -0.2125  0.1210  0.6025
   67MOL0     C 8758   3.769  10.023   6.150 -0.3970  0.0436  0.8253
   67MOL0     O 8759   3.680   9.978   5.774  0.4578 -0.0604  1.1550
   67MOL0     C 8760   4.037   9.990   5.735  0.1227  0.3519 -0.0788
   67MOL0     C 8761   4.129  10.009   5.632  0.7275  0.4770 -0.0183
   67MOL0     N 8762   4.335   9.594   5.525  0.4352 -0.2862  0.0565
   67MOL0     N 8763   4.302   9.548   5.643 -0.0174 -0.2519 -0.3899
   67MOL0     C 8764   3.524   9.459   6.591 -0.3798  0.2757  0.7125
   67MOL0     C 8765   3.415   9.516   6.671 -0.0882  0.6876 -0.1103
   67MOL0     C 8766   3.176   9.816   6.923 -0.7775  0.0770 -0.4606
   67MOL0     C 8767   3.205   9.871   7.048 -0.0749  0.0838  0.4438
   67MOL0     C 8768   3.115   9.966   7.104 -0.0414  0.3256 -0.2223
   67MOL0     C 8769   3.007  10.015   7.029 -0.5505 -0.1821 -0.2348
   67MOL0     O 8770   2.935  10.106   7.101 -0.0929  0.1767 -0.1926
   67MOL0     C 8771   2.809  10.140   7.063  0.9936  0.0997  0.3485
   67MOL0     C 8772   2.725  10.209   7.173 -0.2210  0.1658 -0.6930
   67MOL0     C 8773   2.783  10.335   7.237  0.0598 -0.6998  0.1659
   67MOL0     C 8774   2.792  10.454   7.128  0.3636  0.7743 -0.0753
   67MOL0     C 8775   2.800  10.581   7.195  0.8234 -0.1599  0.1210
   67MOL0     C 8776   2.800  10.694   7.247 -0.1734 -0.2351 -0.7779
   67MOL0     C 8777   2.980   9.960   6.897  0.3636  0.1166  0.8551
   67MOL0     C 8778   3.069   9.864   6.851  0.5580 -0.3211  0.6368
   67MOL0     H 8779   3.364   9.810   6.520 -1.8661  0.0175  0.8930
   67MOL0     H 8780   3.561   9.729   6.398  0.0504  1.1952  0.4974
   67MOL0     H 8781   3.760   9.694   6.412 -2.3467 -0.5407 -0.3095
   67MOL0     H 8782   3.686   9.627   6.267  0.3121  1.4163 -0.2014
   67MOL0     H 8783   3.900   9.488   6.230 -0.9025  0.4434  0.5174
   67MOL0     H 8784   3.973   9.571   6.378  0.3768  1.4380  0.6632
   67MOL0     H 8785   3.947   9.785   6.270  0.8121  0.7492 -0.8074
   67MOL0     H 8786   3.871   9.709   6.136 -0.8547 -3.9360  0.3115
   67MOL0     H 8787   4.158   9.620   6.201  3.4298  2.2892 -0.8341
   67MOL0     H 8788   4.069   9.610   6.048  0.8811 -0.5919  0.4404
   67MOL0     H 8789   4.208   9.837   6.189 -0.4029  1.4697 -0.2017
   67MOL0     H 8790   4.073   9.878   6.106  0.5197  0.2152  3.8985
   67MOL0     H 8791   4.264   9.895   5.968 -0.3889  0.4524  2.9663
   67MOL0     H 8792   4.167   9.756   5.893  0.0300 -0.5358 -0.0784
   67MOL0     H 8793   4.444   9.764   5.980  1.2563 -0.2690  4.2301
   67MOL0     H 8794   4.367   9.666   6.091  3.1008  0.5183 -0.3665
   67MOL0     H 8795   4.270   9.526   5.910  0.1945 -1.1862  0.8576
   67MOL0     H 8796   4.447   9.515   5.911 -0.5835 -1.2179 -0.2375
   67MOL0     H 8797   4.519   9.766   5.733 -0.5781 -0.5236  1.4834
   67MOL0     H 8798   4.508   9.698   5.358  1.6969 -0.7662  0.0045
   67MOL0     H 8799   4.622   9.745   5.482 -0.1420 -0.1546  0.5836
   67MOL0     H 8800   4.578   9.952   5.400  2.1377 -3.7818  1.1352
   67MOL0     H 8801   4.477   9.940   5.542 -0.5638 -0.3501 -0.2855
   67MOL0     H 8802   4.369   9.946   5.257 -2.4850  2.1272 -0.3726
   67MOL0     H 8803   4.277   9.869   5.384  0.2170  0.2343  0.2222
   67MOL0     H 8804   4.334  10.163   5.331 -4.1638  1.0961 -0.2910
   67MOL0     H 8805   4.331  10.112   5.501  3.9095 -2.8391  0.1062
   67MOL0     H 8806   3.908  10.078   5.386 -0.1819  1.8232  0.0081
   67MOL0     H 8807   3.753   9.988   5.551 -0.9318  2.1820  0.9522
   67MOL0     H 8808   3.561   9.814   5.978 -0.5477  0.0997  1.8729
   67MOL0     H 8809   3.414   9.892   6.150  0.1337  0.2339 -1.2070
   67MOL0     H 8810   3.546  10.185   6.458  0.9771 -0.6510 -0.6615
   67MOL0     H 8811   3.625  10.045   6.521 -0.1853 -2.3955 -1.1963
   67MOL0     H 8812   3.405   9.984   6.641  2.4311 -1.0924 -0.8366
   67MOL0     H 8813   3.331  10.131   6.568 -1.3141 -0.5044  3.3730
   67MOL0     H 8814   3.495  10.264   6.705  0.8968 -0.0526 -0.7391
   67MOL0     H 8815   3.551  10.107   6.777 -1.3645  0.3487  1.6389
   67MOL0     H 8816   3.267  10.201   6.783 -0.6943  3.0057  4.2336
   67MOL0     H 8817   3.332  10.048   6.856  1.2372 -0.9867 -0.4300
   67MOL0     H 8818   3.462  10.313   6.936  1.1702 -0.8323 -0.7493
   67MOL0     H 8819   3.427  10.165   7.029 -1.5793  0.3073  0.6968
   67MOL0     H 8820   3.210  10.245   7.077  0.7210  0.3060  1.4667
   67MOL0     H 8821   3.216  10.351   6.930  1.9367  1.2249  0.0852
   67MOL0     H 8822   3.386  10.396   7.184 -1.4906  1.6607  1.9374
   67MOL0     H 8823   3.395  10.482   7.031  1.5613 -0.6299 -0.0533
   67MOL0     H 8824   3.234  10.608   7.186  0.7197 -0.4396 -0.7589
   67MOL0     H 8825   3.161  10.457   7.216  3.4590 -0.2311  2.7589
   67MOL0     H 8826   3.736  10.102   6.352  1.1053  1.7012 -0.9744
   67MOL0     H 8827   3.866  10.072   6.137  0.7614 -1.7622  2.1961
   67MOL0     H 8828   4.068   9.969   5.837  1.9695  0.5361 -0.5729
   67MOL0     H 8829   4.235   9.992   5.650  0.8838 -2.2239 -2.6615
   67MOL0     H 8830   3.575   9.365   6.608 -0.0799  0.0154 -1.4548
   67MOL0     H 8831   3.377   9.448   6.747 -2.6625  0.5964 -1.3711
   67MOL0     H 8832   3.282   9.821   7.106  0.3134 -2.3735 -1.9795
   67MOL0     H 8833   3.137  10.011   7.201 -1.8367 -1.1180  0.9202
   67MOL0     H 8834   2.756  10.045   7.052  1.4340 -0.2765  1.4105
   67MOL0     H 8835   2.800  10.199   6.971 -3.6611 -0.0171  0.4934
   67MOL0     H 8836   2.625  10.237   7.137 -0.4140  1.1209  0.5212
   67MOL0     H 8837   2.709  10.140   7.256 -3.2197  0.6890 -0.7098
   67MOL0     H 8838   2.882  10.313   7.278  0.2766  0.1214  0.0941
   67MOL0     H 8839   2.706  10.369   7.307 -0.0720 -0.6086 -0.0218
   67MOL0     H 8840   2.880  10.431   7.067 -0.2839 -0.8035 -0.4857
   67MOL0     H 8841   2.708  10.449   7.057 -0.2484  0.7568  0.6374
   67MOL0     H 8842   2.797  10.785   7.303 -0.7905 -1.2505  0.9434
   67MOL0     H 8843   2.906   9.985   6.822 -0.4315 -0.1330  1.5377
   67MOL0     H 8844   3.056   9.828   6.750 -0.1476  0.5140  0.4193
   68MOL0     O 8845   2.841   0.556   5.858  1.4156  0.2212 -0.0894
   68MOL0     C 8846   2.923   0.468   5.828  0.3280  0.3943 -0.2113
   68MOL0     O 8847   3.009   0.400   5.915  0.5588 -0.3764 -0.7111
   68MOL0     C 8848   3.019   0.451   6.044 -0.0236  0.4051 -0.9499
   68MOL0     C 8849   2.994   0.364   6.154 -0.2314 -0.3623  0.8424
   68MOL0     C 8850   3.012   0.404   6.286 -0.0646 -0.4407 -0.2504
   68MOL0     C 8851   3.035   0.545   6.313 -0.3085 -1.2329  0.6273
   68MOL0     O 8852   3.046   0.584   6.445 -0.3474  0.1714 -0.8904
   68MOL0     C 8853   3.157   0.647   6.493 -0.3345  0.3102 -0.1935
   68MOL0     C 8854   3.128   0.787   6.565  0.4664  1.0093  0.0710
   68MOL0     C 8855   3.031   0.759   6.671  0.5339  0.3743  0.2291
   68MOL0     C 8856   2.995   0.880   6.751 -0.0587  1.0698 -0.0219
   68MOL0     C 8857   3.121   0.956   6.809 -0.0939  0.0643  1.0113
   68MOL0     C 8858   3.095   1.064   6.913 -0.6501 -0.7794 -0.2490
   68MOL0     C 8859   3.022   1.010   7.040 -0.5284 -0.3197  0.5207
   68MOL0     C 8860   3.014   1.093   7.174  0.1691  0.2321  0.2925
   68MOL0     N 8861   3.005   1.235   7.156 -0.8354  0.2828  0.2152
   68MOL0     C 8862   2.890   1.304   7.153 -0.1305 -0.9515 -0.3216
   68MOL0     C 8863   2.917   1.423   7.093 -0.5810  0.4166  0.2952
   68MOL0     C 8864   2.823   1.524   7.054  0.4402  0.1701 -0.3029
   68MOL0     C 8865   2.740   1.508   6.936 -0.0841  0.4555  0.0701
   68MOL0     C 8866   2.816   1.472   6.805 -0.6181  0.0388  0.5563
   68MOL0     C 8867   2.925   1.584   6.776 -0.4772 -0.4221 -0.1686
   68MOL0     O 8868   2.974   1.589   6.639 -0.2982 -0.3510 -0.1940
   68MOL0     C 8869   3.044   1.483   6.599 -0.3127  0.0557  0.5628
   68MOL0     C 8870   3.118   1.398   6.680 -0.1599 -0.0418 -0.0374
   68MOL0     C 8871   3.196   1.290   6.630 -0.5086 -0.0360 -0.0215
   68MOL0     C 8872   3.206   1.271   6.495  1.4951  0.5293  0.4414
   68MOL0     C 8873   3.282   1.166   6.437 -0.2881  1.1436  0.4684
   68MOL0     O 8874   3.292   1.169   6.296 -0.1818  0.9456  0.4260
   68MOL0     C 8875   3.361   1.081   6.214 -1.1139 -0.3149  0.5810
   68MOL0     C 8876   3.339   1.102   6.075 -0.1730  0.6891  0.0823
   68MOL0     C 8877   3.391   1.004   5.978 -0.1594  0.0954  0.1622
   68MOL0     C 8878   3.473   0.910   6.025 -0.6135  0.7276 -0.3633
   68MOL0     O 8879   3.529   0.817   5.942  0.5811  0.0666 -0.5557
   68MOL0     C 8880   3.450   0.721   5.885 -0.1239 -0.0960 -0.6180
   68MOL0     C 8881   3.536   0.600   5.847 -0.3000  0.9277 -1.1309
   68MOL0     C 8882   3.463   0.518   5.740 -0.6767  0.1851 -0.2101
   68MOL0     C 8883   3.457   0.585   5.600 -0.7407  0.5511  0.6332
   68MOL0     C 8884   3.402   0.481   5.495  0.1144 -0.0615 -0.0035
   68MOL0     C 8885   3.502   0.379   5.454 -0.5355  0.4427  0.3501
   68MOL0     C 8886   3.437   0.267   5.377  0.5270 -0.3034 -0.5857
   68MOL0     C 8887   3.539   0.169   5.338  0.2744  0.5007 -0.4613
   68MOL0    Cl 8888   3.452   0.052   5.247 -0.1663  0.5373 -0.1720
   68MOL0     C 8889   3.497   0.886   6.159 -0.1947  0.3726  1.0204
   68MOL0     C 8890   3.447   0.976   6.253 -0.3871  0.5340 -0.8317
   68MOL0     O 8891   3.318   1.073   6.500 -0.0334  0.0664  0.0264
   68MOL0     C 8892   3.128   1.354   6.411 -0.2324  0.0943  0.6337
   68MOL0     C 8893   3.040   1.450   6.463  0.2003  0.2185  0.6402
   68MOL0     N 8894   3.051   1.424   7.060  0.2012  1.3194  0.1985
   68MOL0     N 8895   3.107   1.307   7.095 -0.1722 -1.1593 -0.6034
   68MOL0     C 8896   3.060   0.630   6.206  0.5478  0.1996  0.0998
   68MOL0     C 8897   3.064   0.584   6.062 -0.3326 -1.2115 -0.4957
   68MOL0     C 8898   2.940   0.426   5.686  0.3669  0.7048  0.4422
   68MOL0     C 8899   3.013   0.321   5.635 -0.6368 -0.5055 -0.1472
   68MOL0     C 8900   3.022   0.303   5.500 -0.6048  0.5734  0.7099
   68MOL0     C 8901   2.958   0.381   5.405  0.8537 -0.5256  0.3451
   68MOL0     O 8902   2.936   0.353   5.269 -0.0696  0.6510 -0.3420
   68MOL0     C 8903   3.037   0.281   5.196  0.5868 -0.3139 -0.5964
   68MOL0     C 8904   2.989   0.266   5.046  0.5430 -0.0194 -0.4744
   68MOL0     C 8905   2.880   0.153   5.016 -0.5804  0.3630 -0.5662
   68MOL0     C 8906   2.760   0.202   4.927  0.1668  0.3573 -0.3450
   68MOL0     C 8907   2.808   0.259   4.800 -0.1387 -0.5722  0.5510
   68MOL0     C 8908   2.840   0.302   4.688 -0.0138  0.2376  0.2545
   68MOL0     C 8909   2.878   0.488   5.456 -0.1508  0.9562 -0.2085
   68MOL0     C 8910   2.871   0.508   5.594  0.0392  0.0265  0.5528
   68MOL0     H 8911   2.970   0.260   6.131 -2.3390 -0.1263  1.7771
   68MOL0     H 8912   2.991   0.337   6.368 -1.0291 -0.0764 -0.1778
   68MOL0     H 8913   3.224   0.672   6.410  0.1301 -0.6981 -0.1375
   68MOL0     H 8914   3.202   0.576   6.564 -1.3623 -1.7980 -1.5517
   68MOL0     H 8915   3.088   0.862   6.496 -0.5750  0.0904 -0.3516
   68MOL0     H 8916   3.222   0.823   6.606  2.2606 -3.5027  0.5106
   68MOL0     H 8917   3.069   0.687   6.743  0.4628 -0.9201 -0.9821
   68MOL0     H 8918   2.942   0.710   6.631  0.2496  1.5911 -0.7276
   68MOL0     H 8919   2.937   0.948   6.688  1.3919  0.5668 -1.9892
   68MOL0     H 8920   2.915   0.861   6.823 -1.1843  2.4828 -0.8566
   68MOL0     H 8921   3.179   1.001   6.729  0.1311 -1.4744  0.2639
   68MOL0     H 8922   3.192   0.884   6.852  3.3184  3.6617  1.9007
   68MOL0     H 8923   3.025   1.138   6.874 -1.1763 -0.5566  1.0588
   68MOL0     H 8924   3.198   1.099   6.924  0.0608 -0.9592 -4.7044
   68MOL0     H 8925   2.921   0.975   7.016 -0.5501  0.2362 -0.2257
   68MOL0     H 8926   3.091   0.931   7.071  2.5064  1.2664 -1.6206
   68MOL0     H 8927   3.113   1.085   7.221 -0.4779 -4.2178  1.3705
   68MOL0     H 8928   2.930   1.058   7.235 -0.1534  2.4885  1.2581
   68MOL0     H 8929   2.792   1.262   7.172  0.4332 -1.7248  1.0529
   68MOL0     H 8930   2.881   1.616   7.040 -2.0103  1.8277 -0.1904
   68MOL0     H 8931   2.747   1.544   7.129 -1.6264 -3.5734 -1.1424
   68MOL0     H 8932   2.664   1.583   6.913 -0.2239 -0.1654 -1.5816
   68MOL0     H 8933   2.673   1.423   6.951 -0.7429  0.0436 -4.1862
   68MOL0     H 8934   2.870   1.377   6.815 -2.0184 -0.9585 -0.8002
   68MOL0     H 8935   2.752   1.457   6.718  0.5298 -1.4776 -0.0849
   68MOL0     H 8936   3.013   1.591   6.840 -0.2013 -0.2160 -0.5697
   68MOL0     H 8937   2.866   1.675   6.790  0.0218 -0.3239  1.3639
   68MOL0     H 8938   3.136   1.431   6.782 -0.2783 -1.0763  0.3276
   68MOL0     H 8939   3.258   1.236   6.700 -0.2678 -0.2229 -0.3799
   68MOL0     H 8940   3.260   1.174   6.055 -1.5407 -0.3209  1.5176
   68MOL0     H 8941   3.381   1.003   5.870  3.7190 -4.0283 -0.4277
   68MOL0     H 8942   3.405   0.773   5.800  1.2114 -1.4952 -2.2811
   68MOL0     H 8943   3.373   0.689   5.955  2.6863 -1.2296  2.2342
   68MOL0     H 8944   3.560   0.541   5.936  1.0202  0.4731 -1.7564
   68MOL0     H 8945   3.636   0.628   5.813  0.3670  0.7099  0.5266
   68MOL0     H 8946   3.362   0.493   5.773 -0.8544  0.9328 -0.1758
   68MOL0     H 8947   3.522   0.427   5.728  0.1820  0.9242 -2.0246
   68MOL0     H 8948   3.383   0.665   5.607 -1.3918 -0.1688  2.4601
   68MOL0     H 8949   3.549   0.637   5.570 -2.2573  1.4363 -3.0295
   68MOL0     H 8950   3.353   0.529   5.410 -0.8833 -0.7614  0.1581
   68MOL0     H 8951   3.318   0.439   5.551 -1.6536  1.9633 -0.9988
   68MOL0     H 8952   3.562   0.332   5.533  0.8062 -1.0030 -1.4343
   68MOL0     H 8953   3.581   0.420   5.390 -0.6924 -0.7409 -0.6425
   68MOL0     H 8954   3.340   0.233   5.415  0.0785  1.6119  0.1287
   68MOL0     H 8955   3.404   0.309   5.281  0.8763 -1.4338 -1.2150
   68MOL0     H 8956   3.591   0.121   5.421  1.7216 -0.0948 -1.6631
   68MOL0     H 8957   3.624   0.208   5.281 -0.3706  1.0522 -1.0765
   68MOL0     H 8958   3.573   0.814   6.187  0.9636  2.2965  3.1146
   68MOL0     H 8959   3.468   0.951   6.357 -0.6946 -0.8743 -1.0960
   68MOL0     H 8960   3.128   1.354   6.302 -0.8656 -2.7104  0.5528
   68MOL0     H 8961   2.977   1.514   6.402  0.0815  0.7670  1.3231
   68MOL0     H 8962   3.055   0.734   6.233 -2.2935 -0.0044  0.7307
   68MOL0     H 8963   3.092   0.641   5.975  1.4890  1.1478  1.4991
   68MOL0     H 8964   3.050   0.247   5.707 -1.6077  3.7177  5.3514
   68MOL0     H 8965   3.091   0.225   5.469  0.6301  0.4248  3.5067
   68MOL0     H 8966   3.046   0.182   5.243  1.0429  0.1080  0.2272
   68MOL0     H 8967   3.137   0.324   5.206 -1.0175  3.4010  1.6037
   68MOL0     H 8968   2.948   0.362   5.012 -1.9163  0.0701  2.3140
   68MOL0     H 8969   3.081   0.254   4.988 -0.7263 -2.0417 -2.2232
   68MOL0     H 8970   2.847   0.116   5.113 -2.9578  0.9090 -1.1123
   68MOL0     H 8971   2.923   0.065   4.968 -2.2352 -0.6308 -0.2748
   68MOL0     H 8972   2.695   0.117   4.908 -1.6368  1.1695  1.7785
   68MOL0     H 8973   2.711   0.271   4.997 -0.0058 -1.6087  1.5603
   68MOL0     H 8974   2.843   0.346   4.590  0.6409 -0.9943 -0.2925
   68MOL0     H 8975   2.810   0.546   5.395 -2.6849 -1.6651 -0.1260
   68MOL0     H 8976   2.800   0.586   5.619 -3.9503 -1.9207 -3.2367
   69MOL0     O 8977   9.264   7.637   1.209  0.0435  0.3759 -0.0247
   69MOL0     C 8978   9.337   7.735   1.204  0.4064 -1.0901 -0.4085
   69MOL0     O 8979   9.282   7.856   1.225 -0.2459  0.1710 -0.3679
   69MOL0     C 8980   9.151   7.859   1.213  0.2858 -0.7232 -0.4933
   69MOL0     C 8981   9.072   7.884   1.321  0.6536  0.0647  0.1232
   69MOL0     C 8982   8.934   7.916   1.303  0.2246  0.9193  0.3422
   69MOL0     C 8983   8.875   7.899   1.172  0.5321 -0.1113  0.5422
   69MOL0     O 8984   8.735   7.897   1.163 -0.4657  0.0163 -0.4384
   69MOL0     C 8985   8.660   7.899   1.036 -0.3502  0.3676 -1.0487
   69MOL0     C 8986   8.515   7.935   1.068  0.0029 -0.5112 -0.1393
   69MOL0     C 8987   8.433   7.938   0.939  0.5203  0.2320 -0.5238
   69MOL0     C 8988   8.413   7.806   0.863  0.1129  0.7823  0.5134
   69MOL0     C 8989   8.277   7.795   0.792  0.1974 -1.2064 -0.7533
   69MOL0     C 8990   8.243   7.918   0.703 -0.1114  0.1903 -0.5409
   69MOL0     C 8991   8.110   7.901   0.631  0.1212 -0.4209  0.0151
   69MOL0     C 8992   7.989   7.856   0.717 -0.5078  0.0389 -0.1636
   69MOL0     N 8993   7.919   7.963   0.790 -0.6370 -0.6962  0.6423
   69MOL0     C 8994   7.962   8.016   0.913 -0.3238  0.1347 -0.4695
   69MOL0     C 8995   7.876   8.117   0.945  0.2465 -0.2870 -0.1061
   69MOL0     C 8996   7.883   8.220   1.055 -0.2691 -0.0418 -0.6233
   69MOL0     C 8997   7.869   8.161   1.198  0.5941 -0.4480  0.2379
   69MOL0     C 8998   7.930   8.250   1.298 -0.1953 -0.0853 -0.8220
   69MOL0     C 8999   8.076   8.221   1.331  0.2244  0.1086  0.6516
   69MOL0     O 9000   8.163   8.256   1.224  0.4522  0.0675  0.3313
   69MOL0     C 9001   8.297   8.262   1.245 -0.5631  0.5660  1.0321
   69MOL0     C 9002   8.373   8.337   1.157  0.6128 -0.1280 -0.1041
   69MOL0     C 9003   8.499   8.380   1.189  0.0650 -0.5775 -0.8074
   69MOL0     C 9004   8.569   8.318   1.290 -0.5387  0.0922 -0.3935
   69MOL0     C 9005   8.712   8.360   1.329  0.4925  0.3269 -0.0146
   69MOL0     O 9006   8.755   8.302   1.441 -0.9007 -0.7674  0.0720
   69MOL0     C 9007   8.871   8.339   1.493 -0.5458 -0.1004  0.7238
   69MOL0     C 9008   8.966   8.243   1.507  0.0819 -0.9733 -0.5367
   69MOL0     C 9009   9.093   8.269   1.574 -0.1309  0.5316  0.4896
   69MOL0     C 9010   9.137   8.399   1.586 -0.3773  0.1394 -0.2708
   69MOL0     O 9011   9.270   8.415   1.620 -0.8428 -0.4068  0.5485
   69MOL0     C 9012   9.326   8.542   1.659 -0.5988 -0.5695  0.3955
   69MOL0     C 9013   9.464   8.513   1.714 -0.4933 -0.1714  0.2033
   69MOL0     C 9014   9.568   8.607   1.650 -0.4869 -0.6710 -0.9955
   69MOL0     C 9015   9.712   8.566   1.688 -0.5589 -0.3376  0.1678
   69MOL0     C 9016   9.814   8.671   1.649 -0.1378  1.3514 -0.0873
   69MOL0     C 9017   9.829   8.664   1.499 -0.2278 -1.2405  0.0038
   69MOL0     C 9018   9.949   8.743   1.455  1.4557 -0.1150  0.1066
   69MOL0     C 9019   9.922   8.892   1.483  0.7346  0.4590 -0.5403
   69MOL0    Cl 9020  10.012   9.003   1.371 -0.2798  0.2503 -0.1237
   69MOL0     C 9021   9.037   8.501   1.554 -0.2534 -0.0941  0.6966
   69MOL0     C 9022   8.901   8.473   1.520 -0.4804 -0.7818 -0.4666
   69MOL0     O 9023   8.765   8.450   1.264 -0.8997 -0.1876  0.2317
   69MOL0     C 9024   8.500   8.218   1.363 -0.9549  0.3422  0.1235
   69MOL0     C 9025   8.365   8.186   1.348 -0.7169  0.2244 -0.1548
   69MOL0     N 9026   7.759   8.096   0.865  0.7865 -0.3450  0.1248
   69MOL0     N 9027   7.793   8.014   0.766 -0.0341 -0.3878 -0.6782
   69MOL0     C 9028   8.961   7.863   1.064 -0.0817  0.3837  0.9784
   69MOL0     C 9029   9.095   7.857   1.079 -0.3291  0.1933  0.0545
   69MOL0     C 9030   9.479   7.713   1.213 -0.3985  0.7343 -0.2298
   69MOL0     C 9031   9.527   7.591   1.255 -1.0107 -0.2982  0.4867
   69MOL0     C 9032   9.658   7.565   1.285 -0.6170 -0.5324  0.5456
   69MOL0     C 9033   9.749   7.678   1.285  1.1893  0.9015  0.6187
   69MOL0     O 9034   9.883   7.669   1.314 -0.2499 -0.0443 -0.0837
   69MOL0     C 9035   9.954   7.549   1.359 -0.9247  0.1557  0.9036
   69MOL0     C 9036  10.004   7.478   1.231  0.1361 -0.1877 -0.9827
   69MOL0     C 9037  10.098   7.355   1.241 -0.0178  1.0279 -0.5727
   69MOL0     C 9038  10.222   7.388   1.325  0.5566  0.4564 -1.1279
   69MOL0     C 9039  10.324   7.468   1.255  0.3353 -0.1436 -0.0446
   69MOL0     C 9040  10.405   7.541   1.205  0.6017  0.2836  0.3435
   69MOL0     C 9041   9.704   7.807   1.244 -0.1070  0.1228 -0.9517
   69MOL0     C 9042   9.568   7.818   1.212 -0.2925  0.2880  0.4750
   69MOL0     H 9043   9.118   7.883   1.419 -0.7583  1.2428  0.8401
   69MOL0     H 9044   8.874   7.942   1.389  0.5870 -0.6732  1.1079
   69MOL0     H 9045   8.662   7.799   0.992 -0.8778 -2.1745  3.9671
   69MOL0     H 9046   8.703   7.967   0.962  0.4523  1.6833  0.5472
   69MOL0     H 9047   8.501   8.042   1.089 -2.8390 -0.9053  0.3933
   69MOL0     H 9048   8.464   7.876   1.145 -1.1096 -1.6780 -1.7104
   69MOL0     H 9049   8.486   7.993   0.861  1.5112 -0.8890 -0.6746
   69MOL0     H 9050   8.337   7.986   0.958 -1.4053 -3.0577 -1.1356
   69MOL0     H 9051   8.493   7.793   0.789 -1.4268 -2.7174 -0.7502
   69MOL0     H 9052   8.435   7.718   0.924 -2.0094 -0.5563 -0.5694
   69MOL0     H 9053   8.213   7.780   0.879  0.5112  0.1042 -0.2771
   69MOL0     H 9054   8.269   7.703   0.734  4.5663 -1.0702 -1.9091
   69MOL0     H 9055   8.320   7.930   0.626  1.3289 -1.7889  0.5014
   69MOL0     H 9056   8.237   8.008   0.764 -1.2651  0.9098 -1.6686
   69MOL0     H 9057   8.081   7.994   0.581 -2.3997 -1.8246 -1.2720
   69MOL0     H 9058   8.129   7.823   0.557  5.9250  0.1067  0.4345
   69MOL0     H 9059   8.017   7.785   0.795 -2.5927  3.2106  3.8829
   69MOL0     H 9060   7.908   7.817   0.655 -1.4389 -0.7959  1.4953
   69MOL0     H 9061   8.050   7.987   0.969  0.3240  3.3204  0.3389
   69MOL0     H 9062   7.799   8.289   1.056 -1.4454 -1.3956  2.2010
   69MOL0     H 9063   7.978   8.274   1.041 -1.0977  2.1042  1.4075
   69MOL0     H 9064   7.911   8.062   1.219  0.9729  0.0369  1.9807
   69MOL0     H 9065   7.761   8.160   1.215  0.6096 -0.4650  0.3387
   69MOL0     H 9066   7.923   8.356   1.272 -0.1006  0.0197 -0.4239
   69MOL0     H 9067   7.883   8.242   1.396  1.9083 -2.4690  0.1027
   69MOL0     H 9068   8.076   8.113   1.349  0.3912  0.0781  0.4664
   69MOL0     H 9069   8.112   8.265   1.425 -0.9182 -0.1862  1.2450
   69MOL0     H 9070   8.321   8.398   1.084  1.8420  0.7421 -0.2826
   69MOL0     H 9071   8.547   8.461   1.134  2.0444 -1.5866 -0.6832
   69MOL0     H 9072   8.957   8.143   1.466 -0.4484 -2.2545  2.3801
   69MOL0     H 9073   9.166   8.191   1.588  0.6315  1.0259 -0.5778
   69MOL0     H 9074   9.259   8.592   1.730 -3.1840 -2.5857 -0.4834
   69MOL0     H 9075   9.335   8.608   1.572 -1.4439  2.5634  2.5024
   69MOL0     H 9076   9.499   8.412   1.694 -2.7725 -0.5428 -2.4778
   69MOL0     H 9077   9.471   8.539   1.820  1.0245 -0.9651  0.3329
   69MOL0     H 9078   9.548   8.710   1.679 -0.6688 -0.7974 -0.6642
   69MOL0     H 9079   9.566   8.592   1.541 -2.4076 -1.2382 -0.9090
   69MOL0     H 9080   9.725   8.544   1.794  1.1403  1.6148  0.4179
   69MOL0     H 9081   9.745   8.473   1.640 -0.1737  0.0085 -0.2413
   69MOL0     H 9082   9.906   8.668   1.708 -0.3141 -0.0244  0.1552
   69MOL0     H 9083   9.772   8.769   1.670  1.8712  2.1525  0.4450
   69MOL0     H 9084   9.751   8.701   1.432  0.4422 -3.2272 -2.0040
   69MOL0     H 9085   9.835   8.558   1.471 -1.1417 -0.4727 -3.6175
   69MOL0     H 9086  10.036   8.711   1.513 -0.5638  2.2976  5.0478
   69MOL0     H 9087   9.957   8.740   1.346  0.6545 -2.6459  0.0433
   69MOL0     H 9088   9.967   8.912   1.581  2.8854 -2.9772 -0.6623
   69MOL0     H 9089   9.814   8.911   1.480  0.1107 -1.9504  2.1938
   69MOL0     H 9090   9.067   8.604   1.570  0.5464  0.0396 -1.3701
   69MOL0     H 9091   8.823   8.549   1.519 -2.1038 -2.2427  2.3076
   69MOL0     H 9092   8.544   8.152   1.436  2.7511  6.5029  4.3747
   69MOL0     H 9093   8.314   8.116   1.413  2.2059  0.1543  2.2801
   69MOL0     H 9094   8.927   7.836   0.965 -1.9844 -4.8116  2.6929
   69MOL0     H 9095   9.156   7.851   0.990 -0.8998 -0.1922 -0.3219
   69MOL0     H 9096   9.466   7.502   1.250 -1.6123  0.1370 -0.1306
   69MOL0     H 9097   9.678   7.462   1.311 -1.5419 -1.1746 -1.1513
   69MOL0     H 9098   9.917   7.470   1.426  3.2688 -0.8290  2.3937
   69MOL0     H 9099  10.045   7.584   1.408 -0.3509  0.7241 -0.5130
   69MOL0     H 9100   9.920   7.458   1.163 -0.2291 -1.1598 -0.2515
   69MOL0     H 9101  10.059   7.548   1.166 -0.2505  1.1493  0.0866
   69MOL0     H 9102  10.137   7.320   1.145  0.0231 -0.6260  0.0233
   69MOL0     H 9103  10.031   7.283   1.289 -0.4929  0.9707 -1.3011
   69MOL0     H 9104  10.211   7.431   1.425 -0.1928 -3.2495  0.5576
   69MOL0     H 9105  10.265   7.289   1.344 -0.7300 -0.3466 -2.1996
   69MOL0     H 9106  10.479   7.603   1.158 -0.4978  0.3688 -1.3534
   69MOL0     H 9107   9.767   7.895   1.243  1.6153 -1.0027  1.0058
   69MOL0     H 9108   9.523   7.907   1.169 -1.3096 -1.9019 -3.4790
   70MOL0     O 9109   7.538   6.084   4.947  0.1168  0.4416 -0.3337
   70MOL0     C 9110   7.420   6.115   4.930  0.6145 -0.2133  0.0014
   70MOL0     O 9111   7.346   6.088   4.817  0.0389 -0.8228  0.0441
   70MOL0     C 9112   7.410   6.098   4.696  0.0359  1.0467  1.0917
   70MOL0     C 9113   7.504   5.996   4.661 -0.5301 -0.0210  0.4680
   70MOL0     C 9114   7.576   6.011   4.542 -0.5941  0.7326 -0.0035
   70MOL0     C 9115   7.561   6.117   4.463  0.2554 -0.4502 -0.3329
   70MOL0     O 9116   7.622   6.129   4.341 -0.6305  0.4778 -0.1132
   70MOL0     C 9117   7.726   6.224   4.352  0.5209  0.3515  0.1325
   70MOL0     C 9118   7.777   6.221   4.213 -0.1948  0.4651 -0.1224
   70MOL0     C 9119   7.885   6.333   4.209  0.6164 -0.1704 -0.1454
   70MOL0     C 9120   7.952   6.349   4.064 -0.1799 -0.2412 -0.4481
   70MOL0     C 9121   8.080   6.436   4.090  0.3950  0.8524 -0.1204
   70MOL0     C 9122   8.176   6.438   3.974 -0.7145 -0.5538  0.1134
   70MOL0     C 9123   8.303   6.519   4.003 -0.0512 -0.4249 -0.2587
   70MOL0     C 9124   8.396   6.469   4.117  1.4489  0.1238  0.0963
   70MOL0     N 9125   8.511   6.561   4.137 -1.0792  0.4310 -0.2236
   70MOL0     C 9126   8.636   6.543   4.092  1.1378  0.1038  0.0956
   70MOL0     C 9127   8.708   6.640   4.145  0.1604 -0.8230  0.1064
   70MOL0     C 9128   8.853   6.664   4.137 -0.3215 -0.2862 -0.0086
   70MOL0     C 9129   8.901   6.728   4.005 -0.2365  0.4811 -0.5175
   70MOL0     C 9130   8.943   6.629   3.893 -0.6416  0.5283 -0.1517
   70MOL0     C 9131   9.083   6.667   3.848 -0.5666  0.0053 -0.2254
   70MOL0     O 9132   9.179   6.645   3.952 -0.1252  0.1703 -0.0378
   70MOL0     C 9133   9.291   6.720   3.957 -0.1698  0.8709  0.7146
   70MOL0     C 9134   9.338   6.809   3.855 -1.6169 -0.4167  0.3112
   70MOL0     C 9135   9.461   6.870   3.855  0.4425  0.3503 -0.2454
   70MOL0     C 9136   9.538   6.862   3.970 -0.5186  1.0596 -0.4075
   70MOL0     C 9137   9.662   6.935   3.981  0.4161  0.9034 -0.3414
   70MOL0     O 9138   9.738   6.910   4.091  0.0743 -0.3186 -0.0436
   70MOL0     C 9139   9.854   6.967   4.099 -0.3794 -0.8334 -1.7331
   70MOL0     C 9140   9.965   6.885   4.085 -0.4455 -0.5832 -0.8397
   70MOL0     C 9141  10.091   6.931   4.089  0.2012 -0.4343 -0.2691
   70MOL0     C 9142  10.122   7.060   4.131  0.2137 -0.5611  1.0698
   70MOL0     O 9143  10.256   7.091   4.123  0.2859 -0.0086 -0.3897
   70MOL0     C 9144  10.301   7.229   4.141  0.8413  0.9222  0.1041
   70MOL0     C 9145  10.444   7.231   4.192  0.5420 -0.4602 -0.2029
   70MOL0     C 9146  10.467   7.155   4.320  0.5972 -0.2651 -0.2038
   70MOL0     C 9147  10.609   7.175   4.372  0.4982 -0.4217 -0.0506
   70MOL0     C 9148  10.627   7.126   4.516 -0.4314 -0.6139 -0.0511
   70MOL0     C 9149  10.611   6.977   4.531 -0.3730  0.2220  0.3782
   70MOL0     C 9150  10.668   6.919   4.663  0.4142  0.4479  0.1614
   70MOL0     C 9151  10.816   6.899   4.644 -0.8308 -0.0070 -0.2626
   70MOL0    Cl 9152  10.850   6.750   4.547  0.6073 -0.2325  0.0595
   70MOL0     C 9153  10.021   7.143   4.171 -0.1412  0.5688  0.2362
   70MOL0     C 9154   9.882   7.100   4.145  0.0310  0.2476 -0.6754
   70MOL0     O 9155   9.685   7.011   3.886  0.4575  0.6047  0.3546
   70MOL0     C 9156   9.486   6.791   4.082 -0.7423  0.7650  0.4680
   70MOL0     C 9157   9.368   6.718   4.073 -0.3792 -0.2293 -0.5580
   70MOL0     N 9158   8.615   6.716   4.219 -1.0175 -0.0555  0.2684
   70MOL0     N 9159   8.501   6.667   4.216  0.4276  0.4049 -0.1561
   70MOL0     C 9160   7.472   6.219   4.493 -0.8486  0.3159 -0.2370
   70MOL0     C 9161   7.392   6.205   4.600  0.8808 -0.6887  0.6070
   70MOL0     C 9162   7.320   6.147   5.040  0.5730  0.2753 -0.1431
   70MOL0     C 9163   7.357   6.247   5.121 -0.1049  0.8171  0.0921
   70MOL0     C 9164   7.256   6.316   5.197 -0.7993  0.5756  0.4621
   70MOL0     C 9165   7.122   6.271   5.207 -0.1014  0.0964  0.5851
   70MOL0     O 9166   7.046   6.339   5.295 -0.7763 -0.7357 -0.1431
   70MOL0     C 9167   6.917   6.291   5.310 -0.4040  0.2984  0.8928
   70MOL0     C 9168   6.840   6.330   5.434  0.3402 -0.2212 -0.3134
   70MOL0     C 9169   6.685   6.293   5.435 -0.2882  0.3818 -0.1257
   70MOL0     C 9170   6.609   6.331   5.572 -0.1200  0.1077  0.3884
   70MOL0     C 9171   6.459   6.319   5.573  0.1039  0.7988  0.1087
   70MOL0     C 9172   6.337   6.314   5.569 -0.3245 -0.0443 -0.5952
   70MOL0     C 9173   7.096   6.147   5.138 -0.7835 -0.4861  0.8357
   70MOL0     C 9174   7.186   6.096   5.049  0.4833 -0.2498  0.6975
   70MOL0     H 9175   7.507   5.903   4.717  0.6150 -0.6722 -0.6004
   70MOL0     H 9176   7.657   5.944   4.516  0.2599  1.9646 -0.6446
   70MOL0     H 9177   7.796   6.185   4.427  0.1467  3.0146  2.0464
   70MOL0     H 9178   7.694   6.327   4.374  1.6188  0.9246 -0.8032
   70MOL0     H 9179   7.696   6.235   4.141  0.4220  1.7573 -0.5944
   70MOL0     H 9180   7.818   6.123   4.188 -1.9462 -0.6265  1.0617
   70MOL0     H 9181   7.955   6.278   4.273 -0.2528 -1.6283 -0.3886
   70MOL0     H 9182   7.859   6.428   4.255 -3.4201  1.4897 -4.9591
   70MOL0     H 9183   7.977   6.253   4.020 -1.7338 -0.9398  0.1234
   70MOL0     H 9184   7.888   6.405   3.995 -2.0307 -0.3327  1.0818
   70MOL0     H 9185   8.135   6.386   4.170 -2.0430 -2.8448 -0.5215
   70MOL0     H 9186   8.050   6.535   4.124 -0.9607 -0.2387  2.0438
   70MOL0     H 9187   8.128   6.476   3.884 -0.6862  2.0376  1.1095
   70MOL0     H 9188   8.208   6.338   3.942  2.0541  0.3604 -0.2091
   70MOL0     H 9189   8.369   6.522   3.916  2.4076  0.1528  1.4793
   70MOL0     H 9190   8.276   6.622   4.029  0.3384  1.0271 -4.8441
   70MOL0     H 9191   8.424   6.366   4.093  0.2699  0.1406 -1.5161
   70MOL0     H 9192   8.335   6.458   4.207  0.8429  0.2618 -0.2917
   70MOL0     H 9193   8.671   6.469   4.021  0.1159  0.1311 -0.4533
   70MOL0     H 9194   8.914   6.576   4.161  0.5852  0.4762  0.6003
   70MOL0     H 9195   8.869   6.740   4.214 -0.8202 -0.8780  0.6880
   70MOL0     H 9196   8.996   6.771   4.038  1.0770 -1.4480 -1.6104
   70MOL0     H 9197   8.830   6.801   3.964 -1.3537 -1.8423 -3.0153
   70MOL0     H 9198   8.950   6.526   3.929  0.5914  0.9865  1.0068
   70MOL0     H 9199   8.871   6.621   3.811 -0.7125  0.0200 -0.0442
   70MOL0     H 9200   9.077   6.770   3.813 -0.9270 -0.5829 -2.0128
   70MOL0     H 9201   9.098   6.618   3.751  3.2687  0.0339  0.1954
   70MOL0     H 9202   9.296   6.818   3.755  1.4728  0.9221 -0.9835
   70MOL0     H 9203   9.493   6.920   3.764  1.6451  0.1095  0.0245
   70MOL0     H 9204   9.954   6.777   4.079  0.5876 -0.7640  0.3153
   70MOL0     H 9205  10.168   6.859   4.059  0.3496  0.1213 -1.2569
   70MOL0     H 9206  10.248   7.277   4.223 -0.4345 -0.0745 -0.0983
   70MOL0     H 9207  10.270   7.279   4.049 -1.1057  1.3861  0.9586
   70MOL0     H 9208  10.472   7.336   4.205  0.6857 -0.1084 -2.7759
   70MOL0     H 9209  10.507   7.183   4.115 -0.1809 -2.3209  0.3032
   70MOL0     H 9210  10.449   7.050   4.299 -1.6417  0.3831 -1.8916
   70MOL0     H 9211  10.393   7.191   4.393  1.5239  1.6367 -0.1199
   70MOL0     H 9212  10.677   7.117   4.310 -1.3583 -0.8031 -1.8330
   70MOL0     H 9213  10.632   7.282   4.370  1.7160 -0.5917  1.7982
   70MOL0     H 9214  10.554   7.174   4.582  0.2342 -0.3863  0.5282
   70MOL0     H 9215  10.729   7.158   4.537  0.7132 -1.3098 -3.8438
   70MOL0     H 9216  10.652   6.920   4.448  0.7392 -0.8402  1.6226
   70MOL0     H 9217  10.503   6.959   4.529 -0.4596  0.1866  2.6238
   70MOL0     H 9218  10.646   6.983   4.749 -2.5573  3.0844 -2.2722
   70MOL0     H 9219  10.623   6.821   4.682  3.1417 -1.1333 -0.9989
   70MOL0     H 9220  10.872   6.893   4.737  1.6768  1.8933 -1.5395
   70MOL0     H 9221  10.863   6.984   4.594 -0.5594  0.0687  0.1147
   70MOL0     H 9222  10.032   7.239   4.221 -0.5836 -0.7058  2.9760
   70MOL0     H 9223   9.818   7.187   4.156 -1.8831 -1.1525 -0.0593
   70MOL0     H 9224   9.552   6.779   4.167 -2.6080 -0.3251  1.8362
   70MOL0     H 9225   9.330   6.671   4.163 -0.6211  3.3538  1.4097
   70MOL0     H 9226   7.450   6.303   4.428 -3.0349 -0.4328 -0.5232
   70MOL0     H 9227   7.311   6.271   4.630  0.8512 -0.9002  1.0053
   70MOL0     H 9228   7.456   6.292   5.121  1.5868 -2.5770  1.4418
   70MOL0     H 9229   7.283   6.400   5.260 -2.0108 -0.0347  1.8494
   70MOL0     H 9230   6.899   6.183   5.310 -0.4923  0.3108  0.2128
   70MOL0     H 9231   6.874   6.330   5.218  2.0866  2.6664  0.5935
   70MOL0     H 9232   6.878   6.275   5.521 -4.4196  0.6259  2.6535
   70MOL0     H 9233   6.846   6.439   5.440  2.8194 -0.3633  2.6807
   70MOL0     H 9234   6.686   6.183   5.428 -0.8697  0.3702 -0.0611
   70MOL0     H 9235   6.656   6.330   5.336  3.2302  1.9779 -0.6947
   70MOL0     H 9236   6.635   6.257   5.648 -0.7766  0.2017  0.7099
   70MOL0     H 9237   6.642   6.434   5.587 -1.9137  1.0137 -1.4156
   70MOL0     H 9238   6.231   6.304   5.555 -1.6278  6.6656  0.8638
   70MOL0     H 9239   7.001   6.095   5.150 -0.7057 -1.6349 -2.4311
   70MOL0     H 9240   7.157   6.012   4.987 -0.4271 -0.9999  2.0805
   71MOL0     O 9241  10.352   6.598   9.561 -0.2715 -0.5912  0.7845
   71MOL0     C 9242  10.318   6.602   9.677 -0.1188  1.4396  0.1315
   71MOL0     O 9243  10.191   6.583   9.728 -0.5340 -0.3180  0.1252
   71MOL0     C 9244  10.082   6.570   9.647 -0.0532  0.8134  0.2568
   71MOL0     C 9245   9.967   6.635   9.689  0.0694 -0.3944 -1.0017
   71MOL0     C 9246   9.848   6.625   9.620  0.1123 -0.6346 -0.0956
   71MOL0     C 9247   9.848   6.550   9.505  0.7755 -0.4724 -0.5790
   71MOL0     O 9248   9.745   6.551   9.412 -0.0074  0.2011  0.5932
   71MOL0     C 9249   9.617   6.603   9.449  0.1060  0.5116 -0.8708
   71MOL0     C 9250   9.540   6.493   9.527 -0.7885 -0.1248  0.0946
   71MOL0     C 9251   9.393   6.525   9.546 -0.5892  0.6019 -0.3214
   71MOL0     C 9252   9.314   6.394   9.538 -0.2369 -0.6064  0.0403
   71MOL0     C 9253   9.169   6.422   9.533  0.7362 -0.1304 -0.5111
   71MOL0     C 9254   9.088   6.296   9.506 -0.9822  0.6160 -0.1006
   71MOL0     C 9255   8.948   6.349   9.511 -0.6128  0.7860 -0.5865
   71MOL0     C 9256   8.849   6.240   9.474  0.1263 -0.3844 -0.8212
   71MOL0     N 9257   8.844   6.117   9.561  0.6411 -0.5634 -0.0379
   71MOL0     C 9258   8.778   6.107   9.684  1.4479  0.8390 -1.2767
   71MOL0     C 9259   8.825   5.990   9.733 -0.3752 -0.0895  0.4401
   71MOL0     C 9260   8.798   5.931   9.855 -0.7609  0.4223 -0.7138
   71MOL0     C 9261   8.664   5.876   9.892 -0.9768 -0.1180  1.0909
   71MOL0     C 9262   8.556   5.989   9.912 -0.4342  0.3195  0.3347
   71MOL0     C 9263   8.414   5.933   9.948 -0.0936 -1.1441 -0.1136
   71MOL0     O 9264   8.423   5.881  10.081 -0.2070 -0.0644 -0.5417
   71MOL0     C 9265   8.313   5.815  10.138 -0.4065 -0.0305  0.4920
   71MOL0     C 9266   8.193   5.793  10.074  0.0037  0.7117 -0.3108
   71MOL0     C 9267   8.091   5.735  10.144 -0.1925  0.0395  0.6428
   71MOL0     C 9268   8.103   5.691  10.277  0.1435  0.5204  1.1107
   71MOL0     C 9269   7.991   5.618  10.335 -0.1150 -0.6010 -0.3695
   71MOL0     O 9270   7.882   5.696  10.346  0.5999 -0.0980  0.0965
   71MOL0     C 9271   7.753   5.642  10.373  1.0384 -0.6054 -0.8702
   71MOL0     C 9272   7.645   5.737  10.376  1.3536 -0.5406 -0.7700
   71MOL0     C 9273   7.510   5.693  10.407 -1.1822  0.5447  0.5112
   71MOL0     C 9274   7.474   5.561  10.431 -0.5300  0.3436  0.6357
   71MOL0     O 9275   7.347   5.521  10.461  0.4036  0.1758 -0.0935
   71MOL0     C 9276   7.250   5.634  10.459 -0.6537  0.7232 -0.2600
   71MOL0     C 9277   7.111   5.568  10.481 -0.4412  0.0501 -0.0975
   71MOL0     C 9278   7.095   5.447  10.576  0.8685 -0.8869 -0.2029
   71MOL0     C 9279   6.944   5.419  10.597  0.4583  0.9582  0.3821
   71MOL0     C 9280   6.925   5.294  10.686  0.2620  0.3161  0.0959
   71MOL0     C 9281   6.775   5.292  10.709 -0.3993 -0.1824 -0.5003
   71MOL0     C 9282   6.741   5.159  10.766  0.3045  0.3911 -0.8440
   71MOL0     C 9283   6.615   5.164  10.847 -0.4645  0.5629  0.1017
   71MOL0    Cl 9284   6.641   5.290  10.978  0.1282 -0.0727  0.2579
   71MOL0     C 9285   7.576   5.467  10.411 -0.6402  0.4266  0.4390
   71MOL0     C 9286   7.717   5.502  10.377  0.6980  0.8389  0.6339
   71MOL0     O 9287   8.004   5.499  10.370  0.3338 -0.2745 -0.5714
   71MOL0     C 9288   8.221   5.716  10.347 -0.2365  0.6828  0.1843
   71MOL0     C 9289   8.334   5.769  10.276  0.5059  0.4129  0.5326
   71MOL0     N 9290   8.901   5.932   9.630  0.4852  0.3992  0.3710
   71MOL0     N 9291   8.902   6.010   9.530 -0.1146 -0.0034  0.2175
   71MOL0     C 9292   9.953   6.485   9.455 -0.0311  0.2712 -0.2564
   71MOL0     C 9293  10.073   6.486   9.535  0.5481  0.7379  0.1343
   71MOL0     C 9294  10.424   6.629   9.787  0.9453 -0.3628 -0.6520
   71MOL0     C 9295  10.388   6.673   9.921 -0.5629 -0.3103  0.4297
   71MOL0     C 9296  10.487   6.711  10.014 -0.2756  0.3952  0.0491
   71MOL0     C 9297  10.628   6.699   9.987 -0.0512 -1.0434 -0.6239
   71MOL0     O 9298  10.729   6.712  10.076  0.5686 -1.0619 -0.4165
   71MOL0     C 9299  10.704   6.645  10.202  0.1003 -0.3486 -0.7789
   71MOL0     C 9300  10.827   6.649  10.299 -0.0616  0.3603  0.2260
   71MOL0     C 9301  10.919   6.767  10.300 -1.5775 -0.3767 -0.1339
   71MOL0     C 9302  10.999   6.769  10.442  1.1310  0.2211 -0.0378
   71MOL0     C 9303  11.067   6.899  10.471  0.0845 -0.0006  0.1213
   71MOL0     C 9304  11.106   7.019  10.487 -0.0438  0.4853 -0.8059
   71MOL0     C 9305  10.665   6.649   9.861  0.2387 -0.4028  1.1788
   71MOL0     C 9306  10.566   6.618   9.765 -0.2910 -0.9438  0.1728
   71MOL0     H 9307   9.976   6.703   9.772  3.6424 -2.8129  0.8356
   71MOL0     H 9308   9.755   6.678   9.635  0.6138  0.3029 -0.2477
   71MOL0     H 9309   9.553   6.620   9.362 -1.1654 -3.2586 -0.8330
   71MOL0     H 9310   9.620   6.701   9.498  0.6479  0.9202 -1.7073
   71MOL0     H 9311   9.595   6.459   9.616 -0.6178 -0.9729 -0.3187
   71MOL0     H 9312   9.547   6.407   9.459 -2.5562  0.2319 -0.5998
   71MOL0     H 9313   9.358   6.589   9.464 -1.5537 -1.4697 -1.6027
   71MOL0     H 9314   9.376   6.563   9.647  2.1125 -1.2839  0.9553
   71MOL0     H 9315   9.349   6.355   9.442  1.3002  3.7855 -1.4461
   71MOL0     H 9316   9.342   6.324   9.618 -1.8422  0.0958  1.2713
   71MOL0     H 9317   9.145   6.488   9.449  0.0229 -1.1219 -1.1134
   71MOL0     H 9318   9.145   6.463   9.631 -0.6435  0.1432 -0.9425
   71MOL0     H 9319   9.122   6.218   9.574 -0.3634 -0.6290 -1.7618
   71MOL0     H 9320   9.104   6.257   9.405  1.0356  0.9420  0.0450
   71MOL0     H 9321   8.921   6.366   9.615 -3.4167 -0.0532 -1.1045
   71MOL0     H 9322   8.932   6.443   9.458  0.8093  2.4674  1.7880
   71MOL0     H 9323   8.843   6.216   9.368 -1.1158  0.5804 -0.9943
   71MOL0     H 9324   8.748   6.278   9.493  0.6523  0.5752  0.1716
   71MOL0     H 9325   8.710   6.171   9.739 -0.2948 -0.5060 -1.7654
   71MOL0     H 9326   8.823   6.002   9.934 -1.4895  0.3352 -0.3986
   71MOL0     H 9327   8.858   5.840   9.866 -0.8144  0.4687  0.0264
   71MOL0     H 9328   8.675   5.807   9.977  0.2199 -1.4396 -0.0894
   71MOL0     H 9329   8.626   5.816   9.810  0.5023  1.8554 -1.1765
   71MOL0     H 9330   8.594   6.053   9.992  1.4886  0.5627 -0.6993
   71MOL0     H 9331   8.568   6.058   9.827 -0.5054  0.3582  0.3559
   71MOL0     H 9332   8.386   5.860   9.871  0.0048  0.2782 -1.5411
   71MOL0     H 9333   8.352   6.022   9.936  1.4191 -0.1217 -0.7142
   71MOL0     H 9334   8.188   5.823   9.970  1.0766  1.5734 -0.1312
   71MOL0     H 9335   8.005   5.701  10.087 -1.5912 -0.3396  2.8565
   71MOL0     H 9336   7.659   5.844  10.365 -0.0628 -0.1476  0.9138
   71MOL0     H 9337   7.442   5.778  10.413  0.3446  1.8035  0.8894
   71MOL0     H 9338   7.250   5.700  10.372 -2.5898  2.5562  1.0402
   71MOL0     H 9339   7.275   5.684  10.553  0.7671 -2.4417  1.2212
   71MOL0     H 9340   7.076   5.538  10.381  1.4519 -1.0494 -0.4659
   71MOL0     H 9341   7.036   5.640  10.516  0.0891  1.5512 -1.9014
   71MOL0     H 9342   7.136   5.470  10.675  0.3963 -2.8644  0.5227
   71MOL0     H 9343   7.148   5.363  10.529  0.7067 -0.9560 -0.2609
   71MOL0     H 9344   6.894   5.510  10.632 -0.6306  0.7171 -0.4959
   71MOL0     H 9345   6.902   5.403  10.498  2.9804  3.1775 -1.1961
   71MOL0     H 9346   6.973   5.302  10.784  0.2497  2.8309 -0.0299
   71MOL0     H 9347   6.955   5.202  10.634 -3.0127 -1.1935  0.6502
   71MOL0     H 9348   6.721   5.317  10.617 -0.8454 -0.2717 -0.2684
   71MOL0     H 9349   6.775   5.377  10.779 -0.2954 -0.0558 -0.6549
   71MOL0     H 9350   6.735   5.093  10.679 -0.1413 -0.4806 -0.1681
   71MOL0     H 9351   6.816   5.116  10.834  3.1497  0.5897 -3.6041
   71MOL0     H 9352   6.616   5.063  10.888 -2.7688  0.1122 -0.8103
   71MOL0     H 9353   6.536   5.168  10.771  2.6597  0.8930 -3.4337
   71MOL0     H 9354   7.548   5.363  10.421  2.2276 -0.8253 -2.4849
   71MOL0     H 9355   7.790   5.429  10.346  1.0268  2.2261 -2.1351
   71MOL0     H 9356   8.233   5.677  10.448 -2.3450  1.3220  0.7235
   71MOL0     H 9357   8.428   5.787  10.327 -0.1660  1.3314  1.4774
   71MOL0     H 9358   9.947   6.426   9.364 -0.9562  0.7791 -0.5286
   71MOL0     H 9359  10.163   6.436   9.500 -2.8322 -4.8966 -1.8308
   71MOL0     H 9360  10.282   6.682   9.938 -1.4196 -0.8917 -3.6108
   71MOL0     H 9361  10.463   6.750  10.112  2.5810  1.2598  0.4974
   71MOL0     H 9362  10.660   6.546  10.188 -2.1298  0.6061 -0.9894
   71MOL0     H 9363  10.618   6.702  10.241  0.2647  1.0460 -2.3175
   71MOL0     H 9364  10.786   6.627  10.398 -2.5896 -3.2766 -1.3983
   71MOL0     H 9365  10.897   6.566  10.285 -1.9920 -1.6584  1.8382
   71MOL0     H 9366  10.870   6.861  10.270  1.6367  0.8283 -2.1768
   71MOL0     H 9367  10.999   6.758  10.226 -0.9823 -0.2473  0.4916
   71MOL0     H 9368  10.922   6.766  10.520  1.0227 -1.6103 -0.1855
   71MOL0     H 9369  11.075   6.692  10.454 -0.2383 -1.0948  0.4583
   71MOL0     H 9370  11.145   7.117  10.505  1.6286  0.0861 -2.0017
   71MOL0     H 9371  10.768   6.630   9.834  0.4011 -4.1701  3.6954
   71MOL0     H 9372  10.594   6.590   9.664  1.4494 -1.6906  0.8136
   72MOL0     O 9373   4.851  10.300   3.686  0.0031  0.0381  0.6020
   72MOL0     C 9374   4.965  10.261   3.656 -0.1098 -0.0796  0.5562
   72MOL0     O 9375   5.000  10.139   3.618 -0.0205  0.1561 -0.1917
   72MOL0     C 9376   4.928  10.025   3.649  0.5426 -0.2517  0.8799
   72MOL0     C 9377   4.848  10.005   3.756  0.9666 -0.4683  1.0266
   72MOL0     C 9378   4.782   9.878   3.758 -0.1432  0.1582 -0.1822
   72MOL0     C 9379   4.798   9.776   3.664 -0.1727 -0.5022 -0.5678
   72MOL0     O 9380   4.734   9.654   3.672 -0.3357  0.1762 -0.3843
   72MOL0     C 9381   4.779   9.543   3.593  0.4298 -0.1147  0.4237
   72MOL0     C 9382   4.799   9.418   3.684  0.5262 -0.4045  0.4958
   72MOL0     C 9383   4.945   9.375   3.676  0.5146  0.2647 -0.6699
   72MOL0     C 9384   5.043   9.476   3.742  0.3357  0.2834 -0.5368
   72MOL0     C 9385   5.188   9.447   3.694 -0.0940  0.3303  0.3397
   72MOL0     C 9386   5.288   9.548   3.752  0.2642 -0.1673  0.8252
   72MOL0     C 9387   5.429   9.518   3.689  0.2720 -0.1750  0.5469
   72MOL0     C 9388   5.500   9.645   3.673 -0.5590 -0.2684 -0.5815
   72MOL0     N 9389   5.637   9.622   3.637  0.2234  0.0706  0.0522
   72MOL0     C 9390   5.732   9.584   3.719 -1.1268  0.6034 -0.3540
   72MOL0     C 9391   5.831   9.549   3.634  0.4480  0.4513  1.2382
   72MOL0     C 9392   5.958   9.463   3.656  0.0190 -0.1322 -0.5274
   72MOL0     C 9393   5.964   9.350   3.769 -0.0317 -0.6254  0.6292
   72MOL0     C 9394   6.098   9.265   3.754 -0.6991  0.4962 -0.2907
   72MOL0     C 9395   6.100   9.185   3.620  0.0783 -1.1492 -0.3441
   72MOL0     O 9396   6.232   9.149   3.615 -0.0386  0.4489 -0.0880
   72MOL0     C 9397   6.289   9.085   3.512  1.2150 -0.0011 -0.0379
   72MOL0     C 9398   6.225   8.985   3.450 -0.5770  0.8301 -0.0010
   72MOL0     C 9399   6.302   8.910   3.361  0.3297 -0.1530  0.5187
   72MOL0     C 9400   6.438   8.944   3.331  0.1872 -0.8935  0.6478
   72MOL0     C 9401   6.513   8.860   3.232 -0.1186 -0.4850 -0.8095
   72MOL0     O 9402   6.440   8.762   3.177  0.5616  0.4767 -0.2760
   72MOL0     C 9403   6.492   8.666   3.094  0.2028  0.0976 -0.4299
   72MOL0     C 9404   6.425   8.639   2.968  0.0054 -0.1544  0.4806
   72MOL0     C 9405   6.482   8.543   2.881  0.3392  0.0567 -0.0944
   72MOL0     C 9406   6.597   8.475   2.912 -1.3059  0.6003 -0.3332
   72MOL0     O 9407   6.632   8.376   2.820 -0.4505 -0.2459 -0.6154
   72MOL0     C 9408   6.762   8.328   2.835  0.5993  0.1787  0.8562
   72MOL0     C 9409   6.772   8.195   2.751 -0.4670 -0.2867  0.5962
   72MOL0     C 9410   6.717   8.203   2.609 -0.2804 -0.2202 -0.1553
   72MOL0     C 9411   6.580   8.142   2.585  0.0268 -0.0824  0.1325
   72MOL0     C 9412   6.534   8.138   2.440  0.0402 -0.1622  0.3052
   72MOL0     C 9413   6.636   8.067   2.340 -0.0676  0.2090 -0.0578
   72MOL0     C 9414   6.588   8.080   2.193 -0.9638 -0.5586  0.6654
   72MOL0     C 9415   6.706   8.049   2.094  0.0864 -0.7240 -0.4314
   72MOL0    Cl 9416   6.875   8.097   2.120  0.0649 -0.1664 -0.3027
   72MOL0     C 9417   6.658   8.492   3.032  0.3576  0.2576 -0.7048
   72MOL0     C 9418   6.607   8.586   3.119 -0.0380 -0.4095  0.0643
   72MOL0     O 9419   6.638   8.882   3.224 -0.4083  0.0637 -0.3795
   72MOL0     C 9420   6.494   9.053   3.396 -0.2813  0.6478  0.1718
   72MOL0     C 9421   6.414   9.128   3.484 -0.0510  0.1202 -0.1167
   72MOL0     N 9422   5.784   9.554   3.504 -0.2016 -0.7705  0.7771
   72MOL0     N 9423   5.671   9.598   3.503 -0.9336  0.2012 -0.8994
   72MOL0     C 9424   4.875   9.809   3.551 -0.9541  0.0185 -0.3984
   72MOL0     C 9425   4.935   9.937   3.545  0.1052  0.3565  0.2396
   72MOL0     C 9426   5.063  10.369   3.656 -0.9225 -0.3589  0.5701
   72MOL0     C 9427   5.032  10.504   3.659  0.1756 -0.1362  0.1595
   72MOL0     C 9428   5.130  10.605   3.673  0.0988  0.1832 -0.8401
   72MOL0     C 9429   5.263  10.564   3.675 -0.9787 -0.5697 -0.0824
   72MOL0     O 9430   5.369  10.635   3.716 -0.1853  0.1264  0.7457
   72MOL0     C 9431   5.372  10.772   3.678  0.9927  0.3970 -0.1985
   72MOL0     C 9432   5.437  10.775   3.545 -0.3886  0.0313 -0.1774
   72MOL0     C 9433   5.434  10.923   3.498  0.0932 -0.0073 -0.2482
   72MOL0     C 9434   5.491  10.939   3.356 -0.3683  0.4439 -0.4762
   72MOL0     C 9435   5.482  11.081   3.324  0.7316  0.2696 -0.7354
   72MOL0     C 9436   5.487  11.196   3.293 -0.0118  0.4376  0.1851
   72MOL0     C 9437   5.296  10.424   3.663 -0.2137 -0.3643 -0.5889
   72MOL0     C 9438   5.201  10.327   3.657 -0.0237  0.3134 -0.1249
   72MOL0     H 9439   4.845  10.079   3.836  1.3118  0.7405 -0.0450
   72MOL0     H 9440   4.722   9.859   3.846  0.0217  0.3568 -0.0274
   72MOL0     H 9441   4.871   9.563   3.538  0.6131 -2.2600 -0.1841
   72MOL0     H 9442   4.717   9.512   3.508  2.9423  1.7300 -2.2813
   72MOL0     H 9443   4.746   9.330   3.647  0.1291 -0.2384  0.6719
   72MOL0     H 9444   4.769   9.422   3.789  0.5614 -2.4294  0.6351
   72MOL0     H 9445   4.964   9.363   3.569 -0.3662  1.1583 -0.9351
   72MOL0     H 9446   4.955   9.275   3.720  2.6868  0.0698 -1.4717
   72MOL0     H 9447   5.031   9.578   3.703  0.2159  0.7769  0.7430
   72MOL0     H 9448   5.030   9.470   3.850 -1.5661 -1.6949 -0.8067
   72MOL0     H 9449   5.187   9.465   3.586 -0.4921  2.1653  0.6132
   72MOL0     H 9450   5.216   9.344   3.720 -0.3613 -0.1857 -1.2894
   72MOL0     H 9451   5.298   9.537   3.860  0.0481  0.7967  0.9517
   72MOL0     H 9452   5.247   9.649   3.737 -0.8665 -1.1614 -6.0037
   72MOL0     H 9453   5.478   9.461   3.769 -0.2283 -3.0390 -1.0232
   72MOL0     H 9454   5.417   9.450   3.604 -1.1349 -1.5127  1.7430
   72MOL0     H 9455   5.504   9.708   3.762  1.9647 -2.6222  1.1448
   72MOL0     H 9456   5.455   9.710   3.598 -1.9188 -0.2976  0.1709
   72MOL0     H 9457   5.730   9.573   3.827  1.1777 -4.8953 -0.5247
   72MOL0     H 9458   6.040   9.532   3.679  0.3093 -0.0493 -1.7511
   72MOL0     H 9459   5.991   9.421   3.561  1.8791 -0.3916  0.1899
   72MOL0     H 9460   5.881   9.279   3.764 -1.0969  0.0275  5.0223
   72MOL0     H 9461   5.961   9.384   3.873  0.9133  0.7525  0.2355
   72MOL0     H 9462   6.186   9.329   3.756  0.5550 -1.1562 -0.7717
   72MOL0     H 9463   6.107   9.195   3.837  1.1010  0.3796 -0.5491
   72MOL0     H 9464   6.074   9.246   3.534 -0.4764 -2.4363 -1.1198
   72MOL0     H 9465   6.027   9.103   3.626 -1.3722  0.1799  3.6191
   72MOL0     H 9466   6.128   8.959   3.491 -0.0658 -0.2026  0.6051
   72MOL0     H 9467   6.250   8.820   3.332  2.3880 -1.1379 -0.3205
   72MOL0     H 9468   6.333   8.688   2.940 -1.0696 -2.2929  0.0156
   72MOL0     H 9469   6.449   8.527   2.779  0.4100  0.3149 -0.1595
   72MOL0     H 9470   6.809   8.297   2.929  5.0507  1.3835 -0.7203
   72MOL0     H 9471   6.833   8.397   2.789 -2.9380  1.3833 -3.5221
   72MOL0     H 9472   6.743   8.108   2.810 -2.6569  0.3495  0.5438
   72MOL0     H 9473   6.878   8.175   2.728 -0.3620  1.5116 -0.7379
   72MOL0     H 9474   6.799   8.168   2.545  0.8353 -2.4335  2.3295
   72MOL0     H 9475   6.705   8.309   2.581  0.2454 -0.1670 -0.1954
   72MOL0     H 9476   6.591   8.043   2.630 -0.9522 -0.9671 -1.4813
   72MOL0     H 9477   6.504   8.199   2.640  0.8953  0.6646  0.5905
   72MOL0     H 9478   6.520   8.240   2.403  4.2125 -0.2929 -2.3650
   72MOL0     H 9479   6.434   8.096   2.431 -0.3299  0.4683  1.2380
   72MOL0     H 9480   6.635   7.962   2.369 -1.0063  0.0831 -0.5192
   72MOL0     H 9481   6.742   8.092   2.348  0.9766 -3.2460 -1.5091
   72MOL0     H 9482   6.506   8.019   2.154 -0.6043  0.9510 -2.8836
   72MOL0     H 9483   6.562   8.183   2.170 -0.4734 -0.7643 -1.0135
   72MOL0     H 9484   6.667   8.084   1.998  1.5995  1.3699 -0.3472
   72MOL0     H 9485   6.722   7.941   2.085 -1.4953 -1.4296  3.1884
   72MOL0     H 9486   6.744   8.434   3.064  0.6954  1.2838  0.3368
   72MOL0     H 9487   6.652   8.594   3.217  1.4138 -0.2845 -0.5807
   72MOL0     H 9488   6.599   9.073   3.378 -0.6087 -0.1772 -3.3384
   72MOL0     H 9489   6.452   9.210   3.544 -1.8773 -1.0585  2.9409
   72MOL0     H 9490   4.880   9.749   3.461 -2.6452  0.6199 -0.9315
   72MOL0     H 9491   4.993   9.966   3.458  1.5641 -1.7881  0.4294
   72MOL0     H 9492   4.932  10.547   3.659  0.6583  1.0171  0.6519
   72MOL0     H 9493   5.109  10.709   3.694  2.7718  0.5191  0.5174
   72MOL0     H 9494   5.421  10.817   3.765  0.1656 -2.4445  1.8920
   72MOL0     H 9495   5.270  10.812   3.667  1.2860  1.5959  1.1874
   72MOL0     H 9496   5.540  10.740   3.556 -0.9894 -2.6499 -2.1124
   72MOL0     H 9497   5.389  10.710   3.472  1.4499 -0.2740 -1.1739
   72MOL0     H 9498   5.500  10.983   3.562 -1.5629  0.7115  0.8485
   72MOL0     H 9499   5.333  10.964   3.499  0.7733  1.7709 -0.2569
   72MOL0     H 9500   5.593  10.900   3.347  0.2318  2.0360 -0.8401
   72MOL0     H 9501   5.432  10.874   3.290  3.8161 -0.5885 -3.6720
   72MOL0     H 9502   5.516  11.299   3.288 -1.3521  0.9862  2.2116
   72MOL0     H 9503   5.397  10.390   3.642  0.1439 -0.4492  1.1209
   72MOL0     H 9504   5.233  10.227   3.632  2.5973  0.2707  2.8257
   73MOL0     O 9505   0.159   9.430   4.564 -0.5617 -0.3063  0.8988
   73MOL0     C 9506   0.156   9.506   4.465 -0.7629 -0.2604 -0.0203
   73MOL0     O 9507   0.044   9.570   4.415 -0.1921  0.2574  0.4600
   73MOL0     C 9508  -0.083   9.544   4.452  0.2843  0.8299  0.1716
   73MOL0     C 9509  -0.128   9.421   4.492  0.5349  0.1852 -0.1456
   73MOL0     C 9510  -0.269   9.404   4.514  0.2470  0.5415  0.2760
   73MOL0     C 9511  -0.361   9.515   4.497 -0.7089  0.1856  0.0690
   73MOL0     O 9512  -0.493   9.494   4.517 -0.7294  0.8072  0.2076
   73MOL0     C 9513  -0.582   9.605   4.515  0.2172 -0.6238 -0.0423
   73MOL0     C 9514  -0.720   9.551   4.537  1.0370 -0.0849 -0.9477
   73MOL0     C 9515  -0.750   9.462   4.411 -0.6401  0.5773  0.6309
   73MOL0     C 9516  -0.880   9.393   4.430 -0.2862 -0.0759  0.2313
   73MOL0     C 9517  -0.926   9.301   4.324 -0.6843  0.0469  0.2454
   73MOL0     C 9518  -1.063   9.224   4.351 -0.0888 -0.2501 -0.5098
   73MOL0     C 9519  -1.059   9.140   4.476 -0.3227  0.5419 -0.3466
   73MOL0     C 9520  -1.186   9.056   4.501 -0.9800  0.0064 -0.0187
   73MOL0     N 9521  -1.186   8.932   4.415  0.4316 -0.4853  0.8664
   73MOL0     C 9522  -1.121   8.813   4.443  0.1348 -0.3918 -0.6526
   73MOL0     C 9523  -1.147   8.723   4.345 -0.5154  0.2396 -0.9775
   73MOL0     C 9524  -1.086   8.584   4.340  0.9287 -0.8621  0.1331
   73MOL0     C 9525  -0.948   8.572   4.415 -0.4543  0.6524 -1.0126
   73MOL0     C 9526  -0.837   8.641   4.332 -0.2141 -0.5436  0.2099
   73MOL0     C 9527  -0.709   8.644   4.410  0.2827  0.4669  0.4658
   73MOL0     O 9528  -0.721   8.707   4.540  0.0314 -0.0320 -0.0773
   73MOL0     C 9529  -0.626   8.666   4.630  0.5712 -0.6395 -0.1682
   73MOL0     C 9530  -0.488   8.669   4.590 -0.3441  0.0588  0.1187
   73MOL0     C 9531  -0.382   8.637   4.677 -0.2711  0.2238 -0.2891
   73MOL0     C 9532  -0.408   8.615   4.822  0.2758 -0.3721  0.4987
   73MOL0     C 9533  -0.299   8.592   4.919  0.4326  0.3320  0.1843
   73MOL0     O 9534  -0.180   8.569   4.864 -0.4779  0.5055  0.0098
   73MOL0     C 9535  -0.071   8.564   4.949 -0.2056 -0.3924  0.0972
   73MOL0     C 9536   0.034   8.656   4.930  0.3055  0.1429  0.1867
   73MOL0     C 9537   0.156   8.654   5.005 -0.6016 -0.5491  0.1357
   73MOL0     C 9538   0.174   8.539   5.086  0.2703  0.1244  0.1342
   73MOL0     O 9539   0.281   8.505   5.173 -0.6259  0.0577  0.8265
   73MOL0     C 9540   0.407   8.578   5.168 -0.1263  0.0946  0.6483
   73MOL0     C 9541   0.491   8.489   5.067  0.0498 -1.0158 -0.6843
   73MOL0     C 9542   0.627   8.553   5.049 -0.9705 -0.6029  0.0199
   73MOL0     C 9543   0.709   8.470   4.950 -0.3319  0.0171  1.1346
   73MOL0     C 9544   0.860   8.511   4.953  0.5850 -0.5375  0.0148
   73MOL0     C 9545   0.947   8.392   4.949 -0.3809  0.9372 -0.7104
   73MOL0     C 9546   1.088   8.429   5.002  0.3093 -1.2056  0.5550
   73MOL0     C 9547   1.191   8.310   4.999 -0.7207  0.1192  0.0066
   73MOL0    Cl 9548   1.134   8.160   5.087  0.0577 -0.2587  0.6080
   73MOL0     C 9549   0.067   8.451   5.112 -0.5534  0.3067 -0.7316
   73MOL0     C 9550  -0.057   8.468   5.043 -0.2166  0.0992  0.0769
   73MOL0     O 9551  -0.324   8.605   5.042 -0.3844 -0.1021  0.3781
   73MOL0     C 9552  -0.539   8.614   4.855  0.0847  0.3146  0.2362
   73MOL0     C 9553  -0.645   8.641   4.763  0.8652  0.1869  0.2542
   73MOL0     N 9554  -1.223   8.785   4.250  0.1988  0.5111  0.1355
   73MOL0     N 9555  -1.251   8.900   4.292 -0.2353 -0.4373  0.1090
   73MOL0     C 9556  -0.309   9.638   4.464  0.0906  0.0010  0.2001
   73MOL0     C 9557  -0.173   9.649   4.440 -0.1014  0.1882 -1.5286
   73MOL0     C 9558   0.284   9.534   4.397  0.7190 -0.6624 -0.4568
   73MOL0     C 9559   0.396   9.562   4.482 -0.2595 -0.1138  0.0043
   73MOL0     C 9560   0.514   9.591   4.428 -0.5751  1.0042 -0.2101
   73MOL0     C 9561   0.536   9.577   4.291 -0.0067  0.2540 -0.1327
   73MOL0     O 9562   0.654   9.611   4.226  0.7891  0.0818 -0.1551
   73MOL0     C 9563   0.755   9.661   4.311 -0.6375  0.7324 -0.5532
   73MOL0     C 9564   0.863   9.711   4.216 -0.1490  0.4703 -0.4002
   73MOL0     C 9565   0.948   9.821   4.300  0.1908 -1.1714  0.2681
   73MOL0     C 9566   1.049   9.885   4.200 -0.1877  0.0070 -1.3098
   73MOL0     C 9567   0.988   9.986   4.105  0.2457 -0.7349  0.1518
   73MOL0     C 9568   0.928  10.050   4.019 -0.7168  0.2438  0.4619
   73MOL0     C 9569   0.424   9.544   4.210  0.0089  1.0375  0.3499
   73MOL0     C 9570   0.292   9.516   4.258  1.1952 -0.5321  0.2627
   73MOL0     H 9571  -0.065   9.333   4.505  0.8148  0.6638  2.1995
   73MOL0     H 9572  -0.303   9.304   4.541  2.6904 -0.0407  1.4434
   73MOL0     H 9573  -0.574   9.641   4.412  0.8831 -3.5231 -1.1141
   73MOL0     H 9574  -0.555   9.679   4.592 -1.1358 -1.0363  0.8585
   73MOL0     H 9575  -0.792   9.632   4.550  2.0192  1.3896 -3.7683
   73MOL0     H 9576  -0.724   9.480   4.620  4.3420  1.3221  0.6207
   73MOL0     H 9577  -0.665   9.395   4.394  0.7381  2.2336  0.7321
   73MOL0     H 9578  -0.747   9.520   4.318  4.2515 -1.2168 -0.6399
   73MOL0     H 9579  -0.870   9.330   4.518  2.0360 -1.5630 -0.9829
   73MOL0     H 9580  -0.954   9.473   4.439  0.3236  0.4717  0.3980
   73MOL0     H 9581  -0.846   9.230   4.301 -0.3160  0.0727  1.3939
   73MOL0     H 9582  -0.951   9.356   4.233 -3.1667 -0.3681  0.6258
   73MOL0     H 9583  -1.077   9.161   4.262 -0.1907 -0.9785  0.0069
   73MOL0     H 9584  -1.149   9.290   4.363  1.3176  1.2702  2.1327
   73MOL0     H 9585  -0.976   9.071   4.456 -0.2343  1.3539 -3.3234
   73MOL0     H 9586  -1.032   9.190   4.569  3.3411 -1.0218 -0.3641
   73MOL0     H 9587  -1.273   9.120   4.482 -0.6073 -0.0097 -1.9049
   73MOL0     H 9588  -1.187   9.034   4.608 -0.0649  3.1776  0.7533
   73MOL0     H 9589  -1.068   8.794   4.536 -1.8818  1.6523  1.0076
   73MOL0     H 9590  -1.075   8.541   4.240  0.9328 -0.4422 -0.0527
   73MOL0     H 9591  -1.149   8.515   4.397  2.5787 -2.7551 -0.2361
   73MOL0     H 9592  -0.926   8.469   4.444  1.0803  1.5408  1.3158
   73MOL0     H 9593  -0.959   8.618   4.514  3.0424  0.6885 -0.5377
   73MOL0     H 9594  -0.812   8.596   4.236  0.2438 -2.8597  1.3467
   73MOL0     H 9595  -0.871   8.742   4.305 -3.0595 -2.0656 -2.6667
   73MOL0     H 9596  -0.628   8.676   4.345  0.6532 -1.7550 -0.2774
   73MOL0     H 9597  -0.683   8.538   4.424 -4.5366 -0.7653  2.1942
   73MOL0     H 9598  -0.465   8.677   4.484  1.9951 -2.5762  0.3114
   73MOL0     H 9599  -0.284   8.613   4.638 -0.6283  0.3839 -1.3071
   73MOL0     H 9600   0.015   8.742   4.867  1.2319 -0.0055 -0.3163
   73MOL0     H 9601   0.233   8.728   4.986  0.0108 -0.9165  1.1101
   73MOL0     H 9602   0.454   8.569   5.267  1.0729 -0.9186  0.0241
   73MOL0     H 9603   0.390   8.684   5.147 -3.0210  0.0255  2.2089
   73MOL0     H 9604   0.439   8.492   4.971 -0.1760  2.3118 -0.5769
   73MOL0     H 9605   0.495   8.399   5.129  1.6379  1.5797  3.3492
   73MOL0     H 9606   0.682   8.556   5.144 -0.1739 -1.6185 -0.3899
   73MOL0     H 9607   0.626   8.657   5.016 -0.7664 -0.9926 -1.2615
   73MOL0     H 9608   0.702   8.364   4.974 -2.2827  0.1528  1.3157
   73MOL0     H 9609   0.674   8.490   4.849  2.8137  3.2958  0.4975
   73MOL0     H 9610   0.884   8.566   5.045 -2.7424 -1.7305  1.7630
   73MOL0     H 9611   0.887   8.575   4.869  2.5554  1.4104  2.0004
   73MOL0     H 9612   0.946   8.345   4.850 -0.3633  1.2570 -0.8630
   73MOL0     H 9613   0.908   8.324   5.025 -0.0782  1.9121  0.3455
   73MOL0     H 9614   1.133   8.510   4.944 -0.9652 -0.0500  1.1169
   73MOL0     H 9615   1.069   8.461   5.105  3.7436 -2.7186  1.8140
   73MOL0     H 9616   1.283   8.338   5.051  0.6030 -3.6863 -0.0210
   73MOL0     H 9617   1.215   8.282   4.896  0.8435  3.9976 -0.8696
   73MOL0     H 9618   0.078   8.362   5.173 -1.0229  1.2284  0.7206
   73MOL0     H 9619  -0.144   8.411   5.074  0.2804  1.2879  4.2507
   73MOL0     H 9620  -0.571   8.583   4.953 -1.1815  4.2100  1.2249
   73MOL0     H 9621  -0.748   8.626   4.795  0.0679  1.2795 -1.6309
   73MOL0     H 9622  -0.366   9.727   4.440  2.0646  1.2320 -0.1405
   73MOL0     H 9623  -0.125   9.742   4.410  0.0891  1.0880  1.3293
   73MOL0     H 9624   0.364   9.578   4.584 -0.8203  1.1564 -0.3436
   73MOL0     H 9625   0.591   9.629   4.495  1.7183  0.9879 -2.6792
   73MOL0     H 9626   0.807   9.581   4.365  1.5361  1.2955 -1.6836
   73MOL0     H 9627   0.719   9.735   4.383 -2.2168 -3.1058  2.9771
   73MOL0     H 9628   0.934   9.631   4.192  0.0187 -0.1128  1.7742
   73MOL0     H 9629   0.810   9.755   4.131 -1.3964  0.7525  0.5021
   73MOL0     H 9630   1.008   9.774   4.378  0.1286 -1.9036 -0.1136
   73MOL0     H 9631   0.879   9.895   4.342  0.7994 -0.9062  0.8231
   73MOL0     H 9632   1.112   9.947   4.264  2.4669 -0.9437 -2.8579
   73MOL0     H 9633   1.115   9.812   4.154 -0.2986  0.0443 -1.5292
   73MOL0     H 9634   0.894  10.095   3.928 -0.1073  2.0559  1.0666
   73MOL0     H 9635   0.434   9.530   4.103 -0.9602  3.4555 -0.1192
   73MOL0     H 9636   0.205   9.488   4.199  0.5476 -1.0857  1.4406
   74MOL0     O 9637   7.950   8.866   3.659  0.0718  0.2017  0.4968
   74MOL0     C 9638   7.903   8.772   3.598 -0.0595 -0.2290  0.0536
   74MOL0     O 9639   7.875   8.774   3.463  0.1047 -0.4070  0.7311
   74MOL0     C 9640   7.919   8.883   3.392 -0.9352 -0.0550  0.2156
   74MOL0     C 9641   7.838   8.986   3.346 -0.4308  0.4587  0.3649
   74MOL0     C 9642   7.885   9.108   3.299  0.0567  0.3120 -0.8432
   74MOL0     C 9643   8.024   9.128   3.287  0.5748 -0.1599 -0.2711
   74MOL0     O 9644   8.054   9.255   3.247 -0.8703  0.1736 -0.2704
   74MOL0     C 9645   8.195   9.269   3.226  0.4531 -0.2607 -0.4004
   74MOL0     C 9646   8.217   9.412   3.185  0.1776 -0.0226  0.2861
   74MOL0     C 9647   8.174   9.510   3.296 -1.0644  0.3601  0.1992
   74MOL0     C 9648   8.197   9.655   3.248 -0.0726  0.6185  0.1498
   74MOL0     C 9649   8.068   9.731   3.261  0.2957 -0.1433 -0.1159
   74MOL0     C 9650   8.082   9.875   3.196  0.6516 -0.4478 -0.1978
   74MOL0     C 9651   8.174   9.971   3.262 -0.8738 -0.3063 -0.7326
   74MOL0     C 9652   8.219  10.096   3.181 -0.8180  0.0784 -0.0388
   74MOL0     N 9653   8.116  10.190   3.173 -0.6533  0.0551 -0.2076
   74MOL0     C 9654   8.097  10.302   3.248  0.0256  0.0302  0.1957
   74MOL0     C 9655   7.982  10.356   3.195  0.9076  0.8482 -0.0214
   74MOL0     C 9656   7.922  10.483   3.228  0.8606 -1.0752 -0.4936
   74MOL0     C 9657   7.778  10.510   3.172 -0.0156 -0.8180 -0.2650
   74MOL0     C 9658   7.710  10.645   3.217 -0.5077  0.5686 -0.5131
   74MOL0     C 9659   7.805  10.764   3.191 -0.5895 -0.1383 -0.3271
   74MOL0     O 9660   7.896  10.793   3.305  0.0653  0.6146 -0.2135
   74MOL0     C 9661   7.845  10.843   3.422 -0.2811  0.0401  0.3659
   74MOL0     C 9662   7.944  10.872   3.513 -0.2363  0.1992  0.1667
   74MOL0     C 9663   7.912  10.929   3.631 -0.3647 -0.3644 -0.0536
   74MOL0     C 9664   7.780  10.958   3.673  0.6627  0.7451 -0.5239
   74MOL0     C 9665   7.759  11.024   3.806  0.4080 -0.9572 -0.4630
   74MOL0     O 9666   7.634  11.011   3.857 -0.1533 -0.1593  0.0815
   74MOL0     C 9667   7.604  11.063   3.979  0.4845  0.4586 -0.6098
   74MOL0     C 9668   7.533  11.179   3.993  0.1351 -0.8727 -0.4392
   74MOL0     C 9669   7.501  11.230   4.119 -0.9990  1.1715  0.3683
   74MOL0     C 9670   7.569  11.183   4.230 -0.9874  0.0588  0.0338
   74MOL0     O 9671   7.551  11.230   4.359  0.1435  0.0321  0.2031
   74MOL0     C 9672   7.428  11.304   4.393 -0.1064  0.1585 -0.1491
   74MOL0     C 9673   7.406  11.284   4.546 -0.1929 -0.2417  0.0357
   74MOL0     C 9674   7.284  11.349   4.612 -0.3435  0.8300 -0.3570
   74MOL0     C 9675   7.231  11.252   4.722 -0.1467 -0.4361  0.7703
   74MOL0     C 9676   7.113  11.294   4.808  0.2246 -0.4993  0.7425
   74MOL0     C 9677   6.982  11.267   4.720 -0.1892  0.9384  0.2454
   74MOL0     C 9678   6.863  11.280   4.814 -0.2684 -0.0415 -0.2445
   74MOL0     C 9679   6.731  11.264   4.734  0.2731  0.0476 -0.2208
   74MOL0    Cl 9680   6.700  11.419   4.657 -0.0555 -0.0046 -0.2628
   74MOL0     C 9681   7.653  11.072   4.223  0.1426  0.4599  0.7178
   74MOL0     C 9682   7.672  11.007   4.090 -0.1129  0.6308  0.3587
   74MOL0     O 9683   7.853  11.081   3.857  0.4157 -0.1255 -0.4891
   74MOL0     C 9684   7.677  10.934   3.579  1.2914 -0.5475 -0.3068
   74MOL0     C 9685   7.710  10.878   3.458  0.1802 -0.4056  0.0518
   74MOL0     N 9686   7.933  10.268   3.090 -0.1869 -0.6792 -0.1918
   74MOL0     N 9687   8.022  10.179   3.072 -0.8089 -0.4103  0.2748
   74MOL0     C 9688   8.108   9.016   3.314  0.1642 -0.7954  0.5455
   74MOL0     C 9689   8.053   8.902   3.371  0.4924  0.7252 -0.1583
   74MOL0     C 9690   7.872   8.644   3.670  0.2874  0.0927 -0.1887
   74MOL0     C 9691   7.833   8.524   3.602 -0.5876  0.4582 -0.8594
   74MOL0     C 9692   7.802   8.405   3.668 -0.5968 -0.5606  0.7124
   74MOL0     C 9693   7.795   8.407   3.809  0.3845 -0.0411  0.2095
   74MOL0     O 9694   7.755   8.305   3.889  0.4175  0.6149  0.2508
   74MOL0     C 9695   7.795   8.175   3.850 -0.2443 -0.8356  0.5991
   74MOL0     C 9696   7.874   8.120   3.958  0.2086  0.3643 -0.1164
   74MOL0     C 9697   7.992   8.198   4.003 -0.0401  0.4153  0.4317
   74MOL0     C 9698   8.082   8.123   4.099 -0.5001  0.1401  0.2209
   74MOL0     C 9699   8.021   8.069   4.212  0.3602 -0.5272  0.2671
   74MOL0     C 9700   7.972   8.010   4.310  0.3399 -0.4554  0.6348
   74MOL0     C 9701   7.833   8.522   3.873  0.3807 -0.8680  0.2820
   74MOL0     C 9702   7.865   8.636   3.810  0.6791  0.5273  0.2254
   74MOL0     H 9703   7.732   8.964   3.348 -0.1858 -0.6754  1.1604
   74MOL0     H 9704   7.806   9.176   3.269 -0.1959  0.8762  0.9948
   74MOL0     H 9705   8.225   9.213   3.137  5.1185 -0.1851  0.8469
   74MOL0     H 9706   8.242   9.234   3.319 -1.6713  1.3143  1.3730
   74MOL0     H 9707   8.155   9.424   3.096 -0.7535  2.1471  1.1610
   74MOL0     H 9708   8.321   9.432   3.158 -0.7444  2.1619 -1.8987
   74MOL0     H 9709   8.249   9.499   3.375 -1.5321 -0.4314  0.5482
   74MOL0     H 9710   8.078   9.499   3.348  0.4878  0.1630  3.2554
   74MOL0     H 9711   8.275   9.700   3.310 -2.3284  0.9693  2.8869
   74MOL0     H 9712   8.238   9.665   3.147 -1.2130 -1.4268 -0.5886
   74MOL0     H 9713   8.037   9.729   3.366  2.3889 -1.6986  0.5427
   74MOL0     H 9714   7.981   9.687   3.210 -0.6941  0.0872  1.3016
   74MOL0     H 9715   7.979   9.909   3.212  0.6773 -1.4526  2.9180
   74MOL0     H 9716   8.102   9.873   3.089  1.0997 -0.1291 -0.1216
   74MOL0     H 9717   8.144   9.999   3.363 -0.2461 -1.5097 -0.1945
   74MOL0     H 9718   8.269   9.919   3.279 -0.2075  1.1588  0.2257
   74MOL0     H 9719   8.241  10.078   3.075  1.1543  2.4301 -0.1211
   74MOL0     H 9720   8.311  10.132   3.228 -2.7118  5.0851  0.4556
   74MOL0     H 9721   8.143  10.338   3.339 -0.3944 -0.0342  0.4324
   74MOL0     H 9722   7.997  10.557   3.201 -0.8768  1.6933  1.6425
   74MOL0     H 9723   7.902  10.500   3.335 -1.8793 -0.0536 -1.0647
   74MOL0     H 9724   7.709  10.432   3.206  1.2759 -1.2833  1.4395
   74MOL0     H 9725   7.781  10.520   3.063 -0.5118 -2.0820 -0.4041
   74MOL0     H 9726   7.608  10.657   3.180 -0.1477  0.4113 -1.5879
   74MOL0     H 9727   7.685  10.628   3.322  1.3414  0.4811 -0.0519
   74MOL0     H 9728   7.736  10.848   3.180 -0.8432 -0.5247 -2.0191
   74MOL0     H 9729   7.860  10.765   3.096 -0.9228 -0.3970 -0.5259
   74MOL0     H 9730   8.049  10.874   3.485 -0.1966 -0.2333  0.2742
   74MOL0     H 9731   7.989  10.969   3.696 -0.5956  1.0903 -0.6306
   74MOL0     H 9732   7.488  11.230   3.908  0.9452  1.5755  0.5022
   74MOL0     H 9733   7.426  11.309   4.122 -4.3569 -1.8134  1.9672
   74MOL0     H 9734   7.337  11.262   4.350  1.0565 -1.5459 -1.0539
   74MOL0     H 9735   7.434  11.409   4.363  0.8554  0.4073  0.8593
   74MOL0     H 9736   7.500  11.325   4.586 -1.4718  4.2931 -1.0310
   74MOL0     H 9737   7.394  11.177   4.565 -0.5876 -0.2847 -0.4587
   74MOL0     H 9738   7.209  11.359   4.533 -1.1976  1.3860  0.5063
   74MOL0     H 9739   7.297  11.450   4.654 -2.8766  1.4487 -0.9172
   74MOL0     H 9740   7.208  11.153   4.681 -0.2006 -0.7279  1.4884
   74MOL0     H 9741   7.316  11.231   4.789  0.0456  0.3506  0.7816
   74MOL0     H 9742   7.120  11.401   4.829 -0.5112 -0.1876 -0.4536
   74MOL0     H 9743   7.125  11.236   4.900  1.4086 -0.5082  0.5912
   74MOL0     H 9744   6.977  11.171   4.669 -3.8822  1.0851  0.0194
   74MOL0     H 9745   6.975  11.331   4.631 -4.3505 -0.6289 -0.7966
   74MOL0     H 9746   6.861  11.201   4.890  0.2072  0.3647  0.1950
   74MOL0     H 9747   6.869  11.378   4.860  1.6168 -0.2103 -0.0583
   74MOL0     H 9748   6.659  11.230   4.809  0.0889  0.4239 -0.2261
   74MOL0     H 9749   6.732  11.197   4.648 -1.3654  1.6428 -1.5610
   74MOL0     H 9750   7.697  11.024   4.310 -1.8754 -1.0835  0.9704
   74MOL0     H 9751   7.733  10.917   4.094  0.2189  0.7556 -1.3209
   74MOL0     H 9752   7.577  10.971   3.599  2.3396  2.5891 -0.3679
   74MOL0     H 9753   7.633  10.859   3.384 -0.9365 -0.2217  1.1307
   74MOL0     H 9754   8.212   9.025   3.282 -0.0531  1.0382  0.2715
   74MOL0     H 9755   8.111   8.810   3.379 -0.9424 -0.1614  0.3336
   74MOL0     H 9756   7.829   8.517   3.494  0.0738  2.8809 -1.0964
   74MOL0     H 9757   7.778   8.310   3.621  0.0782 -1.1759  1.5837
   74MOL0     H 9758   7.849   8.176   3.755 -3.8148 -0.2568 -1.5701
   74MOL0     H 9759   7.700   8.125   3.829 -0.4138 -1.0817  1.8405
   74MOL0     H 9760   7.802   8.112   4.040 -0.9594 -2.4285 -1.3045
   74MOL0     H 9761   7.899   8.016   3.934 -0.0324 -0.6448  3.3819
   74MOL0     H 9762   7.959   8.294   4.044 -1.8569 -0.4189  1.0006
   74MOL0     H 9763   8.048   8.220   3.912  2.7996 -2.4977  1.2661
   74MOL0     H 9764   8.128   8.035   4.053 -2.7894 -3.3896  4.0099
   74MOL0     H 9765   8.151   8.195   4.143 -1.4289  0.3509  1.3750
   74MOL0     H 9766   7.927   7.952   4.388 -1.0168 -0.7489 -0.3129
   74MOL0     H 9767   7.836   8.512   3.981  2.0939  0.5294  0.4145
   74MOL0     H 9768   7.871   8.726   3.870  0.7598 -0.0056  1.0317
   75MOL0     O 9769   0.841   8.126  10.146  0.2376 -0.2177  0.2507
   75MOL0     C 9770   0.795   8.077  10.040  0.2328  0.1529  0.6538
   75MOL0     O 9771   0.790   7.951  10.011 -0.2708  0.5324  0.1901
   75MOL0     C 9772   0.877   7.863  10.075  0.3094 -1.2163 -0.0488
   75MOL0     C 9773   0.823   7.739  10.087 -0.2366  0.6515 -0.2052
   75MOL0     C 9774   0.898   7.635  10.153  0.0294  0.0504  0.0436
   75MOL0     C 9775   1.031   7.655  10.202  0.1306 -1.0394 -0.6160
   75MOL0     O 9776   1.098   7.550  10.258 -0.4282  0.2579 -0.9807
   75MOL0     C 9777   1.135   7.567  10.397 -0.8914 -0.8656  0.5414
   75MOL0     C 9778   1.203   7.434  10.444 -0.9175 -0.2652 -0.4538
   75MOL0     C 9779   1.106   7.314  10.463  0.2184 -0.5108 -0.2899
   75MOL0     C 9780   1.058   7.259  10.338 -0.0494 -0.0314  0.3003
   75MOL0     C 9781   0.987   7.120  10.354 -0.3872 -0.9459  0.2193
   75MOL0     C 9782   0.959   7.036  10.236  0.3899 -0.2793 -0.3348
   75MOL0     C 9783   0.873   7.109  10.127  0.2087  0.0676 -0.7348
   75MOL0     C 9784   0.722   7.113  10.171  0.3125 -0.9745  0.3341
   75MOL0     N 9785   0.641   7.140  10.043  0.5010  0.1034 -0.1472
   75MOL0     C 9786   0.583   7.260  10.006  0.7957  0.8559 -1.2137
   75MOL0     C 9787   0.498   7.229   9.897 -0.3957 -0.7176 -0.2650
   75MOL0     C 9788   0.426   7.338   9.828  0.3349 -0.3400 -0.4794
   75MOL0     C 9789   0.348   7.298   9.703 -0.7285 -0.3026 -0.1117
   75MOL0     C 9790   0.326   7.403   9.598  0.0724 -0.1170  0.0595
   75MOL0     C 9791   0.293   7.542   9.659  0.0144  0.9189  0.6863
   75MOL0     O 9792   0.256   7.631   9.565  0.1616 -0.0652  0.3950
   75MOL0     C 9793   0.169   7.727   9.605  0.5755 -0.2520 -0.0946
   75MOL0     C 9794   0.043   7.742   9.540  0.3019  0.1872 -0.6880
   75MOL0     C 9795  -0.044   7.840   9.581 -0.3515 -0.2483 -0.3055
   75MOL0     C 9796  -0.009   7.933   9.680 -0.8069  0.2850 -0.0467
   75MOL0     C 9797  -0.104   8.043   9.712 -0.5707  0.9129  0.3248
   75MOL0     O 9798  -0.215   8.058   9.628  0.2747 -0.2707 -0.4057
   75MOL0     C 9799  -0.292   8.159   9.645 -0.2556 -0.6434 -0.6010
   75MOL0     C 9800  -0.416   8.144   9.715  0.2112  0.2933  0.1226
   75MOL0     C 9801  -0.491   8.260   9.735  0.1558  0.4026 -0.0892
   75MOL0     C 9802  -0.442   8.387   9.709 -0.1409  0.0130 -0.9169
   75MOL0     O 9803  -0.509   8.495   9.744 -0.9239  0.5497 -0.3809
   75MOL0     C 9804  -0.628   8.494   9.813  0.2353 -0.7126 -0.2136
   75MOL0     C 9805  -0.744   8.473   9.711  0.5051 -0.9650 -0.9232
   75MOL0     C 9806  -0.758   8.594   9.623 -0.6406  0.4990 -0.1104
   75MOL0     C 9807  -0.821   8.710   9.679 -0.2566  0.1631 -0.6079
   75MOL0     C 9808  -0.906   8.792   9.574 -1.0484  0.1987 -0.0128
   75MOL0     C 9809  -0.840   8.844   9.451 -0.3194  0.4711  0.7770
   75MOL0     C 9810  -0.936   8.915   9.354 -0.9399  0.2803  0.1580
   75MOL0     C 9811  -0.844   9.020   9.282  0.8362  0.3625 -0.0365
   75MOL0    Cl 9812  -0.938   9.157   9.221 -0.1702  0.0225  0.0194
   75MOL0     C 9813  -0.324   8.401   9.636 -0.2276  0.6665  0.2225
   75MOL0     C 9814  -0.251   8.280   9.607 -0.1922  0.5051 -0.0779
   75MOL0     O 9815  -0.088   8.105   9.815  0.5562  0.3993 -0.5243
   75MOL0     C 9816   0.114   7.915   9.749 -0.3179 -0.0235  0.1321
   75MOL0     C 9817   0.198   7.810   9.716 -0.8707 -0.4437  0.6747
   75MOL0     N 9818   0.507   7.092   9.877 -0.6293  0.4199  0.4916
   75MOL0     N 9819   0.601   7.041   9.953  0.1580 -0.0694  1.1745
   75MOL0     C 9820   1.085   7.787  10.181  0.5980 -0.3599  0.8500
   75MOL0     C 9821   1.003   7.893  10.126  0.5853  0.2000 -0.6926
   75MOL0     C 9822   0.729   8.172   9.955  0.6436 -0.0341  0.1143
   75MOL0     C 9823   0.693   8.297  10.003 -0.0354 -0.8605 -0.0243
   75MOL0     C 9824   0.617   8.386   9.928 -0.6007 -0.9022  0.1995
   75MOL0     C 9825   0.593   8.357   9.793 -0.0556  0.5199  0.6256
   75MOL0     O 9826   0.551   8.450   9.704 -0.2460  0.0338 -0.2947
   75MOL0     C 9827   0.420   8.500   9.719 -0.2471 -0.0207  0.0465
   75MOL0     C 9828   0.371   8.535   9.587 -0.2079 -0.0252  0.4310
   75MOL0     C 9829   0.329   8.413   9.500  0.3113  0.2620  0.2579
   75MOL0     C 9830   0.195   8.347   9.542 -0.1334  0.0547 -0.6893
   75MOL0     C 9831   0.130   8.274   9.439  0.1517  1.0527 -1.1403
   75MOL0     C 9832   0.070   8.205   9.362 -0.3275 -0.0004  1.2254
   75MOL0     C 9833   0.637   8.234   9.738  0.1261  0.1315  0.0018
   75MOL0     C 9834   0.707   8.147   9.817 -0.0765 -0.9731  0.8945
   75MOL0     H 9835   0.725   7.717  10.046 -0.4148 -0.3744  0.7375
   75MOL0     H 9836   0.865   7.537  10.186  1.0577 -0.5185 -0.5570
   75MOL0     H 9837   1.046   7.603  10.449  0.1230  1.8583  0.6128
   75MOL0     H 9838   1.201   7.655  10.403 -1.1792 -0.4707 -1.3845
   75MOL0     H 9839   1.260   7.447  10.537  0.7924 -2.7646 -1.0326
   75MOL0     H 9840   1.280   7.412  10.369 -1.6929  1.6999 -1.9200
   75MOL0     H 9841   1.023   7.361  10.517 -2.3367 -3.1388 -1.6293
   75MOL0     H 9842   1.147   7.234  10.526 -0.9154 -0.1611  0.9346
   75MOL0     H 9843   0.998   7.334  10.285  0.9204  1.0925  0.7481
   75MOL0     H 9844   1.148   7.238  10.281 -1.4188  0.8706 -2.3721
   75MOL0     H 9845   0.891   7.141  10.402  1.0198  0.9738  2.3991
   75MOL0     H 9846   1.040   7.065  10.432 -1.7419  1.3809  3.0015
   75MOL0     H 9847   0.920   6.939  10.270 -0.5647  0.3893  0.5470
   75MOL0     H 9848   1.053   7.011  10.187 -0.7256 -1.8493 -1.8197
   75MOL0     H 9849   0.905   7.213  10.121 -0.5084  0.2126 -2.4946
   75MOL0     H 9850   0.891   7.077  10.024 -1.7111 -2.0557 -0.4907
   75MOL0     H 9851   0.705   7.190  10.246  3.0343 -0.6095  0.6476
   75MOL0     H 9852   0.694   7.010  10.196  0.5098 -1.2182 -0.4040
   75MOL0     H 9853   0.615   7.353  10.053  2.0450  0.2848 -0.8948
   75MOL0     H 9854   0.498   7.415   9.798  0.6375  0.2556  1.6314
   75MOL0     H 9855   0.351   7.382   9.895  0.0910 -0.4412 -0.6861
   75MOL0     H 9856   0.251   7.264   9.740 -0.3317  0.9383  2.2759
   75MOL0     H 9857   0.393   7.210   9.656 -1.8308 -1.6181  1.1938
   75MOL0     H 9858   0.415   7.414   9.535 -0.9186  1.8862 -1.0585
   75MOL0     H 9859   0.249   7.371   9.527 -0.0644  0.7889 -0.2030
   75MOL0     H 9860   0.380   7.588   9.707  1.9739  0.4530 -2.1517
   75MOL0     H 9861   0.216   7.522   9.734 -1.0105 -0.4570 -0.6738
   75MOL0     H 9862   0.011   7.671   9.465 -1.3216  0.2615 -0.1174
   75MOL0     H 9863  -0.138   7.848   9.528 -0.6958 -0.0529  0.3306
   75MOL0     H 9864  -0.442   8.045   9.751  0.1213 -0.0998 -0.9627
   75MOL0     H 9865  -0.586   8.253   9.787  0.7116 -0.5144  0.8411
   75MOL0     H 9866  -0.638   8.594   9.856  2.1087 -0.4049 -0.4219
   75MOL0     H 9867  -0.616   8.418   9.891 -0.1995 -1.0102 -0.4305
   75MOL0     H 9868  -0.835   8.450   9.768  0.5759  0.8764 -0.0244
   75MOL0     H 9869  -0.731   8.379   9.656  0.1134 -2.6793  1.7147
   75MOL0     H 9870  -0.835   8.563   9.551 -2.4975  1.3368  1.4172
   75MOL0     H 9871  -0.670   8.627   9.568 -1.5749  1.6196 -0.9560
   75MOL0     H 9872  -0.879   8.689   9.769  0.2483 -0.9166 -0.5167
   75MOL0     H 9873  -0.741   8.775   9.714  0.1239 -0.1755 -0.8330
   75MOL0     H 9874  -0.946   8.876   9.633  3.4391  0.2769  3.5211
   75MOL0     H 9875  -0.990   8.728   9.545 -0.0851 -2.4441  2.5769
   75MOL0     H 9876  -0.803   8.759   9.393 -5.2796 -0.6587 -1.2524
   75MOL0     H 9877  -0.764   8.916   9.483  0.9439 -0.1739 -0.6224
   75MOL0     H 9878  -0.979   8.847   9.280  0.1640 -0.9761  0.6352
   75MOL0     H 9879  -1.014   8.963   9.415 -0.9490  0.9836 -0.4027
   75MOL0     H 9880  -0.795   8.974   9.196  0.7600 -0.2719  0.2521
   75MOL0     H 9881  -0.761   9.059   9.341  0.5455 -1.1189  1.4262
   75MOL0     H 9882  -0.286   8.499   9.610  0.5618  0.1243 -0.7059
   75MOL0     H 9883  -0.163   8.281   9.543  0.9684 -1.2988  1.3718
   75MOL0     H 9884   0.135   7.975   9.837  1.5933 -2.0518  1.1645
   75MOL0     H 9885   0.291   7.790   9.769 -1.4173 -0.7036  1.5683
   75MOL0     H 9886   1.183   7.817  10.217  0.8175 -0.1375  0.0738
   75MOL0     H 9887   1.044   7.993  10.120  2.5644 -0.0405  4.1419
   75MOL0     H 9888   0.715   8.323  10.106  1.4277 -0.4521 -0.4122
   75MOL0     H 9889   0.569   8.478   9.960 -5.3945 -2.2365 -2.2304
   75MOL0     H 9890   0.419   8.590   9.781 -1.1420 -0.7903  1.1874
   75MOL0     H 9891   0.353   8.434   9.775 -0.4271  0.3456  0.2682
   75MOL0     H 9892   0.287   8.605   9.592  0.8312  1.8996 -4.0692
   75MOL0     H 9893   0.447   8.599   9.541 -0.7969 -0.2554 -0.9233
   75MOL0     H 9894   0.414   8.344   9.505  1.1986  1.2379 -0.8524
   75MOL0     H 9895   0.328   8.434   9.393  3.6763 -1.1137 -0.1875
   75MOL0     H 9896   0.210   8.276   9.623  1.4664  1.8209  0.6391
   75MOL0     H 9897   0.122   8.428   9.559 -0.9453 -1.0965  1.7697
   75MOL0     H 9898   0.020   8.147   9.288  2.0616 -1.9605  1.0186
   75MOL0     H 9899   0.601   8.208   9.639  0.5061  0.7897 -0.3190
   75MOL0     H 9900   0.734   8.055   9.768 -2.2449 -0.4973 -1.4080
   76MOL0     O 9901   8.679   8.035   3.468 -0.0691 -0.6614 -0.5187
   76MOL0     C 9902   8.658   8.148   3.516 -0.2116  0.7782 -0.3546
   76MOL0     O 9903   8.555   8.178   3.592  0.2842  0.1237  0.4963
   76MOL0     C 9904   8.460   8.093   3.639  0.4338  0.4391 -0.0938
   76MOL0     C 9905   8.358   8.043   3.557  0.0746  0.1283  0.5010
   76MOL0     C 9906   8.250   7.983   3.614  0.6689  0.0147  0.8409
   76MOL0     C 9907   8.233   7.962   3.750  0.2971  0.0855  1.7892
   76MOL0     O 9908   8.111   7.895   3.783 -0.4560 -0.5533  0.2000
   76MOL0     C 9909   8.129   7.791   3.876  0.0623 -0.3817 -0.0549
   76MOL0     C 9910   8.020   7.675   3.857 -0.4902 -0.2369  1.1167
   76MOL0     C 9911   8.055   7.543   3.912  0.1194  0.4426  0.0994
   76MOL0     C 9912   7.943   7.438   3.888 -0.4043 -0.2576  0.4224
   76MOL0     C 9913   7.974   7.368   3.753  1.0452 -0.7162  0.4059
   76MOL0     C 9914   7.881   7.250   3.720  0.6706 -0.1168 -0.3670
   76MOL0     C 9915   7.907   7.206   3.584  0.4081  0.3575  0.9851
   76MOL0     C 9916   7.796   7.124   3.515 -0.7539  0.0737  0.7805
   76MOL0     N 9917   7.749   7.023   3.612 -0.2457  0.0555  0.3117
   76MOL0     C 9918   7.826   6.922   3.667 -0.6478 -0.0303  0.4006
   76MOL0     C 9919   7.735   6.842   3.718  0.0514  0.3925 -0.4714
   76MOL0     C 9920   7.778   6.710   3.769 -0.1523 -0.2971  0.2625
   76MOL0     C 9921   7.864   6.728   3.896  0.4909 -0.7348 -0.6149
   76MOL0     C 9922   7.779   6.730   4.025 -0.5413 -0.5579 -0.3477
   76MOL0     C 9923   7.673   6.848   4.029 -0.6632 -0.2197 -0.2666
   76MOL0     O 9924   7.739   6.974   4.014  0.4543 -0.3610  0.6096
   76MOL0     C 9925   7.663   7.083   4.005  0.5932 -0.5758  0.2791
   76MOL0     C 9926   7.528   7.080   3.967 -0.1699  0.3806 -0.3727
   76MOL0     C 9927   7.450   7.196   4.003  0.0253  0.6521 -0.2921
   76MOL0     C 9928   7.507   7.312   4.056  0.1263 -0.1135 -0.3947
   76MOL0     C 9929   7.417   7.432   4.068  0.3648 -0.0957 -0.3284
   76MOL0     O 9930   7.456   7.536   4.150 -0.4943  0.0040  0.1280
   76MOL0     C 9931   7.371   7.643   4.170  0.3209  1.1617  0.5651
   76MOL0     C 9932   7.276   7.698   4.082 -0.2164 -0.1807  1.6702
   76MOL0     C 9933   7.192   7.807   4.112  0.2354  0.2368  0.3286
   76MOL0     C 9934   7.184   7.854   4.242 -0.4818 -0.4851 -0.5533
   76MOL0     O 9935   7.098   7.947   4.297  0.4043  0.1619 -0.3661
   76MOL0     C 9936   6.988   7.991   4.205 -0.1191 -1.0296 -0.9687
   76MOL0     C 9937   6.897   8.100   4.271  0.2675 -0.6380 -0.1011
   76MOL0     C 9938   6.974   8.230   4.313  0.3905  0.1106 -0.0666
   76MOL0     C 9939   6.953   8.346   4.213  0.1529 -0.3771 -0.1435
   76MOL0     C 9940   7.056   8.454   4.254  0.6020  0.8166  0.1995
   76MOL0     C 9941   7.091   8.551   4.146 -0.7208  0.1924  0.1306
   76MOL0     C 9942   7.214   8.646   4.179  0.4812 -0.4156 -0.0996
   76MOL0     C 9943   7.230   8.733   4.059  0.0612  0.3468  0.1327
   76MOL0    Cl 9944   7.270   8.910   4.098 -0.2896  0.4324  0.5890
   76MOL0     C 9945   7.285   7.800   4.327  0.2910 -0.2970 -0.0474
   76MOL0     C 9946   7.387   7.710   4.293 -0.7892  0.2392 -0.0724
   76MOL0     O 9947   7.307   7.431   4.005  0.3941  1.0344  0.5140
   76MOL0     C 9948   7.637   7.314   4.092 -0.7196  0.2774 -0.3595
   76MOL0     C 9949   7.717   7.202   4.060 -0.4209  0.4111  0.3085
   76MOL0     N 9950   7.603   6.884   3.701  0.0133 -0.6140 -0.1042
   76MOL0     N 9951   7.616   6.996   3.624  0.3224  0.0441  0.2487
   76MOL0     C 9952   8.331   8.000   3.839  0.6177 -0.1263  0.2815
   76MOL0     C 9953   8.439   8.071   3.777 -1.1286 -1.0831 -0.2304
   76MOL0     C 9954   8.773   8.242   3.487 -0.0578  0.1123 -0.5098
   76MOL0     C 9955   8.889   8.195   3.425  0.6824  0.3536  0.5035
   76MOL0     C 9956   8.997   8.278   3.416 -0.6846 -0.1101  0.0538
   76MOL0     C 9957   8.995   8.411   3.457  0.4161  0.0014  0.2402
   76MOL0     O 9958   9.108   8.478   3.436 -0.8643 -0.6961 -0.3871
   76MOL0     C 9959   9.181   8.568   3.526 -0.2507  0.2289 -0.4903
   76MOL0     C 9960   9.114   8.704   3.566  0.1138 -0.4966  0.5999
   76MOL0     C 9961   9.078   8.794   3.439 -0.3180 -0.4059 -0.8971
   76MOL0     C 9962   9.035   8.931   3.469  0.0020 -0.7281  0.9680
   76MOL0     C 9963   8.932   8.925   3.570 -0.5337  0.5755 -0.1479
   76MOL0     C 9964   8.850   8.936   3.662 -0.4913  0.0497  0.3831
   76MOL0     C 9965   8.881   8.457   3.521 -0.0414 -1.1055  0.4531
   76MOL0     C 9966   8.775   8.372   3.541  0.7466  0.2989  1.9259
   76MOL0     H 9967   8.363   8.080   3.455 -0.8989  1.4710  0.9044
   76MOL0     H 9968   8.164   7.974   3.547  1.7079 -0.0271 -0.5262
   76MOL0     H 9969   8.136   7.825   3.980  1.1319 -1.6402  0.3253
   76MOL0     H 9970   8.228   7.747   3.860  0.5661 -1.8704  5.2385
   76MOL0     H 9971   8.008   7.647   3.752  0.0187  2.6544  0.1852
   76MOL0     H 9972   7.921   7.704   3.893 -3.8480 -2.7539 -4.7163
   76MOL0     H 9973   8.065   7.557   4.020  2.4964  0.2452 -0.0470
   76MOL0     H 9974   8.153   7.504   3.884 -0.9804 -2.8344  0.3745
   76MOL0     H 9975   7.926   7.366   3.968 -3.9742  0.2244  0.2903
   76MOL0     H 9976   7.852   7.498   3.882 -0.4601 -0.1619  1.8306
   76MOL0     H 9977   8.079   7.339   3.766  1.3477  0.6390  1.2439
   76MOL0     H 9978   7.964   7.446   3.676  1.9828 -0.2031  0.7822
   76MOL0     H 9979   7.779   7.287   3.736  2.5270  4.4785  2.8533
   76MOL0     H 9980   7.887   7.175   3.800  1.2270  0.4529  0.1306
   76MOL0     H 9981   7.927   7.279   3.504 -2.5090 -2.9561 -3.2444
   76MOL0     H 9982   7.990   7.135   3.576  0.9706  1.1222 -0.3193
   76MOL0     H 9983   7.831   7.092   3.416 -4.5683 -0.4973 -0.5503
   76MOL0     H 9984   7.711   7.191   3.500  0.1920  1.5587  1.8215
   76MOL0     H 9985   7.931   6.898   3.679 -1.1236 -2.6364 -0.1009
   76MOL0     H 9986   7.848   6.664   3.699 -0.4673 -1.3939  0.6428
   76MOL0     H 9987   7.692   6.643   3.778  0.5274 -1.1010  0.9139
   76MOL0     H 9988   7.922   6.820   3.898 -0.5168 -0.1052  0.1356
   76MOL0     H 9989   7.938   6.647   3.900  1.7513  0.3145 -1.6726
   76MOL0     H 9990   7.740   6.632   4.052 -0.0347 -0.5815  0.3248
   76MOL0     H 9991   7.851   6.750   4.105 -0.8049 -1.3909  0.1142
   76MOL0     H 9992   7.618   6.852   4.124 -2.0869  0.3232 -1.0887
   76MOL0     H 9993   7.596   6.821   3.957 -1.2290 -0.2635  0.3480
   76MOL0     H 9994   7.461   7.000   3.937 -0.0346  0.6391 -1.4017
   76MOL0     H 9995   7.345   7.189   3.977 -0.7001  1.1575  2.1903
   76MOL0     H 9996   7.280   7.660   3.981  3.5047  2.3913  0.5938
   76MOL0     H 9997   7.138   7.847   4.027  1.6169  2.1319  0.2871
   76MOL0     H 9998   6.924   7.904   4.184 -2.4343  0.1611  0.6260
   76MOL0     H 9999   7.013   8.017   4.102 -2.4969 -0.9222 -1.5867
   76MOL0     H10000   6.848   8.056   4.358  0.7756  1.0283  1.0762
   76MOL0     H10001   6.821   8.127   4.198  0.0966 -1.7510 -0.3561
   76MOL0     H10002   7.079   8.202   4.316 -0.4975 -4.0632 -1.2640
   76MOL0     H10003   6.938   8.253   4.414 -1.2479 -2.6460  0.0600
   76MOL0     H10004   6.973   8.321   4.109 -1.8793  3.4455 -1.6615
   76MOL0     H10005   6.854   8.393   4.217  0.3210  0.2769 -2.4394
   76MOL0     H10006   7.151   8.401   4.267 -1.2425 -2.6432  0.8431
   76MOL0     H10007   7.025   8.499   4.349 -0.8139 -2.1293  1.2557
   76MOL0     H10008   7.005   8.607   4.108  0.0946  1.6462  0.3514
   76MOL0     H10009   7.127   8.498   4.057 -0.4137  0.4694  0.0917
   76MOL0     H10010   7.175   8.709   4.260  1.7996 -0.0996  0.3075
   76MOL0     H10011   7.303   8.585   4.195 -0.5961 -1.8344  0.7173
   76MOL0     H10012   7.131   8.732   4.011  0.5711 -1.1689 -0.9448
   76MOL0     H10013   7.288   8.690   3.977 -0.4264  1.2553 -0.7085
   76MOL0     H10014   7.284   7.846   4.425 -0.7245 -1.2483  0.4141
   76MOL0     H10015   7.474   7.687   4.354  0.0461 -0.5239 -1.5203
   76MOL0     H10016   7.683   7.404   4.131 -0.3107 -0.7376  1.6705
   76MOL0     H10017   7.819   7.202   4.096  1.1007 -0.9296 -3.4988
   76MOL0     H10018   8.319   7.971   3.943  0.4359  0.0203  0.3019
   76MOL0     H10019   8.501   8.126   3.847 -0.6059  1.9151 -2.8264
   76MOL0     H10020   8.881   8.094   3.384 -1.8651 -0.0085  1.6715
   76MOL0     H10021   9.084   8.231   3.372 -0.9280  1.2053 -1.9728
   76MOL0     H10022   9.272   8.588   3.470  0.8584 -1.3512  0.6714
   76MOL0     H10023   9.206   8.507   3.613  0.3019 -2.8563 -2.6744
   76MOL0     H10024   9.027   8.679   3.628 -0.5910  0.9605  0.2542
   76MOL0     H10025   9.178   8.770   3.626 -0.9183  2.3524 -1.2229
   76MOL0     H10026   9.002   8.745   3.377  1.3076 -3.0916 -0.8942
   76MOL0     H10027   9.167   8.810   3.377 -0.2337  1.4919 -0.3467
   76MOL0     H10028   9.101   9.001   3.522 -0.0388 -0.9435  1.3069
   76MOL0     H10029   8.995   8.982   3.381  1.8323  3.2157  2.1880
   76MOL0     H10030   8.781   8.960   3.740 -1.5818 -0.3210 -0.4469
   76MOL0     H10031   8.868   8.557   3.562  0.5274 -0.8412  0.0020
   76MOL0     H10032   8.683   8.411   3.582  1.8101  1.2408  3.5370
   77MOL0     O10033   3.219   5.847   6.726  0.2985  0.8995 -0.3764
   77MOL0     C10034   3.287   5.747   6.734 -0.2973 -0.6472 -0.8065
   77MOL0     O10035   3.269   5.639   6.675  0.4690 -0.3525 -0.0551
   77MOL0     C10036   3.192   5.625   6.567  0.0964  0.1398  0.2203
   77MOL0     C10037   3.236   5.569   6.446 -0.2505 -0.1521  0.6781
   77MOL0     C10038   3.156   5.566   6.324  0.4072 -0.0215  1.0587
   77MOL0     C10039   3.025   5.595   6.330  0.3808  0.0676 -0.3519
   77MOL0     O10040   2.955   5.573   6.218  0.0289  0.3210 -0.3738
   77MOL0     C10041   2.815   5.542   6.220 -0.5718  0.3930  0.0833
   77MOL0     C10042   2.788   5.409   6.271  0.5859  0.6081  0.2285
   77MOL0     C10043   2.631   5.400   6.293  0.4916  0.4475  0.8227
   77MOL0     C10044   2.542   5.430   6.172  0.4073 -0.2089  0.7786
   77MOL0     C10045   2.405   5.376   6.199  0.1945  1.7514  0.2461
   77MOL0     C10046   2.310   5.403   6.077 -1.1936 -0.0579 -1.0747
   77MOL0     C10047   2.199   5.297   6.075  0.3955 -0.4216  0.4647
   77MOL0     C10048   2.082   5.318   5.973 -0.2054 -0.1070 -0.3919
   77MOL0     N10049   1.996   5.438   6.002 -0.0255  0.7494 -0.0976
   77MOL0     C10050   2.006   5.555   5.937 -0.1047  0.1422  0.5401
   77MOL0     C10051   1.921   5.641   6.004  0.0882  0.1056  0.1560
   77MOL0     C10052   1.882   5.789   5.951 -0.3324 -0.0645  0.0240
   77MOL0     C10053   1.765   5.782   5.858 -0.6614 -0.7131  0.0798
   77MOL0     C10054   1.713   5.919   5.820 -0.4085  0.2765  0.4321
   77MOL0     C10055   1.818   6.019   5.768  0.6260 -0.5886  0.3957
   77MOL0     O10056   1.869   5.971   5.640  0.1884  0.6984 -0.0118
   77MOL0     C10057   1.925   6.062   5.557 -0.0574 -0.4155  0.6717
   77MOL0     C10058   1.853   6.153   5.470  0.2752 -0.5578  0.4084
   77MOL0     C10059   1.932   6.235   5.391 -0.2296 -1.1157  0.2182
   77MOL0     C10060   2.073   6.232   5.377  0.4080  1.3185  0.0496
   77MOL0     C10061   2.147   6.315   5.288 -0.7864  0.4878  0.0090
   77MOL0     O10062   2.281   6.277   5.270  0.1433  0.8055  0.7317
   77MOL0     C10063   2.370   6.348   5.204  0.6526  0.0359 -0.3209
   77MOL0     C10064   2.343   6.459   5.119  0.3447  0.5975  1.0204
   77MOL0     C10065   2.441   6.520   5.051 -0.4014  0.9709 -0.2226
   77MOL0     C10066   2.578   6.487   5.078  0.3209 -0.1222 -0.1220
   77MOL0     O10067   2.680   6.552   5.022 -0.3936  1.0327 -0.1081
   77MOL0     C10068   2.670   6.554   4.887 -0.7828  0.0832  0.6219
   77MOL0     C10069   2.799   6.595   4.824  0.1563 -0.0141 -0.0836
   77MOL0     C10070   2.931   6.537   4.870 -0.4676  1.7169 -0.7338
   77MOL0     C10071   2.923   6.382   4.851 -0.1884 -0.0608 -0.5538
   77MOL0     C10072   3.061   6.324   4.901  0.4721  0.1872  0.0857
   77MOL0     C10073   3.075   6.177   4.898 -0.6985 -0.9190  0.3016
   77MOL0     C10074   3.119   6.122   4.764 -0.6242  0.6174  1.0739
   77MOL0     C10075   3.060   5.982   4.733 -0.0054 -0.5397 -0.2889
   77MOL0    Cl10076   3.150   5.863   4.826 -0.3035  0.0675  0.3044
   77MOL0     C10077   2.608   6.390   5.166 -0.1824 -0.0811 -0.5582
   77MOL0     C10078   2.504   6.317   5.226  0.2062  0.6659 -0.3856
   77MOL0     O10079   2.099   6.419   5.248 -0.4285 -1.0692 -0.0541
   77MOL0     C10080   2.142   6.129   5.456 -0.2154  0.5120  0.3716
   77MOL0     C10081   2.065   6.053   5.542 -0.7594 -1.2828 -0.4992
   77MOL0     N10082   1.857   5.568   6.108  0.6825  0.3584  0.4973
   77MOL0     N10083   1.910   5.452   6.106 -0.1820  0.1873  0.0606
   77MOL0     C10084   2.970   5.638   6.457 -0.0660  0.2734  0.4057
   77MOL0     C10085   3.052   5.658   6.567  0.0329 -0.0065 -0.5546
   77MOL0     C10086   3.408   5.761   6.820  0.6746  0.1941 -0.2733
   77MOL0     C10087   3.458   5.654   6.891  0.1159  0.5659  0.1087
   77MOL0     C10088   3.560   5.672   6.987  0.3029 -0.2646  0.3419
   77MOL0     C10089   3.600   5.804   7.014  0.0285  0.3619 -0.3102
   77MOL0     O10090   3.692   5.818   7.119 -0.3493 -0.8315 -0.9281
   77MOL0     C10091   3.810   5.877   7.079  0.8320 -0.3513  0.2617
   77MOL0     C10092   3.898   5.912   7.203  0.3841  0.6670 -0.1564
   77MOL0     C10093   3.820   6.016   7.287 -0.2072 -0.7909  0.7765
   77MOL0     C10094   3.891   6.150   7.292  0.7081 -0.2451 -0.1632
   77MOL0     C10095   3.912   6.206   7.162 -0.1972 -0.9288  0.6405
   77MOL0     C10096   3.951   6.256   7.056  0.6687 -0.2179 -1.2502
   77MOL0     C10097   3.544   5.914   6.950  0.2107  0.0138 -0.0399
   77MOL0     C10098   3.452   5.888   6.853 -0.0064 -0.3004 -0.3160
   77MOL0     H10099   3.337   5.531   6.442  0.7868  2.1661  2.5406
   77MOL0     H10100   3.195   5.518   6.234 -3.1907 -0.9789 -0.1494
   77MOL0     H10101   2.782   5.540   6.116 -0.6405  3.7377 -0.0544
   77MOL0     H10102   2.752   5.617   6.269  2.5054  2.1176  1.7337
   77MOL0     H10103   2.847   5.396   6.362 -0.3667 -2.8006  0.4975
   77MOL0     H10104   2.832   5.335   6.203 -0.7719 -3.2675  3.2271
   77MOL0     H10105   2.601   5.477   6.365 -1.1430 -0.7972  1.5177
   77MOL0     H10106   2.613   5.299   6.329 -1.8417 -0.2377 -1.9278
   77MOL0     H10107   2.536   5.535   6.142 -3.0288 -0.1549  1.2143
   77MOL0     H10108   2.572   5.370   6.085 -0.3292 -0.6272  0.8020
   77MOL0     H10109   2.362   5.424   6.287 -1.8661  2.4923 -1.1018
   77MOL0     H10110   2.412   5.269   6.223  2.4379  1.7572 -0.1816
   77MOL0     H10111   2.368   5.386   5.986 -1.0581 -3.4772 -0.5098
   77MOL0     H10112   2.260   5.500   6.077 -1.7822 -0.3226  0.7227
   77MOL0     H10113   2.247   5.199   6.064 -0.9976 -1.0563 -0.1593
   77MOL0     H10114   2.151   5.288   6.173  1.1293 -0.9543  0.7830
   77MOL0     H10115   2.021   5.227   5.967  3.2958 -2.5525 -2.1606
   77MOL0     H10116   2.123   5.332   5.873 -2.0128 -0.7782 -1.2780
   77MOL0     H10117   2.057   5.569   5.842 -0.5135 -0.8812  0.1569
   77MOL0     H10118   1.969   5.833   5.902 -0.6106 -0.2963 -0.6845
   77MOL0     H10119   1.848   5.859   6.029  0.8016  2.2998 -1.4921
   77MOL0     H10120   1.684   5.720   5.895 -3.0522  1.7913 -0.5950
   77MOL0     H10121   1.793   5.724   5.770  0.7134 -2.9761  1.9089
   77MOL0     H10122   1.629   5.926   5.749  0.5475 -0.9027 -0.8742
   77MOL0     H10123   1.672   5.963   5.911 -3.7809 -1.6393  0.0137
   77MOL0     H10124   1.896   6.043   5.840  1.3449  1.9555 -1.0992
   77MOL0     H10125   1.762   6.110   5.744  1.4405 -0.6394 -2.0056
   77MOL0     H10126   1.748   6.174   5.486 -0.7155 -4.0355 -0.5918
   77MOL0     H10127   1.891   6.309   5.323 -0.8948 -0.7098  1.0330
   77MOL0     H10128   2.239   6.479   5.094  0.5684 -0.3401 -0.8976
   77MOL0     H10129   2.400   6.583   4.973 -0.1401 -1.4912 -2.5158
   77MOL0     H10130   2.594   6.626   4.856  0.2142  1.3091  0.9262
   77MOL0     H10131   2.648   6.455   4.846 -5.1736  1.9471 -2.2778
   77MOL0     H10132   2.812   6.704   4.820  0.6451 -0.0481 -4.1780
   77MOL0     H10133   2.780   6.578   4.717  0.5342  1.3386 -0.3904
   77MOL0     H10134   2.940   6.555   4.978 -1.7461  2.8609 -0.7947
   77MOL0     H10135   3.013   6.588   4.818 -0.0156  1.4431 -0.3038
   77MOL0     H10136   2.849   6.342   4.920  2.4231 -1.8927  1.3843
   77MOL0     H10137   2.899   6.351   4.749 -1.2100  1.9394 -0.9773
   77MOL0     H10138   3.060   6.361   5.004  0.6739  1.5695 -0.3824
   77MOL0     H10139   3.143   6.370   4.845  0.5457 -3.0649 -2.7892
   77MOL0     H10140   2.982   6.142   4.943 -1.6098  2.3458  1.2087
   77MOL0     H10141   3.158   6.147   4.964  2.6032 -0.1911 -3.1802
   77MOL0     H10142   3.095   6.188   4.680 -1.1731  2.7570  2.8110
   77MOL0     H10143   3.228   6.130   4.765 -0.5496 -0.3653  1.9007
   77MOL0     H10144   3.041   5.964   4.626  0.1448  4.6545 -1.4797
   77MOL0     H10145   2.958   5.980   4.771  0.4315 -0.2655  0.9224
   77MOL0     H10146   2.710   6.365   5.195  0.1632  0.8485 -0.9322
   77MOL0     H10147   2.519   6.247   5.308 -0.8991  2.7156  1.6851
   77MOL0     H10148   2.248   6.105   5.456 -0.0421  1.1927  1.2267
   77MOL0     H10149   2.118   5.985   5.608 -1.7910 -0.0693  1.7033
   77MOL0     H10150   2.868   5.672   6.470 -0.9174 -1.6720 -0.7107
   77MOL0     H10151   3.002   5.701   6.653  1.2674  2.5671 -1.0491
   77MOL0     H10152   3.437   5.550   6.872  2.1563  0.1114  0.1852
   77MOL0     H10153   3.595   5.585   7.042  1.6432 -1.9964 -2.9983
   77MOL0     H10154   3.794   5.974   7.032  0.1420  1.3311  3.6699
   77MOL0     H10155   3.872   5.820   7.010  1.6117 -0.6066  1.1540
   77MOL0     H10156   3.926   5.833   7.274 -0.4317  0.6604  0.1725
   77MOL0     H10157   3.996   5.944   7.168  1.3942 -3.3205 -1.5205
   77MOL0     H10158   3.817   5.970   7.386 -0.9171  0.1300  1.2033
   77MOL0     H10159   3.716   6.022   7.255  0.1554 -0.4653 -0.4104
   77MOL0     H10160   3.823   6.216   7.347  1.6266 -0.6793  1.5532
   77MOL0     H10161   3.985   6.135   7.344  0.8954 -0.6094 -0.6004
   77MOL0     H10162   3.984   6.313   6.971 -0.9319  0.6837 -1.3005
   77MOL0     H10163   3.570   6.015   6.978  0.5223  0.8051 -2.8986
   77MOL0     H10164   3.405   5.976   6.810 -0.9546  0.3684  1.9073
   78MOL0     O10165   6.522   5.787   8.538  0.3458 -0.6753 -0.2622
   78MOL0     C10166   6.461   5.718   8.621 -1.3152 -0.4217  0.6444
   78MOL0     O10167   6.517   5.656   8.725 -0.0124 -0.4985 -0.1179
   78MOL0     C10168   6.652   5.631   8.735  0.4836 -0.4575  0.1500
   78MOL0     C10169   6.758   5.720   8.698 -0.2388 -0.1256 -0.6567
   78MOL0     C10170   6.890   5.673   8.706  0.3194  0.4773 -0.5784
   78MOL0     C10171   6.915   5.544   8.763 -0.2381 -0.0467  0.0188
   78MOL0     O10172   7.043   5.508   8.791  0.8164  1.0125 -0.6278
   78MOL0     C10173   7.115   5.599   8.875 -0.1890  0.3520 -0.6948
   78MOL0     C10174   7.105   5.593   9.027 -1.3654 -0.0032  0.5422
   78MOL0     C10175   6.973   5.596   9.092 -1.4986 -0.3539 -0.2880
   78MOL0     C10176   6.891   5.720   9.089  0.0020  0.3147 -0.5071
   78MOL0     C10177   6.754   5.708   9.160  1.0962  0.8311 -0.4030
   78MOL0     C10178   6.665   5.826   9.142  0.0135 -0.2620 -0.6819
   78MOL0     C10179   6.530   5.785   9.212 -0.5346 -0.1485  0.6203
   78MOL0     C10180   6.418   5.881   9.197  0.5694 -0.5393  0.2025
   78MOL0     N10181   6.447   6.025   9.197 -0.6004 -1.1226 -0.2235
   78MOL0     C10182   6.506   6.099   9.300  0.1874 -0.3553  0.1159
   78MOL0     C10183   6.535   6.218   9.245  0.0877 -0.1734 -0.1985
   78MOL0     C10184   6.613   6.342   9.298  0.1617  0.6751  1.2160
   78MOL0     C10185   6.761   6.321   9.332  1.4892  0.1482  0.6778
   78MOL0     C10186   6.859   6.359   9.206  1.0092  0.2582 -1.3293
   78MOL0     C10187   6.991   6.421   9.268  0.2834 -0.0976 -0.4488
   78MOL0     O10188   7.104   6.424   9.172  0.5492  0.7474  0.1633
   78MOL0     C10189   7.228   6.385   9.209  0.1503 -0.2075  0.1935
   78MOL0     C10190   7.330   6.418   9.116  0.4372  1.1453  0.6000
   78MOL0     C10191   7.464   6.383   9.146 -0.4025  0.5522  0.1077
   78MOL0     C10192   7.495   6.297   9.252 -0.4859  0.6302 -0.2963
   78MOL0     C10193   7.643   6.259   9.270  0.5084  0.1691 -0.2111
   78MOL0     O10194   7.741   6.300   9.173 -0.1736  0.0457 -0.6394
   78MOL0     C10195   7.859   6.223   9.159  0.2908 -0.0517  0.7746
   78MOL0     C10196   7.881   6.084   9.181  0.7327  0.2253  0.3712
   78MOL0     C10197   7.993   6.020   9.128 -0.4342  0.5466  0.2012
   78MOL0     C10198   8.099   6.092   9.073  0.1161  0.0787  0.1243
   78MOL0     O10199   8.206   6.015   9.039 -0.0436  0.1213 -0.2675
   78MOL0     C10200   8.325   6.061   8.968  0.1010 -0.0241 -0.1872
   78MOL0     C10201   8.321   6.049   8.820  0.2873 -0.2754 -0.2780
   78MOL0     C10202   8.445   6.114   8.755  0.6324  0.2409  0.3885
   78MOL0     C10203   8.473   6.255   8.786  0.1645 -0.1157 -0.1282
   78MOL0     C10204   8.592   6.313   8.705 -0.0757  0.9570  0.5812
   78MOL0     C10205   8.736   6.263   8.744  0.6178 -0.4754 -0.5789
   78MOL0     C10206   8.835   6.284   8.636 -0.5878 -0.3918  0.3213
   78MOL0     C10207   8.967   6.216   8.663 -0.0377  0.6942 -1.4058
   78MOL0    Cl10208   9.081   6.249   8.532  0.4946  0.2318  0.0638
   78MOL0     C10209   8.084   6.229   9.047  0.1202  1.2770  0.2917
   78MOL0     C10210   7.967   6.285   9.088  0.0806  0.3089  0.1061
   78MOL0     O10211   7.675   6.208   9.372  0.4970 -0.8715 -0.0692
   78MOL0     C10212   7.404   6.254   9.340  0.6147 -0.4098 -1.0056
   78MOL0     C10213   7.268   6.304   9.322 -1.0555 -0.3115 -0.7567
   78MOL0     N10214   6.509   6.207   9.110  0.2295 -0.0845  0.7426
   78MOL0     N10215   6.459   6.095   9.078  0.3779  0.2150 -0.7502
   78MOL0     C10216   6.808   5.465   8.797  1.1179 -0.2532 -0.5787
   78MOL0     C10217   6.677   5.501   8.784 -0.1676 -0.1267 -0.0246
   78MOL0     C10218   6.316   5.700   8.592 -0.1111 -0.3939 -0.3981
   78MOL0     C10219   6.231   5.604   8.655 -0.4749 -0.7648  0.4165
   78MOL0     C10220   6.088   5.603   8.627 -0.4466  0.8507 -0.4044
   78MOL0     C10221   6.031   5.689   8.529 -0.5118  0.1304  0.4358
   78MOL0     O10222   5.895   5.672   8.503  0.1657 -0.1184  0.5864
   78MOL0     C10223   5.821   5.800   8.475  1.0047 -0.0412 -0.3537
   78MOL0     C10224   5.674   5.785   8.478  0.7009  0.4545  0.3077
   78MOL0     C10225   5.620   5.691   8.371  0.5322 -1.0706 -0.1929
   78MOL0     C10226   5.471   5.690   8.370 -0.3977 -0.7032 -0.0742
   78MOL0     C10227   5.442   5.609   8.256 -0.9556 -0.9507  0.0257
   78MOL0     C10228   5.404   5.550   8.159 -0.5926  0.3181 -1.1110
   78MOL0     C10229   6.119   5.785   8.476 -0.2915  0.5618  0.5034
   78MOL0     C10230   6.253   5.794   8.504 -0.5955  0.9629  0.6312
   78MOL0     H10231   6.745   5.815   8.646  3.6441  0.3871 -1.0481
   78MOL0     H10232   6.970   5.738   8.672 -1.1147  2.5325 -0.2254
   78MOL0     H10233   7.102   5.702   8.842 -2.4529  0.0308 -0.9452
   78MOL0     H10234   7.221   5.587   8.852 -0.2745 -3.3794  0.2486
   78MOL0     H10235   7.162   5.682   9.056  0.6283 -0.6650 -1.1368
   78MOL0     H10236   7.165   5.508   9.061  1.1063  3.5722  6.8377
   78MOL0     H10237   6.980   5.576   9.200  1.8939  0.5561 -0.2364
   78MOL0     H10238   6.908   5.516   9.055 -0.7437 -2.6592  2.8786
   78MOL0     H10239   6.935   5.805   9.143 -1.3651  2.7121 -2.9105
   78MOL0     H10240   6.887   5.747   8.983  4.9727 -1.4990 -1.3914
   78MOL0     H10241   6.757   5.695   9.269  1.0757  1.0557 -0.3755
   78MOL0     H10242   6.716   5.616   9.115  2.0460 -0.4721  1.3420
   78MOL0     H10243   6.664   5.857   9.037 -0.4548 -0.8975 -0.8752
   78MOL0     H10244   6.713   5.905   9.200  0.8664 -0.1925 -1.4644
   78MOL0     H10245   6.498   5.696   9.157  1.0888 -0.5696  0.2857
   78MOL0     H10246   6.543   5.755   9.316 -0.2470  1.2878  1.0091
   78MOL0     H10247   6.334   5.867   9.265  0.0648  3.1991  0.5503
   78MOL0     H10248   6.366   5.866   9.101  1.9209 -2.4131 -0.2872
   78MOL0     H10249   6.513   6.082   9.407 -2.2713  4.1958  1.2620
   78MOL0     H10250   6.565   6.374   9.391 -0.6885  0.8463  0.7270
   78MOL0     H10251   6.603   6.425   9.228  0.4906  1.9032  2.5707
   78MOL0     H10252   6.770   6.213   9.343 -1.2001 -0.3390 -0.9180
   78MOL0     H10253   6.774   6.384   9.420 -1.4732  2.2082 -0.1671
   78MOL0     H10254   6.869   6.256   9.171  0.3122 -1.0565  1.9492
   78MOL0     H10255   6.817   6.433   9.137  0.9594  3.6306  1.9786
   78MOL0     H10256   7.027   6.366   9.356  0.6922  0.6254 -0.1542
   78MOL0     H10257   6.965   6.517   9.312 -2.0034 -0.4373 -0.9724
   78MOL0     H10258   7.307   6.466   9.022 -1.7240 -0.9861 -0.0657
   78MOL0     H10259   7.541   6.415   9.076  0.7898  1.2164  1.6349
   78MOL0     H10260   7.808   6.011   9.213  1.1184 -1.2513 -1.9024
   78MOL0     H10261   8.014   5.916   9.152  1.8454  1.1633  1.1992
   78MOL0     H10262   8.408   6.003   9.008  1.2343  0.1196 -2.1989
   78MOL0     H10263   8.339   6.168   8.986  0.4690  0.6365 -3.6477
   78MOL0     H10264   8.233   6.108   8.792 -0.8302 -1.8116 -0.1314
   78MOL0     H10265   8.303   5.945   8.793  1.2132 -0.3675 -0.5741
   78MOL0     H10266   8.432   6.114   8.646  0.5268  2.3265  0.3654
   78MOL0     H10267   8.536   6.061   8.785  1.8189  2.0366  0.0632
   78MOL0     H10268   8.380   6.303   8.757  1.3887  2.8873  0.5955
   78MOL0     H10269   8.480   6.267   8.895 -3.6690  0.3876  0.2036
   78MOL0     H10270   8.605   6.421   8.714  3.5154  0.6183  1.1876
   78MOL0     H10271   8.591   6.279   8.601  5.8886 -2.2137  1.0889
   78MOL0     H10272   8.724   6.156   8.760 -0.9911 -0.5376 -1.9646
   78MOL0     H10273   8.775   6.310   8.835  2.9553 -1.8083 -0.8120
   78MOL0     H10274   8.790   6.242   8.545 -1.0388  3.4957 -1.4646
   78MOL0     H10275   8.847   6.391   8.613  1.3766 -0.2016  1.9219
   78MOL0     H10276   8.952   6.108   8.668 -2.8978  0.8449 -3.8017
   78MOL0     H10277   8.996   6.246   8.764 -0.1881  3.3946 -2.0954
   78MOL0     H10278   8.175   6.277   9.014  3.1345 -0.9324  4.3959
   78MOL0     H10279   7.964   6.391   9.066 -5.2606  0.1387 -1.2435
   78MOL0     H10280   7.440   6.199   9.426  0.8868 -0.7936 -1.3577
   78MOL0     H10281   7.202   6.268   9.401  0.8282  2.2520  2.2593
   78MOL0     H10282   6.832   5.367   8.837 -1.0293 -0.4890  0.2899
   78MOL0     H10283   6.600   5.431   8.817 -1.6718  1.2165 -0.5716
   78MOL0     H10284   6.278   5.529   8.718  1.3331 -1.8820 -2.0985
   78MOL0     H10285   6.017   5.540   8.680  1.3714 -2.3801 -1.5247
   78MOL0     H10286   5.842   5.833   8.373 -3.9759 -0.5209 -1.8345
   78MOL0     H10287   5.855   5.871   8.551 -2.2787  2.4650 -0.9813
   78MOL0     H10288   5.634   5.743   8.571 -1.8146  0.7572 -0.5743
   78MOL0     H10289   5.637   5.886   8.462  1.4801  0.7485  0.3432
   78MOL0     H10290   5.666   5.591   8.373  0.1578 -1.2819 -1.2123
   78MOL0     H10291   5.661   5.724   8.275  0.5222  1.1348  0.5290
   78MOL0     H10292   5.429   5.643   8.460  2.6822 -1.4832  1.0710
   78MOL0     H10293   5.433   5.791   8.351 -0.0415 -0.4269  0.6345
   78MOL0     H10294   5.354   5.497   8.080 -0.7904 -2.0836  0.5085
   78MOL0     H10295   6.074   5.859   8.410  0.3552  0.4351 -0.1008
   78MOL0     H10296   6.317   5.858   8.444  1.0844  0.6891  2.0247
   79MOL0     O10297   9.306   9.837   4.001  0.0573 -0.0132 -0.2487
   79MOL0     C10298   9.379   9.738   4.013 -0.3260  0.0118  1.1758
   79MOL0     O10299   9.363   9.636   4.088 -0.5864 -0.1313  0.2610
   79MOL0     C10300   9.241   9.611   4.140  0.2394  0.2174 -0.0983
   79MOL0     C10301   9.208   9.480   4.160  0.0887  0.1729  0.6112
   79MOL0     C10302   9.087   9.440   4.224 -0.2652 -0.1698  0.6416
   79MOL0     C10303   8.991   9.535   4.255 -0.3308 -0.4990 -0.0181
   79MOL0     O10304   8.896   9.480   4.333  0.0433 -0.2296 -0.1805
   79MOL0     C10305   8.802   9.569   4.397 -0.0914  0.1502  0.3489
   79MOL0     C10306   8.722   9.498   4.502 -0.0436  0.3178  0.7236
   79MOL0     C10307   8.628   9.399   4.439  0.4746  0.5469 -0.1187
   79MOL0     C10308   8.549   9.321   4.540 -1.0559  0.0026 -0.6617
   79MOL0     C10309   8.448   9.216   4.487 -0.2961  0.7343  0.6257
   79MOL0     C10310   8.513   9.108   4.409 -0.1426  0.6086  0.0180
   79MOL0     C10311   8.431   8.981   4.404  0.2712  0.0998 -0.1393
   79MOL0     C10312   8.501   8.860   4.350  0.5921  0.6060 -0.4345
   79MOL0     N10313   8.385   8.766   4.298 -0.0729 -0.4000 -0.2301
   79MOL0     C10314   8.423   8.666   4.213  1.1539 -0.4330  0.5999
   79MOL0     C10315   8.303   8.603   4.180  0.2180 -0.8159 -0.7779
   79MOL0     C10316   8.293   8.503   4.069 -0.4227  0.2538 -0.2940
   79MOL0     C10317   8.293   8.549   3.933 -0.1431 -0.4491  0.5690
   79MOL0     C10318   8.291   8.428   3.836 -0.3719 -0.1710  0.9556
   79MOL0     C10319   8.298   8.472   3.694  0.4094  0.0849  0.6400
   79MOL0     O10320   8.409   8.559   3.668 -0.6207  0.4102  0.6776
   79MOL0     C10321   8.433   8.633   3.552  0.1431 -0.7411  0.4229
   79MOL0     C10322   8.353   8.614   3.438 -1.1253 -0.0257  0.7490
   79MOL0     C10323   8.354   8.689   3.325 -0.5826  0.0858  0.4764
   79MOL0     C10324   8.448   8.798   3.319 -0.0881  0.3604 -0.7598
   79MOL0     C10325   8.465   8.868   3.199 -0.3351 -0.1315 -0.9172
   79MOL0     O10326   8.524   8.993   3.209 -1.3317  0.1549 -0.0790
   79MOL0     C10327   8.521   9.084   3.108 -0.1341 -0.9884 -0.0323
   79MOL0     C10328   8.435   9.083   2.996 -0.4163  0.2082 -0.1459
   79MOL0     C10329   8.434   9.187   2.908 -0.2414 -0.7849 -0.1298
   79MOL0     C10330   8.529   9.293   2.924 -0.0766  1.7436 -0.5763
   79MOL0     O10331   8.523   9.387   2.824  0.1570 -0.0934  0.1806
   79MOL0     C10332   8.586   9.520   2.823  0.1089  0.5220 -0.1524
   79MOL0     C10333   8.524   9.602   2.938  1.4449  0.5056  0.7115
   79MOL0     C10334   8.561   9.748   2.928 -0.3046 -0.8782  0.5994
   79MOL0     C10335   8.479   9.845   3.019 -0.0137  0.2927  0.0877
   79MOL0     C10336   8.562   9.957   3.073  1.0656  0.0232 -0.2589
   79MOL0     C10337   8.666   9.918   3.176 -0.4503  0.1879  0.5182
   79MOL0     C10338   8.729  10.046   3.223 -0.2249  0.3182  0.1608
   79MOL0     C10339   8.841  10.022   3.308 -0.2338 -0.2708  0.1329
   79MOL0    Cl10340   8.790   9.934   3.454 -0.1328  0.1836 -0.3312
   79MOL0     C10341   8.615   9.295   3.037 -0.3247  0.6874 -0.3850
   79MOL0     C10342   8.609   9.195   3.129 -0.5477 -0.6821 -0.5313
   79MOL0     O10343   8.411   8.827   3.097  0.1633  0.1031 -0.1375
   79MOL0     C10344   8.522   8.827   3.431 -0.5289 -0.9246  0.2600
   79MOL0     C10345   8.513   8.748   3.549 -0.7399 -0.6606  0.6596
   79MOL0     N10346   8.197   8.666   4.256 -0.5006 -0.1300 -0.2890
   79MOL0     N10347   8.253   8.756   4.331 -0.0625  0.2954 -0.2922
   79MOL0     C10348   9.022   9.675   4.239 -0.2979  0.0788 -0.6975
   79MOL0     C10349   9.145   9.708   4.189  0.1550 -0.1296  0.1842
   79MOL0     C10350   9.510   9.753   3.956  1.0607 -0.4660  0.0200
   79MOL0     C10351   9.533   9.857   3.860  1.0862  0.2853 -0.0452
   79MOL0     C10352   9.652   9.865   3.789  0.3965  0.7753 -0.1052
   79MOL0     C10353   9.761   9.769   3.816  0.6797 -0.3287 -0.3228
   79MOL0     O10354   9.891   9.778   3.786 -0.0470 -0.7256  0.3963
   79MOL0     C10355   9.925   9.894   3.718  0.1696  0.2191  0.1526
   79MOL0     C10356   9.883   9.907   3.568 -0.0514  0.7218  0.5806
   79MOL0     C10357   9.906  10.044   3.524  0.1613  0.4370 -0.8444
   79MOL0     C10358   9.907  10.033   3.373 -0.1492 -0.6366  0.2040
   79MOL0     C10359  10.036  10.008   3.320 -0.4296 -1.3460 -0.1138
   79MOL0     C10360  10.131   9.967   3.259  0.0048 -1.7364 -0.0730
   79MOL0     C10361   9.730   9.656   3.895  1.5696 -0.6998 -0.2687
   79MOL0     C10362   9.612   9.654   3.969 -0.9218  0.1777  0.1608
   79MOL0     H10363   9.286   9.407   4.140  0.7737  0.3551  2.4462
   79MOL0     H10364   9.074   9.338   4.258  0.5907 -0.3602  0.4213
   79MOL0     H10365   8.747   9.623   4.319  3.4184  2.3517 -0.8541
   79MOL0     H10366   8.846   9.654   4.450 -2.6488  1.4821  0.5077
   79MOL0     H10367   8.658   9.571   4.551 -0.6801  1.5975 -1.8283
   79MOL0     H10368   8.791   9.447   4.570  0.0913  0.1290  0.4465
   79MOL0     H10369   8.672   9.322   4.374  0.1779  0.7986 -0.6164
   79MOL0     H10370   8.559   9.453   4.375 -1.8462 -0.4158  1.4518
   79MOL0     H10371   8.612   9.271   4.615 -0.2950 -0.8143 -1.8034
   79MOL0     H10372   8.492   9.397   4.594 -0.2148  0.8988 -0.9986
   79MOL0     H10373   8.371   9.264   4.427  0.3412  0.1039 -0.7323
   79MOL0     H10374   8.395   9.184   4.578 -2.4497  2.4129  0.0394
   79MOL0     H10375   8.610   9.079   4.452  0.8302  2.6177 -0.6987
   79MOL0     H10376   8.543   9.135   4.308  3.2180  0.8981  0.9558
   79MOL0     H10377   8.407   8.967   4.509 -1.1736 -0.6385 -0.5424
   79MOL0     H10378   8.339   9.008   4.351  0.7448  3.9695  0.6602
   79MOL0     H10379   8.565   8.834   4.435  0.1823  0.0308 -0.3023
   79MOL0     H10380   8.572   8.889   4.271  1.3654  2.4807  0.8774
   79MOL0     H10381   8.525   8.644   4.183  1.2810  0.5349  0.2572
   79MOL0     H10382   8.205   8.441   4.091  0.2733 -0.2627  1.1440
   79MOL0     H10383   8.382   8.441   4.079  1.3239  2.2578 -2.3188
   79MOL0     H10384   8.386   8.606   3.921  0.7775 -1.8061  1.0740
   79MOL0     H10385   8.203   8.604   3.904  0.4931 -0.4803 -1.6445
   79MOL0     H10386   8.379   8.365   3.849 -0.7961 -1.0831 -0.3705
   79MOL0     H10387   8.209   8.357   3.852  1.2186 -2.4707 -0.4283
   79MOL0     H10388   8.208   8.519   3.655  0.2358 -2.1224 -1.9187
   79MOL0     H10389   8.305   8.377   3.639 -2.5127 -0.4366  1.0075
   79MOL0     H10390   8.272   8.543   3.454 -1.9536  1.0293  1.2979
   79MOL0     H10391   8.285   8.671   3.244 -0.1074  0.5910 -0.0525
   79MOL0     H10392   8.364   9.003   2.977  1.6121 -2.5767  2.7910
   79MOL0     H10393   8.373   9.162   2.822  0.6259 -0.5967 -0.8208
   79MOL0     H10394   8.591   9.574   2.728  2.2970  1.2633  0.3194
   79MOL0     H10395   8.692   9.492   2.831 -0.1935 -1.4618 -1.9309
   79MOL0     H10396   8.538   9.564   3.040 -0.4976  1.2087  1.2787
   79MOL0     H10397   8.417   9.593   2.922  1.8330 -1.2519 -1.4732
   79MOL0     H10398   8.562   9.775   2.822  0.0327 -3.4818 -0.1447
   79MOL0     H10399   8.666   9.747   2.957  0.0222 -3.4104 -0.3706
   79MOL0     H10400   8.400   9.892   2.959  1.4970  1.4228 -1.0974
   79MOL0     H10401   8.435   9.788   3.102  0.3650  1.3341  1.0381
   79MOL0     H10402   8.486  10.008   3.133 -0.0720  0.6767 -2.1563
   79MOL0     H10403   8.596  10.023   2.993 -0.0909  1.9435  0.7716
   79MOL0     H10404   8.723   9.832   3.142 -0.1199  0.3905  0.5494
   79MOL0     H10405   8.620   9.878   3.267 -1.3790 -1.3253 -0.5816
   79MOL0     H10406   8.760  10.101   3.133 -0.9765  1.0014  0.3114
   79MOL0     H10407   8.655  10.108   3.273  0.7644  0.0024  2.1161
   79MOL0     H10408   8.890  10.114   3.340 -0.5054  0.2861 -0.9864
   79MOL0     H10409   8.922   9.964   3.262 -0.0336  0.1769 -0.0821
   79MOL0     H10410   8.685   9.377   3.050 -0.3225  0.5498  0.5516
   79MOL0     H10411   8.671   9.194   3.218  4.5069 -1.9483 -3.6746
   79MOL0     H10412   8.585   8.916   3.436 -1.9878  0.2249 -1.0064
   79MOL0     H10413   8.569   8.788   3.633 -0.9429  1.0420  0.0188
   79MOL0     H10414   8.948   9.748   4.269 -0.6448 -0.4442 -0.2637
   79MOL0     H10415   9.181   9.811   4.195  0.4747 -0.3040  1.6469
   79MOL0     H10416   9.454   9.926   3.831 -1.1701 -2.8049 -1.9144
   79MOL0     H10417   9.671   9.948   3.721  0.2476  0.5860 -0.3771
   79MOL0     H10418  10.034   9.900   3.709  0.1473  1.4277  0.5187
   79MOL0     H10419   9.886   9.983   3.769 -0.6520  0.3864 -0.7403
   79MOL0     H10420   9.929   9.841   3.494 -2.0036  0.4405 -0.4619
   79MOL0     H10421   9.775   9.888   3.561 -0.1414  1.5929 -0.6236
   79MOL0     H10422  10.001  10.087   3.557 -0.8513  0.7589  1.8897
   79MOL0     H10423   9.819  10.101   3.559 -2.2186 -3.1089 -0.4212
   79MOL0     H10424   9.833   9.959   3.343 -0.5040 -0.9879  1.8564
   79MOL0     H10425   9.878  10.134   3.341 -0.4352  0.4008  3.3970
   79MOL0     H10426  10.213   9.931   3.199  1.2948 -1.4558  1.4406
   79MOL0     H10427   9.807   9.586   3.925  0.6865 -2.0905 -1.1510
   79MOL0     H10428   9.611   9.579   4.046  1.6347  0.2212  0.3437
   80MOL0     O10429   8.618   1.921   7.826 -0.3860 -0.5886  0.7305
   80MOL0     C10430   8.716   1.864   7.873  0.7116  0.0917 -1.2200
   80MOL0     O10431   8.721   1.781   7.987 -0.0682  0.7205  0.0193
   80MOL0     C10432   8.598   1.762   8.059  0.6688 -0.3495 -0.5663
   80MOL0     C10433   8.620   1.733   8.194 -0.0830 -0.0803 -0.4830
   80MOL0     C10434   8.516   1.708   8.288  0.7502  0.7261 -0.1153
   80MOL0     C10435   8.383   1.708   8.242  0.0485  0.1361 -0.2092
   80MOL0     O10436   8.273   1.684   8.315 -0.3694  0.2488 -0.8904
   80MOL0     C10437   8.270   1.557   8.372 -0.6802 -0.5097  0.2340
   80MOL0     C10438   8.135   1.545   8.443  0.2259 -0.6372  0.0742
   80MOL0     C10439   8.116   1.417   8.520 -0.1937  0.2240 -0.3940
   80MOL0     C10440   8.234   1.372   8.609 -0.0782  0.1743  0.6686
   80MOL0     C10441   8.195   1.262   8.696 -0.0241  0.3291  0.0151
   80MOL0     C10442   8.288   1.242   8.825  0.3463 -0.2314 -0.0840
   80MOL0     C10443   8.240   1.142   8.931  0.5276 -0.1708  0.6672
   80MOL0     C10444   8.283   0.996   8.902  0.2176 -0.8366  0.3035
   80MOL0     N10445   8.270   0.901   9.010  0.1235  0.7684  0.2448
   80MOL0     C10446   8.175   0.909   9.110 -0.4676 -0.1083  0.2199
   80MOL0     C10447   8.215   0.824   9.207  0.2084 -0.3254  0.8587
   80MOL0     C10448   8.139   0.783   9.330  0.1308  0.0448  0.0936
   80MOL0     C10449   7.991   0.767   9.311  0.3886 -0.7669  1.0086
   80MOL0     C10450   7.926   0.667   9.415 -0.6591  0.0747 -0.3280
   80MOL0     C10451   7.772   0.671   9.400 -0.0984  0.6728  0.0543
   80MOL0     O10452   7.711   0.579   9.494 -0.3897  0.3456  0.0466
   80MOL0     C10453   7.577   0.577   9.521  0.8048 -0.2347  1.1648
   80MOL0     C10454   7.522   0.485   9.613 -0.3239 -0.7283 -0.9005
   80MOL0     C10455   7.388   0.460   9.631  0.7349  0.7186  0.9726
   80MOL0     C10456   7.298   0.538   9.553 -0.3327  0.3565  0.8057
   80MOL0     C10457   7.145   0.527   9.563 -0.5115 -0.1607  0.2986
   80MOL0     O10458   7.104   0.479   9.685  0.2922 -0.5908  0.6545
   80MOL0     C10459   6.969   0.435   9.713 -0.6883 -0.8364  0.1067
   80MOL0     C10460   6.945   0.424   9.857  0.6374  0.0415 -0.0296
   80MOL0     C10461   6.820   0.406   9.903  0.2936  0.4521  0.1517
   80MOL0     C10462   6.721   0.373   9.817  0.3692 -0.5378  0.0462
   80MOL0     O10463   6.596   0.342   9.864  0.0124 -0.2656 -0.1721
   80MOL0     C10464   6.554   0.368   9.999  1.4768 -0.1686 -0.7710
   80MOL0     C10465   6.404   0.332  10.027  0.1205 -0.1482 -0.2870
   80MOL0     C10466   6.391   0.177  10.027  0.1943  0.3498 -0.2149
   80MOL0     C10467   6.427   0.110  10.157 -0.3195 -0.4333 -0.2365
   80MOL0     C10468   6.559   0.023  10.152  0.2026  0.9967  0.5275
   80MOL0     C10469   6.628   0.013  10.295 -0.0510  0.9611  0.1483
   80MOL0     C10470   6.726   0.130  10.313  0.5868  0.4183  0.4152
   80MOL0     C10471   6.811   0.110  10.435  0.2307  0.0302 -0.0869
   80MOL0    Cl10472   6.938  -0.011  10.395 -0.0847 -0.1472 -0.0708
   80MOL0     C10473   6.736   0.371   9.675  0.7885  0.0079 -0.4500
   80MOL0     C10474   6.864   0.405   9.625  0.1940 -0.2174 -0.6625
   80MOL0     O10475   7.073   0.568   9.468 -0.2669  0.1147 -0.4941
   80MOL0     C10476   7.351   0.641   9.472  0.1911  0.3128 -0.4665
   80MOL0     C10477   7.488   0.651   9.455 -0.2085  0.8378 -0.8634
   80MOL0     N10478   8.323   0.756   9.155 -0.2404 -0.9323  0.6476
   80MOL0     N10479   8.369   0.814   9.050  0.1757 -0.1710 -0.5234
   80MOL0     C10480   8.360   1.748   8.103 -0.4844  0.7306  0.3321
   80MOL0     C10481   8.472   1.765   8.007  0.1637  0.2745  0.4077
   80MOL0     C10482   8.848   1.871   7.803  0.2994  1.0217 -0.7081
   80MOL0     C10483   8.875   1.939   7.686 -0.5748 -0.7783 -0.2852
   80MOL0     C10484   8.998   1.943   7.622  0.6260 -0.3021 -0.2984
   80MOL0     C10485   9.096   1.852   7.655 -0.4460 -1.0302 -0.6645
   80MOL0     O10486   9.216   1.863   7.583  0.0964  0.5699 -0.2604
   80MOL0     C10487   9.332   1.790   7.635  0.3558  0.0746 -0.4058
   80MOL0     C10488   9.467   1.858   7.602  0.5767 -0.2665 -0.5146
   80MOL0     C10489   9.490   1.815   7.459 -0.4145  0.6473 -0.0151
   80MOL0     C10490   9.618   1.871   7.405  0.2139  0.6208 -1.3421
   80MOL0     C10491   9.662   1.811   7.284 -0.5114  0.7497 -0.5783
   80MOL0     C10492   9.684   1.777   7.171  0.0178 -0.0082  0.7754
   80MOL0     C10493   9.072   1.772   7.775 -0.6573 -0.5545  0.4596
   80MOL0     C10494   8.956   1.790   7.852 -0.4318  0.5118 -0.1197
   80MOL0     H10495   8.721   1.724   8.232 -0.5063 -1.3950  0.4050
   80MOL0     H10496   8.525   1.683   8.393  2.1020 -1.1711 -0.6397
   80MOL0     H10497   8.349   1.538   8.445  2.3218  3.7377 -1.5053
   80MOL0     H10498   8.266   1.490   8.286 -3.7256 -0.6088  0.3411
   80MOL0     H10499   8.063   1.562   8.363 -0.6042 -0.0006  0.9318
   80MOL0     H10500   8.122   1.632   8.508  0.1478  0.8023 -1.7784
   80MOL0     H10501   8.100   1.330   8.456  3.4855  0.2747 -1.6153
   80MOL0     H10502   8.021   1.418   8.575 -1.1909  1.1066 -2.0660
   80MOL0     H10503   8.322   1.341   8.551  0.0775  0.7988  0.5613
   80MOL0     H10504   8.268   1.457   8.669  0.1698  1.1311 -0.7808
   80MOL0     H10505   8.211   1.172   8.636  2.5773  1.1160 -0.5985
   80MOL0     H10506   8.088   1.264   8.716  0.1820 -2.4411  1.9059
   80MOL0     H10507   8.301   1.342   8.868  0.8896  1.3803 -3.6105
   80MOL0     H10508   8.392   1.212   8.806  0.2000 -1.4713  0.9303
   80MOL0     H10509   8.286   1.172   9.025 -0.8154 -0.1482  1.3406
   80MOL0     H10510   8.131   1.148   8.926  0.2275 -3.5740  0.6627
   80MOL0     H10511   8.384   0.999   8.859 -1.6256 -0.7860 -4.7084
   80MOL0     H10512   8.213   0.975   8.821 -0.4945 -0.2102  0.7458
   80MOL0     H10513   8.082   0.965   9.111 -0.9083 -0.7759  2.4287
   80MOL0     H10514   8.153   0.855   9.411  1.9627 -2.2939  2.0080
   80MOL0     H10515   8.194   0.693   9.359  0.2106 -0.4557 -1.4915
   80MOL0     H10516   7.969   0.736   9.209  0.0823  4.3637 -0.7777
   80MOL0     H10517   7.940   0.864   9.304  1.2164 -0.4608 -4.5387
   80MOL0     H10518   7.958   0.563   9.402  2.3743  0.6332  1.5238
   80MOL0     H10519   7.948   0.704   9.515 -0.7364 -1.2768  0.1980
   80MOL0     H10520   7.739   0.636   9.302  1.7635  0.4109 -0.5266
   80MOL0     H10521   7.745   0.776   9.411 -1.0467  0.4395  0.0263
   80MOL0     H10522   7.598   0.442   9.677  0.4106  1.0461 -0.5377
   80MOL0     H10523   7.343   0.386   9.696 -0.2541 -1.2465 -1.7158
   80MOL0     H10524   7.016   0.444   9.937  3.2524  0.9699 -2.3830
   80MOL0     H10525   6.790   0.416  10.007  0.5332 -2.9123  0.6449
   80MOL0     H10526   6.563   0.476  10.016  1.8586 -0.3427  0.2480
   80MOL0     H10527   6.612   0.322  10.080 -0.5209  0.4186  1.0829
   80MOL0     H10528   6.342   0.361   9.943 -2.8703 -2.7900  0.8043
   80MOL0     H10529   6.364   0.371  10.121 -1.2139  0.2435 -0.9992
   80MOL0     H10530   6.438   0.129   9.941 -2.1148  3.0831 -3.3004
   80MOL0     H10531   6.283   0.160  10.014 -0.0985  1.7211  0.1940
   80MOL0     H10532   6.424   0.183  10.239 -0.1282 -1.1827  0.4448
   80MOL0     H10533   6.340   0.047  10.179 -0.4438 -0.6882 -1.3697
   80MOL0     H10534   6.626   0.068  10.079 -2.0063 -0.5629 -2.6949
   80MOL0     H10535   6.543  -0.079  10.114  1.0134 -0.0449  2.8257
   80MOL0     H10536   6.686  -0.079  10.286  1.8690  2.1307 -0.0996
   80MOL0     H10537   6.558   0.003  10.378 -1.2607  0.6982 -0.8785
   80MOL0     H10538   6.791   0.146  10.226  2.2183 -1.3722  1.2363
   80MOL0     H10539   6.673   0.225  10.323  2.2697  2.0755 -3.8141
   80MOL0     H10540   6.770   0.091  10.535 -1.2998 -0.8090 -0.8463
   80MOL0     H10541   6.867   0.204  10.442  1.5988 -0.8500  1.8897
   80MOL0     H10542   6.654   0.348   9.607 -1.1147 -2.0051  2.2964
   80MOL0     H10543   6.882   0.423   9.520 -0.1704  4.0570 -0.1401
   80MOL0     H10544   7.285   0.717   9.433  0.3166  1.4740  1.4153
   80MOL0     H10545   7.519   0.739   9.399 -3.1014  0.0936 -3.9200
   80MOL0     H10546   8.257   1.743   8.068  0.5516  4.2731 -4.2549
   80MOL0     H10547   8.450   1.779   7.901  0.6603 -0.8682  0.1326
   80MOL0     H10548   8.810   2.009   7.634  0.0092  0.1485  0.1870
   80MOL0     H10549   9.022   2.000   7.532  3.1993  2.3465  1.8890
   80MOL0     H10550   9.328   1.685   7.601  0.5504  0.7123 -2.5610
   80MOL0     H10551   9.325   1.772   7.742 -0.0551 -0.8537 -0.5717
   80MOL0     H10552   9.449   1.966   7.606 -0.2345 -0.4275  1.3457
   80MOL0     H10553   9.541   1.821   7.674 -0.3926 -1.8275 -0.2648
   80MOL0     H10554   9.407   1.846   7.395  0.0097  2.1463  0.1197
   80MOL0     H10555   9.498   1.706   7.464 -3.5731  0.3870  1.3724
   80MOL0     H10556   9.589   1.974   7.384 -0.5115  0.7719  0.2985
   80MOL0     H10557   9.699   1.861   7.478 -2.3940  1.1026  1.8205
   80MOL0     H10558   9.685   1.718   7.082  4.1491  0.2288  0.4462
   80MOL0     H10559   9.144   1.705   7.821  1.1554  1.3035  0.5269
   80MOL0     H10560   8.950   1.742   7.950 -2.7326 -1.6172 -1.1929
   81MOL0     O10561   5.410   6.316   0.322 -0.9863 -0.2219 -0.2607
   81MOL0     C10562   5.490   6.401   0.301  0.8758  0.6328  1.3398
   81MOL0     O10563   5.457   6.543   0.289 -0.1594 -0.5714  0.2844
   81MOL0     C10564   5.323   6.578   0.322 -0.2528 -0.0788  0.2801
   81MOL0     C10565   5.304   6.675   0.422  0.3065  0.3069  0.6506
   81MOL0     C10566   5.174   6.722   0.452 -0.1428  1.2889 -0.0797
   81MOL0     C10567   5.067   6.653   0.396  0.4072 -0.1925 -0.3066
   81MOL0     O10568   4.934   6.678   0.421  0.6723  0.3182 -0.3916
   81MOL0     C10569   4.908   6.722   0.553  0.3437  0.8030 -0.2623
   81MOL0     C10570   4.753   6.716   0.550 -0.1867  0.6660 -0.3302
   81MOL0     C10571   4.690   6.731   0.688 -0.8909  0.5050  0.0579
   81MOL0     C10572   4.742   6.869   0.751 -0.1455  0.3863 -0.6672
   81MOL0     C10573   4.661   6.929   0.864  0.4141  0.1390  0.0361
   81MOL0     C10574   4.645   6.841   0.985  0.2470 -0.2600 -0.5847
   81MOL0     C10575   4.522   6.887   1.065  0.0413 -1.2641 -0.3532
   81MOL0     C10576   4.547   6.850   1.215 -0.2551  0.1406 -0.1113
   81MOL0     N10577   4.428   6.877   1.284 -0.5141  0.4958 -0.1873
   81MOL0     C10578   4.393   6.995   1.352  0.1894 -0.4534  0.3174
   81MOL0     C10579   4.268   6.973   1.407 -0.3769  0.0617  0.0638
   81MOL0     C10580   4.195   7.065   1.520  0.2557 -0.4974 -1.0827
   81MOL0     C10581   4.277   7.042   1.649 -0.6725  1.2657  0.1437
   81MOL0     C10582   4.193   7.036   1.772  0.0825 -0.1936  0.6253
   81MOL0     C10583   4.231   7.148   1.868  0.0295 -0.0715  0.0689
   81MOL0     O10584   4.203   7.105   2.000  1.2125 -0.5774  0.4435
   81MOL0     C10585   4.069   7.094   2.032 -1.0810 -0.1551  0.0831
   81MOL0     C10586   4.027   6.967   2.062  0.6590 -0.2734 -0.1175
   81MOL0     C10587   3.906   6.947   2.115  0.7103  0.1000 -0.0677
   81MOL0     C10588   3.815   7.057   2.114  0.0856 -0.2587 -0.8591
   81MOL0     C10589   3.673   7.045   2.142 -1.1116  0.0873  0.4411
   81MOL0     O10590   3.577   7.136   2.091 -1.1189  0.2143 -0.4972
   81MOL0     C10591   3.453   7.115   2.135  0.0956  0.5140  0.0509
   81MOL0     C10592   3.389   7.206   2.228 -0.8844  0.9110 -0.5514
   81MOL0     C10593   3.259   7.178   2.271  0.3138 -0.8925 -0.4402
   81MOL0     C10594   3.203   7.050   2.240  0.4854 -0.2090  0.0280
   81MOL0     O10595   3.086   7.007   2.298 -0.4037 -0.4510 -0.0994
   81MOL0     C10596   3.099   6.989   2.447  0.3333  0.2276  0.7717
   81MOL0     C10597   2.977   6.908   2.490 -0.7270 -0.3222 -0.2120
   81MOL0     C10598   3.005   6.767   2.447 -0.5019  0.9644 -0.4553
   81MOL0     C10599   2.897   6.665   2.486  0.6611  0.1351 -0.6548
   81MOL0     C10600   2.926   6.523   2.442 -0.5667  0.4759  0.4018
   81MOL0     C10601   2.904   6.507   2.292  1.2883 -0.4883  0.4616
   81MOL0     C10602   2.897   6.356   2.242  0.9212 -0.3996  1.0618
   81MOL0     C10603   2.911   6.359   2.094  0.8017  0.4874  0.1097
   81MOL0    Cl10604   3.090   6.366   2.044 -0.1239 -0.1311 -0.0249
   81MOL0     C10605   3.264   6.961   2.145 -0.0909  0.8013  0.3008
   81MOL0     C10606   3.382   7.000   2.083  0.6993 -0.2859 -0.7604
   81MOL0     O10607   3.645   6.947   2.209  0.7201  1.0893 -0.1877
   81MOL0     C10608   3.857   7.182   2.066 -0.1947  0.0295  0.3294
   81MOL0     C10609   3.986   7.203   2.026 -0.5475 -0.6840 -0.4952
   81MOL0     N10610   4.223   6.846   1.366 -0.2899  0.0123  0.5828
   81MOL0     N10611   4.316   6.789   1.302 -0.1451 -0.0539 -0.3533
   81MOL0     C10612   5.087   6.559   0.291  0.2149  0.0030  0.3635
   81MOL0     C10613   5.217   6.517   0.252 -0.9019  0.4950 -0.3405
   81MOL0     C10614   5.624   6.366   0.248  0.2321 -0.0379  0.3504
   81MOL0     C10615   5.664   6.240   0.215 -0.1411 -0.7871  1.1728
   81MOL0     C10616   5.795   6.211   0.168  0.5517 -0.3593  0.5680
   81MOL0     C10617   5.891   6.306   0.149 -0.8911  0.0920 -0.6308
   81MOL0     O10618   6.019   6.267   0.121 -0.2299 -0.1637  0.1457
   81MOL0     C10619   6.139   6.344   0.150  0.3522  0.1974  0.5317
   81MOL0     C10620   6.256   6.251   0.178  0.2406 -0.0164  0.1455
   81MOL0     C10621   6.388   6.321   0.212  0.3713 -0.0394  0.1403
   81MOL0     C10622   6.495   6.239   0.275 -0.5563  1.0784 -0.7337
   81MOL0     C10623   6.569   6.149   0.178  0.5868 -0.0655 -0.5067
   81MOL0     C10624   6.628   6.071   0.100  0.2363  0.8221  0.2870
   81MOL0     C10625   5.841   6.441   0.163 -0.5785  0.2198 -0.2030
   81MOL0     C10626   5.720   6.469   0.221 -0.2625  0.4810 -0.1945
   81MOL0     H10627   5.388   6.726   0.468  0.9193  0.6517 -0.7967
   81MOL0     H10628   5.158   6.808   0.517  2.6759  0.1161  2.3915
   81MOL0     H10629   4.954   6.820   0.568  2.2099 -0.0651 -0.0618
   81MOL0     H10630   4.959   6.650   0.618  1.4366 -0.7227 -2.6385
   81MOL0     H10631   4.733   6.615   0.513  3.1872  0.6606 -2.5280
   81MOL0     H10632   4.719   6.796   0.483  3.8753  0.3362 -3.1193
   81MOL0     H10633   4.734   6.652   0.749  2.2374  1.9240 -0.1345
   81MOL0     H10634   4.581   6.731   0.697 -1.1474  0.0656 -2.4134
   81MOL0     H10635   4.830   6.858   0.815 -3.0697 -2.8127  3.3870
   81MOL0     H10636   4.747   6.939   0.668  2.6605 -0.2705 -1.1469
   81MOL0     H10637   4.556   6.945   0.838  0.2313  0.5682  0.9977
   81MOL0     H10638   4.707   7.027   0.884  0.8791  0.1573 -1.0315
   81MOL0     H10639   4.734   6.819   1.045  1.5669 -3.1548 -3.3097
   81MOL0     H10640   4.601   6.746   0.955 -1.9533  1.2834 -2.5888
   81MOL0     H10641   4.524   6.996   1.053  1.7615 -1.2769 -0.3836
   81MOL0     H10642   4.425   6.855   1.025  0.1172  0.2818 -1.8780
   81MOL0     H10643   4.621   6.916   1.262 -0.1835 -0.6749  0.9778
   81MOL0     H10644   4.584   6.747   1.221  2.9813  1.1291 -0.8968
   81MOL0     H10645   4.460   7.071   1.389 -0.4163 -0.5325  1.6589
   81MOL0     H10646   4.090   7.036   1.529  0.8202 -2.4120 -0.2726
   81MOL0     H10647   4.187   7.170   1.491  0.0117  1.7250  5.4053
   81MOL0     H10648   4.361   7.112   1.647 -1.4983  2.3197 -2.6775
   81MOL0     H10649   4.324   6.944   1.640  1.1697  2.3286 -4.3069
   81MOL0     H10650   4.090   7.061   1.744 -0.0598 -1.3324  0.0597
   81MOL0     H10651   4.175   6.932   1.799 -0.9038 -0.1508  0.1748
   81MOL0     H10652   4.178   7.242   1.852  2.8818  1.9170  1.4005
   81MOL0     H10653   4.338   7.157   1.847  0.6084 -4.1270  0.3885
   81MOL0     H10654   4.108   6.901   2.033  0.5277  1.2540 -4.8574
   81MOL0     H10655   3.882   6.847   2.150 -3.5624  0.7172 -0.6631
   81MOL0     H10656   3.451   7.284   2.271  1.6244 -0.0710 -2.1951
   81MOL0     H10657   3.212   7.235   2.350  0.3018  0.6991 -1.5593
   81MOL0     H10658   3.092   7.086   2.498 -4.1582  1.9069 -2.4615
   81MOL0     H10659   3.193   6.936   2.465  0.1386 -0.7838 -0.9802
   81MOL0     H10660   2.888   6.959   2.451  0.2536  0.1593 -1.9327
   81MOL0     H10661   2.973   6.915   2.599 -0.8706  1.1149 -0.2853
   81MOL0     H10662   3.101   6.742   2.492  0.3678  0.8714 -2.2972
   81MOL0     H10663   3.034   6.767   2.342  2.7818 -1.1151  0.3100
   81MOL0     H10664   2.891   6.667   2.595  4.3770  0.4520 -0.3471
   81MOL0     H10665   2.800   6.697   2.446  0.5450  2.4887  1.2361
   81MOL0     H10666   2.862   6.454   2.497  1.9015 -1.4886  1.0034
   81MOL0     H10667   3.023   6.489   2.479 -1.0029 -2.4648 -0.8800
   81MOL0     H10668   2.982   6.556   2.234 -2.8589  3.3159 -2.4882
   81MOL0     H10669   2.813   6.558   2.259  1.9970 -0.7895 -2.1633
   81MOL0     H10670   2.977   6.302   2.293 -0.2420 -0.5648  2.8216
   81MOL0     H10671   2.796   6.324   2.269 -0.8446  3.4609 -0.2219
   81MOL0     H10672   2.858   6.439   2.041 -0.5657 -0.9245 -0.7315
   81MOL0     H10673   2.870   6.268   2.050  1.9331 -0.9984  1.9748
   81MOL0     H10674   3.209   6.875   2.107  2.2977  0.2923 -2.3611
   81MOL0     H10675   3.423   6.933   2.009  2.1295  0.6600 -0.8557
   81MOL0     H10676   3.780   7.258   2.068  1.7408  2.0890  3.3840
   81MOL0     H10677   4.032   7.295   1.992 -1.8438  0.8331  1.6236
   81MOL0     H10678   5.005   6.516   0.234 -0.5751  2.0903 -0.1891
   81MOL0     H10679   5.235   6.440   0.178 -0.5977  0.6921 -0.4736
   81MOL0     H10680   5.596   6.156   0.220  1.4101 -2.0635  1.6888
   81MOL0     H10681   5.817   6.107   0.148 -0.1722 -0.3922 -0.1030
   81MOL0     H10682   6.126   6.405   0.240  2.1475  0.3829  0.6919
   81MOL0     H10683   6.155   6.419   0.072 -2.2413 -0.4353 -0.7409
   81MOL0     H10684   6.226   6.208   0.274 -0.0327 -1.4023 -0.5367
   81MOL0     H10685   6.269   6.164   0.113  1.8794 -0.4132  0.9523
   81MOL0     H10686   6.368   6.400   0.285 -0.0109  2.3921 -2.4389
   81MOL0     H10687   6.419   6.378   0.124 -1.8733  1.7222  0.4017
   81MOL0     H10688   6.572   6.303   0.319  0.6865 -0.2063 -0.9899
   81MOL0     H10689   6.456   6.183   0.361 -1.8742  0.9745 -1.3862
   81MOL0     H10690   6.676   6.008   0.028  0.3794  1.4286 -0.1559
   81MOL0     H10691   5.906   6.526   0.142  0.5468 -0.8398 -1.1874
   81MOL0     H10692   5.694   6.571   0.246  1.5056  0.7504  0.6383
   82MOL0     O10693   5.843   7.872   6.390 -0.5661  0.0719  0.1711
   82MOL0     C10694   5.754   7.810   6.339 -0.3867 -0.0519 -1.1803
   82MOL0     O10695   5.741   7.678   6.346 -0.2004 -0.3827 -0.1863
   82MOL0     C10696   5.826   7.609   6.429 -0.0131  0.7449  1.6866
   82MOL0     C10697   5.863   7.485   6.378 -0.4702  0.1187 -0.2234
   82MOL0     C10698   5.944   7.402   6.456 -0.3912  0.0974 -0.2283
   82MOL0     C10699   5.997   7.440   6.586 -1.1915  0.0241  0.8642
   82MOL0     O10700   6.106   7.377   6.654  0.1519  0.3093 -0.1883
   82MOL0     C10701   6.198   7.304   6.565 -0.2953  0.9484 -0.3377
   82MOL0     C10702   6.327   7.255   6.644  0.4506  0.3043 -0.0141
   82MOL0     C10703   6.404   7.150   6.570  0.3530 -0.3795  0.1324
   82MOL0     C10704   6.498   7.087   6.668  0.3583  0.2147  0.1272
   82MOL0     C10705   6.579   6.985   6.588  0.4990 -0.4309  0.9494
   82MOL0     C10706   6.710   6.958   6.661 -0.8558  0.0124  1.0536
   82MOL0     C10707   6.689   6.912   6.809 -0.1133  0.8745 -0.7994
   82MOL0     C10708   6.814   6.839   6.852  0.2159 -0.1949 -0.9475
   82MOL0     N10709   6.841   6.856   6.994  0.5184  0.1576  0.1521
   82MOL0     C10710   6.811   6.768   7.093 -0.5083 -0.3546 -0.3609
   82MOL0     C10711   6.870   6.818   7.207 -0.2404  0.2722  0.3413
   82MOL0     C10712   6.888   6.758   7.344 -0.0180 -0.0864  0.1526
   82MOL0     C10713   7.037   6.721   7.359 -0.8497 -0.0553 -0.2745
   82MOL0     C10714   7.065   6.613   7.469  0.2093  1.3666  0.7931
   82MOL0     C10715   7.214   6.570   7.475  0.0030  0.3519  0.1826
   82MOL0     O10716   7.246   6.509   7.351  0.0396  0.4967  0.0311
   82MOL0     C10717   7.364   6.433   7.327 -0.5093  0.5282 -0.2675
   82MOL0     C10718   7.382   6.374   7.200 -0.2463 -0.2194  0.5110
   82MOL0     C10719   7.496   6.294   7.181 -0.5721 -0.7031  0.1095
   82MOL0     C10720   7.585   6.255   7.284 -0.3294 -0.3049  0.0599
   82MOL0     C10721   7.688   6.150   7.263  0.0622  0.5532 -0.5514
   82MOL0     O10722   7.778   6.129   7.368  0.5474 -0.5339 -0.7275
   82MOL0     C10723   7.857   6.017   7.377  0.0504 -1.0537 -0.2441
   82MOL0     C10724   7.835   5.891   7.333 -0.1303 -0.6966  0.6240
   82MOL0     C10725   7.921   5.789   7.372  0.8538 -0.2381 -0.2319
   82MOL0     C10726   8.032   5.814   7.460  0.4228 -0.1096 -1.2953
   82MOL0     O10727   8.103   5.704   7.516 -0.3170  0.1233 -0.0350
   82MOL0     C10728   8.239   5.696   7.465  0.2463  0.3085 -0.1415
   82MOL0     C10729   8.253   5.592   7.361  0.2800  0.5736 -0.1136
   82MOL0     C10730   8.246   5.447   7.418 -0.4732 -0.4667 -0.3581
   82MOL0     C10731   8.291   5.341   7.319 -0.3845  1.0530 -0.3193
   82MOL0     C10732   8.446   5.326   7.276  0.5316 -0.2923  0.1172
   82MOL0     C10733   8.539   5.362   7.394  0.6220 -0.0820  0.3348
   82MOL0     C10734   8.690   5.345   7.360 -0.3208  0.7120  0.8744
   82MOL0     C10735   8.737   5.428   7.248 -0.1942 -0.0701 -0.6669
   82MOL0    Cl10736   8.744   5.603   7.297 -0.1932 -0.4519 -0.2490
   82MOL0     C10737   8.063   5.943   7.500 -0.3863 -0.2161  0.9225
   82MOL0     C10738   7.979   6.044   7.453 -0.3288 -1.0937 -0.2959
   82MOL0     O10739   7.679   6.079   7.166  0.3077 -0.6281 -0.3485
   82MOL0     C10740   7.560   6.320   7.408 -0.7564 -0.1294 -0.3256
   82MOL0     C10741   7.452   6.404   7.427  0.4652 -0.0228 -0.3556
   82MOL0     N10742   6.931   6.937   7.175 -0.2443 -0.4128  0.8591
   82MOL0     N10743   6.904   6.968   7.046 -0.1702  0.4028  0.3947
   82MOL0     C10744   5.954   7.562   6.634 -0.2224 -0.4021 -0.1891
   82MOL0     C10745   5.854   7.638   6.559 -0.5613 -0.6871  0.6807
   82MOL0     C10746   5.655   7.876   6.272  0.1193 -0.4597  0.4239
   82MOL0     C10747   5.527   7.821   6.253  0.3269 -0.4470  0.9974
   82MOL0     C10748   5.424   7.879   6.182  0.1056 -0.2663 -0.6762
   82MOL0     C10749   5.434   8.004   6.124 -0.8126 -0.3327  0.2655
   82MOL0     O10750   5.346   8.070   6.051  0.2720 -0.2974  0.1803
   82MOL0     C10751   5.208   8.024   6.068 -0.0841  0.5898 -0.0236
   82MOL0     C10752   5.117   8.129   6.023  0.5221  0.3675 -0.2337
   82MOL0     C10753   5.132   8.170   5.881 -0.6185  0.0056  0.8252
   82MOL0     C10754   5.013   8.243   5.835  0.4457  0.7896 -0.3367
   82MOL0     C10755   5.017   8.296   5.701  0.7018 -0.3500  0.5022
   82MOL0     C10756   5.025   8.336   5.588 -0.1334 -0.0322  0.5838
   82MOL0     C10757   5.556   8.071   6.144 -0.6913  0.1567  0.4182
   82MOL0     C10758   5.662   8.003   6.219  0.4551 -0.1383  0.0649
   82MOL0     H10759   5.841   7.459   6.274  1.0664  0.9447 -0.7744
   82MOL0     H10760   5.962   7.306   6.409  2.4040  0.7706 -0.7565
   82MOL0     H10761   6.230   7.369   6.484 -2.8704  2.6498 -0.1095
   82MOL0     H10762   6.154   7.220   6.511 -0.6991  1.0607 -0.1935
   82MOL0     H10763   6.292   7.225   6.743 -1.8750  0.4934 -0.7183
   82MOL0     H10764   6.391   7.342   6.662 -0.9528  1.1319  1.2673
   82MOL0     H10765   6.456   7.195   6.484  0.8237 -0.9965  0.0879
   82MOL0     H10766   6.342   7.071   6.528  0.2471 -0.5148  0.5430
   82MOL0     H10767   6.557   7.169   6.709  2.8980 -1.0780 -0.7280
   82MOL0     H10768   6.448   7.023   6.741  2.1856  1.1328  2.2939
   82MOL0     H10769   6.614   7.018   6.489  0.4708 -0.3534  0.9650
   82MOL0     H10770   6.525   6.892   6.573 -1.7569  1.3514 -6.0756
   82MOL0     H10771   6.777   7.045   6.664 -0.6385 -0.1097  0.0422
   82MOL0     H10772   6.768   6.895   6.593 -1.6110  0.4230  0.0037
   82MOL0     H10773   6.688   6.996   6.879 -0.6404 -0.6657  1.1330
   82MOL0     H10774   6.600   6.851   6.830 -0.2833  1.0252 -1.0870
   82MOL0     H10775   6.895   6.884   6.794  0.7459 -3.3322 -2.8780
   82MOL0     H10776   6.810   6.733   6.825 -2.4087 -0.6974  1.0226
   82MOL0     H10777   6.766   6.669   7.088  0.3901 -0.9658  2.0684
   82MOL0     H10778   6.831   6.665   7.348 -0.1836  0.0642  1.7761
   82MOL0     H10779   6.850   6.834   7.412 -0.5086  0.2916 -0.5310
   82MOL0     H10780   7.095   6.811   7.379  1.6266 -1.7399  0.5535
   82MOL0     H10781   7.068   6.674   7.266 -2.9180 -0.2141 -0.9288
   82MOL0     H10782   7.037   6.657   7.565 -0.2904  0.6597  0.9794
   82MOL0     H10783   7.001   6.530   7.435 -0.4642  2.8918 -2.0210
   82MOL0     H10784   7.218   6.496   7.555 -2.9885 -0.2988 -0.1399
   82MOL0     H10785   7.280   6.653   7.501  1.3065 -0.3786 -0.6550
   82MOL0     H10786   7.313   6.399   7.120 -1.6180  2.6111  2.4241
   82MOL0     H10787   7.512   6.257   7.081 -1.2188 -0.0124 -0.2627
   82MOL0     H10788   7.751   5.886   7.265  0.3410  0.4874 -0.0662
   82MOL0     H10789   7.891   5.689   7.341 -1.4738  0.4506 -0.3735
   82MOL0     H10790   8.306   5.665   7.545  2.4147  1.0465 -1.5879
   82MOL0     H10791   8.279   5.791   7.427  1.0428 -0.7660 -2.1502
   82MOL0     H10792   8.350   5.601   7.311  0.1741 -1.1460 -0.7182
   82MOL0     H10793   8.180   5.601   7.280  0.5461  1.0267 -0.3067
   82MOL0     H10794   8.148   5.421   7.460  1.0374 -3.4849  1.6439
   82MOL0     H10795   8.306   5.447   7.509 -2.3851  0.6460  0.9956
   82MOL0     H10796   8.259   5.246   7.362  0.4011  0.8310 -0.2083
   82MOL0     H10797   8.237   5.359   7.225 -1.4611 -0.1227  0.0459
   82MOL0     H10798   8.474   5.406   7.208  2.2251 -0.7032  0.2789
   82MOL0     H10799   8.463   5.226   7.235 -0.1656 -0.9947  1.4513
   82MOL0     H10800   8.526   5.299   7.482  0.4938 -1.2049 -0.4603
   82MOL0     H10801   8.523   5.469   7.410  1.7222  0.6074 -2.5397
   82MOL0     H10802   8.751   5.355   7.450 -0.7998 -3.2387  1.8157
   82MOL0     H10803   8.701   5.239   7.338 -2.7879  0.2942  1.3602
   82MOL0     H10804   8.670   5.418   7.163 -1.4039 -1.5242  0.4017
   82MOL0     H10805   8.836   5.385   7.228 -0.0692 -1.3072  2.1419
   82MOL0     H10806   8.146   5.962   7.567  0.2269 -2.6325  0.9250
   82MOL0     H10807   8.007   6.146   7.477 -0.8939 -0.7841 -0.9453
   82MOL0     H10808   7.622   6.291   7.492 -0.3403  1.1709 -0.1656
   82MOL0     H10809   7.423   6.444   7.524  2.0699 -1.0550  0.5832
   82MOL0     H10810   5.994   7.589   6.731 -0.6773  2.7377 -0.7379
   82MOL0     H10811   5.811   7.730   6.594  4.0411  2.1867 -0.3577
   82MOL0     H10812   5.495   7.725   6.293 -2.5321  0.4614  1.0723
   82MOL0     H10813   5.334   7.819   6.187 -0.2554  0.3579  0.7332
   82MOL0     H10814   5.175   7.996   6.168  1.1973  0.6535  0.4287
   82MOL0     H10815   5.195   7.939   6.000  3.6499 -0.7552  0.7023
   82MOL0     H10816   5.017   8.096   6.054  0.5213  2.6120  2.6246
   82MOL0     H10817   5.135   8.217   6.086  1.7242  1.2038 -1.6697
   82MOL0     H10818   5.157   8.082   5.822 -2.6518 -0.7477  1.0013
   82MOL0     H10819   5.217   8.233   5.853 -1.9540  2.2565  1.5409
   82MOL0     H10820   4.926   8.177   5.841 -0.0980  1.2147 -2.7858
   82MOL0     H10821   4.988   8.331   5.895  1.1868  0.5884  0.2856
   82MOL0     H10822   5.040   8.375   5.490 -1.8491  0.5435  0.5019
   82MOL0     H10823   5.587   8.167   6.105  1.6130  0.7599  3.3416
   82MOL0     H10824   5.753   8.062   6.222  0.0975  0.4391 -0.1319
   83MOL0     O10825  10.781  10.667  10.828  0.1316 -0.4959  0.0627
   83MOL0     C10826  10.734  10.602  10.731  0.1326  0.5279  0.4603
   83MOL0     O10827  10.626  10.633  10.661  0.0477  0.0353 -0.3057
   83MOL0     C10828  10.547  10.735  10.708 -0.0890  0.0679 -0.8254
   83MOL0     C10829  10.410  10.700  10.725 -0.1183 -1.1311 -0.3533
   83MOL0     C10830  10.324  10.806  10.763  0.1147 -0.0287  0.0098
   83MOL0     C10831  10.358  10.941  10.769 -0.5648 -0.4020  0.4083
   83MOL0     O10832  10.263  11.045  10.788  0.5535  0.7104  0.5031
   83MOL0     C10833  10.117  11.014  10.796 -0.6326 -0.0643 -0.2798
   83MOL0     C10834  10.047  11.154  10.792 -0.2081 -0.0675 -0.4841
   83MOL0     C10835   9.902  11.156  10.841  0.0117 -0.7977  0.1680
   83MOL0     C10836   9.813  11.043  10.781 -0.9402  0.1294 -0.0561
   83MOL0     C10837   9.672  11.027  10.836  0.8537  0.3073  1.2858
   83MOL0     C10838   9.573  11.142  10.791 -0.3341  0.3402  0.4395
   83MOL0     C10839   9.426  11.086  10.816 -0.5880  0.3528  0.6368
   83MOL0     C10840   9.317  11.185  10.771 -0.0005  0.1041  0.2440
   83MOL0     N10841   9.187  11.113  10.754 -1.0248 -0.3687  0.3657
   83MOL0     C10842   9.170  10.995  10.688 -0.1555 -0.6418  0.1388
   83MOL0     C10843   9.039  10.960  10.715 -0.0640 -0.9565  0.7346
   83MOL0     C10844   8.975  10.842  10.658  0.0516  0.4814  0.6629
   83MOL0     C10845   9.070  10.763  10.566  0.7337  0.3345 -0.4252
   83MOL0     C10846   9.005  10.635  10.508 -0.0676 -0.3301  0.5985
   83MOL0     C10847   9.096  10.576  10.397 -0.2265  0.1537 -0.2971
   83MOL0     O10848   9.152  10.664  10.298  0.1988 -0.4423 -0.0132
   83MOL0     C10849   9.222  10.612  10.193  0.6189 -0.8593 -0.0644
   83MOL0     C10850   9.271  10.703  10.106  1.0646 -0.0791  0.0668
   83MOL0     C10851   9.346  10.664   9.995 -0.2966  0.0064 -0.7643
   83MOL0     C10852   9.387  10.527   9.985 -0.3532  0.0468 -0.4817
   83MOL0     C10853   9.486  10.493   9.876  0.3169 -0.6295  0.4574
   83MOL0     O10854   9.501  10.365   9.846 -0.2420 -1.1514 -0.3477
   83MOL0     C10855   9.605  10.312   9.763 -0.7538 -0.5783  0.2168
   83MOL0     C10856   9.700  10.385   9.698 -0.4813 -0.5235  0.8291
   83MOL0     C10857   9.790  10.328   9.608 -0.3833 -0.3311  0.1875
   83MOL0     C10858   9.789  10.184   9.582 -0.0667 -0.5575 -0.1114
   83MOL0     O10859   9.849  10.134   9.472 -0.2484 -0.1706  0.3295
   83MOL0     C10860   9.865   9.995   9.471  1.1128  0.0795 -0.1277
   83MOL0     C10861   9.995   9.970   9.395 -0.6990  0.1099  0.0023
   83MOL0     C10862  10.052   9.823   9.395  0.1980 -0.1342 -0.0947
   83MOL0     C10863  10.185   9.815   9.319  0.1300  0.2505  0.4677
   83MOL0     C10864  10.256   9.679   9.327  0.2214  0.5146  0.8043
   83MOL0     C10865  10.392   9.689   9.243  0.2539 -0.4619 -0.2836
   83MOL0     C10866  10.507   9.728   9.337 -0.2486 -0.2231 -0.1805
   83MOL0     C10867  10.558   9.607   9.416 -0.5697  0.0195 -0.3712
   83MOL0    Cl10868  10.587   9.467   9.312  0.1546 -0.2980 -0.3837
   83MOL0     C10869   9.699  10.111   9.659  0.7214  0.2618 -0.1473
   83MOL0     C10870   9.614  10.177   9.751 -0.0120  0.7152  1.4152
   83MOL0     O10871   9.533  10.582   9.814 -0.1277  0.5366 -0.3720
   83MOL0     C10872   9.336  10.434  10.081  0.3681 -0.2153 -0.0534
   83MOL0     C10873   9.256  10.481  10.182  0.1498  0.4366  0.0095
   83MOL0     N10874   8.987  11.056  10.803 -0.5531  0.4905  0.6236
   83MOL0     N10875   9.076  11.153  10.821  0.2987  0.4078 -0.0295
   83MOL0     C10876  10.499  10.971  10.760  0.3427 -0.3668  0.3356
   83MOL0     C10877  10.590  10.872  10.720  0.2103 -0.5141  0.9662
   83MOL0     C10878  10.812  10.487  10.684 -0.2564 -0.9390 -0.3967
   83MOL0     C10879  10.751  10.379  10.613 -0.0906 -0.9155 -1.8945
   83MOL0     C10880  10.826  10.283  10.556  0.3471 -0.1255  0.3404
   83MOL0     C10881  10.956  10.287  10.559 -0.2136 -0.1399  0.0752
   83MOL0     O10882  11.021  10.183  10.485 -0.3273  0.4120  0.0458
   83MOL0     C10883  11.164  10.175  10.503 -0.2898 -0.4367 -0.3030
   83MOL0     C10884  11.222  10.047  10.450  0.2394  0.9880  0.5658
   83MOL0     C10885  11.338  10.055  10.360 -0.1103 -0.7257  0.3251
   83MOL0     C10886  11.414   9.930  10.343  0.3937  0.3783  0.3379
   83MOL0     C10887  11.546   9.965  10.288  0.5656 -0.2307  0.4462
   83MOL0     C10888  11.670   9.976  10.269  0.1355  0.1017 -0.0276
   83MOL0     C10889  11.019  10.383  10.639  0.2181 -0.3462  1.1597
   83MOL0     C10890  10.949  10.482  10.704  0.8264 -0.1984 -0.5982
   83MOL0     H10891  10.364  10.603  10.711 -0.4480 -0.7566 -2.1824
   83MOL0     H10892  10.221  10.773  10.778 -0.0028 -0.3591 -1.3727
   83MOL0     H10893  10.098  10.968  10.894  1.2784 -0.5931 -0.1250
   83MOL0     H10894  10.075  10.960  10.710  0.6825 -2.1185  0.3024
   83MOL0     H10895  10.054  11.172  10.684  0.0147 -1.8288 -0.7853
   83MOL0     H10896  10.099  11.234  10.846 -1.0458 -0.3547  0.7863
   83MOL0     H10897   9.857  11.254  10.824 -3.3902 -1.9457  1.8238
   83MOL0     H10898   9.894  11.136  10.948 -0.7191 -1.9894 -0.0932
   83MOL0     H10899   9.792  11.068  10.676 -2.2284 -0.3264  0.0712
   83MOL0     H10900   9.863  10.948  10.801 -0.2492  0.3801 -0.5584
   83MOL0     H10901   9.686  11.019  10.945  0.5689  0.5603  1.3405
   83MOL0     H10902   9.624  10.940  10.790  2.3848  1.3749 -2.7067
   83MOL0     H10903   9.589  11.165  10.686 -3.1257  1.7746  0.2400
   83MOL0     H10904   9.604  11.227  10.852  0.0533  0.5801 -0.0862
   83MOL0     H10905   9.416  10.998  10.752  2.2160  1.1372 -1.0626
   83MOL0     H10906   9.402  11.060  10.920  0.8673 -1.1691  0.6322
   83MOL0     H10907   9.336  11.220  10.670 -0.2451 -0.8060 -0.1325
   83MOL0     H10908   9.318  11.269  10.841 -0.5681  0.0965  0.2590
   83MOL0     H10909   9.231  10.942  10.616 -3.6685 -1.9193 -2.1816
   83MOL0     H10910   8.888  10.875  10.600  0.3107  0.5076  0.2832
   83MOL0     H10911   8.941  10.774  10.736 -0.4240 -0.4031 -0.2953
   83MOL0     H10912   9.155  10.727  10.625  0.1175 -0.7560 -0.1703
   83MOL0     H10913   9.115  10.813  10.480  0.8409  2.2062  0.6653
   83MOL0     H10914   8.988  10.562  10.587 -2.1170  0.7145  1.2160
   83MOL0     H10915   8.904  10.657  10.472  0.1209 -0.7902 -0.2442
   83MOL0     H10916   9.049  10.490  10.348 -2.7620  1.8926 -1.1451
   83MOL0     H10917   9.188  10.542  10.445 -1.1640 -0.3536  1.2268
   83MOL0     H10918   9.256  10.810  10.116  1.3613  0.0419 -0.7248
   83MOL0     H10919   9.368  10.725   9.908 -0.4383 -3.1634 -3.2129
   83MOL0     H10920   9.696  10.494   9.694  0.6155 -0.4256  1.7519
   83MOL0     H10921   9.858  10.391   9.552 -1.3498  2.0407  1.5425
   83MOL0     H10922   9.783   9.946   9.418  1.7254 -2.6232  1.2625
   83MOL0     H10923   9.864   9.952   9.571  0.9980 -0.5936 -0.4143
   83MOL0     H10924  10.064  10.038   9.446  0.6554 -0.1615 -1.3906
   83MOL0     H10925   9.973  10.011   9.296 -1.7026  2.0155  0.9421
   83MOL0     H10926   9.978   9.750   9.363  0.1351 -0.6062  1.0890
   83MOL0     H10927  10.081   9.801   9.498  0.1734 -1.3285 -0.3332
   83MOL0     H10928  10.169   9.839   9.214 -0.3208 -0.4345  0.3787
   83MOL0     H10929  10.248   9.895   9.359  1.5300  1.7063 -4.0614
   83MOL0     H10930  10.193   9.597   9.290  1.1933  0.6207 -1.2562
   83MOL0     H10931  10.271   9.645   9.430 -2.1352 -1.6306  0.5353
   83MOL0     H10932  10.384   9.758   9.159 -0.0388  0.8649  0.7831
   83MOL0     H10933  10.408   9.589   9.203  1.5730 -1.7658  3.1127
   83MOL0     H10934  10.588   9.760   9.271  1.5353 -1.0607  1.4673
   83MOL0     H10935  10.473   9.821   9.383  0.8514  0.5601 -0.9132
   83MOL0     H10936  10.501   9.580   9.505 -0.4567  0.3138 -0.2103
   83MOL0     H10937  10.651   9.635   9.465  0.9541 -0.1349 -2.9746
   83MOL0     H10938   9.694  10.002   9.659 -1.4780  0.2547  2.1206
   83MOL0     H10939   9.537  10.131   9.812 -1.6952  0.3255 -0.8574
   83MOL0     H10940   9.357  10.327  10.080  0.4893 -0.2947  2.9767
   83MOL0     H10941   9.236  10.400  10.250  2.3834  0.2333  0.4854
   83MOL0     H10942  10.536  11.073  10.749  1.4553 -0.6577  1.1875
   83MOL0     H10943  10.692  10.904  10.704 -0.5857  1.2024 -1.2259
   83MOL0     H10944  10.642  10.375  10.610 -0.3128  1.2308  0.5981
   83MOL0     H10945  10.764  10.204  10.515  0.2410 -0.4279  1.0570
   83MOL0     H10946  11.181  10.165  10.611  3.3171 -4.8500 -0.9836
   83MOL0     H10947  11.203  10.264  10.454 -0.9543 -0.9951 -1.9069
   83MOL0     H10948  11.263  10.000  10.540  0.9006  1.7343  0.6644
   83MOL0     H10949  11.142   9.992  10.400 -0.3408  1.8477  0.5227
   83MOL0     H10950  11.402  10.133  10.403 -0.8401  0.7026 -1.0772
   83MOL0     H10951  11.310  10.087  10.259 -0.9663 -1.4985  0.3076
   83MOL0     H10952  11.439   9.867  10.429  0.9430 -1.3686 -1.0166
   83MOL0     H10953  11.356   9.864  10.278 -0.3205  2.3849 -1.1682
   83MOL0     H10954  11.776   9.987  10.253  0.3897 -0.3391  1.2827
   83MOL0     H10955  11.126  10.367  10.657 -0.0437 -2.7843  0.9541
   83MOL0     H10956  11.006  10.556  10.760  0.7449 -2.1641  2.2985
   84MOL0     O10957   2.787   5.860   1.984  0.4466  0.9787  0.0369
   84MOL0     C10958   2.872   5.786   2.020  0.1187  1.1197 -0.3020
   84MOL0     O10959   2.854   5.671   2.099 -0.2499 -0.2899 -0.2778
   84MOL0     C10960   2.739   5.641   2.175 -0.2989  0.5633 -0.6129
   84MOL0     C10961   2.728   5.507   2.220 -0.1050 -0.8879 -0.1150
   84MOL0     C10962   2.619   5.473   2.286 -0.4890  0.6668 -1.0594
   84MOL0     C10963   2.523   5.569   2.339  0.4982 -0.4487  0.0667
   84MOL0     O10964   2.414   5.526   2.410  0.3081 -0.4337  0.3994
   84MOL0     C10965   2.358   5.616   2.515  0.1583 -0.1854 -0.1410
   84MOL0     C10966   2.246   5.550   2.604 -0.1787 -0.3420 -0.3772
   84MOL0     C10967   2.201   5.644   2.715  0.1182 -1.0559 -0.7539
   84MOL0     C10968   2.059   5.596   2.756 -0.8037  0.8858 -0.4231
   84MOL0     C10969   1.945   5.627   2.657 -0.1557 -0.1083 -0.6839
   84MOL0     C10970   1.914   5.769   2.626 -0.0877 -0.9797 -0.2925
   84MOL0     C10971   1.785   5.775   2.547  0.0614  0.0107  0.1547
   84MOL0     C10972   1.758   5.923   2.507  0.3960  0.0602  0.1166
   84MOL0     N10973   1.668   5.935   2.395  0.6328 -0.3062 -0.0939
   84MOL0     C10974   1.699   5.903   2.268  0.5586 -0.0024 -0.0869
   84MOL0     C10975   1.586   5.902   2.192  0.2218 -0.1866  1.3876
   84MOL0     C10976   1.577   5.898   2.045  0.4855 -0.1243  0.6498
   84MOL0     C10977   1.635   6.028   1.978  0.2438  1.0632 -0.0652
   84MOL0     C10978   1.777   6.071   2.035 -0.0458  0.1805 -0.4486
   84MOL0     C10979   1.845   6.166   1.931 -0.2566  0.5390 -0.2452
   84MOL0     O10980   1.979   6.190   1.986  1.2073 -0.1133 -0.5009
   84MOL0     C10981   1.998   6.298   2.062 -0.7977  0.6575 -0.2099
   84MOL0     C10982   2.087   6.293   2.180  0.8788 -0.1266  1.4308
   84MOL0     C10983   2.113   6.399   2.252 -0.9976  0.1078  0.0103
   84MOL0     C10984   2.065   6.528   2.225 -0.0483 -0.0543 -0.8158
   84MOL0     C10985   2.126   6.647   2.300 -0.0131  0.1274  0.6321
   84MOL0     O10986   2.089   6.772   2.266  0.4986 -1.2256  0.1454
   84MOL0     C10987   2.117   6.868   2.357 -0.2423  0.8601 -0.4699
   84MOL0     C10988   2.010   6.931   2.420 -0.7457 -0.0357  0.4579
   84MOL0     C10989   2.035   7.041   2.495  1.1434 -0.4844 -0.1766
   84MOL0     C10990   2.165   7.092   2.522 -0.2318 -0.4361 -0.0010
   84MOL0     O10991   2.169   7.206   2.602 -0.4325  0.9519  0.5628
   84MOL0     C10992   2.303   7.255   2.631  0.9072 -0.3530  0.0731
   84MOL0     C10993   2.306   7.397   2.673  0.2316  0.8790 -0.6694
   84MOL0     C10994   2.446   7.462   2.669 -0.5726 -0.0771  0.4383
   84MOL0     C10995   2.447   7.607   2.708 -0.3846 -0.1035 -0.0203
   84MOL0     C10996   2.569   7.683   2.663  0.3758 -0.3835 -0.2523
   84MOL0     C10997   2.566   7.695   2.509 -0.0028  0.5422  0.9782
   84MOL0     C10998   2.705   7.728   2.459 -0.2703 -0.9319  0.3100
   84MOL0     C10999   2.734   7.879   2.480 -0.7334 -0.8848 -0.5431
   84MOL0    Cl11000   2.890   7.931   2.432  0.2365  0.3381 -0.1306
   84MOL0     C11001   2.272   7.028   2.454  0.3958 -0.3030 -0.5789
   84MOL0     C11002   2.245   6.911   2.376  0.5449 -0.8385  0.2364
   84MOL0     O11003   2.205   6.622   2.389 -0.0685 -0.1142 -0.1083
   84MOL0     C11004   1.978   6.540   2.113  0.5848 -0.3885  0.1611
   84MOL0     C11005   1.956   6.425   2.031  1.6651 -0.0198 -0.1397
   84MOL0     N11006   1.480   5.936   2.279 -0.4194 -0.0788  0.1781
   84MOL0     N11007   1.533   5.957   2.398  0.3748  0.5435  0.4085
   84MOL0     C11008   2.544   5.702   2.307 -0.1864 -0.8249 -0.4482
   84MOL0     C11009   2.648   5.733   2.219  1.3583 -0.7075  0.0560
   84MOL0     C11010   3.003   5.810   1.956 -0.4253  0.2717  0.3820
   84MOL0     C11011   3.118   5.726   1.978  0.2124 -0.2543 -0.3387
   84MOL0     C11012   3.242   5.746   1.922 -0.0322  0.2989 -0.0243
   84MOL0     C11013   3.262   5.848   1.828  0.7452  0.4812  1.0785
   84MOL0     O11014   3.380   5.853   1.753  0.9026 -0.2865  0.9070
   84MOL0     C11015   3.371   5.904   1.621 -0.3860 -0.2923  0.4086
   84MOL0     C11016   3.471   5.836   1.529  0.0060  0.4504 -0.3777
   84MOL0     C11017   3.607   5.890   1.549 -0.0584  0.4612  0.5054
   84MOL0     C11018   3.618   6.025   1.472  0.0082  0.4282 -0.7670
   84MOL0     C11019   3.722   6.103   1.547 -1.3887 -0.2574 -0.2779
   84MOL0     C11020   3.807   6.145   1.627  1.1783 -0.3823  0.1734
   84MOL0     C11021   3.153   5.940   1.806  0.2704  1.4049 -0.2996
   84MOL0     C11022   3.031   5.919   1.872 -0.7510  0.3027 -0.8369
   84MOL0     H11023   2.800   5.428   2.199 -0.9690 -1.3126 -1.6766
   84MOL0     H11024   2.607   5.366   2.305  1.7478  1.0003  3.6954
   84MOL0     H11025   2.297   5.688   2.460  1.1002  0.5591 -0.2428
   84MOL0     H11026   2.432   5.661   2.581 -0.0611 -1.3306  0.9264
   84MOL0     H11027   2.275   5.452   2.642  0.9075 -0.2119 -0.8341
   84MOL0     H11028   2.163   5.537   2.534  0.3697 -0.3481 -1.0352
   84MOL0     H11029   2.199   5.745   2.674 -0.7957 -0.4944  0.5726
   84MOL0     H11030   2.276   5.635   2.794  0.7780 -0.3278 -1.2905
   84MOL0     H11031   2.060   5.489   2.783 -0.9193  0.7831 -0.8132
   84MOL0     H11032   2.047   5.655   2.848 -0.1717  1.2586 -0.5769
   84MOL0     H11033   1.856   5.569   2.686  1.4987 -2.7782 -0.5678
   84MOL0     H11034   1.969   5.574   2.564  0.5745 -0.5518 -0.2504
   84MOL0     H11035   1.998   5.805   2.565  0.1986  0.3888  0.8671
   84MOL0     H11036   1.897   5.828   2.716  2.3152 -1.5308  0.6232
   84MOL0     H11037   1.785   5.716   2.456 -3.0196  2.5495 -1.7015
   84MOL0     H11038   1.705   5.730   2.606  1.6447 -3.5033 -0.1380
   84MOL0     H11039   1.848   5.981   2.483 -0.2353  0.0208 -2.6375
   84MOL0     H11040   1.716   5.983   2.588  0.5922  2.6035 -1.5370
   84MOL0     H11041   1.801   5.886   2.233 -0.2150  0.5571 -2.8083
   84MOL0     H11042   1.472   5.905   2.015  1.0574  1.5590 -1.2044
   84MOL0     H11043   1.621   5.808   2.003 -2.8952 -0.8536 -1.7569
   84MOL0     H11044   1.568   6.114   1.988  0.8391  1.4769  0.4461
   84MOL0     H11045   1.659   5.999   1.875  1.5779 -1.4459  0.8728
   84MOL0     H11046   1.763   6.117   2.133 -0.2800  0.6093 -0.6810
   84MOL0     H11047   1.845   5.987   2.057 -1.9754 -0.7007  2.9147
   84MOL0     H11048   1.785   6.257   1.926 -0.4547  0.3738 -1.0274
   84MOL0     H11049   1.853   6.123   1.831 -1.4303 -1.8327  0.6013
   84MOL0     H11050   2.104   6.193   2.218 -0.6605 -0.1843  2.0790
   84MOL0     H11051   2.186   6.394   2.333 -1.4507 -0.7025  0.3773
   84MOL0     H11052   1.911   6.902   2.385 -1.0535  0.2786  1.0498
   84MOL0     H11053   1.948   7.082   2.545  2.1018  2.5215 -0.7853
   84MOL0     H11054   2.368   7.256   2.543 -1.4817  1.8880 -1.8167
   84MOL0     H11055   2.358   7.192   2.701  0.6738 -3.2617 -2.1924
   84MOL0     H11056   2.259   7.397   2.771 -0.3010  1.0026 -0.9223
   84MOL0     H11057   2.239   7.444   2.601 -1.0380  0.1050 -0.0231
   84MOL0     H11058   2.489   7.454   2.569 -2.1840 -0.7446 -0.2382
   84MOL0     H11059   2.519   7.410   2.732 -0.2826 -2.3104 -1.5959
   84MOL0     H11060   2.352   7.646   2.671 -0.5748 -0.2337  0.3237
   84MOL0     H11061   2.448   7.626   2.816 -0.8665  0.3195 -0.0867
   84MOL0     H11062   2.649   7.620   2.702  1.6505 -1.6609 -4.3970
   84MOL0     H11063   2.556   7.785   2.702 -3.1640 -0.3076 -1.2844
   84MOL0     H11064   2.493   7.773   2.486 -0.7711 -0.1064  1.1546
   84MOL0     H11065   2.525   7.610   2.455 -1.2097  2.5475 -1.4485
   84MOL0     H11066   2.780   7.660   2.500  1.9794  0.8064 -0.7091
   84MOL0     H11067   2.695   7.713   2.351 -1.6486  3.6281 -0.4116
   84MOL0     H11068   2.729   7.895   2.588 -3.2220  0.3527 -0.7660
   84MOL0     H11069   2.652   7.934   2.434 -1.1343 -0.8489  0.1966
   84MOL0     H11070   2.376   7.047   2.480  0.0666  1.1001 -0.2039
   84MOL0     H11071   2.326   6.873   2.315  1.1890  2.2691 -1.0439
   84MOL0     H11072   1.953   6.641   2.084  1.0727 -0.3519 -0.1477
   84MOL0     H11073   1.910   6.452   1.936 -1.3282  0.5312  1.3495
   84MOL0     H11074   2.483   5.779   2.353 -2.2413 -2.9953  0.7117
   84MOL0     H11075   2.664   5.838   2.194  0.6352 -0.8407 -1.0299
   84MOL0     H11076   3.097   5.643   2.046 -1.8835 -1.0852 -1.8927
   84MOL0     H11077   3.327   5.680   1.936  0.6619  1.3891  1.0121
   84MOL0     H11078   3.396   6.007   1.645 -0.7540 -0.0746 -0.1245
   84MOL0     H11079   3.277   5.894   1.565 -2.1596 -0.3746  3.2167
   84MOL0     H11080   3.463   5.727   1.537  2.7573  0.1093 -1.0758
   84MOL0     H11081   3.436   5.867   1.430 -2.9788  1.1160  0.7703
   84MOL0     H11082   3.684   5.825   1.506  0.7882  2.6140 -1.4535
   84MOL0     H11083   3.621   5.896   1.658  0.7888  1.5616  0.3602
   84MOL0     H11084   3.640   6.012   1.366 -2.4483  3.5519 -1.8082
   84MOL0     H11085   3.527   6.085   1.475 -1.0745 -1.1519  1.7435
   84MOL0     H11086   3.871   6.181   1.705 -0.5965  0.1216  1.4644
   84MOL0     H11087   3.173   6.026   1.742 -2.3600  0.4702 -2.6149
   84MOL0     H11088   2.955   5.996   1.874 -0.9913  0.1224  2.2283
   85MOL0     O11089   5.323   9.244   1.501 -0.1608 -0.4970  0.3546
   85MOL0     C11090   5.428   9.288   1.466 -0.1064  0.5314 -1.6078
   85MOL0     O11091   5.537   9.209   1.452 -0.0393  0.6949  0.1103
   85MOL0     C11092   5.533   9.082   1.524  0.4070  0.5618  0.1172
   85MOL0     C11093   5.531   8.961   1.445 -0.7745 -0.9300  1.2925
   85MOL0     C11094   5.561   8.843   1.518 -0.1778 -0.0526  0.0593
   85MOL0     C11095   5.577   8.834   1.662  0.4019 -0.0855 -0.9061
   85MOL0     O11096   5.621   8.723   1.733 -0.1998  0.5538  0.1198
   85MOL0     C11097   5.710   8.637   1.659  0.1074 -0.9912 -0.2472
   85MOL0     C11098   5.762   8.537   1.760 -0.5716 -0.5985 -0.3328
   85MOL0     C11099   5.858   8.441   1.691  0.0189 -0.7073  0.9459
   85MOL0     C11100   5.937   8.344   1.782  0.2500 -0.1108 -0.4303
   85MOL0     C11101   6.071   8.307   1.720 -0.6345  0.0193 -0.4115
   85MOL0     C11102   6.140   8.206   1.820  0.2313 -0.0963 -0.8503
   85MOL0     C11103   6.277   8.162   1.764 -0.3644 -0.4012 -0.0897
   85MOL0     C11104   6.353   8.081   1.868  0.6261 -0.1211 -0.3946
   85MOL0     N11105   6.454   7.989   1.805 -0.1789 -0.2645  0.6792
   85MOL0     C11106   6.536   8.001   1.696  0.5676 -0.3161 -0.1915
   85MOL0     C11107   6.592   7.877   1.684  0.4653 -0.0506  0.2771
   85MOL0     C11108   6.706   7.863   1.590 -0.4649 -0.8042  0.1070
   85MOL0     C11109   6.842   7.914   1.655  0.2685 -0.2608  0.2314
   85MOL0     C11110   6.906   7.814   1.757  0.1628  0.3056 -0.1879
   85MOL0     C11111   6.996   7.882   1.861  0.6490  1.0243  0.0259
   85MOL0     O11112   7.116   7.906   1.790  0.4400  0.0931 -0.3735
   85MOL0     C11113   7.214   7.965   1.871  0.4190 -0.5429  0.5298
   85MOL0     C11114   7.334   7.977   1.806 -0.4472 -0.2121 -0.6991
   85MOL0     C11115   7.450   8.027   1.876  0.1152  0.8956 -0.7227
   85MOL0     C11116   7.449   8.049   2.012 -0.3201 -0.1896  0.4445
   85MOL0     C11117   7.569   8.100   2.086  0.5183 -0.4739  0.6365
   85MOL0     O11118   7.650   8.194   2.019 -0.4925  0.7047 -0.0312
   85MOL0     C11119   7.774   8.214   2.066 -0.2486  0.5772 -0.1475
   85MOL0     C11120   7.881   8.152   2.008 -0.0930 -0.7692 -0.1373
   85MOL0     C11121   8.004   8.161   2.068  0.7898  0.0008  0.2702
   85MOL0     C11122   8.018   8.230   2.192  0.0848 -0.5563 -1.2650
   85MOL0     O11123   8.137   8.232   2.256 -0.7055 -0.1400 -0.0358
   85MOL0     C11124   8.258   8.209   2.185  0.6667 -0.0996  0.1184
   85MOL0     C11125   8.359   8.199   2.297 -0.9673 -0.3624 -0.1308
   85MOL0     C11126   8.506   8.221   2.241 -0.5042 -0.2576 -0.9278
   85MOL0     C11127   8.607   8.203   2.361  0.1062  0.1649 -0.2906
   85MOL0     C11128   8.755   8.216   2.319  0.0541  0.2651 -0.0153
   85MOL0     C11129   8.855   8.178   2.428 -0.5628  0.0555  0.2252
   85MOL0     C11130   8.995   8.229   2.399  0.1391  0.1248 -0.1686
   85MOL0     C11131   9.092   8.171   2.500  0.5813 -0.3592 -0.1981
   85MOL0    Cl11132   9.153   8.298   2.610 -0.4984 -0.0950 -0.1987
   85MOL0     C11133   7.916   8.307   2.252 -0.3204 -0.5336  0.4874
   85MOL0     C11134   7.791   8.295   2.184 -0.0003 -0.0682 -0.2391
   85MOL0     O11135   7.577   8.075   2.202 -0.6366 -0.0074  0.7996
   85MOL0     C11136   7.328   8.036   2.085  0.7262  0.3971  1.1092
   85MOL0     C11137   7.212   7.995   2.014  0.1102 -0.4128  0.1478
   85MOL0     N11138   6.543   7.790   1.785  1.4142 -0.9489  1.0578
   85MOL0     N11139   6.460   7.864   1.853  0.2019  0.0546 -0.9158
   85MOL0     C11140   5.551   8.953   1.734  0.4449  0.3637 -0.5318
   85MOL0     C11141   5.532   9.081   1.663  0.5750  0.1674 -0.6424
   85MOL0     C11142   5.435   9.431   1.426 -0.1830 -0.3750  0.5351
   85MOL0     C11143   5.523   9.469   1.325 -0.4457 -0.3172 -0.4682
   85MOL0     C11144   5.534   9.603   1.300  0.3296 -0.5531  0.0394
   85MOL0     C11145   5.441   9.691   1.346  1.0041  0.5093  0.2963
   85MOL0     O11146   5.452   9.820   1.307  0.2845 -0.2559 -0.3891
   85MOL0     C11147   5.390   9.925   1.381 -0.3881 -0.5644  0.8054
   85MOL0     C11148   5.401  10.040   1.280  0.4974  0.3242  0.4462
   85MOL0     C11149   5.366  10.178   1.340  0.3281 -0.0824 -0.2526
   85MOL0     C11150   5.213  10.203   1.333 -0.3416  0.3730 -0.4855
   85MOL0     C11151   5.134  10.117   1.425  0.9936  0.1583 -0.4318
   85MOL0     C11152   5.045  10.040   1.474 -1.0027  0.6504  0.0158
   85MOL0     C11153   5.345   9.648   1.442 -0.7356 -0.2485 -0.1846
   85MOL0     C11154   5.347   9.516   1.482 -0.1027  0.4322 -0.0600
   85MOL0     H11155   5.523   8.971   1.337  3.6634  0.0533  0.8632
   85MOL0     H11156   5.564   8.750   1.462 -1.0101  0.0165 -0.1034
   85MOL0     H11157   5.786   8.696   1.607 -0.3061  1.1157  1.4191
   85MOL0     H11158   5.655   8.577   1.585  0.5191 -1.4293 -0.2059
   85MOL0     H11159   5.680   8.475   1.798  1.0231 -2.9129 -0.4354
   85MOL0     H11160   5.812   8.582   1.846 -0.1812 -1.5651 -0.0336
   85MOL0     H11161   5.934   8.495   1.635 -2.0323 -0.3016 -1.6008
   85MOL0     H11162   5.794   8.388   1.620 -4.8253  4.3414  0.7934
   85MOL0     H11163   5.946   8.385   1.883 -0.7094 -4.0079  1.4220
   85MOL0     H11164   5.874   8.258   1.806 -0.8013  0.2766 -1.7089
   85MOL0     H11165   6.138   8.393   1.712 -1.0158  0.8042  2.9854
   85MOL0     H11166   6.054   8.249   1.629 -1.4861  2.2126 -1.7354
   85MOL0     H11167   6.085   8.115   1.842  2.5308 -1.6760 -1.3050
   85MOL0     H11168   6.156   8.255   1.916  2.5861 -1.4087 -0.4931
   85MOL0     H11169   6.251   8.098   1.679 -0.8332 -1.5599  0.9015
   85MOL0     H11170   6.339   8.243   1.724 -0.6851 -1.9299 -4.0488
   85MOL0     H11171   6.283   8.010   1.911  1.1999 -1.0617 -0.9752
   85MOL0     H11172   6.395   8.150   1.942  1.5580 -1.7964  0.6842
   85MOL0     H11173   6.542   8.091   1.635  0.8067 -0.0136  0.2674
   85MOL0     H11174   6.693   7.925   1.501  0.7237 -2.1481 -1.0680
   85MOL0     H11175   6.713   7.759   1.558  0.6021 -1.1938  1.5166
   85MOL0     H11176   6.821   8.012   1.701 -1.8896 -1.0768  1.1172
   85MOL0     H11177   6.924   7.937   1.586  0.5046  1.6709  1.0619
   85MOL0     H11178   6.830   7.769   1.822  0.7564  0.0708  0.3502
   85MOL0     H11179   6.969   7.742   1.703  1.7231  0.3334  1.5113
   85MOL0     H11180   7.019   7.801   1.931 -1.7906 -0.3107 -0.6160
   85MOL0     H11181   6.945   7.963   1.914  0.0815  1.8279 -1.6634
   85MOL0     H11182   7.346   7.932   1.708 -1.8153 -2.0566 -0.0650
   85MOL0     H11183   7.543   8.039   1.822  1.2188 -1.3901  0.5419
   85MOL0     H11184   7.856   8.089   1.923  0.5960 -1.8451  0.4334
   85MOL0     H11185   8.079   8.099   2.019  0.5036 -0.9434  0.9969
   85MOL0     H11186   8.269   8.288   2.110 -2.6173 -1.0440 -1.5444
   85MOL0     H11187   8.254   8.106   2.147  0.1975 -0.1193  0.2161
   85MOL0     H11188   8.348   8.101   2.344  1.0381 -0.8911 -0.6882
   85MOL0     H11189   8.345   8.279   2.370  0.6590  1.5743 -1.8100
   85MOL0     H11190   8.523   8.317   2.192  0.8931  0.0290  0.0580
   85MOL0     H11191   8.529   8.143   2.169  4.5732  1.7764 -1.9348
   85MOL0     H11192   8.582   8.282   2.432  3.7330 -0.6803  2.2112
   85MOL0     H11193   8.589   8.104   2.405 -1.5035  0.8725  0.7135
   85MOL0     H11194   8.774   8.316   2.279 -1.0534  0.4007 -0.2376
   85MOL0     H11195   8.768   8.143   2.239  1.0745 -0.5978  0.9147
   85MOL0     H11196   8.849   8.069   2.437  1.2406  0.0172  1.6254
   85MOL0     H11197   8.822   8.213   2.527  0.4081  1.3241  0.1312
   85MOL0     H11198   9.029   8.207   2.297  2.0523 -0.0105  0.4707
   85MOL0     H11199   8.998   8.339   2.403  1.4316  0.2809 -3.0285
   85MOL0     H11200   9.176   8.132   2.442 -0.2068 -2.4284 -0.0215
   85MOL0     H11201   9.054   8.086   2.557  0.2697  0.4960  0.9021
   85MOL0     H11202   7.923   8.343   2.354 -1.9402 -0.7012  0.6842
   85MOL0     H11203   7.706   8.353   2.217  1.0055  0.2252  2.0727
   85MOL0     H11204   7.327   8.058   2.191 -0.5924  0.8395  1.0188
   85MOL0     H11205   7.121   7.977   2.071  0.5243 -0.1253  0.9110
   85MOL0     H11206   5.552   8.951   1.843  1.8939 -2.0712 -0.5134
   85MOL0     H11207   5.545   9.161   1.735  2.8869 -0.3508 -0.3959
   85MOL0     H11208   5.600   9.407   1.278  0.2364  2.4063 -3.2597
   85MOL0     H11209   5.623   9.625   1.242 -0.8116  0.8606 -1.2698
   85MOL0     H11210   5.448   9.954   1.469 -1.8083  0.7500  1.3450
   85MOL0     H11211   5.285   9.906   1.403 -1.2177  1.5859 -0.8889
   85MOL0     H11212   5.506  10.050   1.252  0.6993  0.2493  1.1793
   85MOL0     H11213   5.353  10.021   1.183  1.1030 -1.9887  0.5508
   85MOL0     H11214   5.410  10.256   1.278 -0.5600 -0.1039 -0.9183
   85MOL0     H11215   5.408  10.188   1.441 -0.3859  4.2098 -0.2107
   85MOL0     H11216   5.194  10.305   1.365  1.0754  0.2259  0.9922
   85MOL0     H11217   5.184  10.199   1.227 -2.5624  0.2219  0.0875
   85MOL0     H11218   4.966   9.987   1.522 -2.1839  1.3763 -1.0584
   85MOL0     H11219   5.278   9.715   1.495  0.6181 -1.6193  3.6149
   85MOL0     H11220   5.282   9.485   1.564 -0.0755 -0.6470 -0.4216
   86MOL0     O11221   1.517   0.114   8.807  0.1233 -0.6857  0.0611
   86MOL0     C11222   1.643   0.128   8.800  0.4937  0.7480  0.5292
   86MOL0     O11223   1.713   0.114   8.691 -0.9990  0.0706  0.8474
   86MOL0     C11224   1.682   0.026   8.588 -0.2021 -0.4652 -0.0553
   86MOL0     C11225   1.774   0.036   8.489  0.4606  0.4130 -0.0947
   86MOL0     C11226   1.768  -0.049   8.376  0.5376 -1.0504 -0.2978
   86MOL0     C11227   1.674  -0.150   8.373  0.0621  0.6421  0.3044
   86MOL0     O11228   1.660  -0.229   8.258  0.3154  0.2821 -0.4393
   86MOL0     C11229   1.629  -0.370   8.273 -0.2068  0.8484 -0.8126
   86MOL0     C11230   1.729  -0.447   8.353 -0.1837 -0.5441 -0.8135
   86MOL0     C11231   1.787  -0.559   8.267 -0.1609  0.3016 -0.3628
   86MOL0     C11232   1.910  -0.618   8.332 -0.6450 -0.2390 -0.4171
   86MOL0     C11233   1.974  -0.733   8.252  0.4219 -0.3016 -0.4755
   86MOL0     C11234   1.875  -0.843   8.211  0.1726 -0.6814  0.0613
   86MOL0     C11235   1.949  -0.981   8.185  0.3640  0.0941 -0.4026
   86MOL0     C11236   2.042  -0.986   8.061  0.2208  0.3179  0.4854
   86MOL0     N11237   2.168  -0.911   8.080  0.3202  0.0986  0.8982
   86MOL0     C11238   2.278  -0.926   8.171  0.0238  0.2230  0.1210
   86MOL0     C11239   2.371  -0.830   8.143  0.6723  0.5878 -0.6265
   86MOL0     C11240   2.479  -0.788   8.224 -0.8564 -0.1438 -0.9698
   86MOL0     C11241   2.447  -0.736   8.361 -0.9975  0.2438  0.8015
   86MOL0     C11242   2.334  -0.634   8.377  0.3630 -0.3995  0.3619
   86MOL0     C11243   2.360  -0.522   8.282  0.2282  0.5728  0.9123
   86MOL0     O11244   2.261  -0.424   8.303  0.6767  0.2908  0.6034
   86MOL0     C11245   2.252  -0.340   8.409  0.1246  1.2598 -0.0096
   86MOL0     C11246   2.341  -0.330   8.512  0.1150  0.9505 -1.1572
   86MOL0     C11247   2.324  -0.245   8.622  0.3390 -0.1196 -0.1448
   86MOL0     C11248   2.219  -0.149   8.623  0.1309  0.5724  0.3703
   86MOL0     C11249   2.194  -0.073   8.748  0.3408  0.2126  0.5857
   86MOL0     O11250   2.279  -0.094   8.848 -0.6924 -0.7353 -0.2307
   86MOL0     C11251   2.254  -0.070   8.984  0.1005  0.4620 -0.3096
   86MOL0     C11252   2.357  -0.112   9.076 -0.7497 -0.1941  1.2526
   86MOL0     C11253   2.330  -0.111   9.214  0.3664  0.6181  0.3291
   86MOL0     C11254   2.207  -0.075   9.263  0.2287 -0.0133 -0.3342
   86MOL0     O11255   2.188  -0.083   9.399 -0.1844 -0.7366 -0.5449
   86MOL0     C11256   2.087   0.012   9.451  0.1199  0.7252 -0.1546
   86MOL0     C11257   2.075  -0.040   9.593  0.5294 -0.5234 -0.4176
   86MOL0     C11258   2.022   0.065   9.694 -0.2978 -0.5548 -0.4374
   86MOL0     C11259   1.866   0.085   9.684  0.0297  0.5691  0.3192
   86MOL0     C11260   1.785  -0.043   9.715 -0.1701  0.6935  1.1847
   86MOL0     C11261   1.641  -0.026   9.748 -0.4248  0.9400 -0.7002
   86MOL0     C11262   1.594  -0.165   9.764 -0.3297 -0.0438  0.3320
   86MOL0     C11263   1.453  -0.176   9.835 -0.4641  0.9605 -0.3393
   86MOL0    Cl11264   1.337  -0.097   9.737  0.3055  0.1297 -0.1863
   86MOL0     C11265   2.111  -0.039   9.177  0.2945 -0.2910 -0.0048
   86MOL0     C11266   2.137  -0.035   9.039  0.5449 -0.2031 -0.2454
   86MOL0     O11267   2.093   0.001   8.745 -0.2119 -0.4135  0.3759
   86MOL0     C11268   2.147  -0.142   8.504  0.0156  0.2770 -0.0580
   86MOL0     C11269   2.155  -0.233   8.405 -0.7465  0.2979  0.1791
   86MOL0     N11270   2.311  -0.755   8.039 -0.0041 -0.0939  0.3306
   86MOL0     N11271   2.197  -0.807   8.006  0.1559 -0.3507 -0.3857
   86MOL0     C11272   1.580  -0.157   8.478 -0.2781 -0.6170 -1.0487
   86MOL0     C11273   1.583  -0.068   8.586  0.0041 -0.3432  0.2784
   86MOL0     C11274   1.723   0.157   8.922 -0.4111  0.7417  0.0859
   86MOL0     C11275   1.686   0.116   9.047 -0.7196  0.0002  1.3494
   86MOL0     C11276   1.749   0.149   9.164 -0.5739  0.9024  0.1201
   86MOL0     C11277   1.869   0.214   9.154  0.2722  0.0323  0.8673
   86MOL0     O11278   1.936   0.242   9.271  1.1819 -1.0102 -1.0177
   86MOL0     C11279   2.019   0.355   9.272  0.0654  0.3075 -0.1353
   86MOL0     C11280   2.017   0.405   9.424 -0.1083  0.3070 -1.1084
   86MOL0     C11281   2.111   0.539   9.445 -0.6362  0.3092  0.4116
   86MOL0     C11282   2.034   0.650   9.513 -0.1741 -0.2363 -0.1012
   86MOL0     C11283   1.996   0.615   9.644 -0.2915 -1.2322 -0.4111
   86MOL0     C11284   1.977   0.548   9.741  0.1075 -0.0124 -0.5125
   86MOL0     C11285   1.927   0.248   9.027  0.3729  0.8543  0.2152
   86MOL0     C11286   1.850   0.216   8.911 -0.1409 -0.4865  0.2140
   86MOL0     H11287   1.858   0.104   8.498  0.9364  0.1435 -2.0505
   86MOL0     H11288   1.840  -0.043   8.295 -0.3687  1.3799 -1.0164
   86MOL0     H11289   1.623  -0.396   8.167 -1.4686 -1.6151 -0.2173
   86MOL0     H11290   1.528  -0.381   8.315 -0.2769  1.1758 -0.8907
   86MOL0     H11291   1.684  -0.492   8.442 -0.6386 -1.1129 -1.3250
   86MOL0     H11292   1.813  -0.386   8.385 -0.6376 -2.1987  4.5668
   86MOL0     H11293   1.820  -0.522   8.170  1.3273  1.3141  0.4736
   86MOL0     H11294   1.714  -0.639   8.253  1.1970 -0.6949 -2.2172
   86MOL0     H11295   1.985  -0.542   8.351 -2.0310  1.0939 -0.0708
   86MOL0     H11296   1.880  -0.661   8.427 -1.3292 -0.4695 -0.7284
   86MOL0     H11297   2.045  -0.772   8.326 -3.2111 -2.4799  2.2279
   86MOL0     H11298   2.035  -0.691   8.171 -0.9000  2.3302 -0.1894
   86MOL0     H11299   1.815  -0.809   8.126  0.3794  0.5167  0.3814
   86MOL0     H11300   1.798  -0.858   8.287 -1.2293 -0.0626 -1.1745
   86MOL0     H11301   2.007  -1.011   8.273 -2.2110  1.0693  1.7832
   86MOL0     H11302   1.866  -1.052   8.175 -1.2430  1.9724 -1.2543
   86MOL0     H11303   1.982  -0.952   7.976 -0.3061  3.7543  2.0560
   86MOL0     H11304   2.064  -1.093   8.050  5.3313  1.0990  0.8841
   86MOL0     H11305   2.285  -0.994   8.255  0.8730  2.2007  1.7212
   86MOL0     H11306   2.543  -0.715   8.174  2.2359 -2.4014 -0.5631
   86MOL0     H11307   2.554  -0.865   8.244  0.6066  1.7102  1.1512
   86MOL0     H11308   2.539  -0.690   8.397 -0.8215  1.6774 -1.2592
   86MOL0     H11309   2.429  -0.815   8.434  4.0070 -0.0162  2.0636
   86MOL0     H11310   2.232  -0.671   8.360 -1.3919  3.0842  2.3013
   86MOL0     H11311   2.340  -0.604   8.482 -0.8001 -0.2893  0.4163
   86MOL0     H11312   2.346  -0.561   8.181 -0.9112 -0.4493  1.4263
   86MOL0     H11313   2.464  -0.492   8.294  1.3390 -3.1483  1.9759
   86MOL0     H11314   2.422  -0.402   8.506 -1.0860 -0.6412  0.5750
   86MOL0     H11315   2.390  -0.264   8.706 -0.9181 -1.3388  0.6077
   86MOL0     H11316   2.456  -0.140   9.043 -0.8688 -1.9795  2.2335
   86MOL0     H11317   2.393  -0.145   9.296 -1.4371 -1.8880  0.8031
   86MOL0     H11318   1.985  -0.005   9.416 -0.5137 -3.6800  3.0300
   86MOL0     H11319   2.140   0.109   9.449  3.2208 -0.6008  3.8381
   86MOL0     H11320   2.174  -0.076   9.621 -0.1609 -1.5246  0.8216
   86MOL0     H11321   2.000  -0.120   9.589 -2.8961  2.3493  0.4511
   86MOL0     H11322   2.075   0.160   9.684 -1.0916  0.1860  1.7080
   86MOL0     H11323   2.063   0.033   9.791  1.4655 -2.8079 -1.8431
   86MOL0     H11324   1.840   0.166   9.753  2.0408  0.7151  0.9633
   86MOL0     H11325   1.837   0.119   9.584 -0.8738 -1.3139 -0.1190
   86MOL0     H11326   1.837  -0.090   9.799  0.5542 -0.2559  0.2346
   86MOL0     H11327   1.800  -0.112   9.631 -1.6053  1.0560  0.6029
   86MOL0     H11328   1.578   0.034   9.681 -1.8144  4.2033  3.1073
   86MOL0     H11329   1.645   0.021   9.846 -4.6111  0.1321  0.0428
   86MOL0     H11330   1.585  -0.216   9.667 -0.1217 -2.0915  1.3444
   86MOL0     H11331   1.671  -0.215   9.822  1.5346  0.6540 -1.4176
   86MOL0     H11332   1.462  -0.134   9.936 -1.0251 -0.5814  0.3979
   86MOL0     H11333   1.431  -0.283   9.847 -1.7434  1.3436  0.9864
   86MOL0     H11334   2.009  -0.017   9.206  1.5053  2.6936  2.5907
   86MOL0     H11335   2.051   0.005   8.985 -1.1516 -1.9479  1.0120
   86MOL0     H11336   2.073  -0.065   8.489 -0.2291 -0.4289 -2.9555
   86MOL0     H11337   2.081  -0.223   8.327 -1.0074 -2.0594  0.0551
   86MOL0     H11338   1.502  -0.232   8.483 -1.7495  0.9146 -0.1391
   86MOL0     H11339   1.503  -0.070   8.659 -2.0250  2.6809 -1.6121
   86MOL0     H11340   1.593   0.062   9.056  0.2478 -1.6936  1.7260
   86MOL0     H11341   1.717   0.100   9.255  2.5567  0.6857  1.2387
   86MOL0     H11342   1.979   0.431   9.204  0.0463  1.5075  1.1793
   86MOL0     H11343   2.122   0.330   9.244  0.7214  0.5897  1.9009
   86MOL0     H11344   1.910   0.430   9.422 -0.5564 -1.4818 -1.2108
   86MOL0     H11345   2.043   0.328   9.497 -0.5821  0.5690 -0.6570
   86MOL0     H11346   2.138   0.578   9.347  2.0840  1.6014  1.5865
   86MOL0     H11347   2.200   0.511   9.502 -1.0109 -0.2827  0.7257
   86MOL0     H11348   2.088   0.745   9.506  1.7017 -1.1683  0.9847
   86MOL0     H11349   1.951   0.673   9.447 -1.8787 -1.9086  1.3423
   86MOL0     H11350   1.946   0.487   9.823 -0.5767  3.7535  2.2718
   86MOL0     H11351   2.022   0.299   9.016  1.0725  0.5939  3.9298
   86MOL0     H11352   1.894   0.252   8.818  1.4187 -2.9537 -0.1079
   87MOL0     O11353   8.652   6.666  10.354  0.0601 -0.6805  0.8731
   87MOL0     C11354   8.619   6.733  10.456 -0.4066 -0.4576 -0.3244
   87MOL0     O11355   8.487   6.775  10.489  0.0888  0.9600  0.3392
   87MOL0     C11356   8.374   6.747  10.419 -0.0521  1.0929 -0.5538
   87MOL0     C11357   8.363   6.662  10.296 -0.1562  0.3373 -0.4760
   87MOL0     C11358   8.236   6.628  10.255 -0.0034  1.4547 -0.2221
   87MOL0     C11359   8.124   6.673  10.320 -0.1183  0.0956 -0.7642
   87MOL0     O11360   8.011   6.640  10.262  0.6975  0.3101  0.9109
   87MOL0     C11361   7.895   6.685  10.310  0.0844 -0.5354  0.4696
   87MOL0     C11362   7.784   6.621  10.228  0.5099 -1.2862 -0.4884
   87MOL0     C11363   7.648   6.692  10.243  0.1750 -0.2237 -1.2854
   87MOL0     C11364   7.530   6.611  10.178  0.2428  0.2422  0.2313
   87MOL0     C11365   7.408   6.693  10.188  0.9867 -0.0559 -0.1806
   87MOL0     C11366   7.279   6.619  10.129 -1.0490  0.2551 -0.5084
   87MOL0     C11367   7.156   6.696  10.144  0.4382 -0.5496  0.8742
   87MOL0     C11368   7.035   6.608  10.099  0.7311 -0.3260  0.1070
   87MOL0     N11369   6.915   6.661  10.167 -0.0899  0.0827  0.7182
   87MOL0     C11370   6.818   6.733  10.098 -0.4476  1.0212  0.9706
   87MOL0     C11371   6.704   6.713  10.156 -0.1743 -0.8754 -0.1956
   87MOL0     C11372   6.571   6.780  10.126 -0.0936  0.2040  0.4862
   87MOL0     C11373   6.551   6.918  10.185 -0.4789 -0.1740  0.0119
   87MOL0     C11374   6.416   6.977  10.125 -0.0995 -0.2118  0.0305
   87MOL0     C11375   6.384   7.118  10.171  0.2734 -0.3898  0.4806
   87MOL0     O11376   6.271   7.163  10.101 -0.5452  0.3166  0.2212
   87MOL0     C11377   6.261   7.302  10.078  0.3267 -0.0070  0.1983
   87MOL0     C11378   6.176   7.355   9.983 -0.0916 -0.1732  0.4268
   87MOL0     C11379   6.169   7.494   9.958 -0.1804  0.3722  0.7687
   87MOL0     C11380   6.262   7.581  10.021  0.9326  0.2352 -0.0485
   87MOL0     C11381   6.261   7.720   9.982  0.0358 -0.4228  0.8102
   87MOL0     O11382   6.167   7.764   9.889  0.0201  0.5380  0.0299
   87MOL0     C11383   6.145   7.899   9.867 -0.4478  0.9863  0.9947
   87MOL0     C11384   6.108   7.931   9.738  0.3734  0.2694  0.6606
   87MOL0     C11385   6.080   8.059   9.703  0.2228  0.6826  0.3306
   87MOL0     C11386   6.087   8.162   9.793 -0.3601 -0.9370  0.0356
   87MOL0     O11387   6.043   8.286   9.754  0.0664  0.8112 -0.0937
   87MOL0     C11388   5.928   8.338   9.821  0.2059  0.0431 -0.4802
   87MOL0     C11389   5.802   8.274   9.757  0.0320  0.5747  0.1328
   87MOL0     C11390   5.673   8.342   9.796 -0.1931  1.1736  1.2062
   87MOL0     C11391   5.561   8.234   9.768 -0.3570 -0.4263  1.0007
   87MOL0     C11392   5.429   8.294   9.812 -0.5201 -0.4925  0.2768
   87MOL0     C11393   5.324   8.187   9.796 -0.0092 -0.1316 -0.6436
   87MOL0     C11394   5.192   8.241   9.857  0.4739 -0.7268 -0.5165
   87MOL0     C11395   5.073   8.151   9.815 -0.2591  0.4665  0.8459
   87MOL0    Cl11396   5.017   8.187   9.637  0.4959 -0.1406 -0.3621
   87MOL0     C11397   6.135   8.133   9.928 -1.4118 -0.1614  0.7582
   87MOL0     C11398   6.147   7.997   9.961 -0.6687  0.2037  0.8614
   87MOL0     O11399   6.358   7.779  10.029  0.1445 -0.2847 -0.3675
   87MOL0     C11400   6.341   7.525  10.117  0.4788 -0.4345 -0.2685
   87MOL0     C11401   6.335   7.390  10.150 -1.0618 -0.1526 -0.0910
   87MOL0     N11402   6.735   6.633  10.257 -0.2062 -0.5126 -0.6060
   87MOL0     N11403   6.858   6.587  10.262 -0.1056 -0.0078  0.6027
   87MOL0     C11404   8.136   6.764  10.439  0.4240  0.0411  0.0029
   87MOL0     C11405   8.258   6.799  10.494  0.7654  1.1635  0.0025
   87MOL0     C11406   8.720   6.784  10.551  0.3782  0.4751 -0.3076
   87MOL0     C11407   8.847   6.817  10.501  0.5670  1.3974  0.2536
   87MOL0     C11408   8.944   6.876  10.580 -0.2881  0.3305 -0.4713
   87MOL0     C11409   8.912   6.919  10.712 -0.7023 -0.1387  0.4952
   87MOL0     O11410   9.015   6.976  10.781 -0.3073  0.1032 -0.0423
   87MOL0     C11411   8.985   7.009  10.920  1.4563 -0.1526  0.3806
   87MOL0     C11412   9.090   7.076  11.006  0.2309  1.2602  0.1679
   87MOL0     C11413   9.050   7.183  11.102 -1.5284 -0.4315  0.1044
   87MOL0     C11414   9.124   7.178  11.244 -0.0521 -0.0761  1.2851
   87MOL0     C11415   9.266   7.148  11.230 -0.5241  0.9703 -0.9846
   87MOL0     C11416   9.389   7.128  11.247  0.7117  0.1083 -0.1852
   87MOL0     C11417   8.780   6.897  10.752 -0.1333  0.2547  0.1020
   87MOL0     C11418   8.681   6.827  10.676 -0.1528 -0.2465  0.0130
   87MOL0     H11419   8.448   6.638  10.233  0.4115  1.0816 -0.0122
   87MOL0     H11420   8.226   6.559  10.171 -0.5847 -0.6076  1.4651
   87MOL0     H11421   7.886   6.794  10.299  0.3326 -0.3783  1.7435
   87MOL0     H11422   7.875   6.657  10.414  1.0323 -1.7874  0.3236
   87MOL0     H11423   7.764   6.522  10.270 -2.5103  0.6642  3.4118
   87MOL0     H11424   7.815   6.617  10.124 -0.2174  1.0352 -0.8553
   87MOL0     H11425   7.644   6.790  10.194 -0.8855  0.3420 -0.1333
   87MOL0     H11426   7.627   6.709  10.349 -2.0942 -0.0370 -1.7058
   87MOL0     H11427   7.556   6.588  10.074 -2.9699 -2.3931 -0.1387
   87MOL0     H11428   7.517   6.518  10.233 -0.3916  0.5200  0.5670
   87MOL0     H11429   7.418   6.794  10.147  3.3380  0.1539  0.7524
   87MOL0     H11430   7.384   6.706  10.294  2.5749  1.4177  0.0436
   87MOL0     H11431   7.269   6.525  10.183  1.5555  0.2364  0.0844
   87MOL0     H11432   7.301   6.594  10.025  0.3408 -4.3854  0.6850
   87MOL0     H11433   7.148   6.716  10.251  5.5891 -2.2288  1.8609
   87MOL0     H11434   7.152   6.791  10.091 -0.2399  0.2902  2.3696
   87MOL0     H11435   7.051   6.510  10.144  0.2474 -0.6047 -0.3258
   87MOL0     H11436   7.012   6.602   9.993  1.1280 -1.1610  0.0672
   87MOL0     H11437   6.834   6.812  10.025  3.6024 -0.7873 -0.4013
   87MOL0     H11438   6.493   6.710  10.157  1.8281 -1.8354  0.9693
   87MOL0     H11439   6.548   6.801  10.021  0.4473  4.4856  1.0428
   87MOL0     H11440   6.628   6.993  10.166 -1.9083  1.2773 -0.2466
   87MOL0     H11441   6.548   6.896  10.293  2.3217 -2.7895 -0.3066
   87MOL0     H11442   6.417   6.969  10.016  1.1654 -0.5383  0.0519
   87MOL0     H11443   6.343   6.904  10.160  1.1467 -0.3273  2.6604
   87MOL0     H11444   6.469   7.184  10.151  1.9848 -2.3159  1.0882
   87MOL0     H11445   6.372   7.104  10.279 -0.0370 -1.5752  0.3019
   87MOL0     H11446   6.112   7.283   9.933  0.7414 -0.3692 -0.3994
   87MOL0     H11447   6.090   7.534   9.896 -2.6809 -0.9683  2.8396
   87MOL0     H11448   6.105   7.850   9.666  0.2575  0.8790 -0.0357
   87MOL0     H11449   6.059   8.081   9.599 -0.3427 -1.9694 -0.1833
   87MOL0     H11450   5.932   8.445   9.799  0.4071  0.1939  0.2672
   87MOL0     H11451   5.930   8.314   9.928  1.1540  0.4818 -0.3847
   87MOL0     H11452   5.804   8.171   9.796 -1.8968  0.3351 -0.3421
   87MOL0     H11453   5.819   8.272   9.649  3.5161 -5.8157  0.3059
   87MOL0     H11454   5.649   8.433   9.741  1.5379 -0.3950 -2.5279
   87MOL0     H11455   5.679   8.373   9.901  1.9753  3.8342  0.4040
   87MOL0     H11456   5.549   8.226   9.660  0.6445 -0.0920  0.8548
   87MOL0     H11457   5.577   8.132   9.804  0.7489 -0.9923 -0.9664
   87MOL0     H11458   5.401   8.385   9.758  0.2966 -1.8933 -2.7242
   87MOL0     H11459   5.437   8.318   9.919 -1.3834  1.3589 -0.0367
   87MOL0     H11460   5.351   8.098   9.854 -4.2316 -1.1971  0.0554
   87MOL0     H11461   5.304   8.162   9.692 -3.7466 -2.4760  0.4045
   87MOL0     H11462   5.184   8.247   9.966 -3.0123  3.1258 -0.7656
   87MOL0     H11463   5.179   8.347   9.832 -3.7547 -1.2744 -1.4177
   87MOL0     H11464   4.983   8.170   9.874 -1.4646  0.8006 -1.0230
   87MOL0     H11465   5.098   8.045   9.804 -1.3226  0.4287 -2.5050
   87MOL0     H11466   6.151   8.216   9.996 -1.4184  0.6001 -0.1539
   87MOL0     H11467   6.168   7.968  10.064  0.5596 -0.5006  0.4399
   87MOL0     H11468   6.408   7.591  10.172  0.1747 -1.0357  0.8431
   87MOL0     H11469   6.403   7.358  10.229 -1.0868  1.2215  0.5141
   87MOL0     H11470   8.043   6.798  10.482  0.3277 -1.0306  0.6462
   87MOL0     H11471   8.271   6.860  10.582  1.4998  0.1592  0.6109
   87MOL0     H11472   8.859   6.805  10.394 -3.6290  1.0111 -0.3183
   87MOL0     H11473   9.040   6.907  10.541  0.5924 -2.5846 -0.7847
   87MOL0     H11474   8.948   6.915  10.961  1.4768  0.6491  2.3130
   87MOL0     H11475   8.897   7.073  10.907  0.9105 -0.8624  0.5132
   87MOL0     H11476   9.134   6.987  11.052 -1.8416  0.3304  0.4780
   87MOL0     H11477   9.157   7.132  10.940 -1.1079  2.9751  0.1816
   87MOL0     H11478   8.947   7.159  11.126 -0.6500 -3.2811  1.3711
   87MOL0     H11479   9.053   7.277  11.045  1.4798  0.5672  1.6585
   87MOL0     H11480   9.101   7.275  11.291 -4.5192 -0.5024  0.3768
   87MOL0     H11481   9.081   7.096  11.302 -2.6906 -2.1089 -3.0620
   87MOL0     H11482   9.495   7.130  11.264  0.4800  1.4042  1.3602
   87MOL0     H11483   8.741   6.932  10.847  0.9717  2.0426 -0.0618
   87MOL0     H11484   8.582   6.801  10.712  0.7468 -1.0051  2.0710
   88MOL0     O11485   6.452  11.003   4.184  0.3132  0.6319  0.0929
   88MOL0     C11486   6.465  10.970   4.062 -0.5884  0.2182 -0.8819
   88MOL0     O11487   6.408  10.857   4.009 -0.1350  0.0752  0.9665
   88MOL0     C11488   6.334  10.788   4.098 -0.6937  0.2066 -0.0261
   88MOL0     C11489   6.197  10.815   4.120 -0.4816 -0.0980  0.6861
   88MOL0     C11490   6.134  10.758   4.232  0.1851  0.0096 -0.5756
   88MOL0     C11491   6.208  10.672   4.315 -0.0798 -0.5918  0.0856
   88MOL0     O11492   6.179  10.629   4.440 -0.1808 -0.2348 -0.5937
   88MOL0     C11493   6.042  10.608   4.488  1.0878 -0.3461  0.6650
   88MOL0     C11494   6.043  10.596   4.643 -0.3664 -0.6827  0.0857
   88MOL0     C11495   5.916  10.523   4.703 -0.1471 -0.3387 -0.4046
   88MOL0     C11496   5.946  10.513   4.858 -0.0575  0.1197  1.4888
   88MOL0     C11497   5.817  10.467   4.929 -0.4713  0.0635  0.5882
   88MOL0     C11498   5.834  10.465   5.079  0.3495 -0.5795 -0.3262
   88MOL0     C11499   5.705  10.414   5.151 -0.8050  0.3046 -0.1059
   88MOL0     C11500   5.652  10.283   5.095 -0.3866  0.2270  0.2595
   88MOL0     N11501   5.538  10.234   5.169  0.4665 -0.6333  0.0440
   88MOL0     C11502   5.548  10.142   5.268  0.2841  0.2767  0.0519
   88MOL0     C11503   5.420  10.119   5.301  0.0333 -0.0578 -0.6647
   88MOL0     C11504   5.385  10.012   5.397 -0.6052  0.3696 -0.0479
   88MOL0     C11505   5.415  10.053   5.538 -0.2205 -0.9476  0.2525
   88MOL0     C11506   5.329  10.173   5.587  0.1534 -0.0834 -0.5492
   88MOL0     C11507   5.179  10.177   5.560 -0.3131 -0.6326 -0.5474
   88MOL0     O11508   5.130  10.057   5.618 -0.2125 -0.5047  0.2376
   88MOL0     C11509   5.003  10.070   5.672 -0.2507 -0.0790  0.1710
   88MOL0     C11510   4.971  10.154   5.782  0.6049 -0.3776  0.1638
   88MOL0     C11511   4.841  10.159   5.839  0.7312  0.7979 -0.5990
   88MOL0     C11512   4.748  10.062   5.803  0.5379 -0.1740  0.3455
   88MOL0     C11513   4.610  10.074   5.854  0.3033  0.0554 -0.0908
   88MOL0     O11514   4.596  10.151   5.966 -0.3012  0.2386 -0.2412
   88MOL0     C11515   4.472  10.154   6.031 -0.0068 -0.3752  0.5796
   88MOL0     C11516   4.436  10.071   6.121 -0.7858  0.4832 -0.3635
   88MOL0     C11517   4.320  10.094   6.202  0.4719  0.5165 -0.3853
   88MOL0     C11518   4.247  10.213   6.199 -0.0306  0.5521  0.3559
   88MOL0     O11519   4.138  10.231   6.284  0.6767  0.0864 -0.4228
   88MOL0     C11520   4.063  10.351   6.268 -0.5138 -0.2940 -0.6831
   88MOL0     C11521   3.947  10.363   6.361  0.7229  0.4418 -0.0007
   88MOL0     C11522   3.878  10.501   6.376 -0.0583 -0.6798 -0.0988
   88MOL0     C11523   3.761  10.489   6.470 -0.0715 -0.0865  0.1969
   88MOL0     C11524   3.721  10.623   6.530  0.2354  0.1042 -0.4756
   88MOL0     C11525   3.584  10.613   6.598  1.2570 -0.2116 -0.9249
   88MOL0     C11526   3.530  10.732   6.679 -0.6688  0.4699 -0.5356
   88MOL0     C11527   3.384  10.724   6.734  0.4511  0.8065  0.2780
   88MOL0    Cl11528   3.279  10.735   6.589 -0.2477  0.4769 -0.5835
   88MOL0     C11529   4.292  10.303   6.100 -0.0824 -0.5594 -0.3986
   88MOL0     C11530   4.395  10.276   6.007  0.5877 -0.8088 -0.7522
   88MOL0     O11531   4.512  10.012   5.799 -0.6615 -0.3326  0.1982
   88MOL0     C11532   4.775   9.985   5.685  0.3982  0.3405 -0.1205
   88MOL0     C11533   4.899   9.989   5.624  1.2183 -0.5961  0.2668
   88MOL0     N11534   5.341  10.202   5.235 -0.0481 -0.2286 -0.8013
   88MOL0     N11535   5.411  10.274   5.156  0.6915  0.1931  0.0812
   88MOL0     C11536   6.333  10.627   4.273  0.0832 -0.2524 -0.1298
   88MOL0     C11537   6.405  10.681   4.161 -0.7814  0.1460  0.2118
   88MOL0     C11538   6.555  11.060   3.983 -0.0982  0.3314  0.1471
   88MOL0     C11539   6.656  11.152   4.038 -0.2003  0.0389  0.2936
   88MOL0     C11540   6.736  11.238   3.947  0.9098 -1.0152 -0.1949
   88MOL0     C11541   6.717  11.225   3.808  0.2813 -0.4541 -0.1284
   88MOL0     O11542   6.794  11.312   3.729  0.1805  0.2039 -0.1481
   88MOL0     C11543   6.866  11.243   3.631 -0.0245 -0.0427  0.6451
   88MOL0     C11544   7.013  11.256   3.668 -0.6958  0.3514 -0.1616
   88MOL0     C11545   7.071  11.374   3.597 -0.0981  0.8358 -0.6070
   88MOL0     C11546   7.215  11.404   3.630  0.0271 -0.4046 -0.5412
   88MOL0     C11547   7.231  11.436   3.773  0.0386 -0.9218  0.2731
   88MOL0     C11548   7.233  11.479   3.884 -0.4662 -0.4009  0.1686
   88MOL0     C11549   6.621  11.136   3.755 -0.7268  0.5415 -0.6847
   88MOL0     C11550   6.535  11.056   3.835 -0.7957  0.0420  0.1413
   88MOL0     H11551   6.162  10.893   4.053  0.3167 -0.6811 -0.4515
   88MOL0     H11552   6.032  10.794   4.243  1.2229  3.0363  0.2477
   88MOL0     H11553   5.999  10.512   4.456 -2.6724  1.6967 -1.1025
   88MOL0     H11554   5.970  10.689   4.470 -0.6105 -1.2177  2.9856
   88MOL0     H11555   6.050  10.701   4.675  0.2756 -1.2407  1.9500
   88MOL0     H11556   6.128  10.546   4.691  0.5940 -0.0011 -0.8549
   88MOL0     H11557   5.926  10.428   4.650 -0.7616  0.5393 -2.1532
   88MOL0     H11558   5.817  10.565   4.688 -1.4485 -2.8146  0.5470
   88MOL0     H11559   6.026  10.439   4.864  1.0228  1.2818  1.8260
   88MOL0     H11560   5.977  10.607   4.903 -1.2205  0.4355  1.6662
   88MOL0     H11561   5.801  10.367   4.887 -0.8574  1.4710 -2.9484
   88MOL0     H11562   5.738  10.538   4.905 -0.8284 -0.9041 -1.3063
   88MOL0     H11563   5.849  10.568   5.113  0.6540 -1.2643  1.7522
   88MOL0     H11564   5.918  10.402   5.109 -0.0983 -0.2500  1.7705
   88MOL0     H11565   5.711  10.406   5.260 -0.5219  1.4764 -0.0275
   88MOL0     H11566   5.623  10.484   5.135 -1.1301  0.3324  1.4918
   88MOL0     H11567   5.735  10.212   5.104 -0.0290  0.5963 -0.1067
   88MOL0     H11568   5.630  10.303   4.990  1.1563 -0.8157 -0.3051
   88MOL0     H11569   5.642  10.106   5.309 -0.9214  1.0524  3.9398
   88MOL0     H11570   5.443   9.925   5.363 -1.9982 -0.6845  0.1856
   88MOL0     H11571   5.280   9.987   5.380 -0.5629  0.4447 -0.4300
   88MOL0     H11572   5.519  10.084   5.534 -0.7885  0.9811 -2.5480
   88MOL0     H11573   5.401   9.966   5.603  1.0842 -0.9182  0.5956
   88MOL0     H11574   5.328  10.182   5.696 -3.4192 -1.9127 -0.3062
   88MOL0     H11575   5.366  10.264   5.539  0.5276  1.5581  2.5835
   88MOL0     H11576   5.156  10.186   5.453  0.4496 -0.3794 -0.6954
   88MOL0     H11577   5.132  10.264   5.607 -1.1228 -0.9251 -0.7975
   88MOL0     H11578   5.045  10.223   5.821  1.7673 -0.7194 -1.3716
   88MOL0     H11579   4.812  10.219   5.925 -0.7760  0.0663 -0.5618
   88MOL0     H11580   4.498   9.984   6.142 -3.7075 -1.9505 -1.1514
   88MOL0     H11581   4.285  10.028   6.281  0.5965 -0.3218 -1.0116
   88MOL0     H11582   4.039  10.373   6.163  3.6118  0.9120 -1.5585
   88MOL0     H11583   4.124  10.435   6.303 -0.3153 -0.2890 -1.0424
   88MOL0     H11584   3.974  10.323   6.459 -0.0433  0.4464  0.2182
   88MOL0     H11585   3.872  10.293   6.321 -0.4126 -1.0699  4.2185
   88MOL0     H11586   3.840  10.545   6.283 -1.9912 -1.1168  0.4545
   88MOL0     H11587   3.960  10.569   6.403  0.7402 -1.7252  0.1730
   88MOL0     H11588   3.681  10.444   6.409 -0.1809 -1.4436  1.2718
   88MOL0     H11589   3.782  10.421   6.553 -0.3842  0.8461  1.0556
   88MOL0     H11590   3.729  10.702   6.454  1.6564  1.3955  0.9416
   88MOL0     H11591   3.803  10.637   6.600  4.5254  3.0555 -5.3513
   88MOL0     H11592   3.579  10.529   6.667  0.1200  1.5857  1.3306
   88MOL0     H11593   3.513  10.594   6.517 -1.6433 -0.9593  1.5708
   88MOL0     H11594   3.597  10.757   6.762  1.1885  1.5323 -2.2800
   88MOL0     H11595   3.535  10.817   6.611 -1.5661 -0.2406 -1.5259
   88MOL0     H11596   3.358  10.805   6.803  0.8003  2.5225 -1.5280
   88MOL0     H11597   3.386  10.630   6.789  2.9172  1.4179  1.3782
   88MOL0     H11598   4.249  10.402   6.089 -0.3761 -0.6999 -0.5519
   88MOL0     H11599   4.428  10.340   5.927 -1.9238  0.5023 -0.8237
   88MOL0     H11600   4.700   9.920   5.640 -0.4789  1.4556 -0.3166
   88MOL0     H11601   4.906   9.923   5.538 -0.6576 -1.0307  0.3998
   88MOL0     H11602   6.370  10.542   4.330 -0.1605  0.3807  1.0077
   88MOL0     H11603   6.506  10.648   4.140 -1.1695 -1.3743  0.6254
   88MOL0     H11604   6.678  11.154   4.144  0.6555 -2.1604  0.2179
   88MOL0     H11605   6.816  11.305   3.975  0.3161 -0.7069  0.8336
   88MOL0     H11606   6.848  11.288   3.533 -1.7904 -0.0097  0.9359
   88MOL0     H11607   6.847  11.135   3.624 -0.7049  0.0130  1.4749
   88MOL0     H11608   7.022  11.258   3.777 -1.4030  0.9851 -0.1100
   88MOL0     H11609   7.058  11.163   3.630 -1.1541 -0.2802  0.8204
   88MOL0     H11610   7.015  11.465   3.620 -0.8022  1.3654 -3.9426
   88MOL0     H11611   7.050  11.348   3.493  0.4730 -2.0634 -0.0660
   88MOL0     H11612   7.282  11.324   3.597  2.6327  0.0241  3.1851
   88MOL0     H11613   7.228  11.489   3.562 -3.7657 -1.0157 -2.3062
   88MOL0     H11614   7.246  11.510   3.986 -2.4266  1.8861 -0.1803
   88MOL0     H11615   6.614  11.124   3.647  0.0909 -0.5851 -0.6380
   88MOL0     H11616   6.474  10.980   3.787  0.8550  0.0707 -2.1369
   89MOL0     O11617   3.481   0.279   3.277  0.4517  0.3865 -0.0860
   89MOL0     C11618   3.499   0.188   3.209 -0.6667  0.5438  0.0390
   89MOL0     O11619   3.398   0.127   3.140 -0.1977 -0.1670 -0.1811
   89MOL0     C11620   3.269   0.132   3.185  0.7148  0.5157 -0.6381
   89MOL0     C11621   3.177   0.235   3.161  0.6536  0.1901 -0.8203
   89MOL0     C11622   3.047   0.242   3.220  0.5271 -0.2817 -1.1792
   89MOL0     C11623   3.003   0.143   3.309 -0.1408  0.3476 -1.1798
   89MOL0     O11624   2.869   0.160   3.351  0.2491  0.0059  0.1013
   89MOL0     C11625   2.792   0.047   3.370  0.0438  0.9243  0.9775
   89MOL0     C11626   2.789   0.001   3.512  0.4729  0.3874 -0.0482
   89MOL0     C11627   2.738  -0.146   3.513 -0.2002 -0.6639 -0.7363
   89MOL0     C11628   2.739  -0.208   3.652 -0.5534 -0.0866 -0.5879
   89MOL0     C11629   2.649  -0.149   3.764  0.0965 -1.2123  0.3580
   89MOL0     C11630   2.650  -0.209   3.903 -0.5081  0.8871 -0.1336
   89MOL0     C11631   2.592  -0.351   3.907 -0.5642 -0.6671 -0.4031
   89MOL0     C11632   2.636  -0.418   4.044 -1.1897  0.3572 -0.2931
   89MOL0     N11633   2.583  -0.553   4.061  0.5186 -0.9744 -0.9242
   89MOL0     C11634   2.590  -0.655   3.980  0.9216  0.8853 -0.0521
   89MOL0     C11635   2.498  -0.741   4.032 -0.6512  0.1730 -0.3328
   89MOL0     C11636   2.468  -0.880   3.974 -0.1481  0.1612  0.0672
   89MOL0     C11637   2.481  -0.983   4.080  0.1470 -0.0875 -0.2515
   89MOL0     C11638   2.353  -1.045   4.128 -0.3371 -0.4938 -0.6866
   89MOL0     C11639   2.237  -0.958   4.171  0.1392 -0.6048  0.5351
   89MOL0     O11640   2.128  -1.043   4.212  0.6037  0.0293  0.7454
   89MOL0     C11641   2.003  -0.999   4.185 -0.0315 -0.9285 -0.3253
   89MOL0     C11642   1.904  -1.096   4.165  0.2050 -0.0638 -0.9791
   89MOL0     C11643   1.770  -1.063   4.140 -0.7644  0.6368  0.1290
   89MOL0     C11644   1.739  -0.929   4.122  0.5643  0.1535 -0.5335
   89MOL0     C11645   1.599  -0.882   4.085 -0.7831  0.2953 -0.2914
   89MOL0     O11646   1.501  -0.974   4.065  0.0224  0.0676  0.3719
   89MOL0     C11647   1.379  -0.931   4.006 -0.5009  1.0856  0.2576
   89MOL0     C11648   1.264  -1.007   4.048  0.3000  0.0585  0.1088
   89MOL0     C11649   1.135  -0.965   4.006 -0.1759 -0.2362 -0.0791
   89MOL0     C11650   1.124  -0.859   3.920 -0.5483 -0.1910  0.5641
   89MOL0     O11651   1.000  -0.816   3.876 -0.6248  0.0542  0.6839
   89MOL0     C11652   0.879  -0.890   3.894 -0.8746  0.2762  0.5527
   89MOL0     C11653   0.762  -0.827   3.814 -0.4144  0.5640  0.3854
   89MOL0     C11654   0.715  -0.712   3.897  0.2272  0.4949 -0.2947
   89MOL0     C11655   0.598  -0.649   3.834 -0.2055 -0.3339  0.2410
   89MOL0     C11656   0.490  -0.726   3.769 -0.3856 -0.3472  0.0554
   89MOL0     C11657   0.431  -0.836   3.854 -0.1945 -0.0360  0.7018
   89MOL0     C11658   0.294  -0.869   3.800 -0.7021  0.4145  0.1662
   89MOL0     C11659   0.217  -0.957   3.896  0.0986 -0.2662 -0.7009
   89MOL0    Cl11660   0.047  -0.945   3.845 -0.0445  0.0105  0.1671
   89MOL0     C11661   1.233  -0.785   3.879  0.5528 -0.1637 -0.3907
   89MOL0     C11662   1.359  -0.824   3.923 -0.5466 -0.2998 -0.9025
   89MOL0     O11663   1.584  -0.762   4.087 -0.7064 -0.6411 -0.6865
   89MOL0     C11664   1.834  -0.829   4.156  0.4225 -0.9123 -0.9225
   89MOL0     C11665   1.968  -0.859   4.191  0.6074 -0.1839 -1.2982
   89MOL0     N11666   2.429  -0.687   4.142  0.1287 -0.4424  0.3503
   89MOL0     N11667   2.492  -0.575   4.159 -0.0790  0.8323  0.6781
   89MOL0     C11668   3.093   0.034   3.343 -0.2892 -0.1601 -0.2937
   89MOL0     C11669   3.220   0.038   3.272  0.4138 -0.0743  0.3439
   89MOL0     C11670   3.634   0.149   3.176 -0.5831  0.2916  0.4975
   89MOL0     C11671   3.747   0.220   3.236  0.4740  0.2028  0.6998
   89MOL0     C11672   3.880   0.181   3.203 -0.4670  0.3956 -0.1417
   89MOL0     C11673   3.901   0.068   3.124  0.7177  0.3260 -0.2157
   89MOL0     O11674   4.026   0.032   3.099 -0.4640 -1.2350 -0.2011
   89MOL0     C11675   4.049  -0.116   3.091  0.6025 -0.4959  0.0625
   89MOL0     C11676   4.197  -0.146   3.085 -0.0559 -0.6560  0.4935
   89MOL0     C11677   4.274  -0.107   3.216  1.2097  0.2199  0.5063
   89MOL0     C11678   4.403  -0.181   3.253  0.0606  1.0583 -0.2599
   89MOL0     C11679   4.520  -0.121   3.183 -0.1119  0.0888 -0.2296
   89MOL0     C11680   4.612  -0.074   3.120 -0.3426 -0.0025 -0.2994
   89MOL0     C11681   3.798   0.008   3.056 -0.5938  0.7822 -0.4769
   89MOL0     C11682   3.669   0.048   3.086  0.3759  0.8124 -1.1340
   89MOL0     H11683   3.206   0.318   3.097  0.0168  0.1356 -1.1820
   89MOL0     H11684   2.972   0.311   3.185  0.3687  0.5494  0.6808
   89MOL0     H11685   2.825  -0.034   3.303 -2.5615  0.9045 -0.4393
   89MOL0     H11686   2.690   0.073   3.338 -0.0837 -1.2999 -0.7370
   89MOL0     H11687   2.716   0.058   3.571 -1.2305 -4.2211  2.8216
   89MOL0     H11688   2.890   0.018   3.552  0.8938  1.8049 -1.5831
   89MOL0     H11689   2.809  -0.206   3.456  1.0758 -0.3599  0.4573
   89MOL0     H11690   2.640  -0.159   3.468  0.0551 -3.0376 -0.7649
   89MOL0     H11691   2.703  -0.311   3.642  1.2787 -1.0450  1.8680
   89MOL0     H11692   2.843  -0.200   3.684 -1.1096  6.0932  1.0178
   89MOL0     H11693   2.546  -0.139   3.729  0.7932  3.5972 -1.0264
   89MOL0     H11694   2.686  -0.048   3.780 -0.3108 -1.1528  0.9408
   89MOL0     H11695   2.600  -0.140   3.971 -0.1780 -1.0332  2.1998
   89MOL0     H11696   2.755  -0.211   3.932 -0.7038  2.3141  0.7558
   89MOL0     H11697   2.483  -0.354   3.897 -0.7625  3.3888 -1.0497
   89MOL0     H11698   2.642  -0.404   3.825  1.6537 -0.0649  0.4709
   89MOL0     H11699   2.620  -0.351   4.129  2.7170  2.8705 -1.2952
   89MOL0     H11700   2.745  -0.432   4.048 -0.9310  2.2819  2.1617
   89MOL0     H11701   2.653  -0.665   3.892  1.1505 -5.5154  0.4129
   89MOL0     H11702   2.530  -0.903   3.886 -0.1207  0.0478  0.1164
   89MOL0     H11703   2.374  -0.885   3.918 -0.7899  1.8840  0.9192
   89MOL0     H11704   2.527  -0.948   4.172 -3.6218  2.4047  0.9441
   89MOL0     H11705   2.536  -1.063   4.028 -0.8536 -0.7113 -0.3902
   89MOL0     H11706   2.330  -1.105   4.039  0.2622  0.0206 -1.1939
   89MOL0     H11707   2.397  -1.101   4.211  0.6487 -1.9772 -2.1287
   89MOL0     H11708   2.209  -0.889   4.091  0.4325 -1.1753 -0.0659
   89MOL0     H11709   2.265  -0.889   4.252 -1.5594  1.1034 -0.2432
   89MOL0     H11710   1.949  -1.189   4.198  0.1382  0.2747  0.1145
   89MOL0     H11711   1.686  -1.128   4.122 -0.7071  1.1619 -2.3975
   89MOL0     H11712   1.271  -1.097   4.109 -2.1723 -0.7218 -0.6348
   89MOL0     H11713   1.039  -1.009   4.032  0.4019 -0.2068  2.4337
   89MOL0     H11714   0.857  -0.894   4.002 -1.3283  0.3580  0.4670
   89MOL0     H11715   0.880  -0.994   3.859  1.3536  1.1119 -2.1483
   89MOL0     H11716   0.693  -0.911   3.810 -0.8531  0.8701  1.2556
   89MOL0     H11717   0.806  -0.809   3.716 -0.0277  1.8267  0.7738
   89MOL0     H11718   0.792  -0.641   3.930 -1.5410  1.7759  1.3280
   89MOL0     H11719   0.682  -0.759   3.990 -0.0902  1.3159  0.0189
   89MOL0     H11720   0.563  -0.569   3.900  1.4708 -0.6589  1.6004
   89MOL0     H11721   0.630  -0.587   3.750 -3.2878 -0.2183 -1.0046
   89MOL0     H11722   0.525  -0.787   3.685  1.6477 -0.3485  0.8441
   89MOL0     H11723   0.417  -0.652   3.737 -0.6886 -0.2655  0.9239
   89MOL0     H11724   0.426  -0.811   3.960 -1.1213 -1.3652  0.9989
   89MOL0     H11725   0.497  -0.921   3.835 -0.5422  0.2492 -2.4998
   89MOL0     H11726   0.233  -0.780   3.777  0.5782  0.5620 -3.2918
   89MOL0     H11727   0.308  -0.924   3.707 -1.7681  3.1207 -1.7496
   89MOL0     H11728   0.223  -0.902   3.990  0.4041 -1.8184  0.2241
   89MOL0     H11729   0.231  -1.065   3.898 -3.0030 -0.8311 -2.5196
   89MOL0     H11730   1.214  -0.706   3.807  1.8724  0.3285 -0.2387
   89MOL0     H11731   1.446  -0.775   3.881  0.5242 -0.4860  0.9420
   89MOL0     H11732   1.793  -0.728   4.159  1.1753 -0.4188 -3.8307
   89MOL0     H11733   2.043  -0.783   4.215  2.5020 -2.5772  0.9233
   89MOL0     H11734   3.090  -0.050   3.411 -3.8216 -1.8638 -2.2747
   89MOL0     H11735   3.290  -0.043   3.293  0.6432 -0.3334 -1.3369
   89MOL0     H11736   3.736   0.303   3.305 -0.6503  0.4614  0.2394
   89MOL0     H11737   3.966   0.236   3.239 -0.6497  1.1218 -0.7760
   89MOL0     H11738   4.007  -0.161   3.001  0.7729 -0.2499 -0.1417
   89MOL0     H11739   4.014  -0.176   3.176 -0.7225  1.0222  0.6426
   89MOL0     H11740   4.207  -0.254   3.070  2.1501 -0.2457 -1.6460
   89MOL0     H11741   4.246  -0.098   2.999 -2.0029 -2.8065 -1.9943
   89MOL0     H11742   4.196  -0.134   3.288  0.1979 -0.5036 -0.8213
   89MOL0     H11743   4.294   0.000   3.212 -2.2113  1.0004  1.2681
   89MOL0     H11744   4.421  -0.191   3.360 -1.0643 -1.0412 -0.2095
   89MOL0     H11745   4.382  -0.282   3.214 -3.9477  0.7359  2.1975
   89MOL0     H11746   4.699  -0.019   3.091  0.7547 -1.4880  0.0729
   89MOL0     H11747   3.827  -0.066   2.981  2.5998 -0.2329  1.5486
   89MOL0     H11748   3.589   0.010   3.023 -0.6796 -0.7980  1.0371
   90MOL0     O11749   8.223   4.630   7.059 -0.3323 -0.1307 -0.5677
   90MOL0     C11750   8.233   4.582   6.947  0.0956  0.1160  0.3444
   90MOL0     O11751   8.124   4.571   6.854  0.1232  0.4420 -0.0033
   90MOL0     C11752   8.004   4.589   6.920 -0.2000 -0.0905  0.2624
   90MOL0     C11753   7.932   4.474   6.955  0.5606 -0.2625 -0.0369
   90MOL0     C11754   7.814   4.489   7.022  0.9129  0.8120  0.7124
   90MOL0     C11755   7.762   4.606   7.054  0.4493 -0.1610  0.3877
   90MOL0     O11756   7.638   4.609   7.109  0.4414  0.2033 -0.4028
   90MOL0     C11757   7.539   4.691   7.047 -0.5018  0.9907 -0.1951
   90MOL0     C11758   7.457   4.609   6.945 -0.1437 -0.3791  0.2532
   90MOL0     C11759   7.351   4.517   7.017  0.0974 -0.6164 -0.2863
   90MOL0     C11760   7.401   4.408   7.111  0.0873 -0.7242 -0.1843
   90MOL0     C11761   7.300   4.323   7.173  0.3223  0.5957  0.2192
   90MOL0     C11762   7.289   4.186   7.115 -0.7065  0.5615  1.3805
   90MOL0     C11763   7.404   4.096   7.181 -0.1630 -0.1231  0.7694
   90MOL0     C11764   7.337   3.960   7.235 -0.6311 -0.5346  0.2920
   90MOL0     N11765   7.265   3.895   7.121 -0.9195 -0.8047 -0.7938
   90MOL0     C11766   7.316   3.864   6.998 -0.3602  0.6731  0.4964
   90MOL0     C11767   7.227   3.783   6.936 -0.7566 -0.7409  0.2656
   90MOL0     C11768   7.236   3.728   6.793 -0.1403  0.5033 -0.3776
   90MOL0     C11769   7.165   3.812   6.683  0.3843 -0.1029 -0.1747
   90MOL0     C11770   7.236   3.952   6.678 -0.4011  0.4533  0.7803
   90MOL0     C11771   7.167   4.039   6.583  0.4404  0.6369 -0.8375
   90MOL0     O11772   7.038   4.052   6.640 -0.1117 -0.0521  0.5103
   90MOL0     C11773   7.004   4.170   6.717  0.7028  0.7946  0.1969
   90MOL0     C11774   7.044   4.196   6.847 -0.3560  0.4711 -0.7744
   90MOL0     C11775   7.020   4.317   6.912  0.1008  0.6027  0.3805
   90MOL0     C11776   6.953   4.419   6.844 -0.7585  0.1823  0.0030
   90MOL0     C11777   6.940   4.544   6.918 -0.1251  0.0085 -1.1040
   90MOL0     O11778   6.825   4.612   6.885  0.6333 -0.4783  0.2909
   90MOL0     C11779   6.792   4.712   6.977 -0.5371  0.4288 -0.2906
   90MOL0     C11780   6.810   4.717   7.120 -0.1611  1.1649  0.4861
   90MOL0     C11781   6.760   4.826   7.201 -0.2649  0.1820 -0.7382
   90MOL0     C11782   6.700   4.930   7.134  0.1866  0.3551 -0.7005
   90MOL0     O11783   6.662   5.038   7.208  0.1772 -0.7798  0.4327
   90MOL0     C11784   6.770   5.119   7.248 -0.1666 -1.0391  0.4211
   90MOL0     C11785   6.757   5.253   7.158  0.5094 -0.0558 -0.2594
   90MOL0     C11786   6.809   5.372   7.225 -0.5469 -0.4030 -0.8934
   90MOL0     C11787   6.964   5.377   7.227  0.1473  0.5899  0.3505
   90MOL0     C11788   7.020   5.505   7.286  0.1032 -0.9513 -0.1943
   90MOL0     C11789   6.989   5.538   7.434  0.2521 -0.1376  0.3265
   90MOL0     C11790   7.070   5.670   7.474  0.6328  0.1153 -0.9090
   90MOL0     C11791   7.043   5.719   7.617  0.1169  0.2075 -0.1029
   90MOL0    Cl11792   6.880   5.745   7.667 -0.2453  0.2715  0.5924
   90MOL0     C11793   6.686   4.925   6.994 -0.7400  0.1336 -0.0681
   90MOL0     C11794   6.726   4.813   6.918  0.9643  0.4434 -0.8292
   90MOL0     O11795   7.021   4.586   7.004  0.2871 -0.2986  0.1699
   90MOL0     C11796   6.902   4.391   6.719  0.5042  0.3533 -0.1808
   90MOL0     C11797   6.930   4.266   6.657 -0.5946 -0.2141 -0.0638
   90MOL0     N11798   7.122   3.774   7.032  0.4295  1.0959 -0.2707
   90MOL0     N11799   7.144   3.848   7.139  0.1117 -0.1420  0.4808
   90MOL0     C11800   7.834   4.727   7.020 -0.2620  0.1793 -0.5640
   90MOL0     C11801   7.955   4.717   6.943  0.0965  0.8758  1.2806
   90MOL0     C11802   8.360   4.535   6.893 -0.0467  0.3889  0.9855
   90MOL0     C11803   8.483   4.578   6.940 -0.2087 -0.0635 -0.7062
   90MOL0     C11804   8.598   4.524   6.892 -0.4099  0.7955  0.6639
   90MOL0     C11805   8.599   4.423   6.788 -0.0706  0.9506 -0.2554
   90MOL0     O11806   8.706   4.358   6.745 -0.2789 -0.0827 -0.1708
   90MOL0     C11807   8.829   4.408   6.764 -0.0782  0.3279 -0.1317
   90MOL0     C11808   8.898   4.325   6.874 -0.3696 -0.2091  0.3584
   90MOL0     C11809   9.023   4.406   6.930 -0.8590 -0.6467 -0.1782
   90MOL0     C11810   9.150   4.405   6.829 -0.7860  0.2202  0.0890
   90MOL0     C11811   9.168   4.269   6.777 -0.1895 -0.1692 -0.2302
   90MOL0     C11812   9.189   4.158   6.741 -0.1497  0.5491  0.0308
   90MOL0     C11813   8.476   4.382   6.737 -0.3861 -0.5167 -0.4280
   90MOL0     C11814   8.355   4.441   6.784  0.1918 -0.4622 -0.9465
   90MOL0     H11815   7.978   4.376   6.941  0.1874 -0.2065 -1.9353
   90MOL0     H11816   7.753   4.402   7.045  1.8470 -1.3611 -3.8819
   90MOL0     H11817   7.580   4.779   6.997  2.3688  0.3314  0.8140
   90MOL0     H11818   7.485   4.738   7.130 -0.7919  2.1336 -1.0149
   90MOL0     H11819   7.525   4.542   6.891  0.9731 -0.5917  1.8556
   90MOL0     H11820   7.417   4.688   6.881  1.4442 -1.4768 -2.2297
   90MOL0     H11821   7.277   4.476   6.946  1.7780 -2.2996 -1.1597
   90MOL0     H11822   7.287   4.579   7.081  1.4003 -0.4914  0.9295
   90MOL0     H11823   7.472   4.338   7.065 -0.9316 -1.1636 -1.1175
   90MOL0     H11824   7.449   4.454   7.198 -1.5395  1.5885 -0.4162
   90MOL0     H11825   7.202   4.370   7.163 -0.2026 -0.6717 -0.7352
   90MOL0     H11826   7.320   4.311   7.280  0.3304  3.4977  0.6209
   90MOL0     H11827   7.288   4.194   7.005  0.2919 -0.1655  1.2993
   90MOL0     H11828   7.190   4.150   7.144 -0.6342 -1.6778 -0.8020
   90MOL0     H11829   7.472   4.074   7.099 -1.8076  1.4726 -1.1213
   90MOL0     H11830   7.449   4.153   7.263 -1.5676 -2.3531  3.2415
   90MOL0     H11831   7.264   3.992   7.310  0.4725 -1.7277  1.9508
   90MOL0     H11832   7.415   3.898   7.280  2.3878  1.2137 -2.1157
   90MOL0     H11833   7.415   3.884   6.959 -0.6735  2.7778  0.6812
   90MOL0     H11834   7.208   3.623   6.805  3.8286 -0.5842  0.7357
   90MOL0     H11835   7.339   3.720   6.758 -0.5845  1.2274 -1.9689
   90MOL0     H11836   7.060   3.832   6.703  0.3717 -0.7035  0.4077
   90MOL0     H11837   7.172   3.762   6.587  1.0554  1.3204 -0.9054
   90MOL0     H11838   7.243   4.000   6.776  0.4425  1.7064  0.1354
   90MOL0     H11839   7.338   3.933   6.646 -0.7157 -0.1207  0.0922
   90MOL0     H11840   7.153   3.979   6.492 -0.7176 -1.1715  0.4705
   90MOL0     H11841   7.217   4.134   6.562 -1.9998  2.2022 -0.0377
   90MOL0     H11842   7.082   4.112   6.905 -0.4227  1.8133  1.3156
   90MOL0     H11843   7.045   4.324   7.017 -0.0036 -2.9905  0.7971
   90MOL0     H11844   6.840   4.624   7.168 -2.7286  0.1543  0.2988
   90MOL0     H11845   6.759   4.813   7.308 -0.4518  0.6595 -0.6821
   90MOL0     H11846   6.871   5.079   7.233 -0.5110 -2.4506  1.6633
   90MOL0     H11847   6.760   5.149   7.352  1.4350 -0.7291  0.4991
   90MOL0     H11848   6.655   5.281   7.129 -0.0933  0.2714  2.0278
   90MOL0     H11849   6.813   5.235   7.065  3.1285 -2.2458  1.5910
   90MOL0     H11850   6.768   5.374   7.326 -1.0076  4.3438 -0.9335
   90MOL0     H11851   6.773   5.465   7.180 -1.1751  0.5255  1.3763
   90MOL0     H11852   7.015   5.285   7.257 -0.2050  0.7757  1.5718
   90MOL0     H11853   6.990   5.373   7.121 -2.6821 -0.1558 -0.4029
   90MOL0     H11854   6.990   5.589   7.222  0.3143 -1.5333 -1.0779
   90MOL0     H11855   7.129   5.496   7.289  0.3059 -0.2238 -2.9032
   90MOL0     H11856   7.024   5.455   7.496  0.0992 -1.1934 -0.9651
   90MOL0     H11857   6.881   5.548   7.447  0.1013  1.7960 -1.8209
   90MOL0     H11858   7.174   5.636   7.474  1.6988  3.0936 -1.3765
   90MOL0     H11859   7.063   5.742   7.393 -1.3727 -0.4670 -1.2949
   90MOL0     H11860   7.113   5.800   7.636 -1.0761  1.0735  0.8078
   90MOL0     H11861   7.084   5.632   7.669  1.8737 -0.6923 -2.7740
   90MOL0     H11862   6.642   5.016   6.954  0.3689  0.4821 -0.5298
   90MOL0     H11863   6.716   4.825   6.811  0.4153  3.9445 -0.5111
   90MOL0     H11864   6.831   4.460   6.675  1.6856  1.0721 -1.0448
   90MOL0     H11865   6.892   4.250   6.556 -1.8190  3.7472 -0.3810
   90MOL0     H11866   7.787   4.818   7.054  1.8385  2.0850 -2.4050
   90MOL0     H11867   8.024   4.798   6.921  1.2794  0.3759  2.9005
   90MOL0     H11868   8.485   4.636   7.031 -2.5538 -0.2164 -0.5088
   90MOL0     H11869   8.684   4.543   6.955  0.4629 -0.3945 -0.1088
   90MOL0     H11870   8.828   4.517   6.777  1.8487  0.1936  1.7333
   90MOL0     H11871   8.893   4.381   6.679  1.0375 -0.3701  0.8873
   90MOL0     H11872   8.832   4.324   6.961 -1.5077 -0.8202 -0.4846
   90MOL0     H11873   8.926   4.223   6.846 -0.8516  0.2880 -2.1558
   90MOL0     H11874   9.049   4.354   7.022  0.7782 -1.0697 -0.8457
   90MOL0     H11875   8.993   4.505   6.964 -0.3727 -0.7410  0.5563
   90MOL0     H11876   9.126   4.469   6.744 -1.7039  0.0290  0.1874
   90MOL0     H11877   9.241   4.430   6.885 -1.3701 -2.9512  2.7870
   90MOL0     H11878   9.218   4.055   6.732  0.2481  0.8132 -2.4642
   90MOL0     H11879   8.471   4.316   6.651  0.6136 -3.4943  1.6321
   90MOL0     H11880   8.260   4.419   6.736 -0.7052  1.9641 -0.4272
   91MOL0     O11881   3.464   5.277   3.167  0.7883 -0.0449  0.3102
   91MOL0     C11882   3.353   5.222   3.159 -0.0405 -0.1434 -0.4210
   91MOL0     O11883   3.228   5.278   3.130 -0.2090 -0.5185 -0.1559
   91MOL0     C11884   3.215   5.413   3.083 -0.1791  0.6824 -0.6115
   91MOL0     C11885   3.289   5.530   3.112 -0.4684  0.5377 -0.3664
   91MOL0     C11886   3.262   5.652   3.049 -0.4219 -0.3369  0.1821
   91MOL0     C11887   3.163   5.680   2.968  0.9493  0.6984  0.4653
   91MOL0     O11888   3.127   5.808   2.921  0.1699  0.8882  0.3546
   91MOL0     C11889   2.994   5.846   2.975  0.7403 -0.3590  0.5321
   91MOL0     C11890   2.977   5.844   3.122  0.0750 -0.1780 -0.4400
   91MOL0     C11891   2.850   5.925   3.170  0.2678  0.3575  0.0535
   91MOL0     C11892   2.728   5.920   3.064 -0.1065  0.2377 -0.7535
   91MOL0     C11893   2.610   6.012   3.115  1.0202  0.4250 -0.1927
   91MOL0     C11894   2.511   6.051   3.012  0.5601 -0.3294  0.3464
   91MOL0     C11895   2.414   6.151   3.077  0.0327  0.7558  0.2314
   91MOL0     C11896   2.304   6.188   2.984  0.0125 -0.0148 -0.0462
   91MOL0     N11897   2.200   6.270   3.045 -0.0999 -0.6051  0.3839
   91MOL0     C11898   2.121   6.222   3.142  0.9551  0.1488  0.8515
   91MOL0     C11899   2.018   6.305   3.144 -0.8222  0.4140  0.6312
   91MOL0     C11900   1.900   6.264   3.224  0.9633  0.5138  0.2579
   91MOL0     C11901   1.886   6.326   3.366 -0.7222 -0.1258 -1.0444
   91MOL0     C11902   1.872   6.477   3.385  0.4502 -0.0816 -0.1157
   91MOL0     C11903   1.785   6.517   3.499 -0.1829  0.5890 -0.4817
   91MOL0     O11904   1.849   6.484   3.622 -0.4440  0.4775  0.3176
   91MOL0     C11905   1.803   6.546   3.735 -0.2019 -0.1060  0.3857
   91MOL0     C11906   1.874   6.501   3.844 -0.3457  0.2413 -0.2308
   91MOL0     C11907   1.863   6.549   3.977 -0.2058  0.1555  0.3403
   91MOL0     C11908   1.757   6.648   3.999  0.0808  0.3373 -0.2087
   91MOL0     C11909   1.727   6.685   4.136  0.1077 -0.2574 -0.7197
   91MOL0     O11910   1.785   6.609   4.238  0.1084  0.4263 -0.6652
   91MOL0     C11911   1.769   6.641   4.374  0.2249  0.5881 -0.4639
   91MOL0     C11912   1.663   6.704   4.435 -0.7970 -1.1715  0.2132
   91MOL0     C11913   1.656   6.723   4.568  0.1257  0.8357  0.5349
   91MOL0     C11914   1.756   6.682   4.658  0.2507  0.3086  0.2053
   91MOL0     O11915   1.740   6.703   4.800  0.4597 -0.3661  0.0729
   91MOL0     C11916   1.704   6.842   4.833 -0.4131  1.2729  0.5606
   91MOL0     C11917   1.828   6.933   4.821 -0.1079 -0.3974  0.2687
   91MOL0     C11918   1.956   6.864   4.869  0.4218 -0.1208 -0.4210
   91MOL0     C11919   1.967   6.830   5.014  0.4051  0.2681 -1.0241
   91MOL0     C11920   2.106   6.841   5.076 -0.1494 -0.4819 -0.1768
   91MOL0     C11921   2.116   6.797   5.218  0.3863  0.0846  0.2558
   91MOL0     C11922   2.260   6.785   5.269 -0.4555 -0.1201 -0.1209
   91MOL0     C11923   2.280   6.696   5.387 -0.5783  0.1495 -1.1519
   91MOL0    Cl11924   2.459   6.704   5.435 -0.0909 -0.1067  0.1858
   91MOL0     C11925   1.871   6.627   4.602  0.3247 -0.0999  0.2713
   91MOL0     C11926   1.872   6.601   4.461 -0.7054  0.8047 -0.0303
   91MOL0     O11927   1.665   6.794   4.157 -1.1005  0.5425  0.3653
   91MOL0     C11928   1.684   6.692   3.885 -0.0138 -0.7594  0.2513
   91MOL0     C11929   1.708   6.651   3.756  0.8614 -0.4300 -0.3076
   91MOL0     N11930   2.042   6.400   3.048  0.5204 -0.4188 -0.8152
   91MOL0     N11931   2.148   6.386   2.987  0.5003 -0.0042 -0.4765
   91MOL0     C11932   3.075   5.570   2.950 -0.0005  0.6075  0.8539
   91MOL0     C11933   3.110   5.440   2.994 -0.1775 -0.2915  0.4061
   91MOL0     C11934   3.354   5.074   3.197 -0.2194 -0.2666 -0.3257
   91MOL0     C11935   3.477   5.012   3.240 -0.1890  0.9980  0.3274
   91MOL0     C11936   3.474   4.873   3.256  0.5293  0.1747 -0.5101
   91MOL0     C11937   3.357   4.797   3.251 -1.1879 -0.5768  0.3504
   91MOL0     O11938   3.366   4.659   3.266  0.0023  0.0081  0.3028
   91MOL0     C11939   3.256   4.567   3.235 -0.1546  0.3388  0.4812
   91MOL0     C11940   3.292   4.415   3.240 -0.4419 -0.3322 -0.6311
   91MOL0     C11941   3.166   4.335   3.244  0.5058 -0.1223  0.3941
   91MOL0     C11942   3.214   4.193   3.254  0.2451  0.2626 -1.1394
   91MOL0     C11943   3.205   4.127   3.129  0.4167  0.1160  0.8133
   91MOL0     C11944   3.197   4.068   3.034 -0.5871  0.5556  0.6762
   91MOL0     C11945   3.239   4.865   3.216  0.5326  0.8419  0.4516
   91MOL0     C11946   3.240   5.003   3.167 -0.0158  0.1906 -0.4028
   91MOL0     H11947   3.380   5.527   3.171 -0.0239 -2.1065 -1.0754
   91MOL0     H11948   3.324   5.738   3.073 -1.7567  0.4291  0.9593
   91MOL0     H11949   2.914   5.793   2.923  0.9973 -1.2312  0.9904
   91MOL0     H11950   2.990   5.952   2.949  2.1524 -0.3305  0.3723
   91MOL0     H11951   3.065   5.889   3.170 -0.0615 -2.1296  1.8017
   91MOL0     H11952   2.971   5.741   3.156  0.9761  0.5564  2.1591
   91MOL0     H11953   2.879   6.029   3.189  1.8795 -0.0862  0.1998
   91MOL0     H11954   2.807   5.876   3.258 -2.8541  0.0659 -1.4996
   91MOL0     H11955   2.769   5.952   2.967  1.6604  1.0492  0.2114
   91MOL0     H11956   2.693   5.817   3.056  0.3267 -0.1086  1.3174
   91MOL0     H11957   2.659   6.103   3.151 -2.5542  2.3411  0.3751
   91MOL0     H11958   2.567   5.971   3.207  2.9394 -0.4700  0.3536
   91MOL0     H11959   2.461   5.964   2.968 -2.8628  0.8707  1.5743
   91MOL0     H11960   2.553   6.101   2.924 -1.9821 -3.6925 -3.1121
   91MOL0     H11961   2.355   6.100   3.153  0.0076  2.0711  1.1359
   91MOL0     H11962   2.462   6.241   3.116 -0.6231  0.9808  0.5366
   91MOL0     H11963   2.257   6.099   2.942 -1.3919  0.1140  1.1562
   91MOL0     H11964   2.339   6.253   2.904  0.2871  0.0689  0.1391
   91MOL0     H11965   2.146   6.134   3.201  0.4296  0.6524  1.8460
   91MOL0     H11966   1.896   6.155   3.233  3.3383  0.4546  1.1407
   91MOL0     H11967   1.808   6.287   3.169  0.1569 -2.3258  0.2165
   91MOL0     H11968   1.969   6.301   3.433 -0.1712 -1.9653 -2.3575
   91MOL0     H11969   1.799   6.289   3.421  1.0011 -1.7894  0.7230
   91MOL0     H11970   1.975   6.514   3.382  0.9799 -1.3382  1.3123
   91MOL0     H11971   1.827   6.514   3.293 -1.1559 -1.0873  0.2158
   91MOL0     H11972   1.688   6.467   3.488 -1.1581  2.5253 -1.0413
   91MOL0     H11973   1.773   6.625   3.503 -1.9479  0.3740  1.8052
   91MOL0     H11974   1.940   6.416   3.828  0.8877  0.9730  0.7814
   91MOL0     H11975   1.926   6.507   4.056 -0.2629  1.0784  0.8896
   91MOL0     H11976   1.583   6.754   4.382 -0.7736  0.4527  1.5879
   91MOL0     H11977   1.558   6.762   4.593 -0.1043  0.9404 -0.4807
   91MOL0     H11978   1.676   6.841   4.939  2.5462  2.0171  1.4307
   91MOL0     H11979   1.612   6.876   4.783 -0.5796 -0.7381 -0.6153
   91MOL0     H11980   1.807   7.030   4.868 -1.9252 -1.4333  1.7410
   91MOL0     H11981   1.834   6.965   4.717 -1.3334 -0.9881 -0.0016
   91MOL0     H11982   2.038   6.928   4.835  1.4153 -0.6176  0.9649
   91MOL0     H11983   1.964   6.763   4.827 -1.7326 -1.3670  1.9142
   91MOL0     H11984   1.897   6.899   5.063  0.2194 -0.5110 -0.1536
   91MOL0     H11985   1.928   6.732   5.045 -1.7114  1.4388  0.2892
   91MOL0     H11986   2.143   6.944   5.085  2.1984 -1.3806  2.0375
   91MOL0     H11987   2.181   6.783   5.021  0.9264 -1.7225  2.3724
   91MOL0     H11988   2.062   6.702   5.228 -0.2665  0.1559 -2.1117
   91MOL0     H11989   2.064   6.862   5.289  2.0343  0.1173  1.5145
   91MOL0     H11990   2.334   6.748   5.198 -0.4404  2.2523 -1.4165
   91MOL0     H11991   2.291   6.882   5.307  2.2377 -1.3896  1.1702
   91MOL0     H11992   2.259   6.593   5.357  2.8936 -0.9114 -0.3560
   91MOL0     H11993   2.209   6.719   5.467 -0.6799  1.4963 -1.6101
   91MOL0     H11994   1.947   6.605   4.676  0.5050 -2.4059 -0.5304
   91MOL0     H11995   1.956   6.551   4.413 -0.3621  1.0516  0.3098
   91MOL0     H11996   1.601   6.760   3.904  1.3836  2.2137 -3.1341
   91MOL0     H11997   1.637   6.685   3.681 -2.9963  0.0561  3.1916
   91MOL0     H11998   2.978   5.569   2.902 -0.1525 -0.5019  1.1485
   91MOL0     H11999   3.049   5.359   2.955 -0.1256  1.0839 -2.8118
   91MOL0     H12000   3.562   5.077   3.260  1.3666 -0.3324 -1.4692
   91MOL0     H12001   3.570   4.828   3.280  0.9616  1.2384 -0.1730
   91MOL0     H12002   3.222   4.588   3.133 -0.1738 -1.5698  0.0571
   91MOL0     H12003   3.179   4.594   3.307 -0.6840  1.3693 -0.4450
   91MOL0     H12004   3.355   4.374   3.160 -0.3246 -0.6355 -0.3844
   91MOL0     H12005   3.354   4.413   3.330 -1.3839  2.2293  0.1751
   91MOL0     H12006   3.100   4.348   3.158 -0.3433 -2.2861  0.6524
   91MOL0     H12007   3.111   4.366   3.333 -0.2499 -0.9775  0.2426
   91MOL0     H12008   3.311   4.190   3.305  0.7582 -3.6756 -2.0206
   91MOL0     H12009   3.142   4.149   3.324  0.4202  0.2405 -0.9712
   91MOL0     H12010   3.207   4.006   2.947 -0.6479 -0.6258  1.4803
   91MOL0     H12011   3.147   4.808   3.215  2.3988 -2.4842  2.0915
   91MOL0     H12012   3.149   5.055   3.138 -1.7946 -2.7331 -0.5393
   92MOL0     O12013   9.368   6.286   3.555 -0.3549  0.6913  0.9262
   92MOL0     C12014   9.273   6.287   3.625 -0.0914  0.2784  0.8361
   92MOL0     O12015   9.269   6.357   3.743  0.1716  0.4881 -0.4794
   92MOL0     C12016   9.397   6.369   3.793  0.3375  0.6801 -1.0102
   92MOL0     C12017   9.450   6.496   3.819  0.1124  0.7087 -0.0778
   92MOL0     C12018   9.579   6.511   3.877 -0.0615 -0.4526  0.3256
   92MOL0     C12019   9.666   6.408   3.900 -0.6039  1.5430 -0.4050
   92MOL0     O12020   9.797   6.432   3.948 -0.1447  0.6759  0.6167
   92MOL0     C12021   9.874   6.328   4.003  0.1476  0.0342 -0.2653
   92MOL0     C12022  10.019   6.373   4.027 -0.1942  0.0733  0.9113
   92MOL0     C12023  10.042   6.490   4.121  0.6113  0.4509  1.4612
   92MOL0     C12024  10.038   6.466   4.264 -0.4576  0.1845  0.5838
   92MOL0     C12025  10.150   6.378   4.315  0.7155 -0.1416  0.5508
   92MOL0     C12026  10.289   6.434   4.287  0.5810  0.6773  0.5486
   92MOL0     C12027  10.305   6.577   4.354 -0.2927 -0.1080  0.6764
   92MOL0     C12028  10.449   6.586   4.415  0.2902 -0.2859 -0.1825
   92MOL0     N12029  10.451   6.515   4.542 -0.0875  0.4199 -0.5479
   92MOL0     C12030  10.385   6.559   4.653 -0.0616 -0.9550 -0.1851
   92MOL0     C12031  10.421   6.471   4.749  0.9637  0.1416 -0.0900
   92MOL0     C12032  10.361   6.458   4.884 -0.6992 -0.0944  0.1608
   92MOL0     C12033  10.314   6.319   4.926 -0.2357 -0.7269  0.8076
   92MOL0     C12034  10.221   6.257   4.817 -0.2796 -0.4223  0.3465
   92MOL0     C12035  10.149   6.128   4.851  0.1141  0.0093 -0.7249
   92MOL0     O12036  10.107   6.066   4.725  0.0217  0.0327 -0.6989
   92MOL0     C12037   9.975   6.056   4.709  0.2693 -0.1928  0.0298
   92MOL0     C12038   9.927   5.949   4.630  0.0479  0.6322 -0.0106
   92MOL0     C12039   9.794   5.927   4.617 -0.4949 -0.0096  0.4133
   92MOL0     C12040   9.698   6.022   4.649 -0.6376  0.1406  0.0317
   92MOL0     C12041   9.552   5.989   4.627 -0.4901 -0.0687 -1.1532
   92MOL0     O12042   9.533   5.890   4.535 -0.3371 -0.0841  0.2009
   92MOL0     C12043   9.401   5.869   4.476 -0.0482  0.5165 -0.0814
   92MOL0     C12044   9.355   5.739   4.470 -0.2245 -0.5683 -0.2435
   92MOL0     C12045   9.216   5.719   4.439 -0.1113  0.3257  0.5952
   92MOL0     C12046   9.136   5.827   4.402  0.8198 -0.0699  0.5642
   92MOL0     O12047   9.000   5.807   4.371 -0.1161  0.2021  0.1874
   92MOL0     C12048   8.899   5.905   4.419 -0.0685  0.1232 -0.0689
   92MOL0     C12049   8.767   5.834   4.415  0.4232  0.0013  0.2334
   92MOL0     C12050   8.721   5.834   4.267  0.2005  0.2255 -0.8123
   92MOL0     C12051   8.573   5.786   4.256  0.7718 -0.3749 -0.6615
   92MOL0     C12052   8.488   5.915   4.274 -0.1819 -0.0079  0.4571
   92MOL0     C12053   8.338   5.888   4.256  0.5631 -0.5051  0.5639
   92MOL0     C12054   8.259   6.019   4.285  0.1996  0.0619  0.2038
   92MOL0     C12055   8.111   6.011   4.270  0.1866  0.1027  0.0475
   92MOL0    Cl12056   8.036   5.895   4.384  0.2669  0.1072  0.5154
   92MOL0     C12057   9.185   5.956   4.408 -0.9810  0.3676  0.4830
   92MOL0     C12058   9.312   5.979   4.442 -0.4053 -0.6891 -1.3427
   92MOL0     O12059   9.469   6.051   4.686 -0.1172 -0.1068  0.0253
   92MOL0     C12060   9.747   6.129   4.721  0.4599  0.1714  0.1740
   92MOL0     C12061   9.882   6.154   4.742  0.4463 -0.6190  0.2328
   92MOL0     N12062  10.513   6.383   4.695 -0.0934 -0.2825 -0.0434
   92MOL0     N12063  10.532   6.409   4.573 -0.1522 -0.0833  1.2414
   92MOL0     C12064   9.616   6.283   3.869  0.0467  1.4073 -0.7164
   92MOL0     C12065   9.481   6.257   3.829 -0.2936 -0.3630  0.3191
   92MOL0     C12066   9.145   6.222   3.583  0.4644 -0.3989  0.4101
   92MOL0     C12067   9.025   6.243   3.653  0.8080  0.3519  0.9943
   92MOL0     C12068   8.905   6.191   3.606 -0.3917 -0.6919  1.4669
   92MOL0     C12069   8.899   6.108   3.494 -0.4009 -1.2604  0.0864
   92MOL0     O12070   8.790   6.044   3.437  0.3713 -0.1491  0.3619
   92MOL0     C12071   8.668   6.124   3.451 -0.5611  0.3555  0.8131
   92MOL0     C12072   8.665   6.255   3.371 -0.3840  0.4967  0.8810
   92MOL0     C12073   8.665   6.239   3.214 -0.0917  0.5801 -1.4463
   92MOL0     C12074   8.669   6.377   3.151 -0.3783  0.0248 -0.0431
   92MOL0     C12075   8.535   6.439   3.151 -0.3609  0.3259  0.6281
   92MOL0     C12076   8.425   6.495   3.145 -0.3369  0.9417 -0.5335
   92MOL0     C12077   9.022   6.078   3.433  0.4595  0.1370  0.6210
   92MOL0     C12078   9.138   6.140   3.472  0.5485 -0.4862 -0.4633
   92MOL0     H12079   9.380   6.577   3.801 -4.1914 -2.5715  0.2787
   92MOL0     H12080   9.623   6.610   3.884  1.7508 -1.3062  1.8763
   92MOL0     H12081   9.881   6.241   3.937  2.9670 -2.8002  3.3635
   92MOL0     H12082   9.824   6.299   4.096 -1.5152 -0.2747 -1.2071
   92MOL0     H12083  10.044   6.404   3.925 -2.0005 -1.3877 -0.0380
   92MOL0     H12084  10.094   6.297   4.047 -2.8495 -3.6455 -1.8305
   92MOL0     H12085   9.966   6.562   4.088  2.8640  2.3908  0.1293
   92MOL0     H12086  10.136   6.544   4.104  0.2002  1.9304  3.5330
   92MOL0     H12087  10.041   6.561   4.318  0.6212 -0.2424  1.3127
   92MOL0     H12088   9.941   6.420   4.284 -0.3106  0.4106  1.9126
   92MOL0     H12089  10.141   6.280   4.267 -0.0364 -1.0381  2.3977
   92MOL0     H12090  10.132   6.348   4.419 -2.9413  0.0306  0.1003
   92MOL0     H12091  10.311   6.456   4.182  0.8366  3.3900  1.1060
   92MOL0     H12092  10.367   6.367   4.325  0.4331  0.7262  0.9423
   92MOL0     H12093  10.283   6.651   4.276 -1.0392 -0.7903  0.2238
   92MOL0     H12094  10.231   6.591   4.434 -0.6860 -0.7514  0.4295
   92MOL0     H12095  10.493   6.685   4.429 -1.0082  0.1447  1.1312
   92MOL0     H12096  10.521   6.542   4.345  2.3647  2.5126  0.0710
   92MOL0     H12097  10.323   6.647   4.652  0.5836 -0.4943 -0.2235
   92MOL0     H12098  10.276   6.526   4.887 -1.9881 -1.6892  1.6752
   92MOL0     H12099  10.433   6.497   4.957 -0.3049  1.2931 -0.9357
   92MOL0     H12100  10.258   6.331   5.019  1.5669 -4.3629  2.5822
   92MOL0     H12101  10.405   6.262   4.947  0.5788  0.2178 -0.0215
   92MOL0     H12102  10.151   6.332   4.779  0.3661  0.9787  1.8069
   92MOL0     H12103  10.273   6.228   4.725  0.2629  1.3754  0.0581
   92MOL0     H12104  10.065   6.153   4.918 -0.7816  2.1853 -2.5123
   92MOL0     H12105  10.207   6.056   4.909  0.5538  0.5477 -0.4925
   92MOL0     H12106  10.001   5.877   4.597 -0.0379 -0.6601  2.4167
   92MOL0     H12107   9.765   5.840   4.558  0.1491  0.3330 -0.4322
   92MOL0     H12108   9.406   5.652   4.509  1.8340  1.8173  2.9294
   92MOL0     H12109   9.157   5.628   4.430 -1.2957  0.6255  3.9910
   92MOL0     H12110   8.900   5.998   4.361 -0.5432 -0.6946 -1.4467
   92MOL0     H12111   8.938   5.931   4.518  1.7853  0.8895 -0.9477
   92MOL0     H12112   8.697   5.896   4.471  0.1787  0.9498 -1.0683
   92MOL0     H12113   8.766   5.732   4.454  0.0132 -0.2889 -0.5064
   92MOL0     H12114   8.794   5.783   4.204  1.5714 -0.8415  1.5270
   92MOL0     H12115   8.734   5.935   4.227  5.9797 -0.2967 -1.1400
   92MOL0     H12116   8.559   5.735   4.160  1.5970  0.3882 -1.2037
   92MOL0     H12117   8.552   5.715   4.337 -2.5183  1.6572  0.4310
   92MOL0     H12118   8.522   5.988   4.200  1.3843  0.5307  1.6230
   92MOL0     H12119   8.494   5.949   4.378 -1.6024  0.2943  0.4553
   92MOL0     H12120   8.298   5.800   4.307  0.7536 -1.8451 -1.4787
   92MOL0     H12121   8.333   5.860   4.150 -0.8267 -1.3780  0.8434
   92MOL0     H12122   8.280   6.060   4.384 -0.9625  1.1542  0.0353
   92MOL0     H12123   8.293   6.102   4.222  2.1863 -1.2365 -0.5298
   92MOL0     H12124   8.088   5.975   4.169 -1.8407  1.1633  0.0813
   92MOL0     H12125   8.074   6.112   4.290  5.1527  2.2091  0.1632
   92MOL0     H12126   9.133   6.040   4.364 -2.9536 -1.1742 -0.2763
   92MOL0     H12127   9.345   6.082   4.450  1.6027 -1.3943  0.5717
   92MOL0     H12128   9.672   6.198   4.759  0.1178 -0.7812  1.3059
   92MOL0     H12129   9.913   6.241   4.799 -2.3095  1.1046 -0.6942
   92MOL0     H12130   9.669   6.190   3.890 -1.6796 -0.4945 -3.8677
   92MOL0     H12131   9.443   6.157   3.809 -3.6243  1.2348 -2.3451
   92MOL0     H12132   9.043   6.310   3.736  4.0420  1.3222 -0.3106
   92MOL0     H12133   8.816   6.221   3.659 -1.0535  1.7162 -0.7894
   92MOL0     H12134   8.652   6.145   3.558  1.7037  1.0978  1.0599
   92MOL0     H12135   8.582   6.070   3.412 -1.8923  1.6622  1.8257
   92MOL0     H12136   8.572   6.303   3.405 -0.4035  1.1153 -0.0288
   92MOL0     H12137   8.754   6.311   3.400 -0.8143 -0.0920  3.6605
   92MOL0     H12138   8.571   6.190   3.186 -1.2629  0.4227  2.2227
   92MOL0     H12139   8.738   6.163   3.183 -1.1824 -0.8342 -0.7011
   92MOL0     H12140   8.748   6.433   3.202 -0.2321  0.1231 -0.3713
   92MOL0     H12141   8.699   6.368   3.046  0.2963  0.0361  0.1427
   92MOL0     H12142   8.324   6.531   3.145 -0.2296  1.2951  0.5686
   92MOL0     H12143   9.017   6.001   3.357 -1.8605  0.6608  0.1678
   92MOL0     H12144   9.233   6.120   3.422  1.1613  1.3030 -0.0788
   93MOL0     O12145   0.234   5.148   1.025  0.0870 -0.0364 -0.3600
   93MOL0     C12146   0.202   5.265   1.018  0.7882 -0.5629 -0.4247
   93MOL0     O12147   0.083   5.310   0.967 -0.3048  0.3609  0.1535
   93MOL0     C12148   0.012   5.244   0.870 -0.3639  0.2351 -0.2619
   93MOL0     C12149  -0.117   5.299   0.836  0.0009  0.4488  0.8246
   93MOL0     C12150  -0.186   5.251   0.716 -0.1545 -0.0741  0.5640
   93MOL0     C12151  -0.129   5.162   0.626  1.0630  0.0010 -0.0656
   93MOL0     O12152  -0.208   5.126   0.515 -0.0137 -0.0457  0.1420
   93MOL0     C12153  -0.150   5.047   0.415 -0.1617  1.2492 -1.0118
   93MOL0     C12154  -0.251   5.029   0.297  0.2838  1.5768 -0.4979
   93MOL0     C12155  -0.362   4.928   0.337  0.5478  0.6777  0.3118
   93MOL0     C12156  -0.440   4.875   0.220  0.2024  0.1035  0.9913
   93MOL0     C12157  -0.559   4.789   0.266  0.1177  0.6943  0.7941
   93MOL0     C12158  -0.650   4.746   0.152  1.0256 -0.4141  0.3203
   93MOL0     C12159  -0.786   4.701   0.204 -0.1696  0.7713  0.3885
   93MOL0     C12160  -0.866   4.816   0.260  0.0633  0.3561  0.0603
   93MOL0     N12161  -1.009   4.788   0.281 -0.1836  0.7172  0.0428
   93MOL0     C12162  -1.100   4.893   0.262  0.1856  1.0696 -1.1337
   93MOL0     C12163  -1.226   4.843   0.264 -0.6320  0.4410 -0.9139
   93MOL0     C12164  -1.364   4.901   0.251 -0.2436  0.1825 -0.6756
   93MOL0     C12165  -1.428   4.908   0.395  0.8660  0.0595  0.3422
   93MOL0     C12166  -1.532   5.017   0.402  0.2810  1.0819 -0.4168
   93MOL0     C12167  -1.663   4.959   0.345  0.8357 -0.7073 -0.2779
   93MOL0     O12168  -1.739   4.880   0.440 -0.1208 -0.3738  0.3938
   93MOL0     C12169  -1.861   4.826   0.396  0.0249 -0.4773 -0.3365
   93MOL0     C12170  -1.918   4.834   0.264 -0.6047 -0.8045  0.2544
   93MOL0     C12171  -2.047   4.788   0.249  0.0719  0.2880  0.6748
   93MOL0     C12172  -2.122   4.744   0.360 -1.3950 -0.3394 -0.9467
   93MOL0     C12173  -2.269   4.701   0.350 -0.5636 -0.2619  0.1298
   93MOL0     O12174  -2.328   4.712   0.232  0.2498 -0.1058 -0.2739
   93MOL0     C12175  -2.462   4.671   0.220 -0.7095  0.3790 -0.0849
   93MOL0     C12176  -2.500   4.546   0.182 -0.2760  0.0845 -1.1317
   93MOL0     C12177  -2.630   4.501   0.174  0.0763 -0.2602  0.0927
   93MOL0     C12178  -2.736   4.585   0.204 -0.2429  0.3692  0.3421
   93MOL0     O12179  -2.870   4.535   0.206 -0.5998 -0.8555  0.7818
   93MOL0     C12180  -2.957   4.633   0.150  0.2155 -0.3369  0.6378
   93MOL0     C12181  -3.069   4.560   0.076 -0.4058  0.0999  0.2562
   93MOL0     C12182  -3.166   4.467   0.166  0.2053 -0.2706  0.2219
   93MOL0     C12183  -3.260   4.552   0.248  0.0749  0.2919 -0.3009
   93MOL0     C12184  -3.358   4.471   0.327 -0.4241 -1.2272 -0.2160
   93MOL0     C12185  -3.467   4.413   0.245 -0.2830 -0.4899  1.3694
   93MOL0     C12186  -3.544   4.521   0.167  0.2253  0.3863 -0.5214
   93MOL0     C12187  -3.679   4.459   0.127 -0.0988 -0.1396 -0.2946
   93MOL0    Cl12188  -3.762   4.475   0.282 -0.1246  0.2335 -0.2511
   93MOL0     C12189  -2.700   4.711   0.259  0.5666 -0.1263  0.8323
   93MOL0     C12190  -2.571   4.759   0.270  0.0560  0.0505 -0.4331
   93MOL0     O12191  -2.325   4.655   0.446  0.1289 -0.2905 -0.0819
   93MOL0     C12192  -2.058   4.727   0.487  0.0784 -0.3713 -0.0538
   93MOL0     C12193  -1.927   4.774   0.505  0.1806 -0.2211 -0.2308
   93MOL0     N12194  -1.204   4.706   0.300 -1.2453  0.0320  0.2677
   93MOL0     N12195  -1.081   4.676   0.312  1.6839  0.5223  0.5657
   93MOL0     C12196  -0.007   5.102   0.670  0.0135 -0.6504  0.2925
   93MOL0     C12197   0.070   5.143   0.783 -0.0368 -0.2443  0.7870
   93MOL0     C12198   0.291   5.369   1.069 -0.5650 -0.7316  0.1376
   93MOL0     C12199   0.262   5.500   1.035  0.0690 -0.8354  0.6564
   93MOL0     C12200   0.343   5.605   1.070 -0.1070  0.4236 -0.6735
   93MOL0     C12201   0.450   5.580   1.156 -0.1602  0.6274 -0.0906
   93MOL0     O12202   0.511   5.698   1.196  0.2770  0.1836 -0.5168
   93MOL0     C12203   0.649   5.685   1.230 -0.1894 -0.5734 -0.0020
   93MOL0     C12204   0.741   5.709   1.110 -0.1320 -0.2158 -0.3643
   93MOL0     C12205   0.724   5.844   1.030  0.4321  0.3737 -0.7119
   93MOL0     C12206   0.726   5.977   1.117 -0.2055  1.1023 -0.3542
   93MOL0     C12207   0.850   6.000   1.188  0.2417  1.1000  0.3152
   93MOL0     C12208   0.950   6.010   1.258 -0.3224 -0.3954  0.6679
   93MOL0     C12209   0.479   5.449   1.198  0.1457  0.3549 -0.1901
   93MOL0     C12210   0.397   5.340   1.157 -0.7433  0.0400 -0.0744
   93MOL0     H12211  -0.146   5.378   0.904  1.2343  2.7800 -1.2419
   93MOL0     H12212  -0.275   5.309   0.691  0.1747 -0.5952 -2.0928
   93MOL0     H12213  -0.122   4.943   0.432 -0.9535  0.5897 -3.2974
   93MOL0     H12214  -0.060   5.101   0.380  1.6558 -1.4083 -0.7096
   93MOL0     H12215  -0.197   4.993   0.209  1.2444  0.3445  0.5615
   93MOL0     H12216  -0.300   5.126   0.279  0.7707  2.6029  2.9490
   93MOL0     H12217  -0.433   4.978   0.404  0.3358 -0.4408  0.9460
   93MOL0     H12218  -0.321   4.840   0.387  0.2760 -0.4518 -1.3685
   93MOL0     H12219  -0.472   4.956   0.154 -0.8994 -0.8773  0.2868
   93MOL0     H12220  -0.383   4.804   0.160 -0.7618  0.7372 -0.7507
   93MOL0     H12221  -0.614   4.861   0.327  1.2221  2.6320 -0.3837
   93MOL0     H12222  -0.535   4.704   0.330  0.5916  0.9712  0.9929
   93MOL0     H12223  -0.606   4.665   0.093  1.5887 -1.1835  1.7522
   93MOL0     H12224  -0.669   4.830   0.084  1.6042  0.9674  1.8022
   93MOL0     H12225  -0.841   4.668   0.116 -2.6691  1.4904  1.5753
   93MOL0     H12226  -0.797   4.618   0.274 -0.0197  1.9459  1.8567
   93MOL0     H12227  -0.860   4.902   0.192  0.3707 -0.7056 -1.2774
   93MOL0     H12228  -0.832   4.845   0.360  0.5315 -0.8299  0.2551
   93MOL0     H12229  -1.079   4.999   0.250  1.5303  1.4204  2.6662
   93MOL0     H12230  -1.428   4.845   0.183 -1.9393  0.7615  0.3984
   93MOL0     H12231  -1.363   5.004   0.215  0.0805  0.2989 -0.3493
   93MOL0     H12232  -1.347   4.930   0.465 -1.5742  1.7858  2.8160
   93MOL0     H12233  -1.472   4.812   0.423  0.1280  0.5856  0.9999
   93MOL0     H12234  -1.558   5.036   0.506 -1.9164 -2.3247 -0.1988
   93MOL0     H12235  -1.503   5.117   0.367  0.3098  1.1203 -0.2836
   93MOL0     H12236  -1.640   4.906   0.252  1.1423  0.7614 -1.0598
   93MOL0     H12237  -1.720   5.046   0.312  0.5064 -0.6731  0.3561
   93MOL0     H12238  -1.852   4.877   0.189 -0.0253 -1.0287  0.6198
   93MOL0     H12239  -2.098   4.812   0.156 -2.0002 -3.5417  0.6314
   93MOL0     H12240  -2.416   4.484   0.152  0.8067 -0.4651  2.5316
   93MOL0     H12241  -2.662   4.408   0.128 -0.2049 -0.8051  1.3580
   93MOL0     H12242  -2.920   4.708   0.080 -1.8307 -0.8381 -1.0853
   93MOL0     H12243  -2.996   4.695   0.232 -1.5302  0.4249 -0.6981
   93MOL0     H12244  -3.024   4.499  -0.003 -3.1792 -2.0995  0.1953
   93MOL0     H12245  -3.126   4.640   0.028  3.1965  1.9807 -1.2279
   93MOL0     H12246  -3.122   4.393   0.234 -2.0351 -0.0479  2.0122
   93MOL0     H12247  -3.223   4.400   0.101 -0.7860  2.2795 -1.7011
   93MOL0     H12248  -3.205   4.616   0.317 -5.3782  2.3848  2.7359
   93MOL0     H12249  -3.315   4.614   0.177 -1.3314 -0.0431  0.4448
   93MOL0     H12250  -3.399   4.529   0.410  2.9091  0.7242  0.2388
   93MOL0     H12251  -3.300   4.394   0.380  0.9511 -0.7025 -0.8916
   93MOL0     H12252  -3.541   4.358   0.305  0.4745  0.4143  3.1956
   93MOL0     H12253  -3.430   4.342   0.171  1.3381  4.9890 -3.8854
   93MOL0     H12254  -3.557   4.606   0.234 -3.4997  1.6729 -2.6244
   93MOL0     H12255  -3.502   4.549   0.070 -0.0486  1.2958 -0.3866
   93MOL0     H12256  -3.667   4.358   0.086  0.1680  1.0468 -3.3619
   93MOL0     H12257  -3.732   4.517   0.051 -0.9082  1.4999  1.4365
   93MOL0     H12258  -2.779   4.776   0.295  0.8512 -1.1283  3.4655
   93MOL0     H12259  -2.553   4.861   0.304  2.0520  1.2646 -4.4016
   93MOL0     H12260  -2.115   4.690   0.572  0.7253 -1.5441 -0.1053
   93MOL0     H12261  -1.875   4.772   0.600 -2.6325  0.2851  1.4270
   93MOL0     H12262   0.041   5.029   0.605  1.5688 -0.0896  0.7850
   93MOL0     H12263   0.167   5.094   0.789  0.3560 -0.7633 -4.7555
   93MOL0     H12264   0.190   5.515   0.954  2.5533 -1.9966 -1.9431
   93MOL0     H12265   0.334   5.708   1.034 -0.8515  0.1645 -1.2428
   93MOL0     H12266   0.680   5.587   1.267  0.1713  0.4342  2.5512
   93MOL0     H12267   0.671   5.764   1.303 -0.9733 -0.7024  0.3918
   93MOL0     H12268   0.846   5.697   1.139 -0.6297 -2.4807  0.7607
   93MOL0     H12269   0.724   5.629   1.037  1.3205 -1.4669  0.6016
   93MOL0     H12270   0.631   5.835   0.973 -0.4951 -2.7429  1.0532
   93MOL0     H12271   0.809   5.847   0.961  1.1444  1.4713  0.1857
   93MOL0     H12272   0.722   6.067   1.055  2.3088  1.4670 -0.0739
   93MOL0     H12273   0.644   5.965   1.190  0.9034 -1.3871  0.6029
   93MOL0     H12274   1.029   6.012   1.330  1.9493  0.2309 -1.7078
   93MOL0     H12275   0.547   5.424   1.279 -1.7105 -1.8540  0.8362
   93MOL0     H12276   0.419   5.242   1.199  2.0218  0.0457 -1.2604
   94MOL0     O12277   3.563   2.494   7.049 -1.2027 -0.2501 -0.2545
   94MOL0     C12278   3.664   2.473   6.981  0.0871  0.6142  0.1663
   94MOL0     O12279   3.800   2.506   7.007 -0.3179  0.1095  0.0214
   94MOL0     C12280   3.818   2.573   7.131 -0.2145 -0.3364 -0.4523
   94MOL0     C12281   3.732   2.667   7.188  0.2102  0.3107  0.2778
   94MOL0     C12282   3.784   2.738   7.294  0.5305  0.2919  0.3505
   94MOL0     C12283   3.918   2.722   7.345  0.1320 -0.2861  0.0625
   94MOL0     O12284   3.958   2.814   7.440  0.3647  0.1565 -0.2365
   94MOL0     C12285   4.041   2.755   7.542 -0.1902  0.2575  0.6945
   94MOL0     C12286   4.045   2.855   7.646  0.7277  0.1414  0.5036
   94MOL0     C12287   4.161   2.958   7.604 -0.2940 -0.2483 -0.1631
   94MOL0     C12288   4.184   3.049   7.721  0.3746 -0.0071 -0.7155
   94MOL0     C12289   4.301   3.144   7.686 -0.3272  1.2512 -0.3001
   94MOL0     C12290   4.270   3.239   7.571  1.6069  0.3049 -0.5915
   94MOL0     C12291   4.350   3.366   7.575 -0.1223 -0.9274  0.7323
   94MOL0     C12292   4.291   3.480   7.485  0.5413 -0.1372  1.0100
   94MOL0     N12293   4.193   3.581   7.555  0.3798 -0.2776  0.2545
   94MOL0     C12294   4.142   3.559   7.677  0.2885  0.4991 -0.8708
   94MOL0     C12295   4.039   3.647   7.680 -0.2480 -0.3843 -0.5007
   94MOL0     C12296   3.938   3.652   7.789 -0.0008  0.1241 -0.3318
   94MOL0     C12297   3.809   3.608   7.723 -0.6833 -0.6536  0.0207
   94MOL0     C12298   3.778   3.463   7.683  0.1000  0.0591 -0.7241
   94MOL0     C12299   3.791   3.364   7.808  0.4832  0.3847  0.1840
   94MOL0     O12300   3.764   3.418   7.941 -0.2062  0.4323  0.0151
   94MOL0     C12301   3.740   3.329   8.051 -0.6301 -0.5394  0.0195
   94MOL0     C12302   3.742   3.191   8.043 -0.4419  0.3157 -0.2990
   94MOL0     C12303   3.729   3.107   8.154  0.0365  0.1051 -0.8580
   94MOL0     C12304   3.706   3.173   8.280  0.3830  0.0880  0.1378
   94MOL0     C12305   3.726   3.104   8.410  0.4493  0.4670 -0.6021
   94MOL0     O12306   3.619   3.098   8.496  0.4663  0.1256  1.0981
   94MOL0     C12307   3.638   3.016   8.595  0.5435 -0.7527 -0.1807
   94MOL0     C12308   3.746   3.028   8.689 -0.5393  0.7286  0.2287
   94MOL0     C12309   3.767   2.925   8.784  0.0370  0.2603  0.2221
   94MOL0     C12310   3.686   2.818   8.793 -1.1363  0.6450 -0.1297
   94MOL0     O12311   3.717   2.732   8.895  0.1399 -0.0578  0.6807
   94MOL0     C12312   3.749   2.590   8.853  0.0031 -0.1443 -0.0371
   94MOL0     C12313   3.647   2.492   8.903  0.3567  0.5432 -0.9161
   94MOL0     C12314   3.696   2.341   8.912 -0.1032  0.6360 -0.3212
   94MOL0     C12315   3.600   2.241   8.972  0.3741 -0.1030 -0.5183
   94MOL0     C12316   3.580   2.277   9.120 -0.2840  0.0021  0.3933
   94MOL0     C12317   3.508   2.172   9.203  0.4842 -0.0548 -0.0617
   94MOL0     C12318   3.535   2.196   9.350  1.0567 -0.3391 -0.4883
   94MOL0     C12319   3.448   2.312   9.388  0.0614 -1.0120 -0.4205
   94MOL0    Cl12320   3.455   2.351   9.552  0.2190 -0.1708 -0.0511
   94MOL0     C12321   3.573   2.816   8.709 -0.1408  0.7811  0.3049
   94MOL0     C12322   3.552   2.905   8.604 -0.5516  0.8685  0.1409
   94MOL0     O12323   3.841   3.052   8.430  1.1341 -0.7592 -0.9051
   94MOL0     C12324   3.700   3.312   8.295 -0.1673 -0.0027 -0.6537
   94MOL0     C12325   3.714   3.387   8.180 -0.1034 -0.3894 -0.0983
   94MOL0     N12326   4.053   3.743   7.582  0.5828  0.8997 -0.8269
   94MOL0     N12327   4.150   3.700   7.505 -0.5718 -0.9476 -0.3012
   94MOL0     C12328   3.996   2.624   7.291  0.5694  0.4423  0.5166
   94MOL0     C12329   3.945   2.541   7.189 -0.0654  0.3460 -0.3186
   94MOL0     C12330   3.649   2.369   6.876 -0.2956  0.6772 -0.6944
   94MOL0     C12331   3.525   2.328   6.833  0.0975 -0.3897  0.7052
   94MOL0     C12332   3.502   2.234   6.735 -1.4253 -0.1235  0.4776
   94MOL0     C12333   3.605   2.187   6.659 -0.3087  0.8669  0.1522
   94MOL0     O12334   3.592   2.096   6.555  0.4483  0.4946  1.3816
   94MOL0     C12335   3.460   2.023   6.524  0.2449 -0.4309 -0.3826
   94MOL0     C12336   3.372   2.097   6.412 -0.2837 -0.3111  0.2746
   94MOL0     C12337   3.365   2.246   6.416  0.9096 -0.2326 -0.2792
   94MOL0     C12338   3.284   2.311   6.296 -0.2247  0.4518 -0.5446
   94MOL0     C12339   3.240   2.442   6.320  0.4279 -0.0273  0.3628
   94MOL0     C12340   3.200   2.544   6.350  0.7825 -0.8965 -0.3813
   94MOL0     C12341   3.738   2.226   6.697  0.6226  0.7058 -0.4874
   94MOL0     C12342   3.756   2.317   6.806 -0.4482 -0.4675 -0.8496
   94MOL0     H12343   3.648   2.713   7.137  2.3997  1.6143 -2.4910
   94MOL0     H12344   3.725   2.824   7.326 -0.4530 -0.1105 -0.3167
   94MOL0     H12345   4.136   2.731   7.493 -0.7461 -0.6988  0.0445
   94MOL0     H12346   4.012   2.657   7.584  0.0074 -0.1713 -0.1510
   94MOL0     H12347   4.073   2.805   7.739 -0.0979 -0.4872  0.4233
   94MOL0     H12348   3.946   2.900   7.653  0.0256 -1.5645  2.3444
   94MOL0     H12349   4.132   3.016   7.516 -3.5205 -1.5892 -0.1048
   94MOL0     H12350   4.258   2.916   7.574  0.1193  0.4333  0.2081
   94MOL0     H12351   4.101   3.117   7.740 -0.1097 -0.0265 -2.5004
   94MOL0     H12352   4.202   2.981   7.805  2.7966 -1.6094 -2.3890
   94MOL0     H12353   4.395   3.090   7.675 -1.9836 -1.4053 -2.8472
   94MOL0     H12354   4.306   3.212   7.772 -3.5036 -1.3293  2.1603
   94MOL0     H12355   4.166   3.267   7.585  0.9169 -2.7085  1.1133
   94MOL0     H12356   4.271   3.176   7.482 -1.5293 -0.5295 -0.1253
   94MOL0     H12357   4.355   3.403   7.677 -0.6841 -3.0860  1.6014
   94MOL0     H12358   4.448   3.341   7.534 -0.3590  0.3227 -0.6644
   94MOL0     H12359   4.246   3.446   7.391  1.1074 -1.0857  1.0762
   94MOL0     H12360   4.376   3.540   7.453  1.3903 -2.0733 -0.6022
   94MOL0     H12361   4.148   3.479   7.750 -0.0240 -0.0616 -1.4536
   94MOL0     H12362   3.928   3.752   7.832 -0.2063 -0.1851  0.3526
   94MOL0     H12363   3.982   3.584   7.862  0.0359  0.7350  0.2305
   94MOL0     H12364   3.800   3.664   7.629  0.1805 -2.8060 -1.4342
   94MOL0     H12365   3.733   3.653   7.788 -0.8620  0.4047 -0.8820
   94MOL0     H12366   3.671   3.450   7.665 -0.0215 -1.9408  0.9869
   94MOL0     H12367   3.816   3.432   7.585 -1.4755  1.1948 -1.7443
   94MOL0     H12368   3.891   3.320   7.803  1.3345  2.3333 -1.3630
   94MOL0     H12369   3.723   3.278   7.800 -4.0724  3.5592  0.7032
   94MOL0     H12370   3.742   3.131   7.952 -0.6659 -0.4683  0.2066
   94MOL0     H12371   3.737   2.998   8.152  0.8875  0.1020  0.8874
   94MOL0     H12372   3.806   3.119   8.688  0.9972 -0.2355  0.5717
   94MOL0     H12373   3.845   2.917   8.859 -0.2652  0.8107  0.6115
   94MOL0     H12374   3.845   2.557   8.892  0.2436  1.9007  1.2531
   94MOL0     H12375   3.756   2.588   8.744 -0.4547  0.8091 -0.0971
   94MOL0     H12376   3.556   2.498   8.843  0.2409 -1.2304 -0.9689
   94MOL0     H12377   3.620   2.538   8.999  0.7721 -0.9256 -0.0650
   94MOL0     H12378   3.791   2.333   8.966 -0.2857  1.0188  0.0688
   94MOL0     H12379   3.725   2.327   8.808  0.5149  4.5265 -0.8282
   94MOL0     H12380   3.499   2.229   8.932 -0.3032 -1.1676  1.3903
   94MOL0     H12381   3.657   2.148   8.978  2.2440  0.9992 -0.3342
   94MOL0     H12382   3.525   2.371   9.129 -2.1264 -0.8997 -0.8146
   94MOL0     H12383   3.682   2.285   9.160  0.2770 -0.9762 -0.7782
   94MOL0     H12384   3.534   2.069   9.175  1.7649 -0.5356  2.6268
   94MOL0     H12385   3.404   2.169   9.168  1.4076 -0.7323 -3.0631
   94MOL0     H12386   3.507   2.106   9.405  0.9170 -1.2571 -2.0219
   94MOL0     H12387   3.639   2.225   9.370  0.4653  1.2152  0.5641
   94MOL0     H12388   3.345   2.292   9.358 -1.2358  2.2629  1.3409
   94MOL0     H12389   3.479   2.407   9.344 -0.9879 -0.7397 -0.5992
   94MOL0     H12390   3.492   2.744   8.719 -0.0553  0.6847  0.3114
   94MOL0     H12391   3.472   2.904   8.530 -0.8573 -6.3314 -0.1895
   94MOL0     H12392   3.677   3.360   8.389 -0.7653  1.2835 -1.4232
   94MOL0     H12393   3.716   3.495   8.173 -0.6340 -0.4737 -2.1704
   94MOL0     H12394   4.090   2.590   7.333  0.3129  2.7063  3.2663
   94MOL0     H12395   4.011   2.465   7.150  1.2991  0.8597  0.9186
   94MOL0     H12396   3.436   2.375   6.875 -0.5474 -1.3163  0.4155
   94MOL0     H12397   3.398   2.224   6.706 -0.9656  1.1751 -1.7722
   94MOL0     H12398   3.399   2.021   6.615  0.1550 -0.9001 -0.4520
   94MOL0     H12399   3.482   1.922   6.489 -0.1001  0.3300 -3.0091
   94MOL0     H12400   3.421   2.076   6.317  1.5973 -2.7692  1.6775
   94MOL0     H12401   3.275   2.046   6.407 -1.4983  1.4264  3.3113
   94MOL0     H12402   3.467   2.285   6.409  1.0037 -0.5867 -0.9859
   94MOL0     H12403   3.311   2.292   6.499 -0.4730  1.1740 -1.8796
   94MOL0     H12404   3.343   2.308   6.204 -0.4472 -0.7586 -0.6694
   94MOL0     H12405   3.200   2.241   6.296  0.2053 -0.1031  0.8129
   94MOL0     H12406   3.151   2.630   6.391 -0.3916 -1.6746 -0.1203
   94MOL0     H12407   3.824   2.193   6.640  0.4329  0.0256 -0.3825
   94MOL0     H12408   3.857   2.340   6.838 -0.3327  0.0550 -1.5550
   95MOL0     O12409  10.071   0.138   4.011 -0.2022 -0.0732 -1.1573
   95MOL0     C12410  10.178   0.105   3.964  0.2131  0.3589  0.8314
   95MOL0     O12411  10.202   0.048   3.840 -0.3440 -0.1561 -0.5327
   95MOL0     C12412  10.104   0.032   3.750 -0.4766 -0.2156  1.2636
   95MOL0     C12413   9.972  -0.026   3.778 -0.0181  0.2061  0.0648
   95MOL0     C12414   9.885  -0.037   3.675 -0.2611  0.1580  0.3896
   95MOL0     C12415   9.924  -0.009   3.543 -0.2605 -0.0068  0.7295
   95MOL0     O12416   9.841  -0.019   3.431  0.5148  0.4797  0.4428
   95MOL0     C12417   9.716  -0.092   3.447  0.2651 -0.0187 -0.1639
   95MOL0     C12418   9.637  -0.059   3.325 -0.0854  0.3993  0.7303
   95MOL0     C12419   9.704  -0.153   3.213 -0.1429 -0.5622 -0.3358
   95MOL0     C12420   9.619  -0.176   3.087  0.4696 -0.2538 -0.1518
   95MOL0     C12421   9.568  -0.049   3.025 -0.2192 -0.4776  0.2514
   95MOL0     C12422   9.430  -0.088   2.948  0.2612 -0.3550 -0.4471
   95MOL0     C12423   9.466  -0.136   2.806 -0.6445  0.2830  0.7192
   95MOL0     C12424   9.474  -0.284   2.792 -0.6261  0.7154 -0.3151
   95MOL0     N12425   9.547  -0.309   2.662  0.7793 -0.4184 -1.0809
   95MOL0     C12426   9.485  -0.349   2.548 -0.4911  0.0269  0.6163
   95MOL0     C12427   9.599  -0.365   2.465 -0.0954 -0.6298 -0.6082
   95MOL0     C12428   9.579  -0.435   2.334  1.4664  0.0888  0.2543
   95MOL0     C12429   9.578  -0.587   2.376  0.4450 -0.6611 -0.4924
   95MOL0     C12430   9.543  -0.677   2.268  0.3076 -0.1045  0.6964
   95MOL0     C12431   9.653  -0.681   2.158  0.2077 -0.5377 -0.0373
   95MOL0     O12432   9.646  -0.812   2.083 -0.7118  0.3439  0.1516
   95MOL0     C12433   9.564  -0.831   1.977  1.3993 -1.2854  0.1168
   95MOL0     C12434   9.565  -0.953   1.918 -0.4096  1.2240 -0.0355
   95MOL0     C12435   9.482  -0.989   1.811 -0.1835 -0.0802 -0.0041
   95MOL0     C12436   9.394  -0.891   1.757 -0.8624 -0.3443  0.8836
   95MOL0     C12437   9.302  -0.931   1.653  0.2258 -0.3588 -0.1158
   95MOL0     O12438   9.296  -1.061   1.620  0.1521  0.5358  0.0553
   95MOL0     C12439   9.178  -1.114   1.561 -1.3006  0.7253  0.3913
   95MOL0     C12440   9.168  -1.146   1.426 -1.0399  0.2716  0.1434
   95MOL0     C12441   9.052  -1.209   1.371  1.2162 -0.2496 -0.7512
   95MOL0     C12442   8.950  -1.247   1.456 -0.5838 -0.3767 -0.6569
   95MOL0     O12443   8.851  -1.306   1.389  0.0620 -0.2827  0.2083
   95MOL0     C12444   8.710  -1.317   1.440 -0.5715 -0.3847 -0.6115
   95MOL0     C12445   8.616  -1.208   1.391 -0.1301  0.0834 -0.4088
   95MOL0     C12446   8.654  -1.079   1.478 -0.2783 -0.2418  0.6894
   95MOL0     C12447   8.545  -0.973   1.473  0.2519 -0.5574  0.0838
   95MOL0     C12448   8.590  -0.848   1.540  0.4062 -0.0368 -0.0362
   95MOL0     C12449   8.507  -0.726   1.510 -0.0108 -0.2236 -1.6668
   95MOL0     C12450   8.582  -0.607   1.573 -0.3147  0.0021  0.4268
   95MOL0     C12451   8.502  -0.478   1.552 -0.1992 -0.4505 -0.0687
   95MOL0    Cl12452   8.587  -0.357   1.651 -0.1065 -0.4778  0.5082
   95MOL0     C12453   8.956  -1.211   1.589 -0.1425 -0.2736 -0.2192
   95MOL0     C12454   9.071  -1.141   1.640  1.3047  0.2947  0.0608
   95MOL0     O12455   9.222  -0.840   1.615  0.5605 -0.2278  0.4752
   95MOL0     C12456   9.392  -0.767   1.817 -0.2403 -0.4401  0.0177
   95MOL0     C12457   9.470  -0.738   1.931 -0.2060  0.5255 -0.7911
   95MOL0     N12458   9.712  -0.329   2.525 -0.2363 -0.5377 -0.0532
   95MOL0     N12459   9.681  -0.300   2.646  0.1045 -0.8693  0.1790
   95MOL0     C12460  10.045   0.056   3.513  0.0840  0.4061  0.5988
   95MOL0     C12461  10.136   0.071   3.616  0.0879 -0.6247 -0.0137
   95MOL0     C12462  10.305   0.104   4.056  0.2360 -0.5826 -0.0678
   95MOL0     C12463  10.433   0.094   4.010  0.6632 -0.3798  0.0610
   95MOL0     C12464  10.539   0.080   4.089  0.0494  0.3630  0.2906
   95MOL0     C12465  10.534   0.065   4.228 -0.2839  0.1849  1.0081
   95MOL0     O12466  10.644   0.056   4.317  0.1692  0.2662  0.0135
   95MOL0     C12467  10.779   0.063   4.268 -0.1459  0.7139 -0.3638
   95MOL0     C12468  10.834   0.208   4.270  0.1931 -0.4537 -0.2523
   95MOL0     C12469  10.811   0.287   4.401  0.0608 -0.0941  0.5132
   95MOL0     C12470  10.881   0.218   4.521  0.2786  0.3816 -0.3015
   95MOL0     C12471  10.865   0.284   4.652  0.6690  0.1994  0.4129
   95MOL0     C12472  10.856   0.325   4.766  0.3002  0.6501  0.4448
   95MOL0     C12473  10.411   0.082   4.278 -0.1551 -0.2499  0.5154
   95MOL0     C12474  10.289   0.094   4.199  0.2451 -0.2150 -0.3862
   95MOL0     H12475   9.959  -0.076   3.874 -1.7464 -0.1876 -0.3460
   95MOL0     H12476   9.791  -0.083   3.702 -1.3893  1.9110 -0.4030
   95MOL0     H12477   9.652  -0.049   3.525 -1.0293 -0.5641 -0.8856
   95MOL0     H12478   9.712  -0.202   3.452  0.7076 -0.0916 -1.1756
   95MOL0     H12479   9.649   0.046   3.296 -1.6798 -0.4968 -4.0635
   95MOL0     H12480   9.530  -0.075   3.336  0.1084 -4.4498 -2.0285
   95MOL0     H12481   9.722  -0.249   3.260 -3.3474 -0.0379  2.3559
   95MOL0     H12482   9.799  -0.113   3.176  0.9382 -1.3272  1.5253
   95MOL0     H12483   9.669  -0.244   3.017 -1.0161 -1.7059  0.1434
   95MOL0     H12484   9.526  -0.229   3.110 -0.7095  1.1582 -1.4429
   95MOL0     H12485   9.645  -0.013   2.958  0.2670 -2.2841 -0.2142
   95MOL0     H12486   9.554   0.029   3.101  0.9135 -1.4662  1.5205
   95MOL0     H12487   9.385   0.011   2.950 -1.1530 -0.9811  1.0333
   95MOL0     H12488   9.356  -0.149   3.001 -1.7096  2.9067  0.8572
   95MOL0     H12489   9.392  -0.106   2.731  1.6999 -0.6111 -2.1064
   95MOL0     H12490   9.565  -0.096   2.786  0.1872 -1.1235  1.8716
   95MOL0     H12491   9.375  -0.330   2.794  0.4835 -1.9150 -1.2506
   95MOL0     H12492   9.526  -0.332   2.876  3.9906  2.0767 -2.0846
   95MOL0     H12493   9.377  -0.356   2.538 -0.2750 -0.3986 -2.3151
   95MOL0     H12494   9.657  -0.407   2.263  1.3299 -1.2379 -0.4426
   95MOL0     H12495   9.481  -0.407   2.296  1.8437 -2.0770 -2.6389
   95MOL0     H12496   9.510  -0.605   2.459  2.5606 -0.5314  1.3657
   95MOL0     H12497   9.672  -0.623   2.419  0.6623 -0.2805 -0.6324
   95MOL0     H12498   9.546  -0.778   2.308  0.5592 -0.2772  0.2506
   95MOL0     H12499   9.445  -0.662   2.223 -0.0619  2.3922  2.1480
   95MOL0     H12500   9.754  -0.679   2.199  1.2251 -0.5153 -2.3728
   95MOL0     H12501   9.645  -0.594   2.091  2.1361 -0.8388 -0.7220
   95MOL0     H12502   9.644  -1.020   1.948  0.5465  2.3968  0.1156
   95MOL0     H12503   9.485  -1.083   1.757  2.0880 -0.7248  1.1090
   95MOL0     H12504   9.250  -1.123   1.358 -1.4267  0.0562 -0.4020
   95MOL0     H12505   9.038  -1.230   1.265 -2.2574  0.7500 -0.6177
   95MOL0     H12506   8.698  -1.320   1.548 -2.7057 -3.1173 -0.8028
   95MOL0     H12507   8.672  -1.413   1.403 -1.9047 -0.1263  0.0442
   95MOL0     H12508   8.514  -1.245   1.409 -2.0075  3.6956 -2.3109
   95MOL0     H12509   8.605  -1.189   1.284 -0.9260 -0.0717 -0.3651
   95MOL0     H12510   8.750  -1.035   1.451  0.4697 -2.1172  0.0890
   95MOL0     H12511   8.669  -1.107   1.583  2.0335  2.9182  1.3253
   95MOL0     H12512   8.517  -0.950   1.370 -1.4834  0.6003  0.7828
   95MOL0     H12513   8.452  -1.006   1.520  0.6085  0.2075  1.3761
   95MOL0     H12514   8.693  -0.833   1.507  0.1596  0.6629 -0.5270
   95MOL0     H12515   8.577  -0.871   1.646 -0.3225  0.0212 -0.1083
   95MOL0     H12516   8.419  -0.727   1.574  1.3684 -2.9553  0.4194
   95MOL0     H12517   8.479  -0.718   1.405 -4.2319  0.3037 -0.6568
   95MOL0     H12518   8.600  -0.622   1.680  3.1457 -4.3190 -0.4417
   95MOL0     H12519   8.681  -0.599   1.526  0.7756  0.1593  2.6143
   95MOL0     H12520   8.395  -0.487   1.574  0.0199 -0.6980  0.9665
   95MOL0     H12521   8.507  -0.437   1.451  0.9803  2.1502  0.9423
   95MOL0     H12522   8.871  -1.241   1.649  0.2876 -1.9451 -0.3857
   95MOL0     H12523   9.073  -1.103   1.742 -1.9643  3.6527 -0.8843
   95MOL0     H12524   9.322  -0.692   1.780  0.4611  0.9638  1.3774
   95MOL0     H12525   9.459  -0.640   1.977 -1.5977 -0.5089  1.2232
   95MOL0     H12526  10.061   0.095   3.413  0.9410  0.0147  0.5739
   95MOL0     H12527  10.234   0.107   3.585  0.7460  0.5492  3.0078
   95MOL0     H12528  10.452   0.091   3.903  1.3780  2.0371  0.0658
   95MOL0     H12529  10.630   0.083   4.030  0.7432 -4.0473  0.8368
   95MOL0     H12530  10.786   0.036   4.162 -0.9501  0.3815 -0.3435
   95MOL0     H12531  10.845  -0.005   4.323  0.3094  2.0475  0.7862
   95MOL0     H12532  10.937   0.211   4.232 -0.7819  1.9772 -3.1274
   95MOL0     H12533  10.783   0.257   4.186  1.7531  1.0556 -0.3806
   95MOL0     H12534  10.707   0.304   4.430  0.2840  0.7076  0.8654
   95MOL0     H12535  10.858   0.383   4.377 -1.4026  0.7028  0.7204
   95MOL0     H12536  10.854   0.115   4.544 -1.7552  1.3306  1.9955
   95MOL0     H12537  10.987   0.230   4.495 -0.0569  1.9584 -1.0753
   95MOL0     H12538  10.886   0.350   4.866  3.0085  2.7055 -0.7234
   95MOL0     H12539  10.393   0.065   4.384  1.2191 -0.9234  0.6627
   95MOL0     H12540  10.188   0.099   4.237 -0.0945 -3.3002 -0.6655
   96MOL0     O12541   6.745   2.660   7.159 -0.5533  0.6179 -0.5615
   96MOL0     C12542   6.670   2.757   7.143  0.7405  0.2258 -0.6870
   96MOL0     O12543   6.580   2.768   7.033  0.8452  0.1934  0.2226
   96MOL0     C12544   6.578   2.671   6.933 -0.7186 -0.6528  0.4091
   96MOL0     C12545   6.606   2.528   6.942  0.8977 -0.7316 -0.4324
   96MOL0     C12546   6.592   2.445   6.830  0.5126  0.6024 -0.4884
   96MOL0     C12547   6.545   2.486   6.704  0.3217  0.0479  0.3798
   96MOL0     O12548   6.511   2.395   6.606  0.2291 -0.2065 -0.2315
   96MOL0     C12549   6.607   2.294   6.585  0.6321 -1.2789  0.2721
   96MOL0     C12550   6.586   2.220   6.451  0.1740  0.3823 -0.5620
   96MOL0     C12551   6.456   2.139   6.440  0.8170  0.8783  0.1060
   96MOL0     C12552   6.471   2.056   6.313 -0.3677 -0.6762 -0.0839
   96MOL0     C12553   6.340   1.992   6.255  0.2618 -0.4142 -0.1398
   96MOL0     C12554   6.236   2.105   6.227  0.6666  0.6184 -0.1014
   96MOL0     C12555   6.274   2.226   6.143  0.5259  0.2589 -0.5349
   96MOL0     C12556   6.344   2.183   6.009  0.2581  0.3628  0.2859
   96MOL0     N12557   6.406   2.297   5.944 -0.3205 -0.3124  0.5218
   96MOL0     C12558   6.526   2.357   5.987  0.5784  0.8701  0.3236
   96MOL0     C12559   6.518   2.484   5.940 -0.3979 -0.5770 -0.3055
   96MOL0     C12560   6.610   2.604   5.988 -0.5602 -0.1469  0.2541
   96MOL0     C12561   6.528   2.696   6.075  0.2699 -0.3293 -0.0353
   96MOL0     C12562   6.441   2.610   6.179  0.1859 -0.3264 -0.6622
   96MOL0     C12563   6.365   2.697   6.275  0.3773 -0.0738  0.0438
   96MOL0     O12564   6.280   2.615   6.363 -0.4350 -0.1224 -0.1397
   96MOL0     C12565   6.173   2.681   6.418  0.5376  0.7629  0.1999
   96MOL0     C12566   6.070   2.601   6.471 -0.6963  0.4659  1.2106
   96MOL0     C12567   5.962   2.652   6.529 -0.0482 -1.1163 -0.3757
   96MOL0     C12568   5.954   2.788   6.552  0.8258 -0.5324  0.4926
   96MOL0     C12569   5.840   2.842   6.633 -0.7758 -0.0028  0.3799
   96MOL0     O12570   5.757   2.755   6.686 -0.4139 -0.8540  0.2623
   96MOL0     C12571   5.655   2.808   6.768  0.1509 -0.5870 -0.1940
   96MOL0     C12572   5.548   2.719   6.779  0.1525 -0.3638 -0.1625
   96MOL0     C12573   5.438   2.750   6.854  0.7450 -0.6146  0.1456
   96MOL0     C12574   5.420   2.876   6.907  0.5677  0.5343 -0.0406
   96MOL0     O12575   5.320   2.906   6.999 -0.0018 -0.0058  0.1670
   96MOL0     C12576   5.204   2.972   6.940  0.8610 -0.6562 -0.2711
   96MOL0     C12577   5.082   2.950   7.036  0.4939  0.2407 -0.1117
   96MOL0     C12578   4.970   3.045   6.989 -0.4402 -0.7126 -0.4710
   96MOL0     C12579   4.830   3.037   7.057 -0.9813  1.4877  0.8110
   96MOL0     C12580   4.836   3.092   7.200 -0.8226  0.2608 -1.0081
   96MOL0     C12581   4.702   3.111   7.262 -0.0025 -0.1889 -0.6771
   96MOL0     C12582   4.603   3.179   7.165 -0.2331 -0.6659 -0.2317
   96MOL0     C12583   4.486   3.243   7.244  0.3230  0.2817 -0.6941
   96MOL0    Cl12584   4.395   3.367   7.164 -0.1212 -0.2646 -0.5206
   96MOL0     C12585   5.515   2.968   6.887 -0.0344  0.3244  0.4857
   96MOL0     C12586   5.624   2.936   6.813  0.6885 -0.4100  0.0819
   96MOL0     O12587   5.824   2.961   6.617 -0.3285  0.4543  0.4299
   96MOL0     C12588   6.056   2.875   6.507 -0.6149 -0.1130 -0.1761
   96MOL0     C12589   6.168   2.825   6.443  0.1674 -0.1193 -0.3987
   96MOL0     N12590   6.408   2.495   5.861  0.2355  0.3914  0.2366
   96MOL0     N12591   6.345   2.373   5.849 -0.0119 -0.5724  0.6247
   96MOL0     C12592   6.509   2.619   6.695  0.2303  0.3113  0.1785
   96MOL0     C12593   6.537   2.710   6.805 -0.3857  0.1376  0.0841
   96MOL0     C12594   6.700   2.875   7.240  0.7322  0.6575 -0.4094
   96MOL0     C12595   6.750   2.850   7.370 -0.2392 -0.8222  1.1670
   96MOL0     C12596   6.805   2.958   7.433  0.5111  0.7347 -0.6263
   96MOL0     C12597   6.818   3.085   7.379 -0.3261  0.0526  0.0030
   96MOL0     O12598   6.874   3.174   7.469 -0.6084 -0.1240 -1.0444
   96MOL0     C12599   6.840   3.310   7.454  0.2712  0.3331  0.2650
   96MOL0     C12600   6.705   3.355   7.516  0.4017  1.0588  0.3026
   96MOL0     C12601   6.697   3.291   7.661  0.3767  0.2564 -0.2183
   96MOL0     C12602   6.613   3.381   7.761  0.9888 -0.0675 -0.7595
   96MOL0     C12603   6.684   3.471   7.857  0.2056 -0.6820 -0.3728
   96MOL0     C12604   6.746   3.556   7.923  0.2821  0.7890 -0.4809
   96MOL0     C12605   6.755   3.111   7.258  0.1189  1.3581 -0.4879
   96MOL0     C12606   6.699   3.001   7.189  1.2297 -0.3760 -0.2575
   96MOL0     H12607   6.628   2.473   7.033 -3.9143  0.4010  1.7245
   96MOL0     H12608   6.624   2.342   6.844  1.1345  0.4761 -2.5166
   96MOL0     H12609   6.609   2.219   6.665 -2.3326 -1.1702  0.5579
   96MOL0     H12610   6.704   2.345   6.580 -1.1051  2.3080 -0.3793
   96MOL0     H12611   6.677   2.160   6.440  0.4638  0.8433 -0.7733
   96MOL0     H12612   6.582   2.293   6.369 -0.1723 -1.4364 -2.2311
   96MOL0     H12613   6.379   2.217   6.436 -0.8287 -0.6611  0.4485
   96MOL0     H12614   6.456   2.075   6.529  2.2363  0.4318 -0.1885
   96MOL0     H12615   6.519   2.116   6.236  0.1658 -0.0611  0.7164
   96MOL0     H12616   6.536   1.969   6.330 -0.0186 -1.0490 -2.8695
   96MOL0     H12617   6.280   1.945   6.334  2.0907  0.7357  2.0637
   96MOL0     H12618   6.351   1.917   6.175 -2.0772 -1.9950  0.8877
   96MOL0     H12619   6.199   2.140   6.324 -3.6227 -0.4077 -1.1276
   96MOL0     H12620   6.148   2.061   6.178 -0.0221  0.8799  0.8751
   96MOL0     H12621   6.188   2.288   6.119  0.2965 -0.9578 -3.1509
   96MOL0     H12622   6.343   2.290   6.200 -0.3273 -1.1992  2.3420
   96MOL0     H12623   6.268   2.137   5.945  0.2822  0.3277  0.2830
   96MOL0     H12624   6.419   2.106   6.027 -1.0468 -0.7778  1.0115
   96MOL0     H12625   6.597   2.323   6.062  1.2727 -2.0409 -1.4693
   96MOL0     H12626   6.648   2.654   5.899 -0.7298 -1.8272 -0.8162
   96MOL0     H12627   6.697   2.579   6.050 -0.3846  2.3394  1.1280
   96MOL0     H12628   6.459   2.761   6.020  1.2475  0.3470 -0.4937
   96MOL0     H12629   6.598   2.764   6.125 -1.5848  0.7660  1.1681
   96MOL0     H12630   6.372   2.544   6.126 -1.0678 -0.6405  1.2707
   96MOL0     H12631   6.494   2.538   6.243 -2.7395 -0.7515  1.4705
   96MOL0     H12632   6.292   2.747   6.210 -0.5967 -1.2609  0.1788
   96MOL0     H12633   6.434   2.764   6.326  1.1504 -1.1272  0.4268
   96MOL0     H12634   6.080   2.493   6.465  4.8684  0.7933 -0.6032
   96MOL0     H12635   5.877   2.586   6.545 -2.0231  1.4050  0.1893
   96MOL0     H12636   5.561   2.621   6.734 -1.0842  0.1702 -1.7935
   96MOL0     H12637   5.362   2.681   6.890  0.8535 -0.1040  1.4276
   96MOL0     H12638   5.165   2.927   6.848  1.3909  1.5776 -1.6731
   96MOL0     H12639   5.227   3.076   6.914  0.8904 -1.0682 -2.0389
   96MOL0     H12640   5.106   2.968   7.142 -0.5836 -1.1795  0.4030
   96MOL0     H12641   5.042   2.849   7.021  1.7930 -0.0098 -2.2281
   96MOL0     H12642   4.952   3.038   6.882  0.9382  0.1841 -0.7779
   96MOL0     H12643   4.998   3.150   6.995 -2.4412 -0.2008  1.3550
   96MOL0     H12644   4.746   3.072   6.995 -3.1450 -0.1017  2.6449
   96MOL0     H12645   4.819   2.929   7.065 -0.8261  1.2002 -1.9153
   96MOL0     H12646   4.888   3.187   7.214 -2.5211  1.2651 -1.1746
   96MOL0     H12647   4.889   3.012   7.252 -0.0314  1.9026  0.8080
   96MOL0     H12648   4.711   3.173   7.351  0.3576 -0.4996 -0.4951
   96MOL0     H12649   4.658   3.015   7.291 -0.9831  0.3276 -0.4239
   96MOL0     H12650   4.665   3.256   7.116  0.3180 -0.7854  0.2652
   96MOL0     H12651   4.554   3.125   7.084 -0.2367  2.1398 -2.2625
   96MOL0     H12652   4.527   3.297   7.330  0.5095  2.0663 -1.8524
   96MOL0     H12653   4.421   3.162   7.277  1.6873 -1.6184 -2.3743
   96MOL0     H12654   5.514   3.065   6.936 -0.7757  0.9579 -0.7110
   96MOL0     H12655   5.700   3.014   6.813  0.1727  0.1046  0.2516
   96MOL0     H12656   6.054   2.983   6.518  1.0982 -0.0067 -0.6394
   96MOL0     H12657   6.243   2.889   6.397  0.3872 -0.7157 -0.8932
   96MOL0     H12658   6.469   2.664   6.604  0.2073  0.2542  0.1601
   96MOL0     H12659   6.518   2.817   6.797  1.9323  0.5932  0.0016
   96MOL0     H12660   6.754   2.752   7.418 -1.9508  0.6068  4.5946
   96MOL0     H12661   6.831   2.939   7.537  0.1440  0.3579 -0.5989
   96MOL0     H12662   6.832   3.333   7.347  0.5410 -2.4804 -0.4409
   96MOL0     H12663   6.917   3.377   7.492 -0.5928  2.1139 -0.9573
   96MOL0     H12664   6.707   3.464   7.515 -1.1421  1.1289 -1.9667
   96MOL0     H12665   6.625   3.317   7.453  1.1554 -1.2342  0.6428
   96MOL0     H12666   6.790   3.263   7.710  0.1842 -1.2518 -0.6642
   96MOL0     H12667   6.649   3.193   7.652  0.5828  0.1824 -0.5220
   96MOL0     H12668   6.544   3.451   7.714  0.3438 -1.4425 -1.9657
   96MOL0     H12669   6.550   3.313   7.820  0.2400  0.4059 -1.0016
   96MOL0     H12670   6.816   3.621   7.970 -0.7515 -0.0077  2.4304
   96MOL0     H12671   6.747   3.206   7.206  1.0383  1.2443 -0.8670
   96MOL0     H12672   6.664   3.012   7.087 -1.9025  1.7851  0.9042
   97MOL0     O12673   3.922   6.390   5.446  0.0544 -0.4265  0.1723
   97MOL0     C12674   4.002   6.320   5.506  0.4485  0.2512  0.1990
   97MOL0     O12675   4.138   6.329   5.509  0.0686  0.2664 -0.7715
   97MOL0     C12676   4.200   6.415   5.417 -0.4733  0.3929  0.9273
   97MOL0     C12677   4.246   6.376   5.290  0.0079  0.6349  0.8878
   97MOL0     C12678   4.324   6.454   5.204  0.3492  0.1548 -0.8123
   97MOL0     C12679   4.366   6.578   5.251 -0.3540  0.2006 -0.0897
   97MOL0     O12680   4.445   6.648   5.165  0.1316 -0.0400  0.3037
   97MOL0     C12681   4.438   6.793   5.171  0.6989 -0.1093  0.3801
   97MOL0     C12682   4.496   6.845   5.050  0.1149 -0.4307 -0.2327
   97MOL0     C12683   4.636   6.888   5.059 -0.4585 -0.3062 -0.1529
   97MOL0     C12684   4.683   6.947   4.924 -0.2807 -0.5246 -0.9978
   97MOL0     C12685   4.836   6.964   4.919  0.4267  0.3676  0.6352
   97MOL0     C12686   4.886   7.080   5.004 -0.0080  0.4949 -0.3459
   97MOL0     C12687   4.845   7.212   4.950  0.7920  0.2441 -0.0252
   97MOL0     C12688   4.860   7.237   4.801  0.1693  0.7156 -0.2781
   97MOL0     N12689   4.996   7.227   4.752 -0.2245  0.3319  0.3838
   97MOL0     C12690   5.050   7.129   4.681  1.4874 -0.1591  0.2395
   97MOL0     C12691   5.173   7.177   4.648 -0.4934 -0.1008 -0.4999
   97MOL0     C12692   5.278   7.106   4.569  0.3987 -0.0859 -0.7451
   97MOL0     C12693   5.257   7.118   4.422 -0.3070  0.7481  0.4216
   97MOL0     C12694   5.331   7.012   4.329 -0.2948  0.2586  0.3943
   97MOL0     C12695   5.242   6.964   4.202  0.7160  0.2398 -0.7194
   97MOL0     O12696   5.326   6.879   4.127 -0.0527 -0.2899  0.0483
   97MOL0     C12697   5.274   6.819   4.020 -0.2043 -0.1488  0.2652
   97MOL0     C12698   5.361   6.738   3.955  0.3758  0.6763 -0.7710
   97MOL0     C12699   5.335   6.666   3.837  0.7988  0.5025  0.3609
   97MOL0     C12700   5.208   6.685   3.783  0.5018  0.2246 -1.2899
   97MOL0     C12701   5.182   6.621   3.655 -1.1357  0.2116 -0.6990
   97MOL0     O12702   5.250   6.515   3.618 -0.3256  0.3970 -1.3443
   97MOL0     C12703   5.225   6.447   3.496  0.0502 -0.2990 -0.7393
   97MOL0     C12704   5.340   6.415   3.422  0.0169 -0.0410  0.8197
   97MOL0     C12705   5.318   6.332   3.305  0.7815 -0.4179 -0.0785
   97MOL0     C12706   5.186   6.286   3.268  0.1104 -0.1848  0.8258
   97MOL0     O12707   5.179   6.201   3.166  0.3417 -0.7585  0.1209
   97MOL0     C12708   5.144   6.072   3.223  0.7412 -0.4481 -0.6422
   97MOL0     C12709   5.175   5.961   3.122 -0.3035 -0.5722 -0.4075
   97MOL0     C12710   5.313   5.944   3.063 -0.6733 -0.2396  0.4424
   97MOL0     C12711   5.343   5.820   2.992 -0.2703 -0.3593 -0.0531
   97MOL0     C12712   5.490   5.779   2.997 -0.4167  0.3853 -0.0591
   97MOL0     C12713   5.530   5.705   2.876  0.3031 -0.2666 -0.3193
   97MOL0     C12714   5.685   5.655   2.865 -0.3798 -1.0461 -1.2753
   97MOL0     C12715   5.704   5.543   2.972 -0.3285 -1.0583  0.7779
   97MOL0    Cl12716   5.873   5.491   2.995  0.1586  0.0123 -0.0480
   97MOL0     C12717   5.079   6.333   3.337  0.5317 -0.0900 -0.2574
   97MOL0     C12718   5.097   6.414   3.453 -0.0257 -0.3728 -1.1823
   97MOL0     O12719   5.096   6.677   3.582 -0.5612 -0.9751 -0.7184
   97MOL0     C12720   5.111   6.765   3.855 -0.4596  0.0873  0.8467
   97MOL0     C12721   5.151   6.836   3.968  0.1814  0.1497  0.6467
   97MOL0     N12722   5.184   7.308   4.702  0.0439 -0.1753  0.1137
   97MOL0     N12723   5.073   7.335   4.754  0.0852 -0.0245 -0.0207
   97MOL0     C12724   4.311   6.628   5.369 -0.2848 -0.0555 -0.6458
   97MOL0     C12725   4.232   6.542   5.456 -0.6374 -0.5137  0.0134
   97MOL0     C12726   3.934   6.222   5.582  0.1936  0.3120 -0.8558
   97MOL0     C12727   4.006   6.135   5.659  0.6960  0.6395 -0.9848
   97MOL0     C12728   3.947   6.016   5.729  0.4369 -0.8169 -0.6535
   97MOL0     C12729   3.808   6.002   5.732 -0.6104 -0.4902  0.7144
   97MOL0     O12730   3.734   5.902   5.797 -0.4381  1.2252 -0.5620
   97MOL0     C12731   3.791   5.775   5.838  0.1323  0.4376 -0.2371
   97MOL0     C12732   3.781   5.670   5.727  0.4996 -0.5576 -0.2939
   97MOL0     C12733   3.849   5.534   5.754 -0.0213 -1.1643  0.2941
   97MOL0     C12734   3.793   5.422   5.662  1.2316  0.5527 -0.3400
   97MOL0     C12735   3.801   5.283   5.723 -0.0990 -0.6072  0.3484
   97MOL0     C12736   3.814   5.167   5.758  0.0546 -0.2953  0.6521
   97MOL0     C12737   3.736   6.099   5.653  0.8444  0.8512 -0.3194
   97MOL0     C12738   3.798   6.202   5.593 -0.5266 -0.2220  0.6585
   97MOL0     H12739   4.216   6.281   5.248 -1.3083  0.5210  2.0149
   97MOL0     H12740   4.340   6.412   5.105 -0.3974 -0.6178 -0.6154
   97MOL0     H12741   4.494   6.831   5.256  2.4212  0.0451 -0.7759
   97MOL0     H12742   4.337   6.835   5.163  1.4799  1.5127 -2.4562
   97MOL0     H12743   4.430   6.930   5.032 -1.3652 -1.7691 -1.5359
   97MOL0     H12744   4.477   6.770   4.972 -4.2676 -0.4985  0.6429
   97MOL0     H12745   4.689   6.797   5.090  0.0691  0.0484 -0.0051
   97MOL0     H12746   4.645   6.966   5.135  1.4269 -1.0082  0.4177
   97MOL0     H12747   4.653   6.876   4.847 -1.1998 -1.3665  0.0987
   97MOL0     H12748   4.619   7.035   4.909  0.6421 -0.1011 -2.6225
   97MOL0     H12749   4.856   6.979   4.812 -0.6679  1.8462  0.6087
   97MOL0     H12750   4.888   6.877   4.959  0.0015  1.2325  3.2908
   97MOL0     H12751   4.995   7.088   4.998 -0.0171  2.5042  0.9702
   97MOL0     H12752   4.856   7.075   5.109 -0.9634 -1.3406 -0.6637
   97MOL0     H12753   4.742   7.226   4.984  1.4183  2.8169  1.0731
   97MOL0     H12754   4.901   7.291   5.002 -3.8313  2.3819  2.2793
   97MOL0     H12755   4.825   7.339   4.783  0.8937  1.1349  0.6221
   97MOL0     H12756   4.790   7.175   4.743 -0.0210 -0.4508  1.1287
   97MOL0     H12757   5.009   7.036   4.642  0.8331  0.9000 -1.7291
   97MOL0     H12758   5.282   7.004   4.610 -4.0383 -0.0006  0.3522
   97MOL0     H12759   5.373   7.149   4.604  1.7798 -3.4867  0.1541
   97MOL0     H12760   5.290   7.220   4.397  0.7084  0.3633  0.1298
   97MOL0     H12761   5.150   7.103   4.409  0.1152 -1.7044 -0.7285
   97MOL0     H12762   5.427   7.057   4.301  0.0605  0.1720  1.4180
   97MOL0     H12763   5.340   6.915   4.377 -2.8171 -1.2567 -1.9556
   97MOL0     H12764   5.201   7.050   4.149 -1.5454 -0.8376 -0.8590
   97MOL0     H12765   5.163   6.895   4.235  1.4478 -0.0468  0.5220
   97MOL0     H12766   5.458   6.725   4.001 -0.9682  1.1424  2.4918
   97MOL0     H12767   5.414   6.602   3.801  0.0254 -0.4032  0.2188
   97MOL0     H12768   5.439   6.457   3.434 -0.9220  3.5029 -1.8922
   97MOL0     H12769   5.401   6.319   3.236 -0.0854  0.7339 -1.3704
   97MOL0     H12770   5.038   6.067   3.249 -0.2632  0.7292 -4.0112
   97MOL0     H12771   5.216   6.057   3.305 -0.7408 -1.2074  0.5821
   97MOL0     H12772   5.121   5.984   3.030 -0.2200 -0.3252 -0.3953
   97MOL0     H12773   5.137   5.863   3.152 -1.2232 -0.3527 -0.8080
   97MOL0     H12774   5.385   5.955   3.145 -1.2912 -1.1615  1.1362
   97MOL0     H12775   5.332   6.024   2.991 -1.4193 -0.1544  0.3384
   97MOL0     H12776   5.295   5.729   3.031 -1.3686 -1.1290 -2.9822
   97MOL0     H12777   5.299   5.831   2.893 -1.5321  1.0982  0.6113
   97MOL0     H12778   5.505   5.723   3.090 -2.4952 -0.2381 -0.0515
   97MOL0     H12779   5.557   5.866   2.999  1.2112 -0.7151 -2.1211
   97MOL0     H12780   5.513   5.763   2.784  3.7132 -0.2487 -1.0726
   97MOL0     H12781   5.465   5.618   2.864  0.5835 -0.6120  0.6334
   97MOL0     H12782   5.693   5.614   2.764 -4.0829 -3.0233 -0.9234
   97MOL0     H12783   5.750   5.740   2.891 -3.0091  1.0107 -0.9311
   97MOL0     H12784   5.639   5.459   2.944 -1.5522  0.5340 -1.5321
   97MOL0     H12785   5.673   5.581   3.069  1.7278  2.0964  0.3492
   97MOL0     H12786   4.985   6.300   3.295  0.8476  0.8755 -1.7749
   97MOL0     H12787   5.008   6.429   3.514  1.3115  1.4002  0.4549
   97MOL0     H12788   5.010   6.776   3.817 -0.8587  0.2424  1.9200
   97MOL0     H12789   5.073   6.891   4.022  0.4786  1.7033 -0.4428
   97MOL0     H12790   4.328   6.734   5.386  1.2139 -0.1409 -1.4158
   97MOL0     H12791   4.205   6.578   5.555  5.7103  2.2146  1.2888
   97MOL0     H12792   4.114   6.122   5.660  0.8002  1.1509  1.3015
   97MOL0     H12793   4.011   5.944   5.778  1.3786  1.6749  2.0595
   97MOL0     H12794   3.749   5.740   5.933  1.0957  2.5030  1.0247
   97MOL0     H12795   3.892   5.797   5.874 -0.4314  1.1298  0.9949
   97MOL0     H12796   3.676   5.640   5.718  0.8252 -2.3651  1.2489
   97MOL0     H12797   3.819   5.716   5.635  0.8136 -0.1590  0.0282
   97MOL0     H12798   3.831   5.503   5.857 -1.8136  0.9780  0.6934
   97MOL0     H12799   3.957   5.551   5.746  0.0355 -1.8150 -0.3959
   97MOL0     H12800   3.692   5.443   5.628  1.8918  3.4985 -0.7436
   97MOL0     H12801   3.848   5.434   5.568 -2.0179 -1.7020 -2.7682
   97MOL0     H12802   3.827   5.062   5.775  0.8341 -0.1441  1.0224
   97MOL0     H12803   3.630   6.083   5.636  0.2428  1.7327  2.1677
   97MOL0     H12804   3.726   6.264   5.540  2.1700  1.7293 -0.9713
   98MOL0     O12805  11.110   0.501   2.446 -0.1099 -0.0619 -0.2541
   98MOL0     C12806  11.108   0.579   2.541  0.9747  0.4811  0.5615
   98MOL0     O12807  11.149   0.562   2.665  0.5494  0.2705 -0.2351
   98MOL0     C12808  11.171   0.444   2.732 -0.4438 -0.1682  0.2459
   98MOL0     C12809  11.206   0.461   2.863 -0.8340 -0.6237 -0.3663
   98MOL0     C12810  11.224   0.347   2.943 -0.7571 -0.4786 -0.8789
   98MOL0     C12811  11.222   0.224   2.894 -0.0301  0.3989  0.9138
   98MOL0     O12812  11.259   0.133   2.986 -0.4679 -0.4352 -0.0530
   98MOL0     C12813  11.259  -0.007   2.967  0.2650  0.4541  0.2557
   98MOL0     C12814  11.277  -0.093   3.098 -0.4631  0.4925  0.7811
   98MOL0     C12815  11.224  -0.234   3.066  0.1665 -0.2603 -0.1799
   98MOL0     C12816  11.202  -0.322   3.193 -0.5470 -0.5308 -0.3222
   98MOL0     C12817  11.157  -0.462   3.155 -0.2511 -0.2829 -0.0599
   98MOL0     C12818  11.052  -0.479   3.048  0.2888  0.1498 -0.2889
   98MOL0     C12819  10.921  -0.454   3.096  0.7922  0.4295 -1.5945
   98MOL0     C12820  10.814  -0.433   2.984  0.1108 -0.6832  0.6287
   98MOL0     N12821  10.672  -0.399   3.021  0.0976  0.2014 -0.3944
   98MOL0     C12822  10.564  -0.441   2.947  0.4566 -0.0477 -0.0496
   98MOL0     C12823  10.463  -0.366   3.003  0.4258 -0.1109  0.3804
   98MOL0     C12824  10.323  -0.383   2.960 -0.1146  0.4297 -0.6751
   98MOL0     C12825  10.264  -0.510   3.027  0.0942 -0.0451 -0.7352
   98MOL0     C12826  10.123  -0.554   2.990  0.2008 -0.4032 -0.0056
   98MOL0     C12827  10.014  -0.442   3.031 -1.2745  0.0584 -0.1527
   98MOL0     O12828   9.889  -0.476   2.970  0.1996 -0.4314 -0.6786
   98MOL0     C12829   9.810  -0.574   3.020 -0.8068  0.8884 -0.1890
   98MOL0     C12830   9.824  -0.629   3.147 -0.5860 -0.1272 -0.7597
   98MOL0     C12831   9.727  -0.720   3.200  0.2123 -0.0557  0.1404
   98MOL0     C12832   9.617  -0.764   3.126 -0.1902 -0.6747  0.2088
   98MOL0     C12833   9.500  -0.852   3.174  0.1568  0.1208 -0.3057
   98MOL0     O12834   9.386  -0.838   3.106  0.1878  0.1733 -0.8627
   98MOL0     C12835   9.290  -0.939   3.113  0.2628 -0.8662  0.7069
   98MOL0     C12836   9.254  -1.022   3.220  0.1932  0.1905 -0.7617
   98MOL0     C12837   9.156  -1.125   3.204  0.3250  0.5983  0.2354
   98MOL0     C12838   9.091  -1.147   3.084 -0.0677  0.2539 -0.3097
   98MOL0     O12839   9.008  -1.255   3.065  0.0171  0.3925 -0.3451
   98MOL0     C12840   9.013  -1.322   2.938 -0.0558 -0.3381  0.0657
   98MOL0     C12841   8.948  -1.464   2.922 -0.1253 -0.1734  0.4205
   98MOL0     C12842   8.954  -1.506   2.776 -0.3651 -0.4901 -0.1361
   98MOL0     C12843   8.904  -1.647   2.755 -0.4262 -0.8119 -0.2289
   98MOL0     C12844   8.939  -1.706   2.614 -0.9185  0.9436  0.3070
   98MOL0     C12845   9.076  -1.786   2.617  0.9077  0.5255 -0.3028
   98MOL0     C12846   9.115  -1.829   2.474 -0.0672 -0.0709 -0.1551
   98MOL0     C12847   9.016  -1.918   2.395  0.4079 -0.2349  0.3827
   98MOL0    Cl12848   8.898  -1.805   2.308  0.3925 -0.0635 -0.2076
   98MOL0     C12849   9.126  -1.056   2.980  0.2202 -0.7836  0.3050
   98MOL0     C12850   9.209  -0.950   2.993 -0.0580  0.9216 -0.0016
   98MOL0     O12851   9.526  -0.916   3.276 -0.3094  0.4025 -0.7979
   98MOL0     C12852   9.610  -0.703   2.995 -0.6341  0.1870  0.1534
   98MOL0     C12853   9.707  -0.615   2.949  0.3176  0.3801 -0.4487
   98MOL0     N12854  10.521  -0.285   3.099 -0.0848 -0.9838  0.2947
   98MOL0     N12855  10.641  -0.310   3.118  0.4164 -0.2049 -0.1766
   98MOL0     C12856  11.182   0.203   2.759  0.0004  0.2787  0.8017
   98MOL0     C12857  11.150   0.315   2.684  0.0395 -0.0749  0.3499
   98MOL0     C12858  11.065   0.714   2.526 -0.2476  0.0671  1.0564
   98MOL0     C12859  11.032   0.761   2.405  0.0288 -0.4854 -0.7969
   98MOL0     C12860  10.992   0.893   2.381 -1.1164 -0.2560  0.6145
   98MOL0     C12861  10.991   0.989   2.488  0.0245 -1.0074 -0.1696
   98MOL0     O12862  10.956   1.121   2.468 -0.4688  0.5449 -0.0319
   98MOL0     C12863  11.008   1.194   2.356  0.1310  1.5621 -0.1932
   98MOL0     C12864  10.989   1.344   2.374  0.0041  0.3185 -1.8647
   98MOL0     C12865  11.051   1.406   2.496 -0.1105 -0.0351 -0.3619
   98MOL0     C12866  11.008   1.551   2.496  0.4189 -0.6903 -0.1917
   98MOL0     C12867  11.070   1.614   2.613  0.4281  0.1296 -0.5613
   98MOL0     C12868  11.124   1.651   2.709 -0.1684 -0.2256 -0.4048
   98MOL0     C12869  11.025   0.937   2.615  0.5681 -0.6813 -0.5310
   98MOL0     C12870  11.051   0.803   2.631 -0.2235  1.2269 -0.5176
   98MOL0     H12871  11.194   0.557   2.913  0.1902 -0.6612 -0.0235
   98MOL0     H12872  11.226   0.362   3.050 -0.5090  0.7463 -1.0332
   98MOL0     H12873  11.339  -0.045   2.902 -1.7886 -0.1487 -2.0588
   98MOL0     H12874  11.165  -0.039   2.922 -1.5387  4.4577  0.7085
   98MOL0     H12875  11.222  -0.056   3.185 -3.0765 -3.7598  1.2433
   98MOL0     H12876  11.381  -0.103   3.130 -0.3751  0.9333  0.6498
   98MOL0     H12877  11.290  -0.289   2.999  0.0096 -1.0516  0.2998
   98MOL0     H12878  11.143  -0.226   2.992  0.0546  0.3530  0.0028
   98MOL0     H12879  11.295  -0.337   3.249 -2.1934  2.0607  3.5951
   98MOL0     H12880  11.138  -0.276   3.269  0.7922 -0.4454  0.7788
   98MOL0     H12881  11.115  -0.511   3.244 -3.8212 -1.4089 -2.1196
   98MOL0     H12882  11.253  -0.504   3.123  0.2766  0.6887  0.2098
   98MOL0     H12883  11.055  -0.587   3.028  0.5010  0.2046 -0.5505
   98MOL0     H12884  11.090  -0.431   2.957 -2.9249 -0.9191 -2.3808
   98MOL0     H12885  10.892  -0.540   3.156 -0.7130  1.4141 -0.8739
   98MOL0     H12886  10.919  -0.364   3.158 -1.3988  0.7764 -2.1061
   98MOL0     H12887  10.802  -0.538   2.953 -0.3113 -0.7472  0.9926
   98MOL0     H12888  10.857  -0.369   2.907  1.2353  1.5641  2.9921
   98MOL0     H12889  10.545  -0.518   2.874 -1.1925 -2.4553  2.6766
   98MOL0     H12890  10.327  -0.395   2.852  1.5237  1.4037 -0.7553
   98MOL0     H12891  10.259  -0.299   2.989 -0.3654  0.6490 -1.8227
   98MOL0     H12892  10.264  -0.498   3.136  1.0873 -0.7503 -0.6435
   98MOL0     H12893  10.327  -0.595   2.999 -0.1224  0.2863 -2.3156
   98MOL0     H12894  10.101  -0.579   2.886 -1.1172 -0.6486  0.3123
   98MOL0     H12895  10.101  -0.650   3.038  1.3596 -1.4269 -1.4229
   98MOL0     H12896  10.039  -0.344   2.990  3.1033 -0.4759  0.7474
   98MOL0     H12897  10.014  -0.423   3.139 -0.0857 -2.2657  0.3247
   98MOL0     H12898   9.906  -0.597   3.211 -1.5537  0.2838  0.3157
   98MOL0     H12899   9.728  -0.760   3.302 -0.7571 -0.1050  0.1365
   98MOL0     H12900   9.312  -1.013   3.311 -0.9615  1.7603 -0.1452
   98MOL0     H12901   9.133  -1.194   3.285 -2.7456 -0.4401 -1.3526
   98MOL0     H12902   9.118  -1.331   2.909 -0.3614  2.1397 -2.1520
   98MOL0     H12903   8.971  -1.251   2.867  0.9600  1.7787  1.4549
   98MOL0     H12904   8.846  -1.477   2.958 -0.6308  0.6468 -0.6674
   98MOL0     H12905   9.008  -1.539   2.974 -2.0914 -1.6284  0.6882
   98MOL0     H12906   9.060  -1.493   2.749 -0.5029  0.1293 -0.3815
   98MOL0     H12907   8.898  -1.433   2.718  0.5158 -1.4548 -2.3302
   98MOL0     H12908   8.932  -1.709   2.841 -3.0769 -1.0598  0.5399
   98MOL0     H12909   8.795  -1.639   2.762 -0.4710 -0.6637 -1.0085
   98MOL0     H12910   8.937  -1.629   2.536 -0.4836  0.0391 -0.6314
   98MOL0     H12911   8.861  -1.782   2.602 -0.7021  0.8723 -0.7111
   98MOL0     H12912   9.055  -1.863   2.692 -0.0171  0.4696 -0.5969
   98MOL0     H12913   9.156  -1.722   2.655  2.2699  1.1773 -3.9288
   98MOL0     H12914   9.145  -1.737   2.422 -0.2098  1.0827  1.7095
   98MOL0     H12915   9.208  -1.883   2.487  1.0701  1.9938  0.8063
   98MOL0     H12916   8.966  -1.991   2.459  1.0460 -0.9282  0.0985
   98MOL0     H12917   9.060  -1.985   2.321 -1.6423 -2.5464  1.1118
   98MOL0     H12918   9.089  -1.084   2.882  1.0446 -0.0286 -0.2439
   98MOL0     H12919   9.226  -0.881   2.911 -0.1119  2.0333  0.9019
   98MOL0     H12920   9.538  -0.742   2.924  0.4551  0.8399 -1.3777
   98MOL0     H12921   9.710  -0.587   2.844 -0.9987 -0.2015 -0.6546
   98MOL0     H12922  11.185   0.106   2.711  0.5384  0.6363  0.1009
   98MOL0     H12923  11.121   0.311   2.579 -4.7132  2.5499  1.2462
   98MOL0     H12924  11.044   0.686   2.328  1.1883 -1.9392  0.7124
   98MOL0     H12925  10.956   0.913   2.281 -2.4352  0.2831  1.1752
   98MOL0     H12926  10.943   1.159   2.275  1.3436 -1.3487 -0.0485
   98MOL0     H12927  11.109   1.161   2.331  1.3350  4.5436  0.3318
   98MOL0     H12928  11.010   1.401   2.282 -3.1230  3.9055 -0.6341
   98MOL0     H12929  10.882   1.336   2.394  0.4638 -5.4832  0.0770
   98MOL0     H12930  11.159   1.390   2.485 -0.2435 -0.7680 -0.6118
   98MOL0     H12931  11.015   1.347   2.580  0.7323 -0.4678 -0.2933
   98MOL0     H12932  11.040   1.602   2.405 -1.9754  0.0890 -0.6725
   98MOL0     H12933  10.900   1.564   2.500  0.4263 -0.1068 -1.3379
   98MOL0     H12934  11.197   1.666   2.786 -3.2052 -0.0240  2.7433
   98MOL0     H12935  11.012   1.003   2.700 -2.8278 -0.2515 -1.2313
   98MOL0     H12936  11.056   0.771   2.734 -0.6000  0.2787 -0.7855
   99MOL0     O12937   3.908   5.653  10.710 -0.7160  0.2847 -0.0943
   99MOL0     C12938   3.888   5.560  10.786 -0.7417  0.3798 -0.6440
   99MOL0     O12939   3.801   5.564  10.898 -0.5214  0.0135 -0.4114
   99MOL0     C12940   3.738   5.683  10.929 -0.0504 -0.1824 -0.4711
   99MOL0     C12941   3.708   5.790  10.843  0.3974 -0.1415 -0.0556
   99MOL0     C12942   3.649   5.906  10.900  0.0841 -0.8607  0.2129
   99MOL0     C12943   3.618   5.922  11.034  0.5552  0.0586  1.0274
   99MOL0     O12944   3.559   6.035  11.076 -0.4631  0.3779  0.3153
   99MOL0     C12945   3.523   6.058  11.211 -0.3410  0.7172 -0.4714
   99MOL0     C12946   3.460   6.198  11.210 -0.1841 -0.0965  0.9891
   99MOL0     C12947   3.320   6.177  11.175 -0.0292  0.1916 -0.1021
   99MOL0     C12948   3.250   6.302  11.122  0.1689  0.5381  0.2793
   99MOL0     C12949   3.096   6.259  11.101  0.5230  0.1430  0.1773
   99MOL0     C12950   3.016   6.244  11.235 -0.3442  0.8834  0.5547
   99MOL0     C12951   2.992   6.385  11.301 -0.6662 -1.0037 -0.5687
   99MOL0     C12952   2.886   6.463  11.235  0.3049  0.3798 -0.0558
   99MOL0     N12953   2.761   6.399  11.255  0.3223 -0.3668  0.3445
   99MOL0     C12954   2.697   6.388  11.379  0.3595  1.4487  0.0150
   99MOL0     C12955   2.563   6.368  11.346 -0.3253  0.1910 -0.5076
   99MOL0     C12956   2.453   6.351  11.444 -0.2535  0.2448 -0.3987
   99MOL0     C12957   2.390   6.500  11.466  0.6677  1.0135  0.1869
   99MOL0     C12958   2.288   6.492  11.585 -1.0215 -0.7520 -0.2579
   99MOL0     C12959   2.230   6.635  11.614 -0.4659  0.9615  0.3118
   99MOL0     O12960   2.172   6.690  11.495 -0.0599  0.1898  0.0410
   99MOL0     C12961   2.166   6.828  11.499 -0.7703 -0.4954  1.6885
   99MOL0     C12962   2.116   6.901  11.609 -0.8461 -0.0646 -0.0484
   99MOL0     C12963   2.078   7.037  11.582  0.1765 -0.6783 -0.1574
   99MOL0     C12964   2.094   7.102  11.463 -0.7086 -0.0866 -0.4204
   99MOL0     C12965   2.045   7.240  11.436  0.8280  0.0302 -0.9148
   99MOL0     O12966   2.038   7.287  11.311  0.0435  0.7046  0.4247
   99MOL0     C12967   1.986   7.412  11.292  0.6214 -0.3008 -0.2710
   99MOL0     C12968   2.074   7.515  11.256 -0.3004  0.3187  0.3004
   99MOL0     C12969   2.016   7.636  11.214  0.7827  0.7750 -0.3086
   99MOL0     C12970   1.881   7.661  11.228  0.7218 -0.9165  0.1255
   99MOL0     O12971   1.841   7.779  11.185  0.4810  0.0105 -0.2968
   99MOL0     C12972   1.705   7.802  11.139 -0.2675  0.2288  0.0760
   99MOL0     C12973   1.685   7.943  11.070 -0.8909 -0.4834 -0.1655
   99MOL0     C12974   1.679   8.064  11.162 -0.0914 -0.4401  0.5859
   99MOL0     C12975   1.650   8.189  11.069 -0.5038  0.5260 -0.6093
   99MOL0     C12976   1.553   8.291  11.119 -1.2732 -1.0309 -0.3439
   99MOL0     C12977   1.524   8.388  11.003  0.2955 -0.1714 -0.1501
   99MOL0     C12978   1.460   8.518  11.064  0.1312 -0.3211  0.8190
   99MOL0     C12979   1.300   8.498  11.089  0.1076 -0.4376  0.7806
   99MOL0    Cl12980   1.262   8.398  11.232 -0.1976  0.3580 -0.0167
   99MOL0     C12981   1.799   7.555  11.260  0.1773 -0.3838  0.8660
   99MOL0     C12982   1.849   7.428  11.297 -0.0135  0.1631  1.6703
   99MOL0     O12983   2.009   7.308  11.535 -0.2318 -0.0391 -0.4587
   99MOL0     C12984   2.141   7.026  11.361  0.0844 -1.2019  0.1294
   99MOL0     C12985   2.171   6.894  11.372 -0.0235 -0.3939 -0.3026
   99MOL0     N12986   2.548   6.358  11.216 -0.2285  0.0579  0.2044
   99MOL0     N12987   2.666   6.376  11.159 -0.6634 -0.4372 -0.0396
   99MOL0     C12988   3.662   5.819  11.119 -0.6892 -0.1155  0.6321
   99MOL0     C12989   3.717   5.707  11.063 -0.2229 -0.5685  0.9544
   99MOL0     C12990   3.964   5.434  10.763  0.1930  0.5404 -0.0547
   99MOL0     C12991   3.961   5.340  10.864  0.1562  0.2837  0.8350
   99MOL0     C12992   4.045   5.219  10.848  0.4792 -0.0638  0.3591
   99MOL0     C12993   4.128   5.199  10.732  0.1803  0.4929  0.4748
   99MOL0     O12994   4.205   5.084  10.740 -0.1731 -0.3490 -0.5334
   99MOL0     C12995   4.277   5.026  10.625 -0.6693 -0.1092 -0.9801
   99MOL0     C12996   4.182   4.975  10.511 -0.5800 -0.0579  0.3444
   99MOL0     C12997   4.258   4.920  10.393 -0.5204 -0.7202  0.3886
   99MOL0     C12998   4.338   5.028  10.317 -0.6407 -0.7023  0.0045
   99MOL0     C12999   4.385   4.981  10.193  0.0591  0.8408 -0.0589
   99MOL0     C13000   4.438   4.936  10.098 -1.3409  0.6317  0.2908
   99MOL0     C13001   4.119   5.295  10.632 -0.2903  0.3163  0.2539
   99MOL0     C13002   4.044   5.409  10.650  0.7486 -1.2378 -0.4292
   99MOL0     H13003   3.719   5.783  10.735  1.0348 -0.9876  0.0552
   99MOL0     H13004   3.625   5.994  10.840 -1.4208 -0.6890  1.0352
   99MOL0     H13005   3.615   6.065  11.270  1.3151  3.6140 -3.0756
   99MOL0     H13006   3.450   5.983  11.244 -2.3436  3.5320  2.0262
   99MOL0     H13007   3.497   6.259  11.127 -1.5011 -3.5648 -2.4949
   99MOL0     H13008   3.474   6.246  11.307 -1.6210  1.7404  0.3415
   99MOL0     H13009   3.264   6.137  11.260 -1.9463  1.2971 -0.7775
   99MOL0     H13010   3.309   6.096  11.102 -2.7231  0.2211  0.1920
   99MOL0     H13011   3.256   6.381  11.196  3.5104  0.3281  0.3491
   99MOL0     H13012   3.292   6.345  11.031 -3.1905  0.9584 -1.2555
   99MOL0     H13013   3.081   6.178  11.029  0.3218  1.1212 -0.9137
   99MOL0     H13014   3.049   6.342  11.048 -2.5962  1.4959  4.5725
   99MOL0     H13015   3.065   6.169  11.298  1.9744  0.5846 -1.4440
   99MOL0     H13016   2.926   6.194  11.197  2.1119 -0.7472 -3.9433
   99MOL0     H13017   2.955   6.357  11.400 -1.6953 -0.1329 -0.6807
   99MOL0     H13018   3.089   6.436  11.299 -0.6584 -1.0150 -0.4721
   99MOL0     H13019   2.905   6.479  11.128  0.1788 -0.0498 -0.1457
   99MOL0     H13020   2.885   6.561  11.283  1.5079  2.6637 -4.2217
   99MOL0     H13021   2.734   6.405  11.480  1.9107 -0.6857 -0.1482
   99MOL0     H13022   2.480   6.319  11.545  2.6033  2.1590 -0.4317
   99MOL0     H13023   2.386   6.276  11.401 -0.1927 -1.1426  1.7691
   99MOL0     H13024   2.328   6.530  11.381 -3.7581  0.0382  2.7512
   99MOL0     H13025   2.468   6.575  11.480  0.0474  1.5330  0.9999
   99MOL0     H13026   2.208   6.418  11.585 -1.0110 -0.9165  2.7042
   99MOL0     H13027   2.355   6.461  11.666 -0.9995 -1.6767 -0.6253
   99MOL0     H13028   2.317   6.691  11.651 -1.0021  2.5879 -0.7724
   99MOL0     H13029   2.156   6.611  11.691 -2.5643 -0.1253 -1.9355
   99MOL0     H13030   2.107   6.856  11.707 -0.5897  1.9204  0.9451
   99MOL0     H13031   2.020   7.082  11.662 -0.8198  0.7512 -1.6274
   99MOL0     H13032   2.179   7.486  11.250 -0.8754 -1.7925 -0.0321
   99MOL0     H13033   2.073   7.721  11.176 -0.6601  1.4982 -0.9679
   99MOL0     H13034   1.624   7.767  11.204 -0.8617  0.2039 -0.6617
   99MOL0     H13035   1.702   7.733  11.055 -3.6896 -1.2807  1.2335
   99MOL0     H13036   1.593   7.937  11.012 -1.1214  0.1806  0.1179
   99MOL0     H13037   1.770   7.963  11.004 -2.0380  2.4812 -0.8981
   99MOL0     H13038   1.768   8.085  11.221  0.1762 -0.0489  0.0588
   99MOL0     H13039   1.592   8.049  11.226  0.0414 -0.1081  0.8455
   99MOL0     H13040   1.748   8.234  11.051  0.0246 -0.3239  0.0453
   99MOL0     H13041   1.617   8.147  10.973  2.1230 -2.1651 -0.5063
   99MOL0     H13042   1.596   8.343  11.205 -1.1304  0.7607 -1.4279
   99MOL0     H13043   1.459   8.245  11.150 -1.4369 -0.6945 -0.3277
   99MOL0     H13044   1.465   8.336  10.927  0.8473 -1.6706  0.4147
   99MOL0     H13045   1.617   8.415  10.952 -0.7956 -0.2258 -2.2755
   99MOL0     H13046   1.510   8.561  11.151 -1.6300  5.1692 -0.5022
   99MOL0     H13047   1.464   8.594  10.986 -4.2305  0.0502  0.7055
   99MOL0     H13048   1.250   8.460  11.000  1.3587 -0.6344  0.1306
   99MOL0     H13049   1.259   8.596  11.114 -0.1896 -0.2679 -0.3027
   99MOL0     H13050   1.692   7.551  11.276  0.0556  0.5695  0.3631
   99MOL0     H13051   1.786   7.339  11.303  2.7354 -2.1358 -0.4858
   99MOL0     H13052   2.157   7.069  11.263 -2.6359 -2.0907 -0.7769
   99MOL0     H13053   2.197   6.850  11.276 -2.8107 -0.8815 -0.9327
   99MOL0     H13054   3.662   5.831  11.227  2.0014 -0.3230  0.7232
   99MOL0     H13055   3.753   5.632  11.134  2.8623 -1.7628 -1.5871
   99MOL0     H13056   3.912   5.339  10.961  0.1078  1.6102  0.8345
   99MOL0     H13057   4.042   5.133  10.915 -1.4087 -0.6872 -0.4602
   99MOL0     H13058   4.335   4.937  10.651  1.8056  1.9527  1.1811
   99MOL0     H13059   4.339   5.103  10.579 -1.9831  0.1344 -2.4275
   99MOL0     H13060   4.129   4.889  10.554 -0.0884 -0.6942 -0.3023
   99MOL0     H13061   4.104   5.045  10.479 -0.3291  1.3519  2.6080
   99MOL0     H13062   4.188   4.864  10.330  0.8327 -0.8274 -1.1150
   99MOL0     H13063   4.335   4.849  10.424 -0.2861 -0.4205  0.5041
   99MOL0     H13064   4.266   5.108  10.300  2.1718  1.6832 -1.6477
   99MOL0     H13065   4.415   5.070  10.383 -0.2154 -1.8934  0.2914
   99MOL0     H13066   4.493   4.914  10.009 -2.0820 -0.6922  0.1325
   99MOL0     H13067   4.178   5.286  10.541 -0.0784  1.0414  0.3132
   99MOL0     H13068   4.025   5.461  10.556  2.4255 -4.0741 -2.4983
  100MOL0     O13069   7.566   1.754   5.558  0.8932 -0.4958 -0.1621
  100MOL0     C13070   7.500   1.859   5.543  0.3403 -0.1688  0.1291
  100MOL0     O13071   7.553   1.983   5.502  0.0756 -0.1948 -0.1417
  100MOL0     C13072   7.682   1.999   5.486 -0.5191  1.1004  0.5146
  100MOL0     C13073   7.778   1.999   5.596 -1.1325 -0.0732 -0.0568
  100MOL0     C13074   7.915   2.022   5.567 -0.0020 -0.6415  0.5222
  100MOL0     C13075   7.960   2.066   5.444 -0.8471  0.2960  0.8301
  100MOL0     O13076   8.094   2.091   5.408 -0.2189  0.6386 -0.5360
  100MOL0     C13077   8.173   2.163   5.495  0.0635 -0.3261 -0.4033
  100MOL0     C13078   8.313   2.180   5.425  0.7186  0.4199 -0.5825
  100MOL0     C13079   8.415   2.218   5.527 -0.5705 -0.9784 -0.8112
  100MOL0     C13080   8.552   2.209   5.463 -0.5300  0.1423 -0.2978
  100MOL0     C13081   8.674   2.218   5.564  0.0499 -0.0768  0.1032
  100MOL0     C13082   8.799   2.202   5.480 -0.1768  0.5542  0.2333
  100MOL0     C13083   8.932   2.184   5.546  1.0594  0.1574 -0.6341
  100MOL0     C13084   9.047   2.145   5.459 -0.2349 -0.2172 -1.2041
  100MOL0     N13085   9.055   2.240   5.342 -0.9565  0.6413 -0.2792
  100MOL0     C13086   9.138   2.347   5.321 -1.4664  0.3172  0.0822
  100MOL0     C13087   9.119   2.373   5.192  0.1255 -0.8826  0.2377
  100MOL0     C13088   9.171   2.486   5.114  0.2603 -0.5578  0.6488
  100MOL0     C13089   9.063   2.540   5.018  0.6977 -0.4276 -0.1138
  100MOL0     C13090   9.103   2.673   4.962  1.2891 -0.6169  0.7451
  100MOL0     C13091   8.983   2.749   4.903 -0.9545  0.3199  0.6488
  100MOL0     O13092   8.884   2.786   4.999 -0.4850 -0.7368 -0.9083
  100MOL0     C13093   8.763   2.773   4.942  0.6240  0.6604 -0.7409
  100MOL0     C13094   8.699   2.885   4.908  0.1107 -0.0026  0.5193
  100MOL0     C13095   8.579   2.890   4.838  0.1517 -0.2907 -0.0341
  100MOL0     C13096   8.511   2.768   4.805  0.3319 -0.3451  0.0464
  100MOL0     C13097   8.369   2.777   4.756 -1.0245  1.0966 -0.6170
  100MOL0     O13098   8.326   2.655   4.725  0.4603  0.2153  0.0014
  100MOL0     C13099   8.199   2.628   4.672  0.3945 -0.5541 -1.3734
  100MOL0     C13100   8.156   2.490   4.669  0.6801 -0.9027  0.3555
  100MOL0     C13101   8.027   2.451   4.627 -1.1183 -0.0223 -0.9525
  100MOL0     C13102   7.940   2.546   4.575  0.2896  0.0702  0.4258
  100MOL0     O13103   7.832   2.494   4.503 -0.0241  0.4458 -0.0274
  100MOL0     C13104   7.733   2.584   4.448 -0.0831  0.7051  0.3639
  100MOL0     C13105   7.607   2.509   4.392 -0.5240 -0.2403  1.3101
  100MOL0     C13106   7.653   2.426   4.273  0.4599  0.6131 -0.0389
  100MOL0     C13107   7.554   2.315   4.228  0.3013  0.8737 -0.2029
  100MOL0     C13108   7.404   2.370   4.223 -0.2721  0.8094 -0.4283
  100MOL0     C13109   7.376   2.466   4.105  0.1867  0.1208  0.2937
  100MOL0     C13110   7.240   2.536   4.105 -0.8705 -0.4080  0.1183
  100MOL0     C13111   7.141   2.425   4.080  0.1981 -0.7870 -0.4193
  100MOL0    Cl13112   7.055   2.440   3.930 -0.3214  0.1098 -0.3638
  100MOL0     C13113   7.986   2.679   4.571  0.7707  0.3495  0.3039
  100MOL0     C13114   8.110   2.723   4.624 -0.4950 -0.3278  0.3393
  100MOL0     O13115   8.310   2.890   4.745 -0.0314  0.9440 -0.3326
  100MOL0     C13116   8.574   2.648   4.842  1.0203 -0.2936  0.9897
  100MOL0     C13117   8.696   2.650   4.910  1.0972 -0.1787  0.8841
  100MOL0     N13118   9.016   2.290   5.134 -0.3117 -0.0111 -0.3857
  100MOL0     N13119   8.982   2.214   5.230 -0.2761 -0.0300 -0.1905
  100MOL0     C13120   7.869   2.061   5.338  0.3251 -0.1104  0.6342
  100MOL0     C13121   7.735   2.028   5.356 -0.2826  0.2900  0.4794
  100MOL0     C13122   7.350   1.845   5.572 -0.3032 -0.9084  0.2407
  100MOL0     C13123   7.299   1.735   5.644  0.1205 -0.1300 -0.1628
  100MOL0     C13124   7.156   1.725   5.659  0.4143  0.4127  0.1186
  100MOL0     C13125   7.063   1.825   5.610  0.7412 -1.0710  0.1070
  100MOL0     O13126   6.925   1.828   5.627 -0.4250 -0.4485 -0.0471
  100MOL0     C13127   6.862   1.737   5.726  0.5118 -0.5496 -0.2172
  100MOL0     C13128   6.802   1.807   5.848 -0.0003 -0.3482 -0.4732
  100MOL0     C13129   6.725   1.929   5.810 -0.4215 -0.7557 -0.8493
  100MOL0     C13130   6.667   2.000   5.928 -0.8100  0.1844  0.6614
  100MOL0     C13131   6.773   2.082   5.998 -1.0573  0.3395  1.0389
  100MOL0     C13132   6.872   2.133   6.040  0.3175  0.0850  0.5312
  100MOL0     C13133   7.125   1.941   5.556  1.4416  0.5157 -0.1416
  100MOL0     C13134   7.260   1.940   5.520 -0.3491 -1.5373  0.2499
  100MOL0     H13135   7.748   1.973   5.697  0.4406 -2.4672 -0.1134
  100MOL0     H13136   7.991   2.026   5.644 -0.3200  0.1714  0.8011
  100MOL0     H13137   8.191   2.124   5.596  2.2341 -1.4701 -1.1691
  100MOL0     H13138   8.132   2.263   5.514  1.9297  0.2422  1.0369
  100MOL0     H13139   8.302   2.256   5.347 -1.0523 -0.1539 -0.9565
  100MOL0     H13140   8.345   2.086   5.379 -3.1622 -0.0924 -2.6698
  100MOL0     H13141   8.407   2.159   5.618  1.9229  2.7353  2.1282
  100MOL0     H13142   8.388   2.317   5.565 -0.0879 -0.8434 -0.8192
  100MOL0     H13143   8.551   2.111   5.413 -0.4654  0.3892 -0.7885
  100MOL0     H13144   8.562   2.277   5.378  1.5385  0.1875 -0.0552
  100MOL0     H13145   8.663   2.142   5.642 -0.0476 -0.2508 -0.0778
  100MOL0     H13146   8.682   2.314   5.617  2.6166 -0.9123  1.3924
  100MOL0     H13147   8.804   2.296   5.424  0.8407  1.6417  2.0564
  100MOL0     H13148   8.770   2.125   5.409 -3.6645  2.7328 -0.9751
  100MOL0     H13149   8.965   2.275   5.599  2.4674 -0.5416 -0.2485
  100MOL0     H13150   8.912   2.104   5.618  0.7415  1.2635  0.5538
  100MOL0     H13151   9.046   2.043   5.421  1.8157 -1.1869  1.0738
  100MOL0     H13152   9.144   2.149   5.510 -1.8486 -1.0625  2.2801
  100MOL0     H13153   9.198   2.389   5.401  0.5356 -4.7091  1.5688
  100MOL0     H13154   9.266   2.464   5.066  0.7751 -3.5635  2.7556
  100MOL0     H13155   9.180   2.577   5.174 -0.6925  0.6592 -0.9567
  100MOL0     H13156   8.971   2.546   5.076  1.3925 -1.4327  1.1664
  100MOL0     H13157   9.043   2.476   4.931 -0.1706  1.5917 -1.4631
  100MOL0     H13158   9.167   2.742   5.018  2.4473 -0.1577 -1.0723
  100MOL0     H13159   9.166   2.640   4.880 -0.6142 -2.6624  0.0075
  100MOL0     H13160   8.941   2.677   4.832 -0.0744 -0.1747  0.6181
  100MOL0     H13161   9.014   2.837   4.846 -0.5155 -0.4702 -0.3622
  100MOL0     H13162   8.753   2.979   4.914 -0.7885  0.4450  4.2288
  100MOL0     H13163   8.530   2.984   4.815  0.2926 -0.1977  0.0436
  100MOL0     H13164   8.224   2.414   4.707  3.0070  0.2306 -1.3234
  100MOL0     H13165   8.005   2.345   4.613  0.7592 -0.4008 -1.4006
  100MOL0     H13166   7.771   2.667   4.388  1.3713 -0.9946 -1.2253
  100MOL0     H13167   7.684   2.630   4.534 -2.1701  0.4396 -0.6154
  100MOL0     H13168   7.520   2.566   4.358 -0.3009 -0.3879  0.4721
  100MOL0     H13169   7.582   2.436   4.469  2.3672 -0.2498  2.3842
  100MOL0     H13170   7.747   2.370   4.283  0.0850 -0.0231 -0.0198
  100MOL0     H13171   7.661   2.496   4.190 -0.5872  0.4203 -0.3124
  100MOL0     H13172   7.578   2.275   4.129  0.6896 -0.3015  0.3513
  100MOL0     H13173   7.563   2.231   4.297 -1.4025  2.3321  1.9233
  100MOL0     H13174   7.371   2.413   4.318 -0.0921 -0.2144  0.1148
  100MOL0     H13175   7.339   2.282   4.213 -2.5536  2.3577 -0.0672
  100MOL0     H13176   7.395   2.410   4.014 -0.1772 -2.0764  1.5080
  100MOL0     H13177   7.445   2.552   4.107  0.6916 -0.2700  0.0168
  100MOL0     H13178   7.219   2.588   4.199 -0.7355  0.7738 -0.4880
  100MOL0     H13179   7.247   2.609   4.024  1.7737  0.0868  0.6841
  100MOL0     H13180   7.068   2.425   4.161 -0.1341 -3.0193 -0.6635
  100MOL0     H13181   7.178   2.323   4.065 -0.3340 -0.9836 -0.4151
  100MOL0     H13182   7.923   2.758   4.530 -0.2625 -0.4792  0.2639
  100MOL0     H13183   8.140   2.826   4.611 -0.8973 -0.2196  0.2500
  100MOL0     H13184   8.531   2.552   4.818  0.6469  0.5306 -2.0234
  100MOL0     H13185   8.737   2.556   4.945 -2.0072 -1.3910  1.5543
  100MOL0     H13186   7.899   2.089   5.238 -0.3431  0.7778  0.6718
  100MOL0     H13187   7.683   2.015   5.262  1.8661  2.1114 -1.0917
  100MOL0     H13188   7.365   1.664   5.694  1.1178 -0.4611 -1.8522
  100MOL0     H13189   7.114   1.631   5.694 -0.9104  0.7020 -0.6137
  100MOL0     H13190   6.922   1.656   5.767 -2.0922 -1.7129  1.5742
  100MOL0     H13191   6.798   1.673   5.664 -0.4432 -1.6305  1.7701
  100MOL0     H13192   6.731   1.738   5.892  0.2722 -0.7764 -0.7011
  100MOL0     H13193   6.887   1.833   5.913  0.3526  1.3190 -1.5383
  100MOL0     H13194   6.650   1.907   5.734 -0.4506 -0.1592 -1.0002
  100MOL0     H13195   6.793   2.000   5.762 -3.6044  3.4504  0.2166
  100MOL0     H13196   6.581   2.056   5.889 -1.7332 -2.8101 -1.9843
  100MOL0     H13197   6.624   1.928   5.999 -1.1337  0.8987  1.2106
  100MOL0     H13198   6.959   2.159   6.097  0.5222 -2.7497  1.6582
  100MOL0     H13199   7.055   2.013   5.516 -0.5947 -0.8486  0.8252
  100MOL0     H13200   7.298   2.027   5.468 -2.9761 -0.2288  0.3330
  101MOL0     O13201  10.301   4.092   5.566  0.0215 -0.1638  0.0293
  101MOL0     C13202  10.387   4.074   5.652 -0.1488 -0.4305 -0.2678
  101MOL0     O13203  10.375   3.996   5.767 -0.1004 -0.0010 -0.1370
  101MOL0     C13204  10.253   3.927   5.794 -0.1535 -0.9083  0.6383
  101MOL0     C13205  10.255   3.802   5.844 -0.2205  0.3281  1.0535
  101MOL0     C13206  10.141   3.730   5.852  0.0659 -0.3993 -0.3113
  101MOL0     C13207  10.015   3.784   5.831 -0.6101  0.2506  0.4908
  101MOL0     O13208   9.895   3.716   5.838 -0.2109  0.9335  0.3826
  101MOL0     C13209   9.861   3.650   5.961  0.8789 -0.1245 -0.7542
  101MOL0     C13210   9.757   3.538   5.940 -0.0525 -0.1760 -1.4308
  101MOL0     C13211   9.624   3.595   5.882 -0.3341 -0.0054 -0.1854
  101MOL0     C13212   9.533   3.484   5.845  0.3969  0.4016 -0.3965
  101MOL0     C13213   9.418   3.536   5.746 -0.3312 -0.0154 -0.5066
  101MOL0     C13214   9.309   3.433   5.700 -0.0483  0.7990 -0.3469
  101MOL0     C13215   9.224   3.396   5.824 -0.1216 -0.0990 -0.0173
  101MOL0     C13216   9.115   3.300   5.777 -0.6115 -0.1546 -0.7630
  101MOL0     N13217   9.084   3.191   5.873  0.5178  0.7449  0.2639
  101MOL0     C13218   8.954   3.135   5.888  0.3724  0.9305  0.2459
  101MOL0     C13219   8.973   3.017   5.949 -0.1126  0.9232 -1.0336
  101MOL0     C13220   8.856   2.936   5.993  0.4966 -0.0331  0.2508
  101MOL0     C13221   8.836   2.792   5.931  0.4433 -0.2727 -0.3963
  101MOL0     C13222   8.847   2.783   5.779  0.5180 -0.7622 -1.1576
  101MOL0     C13223   8.878   2.633   5.726 -0.7455 -0.5276 -1.3768
  101MOL0     O13224   8.869   2.626   5.584 -0.5624  0.0366 -0.0619
  101MOL0     C13225   8.745   2.634   5.523 -0.3043 -0.0373 -1.2626
  101MOL0     C13226   8.734   2.644   5.383  0.7068 -0.4585 -0.2506
  101MOL0     C13227   8.609   2.664   5.325  0.3981  0.7837 -0.2981
  101MOL0     C13228   8.494   2.673   5.401  0.2478  0.2787 -0.0377
  101MOL0     C13229   8.357   2.688   5.348 -1.5069 -0.4496 -0.3240
  101MOL0     O13230   8.340   2.655   5.216 -0.5283 -0.1319 -0.0495
  101MOL0     C13231   8.202   2.655   5.173 -0.5376  0.6980 -0.9705
  101MOL0     C13232   8.112   2.555   5.216 -0.9431 -0.2723 -0.4430
  101MOL0     C13233   7.988   2.538   5.150  0.0538 -0.3949  0.6069
  101MOL0     C13234   7.939   2.628   5.054  0.2192 -0.0726 -1.2956
  101MOL0     O13235   7.822   2.604   4.995 -0.2254 -0.4347 -0.3130
  101MOL0     C13236   7.766   2.689   4.893 -0.3429  0.6446  0.7734
  101MOL0     C13237   7.619   2.648   4.871 -0.8194  0.2349 -0.0647
  101MOL0     C13238   7.535   2.649   5.003 -0.1662  0.3208  0.5519
  101MOL0     C13239   7.491   2.796   5.026 -0.5096  0.6765  0.8370
  101MOL0     C13240   7.441   2.820   5.164 -0.6567 -0.5381 -0.2506
  101MOL0     C13241   7.339   2.724   5.216 -0.0229 -0.0788  0.1005
  101MOL0     C13242   7.280   2.782   5.350 -0.6609  0.2738 -0.2486
  101MOL0     C13243   7.147   2.702   5.391 -0.4660 -0.9609  0.1509
  101MOL0    Cl13244   7.183   2.547   5.455  0.0584  0.2366 -0.0151
  101MOL0     C13245   8.024   2.725   5.014  0.0390 -0.3733  0.1844
  101MOL0     C13246   8.160   2.732   5.066 -1.1748 -0.3381  0.0390
  101MOL0     O13247   8.272   2.714   5.429  0.1956  0.3122 -0.4155
  101MOL0     C13248   8.509   2.646   5.538  0.7560 -0.0300  0.7080
  101MOL0     C13249   8.633   2.638   5.595 -0.1982  0.0926 -0.6292
  101MOL0     N13250   9.110   2.991   5.966 -0.2864 -0.6376 -0.7198
  101MOL0     N13251   9.171   3.091   5.904 -0.2441 -0.2524 -0.8449
  101MOL0     C13252  10.011   3.924   5.801  0.0705 -0.2146  0.4926
  101MOL0     C13253  10.125   3.986   5.785 -0.7660 -0.9598  0.3949
  101MOL0     C13254  10.526   4.121   5.627  0.7701  0.5908 -1.3717
  101MOL0     C13255  10.611   4.138   5.735  0.6829  1.3142  0.5775
  101MOL0     C13256  10.745   4.159   5.711 -0.6694  0.4522 -0.5399
  101MOL0     C13257  10.795   4.182   5.578  0.1695  0.0451 -0.0907
  101MOL0     O13258  10.915   4.218   5.535 -0.1305 -0.5691 -0.4225
  101MOL0     C13259  11.008   4.271   5.635  0.3924 -0.2462  1.1408
  101MOL0     C13260  11.146   4.308   5.570 -0.6482 -0.7085  0.1430
  101MOL0     C13261  11.204   4.176   5.513 -0.6013  0.5653  1.3267
  101MOL0     C13262  11.359   4.159   5.516  0.5687 -0.4565  0.2374
  101MOL0     C13263  11.419   4.186   5.649 -0.2805 -0.2994  0.2376
  101MOL0     C13264  11.473   4.204   5.758  0.7497 -0.0402 -0.0029
  101MOL0     C13265  10.712   4.147   5.481  0.5397 -0.7297  0.7636
  101MOL0     C13266  10.571   4.124   5.494  0.9526 -1.0338 -0.3046
  101MOL0     H13267  10.347   3.748   5.865 -1.5336 -2.0412  1.1100
  101MOL0     H13268  10.147   3.624   5.875  2.3730 -0.1747  0.3309
  101MOL0     H13269   9.820   3.725   6.029  0.5896  2.5300 -3.6172
  101MOL0     H13270   9.955   3.608   5.997  0.0218 -0.4095  1.2898
  101MOL0     H13271   9.734   3.501   6.041 -1.8859 -0.5256 -1.9398
  101MOL0     H13272   9.805   3.460   5.881  1.5495  0.0663 -0.5081
  101MOL0     H13273   9.654   3.630   5.782  1.0736 -0.1232  0.1711
  101MOL0     H13274   9.579   3.670   5.948  0.0282 -1.1700  1.4453
  101MOL0     H13275   9.585   3.396   5.805  0.0451 -0.7252  1.5180
  101MOL0     H13276   9.498   3.438   5.938  0.4828  0.3802 -0.3738
  101MOL0     H13277   9.466   3.593   5.666  1.5036  2.2645  2.0310
  101MOL0     H13278   9.366   3.609   5.810 -0.6736 -0.9167  0.2677
  101MOL0     H13279   9.362   3.343   5.667 -0.1288  0.9995 -1.0493
  101MOL0     H13280   9.240   3.469   5.623  1.3563  1.0235 -1.5572
  101MOL0     H13281   9.288   3.353   5.901 -2.0321  2.1856  3.1082
  101MOL0     H13282   9.178   3.486   5.867  0.7210 -0.4791  1.7580
  101MOL0     H13283   9.162   3.247   5.693  0.8775 -1.0863  0.5952
  101MOL0     H13284   9.028   3.355   5.740 -0.8257 -1.5904 -2.5849
  101MOL0     H13285   8.861   3.159   5.837  0.9572  0.5649 -1.0402
  101MOL0     H13286   8.773   2.998   5.960  2.1333  2.0000 -0.2217
  101MOL0     H13287   8.852   2.924   6.102  0.9945 -0.9440  0.1777
  101MOL0     H13288   8.750   2.747   5.981  1.4785  0.3558  2.0972
  101MOL0     H13289   8.916   2.732   5.974  0.2857 -1.1845 -1.3259
  101MOL0     H13290   8.759   2.829   5.733 -0.8104  0.0677  1.9716
  101MOL0     H13291   8.934   2.841   5.748  0.2413  0.4714  0.2615
  101MOL0     H13292   8.837   2.546   5.778  1.1862 -0.4827  0.3578
  101MOL0     H13293   8.984   2.621   5.750 -0.9087  1.6731  0.8123
  101MOL0     H13294   8.819   2.632   5.316  1.3877  2.9508 -0.1738
  101MOL0     H13295   8.593   2.667   5.218 -1.1275 -0.9659 -0.1561
  101MOL0     H13296   8.137   2.478   5.289  0.4243 -1.6204 -2.2162
  101MOL0     H13297   7.929   2.454   5.185 -1.5335  0.3642 -0.1662
  101MOL0     H13298   7.834   2.672   4.809 -0.6670 -2.7164  1.0435
  101MOL0     H13299   7.771   2.795   4.918  6.7079  1.0523 -0.3049
  101MOL0     H13300   7.608   2.546   4.832 -3.7520  0.2620  0.4350
  101MOL0     H13301   7.579   2.719   4.798  1.4449  0.3750 -1.2567
  101MOL0     H13302   7.594   2.606   5.085 -0.9794  0.0139  0.9847
  101MOL0     H13303   7.442   2.594   4.990 -0.3703  1.2281 -2.8974
  101MOL0     H13304   7.568   2.866   4.993  0.3659 -0.3470  0.6555
  101MOL0     H13305   7.402   2.811   4.964  0.7772 -0.1312 -1.3105
  101MOL0     H13306   7.404   2.923   5.172 -1.7308 -0.9264 -0.1200
  101MOL0     H13307   7.525   2.825   5.234 -1.9804  2.1434  1.3197
  101MOL0     H13308   7.384   2.626   5.233 -0.9684 -0.6204 -0.4308
  101MOL0     H13309   7.253   2.702   5.153 -3.0735  0.8149  3.5710
  101MOL0     H13310   7.357   2.790   5.428 -1.7666  0.9315  0.8218
  101MOL0     H13311   7.249   2.885   5.333  2.9454  1.8358  1.6485
  101MOL0     H13312   7.078   2.704   5.306 -2.9358 -0.6104  2.0222
  101MOL0     H13313   7.088   2.756   5.467 -0.5410  0.5117 -0.9086
  101MOL0     H13314   7.993   2.783   4.928 -1.7041 -3.8808 -1.7937
  101MOL0     H13315   8.229   2.808   5.029  0.6960 -2.7566 -1.7897
  101MOL0     H13316   8.423   2.646   5.605  1.9725  0.1539  2.3319
  101MOL0     H13317   8.615   2.620   5.700 -1.3041 -1.3493 -1.0226
  101MOL0     H13318   9.923   3.984   5.783 -0.5494 -1.2187  0.1057
  101MOL0     H13319  10.126   4.094   5.768  0.7902 -0.8048  1.3407
  101MOL0     H13320  10.576   4.134   5.838  0.1448 -1.2973  0.3793
  101MOL0     H13321  10.813   4.172   5.795  0.3887 -2.1616 -0.8838
  101MOL0     H13322  11.029   4.193   5.709  0.9102 -0.2402  1.0084
  101MOL0     H13323  10.961   4.364   5.666 -0.4626  0.3479 -1.6407
  101MOL0     H13324  11.140   4.383   5.490  2.4245  1.1653  1.4933
  101MOL0     H13325  11.214   4.344   5.647  1.3969 -0.4822 -1.6631
  101MOL0     H13326  11.159   4.164   5.414  1.5346 -4.5490  0.6699
  101MOL0     H13327  11.161   4.092   5.568  2.6416 -2.6585 -0.6439
  101MOL0     H13328  11.387   4.058   5.483 -1.7077 -1.9244  2.4738
  101MOL0     H13329  11.396   4.230   5.441 -1.6505  1.5045  0.8674
  101MOL0     H13330  11.532   4.200   5.848  1.1982  1.2552 -0.2155
  101MOL0     H13331  10.733   4.147   5.375 -2.3107 -1.6869  0.1005
  101MOL0     H13332  10.503   4.088   5.417  0.0267 -2.3889  1.0917
  102MOL0     O13333   3.226   7.512   0.545  0.1018 -1.0297  0.2152
  102MOL0     C13334   3.193   7.614   0.479  0.2971 -0.8355 -0.3017
  102MOL0     O13335   3.120   7.716   0.520  0.4996 -0.0086 -0.5582
  102MOL0     C13336   3.042   7.722   0.635 -0.0058 -0.1125 -1.3434
  102MOL0     C13337   3.027   7.855   0.684 -0.5601 -0.5419  0.7999
  102MOL0     C13338   2.944   7.884   0.792 -0.4119  0.3692  0.1226
  102MOL0     C13339   2.880   7.781   0.853 -0.3486  0.2391 -0.3181
  102MOL0     O13340   2.811   7.800   0.973 -0.8348 -0.2342  0.4001
  102MOL0     C13341   2.877   7.754   1.091  0.2866  0.0927  0.7719
  102MOL0     C13342   2.795   7.787   1.210 -0.2382  0.7784  0.4541
  102MOL0     C13343   2.675   7.688   1.220 -0.2930 -0.9797 -0.4934
  102MOL0     C13344   2.577   7.751   1.324 -0.3124  0.4966 -0.8563
  102MOL0     C13345   2.459   7.653   1.347 -0.4301  0.8544 -0.5213
  102MOL0     C13346   2.339   7.729   1.413 -0.1505  0.0142 -0.3989
  102MOL0     C13347   2.222   7.625   1.442 -0.0451 -1.4716 -0.2243
  102MOL0     C13348   2.187   7.529   1.329 -0.4231  0.2142  0.8422
  102MOL0     N13349   2.104   7.600   1.234  0.1867  0.9630 -0.3843
  102MOL0     C13350   1.967   7.579   1.203  0.9789 -0.6497  0.1355
  102MOL0     C13351   1.944   7.670   1.104 -0.1637  0.0977 -0.3562
  102MOL0     C13352   1.803   7.713   1.073  0.5505 -0.1557 -0.4272
  102MOL0     C13353   1.748   7.634   0.959 -0.6049 -0.1922 -0.2803
  102MOL0     C13354   1.594   7.627   0.961  0.6827  0.4467  1.2158
  102MOL0     C13355   1.525   7.610   1.103  0.6598  0.4495 -0.3886
  102MOL0     O13356   1.393   7.553   1.089 -0.4838 -0.3960 -0.7844
  102MOL0     C13357   1.376   7.419   1.072 -0.5485  0.1498  0.2917
  102MOL0     C13358   1.253   7.369   1.043 -0.8553 -0.4092  0.3216
  102MOL0     C13359   1.221   7.236   1.041 -0.3366  0.0040 -0.5039
  102MOL0     C13360   1.318   7.148   1.080 -0.0992 -0.1008  0.2554
  102MOL0     C13361   1.286   7.008   1.102  0.1558 -0.1298  0.1995
  102MOL0     O13362   1.160   6.966   1.057 -0.4859  0.5404  0.0696
  102MOL0     C13363   1.135   6.834   1.028  0.8972  0.9118  0.9166
  102MOL0     C13364   1.223   6.726   1.053  1.7870 -0.6329  0.2250
  102MOL0     C13365   1.182   6.596   1.015  0.3168  0.3939  0.4556
  102MOL0     C13366   1.054   6.567   0.958 -0.7114 -0.0887 -0.2983
  102MOL0     O13367   0.997   6.451   0.927 -0.1908  0.3656 -0.6301
  102MOL0     C13368   1.077   6.333   0.932 -0.1715  0.6432  0.6143
  102MOL0     C13369   0.992   6.219   0.896  0.0454 -0.1051 -0.9668
  102MOL0     C13370   0.897   6.229   0.775  0.0321  0.7515  0.3774
  102MOL0     C13371   0.765   6.304   0.805 -0.0293  0.2480 -0.5120
  102MOL0     C13372   0.639   6.219   0.780  1.0193 -0.5667  0.9992
  102MOL0     C13373   0.593   6.196   0.636  0.1283  0.4612  0.1603
  102MOL0     C13374   0.534   6.332   0.587  0.2147  0.0456  0.0055
  102MOL0     C13375   0.434   6.299   0.470 -0.0431  0.2916  0.0372
  102MOL0    Cl13376   0.528   6.196   0.360  0.3096  0.2886  0.2032
  102MOL0     C13377   0.977   6.677   0.933 -0.7938 -0.6887  0.4057
  102MOL0     C13378   1.016   6.804   0.966  0.2165 -0.1435 -0.5201
  102MOL0     O13379   1.370   6.936   1.160  0.6929 -0.4253 -0.2706
  102MOL0     C13380   1.445   7.196   1.114  0.0864 -0.3017  0.6565
  102MOL0     C13381   1.481   7.327   1.093  0.6112 -0.3714 -0.3324
  102MOL0     N13382   2.065   7.735   1.065  0.3006 -0.2196  0.6883
  102MOL0     N13383   2.148   7.688   1.148  0.3351  0.2764  0.7004
  102MOL0     C13384   2.891   7.658   0.804 -0.7320  0.5523 -0.8531
  102MOL0     C13385   2.963   7.624   0.695  0.5095 -0.1641  0.5003
  102MOL0     C13386   3.270   7.637   0.349  0.8229 -0.4310  0.5425
  102MOL0     C13387   3.236   7.731   0.257  0.4143 -0.2210 -1.1209
  102MOL0     C13388   3.310   7.751   0.133 -0.1361  0.0488  0.7580
  102MOL0     C13389   3.406   7.653   0.100  0.5581 -0.4134 -0.2942
  102MOL0     O13390   3.465   7.627  -0.018  0.1404 -0.8817 -0.0480
  102MOL0     C13391   3.406   7.669  -0.144 -0.0278  0.0389 -0.7916
  102MOL0     C13392   3.491   7.651  -0.265 -0.3626  0.2183  0.0794
  102MOL0     C13393   3.519   7.501  -0.277 -0.0327 -0.5610 -0.5104
  102MOL0     C13394   3.629   7.473  -0.374 -0.7260  0.2250 -0.4651
  102MOL0     C13395   3.611   7.342  -0.434 -0.3276  0.5816 -0.1761
  102MOL0     C13396   3.608   7.236  -0.493  0.6766 -0.4801 -0.2800
  102MOL0     C13397   3.441   7.563   0.198  0.4514  1.0001  0.3865
  102MOL0     C13398   3.382   7.564   0.322  0.5060 -0.0539 -0.0173
  102MOL0     H13399   3.059   7.945   0.631 -2.2941  0.4672  1.3676
  102MOL0     H13400   2.943   7.981   0.842 -3.5337 -0.1985  1.3881
  102MOL0     H13401   2.975   7.801   1.101  1.0546 -1.5911  1.5704
  102MOL0     H13402   2.893   7.646   1.084 -2.5026 -0.2924 -1.4515
  102MOL0     H13403   2.735   7.877   1.194 -1.2387 -0.2710 -2.4232
  102MOL0     H13404   2.863   7.781   1.295 -0.5275  1.2377  0.7180
  102MOL0     H13405   2.705   7.587   1.253  3.6591  0.0617 -0.3897
  102MOL0     H13406   2.626   7.670   1.124 -3.3533 -1.6988  1.0879
  102MOL0     H13407   2.626   7.779   1.417  2.3600  1.7750 -2.5272
  102MOL0     H13408   2.543   7.844   1.277  2.5815  2.1502  0.0863
  102MOL0     H13409   2.477   7.560   1.402 -2.7153  1.0130  0.6148
  102MOL0     H13410   2.423   7.624   1.248 -1.0006  1.2422 -0.4301
  102MOL0     H13411   2.296   7.809   1.351 -0.7274  0.4509  0.5542
  102MOL0     H13412   2.379   7.778   1.502  0.9075 -0.4079 -0.6281
  102MOL0     H13413   2.257   7.563   1.526  2.4254  0.7898  0.5440
  102MOL0     H13414   2.137   7.679   1.485  0.8626 -0.6059  0.5401
  102MOL0     H13415   2.130   7.451   1.379  0.9495  0.1366  2.3750
  102MOL0     H13416   2.268   7.476   1.279 -1.1248 -0.9699  0.9401
  102MOL0     H13417   1.898   7.521   1.263 -0.1115  0.9135  0.4392
  102MOL0     H13418   1.818   7.816   1.040 -1.3349 -0.9082 -4.1234
  102MOL0     H13419   1.742   7.711   1.164 -0.5899 -1.4187 -1.1682
  102MOL0     H13420   1.782   7.531   0.955  3.2031  0.8787  0.9034
  102MOL0     H13421   1.785   7.688   0.871  0.7900  1.2225  1.1210
  102MOL0     H13422   1.552   7.720   0.921  1.2108 -0.0980 -0.6994
  102MOL0     H13423   1.567   7.546   0.892 -1.7138 -0.2852  2.8841
  102MOL0     H13424   1.499   7.702   1.157 -3.4931 -1.5170  1.4025
  102MOL0     H13425   1.582   7.549   1.173 -0.9217  2.2317  2.6756
  102MOL0     H13426   1.174   7.442   1.029 -0.5934 -0.4876 -1.9597
  102MOL0     H13427   1.116   7.212   1.029 -0.3990 -1.2640  2.0362
  102MOL0     H13428   1.314   6.732   1.112  2.5249  1.6803 -1.0581
  102MOL0     H13429   1.228   6.507   1.057 -3.2763 -1.9567 -0.1096
  102MOL0     H13430   1.118   6.313   1.031  1.2594 -1.1899 -0.2826
  102MOL0     H13431   1.156   6.330   0.855  0.1530 -0.0570  0.9691
  102MOL0     H13432   0.928   6.207   0.985  2.6222  0.1632  1.0359
  102MOL0     H13433   1.055   6.130   0.891  1.2947  0.7855 -1.5511
  102MOL0     H13434   0.869   6.130   0.738 -1.0122  2.3276 -3.6014
  102MOL0     H13435   0.952   6.284   0.697 -0.3143  3.9248  2.2228
  102MOL0     H13436   0.771   6.345   0.907  1.1273  0.3728 -0.6172
  102MOL0     H13437   0.776   6.397   0.748  3.6963 -0.0050 -0.4536
  102MOL0     H13438   0.560   6.259   0.845  1.6915 -0.7615  1.9644
  102MOL0     H13439   0.657   6.121   0.825 -1.0711 -2.3742 -1.8193
  102MOL0     H13440   0.519   6.115   0.632 -0.6413  1.0914  1.2172
  102MOL0     H13441   0.679   6.163   0.577 -0.2882  1.6095 -1.1259
  102MOL0     H13442   0.477   6.386   0.662 -0.9748 -3.3325  1.7464
  102MOL0     H13443   0.613   6.392   0.540  2.4471 -1.9385  1.0467
  102MOL0     H13444   0.394   6.392   0.427  0.0406  1.2812  1.9951
  102MOL0     H13445   0.347   6.240   0.502 -0.3034  0.6057 -0.0769
  102MOL0     H13446   0.884   6.643   0.890 -0.2441 -0.3817 -1.0616
  102MOL0     H13447   0.953   6.887   0.937  1.5687  0.2715 -2.4092
  102MOL0     H13448   1.526   7.124   1.125  0.4939 -1.2841 -5.2798
  102MOL0     H13449   1.583   7.365   1.094  0.4592  0.0883 -1.0841
  102MOL0     H13450   2.836   7.579   0.854 -1.1746  1.3048 -0.1066
  102MOL0     H13451   2.962   7.530   0.642 -3.1390  0.9192 -1.6749
  102MOL0     H13452   3.159   7.802   0.285  1.6975  0.7977 -0.0088
  102MOL0     H13453   3.278   7.826   0.061 -0.8803 -2.7700 -2.1306
  102MOL0     H13454   3.375   7.774  -0.146 -0.3761 -0.0258  0.5132
  102MOL0     H13455   3.311   7.620  -0.169 -0.9992  3.5860 -5.6259
  102MOL0     H13456   3.445   7.697  -0.353 -2.5106 -1.0645  0.4469
  102MOL0     H13457   3.582   7.704  -0.237 -0.2160  1.8228 -3.0623
  102MOL0     H13458   3.426   7.463  -0.321 -1.3039  1.1455  0.5988
  102MOL0     H13459   3.540   7.458  -0.179  1.0892  2.6015  0.7687
  102MOL0     H13460   3.627   7.548  -0.453 -1.0349  2.7389  1.8151
  102MOL0     H13461   3.728   7.483  -0.330 -2.0283 -0.3661  2.9562
  102MOL0     H13462   3.597   7.144  -0.547 -1.7379  0.8967 -2.3855
  102MOL0     H13463   3.524   7.498   0.173 -0.9937 -0.9366  0.4010
  102MOL0     H13464   3.412   7.483   0.388 -0.1375 -2.4056 -2.4096
  103MOL0     O13465   0.041   7.703  10.509 -0.7393  0.2208 -0.5564
  103MOL0     C13466   0.133   7.787  10.535  0.4939 -0.2925  0.5646
  103MOL0     O13467   0.120   7.922  10.503 -0.3643  0.7623 -0.2230
  103MOL0     C13468   0.012   7.984  10.448  0.8071  0.9972 -0.1715
  103MOL0     C13469  -0.066   7.919  10.352  0.6719 -0.6150  0.6523
  103MOL0     C13470  -0.179   7.984  10.299 -0.1916 -0.2501  0.6418
  103MOL0     C13471  -0.204   8.113  10.347  0.1310  0.5472  0.7762
  103MOL0     O13472  -0.316   8.174  10.296 -0.3811 -0.1633 -0.4210
  103MOL0     C13473  -0.318   8.195  10.156 -0.3783 -0.2872 -0.6036
  103MOL0     C13474  -0.454   8.146  10.107 -0.0902 -0.3769 -0.4345
  103MOL0     C13475  -0.567   8.210  10.188 -0.6478 -0.7201 -0.1046
  103MOL0     C13476  -0.696   8.153  10.134 -0.6590 -0.2216  0.1022
  103MOL0     C13477  -0.820   8.234  10.184 -0.5350  0.6985  0.3075
  103MOL0     C13478  -0.859   8.348  10.096  0.4325 -0.3317 -0.6528
  103MOL0     C13479  -1.005   8.393  10.119 -0.6230  0.4930  0.0591
  103MOL0     C13480  -1.067   8.380  10.265  1.1206  0.4283 -0.4740
  103MOL0     N13481  -1.211   8.402  10.266  0.0315  0.2479 -0.7932
  103MOL0     C13482  -1.258   8.513  10.327 -0.1294  0.6721  0.4265
  103MOL0     C13483  -1.387   8.487  10.341 -1.2460 -0.9395 -0.1196
  103MOL0     C13484  -1.499   8.579  10.400 -0.3291  0.3628  1.0735
  103MOL0     C13485  -1.542   8.694  10.319  0.1200  0.1991 -0.3379
  103MOL0     C13486  -1.600   8.654  10.186  0.0240  0.8132 -0.3266
  103MOL0     C13487  -1.605   8.771  10.079 -0.0166  1.1990 -0.6784
  103MOL0     O13488  -1.707   8.857  10.131 -0.3103 -0.2561 -0.1103
  103MOL0     C13489  -1.842   8.862  10.087 -0.9024  0.0875  0.3554
  103MOL0     C13490  -1.930   8.959  10.142 -0.3046  0.9162  0.8424
  103MOL0     C13491  -2.062   8.983  10.096 -0.0689  0.1409  0.3352
  103MOL0     C13492  -2.108   8.900  10.003 -0.2357  0.1163  0.6680
  103MOL0     C13493  -2.252   8.933   9.954 -0.1916 -0.2147 -0.4223
  103MOL0     O13494  -2.285   8.881   9.834  0.1859 -0.2503 -1.1850
  103MOL0     C13495  -2.405   8.893   9.766  0.7886 -0.3281  0.5402
  103MOL0     C13496  -2.455   8.794   9.687  0.0089  0.4296 -0.4635
  103MOL0     C13497  -2.579   8.797   9.616  0.4075  0.5219 -0.2573
  103MOL0     C13498  -2.663   8.911   9.636 -0.8919 -0.4454 -0.3885
  103MOL0     O13499  -2.787   8.895   9.572 -0.0042 -0.7056 -0.8464
  103MOL0     C13500  -2.899   8.961   9.636  1.3572  0.3884 -0.2244
  103MOL0     C13501  -3.020   8.977   9.544 -0.5027 -0.1025  0.6939
  103MOL0     C13502  -3.137   9.031   9.624  1.0098 -0.6752 -0.2555
  103MOL0     C13503  -3.254   9.065   9.533 -0.1801  0.1583  0.5876
  103MOL0     C13504  -3.391   9.072   9.609  0.1931 -0.8100  0.4728
  103MOL0     C13505  -3.505   9.074   9.494  0.2430  0.7424 -0.4106
  103MOL0     C13506  -3.541   9.226   9.466  0.1499 -0.0925  0.0664
  103MOL0     C13507  -3.688   9.245   9.427 -0.0972  0.2803  0.6110
  103MOL0    Cl13508  -3.720   9.416   9.395 -0.2565 -0.1653  0.0245
  103MOL0     C13509  -2.617   9.010   9.733  0.0238  0.1198  0.2808
  103MOL0     C13510  -2.489   9.007   9.781 -0.5698 -0.4068  0.1510
  103MOL0     O13511  -2.330   8.995  10.029 -0.8159 -0.0143 -0.5484
  103MOL0     C13512  -2.032   8.795   9.944 -0.9193 -0.2816  0.2651
  103MOL0     C13513  -1.898   8.778   9.980  0.3401 -0.4466 -0.1329
  103MOL0     N13514  -1.424   8.365  10.286 -0.7380 -0.9278  0.3071
  103MOL0     N13515  -1.314   8.319  10.238 -0.3023 -0.3677 -0.5916
  103MOL0     C13516  -0.134   8.174  10.457 -0.8056  0.2754  0.2129
  103MOL0     C13517  -0.017   8.110  10.502  0.5344 -0.6899 -0.2329
  103MOL0     C13518   0.250   7.734  10.589 -0.1253  0.3501 -0.0271
  103MOL0     C13519   0.270   7.600  10.588 -0.3270 -0.7128 -0.3717
  103MOL0     C13520   0.372   7.541  10.666  0.9731 -0.3621  0.5058
  103MOL0     C13521   0.455   7.622  10.734 -0.6102 -0.6336 -0.4268
  103MOL0     O13522   0.556   7.557  10.799  0.2207  0.5898 -0.0237
  103MOL0     C13523   0.680   7.630  10.818  0.4222  0.9694  0.5960
  103MOL0     C13524   0.759   7.553  10.926  0.7099 -0.3732  0.4752
  103MOL0     C13525   0.707   7.586  11.066  1.4140  0.2707 -0.4407
  103MOL0     C13526   0.794   7.546  11.187 -0.6945  0.4265  0.8606
  103MOL0     C13527   0.791   7.398  11.192  0.6788  0.3155  0.1060
  103MOL0     C13528   0.782   7.285  11.221 -0.0404  0.5214 -0.4572
  103MOL0     C13529   0.433   7.757  10.740 -0.3412 -0.4325 -0.1549
  103MOL0     C13530   0.327   7.815  10.677  1.0791 -0.9187  0.1394
  103MOL0     H13531  -0.038   7.824  10.307  1.7049 -0.0451  0.0404
  103MOL0     H13532  -0.228   7.932  10.217  0.0446  1.8512 -0.8919
  103MOL0     H13533  -0.240   8.148  10.095 -0.0729 -1.8827  0.9412
  103MOL0     H13534  -0.306   8.302  10.142 -0.9070 -0.2280 -0.6125
  103MOL0     H13535  -0.451   8.037  10.103 -3.2489 -0.6916  1.7685
  103MOL0     H13536  -0.486   8.175  10.006 -3.0754  1.3010  0.8370
  103MOL0     H13537  -0.580   8.317  10.172 -2.7775 -1.2161 -2.2400
  103MOL0     H13538  -0.570   8.199  10.297 -2.7148  0.4094 -0.0051
  103MOL0     H13539  -0.699   8.157  10.025 -1.6938 -1.2493  0.0803
  103MOL0     H13540  -0.692   8.049  10.166  0.2820 -0.1442  0.2616
  103MOL0     H13541  -0.806   8.268  10.287  2.3108  1.1911 -0.1608
  103MOL0     H13542  -0.899   8.158  10.181  1.0933 -1.0381 -0.6239
  103MOL0     H13543  -0.835   8.322   9.992 -0.2641 -3.5110 -0.1267
  103MOL0     H13544  -0.790   8.426  10.129  1.7605 -2.1610  1.0581
  103MOL0     H13545  -1.008   8.497  10.084  1.1183  0.9788  1.2091
  103MOL0     H13546  -1.065   8.320  10.065  0.8332 -1.6196  1.1503
  103MOL0     H13547  -1.018   8.451  10.332  0.0558 -1.9910  3.1720
  103MOL0     H13548  -1.062   8.282  10.313 -1.8083  1.7455  3.0201
  103MOL0     H13549  -1.198   8.600  10.350  2.9368 -0.3688 -2.7839
  103MOL0     H13550  -1.465   8.619  10.496  0.4863  1.2036  0.4517
  103MOL0     H13551  -1.587   8.516  10.417 -0.8415 -0.1090 -2.5199
  103MOL0     H13552  -1.456   8.759  10.299 -0.2194  1.2787  1.5134
  103MOL0     H13553  -1.623   8.749  10.367 -3.3604 -1.4548 -3.8230
  103MOL0     H13554  -1.543   8.572  10.142  1.9047  2.3896 -1.0145
  103MOL0     H13555  -1.702   8.626  10.214  0.8186  1.0706  3.2375
  103MOL0     H13556  -1.633   8.730   9.981  1.3021 -0.8858 -0.2211
  103MOL0     H13557  -1.507   8.818  10.070  0.8189 -0.6889 -2.1881
  103MOL0     H13558  -1.891   9.024  10.220 -3.9316 -0.5914  4.2186
  103MOL0     H13559  -2.112   9.072  10.133 -1.2763 -0.3457 -0.0716
  103MOL0     H13560  -2.391   8.707   9.682  0.8572  0.9802  0.4106
  103MOL0     H13561  -2.606   8.709   9.558 -0.5254  0.4370  0.2853
  103MOL0     H13562  -2.868   9.058   9.675  1.0361  0.3557  0.1261
  103MOL0     H13563  -2.919   8.885   9.713  1.5559 -1.5183 -1.9672
  103MOL0     H13564  -3.037   8.879   9.497 -0.0982  1.1276 -2.2083
  103MOL0     H13565  -2.988   9.054   9.474  1.9607 -1.8663 -0.2971
  103MOL0     H13566  -3.126   9.120   9.687 -0.7570 -1.2644  0.9488
  103MOL0     H13567  -3.170   8.951   9.690 -2.7924  0.4772 -0.5069
  103MOL0     H13568  -3.237   9.161   9.482 -1.1289  1.8568  3.3003
  103MOL0     H13569  -3.258   8.974   9.472 -1.3027  0.2778  0.4653
  103MOL0     H13570  -3.389   9.160   9.673  1.0664 -1.0645  0.8122
  103MOL0     H13571  -3.396   8.988   9.679 -0.6864 -1.2930 -0.1477
  103MOL0     H13572  -3.590   9.016   9.532 -0.4294  1.0224 -1.4513
  103MOL0     H13573  -3.470   9.025   9.403 -0.8802 -1.4092  0.2597
  103MOL0     H13574  -3.532   9.287   9.557 -1.8475 -0.4534  0.5645
  103MOL0     H13575  -3.478   9.266   9.386 -1.3383  3.5189  0.4750
  103MOL0     H13576  -3.749   9.206   9.508  0.9403  0.3739  1.4638
  103MOL0     H13577  -3.718   9.181   9.343  1.5674 -0.7391  0.7525
  103MOL0     H13578  -2.672   9.100   9.760 -3.2980 -1.7667  0.3966
  103MOL0     H13579  -2.450   9.085   9.845  1.1849 -0.7865 -0.3945
  103MOL0     H13580  -2.083   8.727   9.877  0.6750  0.1201 -1.4538
  103MOL0     H13581  -1.838   8.693   9.949  3.1547  0.7012  1.7946
  103MOL0     H13582  -0.163   8.267  10.505 -2.7608 -0.0240 -0.3044
  103MOL0     H13583   0.056   8.148  10.573  2.2701 -3.2028 -0.5451
  103MOL0     H13584   0.230   7.523  10.523  0.9795  0.3327 -2.5300
  103MOL0     H13585   0.384   7.433  10.666 -0.4880 -0.5600  1.5347
  103MOL0     H13586   0.667   7.737  10.838  1.3971  1.5416 -1.5264
  103MOL0     H13587   0.735   7.626  10.724 -1.6534 -1.3497 -0.6376
  103MOL0     H13588   0.755   7.448  10.896 -0.3330  0.0859 -1.1107
  103MOL0     H13589   0.863   7.585  10.915  0.1964  0.4530 -3.1552
  103MOL0     H13590   0.602   7.556  11.066  1.6070 -0.4052 -0.7321
  103MOL0     H13591   0.705   7.696  11.072 -0.5338  0.2958 -1.0500
  103MOL0     H13592   0.897   7.583  11.179 -0.5112  0.2149  2.0553
  103MOL0     H13593   0.758   7.594  11.279 -1.9693 -0.6398  0.9286
  103MOL0     H13594   0.767   7.187  11.262  2.3793  0.9961  1.8068
  103MOL0     H13595   0.490   7.814  10.813  2.5390 -2.5878 -0.5742
  103MOL0     H13596   0.295   7.913  10.709 -0.8565 -2.2226  2.5965
  104MOL0     O13597   5.749   9.553   6.719 -0.7744  0.1590 -0.0710
  104MOL0     C13598   5.867   9.592   6.733  0.0561 -0.9664 -0.4233
  104MOL0     O13599   5.966   9.602   6.640  0.9979 -0.5696 -0.5445
  104MOL0     C13600   5.939   9.581   6.505  0.8377  1.0737  0.7902
  104MOL0     C13601   6.065   9.562   6.437 -0.3671  0.4502 -0.1802
  104MOL0     C13602   6.071   9.561   6.298  0.2090  0.0372 -0.9392
  104MOL0     C13603   5.950   9.549   6.222 -0.1950  0.2443 -0.1162
  104MOL0     O13604   5.963   9.551   6.081  0.4405 -0.2340  0.1462
  104MOL0     C13605   5.851   9.585   5.996 -0.7991 -0.6633 -0.9123
  104MOL0     C13606   5.888   9.634   5.856  0.0333  0.6881  0.3599
  104MOL0     C13607   5.924   9.519   5.764 -1.0264 -0.0740 -0.9092
  104MOL0     C13608   5.949   9.562   5.607 -0.0496  0.0202 -1.1312
  104MOL0     C13609   5.988   9.438   5.532  0.2000  0.2756  1.0995
  104MOL0     C13610   6.051   9.468   5.394 -0.5020 -0.4393  0.4617
  104MOL0     C13611   6.201   9.473   5.415 -1.0422  0.5079  0.8045
  104MOL0     C13612   6.286   9.451   5.284 -0.3956  0.0572  0.4788
  104MOL0     N13613   6.279   9.577   5.197  0.0504 -0.1296  0.0556
  104MOL0     C13614   6.337   9.696   5.231  0.6289 -0.2523 -0.9541
  104MOL0     C13615   6.319   9.773   5.125 -0.1857 -0.1207 -0.2694
  104MOL0     C13616   6.377   9.909   5.122 -0.6382  0.2414 -0.3401
  104MOL0     C13617   6.260   9.997   5.094 -0.3449 -0.2197 -0.0498
  104MOL0     C13618   6.170  10.008   5.212  0.3940 -0.5638 -0.4300
  104MOL0     C13619   6.055  10.093   5.168 -0.2893 -0.0172 -0.0735
  104MOL0     O13620   5.969  10.115   5.279  0.1555 -0.3479 -0.5154
  104MOL0     C13621   5.887  10.017   5.324 -0.7212  0.5050  0.6763
  104MOL0     C13622   5.844   9.902   5.247 -0.8019 -0.1820 -0.1945
  104MOL0     C13623   5.755   9.809   5.309  0.2146  0.6887  0.4414
  104MOL0     C13624   5.722   9.828   5.451 -0.0980  0.7542 -1.2253
  104MOL0     C13625   5.617   9.743   5.509  0.6432  0.8909 -0.5806
  104MOL0     O13626   5.592   9.626   5.443  0.3074 -0.2866  0.0104
  104MOL0     C13627   5.484   9.556   5.484 -0.3266  0.0758 -0.5638
  104MOL0     C13628   5.502   9.428   5.532 -0.3102  0.0519  0.2452
  104MOL0     C13629   5.398   9.332   5.561  0.0171  0.5038  0.4549
  104MOL0     C13630   5.268   9.376   5.551 -0.2967  0.5519 -0.4331
  104MOL0     O13631   5.158   9.295   5.569  0.0258 -0.3341 -0.4652
  104MOL0     C13632   5.160   9.165   5.625 -1.1692  0.4468  0.0180
  104MOL0     C13633   5.027   9.115   5.590 -0.1370  0.0266  0.3226
  104MOL0     C13634   5.030   8.959   5.595  0.7998 -0.5379 -1.0004
  104MOL0     C13635   4.898   8.891   5.558  0.2066  0.0491 -0.2170
  104MOL0     C13636   4.941   8.735   5.534  0.5753 -0.4495  0.1407
  104MOL0     C13637   4.837   8.633   5.481 -0.5277  0.1607  0.4126
  104MOL0     C13638   4.706   8.637   5.553  0.0921 -0.9678 -0.5449
  104MOL0     C13639   4.600   8.540   5.508 -0.4630  0.0694  0.1520
  104MOL0    Cl13640   4.444   8.568   5.581 -0.1756  0.0475 -0.0345
  104MOL0     C13641   5.253   9.503   5.492  0.2894  0.2841 -0.2038
  104MOL0     C13642   5.357   9.596   5.458  0.7325 -0.2173  0.1463
  104MOL0     O13643   5.568   9.769   5.618 -0.6180  0.3572 -0.4679
  104MOL0     C13644   5.777   9.931   5.521  0.1246 -0.7084 -0.4029
  104MOL0     C13645   5.855  10.029   5.457 -0.4083  0.2935  0.5444
  104MOL0     N13646   6.257   9.697   5.023 -0.3298 -0.0012  0.1037
  104MOL0     N13647   6.233   9.578   5.064 -0.3125 -0.0164 -0.0055
  104MOL0     C13648   5.826   9.552   6.280  0.5159 -0.1472  0.0369
  104MOL0     C13649   5.818   9.568   6.421  0.1799 -0.9243 -0.8351
  104MOL0     C13650   5.907   9.644   6.868  0.5425  0.2019 -0.2745
  104MOL0     C13651   5.829   9.611   6.987  1.1530 -0.1201  0.5796
  104MOL0     C13652   5.857   9.668   7.116  0.1462  0.1625  0.2572
  104MOL0     C13653   5.956   9.764   7.128 -0.6191  0.5473 -0.2279
  104MOL0     O13654   5.968   9.801   7.257  0.2476  0.1008 -0.0241
  104MOL0     C13655   6.089   9.874   7.305 -0.1451 -0.9319 -0.5707
  104MOL0     C13656   6.060   9.977   7.410  0.1569  0.4093 -0.6500
  104MOL0     C13657   5.988   9.921   7.531  0.1889  0.2172 -0.4643
  104MOL0     C13658   5.948  10.035   7.621  0.4716 -0.4367 -0.9933
  104MOL0     C13659   6.058  10.101   7.696  0.4263  0.7913 -1.8439
  104MOL0     C13660   6.162  10.143   7.754  0.2443 -0.3377 -0.6632
  104MOL0     C13661   6.037   9.789   7.019  0.0053  0.1898  0.1979
  104MOL0     C13662   6.014   9.731   6.895  0.0453 -0.6762  0.0112
  104MOL0     H13663   6.160   9.566   6.489 -1.2817  0.1418  1.5760
  104MOL0     H13664   6.157   9.588   6.237  0.1199 -2.2782 -2.2292
  104MOL0     H13665   5.793   9.666   6.042 -0.7784 -0.9701 -0.3470
  104MOL0     H13666   5.792   9.494   5.994 -0.6815 -0.7575 -0.2458
  104MOL0     H13667   5.973   9.702   5.859  0.7108  0.1548 -2.8045
  104MOL0     H13668   5.800   9.687   5.819 -1.4262  0.4663  3.2823
  104MOL0     H13669   5.858   9.433   5.750 -1.3866 -0.3273  1.8006
  104MOL0     H13670   6.020   9.485   5.804 -0.2139  2.0798 -0.8850
  104MOL0     H13671   5.853   9.596   5.567  0.0640  3.4307  1.0717
  104MOL0     H13672   6.027   9.638   5.600  2.6199 -1.6451  4.4238
  104MOL0     H13673   5.904   9.369   5.520 -0.2612  1.1854 -1.7399
  104MOL0     H13674   6.062   9.388   5.595 -1.0432 -1.6927  1.0584
  104MOL0     H13675   6.022   9.566   5.355  0.5952  0.0224  0.7694
  104MOL0     H13676   6.020   9.387   5.328 -1.4476  0.1046  0.2260
  104MOL0     H13677   6.218   9.573   5.456 -0.0121  1.1007 -0.9701
  104MOL0     H13678   6.230   9.397   5.487  0.3117 -0.7402 -0.9698
  104MOL0     H13679   6.250   9.369   5.222 -1.3199  0.3470  0.6189
  104MOL0     H13680   6.393   9.431   5.291  0.0728  2.3424  0.6625
  104MOL0     H13681   6.380   9.724   5.327 -3.3890  1.0843  0.6689
  104MOL0     H13682   6.455   9.901   5.045 -0.2204  0.7507  0.0239
  104MOL0     H13683   6.432   9.948   5.208  1.2003  0.0026 -1.3462
  104MOL0     H13684   6.201   9.961   5.009 -1.9441  1.1184  0.4412
  104MOL0     H13685   6.297  10.096   5.064 -1.3768 -0.9182 -4.2381
  104MOL0     H13686   6.132   9.908   5.235  1.7289 -1.3254 -1.3982
  104MOL0     H13687   6.223  10.058   5.294  0.2467  0.7012 -1.0786
  104MOL0     H13688   6.006  10.048   5.081  0.3640 -1.7302  0.4067
  104MOL0     H13689   6.100  10.186   5.133  3.3552 -1.9173 -0.9353
  104MOL0     H13690   5.878   9.882   5.146 -0.3838  1.2513 -0.3646
  104MOL0     H13691   5.726   9.720   5.254  5.0494 -0.8928 -0.0761
  104MOL0     H13692   5.598   9.395   5.571 -0.0768  0.1254 -0.2641
  104MOL0     H13693   5.415   9.240   5.617  0.1263  0.8205  0.9542
  104MOL0     H13694   5.165   9.161   5.734  2.1076 -3.3372 -0.0528
  104MOL0     H13695   5.244   9.098   5.605 -1.1965 -0.4107  2.4433
  104MOL0     H13696   5.004   9.145   5.487  1.1544  1.3531  0.3934
  104MOL0     H13697   4.950   9.153   5.657  1.1510 -0.2068  2.0148
  104MOL0     H13698   5.068   8.925   5.691  0.3746 -0.7439 -0.8978
  104MOL0     H13699   5.114   8.929   5.532  1.9862 -1.2616  0.8562
  104MOL0     H13700   4.832   8.894   5.645 -1.3610 -4.7651 -0.9430
  104MOL0     H13701   4.850   8.938   5.472 -0.5519  1.0689  0.7307
  104MOL0     H13702   4.987   8.698   5.626  0.4469 -1.0955 -0.0560
  104MOL0     H13703   5.028   8.739   5.467  1.2750  0.1597  1.0400
  104MOL0     H13704   4.881   8.532   5.484 -0.2625  0.1495 -1.9760
  104MOL0     H13705   4.800   8.653   5.380 -2.9457 -1.9645  0.7473
  104MOL0     H13706   4.734   8.623   5.658  1.1799  1.4157 -0.4351
  104MOL0     H13707   4.659   8.735   5.539  2.7642  0.2739 -1.7681
  104MOL0     H13708   4.633   8.436   5.518  2.1012  0.5558 -1.9486
  104MOL0     H13709   4.596   8.550   5.399  1.7268 -2.7361 -0.3066
  104MOL0     H13710   5.149   9.518   5.463 -0.2238 -1.4762  0.6032
  104MOL0     H13711   5.327   9.688   5.411  0.6455 -1.1514 -1.7118
  104MOL0     H13712   5.752   9.945   5.626 -1.9902  0.1838 -0.9740
  104MOL0     H13713   5.889  10.116   5.512  0.8759 -1.8837  3.4650
  104MOL0     H13714   5.734   9.558   6.224  0.6478 -0.7511 -0.2565
  104MOL0     H13715   5.722   9.574   6.471  0.0005 -0.6686 -1.2070
  104MOL0     H13716   5.755   9.532   6.990  1.5304 -0.4730  2.3604
  104MOL0     H13717   5.803   9.630   7.202 -1.2257 -1.4387 -1.2169
  104MOL0     H13718   6.130   9.938   7.227  0.6499 -0.4374  0.2359
  104MOL0     H13719   6.160   9.803   7.347 -1.9005 -3.3474 -1.4821
  104MOL0     H13720   6.149  10.028   7.447  1.4205 -0.7895 -1.9655
  104MOL0     H13721   5.997  10.054   7.364 -1.6312 -0.4388  0.2778
  104MOL0     H13722   6.052   9.863   7.598 -0.0660  0.7224  0.2160
  104MOL0     H13723   5.907   9.853   7.502 -0.0720  0.8328 -1.1980
  104MOL0     H13724   5.910  10.109   7.550 -0.7681 -0.3621 -0.2708
  104MOL0     H13725   5.855  10.019   7.675 -0.6436 -2.0751 -3.2380
  104MOL0     H13726   6.239  10.179   7.820 -0.5376 -0.5937  0.4273
  104MOL0     H13727   6.122   9.856   7.014  0.3167 -0.2289 -4.6279
  104MOL0     H13728   6.078   9.764   6.814  0.7428  2.9825  1.8512
  105MOL0     O13729   6.502  11.285   2.715 -0.7065  0.4695 -0.7708
  105MOL0     C13730   6.593  11.203   2.729  0.8857  0.1879 -1.4885
  105MOL0     O13731   6.729  11.221   2.708 -0.0824  0.1663  0.3248
  105MOL0     C13732   6.778  11.310   2.617 -1.3396  0.3628 -0.4348
  105MOL0     C13733   6.707  11.368   2.514  0.9332  0.1181  1.4503
  105MOL0     C13734   6.781  11.444   2.422  0.1131  0.3553 -0.0860
  105MOL0     C13735   6.923  11.442   2.410  0.4828 -0.2385  0.1073
  105MOL0     O13736   7.001  11.509   2.322 -0.2125  0.1583 -0.5995
  105MOL0     C13737   6.944  11.570   2.205 -0.4613 -0.5075  0.1222
  105MOL0     C13738   7.039  11.563   2.087 -0.7590  0.8546 -0.1334
  105MOL0     C13739   7.002  11.662   1.978 -0.0230  0.5887 -0.2699
  105MOL0     C13740   6.854  11.635   1.927 -0.2609 -0.1665 -0.2323
  105MOL0     C13741   6.840  11.718   1.801  0.4030 -0.2349  0.1226
  105MOL0     C13742   6.840  11.867   1.815 -0.2210 -0.2372  1.0038
  105MOL0     C13743   6.790  11.925   1.678  0.4241  0.5148 -0.5701
  105MOL0     C13744   6.727  11.844   1.569 -0.5091  0.3861 -0.0011
  105MOL0     N13745   6.659  11.926   1.456  0.3155 -0.0901 -0.4447
  105MOL0     C13746   6.731  11.965   1.345 -0.3383  0.5836 -0.1664
  105MOL0     C13747   6.636  12.029   1.274  0.4253  1.0647 -0.0474
  105MOL0     C13748   6.648  12.107   1.148 -0.0248  0.7349 -0.2948
  105MOL0     C13749   6.569  12.034   1.039 -0.0828 -0.0488 -0.2563
  105MOL0     C13750   6.515  12.140   0.934 -0.0890 -0.0179  0.3648
  105MOL0     C13751   6.391  12.223   0.992 -0.0029 -0.1389  0.5303
  105MOL0     O13752   6.341  12.336   0.916 -0.2037  0.5360  0.0348
  105MOL0     C13753   6.214  12.385   0.945  0.0293 -0.3571  0.1369
  105MOL0     C13754   6.127  12.328   1.040  0.0400  0.0293 -0.6544
  105MOL0     C13755   5.983  12.361   1.044  0.7469  0.0504  0.3463
  105MOL0     C13756   5.935  12.473   0.969 -1.2239 -0.3634 -0.2663
  105MOL0     C13757   5.787  12.499   0.970 -0.6699 -0.5944 -1.1566
  105MOL0     O13758   5.750  12.589   0.878 -0.0919 -0.0658  0.0146
  105MOL0     C13759   5.617  12.628   0.871 -0.3834  0.3703  0.4919
  105MOL0     C13760   5.513  12.534   0.867 -1.2292 -0.4077  0.9141
  105MOL0     C13761   5.378  12.575   0.844  0.7273 -0.7490 -0.0045
  105MOL0     C13762   5.347  12.714   0.824 -0.2095 -0.3805 -0.0117
  105MOL0     O13763   5.220  12.747   0.802 -0.0601  0.2516  0.4508
  105MOL0     C13764   5.179  12.853   0.883 -0.4506  0.0797  0.0470
  105MOL0     C13765   5.029  12.822   0.900  0.4873  0.3263 -0.0289
  105MOL0     C13766   4.943  12.841   0.776 -0.2218  0.3778  0.5975
  105MOL0     C13767   4.798  12.841   0.808  0.3532  0.5207 -0.2894
  105MOL0     C13768   4.705  12.863   0.696 -0.8324 -0.4547  0.3187
  105MOL0     C13769   4.567  12.913   0.737  0.4682 -0.8342 -0.4734
  105MOL0     C13770   4.497  12.984   0.617  0.9132 -0.3227 -0.4318
  105MOL0     C13771   4.351  13.040   0.668 -0.1171  0.0707  0.2886
  105MOL0    Cl13772   4.237  12.912   0.666  0.0659 -0.7855 -0.4885
  105MOL0     C13773   5.455  12.801   0.824 -0.2885 -0.3601  0.1556
  105MOL0     C13774   5.586  12.758   0.847 -0.2167 -0.8897 -0.7348
  105MOL0     O13775   5.715  12.441   1.045  0.4901 -0.3099  0.3507
  105MOL0     C13776   6.031  12.541   0.879  0.4017  0.5712 -0.4696
  105MOL0     C13777   6.169  12.488   0.868 -0.4535 -1.0270 -0.1106
  105MOL0     N13778   6.512  12.016   1.334 -0.3877 -0.3378  0.4364
  105MOL0     N13779   6.522  11.948   1.438  0.2309  0.9644  0.2121
  105MOL0     C13780   6.987  11.381   2.511  0.2422 -0.1506 -0.4961
  105MOL0     C13781   6.919  11.312   2.611 -0.4355  0.6512 -0.9069
  105MOL0     C13782   6.558  11.075   2.781 -0.2237 -0.5385 -0.8116
  105MOL0     C13783   6.443  11.047   2.859  0.7343  0.1271 -0.4289
  105MOL0     C13784   6.423  10.923   2.923 -0.4231  0.2576 -0.1678
  105MOL0     C13785   6.514  10.818   2.905 -0.0483  0.6552  0.5467
  105MOL0     O13786   6.495  10.700   2.975  0.0772  0.3344 -0.3756
  105MOL0     C13787   6.577  10.585   2.940  0.0425  0.0607  0.8892
  105MOL0     C13788   6.525  10.463   3.024  0.6145 -0.6143  0.5439
  105MOL0     C13789   6.514  10.487   3.176 -0.5326 -0.0217  0.6183
  105MOL0     C13790   6.635  10.554   3.237  0.2182 -0.1690 -0.5520
  105MOL0     C13791   6.759  10.477   3.222 -0.1745 -0.2937  0.1528
  105MOL0     C13792   6.876  10.456   3.203  0.2341 -0.8257  0.5599
  105MOL0     C13793   6.614  10.839   2.808  0.9233 -0.8744 -0.6229
  105MOL0     C13794   6.634  10.967   2.745  0.7972 -0.0159 -1.0268
  105MOL0     H13795   6.600  11.369   2.497  1.2007  2.3154 -0.6614
  105MOL0     H13796   6.732  11.503   2.345  0.7520  0.9504 -0.0503
  105MOL0     H13797   6.918  11.675   2.221 -1.4239 -0.2396 -2.5985
  105MOL0     H13798   6.858  11.513   2.168 -2.0680  1.9115 -0.1379
  105MOL0     H13799   7.044  11.458   2.054  1.8893  1.4578 -1.9678
  105MOL0     H13800   7.136  11.590   2.130  0.2184 -0.6131 -1.3132
  105MOL0     H13801   7.073  11.654   1.894  1.5458  1.1003  0.9600
  105MOL0     H13802   7.014  11.760   2.024 -0.6787 -0.1003  1.4609
  105MOL0     H13803   6.849  11.535   1.885  0.9499  0.3293 -1.6646
  105MOL0     H13804   6.778  11.653   2.004 -0.0078  0.1560 -0.0537
  105MOL0     H13805   6.739  11.687   1.772  0.3838  0.5241 -0.6495
  105MOL0     H13806   6.898  11.697   1.710  0.4297  0.2581  0.0250
  105MOL0     H13807   6.939  11.904   1.842  0.5123 -0.4817 -1.2017
  105MOL0     H13808   6.778  11.902   1.898  2.2869  3.8583  1.4150
  105MOL0     H13809   6.714  11.999   1.704  1.3285  1.7850 -1.4383
  105MOL0     H13810   6.869  11.971   1.619 -0.0067  0.0396 -1.5536
  105MOL0     H13811   6.650  11.795   1.629  0.9470  1.6540  3.1256
  105MOL0     H13812   6.803  11.775   1.531 -0.2880  0.3166  0.5656
  105MOL0     H13813   6.833  11.940   1.316 -0.1838  0.5262  0.4177
  105MOL0     H13814   6.751  12.122   1.116  1.2057 -2.4406  1.7343
  105MOL0     H13815   6.592  12.201   1.153 -0.5746  0.6514 -3.0147
  105MOL0     H13816   6.484  11.980   1.082 -0.7871  1.3591  0.2025
  105MOL0     H13817   6.640  11.965   0.994  2.7711  0.1051  3.5047
  105MOL0     H13818   6.600  12.204   0.908 -0.3894 -0.4782 -1.9915
  105MOL0     H13819   6.486  12.082   0.846 -1.9771  1.1198  0.1609
  105MOL0     H13820   6.412  12.266   1.090  0.9715 -1.9223  1.1520
  105MOL0     H13821   6.315  12.144   0.985  1.8782 -1.9388 -1.1935
  105MOL0     H13822   6.159  12.246   1.103  1.5586  0.9845 -0.1197
  105MOL0     H13823   5.928  12.311   1.124 -0.5562 -0.7300 -0.9804
  105MOL0     H13824   5.525  12.426   0.879 -2.1972 -0.6268  0.1308
  105MOL0     H13825   5.300  12.499   0.850 -0.6279  0.4896 -1.1196
  105MOL0     H13826   5.203  12.949   0.837  2.4360 -0.5246  0.1324
  105MOL0     H13827   5.230  12.853   0.979 -1.8609  0.9176  0.8309
  105MOL0     H13828   4.989  12.883   0.982 -3.2692 -2.3422  0.3854
  105MOL0     H13829   5.003  12.723   0.940 -1.5177  1.6009  2.0833
  105MOL0     H13830   4.975  12.770   0.699  2.0628 -0.0434  1.8558
  105MOL0     H13831   4.977  12.929   0.720  0.6974  0.0368  0.5929
  105MOL0     H13832   4.779  12.744   0.855 -0.7116  0.1207 -1.4988
  105MOL0     H13833   4.785  12.916   0.887  3.6266  1.1141 -0.1677
  105MOL0     H13834   4.697  12.775   0.630 -1.3180 -0.9971  1.0824
  105MOL0     H13835   4.753  12.945   0.642 -1.8285 -0.4545 -0.6128
  105MOL0     H13836   4.561  12.982   0.821  3.5847 -0.2584 -0.6265
  105MOL0     H13837   4.501  12.829   0.763 -1.1435  0.6649  0.4761
  105MOL0     H13838   4.560  13.070   0.590  1.8374 -0.1606  2.0380
  105MOL0     H13839   4.486  12.925   0.525  0.7562  0.9052 -1.2340
  105MOL0     H13840   4.315  13.104   0.587 -1.1576  0.6530  1.1784
  105MOL0     H13841   4.354  13.084   0.768 -0.0252 -2.3923  1.4305
  105MOL0     H13842   5.436  12.907   0.806 -1.3673  0.0923  3.3800
  105MOL0     H13843   5.663  12.835   0.847  0.9463 -1.9781  1.0435
  105MOL0     H13844   5.991  12.626   0.823 -3.2359  0.3083  1.4167
  105MOL0     H13845   6.243  12.535   0.804  0.6839  0.0393  1.8888
  105MOL0     H13846   7.095  11.378   2.521  0.0748 -0.2786  2.2834
  105MOL0     H13847   6.963  11.260   2.695  1.3777  1.8071 -1.0971
  105MOL0     H13848   6.375  11.126   2.887  0.5452 -0.8642  2.1810
  105MOL0     H13849   6.347  10.902   2.997  0.5875 -0.8451  0.5971
  105MOL0     H13850   6.675  10.611   2.982  0.2679 -1.7152  1.5257
  105MOL0     H13851   6.575  10.565   2.833 -0.3381  0.9642  0.7146
  105MOL0     H13852   6.427  10.427   2.993  0.9746  0.9199 -2.8081
  105MOL0     H13853   6.591  10.379   3.001  1.6386  0.2139  0.3614
  105MOL0     H13854   6.492  10.398   3.235 -2.9780 -0.0314 -0.1927
  105MOL0     H13855   6.433  10.559   3.194  1.0249  2.4613 -1.6869
  105MOL0     H13856   6.639  10.652   3.189 -0.5193  0.8591  1.3696
  105MOL0     H13857   6.619  10.581   3.342 -0.8880  0.8805 -0.9655
  105MOL0     H13858   6.981  10.450   3.186  0.2109 -2.1462  0.7675
  105MOL0     H13859   6.678  10.753   2.795  0.1177 -1.6301  0.2261
  105MOL0     H13860   6.713  10.975   2.671  0.7860  1.0823 -0.9370
  106MOL0     O13861   0.991   2.117   6.996  0.2254 -0.4259  0.2357
  106MOL0     C13862   1.109   2.104   7.036  0.4393  0.0525  0.1496
  106MOL0     O13863   1.149   1.994   7.111 -0.6179  0.7084  0.6195
  106MOL0     C13864   1.075   1.878   7.120 -0.1137  0.0319 -1.5729
  106MOL0     C13865   0.980   1.829   7.028  0.2945  0.0819 -0.3155
  106MOL0     C13866   0.901   1.719   7.066  0.3203  0.0518  0.0395
  106MOL0     C13867   0.911   1.654   7.184  0.5898  0.1771  0.0530
  106MOL0     O13868   0.836   1.542   7.199 -0.5676 -0.9355 -0.5469
  106MOL0     C13869   0.806   1.504   7.333 -0.3903 -0.0507 -0.2752
  106MOL0     C13870   0.686   1.411   7.350 -0.1184  0.4837  1.6710
  106MOL0     C13871   0.685   1.363   7.499  0.1979 -0.5000 -0.3742
  106MOL0     C13872   0.561   1.286   7.537  1.2597 -0.2962 -0.0971
  106MOL0     C13873   0.589   1.199   7.669  0.0641  0.0427  0.3139
  106MOL0     C13874   0.612   1.295   7.789 -0.1466  0.3901  0.9155
  106MOL0     C13875   0.648   1.225   7.920 -0.3226 -0.3109 -0.2757
  106MOL0     C13876   0.626   1.321   8.033  0.5387 -0.2393  0.0504
  106MOL0     N13877   0.709   1.273   8.141  0.4276  0.9376 -0.4820
  106MOL0     C13878   0.792   1.352   8.217 -0.0653 -0.5826  0.1984
  106MOL0     C13879   0.806   1.288   8.336 -0.7925 -0.6684 -0.1304
  106MOL0     C13880   0.886   1.343   8.444 -1.0934  0.7759 -1.0794
  106MOL0     C13881   0.809   1.455   8.512 -0.2509  0.1021 -0.4583
  106MOL0     C13882   0.710   1.393   8.616 -0.4658 -0.6030 -0.1229
  106MOL0     C13883   0.683   1.496   8.712 -0.0419 -0.7247  0.0195
  106MOL0     O13884   0.597   1.604   8.647  0.1283  0.4460  0.3344
  106MOL0     C13885   0.516   1.693   8.725 -0.3449 -0.9990  0.5022
  106MOL0     C13886   0.499   1.692   8.863  0.0678 -0.1803  0.8717
  106MOL0     C13887   0.422   1.789   8.925 -1.9720 -0.2864 -0.1391
  106MOL0     C13888   0.366   1.895   8.855  0.4394  0.1735  0.1391
  106MOL0     C13889   0.266   1.996   8.919 -0.8997  0.3809  0.3696
  106MOL0     O13890   0.252   2.001   9.057  0.5108  0.1717  0.3520
  106MOL0     C13891   0.192   2.108   9.111  0.7241  0.0389 -0.3356
  106MOL0     C13892   0.215   2.239   9.068 -0.3733  0.0467  0.6461
  106MOL0     C13893   0.171   2.347   9.144  0.1127 -1.6843  1.3040
  106MOL0     C13894   0.090   2.328   9.253 -0.2857 -0.7338  0.5636
  106MOL0     O13895   0.037   2.433   9.325 -0.7634 -0.8764 -0.4282
  106MOL0     C13896   0.122   2.512   9.407 -0.3969 -0.6027  0.8784
  106MOL0     C13897   0.039   2.624   9.478  0.4983  0.0878 -0.5284
  106MOL0     C13898  -0.086   2.565   9.559 -0.7131  0.6497  0.0482
  106MOL0     C13899  -0.086   2.607   9.704  0.1251 -0.4543  0.6057
  106MOL0     C13900  -0.213   2.546   9.767  1.3201  0.8952 -0.0939
  106MOL0     C13901  -0.238   2.609   9.902 -0.7581 -0.8676 -0.2729
  106MOL0     C13902  -0.357   2.537   9.972 -0.0418  0.4010 -0.7727
  106MOL0     C13903  -0.424   2.619  10.083  0.8464 -0.9986 -0.9698
  106MOL0    Cl13904  -0.300   2.649  10.202 -0.1610  0.1689 -0.0352
  106MOL0     C13905   0.070   2.201   9.302  0.0544 -0.9428  0.5788
  106MOL0     C13906   0.122   2.096   9.234 -0.2941 -0.8127  0.3479
  106MOL0     O13907   0.229   2.072   8.834 -0.1374  0.0876 -0.5165
  106MOL0     C13908   0.397   1.902   8.722  0.3503  0.0024  0.5025
  106MOL0     C13909   0.472   1.806   8.655  0.4533  0.6839  0.5300
  106MOL0     N13910   0.740   1.158   8.317 -0.3465 -0.4365 -0.8465
  106MOL0     N13911   0.690   1.156   8.209  1.0226  0.2065 -0.3353
  106MOL0     C13912   1.009   1.692   7.273 -0.2898 -0.0168  0.8397
  106MOL0     C13913   1.084   1.808   7.246 -0.1039 -0.5847 -0.2613
  106MOL0     C13914   1.201   2.205   7.010  0.4476 -0.4263  0.3830
  106MOL0     C13915   1.176   2.320   6.933 -0.1595 -0.1593  0.1927
  106MOL0     C13916   1.263   2.422   6.917 -0.9958 -0.4610 -0.5823
  106MOL0     C13917   1.396   2.410   6.975  0.3313 -0.2304  0.8738
  106MOL0     O13918   1.497   2.502   6.970  0.8384 -0.2673 -0.0575
  106MOL0     C13919   1.492   2.593   6.856  0.5979 -0.4294 -0.1315
  106MOL0     C13920   1.618   2.673   6.849  0.6563  0.4720 -0.4755
  106MOL0     C13921   1.632   2.772   6.726 -0.0170  0.2144 -0.9909
  106MOL0     C13922   1.743   2.883   6.744 -0.0388  0.3255 -0.7061
  106MOL0     C13923   1.874   2.828   6.776 -0.6767  0.9294 -0.1342
  106MOL0     C13924   1.979   2.775   6.801 -0.1218  0.4424 -0.3477
  106MOL0     C13925   1.433   2.291   7.037 -0.6683  0.2039  0.5263
  106MOL0     C13926   1.340   2.189   7.056  0.5744  0.2283 -0.0060
  106MOL0     H13927   0.977   1.867   6.927 -0.1219 -1.2070 -0.8112
  106MOL0     H13928   0.812   1.688   7.011  0.6764 -0.7244 -0.1201
  106MOL0     H13929   0.787   1.601   7.380  0.9477  0.7979 -1.4361
  106MOL0     H13930   0.886   1.447   7.380 -1.3757 -0.1585  1.3622
  106MOL0     H13931   0.698   1.321   7.288  0.4970  1.3233  0.5447
  106MOL0     H13932   0.593   1.464   7.326  0.6751  0.2120 -2.7934
  106MOL0     H13933   0.700   1.455   7.555 -1.7620  1.5990 -3.0442
  106MOL0     H13934   0.770   1.301   7.530  1.7777  0.4307 -2.6170
  106MOL0     H13935   0.473   1.349   7.556  0.9694 -1.4352  2.8201
  106MOL0     H13936   0.539   1.207   7.465  0.0019 -1.4078  1.4291
  106MOL0     H13937   0.671   1.130   7.647 -0.2933 -0.1023 -0.5888
  106MOL0     H13938   0.493   1.151   7.689  0.5487 -2.3411 -2.4868
  106MOL0     H13939   0.519   1.350   7.808 -0.8532 -0.1782 -0.6494
  106MOL0     H13940   0.690   1.370   7.780  0.3628  0.4650  4.5397
  106MOL0     H13941   0.588   1.136   7.938  0.7804 -0.3622  4.6114
  106MOL0     H13942   0.753   1.195   7.912  0.7987  2.0789  3.0903
  106MOL0     H13943   0.521   1.312   8.064  0.4923 -0.8053 -0.2608
  106MOL0     H13944   0.637   1.424   7.998 -1.0832  0.3680  1.1787
  106MOL0     H13945   0.826   1.450   8.187  1.1600 -1.6080 -2.0259
  106MOL0     H13946   0.981   1.382   8.406 -1.5034  4.1632  0.9341
  106MOL0     H13947   0.910   1.272   8.523 -0.3062  1.6376 -0.5129
  106MOL0     H13948   0.760   1.524   8.443 -1.1776  1.3363  1.3432
  106MOL0     H13949   0.881   1.520   8.561  0.7272  0.0335 -1.7789
  106MOL0     H13950   0.629   1.357   8.551  0.0241 -2.2000  0.1090
  106MOL0     H13951   0.756   1.305   8.661 -1.4332 -0.3443  1.4546
  106MOL0     H13952   0.768   1.545   8.761 -1.7673  2.1172  0.3233
  106MOL0     H13953   0.621   1.450   8.789 -1.9918  2.6829  0.6269
  106MOL0     H13954   0.546   1.611   8.918  3.6267  1.5261  0.6470
  106MOL0     H13955   0.419   1.787   9.033 -4.3359  3.3541  0.0561
  106MOL0     H13956   0.289   2.248   8.989  1.9452 -3.0136  2.2349
  106MOL0     H13957   0.203   2.447   9.114 -0.6691 -0.9032  2.9633
  106MOL0     H13958   0.200   2.558   9.346 -1.9574  0.9238 -0.0482
  106MOL0     H13959   0.164   2.454   9.490 -1.6271 -1.3080  1.0268
  106MOL0     H13960  -0.013   2.692   9.409 -3.3278 -1.7503  0.3092
  106MOL0     H13961   0.100   2.689   9.542 -0.4037  1.4470 -0.9811
  106MOL0     H13962  -0.075   2.457   9.555  3.2898  0.8844  0.7121
  106MOL0     H13963  -0.178   2.603   9.513  0.2875  1.5345 -1.2956
  106MOL0     H13964   0.006   2.579   9.756 -1.5021 -3.3762  2.1997
  106MOL0     H13965  -0.099   2.716   9.704 -0.5588 -0.5306  0.0004
  106MOL0     H13966  -0.198   2.439   9.781 -0.4476  0.9164  2.9729
  106MOL0     H13967  -0.303   2.563   9.709 -0.6645 -3.9689  1.0884
  106MOL0     H13968  -0.255   2.716   9.892  1.7487 -0.4323 -0.3970
  106MOL0     H13969  -0.148   2.614   9.964 -1.2047 -0.3099  0.3473
  106MOL0     H13970  -0.441   2.526   9.902  0.6054 -0.1280 -1.4882
  106MOL0     H13971  -0.319   2.447  10.021  0.8996  0.3279 -1.6244
  106MOL0     H13972  -0.501   2.547  10.111 -0.6009 -0.1314 -2.5387
  106MOL0     H13973  -0.474   2.708  10.045  3.9450  1.3232 -0.0766
  106MOL0     H13974   0.012   2.200   9.393  0.2779 -1.8432  0.7275
  106MOL0     H13975   0.110   1.991   9.262 -1.0894 -1.3319 -1.7599
  106MOL0     H13976   0.345   1.975   8.660 -1.2832 -0.6169  1.0963
  106MOL0     H13977   0.487   1.804   8.547  1.6405 -2.6093  0.6283
  106MOL0     H13978   1.042   1.641   7.363 -0.2888 -1.1961  0.1938
  106MOL0     H13979   1.158   1.843   7.317 -1.2085  1.6620 -0.1320
  106MOL0     H13980   1.086   2.328   6.873  0.7394 -1.9660 -1.5360
  106MOL0     H13981   1.240   2.505   6.851  2.3552 -0.4995 -2.0437
  106MOL0     H13982   1.404   2.658   6.856 -0.8779 -2.2932  1.5482
  106MOL0     H13983   1.488   2.535   6.763 -1.4023 -0.3405 -0.1602
  106MOL0     H13984   1.619   2.734   6.940 -0.5053  0.5123 -0.4697
  106MOL0     H13985   1.699   2.600   6.853 -0.0865 -0.3055  1.1244
  106MOL0     H13986   1.540   2.830   6.709  0.4804  0.2748 -4.1367
  106MOL0     H13987   1.668   2.717   6.638 -0.6648  1.7276 -2.2734
  106MOL0     H13988   1.753   2.940   6.651 -2.5193 -1.1407 -1.9723
  106MOL0     H13989   1.720   2.949   6.828 -0.9501 -0.2974 -0.4570
  106MOL0     H13990   2.066   2.731   6.844 -0.8313 -0.1956  0.4741
  106MOL0     H13991   1.533   2.282   7.079  0.4318  0.3346 -1.9287
  106MOL0     H13992   1.377   2.099   7.104  0.1367  0.6437  1.1482
  107MOL0     O13993   8.800   2.952   4.020  0.1469 -0.2115 -0.2112
  107MOL0     C13994   8.826   3.050   3.944  0.6374  0.5308 -0.6454
  107MOL0     O13995   8.945   3.116   3.952 -0.1579  0.6391  0.1985
  107MOL0     C13996   9.033   3.097   4.053  0.1198  0.2934 -0.3633
  107MOL0     C13997   9.002   3.075   4.190  0.1017 -0.1714  0.2698
  107MOL0     C13998   9.096   3.085   4.286  0.0516 -0.5157  0.5000
  107MOL0     C13999   9.228   3.099   4.249  0.3205 -0.5489 -0.4269
  107MOL0     O14000   9.330   3.107   4.343 -0.2892  0.7630 -0.1410
  107MOL0     C14001   9.465   3.050   4.319  0.2331 -0.3025 -0.5848
  107MOL0     C14002   9.526   3.005   4.449 -0.2624 -1.1065  0.4521
  107MOL0     C14003   9.479   2.861   4.495  1.2709 -0.2080  0.2185
  107MOL0     C14004   9.585   2.793   4.587  0.3349  0.3591 -0.1265
  107MOL0     C14005   9.561   2.643   4.608  0.6165 -0.1352 -0.6005
  107MOL0     C14006   9.642   2.606   4.739  0.5600  0.1857 -0.5634
  107MOL0     C14007   9.770   2.539   4.707  0.4746  0.2106  1.0445
  107MOL0     C14008   9.855   2.529   4.824  0.5376 -0.6144 -0.3247
  107MOL0     N14009   9.796   2.482   4.954 -0.4947  0.5830 -0.1928
  107MOL0     C14010   9.820   2.361   5.009 -0.7559 -0.5934  0.2875
  107MOL0     C14011   9.773   2.366   5.139 -0.0576  0.4171 -0.7484
  107MOL0     C14012   9.773   2.262   5.245 -0.2628  0.4588 -0.3393
  107MOL0     C14013   9.674   2.146   5.223  0.8599 -0.8838 -0.0997
  107MOL0     C14014   9.529   2.187   5.197  0.0206 -0.2135 -0.8248
  107MOL0     C14015   9.428   2.078   5.216 -0.2734  0.1042  0.1421
  107MOL0     O14016   9.424   1.976   5.114 -0.2922 -0.8396  0.7809
  107MOL0     C14017   9.316   1.956   5.035 -0.3842 -0.8370 -0.0558
  107MOL0     C14018   9.289   1.821   4.999 -0.1100 -0.2610 -1.2527
  107MOL0     C14019   9.176   1.790   4.929 -0.2007  0.2253  0.1225
  107MOL0     C14020   9.070   1.875   4.916  0.5719 -0.9604 -0.3412
  107MOL0     C14021   8.954   1.841   4.835  0.0332 -0.3977 -0.3861
  107MOL0     O14022   8.855   1.942   4.819 -0.2988 -0.9625  0.8577
  107MOL0     C14023   8.741   1.911   4.745  0.8845 -0.8034  0.3600
  107MOL0     C14024   8.673   2.024   4.688  1.0628  0.8158  0.1233
  107MOL0     C14025   8.548   2.012   4.633 -0.3144  0.3161  0.0136
  107MOL0     C14026   8.482   1.888   4.627 -0.3416 -0.0457 -1.0623
  107MOL0     O14027   8.362   1.862   4.571  0.1777 -0.6577  0.0590
  107MOL0     C14028   8.266   1.830   4.675  0.2361  0.2576  0.8539
  107MOL0     C14029   8.127   1.820   4.612  0.4368  0.4071 -0.7077
  107MOL0     C14030   8.035   1.743   4.701  0.0629  0.3709 -0.2256
  107MOL0     C14031   7.886   1.760   4.675  0.2333 -0.2292  0.8307
  107MOL0     C14032   7.804   1.640   4.689 -0.0334  0.5576 -0.4030
  107MOL0     C14033   7.660   1.672   4.694 -0.5115  0.8724 -0.0936
  107MOL0     C14034   7.563   1.549   4.700 -0.2312  0.1607  0.3795
  107MOL0     C14035   7.419   1.591   4.697  0.7554 -0.7583  0.1866
  107MOL0    Cl14036   7.378   1.726   4.809 -0.1882 -0.0626  0.0703
  107MOL0     C14037   8.554   1.774   4.672  0.8941 -0.0669  0.6967
  107MOL0     C14038   8.676   1.785   4.739  0.4503 -0.3860 -0.6518
  107MOL0     O14039   8.945   1.727   4.795 -0.1187  0.1420 -0.1601
  107MOL0     C14040   9.091   2.001   4.970 -0.0364 -0.1299 -0.7676
  107MOL0     C14041   9.212   2.046   5.024 -0.0606  0.3622 -0.7411
  107MOL0     N14042   9.717   2.494   5.152  0.7398 -0.2682  0.1608
  107MOL0     N14043   9.747   2.556   5.048  0.0668 -0.3596 -0.3848
  107MOL0     C14044   9.267   3.108   4.115 -0.0028 -0.4823 -0.8903
  107MOL0     C14045   9.167   3.119   4.018 -0.2527  0.4101 -0.0048
  107MOL0     C14046   8.718   3.099   3.860  1.2440 -0.1901  0.0319
  107MOL0     C14047   8.739   3.220   3.787 -0.2222  1.1719  0.1735
  107MOL0     C14048   8.625   3.280   3.721  0.0096 -0.5823  0.1337
  107MOL0     C14049   8.499   3.228   3.724 -0.3718  0.6220  0.6018
  107MOL0     O14050   8.395   3.293   3.667  0.4097 -0.6333 -0.3185
  107MOL0     C14051   8.404   3.435   3.651  0.3827 -0.6328  0.2868
  107MOL0     C14052   8.267   3.473   3.610  0.6564 -0.3800  0.3420
  107MOL0     C14053   8.174   3.513   3.730  0.5386  1.0869  0.5213
  107MOL0     C14054   8.128   3.400   3.818 -0.2582 -0.4138  0.0293
  107MOL0     C14055   8.030   3.452   3.908  0.0284  0.0301  0.8528
  107MOL0     C14056   7.933   3.489   3.975  0.2679  0.9953 -0.1204
  107MOL0     C14057   8.474   3.105   3.781  0.3105 -0.2399  0.2616
  107MOL0     C14058   8.585   3.039   3.849  0.2932 -0.4792 -0.2495
  107MOL0     H14059   8.897   3.061   4.216 -0.6074  0.9056 -1.8141
  107MOL0     H14060   9.071   3.068   4.390 -0.0199 -0.3256  0.5134
  107MOL0     H14061   9.528   3.130   4.278 -1.1309  0.7110 -0.8043
  107MOL0     H14062   9.469   2.967   4.248 -1.0391 -1.8797  1.1000
  107MOL0     H14063   9.515   3.079   4.529  1.7180 -0.2145 -0.0269
  107MOL0     H14064   9.635   2.995   4.441 -0.1700  0.8475 -1.7285
  107MOL0     H14065   9.465   2.802   4.403 -1.3154  1.9143 -0.9198
  107MOL0     H14066   9.383   2.860   4.548  1.4095 -3.6187  0.6685
  107MOL0     H14067   9.686   2.806   4.547  1.2363 -0.4886  1.7440
  107MOL0     H14068   9.582   2.849   4.681 -2.3267  3.1703 -1.7110
  107MOL0     H14069   9.576   2.571   4.528  2.7287 -0.6379  0.1786
  107MOL0     H14070   9.456   2.643   4.641  0.5644 -0.3520 -0.7640
  107MOL0     H14071   9.599   2.521   4.794  1.9033 -2.3641 -3.1828
  107MOL0     H14072   9.661   2.690   4.806 -2.0123 -0.1108  0.6842
  107MOL0     H14073   9.765   2.441   4.657  2.2255 -1.0847  3.2541
  107MOL0     H14074   9.818   2.610   4.640 -0.3558  1.4313  1.7129
  107MOL0     H14075   9.900   2.627   4.842  1.0606 -0.9835  0.4616
  107MOL0     H14076   9.944   2.469   4.801  0.7483 -0.5191  0.2316
  107MOL0     H14077   9.868   2.273   4.966  1.6259  0.7089  0.0710
  107MOL0     H14078   9.771   2.311   5.343  0.0692 -1.5240  0.7148
  107MOL0     H14079   9.875   2.224   5.250 -0.5847 -0.7642 -2.0884
  107MOL0     H14080   9.675   2.079   5.310 -0.3154 -2.9581 -1.6037
  107MOL0     H14081   9.705   2.077   5.144 -0.0804 -1.2150 -0.1871
  107MOL0     H14082   9.499   2.283   5.239  0.2533  0.1988 -1.5916
  107MOL0     H14083   9.522   2.204   5.089 -0.8846 -2.1488 -1.1215
  107MOL0     H14084   9.332   2.129   5.231 -0.3741 -0.2312  0.6602
  107MOL0     H14085   9.442   2.036   5.316 -0.3188  3.8354  1.9021
  107MOL0     H14086   9.367   1.747   5.014 -1.7763 -1.6438  1.2799
  107MOL0     H14087   9.186   1.693   4.882 -0.4332  1.0339 -1.6486
  107MOL0     H14088   8.714   2.124   4.687  2.6333  0.3936  3.9562
  107MOL0     H14089   8.503   2.101   4.590 -1.2199 -0.7977 -1.4169
  107MOL0     H14090   8.272   1.902   4.758  1.1682 -0.7229  1.6639
  107MOL0     H14091   8.293   1.734   4.720 -2.3233 -0.6206  0.6979
  107MOL0     H14092   8.133   1.780   4.510 -0.0520 -0.1753 -0.5119
  107MOL0     H14093   8.096   1.924   4.595  2.1545  1.0729 -0.0327
  107MOL0     H14094   8.065   1.780   4.800 -1.4247 -2.1086  1.2465
  107MOL0     H14095   8.073   1.641   4.701  2.4010  1.1283  1.7227
  107MOL0     H14096   7.847   1.842   4.736 -0.2694  1.0525 -1.1166
  107MOL0     H14097   7.871   1.790   4.570 -1.0138  2.0411  1.5934
  107MOL0     H14098   7.838   1.614   4.790  0.7297  2.3925 -0.1472
  107MOL0     H14099   7.822   1.571   4.606 -0.9818 -0.5914  0.3144
  107MOL0     H14100   7.625   1.733   4.610  0.5030  3.6794  1.3789
  107MOL0     H14101   7.633   1.736   4.779 -1.7420 -0.0661  0.2590
  107MOL0     H14102   7.576   1.477   4.618  1.7140 -0.3937  1.1192
  107MOL0     H14103   7.572   1.494   4.794  2.1892  1.3862  0.9291
  107MOL0     H14104   7.345   1.514   4.721 -0.5578 -0.2000 -1.8208
  107MOL0     H14105   7.391   1.622   4.596  0.5741 -2.6407 -0.3833
  107MOL0     H14106   8.510   1.675   4.669  0.1152  0.2912 -0.3311
  107MOL0     H14107   8.714   1.697   4.790 -1.1958 -0.3943  0.6497
  107MOL0     H14108   9.004   2.067   4.967 -1.1914 -1.6127 -0.8467
  107MOL0     H14109   9.226   2.148   5.057 -1.2546  0.0301  0.9629
  107MOL0     H14110   9.372   3.106   4.085 -0.1109 -0.6092 -1.2656
  107MOL0     H14111   9.184   3.149   3.915  1.7714  1.2660  0.5167
  107MOL0     H14112   8.836   3.268   3.780  1.7240 -1.3949  4.7296
  107MOL0     H14113   8.655   3.371   3.670  2.3784 -0.6160  1.3186
  107MOL0     H14114   8.474   3.468   3.573  1.7705 -1.8630  0.9483
  107MOL0     H14115   8.442   3.475   3.746  1.5398 -0.5708 -0.1859
  107MOL0     H14116   8.282   3.563   3.550 -0.2108 -0.2374  0.3192
  107MOL0     H14117   8.233   3.389   3.548  4.6460 -4.3063  2.8263
  107MOL0     H14118   8.087   3.543   3.670  0.6879  1.5501  0.5380
  107MOL0     H14119   8.198   3.604   3.785 -1.7573  1.3436  1.2193
  107MOL0     H14120   8.081   3.325   3.754  3.7984 -0.9150 -2.7453
  107MOL0     H14121   8.218   3.361   3.867  1.0648  1.7696 -0.4906
  107MOL0     H14122   7.849   3.506   4.039  0.5486  1.0169  0.2482
  107MOL0     H14123   8.370   3.076   3.787 -0.0876  1.1722  0.5483
  107MOL0     H14124   8.573   2.951   3.912  2.4268 -0.5563  0.0949
  108MOL0     O14125   0.110   2.731   5.696  0.4228 -0.1701  0.6117
  108MOL0     C14126   0.108   2.741   5.574  0.4162  0.5238  0.3301
  108MOL0     O14127   0.221   2.744   5.493  0.0398 -0.1574 -0.0355
  108MOL0     C14128   0.339   2.732   5.547 -0.7399 -0.2596 -0.4164
  108MOL0     C14129   0.370   2.607   5.597 -0.1314  0.2550 -0.6568
  108MOL0     C14130   0.498   2.594   5.667  1.2870 -0.6653  0.6084
  108MOL0     C14131   0.584   2.705   5.672  1.0782 -0.1088 -0.6445
  108MOL0     O14132   0.700   2.696   5.737 -0.9216 -0.9591 -0.5121
  108MOL0     C14133   0.744   2.581   5.817  0.5229 -0.0832  0.3294
  108MOL0     C14134   0.797   2.471   5.716 -0.4717 -0.3577  0.0270
  108MOL0     C14135   0.829   2.335   5.783  0.4426  0.7534  0.0303
  108MOL0     C14136   0.955   2.271   5.740  0.7663 -0.5138  0.0610
  108MOL0     C14137   0.994   2.145   5.809 -0.9681  0.1800  0.3790
  108MOL0     C14138   1.105   2.066   5.729 -0.6980 -1.0697 -0.1684
  108MOL0     C14139   1.190   1.976   5.818 -0.4115 -0.0851 -1.2350
  108MOL0     C14140   1.116   1.841   5.846 -0.1033 -0.6760 -0.2415
  108MOL0     N14141   1.011   1.846   5.943 -0.5124 -0.1625  0.0316
  108MOL0     C14142   0.874   1.855   5.912 -0.6623 -0.1013 -0.2154
  108MOL0     C14143   0.816   1.904   6.025 -0.6299  0.3310 -0.2754
  108MOL0     C14144   0.670   1.920   6.055  0.7848 -0.4865 -1.2504
  108MOL0     C14145   0.635   2.065   6.068 -1.0632  0.2081  0.3675
  108MOL0     C14146   0.505   2.086   6.141 -0.0048 -0.2689 -0.7400
  108MOL0     C14147   0.468   2.230   6.169 -0.4041 -0.0911 -0.4533
  108MOL0     O14148   0.441   2.313   6.052 -0.8877  0.4958  0.0783
  108MOL0     C14149   0.302   2.329   6.035 -0.1497  0.3761  1.0986
  108MOL0     C14150   0.196   2.258   6.091  0.7378  0.2097  0.2333
  108MOL0     C14151   0.064   2.289   6.058  0.2585  0.1143  0.2615
  108MOL0     C14152   0.042   2.384   5.958  0.0480  0.1084 -0.7721
  108MOL0     C14153  -0.093   2.432   5.917  0.3621  0.2881 -0.1540
  108MOL0     O14154  -0.196   2.403   5.995  0.7379 -0.3963  0.8003
  108MOL0     C14155  -0.325   2.431   5.960 -0.4047 -0.7990 -0.2909
  108MOL0     C14156  -0.380   2.561   5.979  0.7261 -0.2558 -0.4458
  108MOL0     C14157  -0.515   2.585   5.953 -0.1590 -0.6157 -0.4178
  108MOL0     C14158  -0.604   2.492   5.902 -0.5510 -0.5787 -0.5204
  108MOL0     O14159  -0.733   2.534   5.869 -0.3398  0.0069 -0.2296
  108MOL0     C14160  -0.818   2.436   5.805 -1.0713  0.2558  0.5771
  108MOL0     C14161  -0.949   2.493   5.760 -0.0368 -0.0026  0.8518
  108MOL0     C14162  -1.062   2.381   5.749 -0.8652 -0.2771  0.0523
  108MOL0     C14163  -1.194   2.443   5.702 -0.1001  0.2949  0.7891
  108MOL0     C14164  -1.207   2.479   5.556  0.6200 -0.7620  0.3577
  108MOL0     C14165  -1.147   2.386   5.444 -0.2151  0.0714  1.0165
  108MOL0     C14166  -1.224   2.393   5.301 -0.1681  0.2956 -0.5280
  108MOL0     C14167  -1.135   2.325   5.194 -0.3761  0.2513 -0.0832
  108MOL0    Cl14168  -1.238   2.308   5.055 -0.3219  0.1255  0.2418
  108MOL0     C14169  -0.543   2.366   5.881 -0.0080 -0.8904  0.8471
  108MOL0     C14170  -0.406   2.339   5.907 -0.3375  1.0910 -1.0498
  108MOL0     O14171  -0.106   2.493   5.810  0.8511  0.2198 -0.1552
  108MOL0     C14172   0.149   2.452   5.900  0.3440 -0.0562 -0.2249
  108MOL0     C14173   0.278   2.428   5.945  1.0241 -0.4548  0.5619
  108MOL0     N14174   0.921   1.925   6.112 -0.6474 -0.0497 -1.1570
  108MOL0     N14175   1.039   1.902   6.062  0.6512  0.0133 -0.3365
  108MOL0     C14176   0.544   2.827   5.627  0.9276  0.3812 -0.7208
  108MOL0     C14177   0.417   2.847   5.565  0.2984 -0.2233 -0.2063
  108MOL0     C14178  -0.023   2.762   5.503  0.1151  0.6486  0.3344
  108MOL0     C14179  -0.024   2.812   5.378  0.1471  0.1288  0.3075
  108MOL0     C14180  -0.145   2.837   5.309 -0.2748 -0.2775 -0.5884
  108MOL0     C14181  -0.265   2.786   5.358  0.1138  1.0356 -0.4759
  108MOL0     O14182  -0.381   2.782   5.286 -0.1671 -0.3458 -0.5349
  108MOL0     C14183  -0.382   2.856   5.160  0.4632  0.2689  0.6677
  108MOL0     C14184  -0.518   2.833   5.099 -0.1865  0.5212 -1.0882
  108MOL0     C14185  -0.615   2.929   5.161 -0.3711 -0.0574  0.5504
  108MOL0     C14186  -0.756   2.913   5.116  0.2335  0.5971 -0.8341
  108MOL0     C14187  -0.750   2.949   4.968 -0.0020  0.6432  0.0027
  108MOL0     C14188  -0.751   2.995   4.858 -0.7998 -0.2532 -0.5446
  108MOL0     C14189  -0.269   2.728   5.488  0.7993 -1.4216  0.4249
  108MOL0     C14190  -0.143   2.715   5.557  1.3679  1.1580  0.0129
  108MOL0     H14191   0.317   2.515   5.577 -0.3690  0.1485  0.3819
  108MOL0     H14192   0.510   2.491   5.700 -0.5144 -1.3437 -0.6666
  108MOL0     H14193   0.673   2.530   5.882  3.6740 -2.1426  2.4549
  108MOL0     H14194   0.830   2.617   5.875  1.4899 -1.4673 -0.1957
  108MOL0     H14195   0.882   2.514   5.661 -0.8294 -0.5926 -0.7307
  108MOL0     H14196   0.723   2.454   5.638  0.3399  0.1440 -0.8780
  108MOL0     H14197   0.749   2.265   5.756  0.6386 -0.7113  2.9097
  108MOL0     H14198   0.825   2.336   5.892  3.0404  0.5099  0.1928
  108MOL0     H14199   0.937   2.248   5.634  0.6379  0.0417 -0.0461
  108MOL0     H14200   1.033   2.343   5.766 -0.9780  0.7529  2.1356
  108MOL0     H14201   0.905   2.081   5.813 -0.3781 -0.6107  1.9616
  108MOL0     H14202   1.032   2.169   5.909 -1.8962  1.5575  0.4179
  108MOL0     H14203   1.172   2.142   5.690 -0.4896 -0.9372  0.4465
  108MOL0     H14204   1.056   2.023   5.640 -1.2315  0.9501 -0.9037
  108MOL0     H14205   1.278   1.943   5.764 -0.0552  0.0229 -0.7278
  108MOL0     H14206   1.209   2.028   5.913 -2.1405 -0.4141 -0.6610
  108MOL0     H14207   1.187   1.778   5.901 -3.4392 -4.0692  0.6959
  108MOL0     H14208   1.088   1.788   5.754 -4.6584 -0.7461  0.9305
  108MOL0     H14209   0.824   1.832   5.819  2.7816 -1.0650 -2.0128
  108MOL0     H14210   0.644   1.859   6.142 -1.0765 -2.1898 -2.8993
  108MOL0     H14211   0.605   1.882   5.976 -1.2708 -1.2843  0.6957
  108MOL0     H14212   0.636   2.101   5.965  2.1458  0.9001  0.5252
  108MOL0     H14213   0.708   2.117   6.131 -3.5177 -0.4341  4.0386
  108MOL0     H14214   0.428   2.049   6.074 -1.4594  0.7024  0.3148
  108MOL0     H14215   0.516   2.034   6.237  1.2181  0.8895 -0.2011
  108MOL0     H14216   0.554   2.273   6.222 -2.5430  1.5600  1.9493
  108MOL0     H14217   0.390   2.242   6.246  1.0052  0.2115  0.9747
  108MOL0     H14218   0.213   2.193   6.176  0.6703  1.5093  1.2748
  108MOL0     H14219  -0.023   2.242   6.104 -2.2200  2.1317 -2.0068
  108MOL0     H14220  -0.312   2.633   6.023  0.7460 -1.6309  1.9850
  108MOL0     H14221  -0.532   2.689   5.979  0.4168 -1.0210  1.7179
  108MOL0     H14222  -0.830   2.357   5.880 -0.8843 -1.3817 -1.0692
  108MOL0     H14223  -0.756   2.393   5.727 -1.6373 -1.1277  0.8604
  108MOL0     H14224  -0.938   2.537   5.661  0.1803 -0.8459  0.4876
  108MOL0     H14225  -0.983   2.573   5.827  0.2335  2.0213 -1.3017
  108MOL0     H14226  -1.073   2.335   5.847  2.5540  1.3980  1.3999
  108MOL0     H14227  -1.020   2.305   5.683  2.0205  1.3692 -0.1419
  108MOL0     H14228  -1.271   2.372   5.735 -2.6012  2.9939  1.1735
  108MOL0     H14229  -1.207   2.533   5.762 -0.6958  1.5552 -1.1319
  108MOL0     H14230  -1.159   2.576   5.535 -0.1865 -0.6022 -0.9060
  108MOL0     H14231  -1.314   2.493   5.540  1.0381 -0.0427 -2.5521
  108MOL0     H14232  -1.151   2.282   5.480 -2.3904 -0.3465 -0.2249
  108MOL0     H14233  -1.042   2.410   5.427 -0.4686 -0.0343 -0.9251
  108MOL0     H14234  -1.323   2.348   5.315 -0.3265  0.8929  0.3297
  108MOL0     H14235  -1.227   2.499   5.277 -0.1088  1.0576  2.4430
  108MOL0     H14236  -1.110   2.229   5.239  1.9829  0.9369  0.2078
  108MOL0     H14237  -1.042   2.378   5.170  2.3166 -3.6278  0.7533
  108MOL0     H14238  -0.596   2.283   5.834  0.1981  0.1028 -1.2573
  108MOL0     H14239  -0.370   2.237   5.908 -0.5270  1.0206  0.4164
  108MOL0     H14240   0.125   2.533   5.832  0.6164 -0.5979 -0.9694
  108MOL0     H14241   0.367   2.466   5.895  2.0385 -3.7176 -0.3933
  108MOL0     H14242   0.604   2.916   5.648  0.9589 -0.0054  1.0231
  108MOL0     H14243   0.373   2.939   5.529  1.2236 -0.3538 -1.7854
  108MOL0     H14244   0.066   2.839   5.324  0.1451 -1.4772 -0.5638
  108MOL0     H14245  -0.132   2.887   5.214 -0.6993  2.1000  0.5457
  108MOL0     H14246  -0.309   2.801   5.100 -0.4355 -2.3643  1.8077
  108MOL0     H14247  -0.354   2.960   5.174 -0.9089  0.4546  2.4762
  108MOL0     H14248  -0.515   2.854   4.992 -1.3372  0.3208 -1.1786
  108MOL0     H14249  -0.546   2.731   5.128  2.9309  0.4747  2.4163
  108MOL0     H14250  -0.587   3.031   5.132  0.0510 -0.7236 -1.5651
  108MOL0     H14251  -0.598   2.928   5.269 -0.1677 -1.6407  0.5160
  108MOL0     H14252  -0.801   2.816   5.136 -1.4988  1.5756  0.2808
  108MOL0     H14253  -0.823   2.987   5.159 -0.5243  0.5396 -1.8790
  108MOL0     H14254  -0.764   3.026   4.756  2.5583  1.8437 -0.4936
  108MOL0     H14255  -0.356   2.692   5.541 -0.7432 -0.2159 -1.1549
  108MOL0     H14256  -0.132   2.664   5.652 -0.6446 -0.5312 -0.5646
  109MOL0     O14257   6.630   5.182   0.079 -0.0094 -1.0608  0.1468
  109MOL0     C14258   6.564   5.091   0.038 -0.3954 -0.6182 -1.2535
  109MOL0     O14259   6.580   4.965   0.082 -0.5069  0.3505 -0.1999
  109MOL0     C14260   6.686   4.947   0.179 -1.4309 -0.4478 -0.4155
  109MOL0     C14261   6.801   4.877   0.142 -0.0226  0.2241 -1.0731
  109MOL0     C14262   6.899   4.847   0.243  0.6170  0.5155 -0.5918
  109MOL0     C14263   6.865   4.878   0.375 -0.0408  0.4177  0.1964
  109MOL0     O14264   6.955   4.851   0.475 -0.1947  0.1367  0.5960
  109MOL0     C14265   7.051   4.745   0.468  0.7695  0.4583 -0.4941
  109MOL0     C14266   7.179   4.818   0.428 -0.7059 -0.9384  0.2924
  109MOL0     C14267   7.227   4.908   0.545 -0.1004 -1.6332  0.0124
  109MOL0     C14268   7.368   4.964   0.518 -0.1631 -0.8165 -0.6060
  109MOL0     C14269   7.434   5.015   0.648  0.1399 -0.3773  0.3631
  109MOL0     C14270   7.584   5.054   0.636  0.4621  0.0288 -0.0469
  109MOL0     C14271   7.649   5.089   0.765  0.2039 -0.6710 -0.0389
  109MOL0     C14272   7.685   4.969   0.848 -0.0799  0.0768 -0.5497
  109MOL0     N14273   7.711   4.998   0.990  0.6109  0.1574 -0.4512
  109MOL0     C14274   7.637   5.083   1.072  0.1958  0.2986 -0.4517
  109MOL0     C14275   7.707   5.101   1.185  0.4840  1.0403 -0.3726
  109MOL0     C14276   7.659   5.185   1.304 -0.1355 -0.2007  0.5994
  109MOL0     C14277   7.511   5.223   1.288 -0.7045 -0.7157  0.2578
  109MOL0     C14278   7.419   5.101   1.310 -0.2731 -0.8828  0.2924
  109MOL0     C14279   7.278   5.134   1.281  1.5723 -0.6514  0.3787
  109MOL0     O14280   7.253   5.130   1.131  0.5621 -0.2631  0.6842
  109MOL0     C14281   7.138   5.159   1.064  1.0728 -0.3624 -0.6060
  109MOL0     C14282   7.152   5.139   0.929 -0.1977 -1.1669  0.1116
  109MOL0     C14283   7.043   5.153   0.844  0.0050  0.1946  0.5265
  109MOL0     C14284   6.921   5.187   0.897 -0.5926 -0.2407  0.2274
  109MOL0     C14285   6.817   5.190   0.798  0.1049  0.3155  0.8210
  109MOL0     O14286   6.694   5.197   0.844  0.3694  0.4433 -0.6040
  109MOL0     C14287   6.595   5.229   0.753  0.8326 -0.2941  0.7262
  109MOL0     C14288   6.483   5.157   0.759  0.2474 -0.3830 -0.9189
  109MOL0     C14289   6.368   5.187   0.679  0.1760  0.1151  0.5167
  109MOL0     C14290   6.382   5.281   0.572 -0.4186  0.2265  0.1517
  109MOL0     O14291   6.275   5.283   0.478 -0.0094 -0.0672 -0.4811
  109MOL0     C14292   6.272   5.361   0.361  0.0417  0.0985  0.6328
  109MOL0     C14293   6.152   5.327   0.272 -0.2768  0.6267 -0.4418
  109MOL0     C14294   6.171   5.200   0.189 -0.3166 -0.1236 -0.2112
  109MOL0     C14295   6.080   5.196   0.065  0.8532  0.0312 -1.5495
  109MOL0     C14296   6.104   5.059  -0.013  0.7381  0.1563 -1.3184
  109MOL0     C14297   5.982   5.030  -0.101  0.3545  0.1445  0.3578
  109MOL0     C14298   5.944   5.148  -0.189 -0.4363 -0.1338  0.1694
  109MOL0     C14299   5.858   5.097  -0.300 -0.0003 -0.1306  0.1361
  109MOL0    Cl14300   5.772   5.251  -0.364 -0.6340 -0.1871  0.0884
  109MOL0     C14301   6.500   5.355   0.567 -0.1446  0.0302 -0.3554
  109MOL0     C14302   6.602   5.326   0.656 -0.1142 -0.7200  0.7363
  109MOL0     O14303   6.842   5.165   0.680 -0.2055 -0.1782 -0.5498
  109MOL0     C14304   6.900   5.210   1.035  0.6937  0.9181  0.2162
  109MOL0     C14305   7.011   5.195   1.119  0.4434 -0.2667 -1.0330
  109MOL0     N14306   7.814   5.022   1.183  0.2227  0.1803  0.0724
  109MOL0     N14307   7.809   4.953   1.072 -0.9276 -1.2832  0.4430
  109MOL0     C14308   6.759   4.958   0.410 -0.1438  0.2942  1.0218
  109MOL0     C14309   6.668   4.991   0.315  0.0853  0.4971  0.1689
  109MOL0     C14310   6.479   5.124  -0.072  0.3652 -1.5000  0.0209
  109MOL0     C14311   6.437   5.023  -0.154 -0.0498  0.0106  0.6220
  109MOL0     C14312   6.355   5.055  -0.266  0.1034  0.0122 -0.5526
  109MOL0     C14313   6.311   5.187  -0.286 -0.5667  0.3817  0.5475
  109MOL0     O14314   6.229   5.231  -0.388 -0.7457  0.2503  0.2284
  109MOL0     C14315   6.199   5.143  -0.495 -0.3349  0.5197  0.8659
  109MOL0     C14316   6.102   5.209  -0.591  0.4752  0.5662 -0.6087
  109MOL0     C14317   6.140   5.342  -0.661  0.1045  0.3527 -0.4014
  109MOL0     C14318   6.277   5.346  -0.732  0.1849  0.5057  0.1655
  109MOL0     C14319   6.288   5.242  -0.828  0.9855  0.2144 -0.1649
  109MOL0     C14320   6.285   5.145  -0.898 -0.6582 -0.3789  0.6651
  109MOL0     C14321   6.357   5.287  -0.202 -0.0515  0.0483  0.1910
  109MOL0     C14322   6.442   5.256  -0.095 -0.1920 -0.3975  0.2621
  109MOL0     H14323   6.813   4.846   0.039 -0.2266 -2.5824 -0.3599
  109MOL0     H14324   6.987   4.793   0.211  1.2562  1.1877 -0.0008
  109MOL0     H14325   7.045   4.658   0.403  2.7933 -0.3921  0.3731
  109MOL0     H14326   7.073   4.703   0.566  1.9414 -0.2676 -1.0582
  109MOL0     H14327   7.147   4.886   0.349  0.1543 -0.0692  0.6639
  109MOL0     H14328   7.257   4.748   0.396  0.7666  0.4089  0.7848
  109MOL0     H14329   7.224   4.859   0.643  0.5982 -2.3118 -0.2942
  109MOL0     H14330   7.157   4.991   0.554  1.3545 -0.5151  1.5255
  109MOL0     H14331   7.440   4.896   0.473  2.4356  0.3176  1.5866
  109MOL0     H14332   7.358   5.045   0.445 -3.6555  0.5443  1.1358
  109MOL0     H14333   7.416   4.929   0.712 -2.7851 -1.6291 -1.9067
  109MOL0     H14334   7.367   5.092   0.688  0.8345  1.2941 -1.4914
  109MOL0     H14335   7.585   5.137   0.565 -0.0902 -1.0750 -1.4058
  109MOL0     H14336   7.631   4.963   0.598  1.3902 -0.0636  1.2740
  109MOL0     H14337   7.726   5.165   0.752 -0.9624  0.5934  0.2350
  109MOL0     H14338   7.575   5.146   0.823  0.8829  0.3989 -0.2018
  109MOL0     H14339   7.772   4.911   0.816 -1.7441 -2.7455 -0.2109
  109MOL0     H14340   7.605   4.895   0.847  0.5450 -0.6542  0.8513
  109MOL0     H14341   7.555   5.147   1.041  1.1521  3.0130  2.1025
  109MOL0     H14342   7.704   5.285   1.307 -2.8207  1.0947  0.7470
  109MOL0     H14343   7.664   5.124   1.395 -2.4355 -0.9793  0.2775
  109MOL0     H14344   7.486   5.280   1.197 -1.4483 -1.9252 -0.3191
  109MOL0     H14345   7.488   5.297   1.365 -2.1806  0.6301 -1.3917
  109MOL0     H14346   7.448   5.012   1.254  1.2247 -0.9905  1.1889
  109MOL0     H14347   7.432   5.074   1.415  2.9513  1.5686  0.6630
  109MOL0     H14348   7.250   5.226   1.333 -0.4639 -0.4458 -0.9437
  109MOL0     H14349   7.204   5.068   1.328 -1.1444  1.0946 -1.1661
  109MOL0     H14350   7.251   5.112   0.894  0.8808  2.4153 -0.0247
  109MOL0     H14351   7.065   5.142   0.738  0.5714 -0.2584  0.6851
  109MOL0     H14352   6.487   5.081   0.836 -0.6207  0.6783  0.2145
  109MOL0     H14353   6.275   5.132   0.690 -1.0557  2.2393  1.1931
  109MOL0     H14354   6.362   5.361   0.299 -0.6860  3.0662 -0.5948
  109MOL0     H14355   6.260   5.467   0.385  1.7534  0.5725 -0.4101
  109MOL0     H14356   6.143   5.404   0.194 -1.1757  0.7162 -0.2626
  109MOL0     H14357   6.060   5.323   0.331 -0.7629 -2.4748 -1.2315
  109MOL0     H14358   6.160   5.117   0.260  2.8660  0.0348  0.6256
  109MOL0     H14359   6.276   5.189   0.162  0.9498  2.1158  3.1022
  109MOL0     H14360   5.981   5.199   0.111  1.4667 -0.0779 -0.1769
  109MOL0     H14361   6.097   5.288   0.008  2.2059  0.4665 -0.5061
  109MOL0     H14362   6.105   4.975   0.057 -0.4882  2.1641  1.2496
  109MOL0     H14363   6.198   5.058  -0.070  0.6072 -3.6312 -1.7469
  109MOL0     H14364   5.892   5.006  -0.044 -0.3701  1.4139 -0.2099
  109MOL0     H14365   6.007   4.939  -0.157 -0.6400 -0.1656  0.3851
  109MOL0     H14366   5.881   5.230  -0.151 -0.3023  0.4277 -0.7866
  109MOL0     H14367   6.034   5.193  -0.232  0.4570 -2.9449 -1.1238
  109MOL0     H14368   5.782   5.032  -0.254 -1.1605  1.5057  0.6230
  109MOL0     H14369   5.921   5.040  -0.369  0.5410 -0.2697  0.7390
  109MOL0     H14370   6.505   5.432   0.490 -1.0502 -1.6092 -2.1332
  109MOL0     H14371   6.699   5.376   0.656 -0.9404  1.1415  3.2273
  109MOL0     H14372   6.806   5.240   1.080  0.0620  0.5647 -0.8333
  109MOL0     H14373   7.007   5.197   1.227 -1.4087  0.7129 -1.0853
  109MOL0     H14374   6.750   4.987   0.514  0.0004  0.5919  0.9546
  109MOL0     H14375   6.585   5.047   0.355  2.6467  2.6664  2.9320
  109MOL0     H14376   6.477   4.922  -0.146  0.3562  0.0363 -0.8701
  109MOL0     H14377   6.318   4.978  -0.333  1.0622 -0.3188 -0.7148
  109MOL0     H14378   6.161   5.043  -0.469 -1.8049  1.0109  0.6995
  109MOL0     H14379   6.288   5.115  -0.552  1.4600  2.2992  2.6468
  109MOL0     H14380   6.089   5.142  -0.676  1.6699  1.6952 -1.7503
  109MOL0     H14381   6.006   5.231  -0.543  1.9228  3.3084  1.3340
  109MOL0     H14382   6.134   5.418  -0.582  0.0499 -2.3381  2.3639
  109MOL0     H14383   6.058   5.357  -0.732 -2.2307 -3.2483  1.2874
  109MOL0     H14384   6.304   5.439  -0.784  0.1691  1.2552  1.4629
  109MOL0     H14385   6.350   5.343  -0.651  1.2692  1.2384 -0.7481
  109MOL0     H14386   6.273   5.068  -0.971 -1.2957  1.4920 -1.3128
  109MOL0     H14387   6.327   5.390  -0.213 -1.1190  0.1187  2.8620
  109MOL0     H14388   6.478   5.344  -0.043  0.3145 -0.0683 -0.6253
  110MOL0     O14389   4.462   5.713   2.404  0.6152  0.7110 -0.2098
  110MOL0     C14390   4.492   5.827   2.431  0.2311  0.5882  0.6822
  110MOL0     O14391   4.496   5.878   2.560  0.1596 -0.5517  0.1614
  110MOL0     C14392   4.451   5.821   2.680  0.0389 -0.1649  0.4622
  110MOL0     C14393   4.444   5.915   2.788 -0.7661 -0.0532  0.1985
  110MOL0     C14394   4.409   5.871   2.909  0.3631 -0.5437  0.5233
  110MOL0     C14395   4.374   5.737   2.928  0.2355 -0.8048 -0.2636
  110MOL0     O14396   4.343   5.707   3.061  0.4016 -0.0813  0.3594
  110MOL0     C14397   4.435   5.618   3.126 -0.1420 -0.2537 -0.1740
  110MOL0     C14398   4.568   5.688   3.173  0.2792  0.7294  0.5090
  110MOL0     C14399   4.545   5.815   3.254  0.1173  0.2906 -1.3387
  110MOL0     C14400   4.484   5.780   3.393  0.2673 -0.6630  0.0335
  110MOL0     C14401   4.474   5.894   3.492  0.1441  0.0603  0.8554
  110MOL0     C14402   4.516   5.868   3.634 -0.4675 -0.0950 -0.5265
  110MOL0     C14403   4.667   5.828   3.617 -0.8344 -1.1377 -0.7832
  110MOL0     C14404   4.744   5.868   3.740 -0.0698  0.7753 -0.1999
  110MOL0     N14405   4.885   5.818   3.738  0.2394  0.3127  0.8594
  110MOL0     C14406   4.963   5.814   3.621 -0.3620 -0.1883  0.1249
  110MOL0     C14407   5.087   5.787   3.665  0.1800  0.0853 -0.9052
  110MOL0     C14408   5.205   5.731   3.577  0.5116  0.0341 -1.0209
  110MOL0     C14409   5.275   5.842   3.498 -0.1062 -1.2586 -0.3476
  110MOL0     C14410   5.378   5.937   3.569  1.8520 -0.3073  0.3863
  110MOL0     C14411   5.451   6.041   3.484  0.7427 -0.1189 -0.5414
  110MOL0     O14412   5.567   6.071   3.553 -0.5246 -0.2560 -0.3496
  110MOL0     C14413   5.580   6.170   3.648  0.3459  0.2215 -0.9675
  110MOL0     C14414   5.702   6.178   3.711  0.0232 -0.3512  0.4559
  110MOL0     C14415   5.711   6.261   3.822  0.1812  0.0233  1.0036
  110MOL0     C14416   5.600   6.339   3.877  0.2910 -0.4488 -0.6610
  110MOL0     C14417   5.618   6.414   3.998 -0.1343  0.8397 -0.1221
  110MOL0     O14418   5.731   6.393   4.068  1.3624 -0.1646 -0.3514
  110MOL0     C14419   5.733   6.418   4.201 -0.4632  0.0978 -0.3066
  110MOL0     C14420   5.631   6.449   4.289  0.1724 -0.0633 -0.5017
  110MOL0     C14421   5.653   6.462   4.424 -0.3763  0.7466  0.8082
  110MOL0     C14422   5.781   6.449   4.483 -0.2992  0.5306  1.0994
  110MOL0     O14423   5.812   6.469   4.619  0.3017  0.0733  0.4063
  110MOL0     C14424   5.702   6.474   4.719  0.2411 -0.8256  0.5862
  110MOL0     C14425   5.771   6.458   4.850  0.3339  0.3476 -0.7517
  110MOL0     C14426   5.676   6.402   4.962  0.3843  0.0131 -0.1515
  110MOL0     C14427   5.555   6.492   4.994 -0.1871 -0.1640 -1.0517
  110MOL0     C14428   5.503   6.500   5.135  0.7439 -0.3630  0.7536
  110MOL0     C14429   5.477   6.361   5.179  0.3958 -0.7347 -0.9146
  110MOL0     C14430   5.402   6.361   5.307  0.2770  0.2695 -0.8789
  110MOL0     C14431   5.380   6.228   5.367  0.7043  1.2666  0.5534
  110MOL0    Cl14432   5.276   6.122   5.260 -0.2827 -0.0174 -0.2240
  110MOL0     C14433   5.883   6.413   4.391 -0.4693  0.0068 -0.7527
  110MOL0     C14434   5.863   6.406   4.254 -0.0087 -0.1590 -0.5624
  110MOL0     O14435   5.546   6.502   4.022  1.2038  0.6531 -0.8230
  110MOL0     C14436   5.478   6.329   3.813 -0.3767 -0.1304 -0.3933
  110MOL0     C14437   5.473   6.253   3.693  1.0962  0.0827 -0.9277
  110MOL0     N14438   5.088   5.772   3.806 -0.7073  0.4712 -0.0044
  110MOL0     N14439   4.975   5.819   3.848  0.8481  0.0163  0.4770
  110MOL0     C14440   4.381   5.638   2.825 -0.5682  0.5294  0.4049
  110MOL0     C14441   4.429   5.681   2.702  0.3046 -0.0295  0.3777
  110MOL0     C14442   4.526   5.912   2.323  1.0366 -0.5093  0.4324
  110MOL0     C14443   4.545   6.056   2.334 -0.5043  0.9605  0.2581
  110MOL0     C14444   4.551   6.132   2.211  0.0502 -0.1802 -0.5667
  110MOL0     C14445   4.552   6.074   2.085 -0.0800 -0.0019  0.1116
  110MOL0     O14446   4.560   6.165   1.978  0.7413  0.3061  0.2668
  110MOL0     C14447   4.553   6.103   1.844 -1.1829  0.6590 -0.6851
  110MOL0     C14448   4.700   6.050   1.807 -0.1398  0.3928  0.3287
  110MOL0     C14449   4.692   6.029   1.650 -0.1541 -0.4155  0.4848
  110MOL0     C14450   4.820   6.058   1.571  0.2006 -0.5186  0.3755
  110MOL0     C14451   4.929   5.975   1.620  0.1246  1.4686 -0.2029
  110MOL0     C14452   5.017   5.907   1.661  0.0547 -0.9322 -0.7554
  110MOL0     C14453   4.535   5.937   2.080  0.0025  0.1989  0.1476
  110MOL0     C14454   4.523   5.855   2.197 -0.5258 -0.5483 -0.3653
  110MOL0     H14455   4.475   6.018   2.773 -1.8798 -0.0357 -2.4936
  110MOL0     H14456   4.395   5.941   2.991 -2.6125  1.5889 -1.5928
  110MOL0     H14457   4.457   5.535   3.058 -0.3529  0.6954 -1.4501
  110MOL0     H14458   4.381   5.569   3.207  0.7729 -1.7428 -0.4246
  110MOL0     H14459   4.614   5.713   3.077 -0.0429 -1.9401 -0.4308
  110MOL0     H14460   4.634   5.619   3.226 -0.8405 -2.8414 -2.2668
  110MOL0     H14461   4.487   5.892   3.203 -0.6224 -0.6527 -1.9561
  110MOL0     H14462   4.645   5.856   3.271  1.0984 -2.2321 -0.5438
  110MOL0     H14463   4.379   5.755   3.378  0.0400  0.4599 -0.3858
  110MOL0     H14464   4.540   5.699   3.440  1.4231  0.6764  1.0336
  110MOL0     H14465   4.373   5.936   3.491  0.2558  0.6910  4.2916
  110MOL0     H14466   4.534   5.983   3.468 -0.6337  0.4462  0.3006
  110MOL0     H14467   4.451   5.793   3.679 -3.9160  1.6016 -2.2546
  110MOL0     H14468   4.507   5.959   3.695  0.1529 -0.8476  0.7110
  110MOL0     H14469   4.669   5.719   3.605  0.0416 -1.2083 -0.0480
  110MOL0     H14470   4.710   5.873   3.527  2.9385  0.5615  1.6027
  110MOL0     H14471   4.695   5.820   3.825 -0.7703 -1.1606 -1.6328
  110MOL0     H14472   4.746   5.977   3.752 -0.2261  0.8795 -1.0807
  110MOL0     H14473   4.922   5.803   3.521 -0.6394 -0.1432  0.2326
  110MOL0     H14474   5.151   5.670   3.504 -1.3600  0.5347 -0.0915
  110MOL0     H14475   5.275   5.670   3.635 -0.7170 -0.9147 -0.4909
  110MOL0     H14476   5.201   5.915   3.463  1.2855  1.3041  1.6898
  110MOL0     H14477   5.315   5.800   3.405 -0.3255 -2.5993  0.1496
  110MOL0     H14478   5.325   5.984   3.652  0.4735 -0.2048 -0.5252
  110MOL0     H14479   5.448   5.868   3.618  1.6938  0.5883  1.9141
  110MOL0     H14480   5.391   6.130   3.462  1.0504  0.1720 -0.2144
  110MOL0     H14481   5.474   5.997   3.386  1.0834 -0.7204 -0.1934
  110MOL0     H14482   5.793   6.127   3.683 -1.9432 -3.4862 -0.7435
  110MOL0     H14483   5.808   6.259   3.871  1.1092 -2.8221 -0.7308
  110MOL0     H14484   5.530   6.467   4.253 -0.1559 -2.5934 -1.0501
  110MOL0     H14485   5.577   6.496   4.493  0.5975  0.2408  2.1954
  110MOL0     H14486   5.635   6.390   4.703  1.2840 -1.8289  1.3404
  110MOL0     H14487   5.642   6.565   4.730  0.7761 -0.6762  2.5840
  110MOL0     H14488   5.821   6.549   4.885 -0.1020  0.1792  0.3701
  110MOL0     H14489   5.852   6.385   4.841 -0.3738 -0.5638  0.0640
  110MOL0     H14490   5.734   6.400   5.055 -0.5388  0.8164  0.4684
  110MOL0     H14491   5.638   6.303   4.937  0.4166  0.3814 -1.7485
  110MOL0     H14492   5.564   6.595   4.958 -1.5821 -0.5891 -2.7938
  110MOL0     H14493   5.475   6.443   4.937 -1.4583 -0.8273  1.1673
  110MOL0     H14494   5.406   6.550   5.122 -0.9640 -3.7696 -0.8559
  110MOL0     H14495   5.571   6.556   5.199  0.9728 -0.4265  0.5663
  110MOL0     H14496   5.574   6.314   5.199 -0.5922 -1.3389  3.5705
  110MOL0     H14497   5.419   6.312   5.101  0.0389  0.5549 -1.4800
  110MOL0     H14498   5.459   6.411   5.386  1.4122  0.1638 -1.6147
  110MOL0     H14499   5.312   6.420   5.287  0.6013  0.1761 -2.7098
  110MOL0     H14500   5.332   6.238   5.465  0.8304 -0.9483  0.8781
  110MOL0     H14501   5.473   6.171   5.372 -1.1572 -2.0245  0.1442
  110MOL0     H14502   5.985   6.410   4.428 -0.7167  0.4694 -0.0113
  110MOL0     H14503   5.946   6.377   4.190  0.4310 -2.6885  0.9933
  110MOL0     H14504   5.388   6.379   3.847 -0.7214 -1.1604  0.2507
  110MOL0     H14505   5.375   6.254   3.648 -1.0836 -0.9453  3.2765
  110MOL0     H14506   4.363   5.536   2.855 -5.2964  0.3258 -2.2083
  110MOL0     H14507   4.432   5.608   2.621  0.0805  0.7524 -0.3455
  110MOL0     H14508   4.559   6.103   2.431  0.4484  2.1930 -0.4448
  110MOL0     H14509   4.571   6.239   2.214 -0.7928 -0.0357  0.6136
  110MOL0     H14510   4.535   6.184   1.772  3.2607  1.1141 -1.6189
  110MOL0     H14511   4.469   6.035   1.835 -2.1064  1.3769  1.9067
  110MOL0     H14512   4.780   6.122   1.827  3.6392 -3.3850  0.4417
  110MOL0     H14513   4.736   5.960   1.859 -0.2013  1.4240  2.2336
  110MOL0     H14514   4.615   6.097   1.611 -0.5216 -0.4389  1.1494
  110MOL0     H14515   4.668   5.924   1.629  2.6012 -0.7367 -1.5599
  110MOL0     H14516   4.788   6.043   1.468  1.5151 -0.2680 -0.0943
  110MOL0     H14517   4.841   6.165   1.565  1.9165 -0.8272  0.4116
  110MOL0     H14518   5.101   5.855   1.702  0.1926 -1.3632 -1.5639
  110MOL0     H14519   4.530   5.885   1.984  1.2758 -0.9617  0.6843
  110MOL0     H14520   4.487   5.754   2.183  1.3686 -1.7169  2.4653
  111MOL0     O14521  11.266   7.726   4.115 -0.0166  0.2484  0.2369
  111MOL0     C14522  11.234   7.610   4.129  0.2841  0.2707  0.8545
  111MOL0     O14523  11.307   7.507   4.189  0.2561 -1.1060  0.8304
  111MOL0     C14524  11.424   7.520   4.264  0.5052 -1.7450  0.6515
  111MOL0     C14525  11.517   7.622   4.246  0.2555  0.4361 -0.7891
  111MOL0     C14526  11.624   7.650   4.329  0.1538  0.0282 -1.2518
  111MOL0     C14527  11.650   7.555   4.440  1.1178 -0.0242  0.8984
  111MOL0     O14528  11.751   7.556   4.531  0.8428 -0.2865  0.1923
  111MOL0     C14529  11.825   7.683   4.551  0.1894  0.2970  0.2404
  111MOL0     C14530  11.740   7.772   4.640  0.3021  0.4138 -0.1075
  111MOL0     C14531  11.736   7.727   4.788  0.4092 -0.1721  0.8027
  111MOL0     C14532  11.656   7.818   4.883  0.3083  0.3025  0.4353
  111MOL0     C14533  11.718   7.959   4.902 -0.1538  0.4569  0.0606
  111MOL0     C14534  11.634   8.044   4.997 -0.7336  0.0794 -0.1347
  111MOL0     C14535  11.478   8.053   4.988  0.0954 -0.3476 -0.5410
  111MOL0     C14536  11.430   8.103   4.845  0.8544 -0.0159 -0.3099
  111MOL0     N14537  11.285   8.111   4.833 -0.1067  0.2686  0.6506
  111MOL0     C14538  11.220   8.182   4.724 -0.6409 -0.0678 -1.2073
  111MOL0     C14539  11.092   8.184   4.764 -0.6642  0.4121 -0.4051
  111MOL0     C14540  10.975   8.249   4.695  0.4740  0.2358 -0.4844
  111MOL0     C14541  10.950   8.181   4.562 -0.6495  0.8450  0.8994
  111MOL0     C14542  10.854   8.270   4.485 -0.0151 -0.0858 -0.9513
  111MOL0     C14543  10.753   8.190   4.415  0.5534  0.2304 -0.6362
  111MOL0     O14544  10.664   8.263   4.342 -0.0520 -0.0244 -0.0376
  111MOL0     C14545  10.563   8.189   4.283 -0.0241  0.0560  0.2324
  111MOL0     C14546  10.530   8.052   4.298  0.2417  0.5211 -0.4887
  111MOL0     C14547  10.426   7.991   4.230 -0.8324  0.0168  0.0783
  111MOL0     C14548  10.359   8.068   4.137  0.3539  0.5076  0.1677
  111MOL0     C14549  10.258   8.007   4.047 -0.4490  0.5957  0.8328
  111MOL0     O14550  10.213   8.070   3.928  0.1061  0.5719  0.4540
  111MOL0     C14551  10.129   8.014   3.834  0.4278 -0.6157  0.9485
  111MOL0     C14552  10.106   8.101   3.729 -0.2722  0.1123 -0.9070
  111MOL0     C14553  10.042   8.056   3.614 -0.0437  0.2516 -0.0132
  111MOL0     C14554   9.994   7.925   3.605 -0.8385  0.3777 -0.1009
  111MOL0     O14555   9.933   7.876   3.490  0.2562  0.5576 -0.0103
  111MOL0     C14556   9.856   7.754   3.500 -1.3606 -1.0772 -0.2913
  111MOL0     C14557   9.800   7.721   3.363 -0.6802 -0.7206  0.1138
  111MOL0     C14558   9.692   7.605   3.377 -0.1396  0.2352 -0.3890
  111MOL0     C14559   9.635   7.584   3.233  0.5165  0.1393  0.8140
  111MOL0     C14560   9.506   7.504   3.227 -0.2894 -0.1133 -1.1080
  111MOL0     C14561   9.516   7.359   3.258  0.2094  0.5732 -0.8457
  111MOL0     C14562   9.372   7.293   3.284 -1.2956  0.0529 -0.3236
  111MOL0     C14563   9.384   7.188   3.405 -0.7489 -0.4386  0.0295
  111MOL0    Cl14564   9.409   7.024   3.338 -0.4158  0.8218 -0.2749
  111MOL0     C14565  10.007   7.842   3.722  0.0822  0.5002  0.3864
  111MOL0     C14566  10.071   7.887   3.833  0.0389 -0.2738 -0.2851
  111MOL0     O14567  10.224   7.894   4.085 -0.6226  0.3014 -0.1248
  111MOL0     C14568  10.394   8.200   4.112 -0.0797 -0.4775  0.5725
  111MOL0     C14569  10.490   8.264   4.191  0.4832  0.1830 -0.6577
  111MOL0     N14570  11.070   8.124   4.884  0.0526  0.1461  0.1604
  111MOL0     N14571  11.189   8.079   4.922  0.6336  0.2066  0.7213
  111MOL0     C14572  11.560   7.442   4.447 -0.6302 -0.1012  0.7109
  111MOL0     C14573  11.450   7.422   4.359 -0.0022 -0.5900  0.0689
  111MOL0     C14574  11.104   7.569   4.062 -0.4885  0.1559 -0.3102
  111MOL0     C14575  11.071   7.434   4.034  0.3214 -0.5606 -0.1414
  111MOL0     C14576  10.946   7.407   3.980  0.3957  0.3828  0.3578
  111MOL0     C14577  10.856   7.509   3.960 -0.4358  0.7781 -1.2181
  111MOL0     O14578  10.726   7.474   3.910 -0.8000 -0.2086 -0.1906
  111MOL0     C14579  10.622   7.540   3.989  0.3878  0.1192 -0.4257
  111MOL0     C14580  10.478   7.479   3.965 -0.2598  0.1131 -0.3980
  111MOL0     C14581  10.425   7.525   3.837  0.1765  0.4236  0.0865
  111MOL0     C14582  10.296   7.450   3.793 -0.1163 -0.4499  0.9459
  111MOL0     C14583  10.173   7.466   3.878 -0.6476 -0.4308  0.3811
  111MOL0     C14584  10.078   7.485   3.950 -0.4708  0.4436  0.3585
  111MOL0     C14585  10.887   7.641   3.985 -0.1881  0.3808 -0.6718
  111MOL0     C14586  11.019   7.675   4.022  0.4006 -0.0073 -0.7688
  111MOL0     H14587  11.502   7.692   4.165  3.4215  1.1067 -0.9526
  111MOL0     H14588  11.670   7.748   4.320 -1.2663  1.0910  1.7709
  111MOL0     H14589  11.852   7.719   4.452  0.0699 -0.9633 -0.2722
  111MOL0     H14590  11.925   7.667   4.592  0.6358 -0.7192 -1.1881
  111MOL0     H14591  11.634   7.766   4.614 -0.1856 -1.2968  1.9588
  111MOL0     H14592  11.776   7.874   4.624  0.4838 -0.1019 -3.9296
  111MOL0     H14593  11.830   7.722   4.843 -0.0059 -0.7095  1.4787
  111MOL0     H14594  11.702   7.623   4.790 -1.2118  0.3006 -0.1413
  111MOL0     H14595  11.553   7.825   4.846 -0.6184 -4.8644  1.2358
  111MOL0     H14596  11.659   7.769   4.981  1.8229 -0.1818  0.1647
  111MOL0     H14597  11.731   8.007   4.805 -0.4199 -1.2423 -0.8568
  111MOL0     H14598  11.813   7.949   4.956  0.0331 -0.4720 -0.4113
  111MOL0     H14599  11.668   8.145   4.973 -0.9144 -0.2345 -1.7813
  111MOL0     H14600  11.668   8.020   5.099  2.8524  2.3162 -0.6442
  111MOL0     H14601  11.442   7.951   5.009  2.0929 -1.2305 -1.1583
  111MOL0     H14602  11.448   8.127   5.063 -3.2154 -1.9027 -0.1310
  111MOL0     H14603  11.475   8.035   4.772 -0.2411 -0.3343 -0.7091
  111MOL0     H14604  11.470   8.201   4.819  0.8996  0.2347  0.6761
  111MOL0     H14605  11.265   8.221   4.633  1.2505 -1.2998 -0.8667
  111MOL0     H14606  10.995   8.355   4.677 -1.1144  1.1890  2.5125
  111MOL0     H14607  10.888   8.247   4.762  0.4543 -1.1551 -0.5210
  111MOL0     H14608  10.908   8.081   4.567  0.1823  0.4079 -0.4142
  111MOL0     H14609  11.051   8.174   4.520 -0.3514  0.8808  1.5813
  111MOL0     H14610  10.792   8.333   4.549  0.7020  0.2955 -0.6351
  111MOL0     H14611  10.908   8.340   4.422  0.9813  1.2725  1.3039
  111MOL0     H14612  10.702   8.127   4.489 -1.8592 -1.5769 -3.6039
  111MOL0     H14613  10.794   8.120   4.341  3.1142  0.6650  0.2725
  111MOL0     H14614  10.577   8.014   4.388 -0.4028  4.5557  1.8427
  111MOL0     H14615  10.383   7.895   4.255 -2.2964  0.7972  0.6667
  111MOL0     H14616  10.155   8.198   3.732  0.0798 -0.0743 -0.4857
  111MOL0     H14617  10.037   8.119   3.526 -0.2922  0.3645  0.0821
  111MOL0     H14618   9.782   7.769   3.580 -1.3078  0.9708 -0.5694
  111MOL0     H14619   9.913   7.672   3.543  0.3594 -0.2725 -0.9450
  111MOL0     H14620   9.875   7.691   3.290 -2.4285 -0.8763 -1.6937
  111MOL0     H14621   9.744   7.805   3.320  1.7394 -0.7536 -3.5037
  111MOL0     H14622   9.609   7.636   3.442 -1.0220 -2.9194  0.1301
  111MOL0     H14623   9.749   7.521   3.417 -1.6746 -0.9970 -0.6976
  111MOL0     H14624   9.615   7.686   3.201 -0.6352 -0.2607  0.2040
  111MOL0     H14625   9.713   7.545   3.167 -1.0788 -1.7346 -0.0503
  111MOL0     H14626   9.452   7.520   3.133 -0.8082  0.9985 -0.6346
  111MOL0     H14627   9.461   7.552   3.314  2.0335 -1.9623  1.2769
  111MOL0     H14628   9.584   7.350   3.343  0.0143  0.6165 -0.6852
  111MOL0     H14629   9.565   7.298   3.182  2.1283 -1.5486  1.8581
  111MOL0     H14630   9.300   7.374   3.292 -2.3684 -0.6843 -1.9622
  111MOL0     H14631   9.341   7.239   3.194  1.4688  0.4553 -1.6275
  111MOL0     H14632   9.292   7.204   3.461 -1.1767 -1.7507 -0.2771
  111MOL0     H14633   9.472   7.220   3.461  0.4272  1.4348 -2.6385
  111MOL0     H14634   9.955   7.747   3.731 -3.9569  2.1097 -2.6271
  111MOL0     H14635  10.099   7.818   3.911 -1.3142 -1.2097 -0.5957
  111MOL0     H14636  10.320   8.246   4.047 -1.0128 -2.0662  0.4374
  111MOL0     H14637  10.495   8.373   4.189  1.8665  0.2051  1.0783
  111MOL0     H14638  11.589   7.367   4.520  0.3930 -1.1152 -0.6631
  111MOL0     H14639  11.371   7.348   4.370 -2.0089  1.0806 -2.1506
  111MOL0     H14640  11.140   7.354   4.060  0.4321 -0.1620  0.8272
  111MOL0     H14641  10.933   7.307   3.941  0.5142  1.0499 -1.4598
  111MOL0     H14642  10.614   7.646   3.964 -1.2720 -0.6967 -4.1265
  111MOL0     H14643  10.641   7.537   4.097  0.6522  0.4151 -0.4652
  111MOL0     H14644  10.488   7.371   3.953  0.5820 -0.2036  2.3749
  111MOL0     H14645  10.405   7.497   4.045 -1.4154  0.9639 -1.5947
  111MOL0     H14646  10.510   7.510   3.769 -0.7505  1.1224 -1.2698
  111MOL0     H14647  10.414   7.633   3.843  0.9032  0.5907 -1.1102
  111MOL0     H14648  10.266   7.480   3.692 -2.4428  1.6601  2.1264
  111MOL0     H14649  10.315   7.343   3.785 -1.5726 -0.6905  0.3532
  111MOL0     H14650   9.995   7.488   4.017 -0.5082  0.1741  0.3263
  111MOL0     H14651  10.817   7.723   3.989  0.5802  1.0042  0.7298
  111MOL0     H14652  11.038   7.779   4.045  0.8159 -0.3031  0.3051
  112MOL0     O14653   5.199   4.904   2.649  0.9682 -0.2957 -0.0333
  112MOL0     C14654   5.152   4.935   2.540 -0.6793 -0.1980  1.2145
  112MOL0     O14655   5.227   4.943   2.423 -0.6153  0.3379  0.3844
  112MOL0     C14656   5.362   4.906   2.421 -0.7249 -0.2153 -0.7887
  112MOL0     C14657   5.423   4.801   2.499 -0.0903 -0.4538 -0.2573
  112MOL0     C14658   5.558   4.775   2.478  0.3977  0.1017 -0.3448
  112MOL0     C14659   5.638   4.835   2.383 -0.5430 -0.2451  0.0082
  112MOL0     O14660   5.774   4.834   2.382  1.2109  0.2068 -0.0256
  112MOL0     C14661   5.846   4.834   2.256  0.2182 -0.0272  0.1625
  112MOL0     C14662   6.001   4.836   2.282  0.4810 -0.5001  0.1506
  112MOL0     C14663   6.040   4.711   2.358  0.1071 -0.1305 -0.7695
  112MOL0     C14664   6.197   4.724   2.375 -0.9764  0.1623 -0.5334
  112MOL0     C14665   6.237   4.619   2.486  0.2244  0.2546 -0.7469
  112MOL0     C14666   6.386   4.573   2.487  0.1826 -0.6660  0.9201
  112MOL0     C14667   6.411   4.460   2.588  0.4203  0.2187  0.2345
  112MOL0     C14668   6.517   4.353   2.548  0.3571  0.2869  1.3265
  112MOL0     N14669   6.653   4.407   2.549  0.1169 -1.0746 -0.2935
  112MOL0     C14670   6.704   4.527   2.493 -0.3873  0.1990  0.0133
  112MOL0     C14671   6.836   4.533   2.525 -0.5536 -0.6517 -0.0649
  112MOL0     C14672   6.932   4.650   2.490 -0.2821  0.3491 -0.1900
  112MOL0     C14673   6.979   4.738   2.608  0.1106 -0.1834  0.2812
  112MOL0     C14674   6.857   4.825   2.658 -0.3077 -0.3372  0.8687
  112MOL0     C14675   6.870   4.855   2.804 -0.0615  0.1141  0.0785
  112MOL0     O14676   6.826   4.750   2.894  0.2721  0.3336  0.5384
  112MOL0     C14677   6.686   4.733   2.908  0.1185 -0.8743 -0.3252
  112MOL0     C14678   6.589   4.801   2.834  0.8700 -0.0025 -0.4919
  112MOL0     C14679   6.448   4.780   2.851  0.0807  0.6779  0.0366
  112MOL0     C14680   6.405   4.680   2.937  1.0676 -0.7494  1.0413
  112MOL0     C14681   6.263   4.662   2.948  0.1183 -0.1310  0.2130
  112MOL0     O14682   6.186   4.693   2.845 -0.1490 -0.1546 -0.1915
  112MOL0     C14683   6.054   4.682   2.842 -0.1711  0.3463 -0.9758
  112MOL0     C14684   5.975   4.593   2.913  0.4638 -0.2153  0.1267
  112MOL0     C14685   5.834   4.612   2.904  0.1725 -0.2234  0.1108
  112MOL0     C14686   5.772   4.702   2.819  0.2025  0.5076  0.4313
  112MOL0     O14687   5.642   4.726   2.804  0.1855 -1.0493 -0.2234
  112MOL0     C14688   5.552   4.694   2.911 -0.0318  0.4353 -0.1367
  112MOL0     C14689   5.410   4.733   2.870  0.7240 -0.2678  0.5091
  112MOL0     C14690   5.315   4.701   2.989  0.5649 -0.4568  0.5316
  112MOL0     C14691   5.164   4.743   2.964 -0.1463  0.6908  0.2635
  112MOL0     C14692   5.080   4.758   3.103 -0.3902 -0.4568  0.0387
  112MOL0     C14693   4.943   4.807   3.053  0.1067  0.3635  0.6419
  112MOL0     C14694   4.848   4.796   3.167  0.3940  0.0468 -0.0117
  112MOL0     C14695   4.799   4.648   3.183  0.1961 -0.7735  0.5671
  112MOL0    Cl14696   4.736   4.578   3.032 -0.3899 -0.1879 -0.5186
  112MOL0     C14697   5.855   4.777   2.736  0.0681 -0.1011  0.2008
  112MOL0     C14698   5.993   4.769   2.747 -0.3986  0.4091  0.5884
  112MOL0     O14699   6.226   4.600   3.049  0.4533 -0.3856 -0.0540
  112MOL0     C14700   6.503   4.609   3.005  0.3673 -0.1512 -0.1011
  112MOL0     C14701   6.640   4.636   2.993  0.2337  0.6175 -0.0824
  112MOL0     N14702   6.860   4.428   2.614 -0.6114 -0.3356 -0.3905
  112MOL0     N14703   6.753   4.359   2.628  0.2220  0.6689  0.1855
  112MOL0     C14704   5.573   4.933   2.303 -0.5593  0.1996 -0.1946
  112MOL0     C14705   5.443   4.973   2.332 -0.4000  0.2583 -0.2108
  112MOL0     C14706   5.011   4.995   2.533 -0.5006 -0.5877 -0.4091
  112MOL0     C14707   4.916   4.977   2.641 -0.4358 -0.0676  0.1805
  112MOL0     C14708   4.792   5.034   2.621  0.7612 -0.2559 -0.5475
  112MOL0     C14709   4.750   5.098   2.504 -0.0268 -0.1613  0.5247
  112MOL0     O14710   4.619   5.147   2.512  0.7581 -0.4603 -0.2136
  112MOL0     C14711   4.555   5.229   2.420 -0.4365  1.0686 -0.3499
  112MOL0     C14712   4.496   5.158   2.294  0.3561  0.3967  0.5272
  112MOL0     C14713   4.389   5.050   2.332 -0.4608  0.1184  0.4572
  112MOL0     C14714   4.313   5.011   2.216  0.3604 -0.7317 -0.8632
  112MOL0     C14715   4.384   4.959   2.098 -0.7672 -0.8013  0.4260
  112MOL0     C14716   4.456   4.927   2.004 -0.7097  0.6699 -0.2274
  112MOL0     C14717   4.835   5.105   2.394  0.6903  0.5758  0.1098
  112MOL0     C14718   4.966   5.054   2.413  0.3395 -0.1426  0.5720
  112MOL0     H14719   5.355   4.756   2.572 -2.6754 -0.3305 -2.4347
  112MOL0     H14720   5.616   4.704   2.536  1.3152  1.4920  0.5038
  112MOL0     H14721   5.821   4.926   2.202 -1.3176  0.5032  1.6720
  112MOL0     H14722   5.813   4.756   2.187 -2.3838  2.1520 -1.2741
  112MOL0     H14723   6.016   4.923   2.348  1.2725 -0.7993  0.3651
  112MOL0     H14724   6.060   4.842   2.190  0.5754  0.9468  0.2845
  112MOL0     H14725   6.015   4.624   2.297 -1.6837 -0.1354 -0.0891
  112MOL0     H14726   5.989   4.712   2.455  0.4352  0.6012 -0.6001
  112MOL0     H14727   6.237   4.718   2.274  1.3983 -1.7406  0.4301
  112MOL0     H14728   6.230   4.822   2.410 -0.5063  0.1031 -0.7990
  112MOL0     H14729   6.176   4.532   2.464  0.4534  0.4161 -2.1499
  112MOL0     H14730   6.215   4.658   2.586  1.9294 -0.3914 -0.0839
  112MOL0     H14731   6.454   4.658   2.493  0.1843 -0.4674 -1.1959
  112MOL0     H14732   6.411   4.528   2.391 -0.2115 -3.2344  1.9323
  112MOL0     H14733   6.441   4.492   2.687  3.0953 -2.1225  0.3134
  112MOL0     H14734   6.316   4.408   2.600 -1.2464  2.5411 -1.8514
  112MOL0     H14735   6.483   4.315   2.451 -1.2435  0.1556  1.9217
  112MOL0     H14736   6.513   4.272   2.621 -0.6329  0.6099  1.6444
  112MOL0     H14737   6.658   4.597   2.424 -1.6087 -0.3118  0.2866
  112MOL0     H14738   6.883   4.702   2.406  0.2942  2.7158  0.8544
  112MOL0     H14739   7.017   4.598   2.443 -0.6201 -0.0344 -0.3856
  112MOL0     H14740   7.064   4.802   2.582 -1.2579  2.3990  1.7428
  112MOL0     H14741   7.010   4.673   2.690 -0.8158  0.6813  1.3557
  112MOL0     H14742   6.842   4.914   2.597  0.1991  0.0607  1.3179
  112MOL0     H14743   6.767   4.762   2.649 -2.0707  2.1117  0.4203
  112MOL0     H14744   6.804   4.939   2.825 -3.3544 -2.0537 -0.7325
  112MOL0     H14745   6.976   4.873   2.821  0.7468 -1.4369 -2.7333
  112MOL0     H14746   6.613   4.878   2.761  1.2620 -0.5667 -0.9581
  112MOL0     H14747   6.376   4.844   2.802  1.2515 -0.1986 -3.0620
  112MOL0     H14748   6.031   4.513   2.961  1.3046 -0.6758 -1.5481
  112MOL0     H14749   5.779   4.537   2.961 -0.7068 -0.3423 -0.8589
  112MOL0     H14750   5.582   4.734   3.008 -0.6157 -2.6017  1.3903
  112MOL0     H14751   5.549   4.585   2.917 -0.6113  0.4307 -0.4845
  112MOL0     H14752   5.386   4.672   2.782  0.1688 -1.2287  1.3138
  112MOL0     H14753   5.405   4.839   2.844 -2.0117  0.4111  3.3198
  112MOL0     H14754   5.348   4.754   3.079  0.7968  1.1804 -0.4657
  112MOL0     H14755   5.325   4.596   3.018 -0.6010 -0.7419 -0.0694
  112MOL0     H14756   5.166   4.840   2.912  0.0185 -0.5938 -2.2407
  112MOL0     H14757   5.126   4.670   2.893  0.3426  0.1886  0.5119
  112MOL0     H14758   5.133   4.834   3.162  2.2743 -1.5044 -0.8882
  112MOL0     H14759   5.080   4.660   3.152  5.1507 -0.2482  1.1265
  112MOL0     H14760   4.908   4.749   2.967  1.0474 -0.1261  0.5671
  112MOL0     H14761   4.959   4.908   3.015 -0.4837  0.1876 -0.1001
  112MOL0     H14762   4.887   4.831   3.263  0.5315 -1.9279  0.7108
  112MOL0     H14763   4.758   4.858   3.157  0.2638 -0.1702 -0.2023
  112MOL0     H14764   4.725   4.652   3.263  2.3403 -0.1338  2.6302
  112MOL0     H14765   4.888   4.592   3.217  1.4333  1.3235  0.9277
  112MOL0     H14766   5.806   4.850   2.672  0.3427 -0.5921 -0.5697
  112MOL0     H14767   6.054   4.828   2.680 -0.1946  1.0690  1.3460
  112MOL0     H14768   6.470   4.525   3.065 -3.9414 -1.1329 -3.4239
  112MOL0     H14769   6.715   4.572   3.039  3.1890  1.7172 -3.0049
  112MOL0     H14770   5.627   4.984   2.224 -0.9854 -0.2774 -0.8021
  112MOL0     H14771   5.405   5.057   2.275  1.8396  3.2137  2.2853
  112MOL0     H14772   4.934   4.906   2.721 -1.5961  1.6759  2.0767
  112MOL0     H14773   4.724   5.027   2.706  0.3140 -1.3089 -0.9768
  112MOL0     H14774   4.633   5.299   2.386  1.3429 -0.5716  0.2048
  112MOL0     H14775   4.484   5.281   2.484  0.4992 -1.1916  2.7344
  112MOL0     H14776   4.441   5.235   2.238  1.5670 -0.2327 -1.6270
  112MOL0     H14777   4.572   5.121   2.225 -0.9327 -2.1972  0.3824
  112MOL0     H14778   4.326   5.095   2.409 -0.5177  1.3373 -0.2834
  112MOL0     H14779   4.437   4.963   2.378 -1.9901 -2.0152 -1.7016
  112MOL0     H14780   4.241   4.941   2.260 -1.4707  1.7433  0.3309
  112MOL0     H14781   4.267   5.105   2.187  2.1886  0.8346  0.9945
  112MOL0     H14782   4.512   4.885   1.923 -0.8746  0.7288 -0.3753
  112MOL0     H14783   4.793   5.149   2.304 -0.2930  1.3764  0.9272
  112MOL0     H14784   5.032   5.057   2.327 -0.8682  1.7664 -0.3579
  113MOL0     O14785   0.229   6.133   7.209 -0.2394 -0.1200  0.2413
  113MOL0     C14786   0.104   6.137   7.197 -0.2812 -0.7901  0.9167
  113MOL0     O14787   0.017   6.105   7.298 -0.8675  0.0006  0.0562
  113MOL0     C14788   0.067   6.102   7.426  0.2468 -0.3679  0.0845
  113MOL0     C14789   0.157   6.200   7.479  0.3751  0.0954  0.3380
  113MOL0     C14790   0.195   6.201   7.610  0.3430  0.8900 -0.0625
  113MOL0     C14791   0.157   6.104   7.701  1.6515 -0.3585  0.4091
  113MOL0     O14792   0.231   6.118   7.822 -0.5443  0.6624  0.6201
  113MOL0     C14793   0.245   6.010   7.916 -0.2543 -0.8368  0.6989
  113MOL0     C14794   0.334   6.075   8.025 -0.0359  0.4164 -0.2897
  113MOL0     C14795   0.396   5.975   8.120 -0.5268  0.0393  0.6185
  113MOL0     C14796   0.436   6.035   8.258  0.0821  0.2569 -0.0037
  113MOL0     C14797   0.568   5.972   8.316 -0.1178  0.2840  0.2768
  113MOL0     C14798   0.575   5.996   8.458 -0.1568  0.0368  0.0126
  113MOL0     C14799   0.609   6.143   8.502 -0.8710  0.2943 -0.8406
  113MOL0     C14800   0.758   6.166   8.481  1.0329 -0.5283  0.2525
  113MOL0     N14801   0.791   6.255   8.365 -0.3708 -0.6898 -1.0365
  113MOL0     C14802   0.882   6.363   8.378  0.2419  0.9139 -0.4342
  113MOL0     C14803   0.882   6.431   8.264  0.7039 -0.1044  0.3210
  113MOL0     C14804   0.960   6.554   8.233  0.3490  0.6358  0.2503
  113MOL0     C14805   0.897   6.700   8.263  0.1845 -0.1934 -0.1366
  113MOL0     C14806   0.814   6.687   8.391  0.0390  0.7641  0.3462
  113MOL0     C14807   0.771   6.813   8.439  0.4645 -0.0373  0.1218
  113MOL0     O14808   0.727   6.809   8.574 -0.2834  0.6607 -0.7020
  113MOL0     C14809   0.660   6.925   8.606  0.0912  0.0733  0.6252
  113MOL0     C14810   0.525   6.933   8.599  0.7642 -0.1080  0.4427
  113MOL0     C14811   0.464   7.052   8.642 -0.2516 -0.3281  0.4201
  113MOL0     C14812   0.539   7.158   8.694 -0.0539  0.9634  0.7032
  113MOL0     C14813   0.464   7.284   8.733 -0.2419 -0.1887 -0.4238
  113MOL0     O14814   0.331   7.263   8.776  0.0308  0.2736  0.8693
  113MOL0     C14815   0.252   7.359   8.828 -0.5135  0.5450 -0.4896
  113MOL0     C14816   0.180   7.320   8.941  0.9553  0.5305 -0.5296
  113MOL0     C14817   0.091   7.410   8.996  0.2473 -0.3372  0.9488
  113MOL0     C14818   0.073   7.534   8.937 -0.5725 -0.0462  0.1055
  113MOL0     O14819  -0.016   7.608   9.005 -0.2165  0.1187 -0.2000
  113MOL0     C14820   0.048   7.721   9.082  0.1927  0.5393 -0.1255
  113MOL0     C14821  -0.057   7.826   9.112  0.1098  0.7018 -0.5590
  113MOL0     C14822  -0.176   7.750   9.185 -0.2840 -0.7278 -0.7556
  113MOL0     C14823  -0.281   7.848   9.240  0.1248 -0.2682  0.4943
  113MOL0     C14824  -0.407   7.765   9.284 -1.1747  0.0063  0.7312
  113MOL0     C14825  -0.532   7.844   9.330  0.1262  1.1449  0.7215
  113MOL0     C14826  -0.598   7.920   9.204  0.9907 -0.4241  0.3532
  113MOL0     C14827  -0.747   7.966   9.236 -0.4276 -0.0747  0.1297
  113MOL0    Cl14828  -0.746   8.087   9.357  0.2590  0.3559 -0.1926
  113MOL0     C14829   0.144   7.581   8.824 -0.2368 -0.3151 -0.1813
  113MOL0     C14830   0.230   7.487   8.767 -0.0782  0.2901 -0.4786
  113MOL0     O14831   0.513   7.398   8.716 -0.8574  0.0036 -0.1549
  113MOL0     C14832   0.677   7.151   8.698 -0.0851  1.1709 -0.6091
  113MOL0     C14833   0.741   7.029   8.658 -0.2451  0.0011 -0.0869
  113MOL0     N14834   0.798   6.362   8.171  0.2783 -0.4799 -0.1903
  113MOL0     N14835   0.744   6.254   8.233  0.8344  0.5231  0.0455
  113MOL0     C14836   0.055   6.008   7.657  0.7129  0.2768 -0.3378
  113MOL0     C14837   0.007   6.012   7.522 -0.8848  0.0225  0.3555
  113MOL0     C14838   0.044   6.186   7.067  0.1068  0.1042 -0.2765
  113MOL0     C14839   0.126   6.245   6.968  0.3665  0.2298 -0.4628
  113MOL0     C14840   0.080   6.291   6.849 -0.0340  0.0065 -0.5524
  113MOL0     C14841  -0.056   6.281   6.821  0.7982  0.9282 -0.0702
  113MOL0     O14842  -0.103   6.326   6.704  0.0401 -0.1039  0.1688
  113MOL0     C14843  -0.146   6.462   6.721 -0.0285  0.9485  0.0572
  113MOL0     C14844  -0.087   6.541   6.606  0.4242  0.4209  0.5015
  113MOL0     C14845  -0.149   6.512   6.464 -0.4594  0.5801 -0.5234
  113MOL0     C14846  -0.305   6.497   6.459  1.0266  0.0662 -0.4423
  113MOL0     C14847  -0.369   6.609   6.541  0.4881 -0.3906  0.0668
  113MOL0     C14848  -0.399   6.687   6.628 -0.1292 -0.4370  0.2052
  113MOL0     C14849  -0.138   6.230   6.912 -0.0019 -0.1284 -0.3382
  113MOL0     C14850  -0.095   6.173   7.037  0.8957 -1.1372  1.0178
  113MOL0     H14851   0.199   6.270   7.408 -0.7980 -0.6032 -1.1044
  113MOL0     H14852   0.261   6.286   7.625  1.5241  0.1849 -1.1243
  113MOL0     H14853   0.288   5.918   7.874 -2.5885 -1.0547 -1.4125
  113MOL0     H14854   0.153   5.981   7.968 -3.3970  0.9840 -3.2897
  113MOL0     H14855   0.269   6.148   8.075 -1.9325 -0.3574 -1.5159
  113MOL0     H14856   0.413   6.135   7.979 -3.6671  3.9010 -2.7003
  113MOL0     H14857   0.486   5.938   8.070  0.9788  1.0934  2.4119
  113MOL0     H14858   0.324   5.893   8.126  0.3798 -0.8696 -0.4925
  113MOL0     H14859   0.439   6.144   8.251  2.7678  0.2531 -0.2037
  113MOL0     H14860   0.349   6.009   8.318  0.2746 -1.1273 -0.2738
  113MOL0     H14861   0.653   6.009   8.257  1.0558 -0.5392  1.3889
  113MOL0     H14862   0.559   5.863   8.313  0.0690  0.1551  2.4968
  113MOL0     H14863   0.651   5.929   8.500  1.2789 -0.2560 -2.7959
  113MOL0     H14864   0.480   5.965   8.503  0.1682 -2.5314 -0.8604
  113MOL0     H14865   0.555   6.220   8.446 -0.8439  1.3569  0.5580
  113MOL0     H14866   0.600   6.158   8.610 -0.9989  0.2054 -0.8381
  113MOL0     H14867   0.811   6.071   8.472 -1.1227 -1.9126  1.1962
  113MOL0     H14868   0.804   6.215   8.567  1.8883  0.7564 -0.8963
  113MOL0     H14869   0.943   6.364   8.468  0.1050  0.7377 -0.3383
  113MOL0     H14870   0.978   6.549   8.125 -0.8725  2.5314 -0.0845
  113MOL0     H14871   1.055   6.545   8.287  1.4348  2.1248 -1.2959
  113MOL0     H14872   0.829   6.734   8.184 -2.3752  0.9530  2.3594
  113MOL0     H14873   0.976   6.774   8.277 -0.1422  0.2090 -0.3961
  113MOL0     H14874   0.725   6.625   8.377  1.6323 -1.5749 -0.1110
  113MOL0     H14875   0.867   6.635   8.471 -1.9549 -2.9792 -0.5745
  113MOL0     H14876   0.693   6.846   8.370  0.1650  1.0450  0.9480
  113MOL0     H14877   0.852   6.886   8.441  0.6356 -0.1642  3.0825
  113MOL0     H14878   0.467   6.846   8.569  1.2184  0.8614 -3.9539
  113MOL0     H14879   0.357   7.060   8.627  0.0874  2.4607 -1.2450
  113MOL0     H14880   0.198   7.225   8.990 -3.1353  0.2877  0.8146
  113MOL0     H14881   0.027   7.377   9.077  1.7277 -1.6286  1.6404
  113MOL0     H14882   0.118   7.777   9.021 -1.0273 -0.9696 -3.0957
  113MOL0     H14883   0.092   7.685   9.176 -0.6899  1.4626  0.6576
  113MOL0     H14884  -0.086   7.871   9.016  1.8408  1.4285 -0.7798
  113MOL0     H14885  -0.035   7.907   9.181  0.9451  0.0475 -0.0417
  113MOL0     H14886  -0.135   7.697   9.271 -2.8952 -1.8575 -0.1055
  113MOL0     H14887  -0.226   7.676   9.122 -0.9949  0.4619 -1.6311
  113MOL0     H14888  -0.229   7.891   9.326  1.6145 -1.7470  0.3782
  113MOL0     H14889  -0.311   7.923   9.166 -2.0763 -2.4434 -0.9975
  113MOL0     H14890  -0.373   7.697   9.363 -0.1392  2.0626  2.1567
  113MOL0     H14891  -0.438   7.703   9.200 -2.2156 -0.3973  1.3958
  113MOL0     H14892  -0.494   7.924   9.395  3.7315 -0.7751  1.2075
  113MOL0     H14893  -0.604   7.775   9.374  1.0533  1.1763  2.3970
  113MOL0     H14894  -0.533   8.005   9.182  0.5994  0.8836  3.6984
  113MOL0     H14895  -0.600   7.854   9.116  0.0550 -2.8130  2.0477
  113MOL0     H14896  -0.804   7.887   9.285  1.0011  0.8867  3.6693
  113MOL0     H14897  -0.797   8.000   9.144  0.8522 -1.3179 -1.0777
  113MOL0     H14898   0.130   7.679   8.779  1.8463 -0.2016 -0.6914
  113MOL0     H14899   0.287   7.525   8.683 -0.0202 -0.5952 -0.8491
  113MOL0     H14900   0.726   7.243   8.731 -0.8754  1.2118  0.5241
  113MOL0     H14901   0.850   7.031   8.665 -0.3443  0.7439  3.0003
  113MOL0     H14902   0.025   5.934   7.731 -1.3216 -0.3950 -1.7488
  113MOL0     H14903  -0.072   5.944   7.491 -0.9103  0.4250 -0.4979
  113MOL0     H14904   0.225   6.271   7.001 -0.0589  0.2979  0.8175
  113MOL0     H14905   0.149   6.324   6.772 -0.5394 -2.4015 -2.1720
  113MOL0     H14906  -0.102   6.514   6.807  0.2441  2.7332 -1.1097
  113MOL0     H14907  -0.255   6.470   6.730 -0.0011  0.4327  0.9491
  113MOL0     H14908  -0.094   6.647   6.634  1.6091  1.0785 -1.4904
  113MOL0     H14909   0.021   6.525   6.602  0.8983  2.1344  3.3248
  113MOL0     H14910  -0.104   6.421   6.422  1.7289  1.3381  0.0484
  113MOL0     H14911  -0.125   6.599   6.403  2.7688  0.7813  0.8025
  113MOL0     H14912  -0.349   6.498   6.359 -1.2657 -2.4975  0.4169
  113MOL0     H14913  -0.333   6.399   6.499 -0.8771  0.6125 -0.3389
  113MOL0     H14914  -0.438   6.760   6.696 -2.9826 -0.5895 -1.0957
  113MOL0     H14915  -0.246   6.229   6.898 -0.1706 -0.6508  0.8530
  113MOL0     H14916  -0.161   6.135   7.114 -0.0314  0.1993  0.9138
  114MOL0     O14917   6.368   9.999   2.459 -0.9450  0.0920  0.4314
  114MOL0     C14918   6.346  10.112   2.456 -0.1616  0.1245  0.8009
  114MOL0     O14919   6.232  10.173   2.410 -0.5023 -0.3610  0.1969
  114MOL0     C14920   6.121  10.105   2.378  0.9824 -1.1657  0.5860
  114MOL0     C14921   6.025  10.164   2.289 -0.1612 -0.5420 -0.1724
  114MOL0     C14922   5.902  10.103   2.255 -0.5770  0.5174 -0.6364
  114MOL0     C14923   5.868   9.980   2.312  0.2524 -0.1230 -1.5520
  114MOL0     O14924   5.751   9.923   2.286 -0.6287 -0.1993  0.4354
  114MOL0     C14925   5.667   9.881   2.397  0.4016  1.3759  0.9521
  114MOL0     C14926   5.528   9.913   2.355 -0.1018  0.3695  0.6511
  114MOL0     C14927   5.523  10.064   2.313 -0.0449 -0.9739 -0.6648
  114MOL0     C14928   5.379  10.130   2.307 -0.9210 -0.2493  0.3191
  114MOL0     C14929   5.380  10.284   2.290 -0.6472  0.7965 -0.3130
  114MOL0     C14930   5.443  10.364   2.406 -0.3083 -0.5516  0.0777
  114MOL0     C14931   5.403  10.510   2.404  0.0873  0.1096  0.9471
  114MOL0     C14932   5.269  10.538   2.457 -0.7898  0.0306 -0.1946
  114MOL0     N14933   5.154  10.497   2.376 -0.2812 -0.0225 -0.1128
  114MOL0     C14934   5.082  10.393   2.389  0.5549  0.5137 -0.1932
  114MOL0     C14935   4.975  10.407   2.304  0.3244 -0.3920  0.5623
  114MOL0     C14936   4.865  10.320   2.281 -0.7655  0.4277 -0.7184
  114MOL0     C14937   4.773  10.309   2.400  1.8420 -0.1909  0.5591
  114MOL0     C14938   4.740  10.445   2.457 -0.2250  0.0245 -0.1853
  114MOL0     C14939   4.622  10.450   2.554 -0.1333  0.0279 -0.1107
  114MOL0     O14940   4.498  10.427   2.480  0.5352 -0.2865 -0.3677
  114MOL0     C14941   4.394  10.502   2.500  0.1831 -0.3699 -0.5100
  114MOL0     C14942   4.277  10.467   2.565  0.5300  0.3228  0.5324
  114MOL0     C14943   4.188  10.563   2.614 -0.5120  0.3174 -0.2039
  114MOL0     C14944   4.212  10.701   2.587 -0.0623  0.4264 -0.0233
  114MOL0     C14945   4.131  10.811   2.639  0.2947  0.5151 -0.6260
  114MOL0     O14946   4.115  10.926   2.573 -0.2416 -0.2598 -0.5873
  114MOL0     C14947   4.050  11.029   2.624  0.4620  0.3598 -0.7456
  114MOL0     C14948   4.121  11.147   2.625 -0.0069 -0.0121 -0.9492
  114MOL0     C14949   4.064  11.269   2.661 -0.3723  0.0680 -0.1139
  114MOL0     C14950   3.926  11.274   2.698 -0.2517 -0.3033  0.4676
  114MOL0     O14951   3.854  11.382   2.748 -0.0778  0.0844  0.8500
  114MOL0     C14952   3.914  11.516   2.773 -0.1529  0.4025 -0.1035
  114MOL0     C14953   3.825  11.637   2.750 -0.5400  0.0408 -0.8567
  114MOL0     C14954   3.704  11.647   2.834 -0.3358 -0.0858  0.3562
  114MOL0     C14955   3.585  11.731   2.769 -0.1571  0.6987  0.6385
  114MOL0     C14956   3.478  11.741   2.876  0.3392  0.3507  0.5930
  114MOL0     C14957   3.345  11.801   2.833  0.8523  0.0956  0.5896
  114MOL0     C14958   3.350  11.939   2.770 -0.3760 -0.6534  0.3882
  114MOL0     C14959   3.422  12.031   2.871  0.0861 -0.2890  1.0973
  114MOL0    Cl14960   3.414  12.201   2.802  0.0261 -0.0815 -0.4099
  114MOL0     C14961   3.854  11.153   2.687  0.0361 -0.1372  0.2898
  114MOL0     C14962   3.911  11.028   2.651  0.2871 -0.3130 -0.3569
  114MOL0     O14963   4.079  10.780   2.747 -0.5399  0.3603 -0.7751
  114MOL0     C14964   4.324  10.744   2.516  0.5284  0.0914  0.1230
  114MOL0     C14965   4.412  10.644   2.478  0.2815  0.3987  0.7614
  114MOL0     N14966   4.990  10.525   2.239 -0.4674  0.3131  1.6542
  114MOL0     N14967   5.103  10.577   2.285  0.1716 -0.2822  0.2352
  114MOL0     C14968   5.958   9.917   2.393 -0.6875 -0.4875 -0.9344
  114MOL0     C14969   6.085   9.981   2.432  0.4842  0.5774  0.4757
  114MOL0     C14970   6.440  10.200   2.502 -1.0872 -0.1319 -0.0980
  114MOL0     C14971   6.460  10.326   2.461 -0.0730 -0.2780  0.2433
  114MOL0     C14972   6.564  10.400   2.518  0.1890  0.6780 -0.6012
  114MOL0     C14973   6.667  10.347   2.604 -0.7234  0.3581  0.1832
  114MOL0     O14974   6.765  10.409   2.661 -0.4380 -0.3731 -0.4777
  114MOL0     C14975   6.832  10.512   2.584  0.3613  0.5823 -0.4048
  114MOL0     C14976   6.937  10.459   2.496  0.1862 -0.1293  0.3392
  114MOL0     C14977   7.048  10.373   2.573 -1.2509  0.1973 -0.2074
  114MOL0     C14978   7.176  10.337   2.484  0.0048  0.0735  0.8921
  114MOL0     C14979   7.234  10.458   2.419  0.4610  0.3534  0.9465
  114MOL0     C14980   7.270  10.563   2.370  0.3060  0.2951  0.8993
  114MOL0     C14981   6.648  10.217   2.639  0.4291 -0.4834 -0.0599
  114MOL0     C14982   6.528  10.147   2.603  0.1811 -1.2224 -0.3562
  114MOL0     H14983   6.050  10.257   2.239  0.1451 -1.8005 -2.5284
  114MOL0     H14984   5.840  10.141   2.174  0.4434  0.7071 -1.3521
  114MOL0     H14985   5.698   9.931   2.490  2.8884 -1.3077  1.7037
  114MOL0     H14986   5.668   9.774   2.419 -1.4671  0.5591 -2.3145
  114MOL0     H14987   5.464   9.887   2.439  0.3330  1.4868  1.3587
  114MOL0     H14988   5.483   9.853   2.275 -1.7155 -0.1607  1.9126
  114MOL0     H14989   5.568  10.093   2.217  0.7785 -1.4167 -0.4197
  114MOL0     H14990   5.578  10.121   2.388 -1.5396 -1.6362  1.0175
  114MOL0     H14991   5.325  10.087   2.222 -0.4662  1.3637 -0.8309
  114MOL0     H14992   5.309  10.091   2.382 -2.6133 -0.2899 -1.2287
  114MOL0     H14993   5.276  10.315   2.277 -1.3041 -0.1641  2.1950
  114MOL0     H14994   5.438  10.320   2.205  0.1683  0.6820  0.1819
  114MOL0     H14995   5.552  10.352   2.410 -0.2033  0.5217  1.3215
  114MOL0     H14996   5.411  10.321   2.502  2.3649 -1.4618  0.6641
  114MOL0     H14997   5.463  10.582   2.461  0.1435  2.8709 -2.3158
  114MOL0     H14998   5.410  10.560   2.307  1.5867  0.5139  1.2397
  114MOL0     H14999   5.274  10.648   2.456 -1.8975  0.1446  1.9336
  114MOL0     H15000   5.258  10.511   2.562  1.8561  0.9301  0.4023
  114MOL0     H15001   5.114  10.306   2.445  0.3876  0.3012 -0.4276
  114MOL0     H15002   4.899  10.217   2.265 -0.5155  0.4164 -0.1255
  114MOL0     H15003   4.811  10.344   2.189 -2.5634 -1.1863 -0.1542
  114MOL0     H15004   4.802  10.233   2.474 -1.3955 -4.6646 -2.2793
  114MOL0     H15005   4.679  10.274   2.357  1.6850 -1.3318  1.7524
  114MOL0     H15006   4.830  10.488   2.503  0.3092 -2.0246  0.7974
  114MOL0     H15007   4.713  10.508   2.372 -1.1030  0.6682  0.5507
  114MOL0     H15008   4.621  10.545   2.608 -1.0861  1.1720 -2.0359
  114MOL0     H15009   4.644  10.362   2.615 -1.7205  0.5810  1.3519
  114MOL0     H15010   4.273  10.365   2.602 -0.4706  0.3888  0.6413
  114MOL0     H15011   4.105  10.535   2.678  0.1171 -1.0586  0.0419
  114MOL0     H15012   4.228  11.150   2.605 -0.0333 -0.0576 -1.0961
  114MOL0     H15013   4.124  11.358   2.646 -2.9397  1.6161 -2.0549
  114MOL0     H15014   3.994  11.525   2.699 -0.4531  0.3946 -0.4345
  114MOL0     H15015   3.955  11.507   2.874 -0.0542  0.8936 -0.0961
  114MOL0     H15016   3.804  11.645   2.643  2.7291  0.0216 -1.5916
  114MOL0     H15017   3.890  11.722   2.773  1.7679 -2.3441  2.5310
  114MOL0     H15018   3.727  11.692   2.931 -4.3754 -2.2692  2.6111
  114MOL0     H15019   3.661  11.549   2.858 -0.0487 -0.6124 -1.2126
  114MOL0     H15020   3.634  11.825   2.742  0.5877  0.4044  0.9624
  114MOL0     H15021   3.547  11.672   2.686  1.9272 -1.5438  1.2017
  114MOL0     H15022   3.516  11.805   2.957  1.8062  0.4871 -0.1714
  114MOL0     H15023   3.452  11.640   2.910 -1.3690 -0.3035 -2.2813
  114MOL0     H15024   3.274  11.800   2.916 -0.2719  0.9167 -0.3241
  114MOL0     H15025   3.300  11.743   2.751 -1.7005  1.5826  0.8254
  114MOL0     H15026   3.407  11.945   2.677 -0.2995 -0.4877  0.4468
  114MOL0     H15027   3.253  11.980   2.741  0.2217 -0.4066 -1.4208
  114MOL0     H15028   3.525  11.998   2.886  0.3007  0.0585  0.4421
  114MOL0     H15029   3.372  12.024   2.967 -0.7232  3.5757  1.1281
  114MOL0     H15030   3.749  11.154   2.716 -0.1327 -0.6196 -0.2725
  114MOL0     H15031   3.858  10.935   2.634 -2.8099  1.1678  0.5107
  114MOL0     H15032   4.341  10.849   2.495  0.7544 -0.2562 -1.5823
  114MOL0     H15033   4.496  10.667   2.412  0.4731  0.1234  0.9052
  114MOL0     H15034   5.926   9.820   2.430 -3.9414  0.4145 -1.1307
  114MOL0     H15035   6.147   9.923   2.501 -0.2957  0.0686  0.7565
  114MOL0     H15036   6.390  10.381   2.398 -1.5931 -1.1474  1.1173
  114MOL0     H15037   6.567  10.504   2.489 -0.8758  1.4435  1.7912
  114MOL0     H15038   6.874  10.582   2.656 -1.9188 -1.2104  2.9466
  114MOL0     H15039   6.759  10.566   2.524 -0.7961 -0.2492  0.2059
  114MOL0     H15040   6.891  10.385   2.431 -1.3507  0.8450  0.2790
  114MOL0     H15041   6.993  10.542   2.453  0.5556 -0.7647 -0.4369
  114MOL0     H15042   7.011  10.275   2.603 -1.5505  0.1772 -0.6254
  114MOL0     H15043   7.082  10.430   2.660 -0.3169 -0.5508 -0.0682
  114MOL0     H15044   7.255  10.294   2.547 -0.2261 -1.1776  0.3430
  114MOL0     H15045   7.148  10.263   2.409  0.8350  0.0770  0.5703
  114MOL0     H15046   7.290  10.665   2.347  0.2468 -0.2966 -2.0988
  114MOL0     H15047   6.726  10.179   2.704 -1.2070  0.0090  2.3271
  114MOL0     H15048   6.498  10.047   2.635 -3.2657 -0.4328 -0.7448
  115MOL0     O15049  10.162   5.798   9.404  0.8443  0.5545 -0.9747
  115MOL0     C15050  10.207   5.692   9.453 -0.8915  0.4282  0.4654
  115MOL0     O15051  10.131   5.576   9.492  1.1291  0.7435  0.0953
  115MOL0     C15052  10.001   5.589   9.524  1.4379 -0.2373 -0.3758
  115MOL0     C15053   9.909   5.501   9.476 -0.4108 -0.9149 -0.5337
  115MOL0     C15054   9.769   5.506   9.507 -0.6669 -0.2860 -0.0557
  115MOL0     C15055   9.726   5.621   9.579 -0.4681  0.0275 -0.5500
  115MOL0     O15056   9.597   5.632   9.616  0.3961  0.3267 -0.2001
  115MOL0     C15057   9.545   5.517   9.683  0.3077 -0.0197 -0.8314
  115MOL0     C15058   9.390   5.524   9.709 -0.5452 -0.7618  0.9514
  115MOL0     C15059   9.354   5.409   9.794 -0.3289 -0.5382  0.4330
  115MOL0     C15060   9.213   5.395   9.803 -0.1370 -0.6555 -0.3820
  115MOL0     C15061   9.179   5.295   9.921 -0.0562  0.1219 -0.2728
  115MOL0     C15062   9.022   5.281   9.950 -0.3394  0.2845  0.6479
  115MOL0     C15063   8.997   5.157  10.043  0.5609 -0.8707 -0.3959
  115MOL0     C15064   8.878   5.194  10.128  0.9902  0.4735 -0.8057
  115MOL0     N15065   8.849   5.082  10.221  0.3745  0.1574 -0.1144
  115MOL0     C15066   8.760   4.984  10.193  0.3992 -0.2773 -0.8422
  115MOL0     C15067   8.756   4.904  10.306 -0.9232 -1.1605  0.2596
  115MOL0     C15068   8.666   4.788  10.326  0.1654 -0.3571  0.0775
  115MOL0     C15069   8.517   4.836  10.349  0.6672  0.1849  0.4695
  115MOL0     C15070   8.436   4.711  10.386 -0.4559  0.7444 -0.1405
  115MOL0     C15071   8.288   4.740  10.359 -0.0595 -0.1645  0.2950
  115MOL0     O15072   8.262   4.711  10.223 -0.9149  0.4463  0.2070
  115MOL0     C15073   8.139   4.722  10.165 -0.0420  0.1671  0.7105
  115MOL0     C15074   8.029   4.784  10.220  0.3277 -0.0633 -0.3147
  115MOL0     C15075   7.907   4.807  10.142  0.6880  0.5156 -0.2388
  115MOL0     C15076   7.899   4.762  10.008  0.5691 -0.2532  0.1638
  115MOL0     C15077   7.789   4.796   9.919  0.1611 -0.8885 -0.7330
  115MOL0     O15078   7.680   4.849   9.984 -0.6283 -0.1132 -0.3380
  115MOL0     C15079   7.577   4.887   9.902 -0.6844  0.5845  0.1052
  115MOL0     C15080   7.450   4.823   9.892 -0.3103  0.1291  0.5841
  115MOL0     C15081   7.347   4.867   9.810 -0.6320 -0.5191  0.2759
  115MOL0     C15082   7.357   4.988   9.739 -0.9144  0.7809  0.3134
  115MOL0     O15083   7.261   5.042   9.651 -0.3544 -0.3131 -0.3831
  115MOL0     C15084   7.142   4.959   9.626  0.0084  0.3736  0.6927
  115MOL0     C15085   7.028   5.019   9.544  0.0204  0.2216 -0.0174
  115MOL0     C15086   6.929   4.916   9.491  0.1343 -0.5174 -0.1533
  115MOL0     C15087   6.831   4.984   9.398 -0.1215 -0.4148 -0.2949
  115MOL0     C15088   6.716   4.878   9.378 -0.9201  0.8449  0.6837
  115MOL0     C15089   6.578   4.950   9.353  0.9605 -0.6129 -0.0844
  115MOL0     C15090   6.471   4.848   9.305 -1.0262  0.9546  0.3255
  115MOL0     C15091   6.342   4.921   9.261  0.4807 -0.6736 -0.9615
  115MOL0    Cl15092   6.355   5.002   9.098  0.2507  0.2613 -0.3049
  115MOL0     C15093   7.479   5.056   9.746 -0.3518 -0.4101 -0.3691
  115MOL0     C15094   7.591   5.005   9.829  0.0000  0.1538 -0.7325
  115MOL0     O15095   7.798   4.788   9.798 -0.5981  0.3574  1.1168
  115MOL0     C15096   8.008   4.700   9.963 -0.0920  0.0781  0.6424
  115MOL0     C15097   8.128   4.674  10.037 -0.3499  0.2526 -0.6280
  115MOL0     N15098   8.835   4.972  10.405  0.7267 -0.3156 -0.9797
  115MOL0     N15099   8.884   5.076  10.348  0.0210 -0.3609 -0.7006
  115MOL0     C15100   9.819   5.715   9.615  0.2776 -0.1011  0.0383
  115MOL0     C15101   9.951   5.702   9.594 -0.7594 -0.2283  0.0802
  115MOL0     C15102  10.354   5.682   9.496  0.6985 -0.8171  0.4901
  115MOL0     C15103  10.448   5.786   9.475 -1.0327 -0.2251  0.3450
  115MOL0     C15104  10.577   5.765   9.515  0.6849  0.6263  0.1208
  115MOL0     C15105  10.617   5.657   9.597  0.3031 -0.5129  0.6082
  115MOL0     O15106  10.737   5.643   9.657 -0.1390 -0.1545 -0.6061
  115MOL0     C15107  10.842   5.699   9.576  0.8620 -0.6893  0.1855
  115MOL0     C15108  10.978   5.663   9.644 -0.0618  0.1091  0.4674
  115MOL0     C15109  11.092   5.724   9.574  0.3969 -0.0620 -0.3821
  115MOL0     C15110  11.216   5.644   9.619  0.5761 -0.0607  0.0050
  115MOL0     C15111  11.334   5.709   9.552 -0.5613  0.2565 -0.4217
  115MOL0     C15112  11.429   5.781   9.532  0.1137  1.2718  1.3189
  115MOL0     C15113  10.528   5.553   9.613 -0.3198  0.2150 -0.1514
  115MOL0     C15114  10.397   5.572   9.573 -0.3098  0.3675 -1.0671
  115MOL0     H15115   9.944   5.414   9.422 -0.9191 -1.0846 -0.5945
  115MOL0     H15116   9.702   5.430   9.467 -1.4689 -0.7437  2.0127
  115MOL0     H15117   9.582   5.516   9.786 -2.3649  5.6444  0.6109
  115MOL0     H15118   9.578   5.428   9.630 -0.0845  0.1994 -1.4593
  115MOL0     H15119   9.355   5.509   9.606  0.8050 -0.9933  0.4991
  115MOL0     H15120   9.360   5.620   9.752  2.6387  1.4225 -1.2321
  115MOL0     H15121   9.396   5.429   9.893 -2.7269  2.3676  1.0210
  115MOL0     H15122   9.394   5.310   9.770 -1.3346 -0.9098  0.2459
  115MOL0     H15123   9.156   5.488   9.804  0.9703  0.0319  0.1471
  115MOL0     H15124   9.178   5.363   9.704 -0.1129 -0.8210 -0.3381
  115MOL0     H15125   9.234   5.320  10.013 -2.1718 -1.0836  1.4261
  115MOL0     H15126   9.200   5.196   9.880  1.0543  0.3138 -0.1941
  115MOL0     H15127   8.969   5.265   9.856 -1.3911  2.6665  0.7659
  115MOL0     H15128   8.972   5.371   9.987 -2.9624 -1.9529  3.0056
  115MOL0     H15129   8.983   5.062   9.990  1.5168 -2.9941  2.8413
  115MOL0     H15130   9.085   5.147  10.108  0.2122 -2.0615 -0.0715
  115MOL0     H15131   8.795   5.224  10.064  1.1940 -1.5550 -2.1193
  115MOL0     H15132   8.901   5.273  10.200  0.4811  0.4487 -0.6104
  115MOL0     H15133   8.697   4.968  10.106 -1.0177  1.0940 -0.1091
  115MOL0     H15134   8.699   4.738  10.417 -0.2748  1.7987  1.4758
  115MOL0     H15135   8.668   4.714  10.245 -3.0211 -0.1085 -0.3749
  115MOL0     H15136   8.477   4.882  10.258 -1.0431 -1.6233  0.2340
  115MOL0     H15137   8.521   4.908  10.430 -1.3485  2.0146 -0.9392
  115MOL0     H15138   8.462   4.622  10.329 -2.1037  0.4874 -0.5648
  115MOL0     H15139   8.446   4.687  10.492  1.1577 -0.9439 -0.6234
  115MOL0     H15140   8.258   4.835  10.402  2.1288 -0.2148  2.1617
  115MOL0     H15141   8.216   4.680  10.415 -2.1122  0.7717 -1.2375
  115MOL0     H15142   8.057   4.828  10.315  1.5628  0.4660 -0.9027
  115MOL0     H15143   7.826   4.848  10.201  1.5630 -0.5444  1.7829
  115MOL0     H15144   7.429   4.743   9.962  0.4583  0.1354  0.8303
  115MOL0     H15145   7.260   4.802   9.801 -1.6200  1.0020 -1.9998
  115MOL0     H15146   7.089   4.932   9.718 -0.4791 -0.1025  0.2773
  115MOL0     H15147   7.166   4.864   9.579 -2.9040 -0.8081  1.3643
  115MOL0     H15148   7.075   5.061   9.455 -1.5972  2.3970  0.0799
  115MOL0     H15149   6.970   5.094   9.598  0.2744 -0.7243  1.6364
  115MOL0     H15150   6.869   4.887   9.577 -3.4911  0.6538 -2.0798
  115MOL0     H15151   6.976   4.829   9.443 -3.8665 -1.9717 -1.8554
  115MOL0     H15152   6.803   5.087   9.422 -0.3437 -0.2513 -1.2171
  115MOL0     H15153   6.871   4.999   9.297 -1.2743  0.2878 -0.6702
  115MOL0     H15154   6.699   4.813   9.465 -2.2296 -0.1560 -0.2714
  115MOL0     H15155   6.741   4.808   9.297  1.6019 -1.8428  3.5065
  115MOL0     H15156   6.567   5.034   9.283  0.9512  1.0251  1.8030
  115MOL0     H15157   6.544   4.991   9.448 -3.0812  0.8820 -1.9378
  115MOL0     H15158   6.499   4.781   9.223  0.6157  1.5884  0.3325
  115MOL0     H15159   6.448   4.786   9.392  2.4977 -0.7066  0.2509
  115MOL0     H15160   6.306   5.000   9.327 -0.2776 -1.0183 -0.9496
  115MOL0     H15161   6.261   4.849   9.254 -0.9705  0.7448  0.4891
  115MOL0     H15162   7.501   5.138   9.678  1.5362 -0.1235  0.5104
  115MOL0     H15163   7.680   5.065   9.847 -2.5906  3.6352  1.8415
  115MOL0     H15164   8.024   4.670   9.859  0.8504  0.9136  0.5303
  115MOL0     H15165   8.220   4.656   9.983 -0.4507  0.3738 -0.8404
  115MOL0     H15166   9.807   5.798   9.684  2.7941  1.1553 -0.9103
  115MOL0     H15167  10.015   5.781   9.632 -1.7529  1.5041 -1.6516
  115MOL0     H15168  10.433   5.872   9.410  2.5095  1.1737  1.1081
  115MOL0     H15169  10.648   5.842   9.487 -0.3366  1.1797 -1.0373
  115MOL0     H15170  10.846   5.808   9.578  3.5214 -0.7358  0.0079
  115MOL0     H15171  10.855   5.658   9.476  0.7942  0.1543 -0.1702
  115MOL0     H15172  10.986   5.715   9.739  2.0071  2.7373 -1.0083
  115MOL0     H15173  10.979   5.553   9.641 -0.9787  0.1063 -0.8641
  115MOL0     H15174  11.091   5.830   9.598  2.5053 -0.2633  0.7683
  115MOL0     H15175  11.075   5.713   9.466  0.8734  1.2851 -0.6083
  115MOL0     H15176  11.215   5.639   9.728  0.6156  0.4133  0.0327
  115MOL0     H15177  11.220   5.538   9.595 -0.7801 -0.2403  0.5063
  115MOL0     H15178  11.506   5.853   9.509  1.3736 -0.1526  0.9187
  115MOL0     H15179  10.548   5.464   9.671  1.9616  1.7374  1.5482
  115MOL0     H15180  10.328   5.489   9.584  0.3152  0.1148  1.5342
  116MOL0     O15181   7.751   5.387   0.920 -0.1504  0.1733  0.1000
  116MOL0     C15182   7.752   5.509   0.926  0.0688 -0.6748 -0.4145
  116MOL0     O15183   7.649   5.586   0.932  1.0326  0.1136 -0.4782
  116MOL0     C15184   7.539   5.547   0.847 -1.2267 -0.1393 -0.4146
  116MOL0     C15185   7.418   5.514   0.906  1.1330 -1.0234  0.1344
  116MOL0     C15186   7.312   5.470   0.822 -0.1718 -0.0615 -0.8028
  116MOL0     C15187   7.326   5.462   0.680  0.9646  0.3285  0.2303
  116MOL0     O15188   7.223   5.401   0.609  0.4620  0.1754  0.1536
  116MOL0     C15189   7.204   5.430   0.465 -1.3018 -0.1484  0.4610
  116MOL0     C15190   7.063   5.397   0.423 -0.3341  0.3546  0.1646
  116MOL0     C15191   7.059   5.376   0.270 -0.4591  0.5396  0.4897
  116MOL0     C15192   7.070   5.227   0.243 -0.9346 -0.4230  1.1847
  116MOL0     C15193   7.015   5.196   0.097 -0.3313 -0.5978 -0.0354
  116MOL0     C15194   7.103   5.243  -0.018  0.4274 -0.7505  0.5407
  116MOL0     C15195   7.026   5.214  -0.150 -0.3201 -0.2218 -0.4036
  116MOL0     C15196   7.141   5.249  -0.254  0.9478 -1.1263  0.1273
  116MOL0     N15197   7.241   5.143  -0.249  0.5943 -0.1707 -0.2094
  116MOL0     C15198   7.364   5.157  -0.195 -1.1478  0.5763 -0.2289
  116MOL0     C15199   7.445   5.051  -0.234  0.6353  0.2111  0.3494
  116MOL0     C15200   7.588   5.019  -0.190 -0.8421 -0.4665  0.0754
  116MOL0     C15201   7.577   4.897  -0.097 -1.1039 -0.2731  0.4133
  116MOL0     C15202   7.561   4.956   0.051 -0.0822 -0.0720  0.0735
  116MOL0     C15203   7.497   4.847   0.134 -0.5866  0.1468 -0.1578
  116MOL0     O15204   7.357   4.865   0.140  0.3955 -0.2258 -0.4263
  116MOL0     C15205   7.272   4.790   0.065  0.8750 -0.2532 -0.1416
  116MOL0     C15206   7.277   4.650   0.072 -0.1140  1.7457  0.4265
  116MOL0     C15207   7.184   4.571   0.007 -0.1740 -0.2199 -0.2777
  116MOL0     C15208   7.086   4.633  -0.073 -0.8983 -0.4244  0.0375
  116MOL0     C15209   6.983   4.549  -0.133  0.2043  0.0599  1.2481
  116MOL0     O15210   6.886   4.633  -0.189 -0.4807  0.4000  0.4001
  116MOL0     C15211   6.764   4.575  -0.227 -0.0133 -0.6101  0.3296
  116MOL0     C15212   6.767   4.480  -0.332 -0.0780 -1.0410  1.2677
  116MOL0     C15213   6.647   4.435  -0.381  0.2402 -0.0231 -0.4082
  116MOL0     C15214   6.524   4.472  -0.316 -0.5643  0.6651  0.8541
  116MOL0     O15215   6.404   4.411  -0.334  0.0631  0.5606 -0.0293
  116MOL0     C15216   6.388   4.329  -0.445 -0.0636  0.4476 -0.4319
  116MOL0     C15217   6.246   4.293  -0.458  0.0765 -0.0683 -1.3218
  116MOL0     C15218   6.174   4.407  -0.532  0.3508 -0.6545 -0.8663
  116MOL0     C15219   6.025   4.401  -0.504 -0.6919  0.4679 -0.3163
  116MOL0     C15220   5.980   4.429  -0.358 -1.1494 -0.4941 -0.4166
  116MOL0     C15221   5.826   4.438  -0.342 -0.2588 -0.1294 -0.6108
  116MOL0     C15222   5.777   4.452  -0.194 -0.0722 -0.2008 -0.7545
  116MOL0     C15223   5.711   4.591  -0.176  0.2890  0.2351  0.1226
  116MOL0    Cl15224   5.710   4.635  -0.003 -0.1380  0.1111  0.0090
  116MOL0     C15225   6.533   4.559  -0.207  0.3558  0.2208 -0.2302
  116MOL0     C15226   6.648   4.618  -0.163 -0.6725  0.0901  0.6824
  116MOL0     O15227   6.969   4.423  -0.127 -0.1384 -0.2161  0.2002
  116MOL0     C15228   7.079   4.775  -0.073 -0.1388 -0.3127  1.3786
  116MOL0     C15229   7.174   4.853  -0.005  0.6486  0.0942  0.3685
  116MOL0     N15230   7.363   4.980  -0.318  0.1046 -0.8972 -0.0962
  116MOL0     N15231   7.242   5.030  -0.315 -0.8378  0.7945  0.8268
  116MOL0     C15232   7.450   5.502   0.619  0.1687 -0.3001  0.1327
  116MOL0     C15233   7.551   5.538   0.705  0.0271  0.9239 -0.9106
  116MOL0     C15234   7.888   5.576   0.929 -0.4511  0.3868 -0.3398
  116MOL0     C15235   7.891   5.704   0.975  0.6258 -0.9316 -0.7371
  116MOL0     C15236   8.010   5.762   0.976 -0.2924 -1.0028  1.0216
  116MOL0     C15237   8.136   5.699   0.940 -0.0788 -0.0398  0.9569
  116MOL0     O15238   8.266   5.747   0.981  0.1403 -0.2245 -0.0787
  116MOL0     C15239   8.295   5.885   0.983 -0.3283  0.1962  0.9508
  116MOL0     C15240   8.450   5.907   0.997 -1.6866 -0.2030 -0.0076
  116MOL0     C15241   8.538   5.809   0.920 -0.1611  0.7063  0.1362
  116MOL0     C15242   8.684   5.823   0.969  1.3226 -0.0548 -0.0206
  116MOL0     C15243   8.748   5.953   0.942  0.1538  0.0095  0.6920
  116MOL0     C15244   8.795   6.070   0.931  0.3513 -0.0265  0.1416
  116MOL0     C15245   8.133   5.577   0.891 -0.1094  0.0211 -0.4259
  116MOL0     C15246   8.014   5.509   0.880 -0.6474 -1.2159  0.0044
  116MOL0     H15247   7.420   5.481   1.009 -1.8819 -0.7605  0.3617
  116MOL0     H15248   7.225   5.423   0.867  0.6449 -0.2517  0.6465
  116MOL0     H15249   7.269   5.361   0.411 -0.6817  0.1721  0.7820
  116MOL0     H15250   7.248   5.528   0.443  2.5638 -2.0947 -1.4217
  116MOL0     H15251   6.998   5.484   0.438 -0.1824  0.3781  0.7459
  116MOL0     H15252   7.014   5.314   0.474 -1.1092  1.8327  1.9423
  116MOL0     H15253   7.148   5.421   0.224  1.1311 -0.0804  2.8380
  116MOL0     H15254   6.967   5.414   0.224  0.7415  0.8160 -1.8866
  116MOL0     H15255   7.174   5.194   0.251 -0.8176 -0.1653  0.7585
  116MOL0     H15256   7.021   5.158   0.312  0.2564 -1.3877  1.1009
  116MOL0     H15257   6.915   5.240   0.087  1.3512  3.8985  0.6634
  116MOL0     H15258   7.011   5.087   0.090  0.9169 -0.7061  0.7696
  116MOL0     H15259   7.203   5.199  -0.013 -0.3833 -3.3265 -2.6672
  116MOL0     H15260   7.116   5.350  -0.001  4.1361 -1.0694  0.6492
  116MOL0     H15261   6.985   5.113  -0.163  1.2027 -1.2197  1.8973
  116MOL0     H15262   6.947   5.287  -0.167 -1.1858 -0.1596  3.0935
  116MOL0     H15263   7.184   5.346  -0.227  1.4099 -0.8893 -1.3465
  116MOL0     H15264   7.100   5.270  -0.353  1.7466  0.9506  0.1691
  116MOL0     H15265   7.399   5.234  -0.127  1.5293 -2.0837  1.6252
  116MOL0     H15266   7.625   5.107  -0.137 -2.4301  0.7867 -0.8087
  116MOL0     H15267   7.639   5.000  -0.285 -1.0837  0.6359 -0.2862
  116MOL0     H15268   7.668   4.837  -0.083 -0.0801  0.5855 -1.9800
  116MOL0     H15269   7.495   4.841  -0.143 -1.0869  0.8009 -0.9792
  116MOL0     H15270   7.663   4.969   0.089  0.2652 -4.0354  1.0221
  116MOL0     H15271   7.489   5.038   0.048 -1.5142 -1.2912 -0.1701
  116MOL0     H15272   7.552   4.846   0.229 -0.6167 -1.8725 -0.1202
  116MOL0     H15273   7.527   4.752   0.088  0.1103 -0.0339  0.6255
  116MOL0     H15274   7.345   4.586   0.127 -1.4891 -1.6016 -1.4787
  116MOL0     H15275   7.178   4.462   0.015 -1.0162 -0.1647 -0.0608
  116MOL0     H15276   6.861   4.458  -0.383 -3.3045 -3.6487 -4.5499
  116MOL0     H15277   6.648   4.363  -0.462  2.7709  2.4515 -2.8162
  116MOL0     H15278   6.440   4.234  -0.426 -0.1706  0.6772  1.1592
  116MOL0     H15279   6.430   4.370  -0.537 -1.0167  2.0792 -0.1811
  116MOL0     H15280   6.215   4.265  -0.357  0.7547  4.2226  0.2908
  116MOL0     H15281   6.222   4.207  -0.521 -1.5487  1.4228 -2.8706
  116MOL0     H15282   6.190   4.391  -0.639  2.0098  0.0782 -0.7629
  116MOL0     H15283   6.203   4.505  -0.493 -1.2433 -1.0380  1.4498
  116MOL0     H15284   5.967   4.472  -0.564  0.6376  0.6693 -1.4215
  116MOL0     H15285   5.986   4.304  -0.536 -2.1293  1.2735 -1.1433
  116MOL0     H15286   6.013   4.526  -0.319  1.0871 -1.1595 -0.4941
  116MOL0     H15287   6.011   4.348  -0.292 -2.7225 -0.4106  0.4531
  116MOL0     H15288   5.781   4.349  -0.387 -1.9857  1.0005 -1.2195
  116MOL0     H15289   5.784   4.521  -0.401 -1.2728  0.3162  0.6909
  116MOL0     H15290   5.708   4.369  -0.173 -0.1159 -0.0888 -0.4419
  116MOL0     H15291   5.866   4.454  -0.129 -0.2599 -1.5397 -0.4199
  116MOL0     H15292   5.604   4.581  -0.197  0.2699 -0.5032  0.5285
  116MOL0     H15293   5.750   4.667  -0.244 -0.7867  1.3944  0.7748
  116MOL0     H15294   6.448   4.592  -0.149 -0.9767  0.4621 -2.2231
  116MOL0     H15295   6.645   4.668  -0.067 -0.0007  0.0211  0.7480
  116MOL0     H15296   7.003   4.830  -0.128  2.7016  5.0491  2.1055
  116MOL0     H15297   7.165   4.961  -0.007  2.4616  0.3213  1.8039
  116MOL0     H15298   7.464   5.505   0.511 -1.8843 -0.0148 -0.1634
  116MOL0     H15299   7.653   5.545   0.668  0.7909  1.4562  1.1425
  116MOL0     H15300   7.805   5.757   1.015 -0.4005 -0.5235 -3.3318
  116MOL0     H15301   8.019   5.864   1.011  3.5046 -0.8983  0.1091
  116MOL0     H15302   8.240   5.933   1.064 -1.7154 -1.4962  1.0590
  116MOL0     H15303   8.267   5.932   0.888 -0.4611 -1.5871  0.0746
  116MOL0     H15304   8.479   6.012   0.988  1.6051 -1.0117  0.1346
  116MOL0     H15305   8.474   5.882   1.101 -0.4732 -3.3110 -0.9216
  116MOL0     H15306   8.527   5.832   0.813  2.3031  3.6844  0.3942
  116MOL0     H15307   8.505   5.707   0.945  1.0056  0.5575  1.1349
  116MOL0     H15308   8.689   5.804   1.076 -0.5351 -0.9910 -0.0655
  116MOL0     H15309   8.742   5.748   0.915  0.1057 -0.8660 -0.2372
  116MOL0     H15310   8.847   6.163   0.925  0.2495 -0.0778 -2.7420
  116MOL0     H15311   8.228   5.528   0.871  1.5792  2.0323  1.9595
  116MOL0     H15312   7.999   5.405   0.855  0.4845 -1.6355  0.9654
  117MOL0     O15313   2.716   3.820   7.424  0.0624 -0.4205 -0.1537
  117MOL0     C15314   2.771   3.770   7.323 -0.6012  0.1301  0.4616
  117MOL0     O15315   2.803   3.636   7.319 -0.2625  0.4839  0.4988
  117MOL0     C15316   2.775   3.563   7.437 -0.1321 -0.8045  0.7224
  117MOL0     C15317   2.652   3.527   7.462  0.1517  0.3695  0.0318
  117MOL0     C15318   2.628   3.447   7.569  0.2752 -0.3030 -0.2712
  117MOL0     C15319   2.730   3.403   7.651  0.6282  0.5601 -0.5948
  117MOL0     O15320   2.723   3.325   7.761 -0.4806  0.5624  0.7012
  117MOL0     C15321   2.593   3.273   7.799 -0.1582  0.7564  0.0203
  117MOL0     C15322   2.596   3.178   7.920  0.5430  0.7592 -1.8377
  117MOL0     C15323   2.599   3.251   8.061  0.5053 -0.6220  0.4307
  117MOL0     C15324   2.477   3.340   8.089 -0.5370 -0.3468 -0.1061
  117MOL0     C15325   2.468   3.384   8.239  0.0880  0.2178 -0.6374
  117MOL0     C15326   2.342   3.464   8.255  0.6743  0.4211 -0.1823
  117MOL0     C15327   2.325   3.523   8.405 -0.2490 -0.2411  0.0591
  117MOL0     C15328   2.191   3.598   8.438 -0.3968 -0.1360  0.0355
  117MOL0     N15329   2.070   3.520   8.408  0.2443 -0.8135 -0.4751
  117MOL0     C15330   1.945   3.573   8.391 -0.1430 -0.5333 -0.5887
  117MOL0     C15331   1.857   3.474   8.406 -0.1151 -0.6008 -0.0994
  117MOL0     C15332   1.715   3.491   8.451  0.3820 -0.1356  0.5779
  117MOL0     C15333   1.619   3.384   8.387 -1.0845  0.7293 -0.5260
  117MOL0     C15334   1.618   3.403   8.238 -0.6250  0.3749 -0.4967
  117MOL0     C15335   1.523   3.296   8.169  0.3831  0.3869  0.6787
  117MOL0     O15336   1.530   3.307   8.021 -0.3926  0.0272  0.3477
  117MOL0     C15337   1.428   3.381   7.962 -0.3567  1.3482 -0.2641
  117MOL0     C15338   1.377   3.492   8.030  0.1248 -0.9374 -0.0228
  117MOL0     C15339   1.262   3.554   7.982  0.4433  0.7024 -0.1746
  117MOL0     C15340   1.193   3.514   7.872 -0.1878 -0.4897 -0.1595
  117MOL0     C15341   1.070   3.584   7.836 -0.4397  0.1593  0.2570
  117MOL0     O15342   1.007   3.543   7.729  0.1544 -0.3102 -0.5369
  117MOL0     C15343   0.877   3.582   7.693 -0.3264 -0.5736 -1.0790
  117MOL0     C15344   0.812   3.486   7.625  0.0380 -0.7662 -0.4693
  117MOL0     C15345   0.684   3.518   7.583 -0.3843  0.3867 -0.5100
  117MOL0     C15346   0.621   3.630   7.612  0.6240 -0.7251  0.5946
  117MOL0     O15347   0.496   3.668   7.569  0.2009 -1.3031 -0.2180
  117MOL0     C15348   0.390   3.575   7.573 -0.1205 -1.2202  1.0423
  117MOL0     C15349   0.286   3.620   7.465  0.1371 -0.6099 -0.0131
  117MOL0     C15350   0.150   3.541   7.477 -0.6731  0.7421  0.4112
  117MOL0     C15351   0.040   3.601   7.381  0.4217  0.8367  0.2528
  117MOL0     C15352  -0.098   3.545   7.399  0.4372  0.2497 -0.5173
  117MOL0     C15353  -0.169   3.584   7.532 -0.1466 -0.5408  0.1493
  117MOL0     C15354  -0.316   3.576   7.531  0.2303  0.2292 -0.0146
  117MOL0     C15355  -0.391   3.623   7.662 -0.4894  0.2283  0.2244
  117MOL0    Cl15356  -0.389   3.799   7.666 -0.0623 -0.1790  0.4829
  117MOL0     C15357   0.703   3.732   7.662  1.0007 -0.2372 -0.4923
  117MOL0     C15358   0.833   3.712   7.704  0.5690 -0.2239  0.8961
  117MOL0     O15359   1.033   3.685   7.899  0.4616  0.6369 -0.9489
  117MOL0     C15360   1.244   3.392   7.801  0.2168 -0.5060  0.4282
  117MOL0     C15361   1.362   3.330   7.840 -0.3326 -0.1641 -0.3508
  117MOL0     N15362   1.924   3.359   8.405 -0.7461 -1.3208  0.1398
  117MOL0     N15363   2.050   3.383   8.424 -0.1210 -0.2053 -0.7042
  117MOL0     C15364   2.862   3.443   7.621 -0.5059 -0.7597 -0.3227
  117MOL0     C15365   2.883   3.529   7.513  0.5125 -0.4327  0.6405
  117MOL0     C15366   2.793   3.862   7.209  0.7034 -0.4847  0.6138
  117MOL0     C15367   2.771   4.000   7.218  0.5380  0.1923  0.6704
  117MOL0     C15368   2.790   4.084   7.108  0.1481  0.3030 -0.1316
  117MOL0     C15369   2.819   4.039   6.987 -1.0627  0.0262  0.2500
  117MOL0     O15370   2.835   4.112   6.871  0.2314 -0.4321 -0.6786
  117MOL0     C15371   2.773   4.235   6.861 -0.4360  0.0176 -0.1383
  117MOL0     C15372   2.773   4.264   6.713  0.1574 -0.1075 -0.5239
  117MOL0     C15373   2.702   4.152   6.631  0.3740 -0.1344  0.4879
  117MOL0     C15374   2.678   4.206   6.491 -0.2345 -0.2597 -0.0652
  117MOL0     C15375   2.798   4.279   6.426 -0.2699 -0.0423 -0.7305
  117MOL0     C15376   2.884   4.340   6.369  0.3362 -0.5121  0.3764
  117MOL0     C15377   2.856   3.905   6.975 -0.7448  0.7731 -0.3947
  117MOL0     C15378   2.849   3.811   7.085  0.1830  0.6810 -0.4417
  117MOL0     H15379   2.576   3.563   7.393  0.5908  2.8865  0.7432
  117MOL0     H15380   2.528   3.407   7.587  0.7905 -0.6117  2.3282
  117MOL0     H15381   2.557   3.211   7.716 -0.2745 -1.8115  1.8674
  117MOL0     H15382   2.528   3.361   7.798 -1.0538  0.1060 -1.0136
  117MOL0     H15383   2.677   3.104   7.914  1.7287  1.9622 -1.1838
  117MOL0     H15384   2.509   3.111   7.922  0.8741  0.0978  3.5588
  117MOL0     H15385   2.690   3.311   8.065 -1.1950  2.1854 -0.2166
  117MOL0     H15386   2.602   3.176   8.141  0.4047  1.3685  2.4073
  117MOL0     H15387   2.488   3.422   8.019  0.5081  1.6274  2.2257
  117MOL0     H15388   2.385   3.289   8.058  0.3754 -0.5544 -2.7044
  117MOL0     H15389   2.556   3.445   8.262  0.5894 -0.5005 -0.6548
  117MOL0     H15390   2.462   3.302   8.310 -0.3742  0.4676 -0.3777
  117MOL0     H15391   2.257   3.410   8.213  1.0464  1.4946 -2.4968
  117MOL0     H15392   2.338   3.543   8.180 -1.5697  1.8449  1.3146
  117MOL0     H15393   2.351   3.439   8.469 -0.4786 -0.4905 -0.1745
  117MOL0     H15394   2.406   3.596   8.414  1.4621 -2.0985  0.3881
  117MOL0     H15395   2.197   3.697   8.392 -1.7989  1.1997  2.5191
  117MOL0     H15396   2.182   3.629   8.542  0.1608  1.0843 -0.2595
  117MOL0     H15397   1.920   3.678   8.405  0.2914 -0.5529  0.3789
  117MOL0     H15398   1.672   3.587   8.420 -2.6783 -1.4109  0.4564
  117MOL0     H15399   1.698   3.494   8.559 -1.3632  0.4805  0.3171
  117MOL0     H15400   1.517   3.391   8.424 -0.7928  2.4093  0.0370
  117MOL0     H15401   1.658   3.289   8.425  1.6436  1.4621 -1.2325
  117MOL0     H15402   1.591   3.506   8.212  1.5650  1.1827  0.2494
  117MOL0     H15403   1.718   3.393   8.194 -1.1576 -0.8573 -1.5159
  117MOL0     H15404   1.419   3.297   8.202 -0.5485  4.3216 -1.6856
  117MOL0     H15405   1.571   3.200   8.188 -1.6565 -1.0274 -0.8969
  117MOL0     H15406   1.409   3.547   8.118  1.7084  0.1125 -1.2021
  117MOL0     H15407   1.222   3.628   8.049 -0.1080 -1.1184  1.5982
  117MOL0     H15408   0.859   3.391   7.603 -0.0110 -1.6179  2.5735
  117MOL0     H15409   0.640   3.431   7.536  2.0647 -0.2113 -1.8659
  117MOL0     H15410   0.336   3.585   7.668 -1.7041  2.2953 -0.0790
  117MOL0     H15411   0.426   3.474   7.553 -0.8816 -1.5558  1.3341
  117MOL0     H15412   0.320   3.605   7.363 -0.9937  0.5888 -0.5980
  117MOL0     H15413   0.277   3.727   7.484  0.9646 -0.5301 -0.0702
  117MOL0     H15414   0.122   3.534   7.583 -1.6075  0.0429  0.1271
  117MOL0     H15415   0.159   3.439   7.441 -2.0986  1.1417 -1.1754
  117MOL0     H15416   0.044   3.710   7.385  0.0198  0.8501  0.3973
  117MOL0     H15417   0.060   3.582   7.275  1.9550  2.1814  0.2743
  117MOL0     H15418  -0.092   3.436   7.399 -2.1344  0.0468 -0.4748
  117MOL0     H15419  -0.165   3.574   7.317 -1.4326 -4.2325 -0.8899
  117MOL0     H15420  -0.152   3.690   7.554  0.2381 -0.1539 -1.8032
  117MOL0     H15421  -0.118   3.522   7.606  0.1517  3.5760  3.8116
  117MOL0     H15422  -0.350   3.640   7.449 -2.9804 -0.1226  0.8921
  117MOL0     H15423  -0.346   3.471   7.523 -4.1007  1.1939  0.8768
  117MOL0     H15424  -0.355   3.577   7.754 -1.9495  0.7597  1.1054
  117MOL0     H15425  -0.491   3.581   7.649 -0.4948 -0.0598  1.1081
  117MOL0     H15426   0.652   3.828   7.668 -1.7918 -1.6616  0.4132
  117MOL0     H15427   0.885   3.798   7.746 -0.9965  1.2951 -0.1083
  117MOL0     H15428   1.179   3.359   7.721  2.5519 -2.2510 -0.8676
  117MOL0     H15429   1.397   3.235   7.800  0.1727 -0.7863  1.4694
  117MOL0     H15430   2.938   3.418   7.695 -0.1684  0.6422 -0.1631
  117MOL0     H15431   2.979   3.569   7.483 -1.0153  1.8045 -1.7375
  117MOL0     H15432   2.747   4.055   7.309  4.6872 -0.7650  2.5526
  117MOL0     H15433   2.781   4.192   7.116 -3.5909  0.3138 -2.3204
  117MOL0     H15434   2.830   4.303   6.926  3.2322 -2.1832 -0.7873
  117MOL0     H15435   2.670   4.240   6.898 -1.7121  1.0632 -3.4367
  117MOL0     H15436   2.713   4.352   6.689 -0.6652 -0.6316 -0.4320
  117MOL0     H15437   2.876   4.282   6.681 -0.0495  1.7369 -0.2983
  117MOL0     H15438   2.607   4.123   6.677 -0.6425  1.1842 -0.6627
  117MOL0     H15439   2.770   4.067   6.621 -0.8697 -0.9483 -2.0167
  117MOL0     H15440   2.659   4.118   6.428  2.4063  0.4174 -1.9876
  117MOL0     H15441   2.591   4.271   6.498 -0.6539 -0.7536 -0.5498
  117MOL0     H15442   2.960   4.401   6.327  1.5275 -2.1117  0.1228
  117MOL0     H15443   2.888   3.867   6.878 -0.1240  1.6223 -0.5328
  117MOL0     H15444   2.876   3.707   7.071 -0.5110  0.2479  1.1756
  118MOL0     O15445  10.709   3.958   5.995 -0.2685  0.2338  0.3399
  118MOL0     C15446  10.713   3.933   6.116 -1.2099  0.4524 -0.3638
  118MOL0     O15447  10.825   3.924   6.194 -0.4148 -0.5348 -0.4858
  118MOL0     C15448  10.949   3.927   6.154  0.3240 -0.6889  0.4387
  118MOL0     C15449  11.036   3.868   6.240 -0.5018 -0.0758 -0.2117
  118MOL0     C15450  11.172   3.872   6.214  0.4378  1.3092  0.4396
  118MOL0     C15451  11.227   3.923   6.101 -0.0247 -0.3964  1.2703
  118MOL0     O15452  11.358   3.935   6.082 -0.4699 -0.0988  0.5018
  118MOL0     C15453  11.448   3.832   6.124 -0.4476  0.2863 -0.3248
  118MOL0     C15454  11.565   3.823   6.026 -0.6022  0.1386  0.0210
  118MOL0     C15455  11.644   3.953   5.992  0.2259  0.5149  0.6771
  118MOL0     C15456  11.703   3.947   5.853  0.2076 -0.4667 -0.4280
  118MOL0     C15457  11.801   4.059   5.837  0.4392  0.0552 -0.5689
  118MOL0     C15458  11.863   4.044   5.693  0.9271 -0.2460  0.9696
  118MOL0     C15459  11.999   4.120   5.670  0.2728  0.5445 -0.1333
  118MOL0     C15460  12.130   4.089   5.756  0.3721  0.1052  0.3241
  118MOL0     N15461  12.238   4.184   5.716 -0.2070 -0.4592  0.5978
  118MOL0     C15462  12.368   4.168   5.718 -0.2954  0.3665 -0.1106
  118MOL0     C15463  12.413   4.282   5.673  0.3657  0.4467  0.6087
  118MOL0     C15464  12.560   4.313   5.679 -0.1504  0.1149 -0.7819
  118MOL0     C15465  12.601   4.352   5.821  0.0985  0.3807 -0.4131
  118MOL0     C15466  12.542   4.492   5.858 -0.1541  0.5801 -0.5728
  118MOL0     C15467  12.627   4.614   5.820  0.5851  0.2235  1.0714
  118MOL0     O15468  12.750   4.601   5.876 -0.0027  0.1918  0.1705
  118MOL0     C15469  12.841   4.704   5.851 -0.1641 -0.1574 -0.8588
  118MOL0     C15470  12.838   4.792   5.738 -0.3017  0.0671 -1.0341
  118MOL0     C15471  12.925   4.897   5.727 -0.0049  0.5363 -0.5449
  118MOL0     C15472  13.030   4.920   5.826 -0.5912  0.1427  0.5011
  118MOL0     C15473  13.137   5.018   5.803  0.3590  0.3481 -0.2829
  118MOL0     O15474  13.136   5.069   5.679 -0.6802  0.3545  1.2217
  118MOL0     C15475  13.200   5.187   5.659 -0.4083  0.4980 -0.1363
  118MOL0     C15476  13.322   5.178   5.592 -0.1913 -0.0206  0.4325
  118MOL0     C15477  13.403   5.290   5.580 -0.6496  0.4823  0.8372
  118MOL0     C15478  13.360   5.414   5.620  0.3738  0.5642 -0.9195
  118MOL0     O15479  13.449   5.511   5.604 -0.6077 -0.1825 -0.3432
  118MOL0     C15480  13.411   5.622   5.526  0.0542  0.5991 -0.1870
  118MOL0     C15481  13.516   5.741   5.507 -0.7266  0.8973  0.5509
  118MOL0     C15482  13.647   5.693   5.448  0.6954  0.7189  0.0579
  118MOL0     C15483  13.759   5.795   5.484 -0.1253 -0.0601 -0.5750
  118MOL0     C15484  13.891   5.728   5.426  0.2334 -0.4113  0.6448
  118MOL0     C15485  14.013   5.799   5.473 -0.5002 -0.9611  0.4471
  118MOL0     C15486  14.028   5.930   5.392  0.1582 -0.1316 -0.3881
  118MOL0     C15487  14.159   6.008   5.418 -0.0821  0.2252 -0.1733
  118MOL0    Cl15488  14.188   6.046   5.597  0.4157  0.3607 -0.0743
  118MOL0     C15489  13.239   5.429   5.683  1.4185  0.2294  0.6768
  118MOL0     C15490  13.152   5.313   5.700  0.4411  0.1521 -0.2651
  118MOL0     O15491  13.215   5.046   5.895 -0.4805  0.7765 -0.0990
  118MOL0     C15492  13.028   4.840   5.939 -0.0092  0.6765  0.3269
  118MOL0     C15493  12.933   4.740   5.945 -0.1404 -0.4141 -1.6468
  118MOL0     N15494  12.316   4.368   5.636  0.8796 -0.3696 -0.8858
  118MOL0     N15495  12.206   4.313   5.669  0.0700  0.0829  0.0628
  118MOL0     C15496  11.141   3.982   6.010  0.0902  0.7156  0.8514
  118MOL0     C15497  11.004   3.976   6.034  0.2090  0.0342 -0.0207
  118MOL0     C15498  10.590   3.913   6.194 -0.7528  0.2018  0.1393
  118MOL0     C15499  10.595   3.903   6.331 -1.0449  0.4815  0.2978
  118MOL0     C15500  10.482   3.874   6.395  0.4724  0.5739  0.1731
  118MOL0     C15501  10.360   3.850   6.329  0.1096 -0.5896  1.0951
  118MOL0     O15502  10.252   3.839   6.416 -0.2950  0.5715 -0.5780
  118MOL0     C15503  10.139   3.771   6.357  0.4815 -0.1224 -0.7858
  118MOL0     C15504  10.040   3.732   6.468 -0.5362 -0.5292 -0.7250
  118MOL0     C15505   9.901   3.686   6.424  0.3973  0.5200  0.2086
  118MOL0     C15506   9.832   3.614   6.534  0.2103  0.8592  0.7554
  118MOL0     C15507   9.712   3.558   6.484  0.1844  0.1330  0.0157
  118MOL0     C15508   9.614   3.500   6.441 -0.3016 -0.3585  0.7817
  118MOL0     C15509  10.353   3.860   6.180  0.2136  1.1301 -0.8075
  118MOL0     C15510  10.478   3.881   6.120  0.4347 -0.0140 -0.7048
  118MOL0     H15511  10.997   3.830   6.334 -1.6003  0.6000 -0.3752
  118MOL0     H15512  11.239   3.836   6.292  2.1736 -0.4914 -1.7385
  118MOL0     H15513  11.392   3.740   6.142 -0.0064  0.0705 -0.0677
  118MOL0     H15514  11.494   3.869   6.216 -2.7370 -3.3749  2.5763
  118MOL0     H15515  11.513   3.796   5.934 -0.5589  2.2180 -0.6446
  118MOL0     H15516  11.640   3.748   6.052  2.1720  1.1173 -4.2325
  118MOL0     H15517  11.722   3.958   6.069  0.5919 -2.9259  0.6748
  118MOL0     H15518  11.576   4.039   5.998 -1.3083 -0.6645  0.7530
  118MOL0     H15519  11.762   3.855   5.847  0.2144 -0.5636  0.8729
  118MOL0     H15520  11.623   3.950   5.778 -0.8851 -0.1212  0.7122
  118MOL0     H15521  11.882   4.039   5.908 -0.7845 -4.1780 -0.1275
  118MOL0     H15522  11.757   4.158   5.852 -2.4754 -1.1966 -0.0965
  118MOL0     H15523  11.787   4.066   5.618  1.1174 -0.7596  0.6168
  118MOL0     H15524  11.876   3.935   5.684 -2.2644 -0.5689 -1.3221
  118MOL0     H15525  12.020   4.085   5.569 -0.6992 -2.4090  0.5814
  118MOL0     H15526  11.968   4.225   5.670 -1.1357  0.1631 -0.8194
  118MOL0     H15527  12.156   3.985   5.737 -1.1058 -0.3036  0.4565
  118MOL0     H15528  12.114   4.083   5.864 -0.4783  1.6289  0.3066
  118MOL0     H15529  12.437   4.095   5.760 -1.8769 -0.3123  1.4094
  118MOL0     H15530  12.579   4.390   5.604 -1.3572  0.8229 -0.3920
  118MOL0     H15531  12.608   4.217   5.656  1.3057  0.8620 -0.9823
  118MOL0     H15532  12.710   4.351   5.824  0.1723  1.2613 -1.8281
  118MOL0     H15533  12.569   4.275   5.892  1.6254  0.0908 -0.0070
  118MOL0     H15534  12.437   4.500   5.830  0.2179 -0.7496 -2.5125
  118MOL0     H15535  12.531   4.501   5.967  0.7167  2.3811 -0.5963
  118MOL0     H15536  12.579   4.703   5.862  1.9359  0.5970  1.9035
  118MOL0     H15537  12.631   4.621   5.711 -1.6831 -0.8703  0.8587
  118MOL0     H15538  12.768   4.787   5.654 -0.4205  3.9221 -1.3087
  118MOL0     H15539  12.928   4.949   5.632  1.3004 -0.4658 -1.0789
  118MOL0     H15540  13.360   5.083   5.559  0.1669  0.7497 -1.4724
  118MOL0     H15541  13.497   5.291   5.525  0.8717  4.7429  3.0945
  118MOL0     H15542  13.330   5.677   5.574  3.0703  2.9663  2.6525
  118MOL0     H15543  13.382   5.589   5.425  2.6928 -0.4423 -0.7020
  118MOL0     H15544  13.533   5.785   5.606 -0.3142  1.9049  0.0440
  118MOL0     H15545  13.476   5.815   5.438  1.2191  2.8223  1.3826
  118MOL0     H15546  13.645   5.672   5.341 -0.2512  2.2367 -0.2551
  118MOL0     H15547  13.677   5.597   5.492 -2.4658 -0.6449 -0.4500
  118MOL0     H15548  13.737   5.892   5.439  1.0055  0.0803 -0.8595
  118MOL0     H15549  13.768   5.811   5.592 -2.2090  2.9160 -0.7299
  118MOL0     H15550  13.896   5.716   5.317  0.7891 -1.2692  0.7509
  118MOL0     H15551  13.894   5.628   5.470 -1.0584 -1.2999 -1.1656
  118MOL0     H15552  14.098   5.739   5.439  1.2465  0.4553  2.1098
  118MOL0     H15553  14.018   5.815   5.581  1.6697  0.1443  0.2312
  118MOL0     H15554  14.021   5.916   5.284 -2.9762 -0.6066 -0.2293
  118MOL0     H15555  13.943   5.989   5.430  1.6720  1.8375  0.0996
  118MOL0     H15556  14.154   6.107   5.371 -2.0658 -1.1006 -3.0706
  118MOL0     H15557  14.232   5.939   5.377 -0.3356 -0.9100  1.2085
  118MOL0     H15558  13.218   5.533   5.705 -0.4002  0.5771 -2.1442
  118MOL0     H15559  13.051   5.322   5.739  0.7619 -0.1200  0.6430
  118MOL0     H15560  13.088   4.851   6.029 -1.0121  0.7100  1.0067
  118MOL0     H15561  12.934   4.701   6.046  1.2778  1.5078 -0.8507
  118MOL0     H15562  11.177   4.014   5.913 -2.0984 -1.3248 -0.7351
  118MOL0     H15563  10.939   4.022   5.960 -2.3282 -2.0083  0.7659
  118MOL0     H15564  10.690   3.925   6.379  0.7112  0.6764 -3.0050
  118MOL0     H15565  10.477   3.863   6.503  0.7161  0.2318  0.1477
  118MOL0     H15566  10.164   3.676   6.309 -0.5447 -1.5577  1.3479
  118MOL0     H15567  10.091   3.837   6.285  0.6638  1.5125  0.5250
  118MOL0     H15568  10.081   3.645   6.520 -1.2322 -0.3743  0.1092
  118MOL0     H15569  10.025   3.820   6.531 -0.3350  0.5590 -2.1519
  118MOL0     H15570   9.915   3.619   6.339 -3.6450 -1.3067  0.7497
  118MOL0     H15571   9.827   3.758   6.387 -0.8584  0.0476  1.6898
  118MOL0     H15572   9.892   3.545   6.594  1.7224  2.4869  1.2146
  118MOL0     H15573   9.804   3.693   6.604  0.1371 -0.8071  2.7134
  118MOL0     H15574   9.525   3.444   6.418  0.6450 -0.8396 -2.1606
  118MOL0     H15575  10.269   3.829   6.119  0.0936 -1.3935  0.5229
  118MOL0     H15576  10.476   3.896   6.013  1.2491  2.7659 -0.4070
  119MOL0     O15577  11.107   4.449  10.941  0.2012 -0.2255  0.2804
  119MOL0     C15578  11.134   4.462  11.053  0.4381  0.6794 -1.0308
  119MOL0     O15579  11.039   4.461  11.157 -0.4069  0.3227  0.4508
  119MOL0     C15580  10.905   4.432  11.125  0.2408 -0.1374 -0.4671
  119MOL0     C15581  10.831   4.490  11.014 -1.2304 -0.7078  0.2380
  119MOL0     C15582  10.694   4.488  11.001 -0.7392 -0.1661  0.6408
  119MOL0     C15583  10.623   4.423  11.095  0.8748 -0.0282 -0.1585
  119MOL0     O15584  10.489   4.406  11.069 -0.4259 -0.6727 -0.5227
  119MOL0     C15585  10.407   4.421  11.188 -1.3105 -0.1138 -0.4384
  119MOL0     C15586  10.281   4.475  11.135  0.4248  0.0807 -0.8466
  119MOL0     C15587  10.176   4.502  11.251 -0.5188 -0.2223  0.7097
  119MOL0     C15588  10.039   4.501  11.168  0.2530  0.2718  0.8879
  119MOL0     C15589   9.922   4.503  11.264  0.1362  0.2551  0.7256
  119MOL0     C15590   9.794   4.524  11.192  0.3439 -0.4273 -0.0431
  119MOL0     C15591   9.671   4.540  11.278 -1.2427 -0.4955  0.6953
  119MOL0     C15592   9.661   4.420  11.387  0.6467 -0.0379 -0.0784
  119MOL0     N15593   9.554   4.446  11.480  0.7029  1.0034 -0.1833
  119MOL0     C15594   9.524   4.369  11.596  0.2859 -0.1043 -0.0897
  119MOL0     C15595   9.399   4.407  11.633 -1.0044 -0.5878  0.2339
  119MOL0     C15596   9.326   4.370  11.760 -0.3255 -0.0096  0.1465
  119MOL0     C15597   9.191   4.317  11.744 -0.9448 -0.0148  0.0666
  119MOL0     C15598   9.111   4.292  11.867  0.4851  0.4075 -0.1006
  119MOL0     C15599   8.961   4.290  11.842 -0.4717  0.4892 -1.0339
  119MOL0     O15600   8.897   4.227  11.951 -0.2423 -0.9316 -0.2200
  119MOL0     C15601   8.765   4.243  11.971  0.2457  0.8734  0.1510
  119MOL0     C15602   8.679   4.311  11.895 -0.6004 -0.0688  0.7099
  119MOL0     C15603   8.540   4.301  11.916 -0.6143  0.0325 -1.0842
  119MOL0     C15604   8.486   4.214  12.014 -0.1813 -0.8050  0.4047
  119MOL0     C15605   8.342   4.186  12.039  0.0484 -0.4642  0.6860
  119MOL0     O15606   8.313   4.109  12.145  0.2523  0.1325 -0.0295
  119MOL0     C15607   8.184   4.076  12.161  1.0297  0.0511 -0.0834
  119MOL0     C15608   8.144   3.947  12.127 -0.1708  0.4675 -0.5550
  119MOL0     C15609   8.004   3.921  12.142  0.0172  0.9391 -0.1023
  119MOL0     C15610   7.906   4.009  12.189 -0.3797 -0.3347 -0.1006
  119MOL0     O15611   7.773   3.973  12.183 -0.1792 -0.2571  0.0685
  119MOL0     C15612   7.689   4.058  12.260 -0.0567  0.0015 -0.4101
  119MOL0     C15613   7.551   4.016  12.232 -0.1551  1.2242 -0.1600
  119MOL0     C15614   7.501   4.086  12.095  0.0292  0.6119 -0.3408
  119MOL0     C15615   7.369   4.031  12.044 -0.7462  0.3444 -0.2162
  119MOL0     C15616   7.256   4.022  12.147  0.9651  0.6889 -0.3548
  119MOL0     C15617   7.141   3.946  12.083 -0.1338  0.9348  1.1656
  119MOL0     C15618   7.019   3.924  12.180  0.1796  0.2780 -0.3374
  119MOL0     C15619   6.913   3.834  12.120  0.1718 -0.5539 -0.2672
  119MOL0    Cl15620   6.763   3.856  12.218  0.3527  0.2304 -0.0902
  119MOL0     C15621   7.957   4.143  12.225 -0.2942  0.6406  0.6549
  119MOL0     C15622   8.093   4.172  12.210 -0.6610 -0.3361 -0.1524
  119MOL0     O15623   8.260   4.241  11.964  0.4542  0.8015 -0.3203
  119MOL0     C15624   8.580   4.147  12.093  0.4232  1.2471 -0.0539
  119MOL0     C15625   8.718   4.162  12.071 -0.8594  1.2975 -0.0321
  119MOL0     N15626   9.348   4.491  11.532  0.1204  0.0431 -0.4637
  119MOL0     N15627   9.441   4.515  11.439  0.9645  0.1589 -0.9372
  119MOL0     C15628  10.690   4.350  11.197  0.9303 -0.2279  0.1356
  119MOL0     C15629  10.827   4.358  11.212 -0.4860 -0.3883  0.4338
  119MOL0     C15630  11.277   4.497  11.077  0.2203  0.1570 -0.0670
  119MOL0     C15631  11.371   4.508  10.971 -1.1867 -0.0912 -0.1253
  119MOL0     C15632  11.508   4.537  11.003  0.7949  0.2686 -0.6092
  119MOL0     C15633  11.543   4.541  11.132 -0.1526  0.1174 -0.6314
  119MOL0     O15634  11.666   4.588  11.149  0.3068 -0.7632  0.0252
  119MOL0     C15635  11.712   4.647  11.280  0.3407  0.2652 -0.4638
  119MOL0     C15636  11.851   4.702  11.267 -0.1422  0.0939 -0.3159
  119MOL0     C15637  11.885   4.764  11.406 -0.2005 -0.7772  0.2414
  119MOL0     C15638  12.039   4.803  11.407  0.8408  0.3033 -0.0912
  119MOL0     C15639  12.126   4.688  11.391 -0.0998  1.1193 -0.5387
  119MOL0     C15640  12.194   4.590  11.387  0.0239  0.8234 -0.0746
  119MOL0     C15641  11.455   4.518  11.241 -0.5887 -0.9036 -0.2773
  119MOL0     C15642  11.320   4.507  11.207 -0.0528  0.6012 -0.1061
  119MOL0     H15643  10.871   4.570  10.953 -0.9266 -1.7333 -0.9428
  119MOL0     H15644  10.635   4.533  10.922  1.8526  1.3735 -0.5523
  119MOL0     H15645  10.458   4.487  11.258 -0.8767  1.2314 -1.9518
  119MOL0     H15646  10.391   4.326  11.240 -0.4553  1.4902  3.0341
  119MOL0     H15647  10.239   4.405  11.063 -1.7499  1.6966 -1.2763
  119MOL0     H15648  10.313   4.565  11.081  0.9076  1.8892  2.1741
  119MOL0     H15649  10.184   4.594  11.310  1.0403 -1.0360  1.8235
  119MOL0     H15650  10.179   4.413  11.315 -0.1011 -2.6934 -2.4636
  119MOL0     H15651  10.029   4.590  11.105  0.3419 -0.1585  0.2485
  119MOL0     H15652  10.014   4.417  11.102 -1.4288  0.6912  0.9464
  119MOL0     H15653   9.935   4.585  11.335 -2.6074  0.5907  0.9551
  119MOL0     H15654   9.927   4.409  11.319 -0.6882  0.6106  1.4299
  119MOL0     H15655   9.781   4.431  11.135  3.4521 -1.7777  1.2360
  119MOL0     H15656   9.804   4.616  11.134  3.7985  0.7356  2.1066
  119MOL0     H15657   9.660   4.644  11.311  0.7845 -0.2179  0.6712
  119MOL0     H15658   9.590   4.535  11.205  1.7143  0.6949 -2.9855
  119MOL0     H15659   9.756   4.408  11.441  1.8428 -2.5627 -2.4953
  119MOL0     H15660   9.646   4.331  11.325 -2.3759  1.3755 -1.5737
  119MOL0     H15661   9.595   4.309  11.652 -0.5175  0.3982  1.5251
  119MOL0     H15662   9.313   4.459  11.822  2.8511 -0.7820  2.2143
  119MOL0     H15663   9.381   4.286  11.805 -1.1377 -1.1583 -0.9513
  119MOL0     H15664   9.196   4.232  11.675 -2.8001  0.4088 -0.6541
  119MOL0     H15665   9.141   4.398  11.689 -0.2356  0.7506  0.5301
  119MOL0     H15666   9.141   4.195  11.908 -4.1569 -1.0196  0.5075
  119MOL0     H15667   9.124   4.372  11.940  1.6631 -1.5005  1.9167
  119MOL0     H15668   8.941   4.223  11.758  1.0571 -0.3229 -0.7757
  119MOL0     H15669   8.931   4.393  11.822 -2.1921 -0.7395 -6.4176
  119MOL0     H15670   8.723   4.364  11.811 -1.6439 -2.4298 -1.4568
  119MOL0     H15671   8.467   4.359  11.860 -1.2487  0.5670  0.2580
  119MOL0     H15672   8.215   3.875  12.089  1.5137  2.9219 -2.4348
  119MOL0     H15673   7.969   3.823  12.109  2.5314 -0.2071  0.3941
  119MOL0     H15674   7.699   4.165  12.243  3.8053 -0.4981 -2.3043
  119MOL0     H15675   7.717   4.044  12.365  1.7168 -2.4504 -1.1197
  119MOL0     H15676   7.488   4.046  12.317 -0.4825  1.4471 -0.4756
  119MOL0     H15677   7.554   3.909  12.213  2.1350  1.5252 -1.8628
  119MOL0     H15678   7.569   4.075  12.011 -0.7612  0.5781 -0.9924
  119MOL0     H15679   7.492   4.193  12.117  1.2089  0.2933  1.9656
  119MOL0     H15680   7.328   4.092  11.962 -1.5683 -0.3999 -0.3692
  119MOL0     H15681   7.382   3.930  12.006  1.3433 -0.0244  1.3332
  119MOL0     H15682   7.231   4.121  12.187 -0.1691  0.5150 -0.5781
  119MOL0     H15683   7.284   3.964  12.235  0.6081  1.0827  0.0219
  119MOL0     H15684   7.173   3.847  12.049  0.1829  1.7656 -1.1224
  119MOL0     H15685   7.114   3.994  11.988 -1.9121 -3.8922 -1.1389
  119MOL0     H15686   7.054   3.873  12.270  2.0907  1.8782 -0.1042
  119MOL0     H15687   6.985   4.024  12.206  0.2946 -0.3431  2.5104
  119MOL0     H15688   6.951   3.732  12.107 -0.5741 -0.4862 -4.2874
  119MOL0     H15689   6.894   3.872  12.019  0.9545  1.3355  0.2696
  119MOL0     H15690   7.893   4.223  12.262  1.3493  2.5555 -0.4319
  119MOL0     H15691   8.130   4.273  12.222 -0.5946 -0.3465 -0.2701
  119MOL0     H15692   8.549   4.092  12.181 -1.3629  0.3936 -1.1622
  119MOL0     H15693   8.785   4.126  12.148 -1.6428 -2.6887 -1.0211
  119MOL0     H15694  10.631   4.285  11.261  1.0213  1.7773  2.4089
  119MOL0     H15695  10.875   4.325  11.304 -2.6458 -0.9760  1.4090
  119MOL0     H15696  11.338   4.497  10.868  1.1887  0.0863 -0.9754
  119MOL0     H15697  11.575   4.565  10.922 -1.8055 -0.0725 -3.0469
  119MOL0     H15698  11.701   4.574  11.360 -4.8183 -0.9087 -1.8676
  119MOL0     H15699  11.646   4.728  11.312  0.1846 -0.3379  0.7784
  119MOL0     H15700  11.924   4.626  11.237  0.6116  0.4388  0.5917
  119MOL0     H15701  11.861   4.784  11.195  2.0548 -0.7157 -1.0210
  119MOL0     H15702  11.868   4.679  11.473 -2.7807 -2.3199 -2.1444
  119MOL0     H15703  11.824   4.852  11.426 -0.2552 -0.3430 -1.6332
  119MOL0     H15704  12.073   4.880  11.337  1.4924 -0.3134 -0.4651
  119MOL0     H15705  12.064   4.845  11.505  0.6197 -0.1369  0.1570
  119MOL0     H15706  12.244   4.496  11.378 -2.7095 -0.4994 -3.0986
  119MOL0     H15707  11.491   4.522  11.343  0.6195 -1.4288 -0.6578
  119MOL0     H15708  11.250   4.499  11.290 -0.9638  0.2151 -0.8873
  120MOL0     O15709  10.466   1.703   9.524 -0.6195 -0.3755 -0.2136
  120MOL0     C15710  10.456   1.820   9.484  0.7223 -0.2202 -0.1096
  120MOL0     O15711  10.504   1.875   9.366  0.5214 -0.0046  0.7498
  120MOL0     C15712  10.582   1.803   9.282 -0.2000  0.0944 -0.1702
  120MOL0     C15713  10.558   1.673   9.230 -0.1289  0.0992  0.2141
  120MOL0     C15714  10.652   1.629   9.133  0.1467 -0.0496 -0.0788
  120MOL0     C15715  10.766   1.695   9.099 -0.4380 -0.5591  0.2481
  120MOL0     O15716  10.849   1.638   9.010  0.6433  0.2128  0.4112
  120MOL0     C15717  10.966   1.711   8.965  0.9383 -0.1249  0.0041
  120MOL0     C15718  11.037   1.644   8.856 -0.3161  0.0839  0.1312
  120MOL0     C15719  11.136   1.532   8.896 -0.6201  0.3199 -0.7871
  120MOL0     C15720  11.186   1.458   8.769 -0.3334 -0.1555 -0.7723
  120MOL0     C15721  11.280   1.344   8.808  0.2369 -0.6227 -0.0889
  120MOL0     C15722  11.281   1.232   8.709  0.0742  0.4198 -0.5402
  120MOL0     C15723  11.151   1.151   8.707  0.0651  0.2207 -0.0416
  120MOL0     C15724  11.163   1.019   8.623  0.5741  0.6596 -0.5296
  120MOL0     N15725  11.032   0.943   8.602 -0.8238 -0.4480  1.1359
  120MOL0     C15726  10.943   0.917   8.700  0.2442 -0.0246  0.3057
  120MOL0     C15727  10.841   0.861   8.634 -0.6209 -0.1113 -0.0359
  120MOL0     C15728  10.734   0.782   8.694  0.7293 -0.1563 -0.2942
  120MOL0     C15729  10.603   0.863   8.682 -0.2142  0.8835 -0.0383
  120MOL0     C15730  10.539   0.860   8.545  0.7608  0.4024 -0.2310
  120MOL0     C15731  10.390   0.879   8.549 -0.0142 -0.2421  0.5697
  120MOL0     O15732  10.362   1.004   8.620  0.5860  0.1220 -0.3160
  120MOL0     C15733  10.233   1.041   8.638  0.3907 -0.2218 -0.1882
  120MOL0     C15734  10.217   1.157   8.715 -0.7466 -0.5254 -0.1130
  120MOL0     C15735  10.090   1.207   8.747 -0.1361 -0.8964  0.4797
  120MOL0     C15736   9.973   1.150   8.701 -0.0008  0.8319  0.0866
  120MOL0     C15737   9.846   1.220   8.732 -0.0065 -0.8387  0.5584
  120MOL0     O15738   9.857   1.343   8.791 -1.0044  0.1645 -0.0252
  120MOL0     C15739   9.740   1.406   8.820 -0.1959 -0.6866 -0.3827
  120MOL0     C15740   9.691   1.420   8.948  0.4863 -0.2349 -0.1939
  120MOL0     C15741   9.576   1.487   8.972 -0.6360  0.2348  0.0366
  120MOL0     C15742   9.507   1.551   8.869  0.0423  0.1500 -0.3286
  120MOL0     O15743   9.393   1.631   8.894  0.3456  0.2774 -0.3301
  120MOL0     C15744   9.306   1.605   9.010  0.1644 -0.0092  0.1447
  120MOL0     C15745   9.256   1.466   8.988  0.7660 -0.3591  0.0299
  120MOL0     C15746   9.129   1.444   9.076  0.3122  0.3458 -0.0506
  120MOL0     C15747   9.050   1.315   9.069 -0.1062  0.4868 -0.7535
  120MOL0     C15748   8.979   1.298   8.937 -0.6616 -0.0953  0.0433
  120MOL0     C15749   8.848   1.381   8.936  0.0007  0.5700  0.4219
  120MOL0     C15750   8.781   1.386   8.801 -1.0706  0.0958 -0.6122
  120MOL0     C15751   8.649   1.466   8.796 -0.4665  0.3625  0.7299
  120MOL0    Cl15752   8.564   1.490   8.646  0.4072 -0.0190  0.1340
  120MOL0     C15753   9.567   1.558   8.745  0.1894  0.2482  0.0401
  120MOL0     C15754   9.675   1.478   8.720  0.0388  0.1013 -0.2386
  120MOL0     O15755   9.745   1.164   8.697  0.4623 -0.4964  0.0451
  120MOL0     C15756   9.996   1.028   8.625  0.4573 -0.8144 -0.3004
  120MOL0     C15757  10.116   0.983   8.592 -0.4340 -0.3657 -0.3805
  120MOL0     N15758  10.868   0.862   8.503 -0.1697 -0.2783  0.1135
  120MOL0     N15759  10.974   0.925   8.483  0.3776 -0.4171  0.7790
  120MOL0     C15760  10.784   1.831   9.147  0.6335  0.6053  0.9154
  120MOL0     C15761  10.684   1.882   9.235 -0.4856 -0.7517  0.0803
  120MOL0     C15762  10.384   1.920   9.572 -0.2734  0.6689  0.0104
  120MOL0     C15763  10.345   2.045   9.521 -1.3830  0.1314  0.4034
  120MOL0     C15764  10.261   2.128   9.595  0.0794 -0.6948 -0.0659
  120MOL0     C15765  10.222   2.092   9.726 -0.0294  0.5517 -0.1711
  120MOL0     O15766  10.140   2.163   9.801 -0.6358 -0.0396  0.1533
  120MOL0     C15767  10.104   2.300   9.769 -0.2113 -0.3671  0.9159
  120MOL0     C15768   9.957   2.318   9.751 -0.3008  0.4294  0.2005
  120MOL0     C15769   9.881   2.317   9.882 -0.4703  0.2646 -0.7225
  120MOL0     C15770   9.723   2.340   9.845  0.7302  0.2444  0.5626
  120MOL0     C15771   9.640   2.353   9.967  0.6698 -0.6006  0.3565
  120MOL0     C15772   9.582   2.366  10.075 -0.0434 -0.3628 -0.0907
  120MOL0     C15773  10.257   1.971   9.781 -0.4516  1.3866  0.4167
  120MOL0     C15774  10.335   1.886   9.700 -0.2033  0.0812 -0.8285
  120MOL0     H15775  10.477   1.612   9.269 -0.0191 -0.2875 -0.1592
  120MOL0     H15776  10.638   1.525   9.104 -2.9590  0.4439 -0.6896
  120MOL0     H15777  11.037   1.730   9.046  3.3008  1.8281 -2.3471
  120MOL0     H15778  10.928   1.805   8.923 -0.9616  0.0668  1.9701
  120MOL0     H15779  11.089   1.723   8.800 -0.7059  1.5838  1.7927
  120MOL0     H15780  10.965   1.592   8.793  0.8630  0.9928 -2.1115
  120MOL0     H15781  11.089   1.463   8.966 -0.6561  0.2322 -0.8989
  120MOL0     H15782  11.229   1.575   8.935 -0.9035 -1.1546  1.6646
  120MOL0     H15783  11.094   1.429   8.718 -0.1015 -1.1097 -0.6780
  120MOL0     H15784  11.246   1.524   8.706  2.4136  0.1079  1.8745
  120MOL0     H15785  11.268   1.303   8.909  0.6361  1.8108  1.0101
  120MOL0     H15786  11.378   1.392   8.802 -0.9826  1.9811 -0.6386
  120MOL0     H15787  11.358   1.158   8.735  1.6524  1.0279 -3.1586
  120MOL0     H15788  11.311   1.263   8.609 -0.0030 -1.1558 -1.0777
  120MOL0     H15789  11.139   1.126   8.813  1.6032  1.5340  0.4876
  120MOL0     H15790  11.067   1.202   8.659  1.5018  0.1811 -2.8294
  120MOL0     H15791  11.232   0.958   8.682 -0.3563 -0.3386 -0.4426
  120MOL0     H15792  11.205   1.041   8.525  0.9816  1.4694 -0.1827
  120MOL0     H15793  10.945   0.914   8.809 -2.7039  1.4555  0.4947
  120MOL0     H15794  10.759   0.758   8.798  3.4688 -0.9384 -1.0633
  120MOL0     H15795  10.737   0.683   8.648  1.9279  1.1467 -3.2331
  120MOL0     H15796  10.604   0.964   8.723 -3.8186  1.0231  0.0816
  120MOL0     H15797  10.528   0.807   8.739 -2.9765  1.4003 -2.8873
  120MOL0     H15798  10.598   0.930   8.484  1.6247  0.3927  0.5592
  120MOL0     H15799  10.554   0.767   8.489  1.0242  0.1592  0.2287
  120MOL0     H15800  10.355   0.796   8.612  2.9114  0.0111  2.7732
  120MOL0     H15801  10.343   0.879   8.450  2.1035 -1.4368 -0.4991
  120MOL0     H15802  10.295   1.230   8.737 -1.0696  0.7634 -2.8026
  120MOL0     H15803  10.091   1.302   8.799  0.4570 -0.0351 -1.0699
  120MOL0     H15804   9.735   1.352   9.020  0.4076 -3.6212 -3.0813
  120MOL0     H15805   9.540   1.497   9.074 -2.3458 -1.0082 -0.4038
  120MOL0     H15806   9.213   1.663   9.016 -1.5200 -2.5878  0.8252
  120MOL0     H15807   9.357   1.613   9.106 -1.7582 -1.8103  1.4042
  120MOL0     H15808   9.328   1.387   9.012  0.4810 -0.8033 -0.5642
  120MOL0     H15809   9.218   1.464   8.886 -3.6242  0.0528  1.4690
  120MOL0     H15810   9.060   1.521   9.040  1.7342  1.4131 -0.5848
  120MOL0     H15811   9.155   1.464   9.180  1.7966 -0.3917 -0.2497
  120MOL0     H15812   9.125   1.235   9.074 -1.7987 -1.1802 -1.1352
  120MOL0     H15813   8.977   1.301   9.149  0.1201 -1.0013 -0.7767
  120MOL0     H15814   8.963   1.193   8.915 -2.7445 -0.1318  1.5077
  120MOL0     H15815   9.051   1.336   8.864  0.8495 -0.4043  1.3060
  120MOL0     H15816   8.866   1.482   8.974 -0.6261  0.5568  0.7542
  120MOL0     H15817   8.769   1.336   8.996  0.9030 -0.1959  1.0851
  120MOL0     H15818   8.861   1.429   8.740 -1.4877  2.6802  0.5405
  120MOL0     H15819   8.758   1.283   8.772 -0.7774 -0.0091 -0.4736
  120MOL0     H15820   8.667   1.566   8.838  0.0534  0.2961  0.6667
  120MOL0     H15821   8.573   1.418   8.859 -1.1990  0.9100  0.2750
  120MOL0     H15822   9.525   1.612   8.660  2.8114 -1.2374 -2.3741
  120MOL0     H15823   9.716   1.476   8.620 -2.4227 -1.2399 -1.2929
  120MOL0     H15824   9.911   0.982   8.575  0.7226  1.6080 -3.3098
  120MOL0     H15825  10.126   0.897   8.526  2.8428  0.6126 -1.3313
  120MOL0     H15826  10.872   1.886   9.116  1.0364 -1.5058 -2.1294
  120MOL0     H15827  10.695   1.983   9.275 -1.0463 -0.5504 -0.2537
  120MOL0     H15828  10.356   2.065   9.415  1.1620  1.5067  0.8316
  120MOL0     H15829  10.205   2.203   9.540 -0.6566  1.5463  3.4225
  120MOL0     H15830  10.156   2.339   9.681 -0.1820 -0.5559  0.8492
  120MOL0     H15831  10.131   2.364   9.854 -1.7652 -0.6549  1.6684
  120MOL0     H15832   9.937   2.417   9.709  0.3203  0.1806 -0.7110
  120MOL0     H15833   9.921   2.240   9.684  1.5346  0.3906 -0.8063
  120MOL0     H15834   9.920   2.383   9.959 -0.9090 -0.1597 -0.1257
  120MOL0     H15835   9.889   2.214   9.920 -0.8560  1.0672  1.6919
  120MOL0     H15836   9.718   2.434   9.789  0.1211  0.7284  1.4018
  120MOL0     H15837   9.688   2.253   9.789  0.7510  0.5537  0.0706
  120MOL0     H15838   9.539   2.389  10.170  0.9526 -2.2194  0.8484
  120MOL0     H15839  10.220   1.928   9.874 -2.3927 -0.3904 -1.1033
  120MOL0     H15840  10.336   1.785   9.739  3.1405  0.1473 -0.4553
  121MOL0     O15841   6.280   9.633   0.632  1.2203 -0.5256  0.4642
  121MOL0     C15842   6.365   9.560   0.682 -0.0030 -0.8893  0.3327
  121MOL0     O15843   6.360   9.502   0.810 -0.2889  0.0080  0.7658
  121MOL0     C15844   6.265   9.532   0.904 -0.6260 -0.1272  0.4332
  121MOL0     C15845   6.155   9.613   0.887 -0.3090 -0.5156  0.5256
  121MOL0     C15846   6.053   9.626   0.987 -0.0595 -0.5413  0.7920
  121MOL0     C15847   6.068   9.557   1.104 -0.2234  0.4005  0.9504
  121MOL0     O15848   5.976   9.602   1.192  0.0718 -0.0354 -0.0408
  121MOL0     C15849   5.985   9.574   1.326 -0.1624 -0.8844  0.4968
  121MOL0     C15850   5.887   9.673   1.395  0.1148  0.1204 -0.0454
  121MOL0     C15851   5.875   9.658   1.546 -0.3974 -0.2294  0.8598
  121MOL0     C15852   5.743   9.578   1.573  0.4286 -0.5055 -0.1942
  121MOL0     C15853   5.710   9.554   1.720  0.6840 -0.6628 -0.3893
  121MOL0     C15854   5.660   9.696   1.779  0.8026  0.8626  0.3840
  121MOL0     C15855   5.666   9.686   1.934 -0.1229 -0.5573  0.3833
  121MOL0     C15856   5.636   9.816   2.011 -0.5815  0.2467 -0.8319
  121MOL0     N15857   5.501   9.873   1.974 -0.3658  0.5549  0.0790
  121MOL0     C15858   5.484   9.968   1.878  0.7280  0.0789 -1.2341
  121MOL0     C15859   5.352   9.998   1.877  0.3587  0.1479 -0.3803
  121MOL0     C15860   5.283  10.091   1.780  0.5378 -0.2632  0.2077
  121MOL0     C15861   5.323  10.236   1.788  1.3085 -0.0236  0.1396
  121MOL0     C15862   5.263  10.300   1.910 -0.3603 -0.6581 -0.0579
  121MOL0     C15863   5.270  10.456   1.896  1.0104 -0.9687  0.1176
  121MOL0     O15864   5.145  10.495   1.832  0.1916 -0.4864  0.5390
  121MOL0     C15865   5.093  10.619   1.846  0.1503 -0.1263 -0.2399
  121MOL0     C15866   4.992  10.652   1.752 -0.0362 -0.2033  0.0304
  121MOL0     C15867   4.922  10.776   1.769  0.1138 -0.6005 -0.1770
  121MOL0     C15868   4.945  10.858   1.877 -0.0853 -0.0931  0.0135
  121MOL0     C15869   4.879  10.989   1.892  0.1143 -0.3370 -0.2523
  121MOL0     O15870   4.909  11.061   2.002  0.2368 -0.5597 -0.4632
  121MOL0     C15871   4.862  11.193   2.009  0.4445  0.1994 -0.3219
  121MOL0     C15872   4.962  11.285   2.008 -0.2082  0.1497  0.0587
  121MOL0     C15873   4.933  11.420   2.036  0.1647  0.4163  0.6089
  121MOL0     C15874   4.806  11.460   2.059  0.3290  0.2409  0.6757
  121MOL0     O15875   4.792  11.587   2.101  0.1543 -0.5196  0.3580
  121MOL0     C15876   4.837  11.691   2.013 -0.1068 -0.0213 -0.2903
  121MOL0     C15877   4.782  11.830   2.050  0.6073 -0.6279 -1.0945
  121MOL0     C15878   4.865  11.941   1.977  0.1630  0.4151 -0.9907
  121MOL0     C15879   4.827  12.078   2.028  0.5220  0.5763 -0.5670
  121MOL0     C15880   4.944  12.184   2.013  0.7150  0.8666  0.5289
  121MOL0     C15881   4.896  12.290   1.909  0.1600  1.2931 -0.1233
  121MOL0     C15882   5.010  12.376   1.840  0.0191  0.7162  0.1149
  121MOL0     C15883   5.074  12.289   1.740  0.0096 -0.4928  0.6591
  121MOL0    Cl15884   4.972  12.258   1.603  0.3726 -0.3000  0.1402
  121MOL0     C15885   4.704  11.365   2.068  0.3256  0.5597  0.4037
  121MOL0     C15886   4.728  11.232   2.044 -0.1049  0.3939  0.1897
  121MOL0     O15887   4.782  11.001   1.809 -0.0117  0.1714 -0.0635
  121MOL0     C15888   5.028  10.811   1.980  0.0924 -0.2474  0.1950
  121MOL0     C15889   5.105  10.692   1.965  1.3080  0.0415  0.2937
  121MOL0     N15890   5.292   9.925   1.978  1.0777 -0.3858  0.1954
  121MOL0     N15891   5.383   9.858   2.043 -0.1095 -0.4143  0.4212
  121MOL0     C15892   6.182   9.473   1.125 -0.2430 -0.1052  0.5264
  121MOL0     C15893   6.277   9.465   1.024 -1.4616 -0.3730 -0.9121
  121MOL0     C15894   6.490   9.569   0.600 -0.7448 -0.2832 -0.4512
  121MOL0     C15895   6.502   9.654   0.487  0.6863  0.4371  0.1745
  121MOL0     C15896   6.629   9.671   0.429 -0.4077 -0.1800  0.7911
  121MOL0     C15897   6.736   9.605   0.482  0.0121  0.5595  0.1529
  121MOL0     O15898   6.857   9.641   0.423  0.2442  0.4313 -0.0303
  121MOL0     C15899   6.982   9.574   0.450 -0.2420 -0.5765 -0.4989
  121MOL0     C15900   7.093   9.588   0.349 -0.0512  0.9934 -0.0613
  121MOL0     C15901   7.157   9.721   0.370 -0.3405  0.4419  1.0013
  121MOL0     C15902   7.287   9.740   0.291  0.1360  0.0703 -0.4648
  121MOL0     C15903   7.387   9.637   0.288 -0.3095 -0.5502  0.5118
  121MOL0     C15904   7.472   9.548   0.288  0.5127 -0.1181 -0.2666
  121MOL0     C15905   6.722   9.518   0.597 -1.2538  0.2071  0.4043
  121MOL0     C15906   6.604   9.505   0.654 -0.2195 -0.3028 -0.0199
  121MOL0     H15907   6.122   9.665   0.798 -1.3289 -1.4686  0.3212
  121MOL0     H15908   5.960   9.678   0.968 -0.1463 -1.6402 -2.1857
  121MOL0     H15909   6.092   9.583   1.349  0.8220 -2.5062 -2.7924
  121MOL0     H15910   5.951   9.471   1.341 -0.1735 -1.1701 -1.2848
  121MOL0     H15911   5.787   9.686   1.354 -0.0168  0.3440  0.3437
  121MOL0     H15912   5.929   9.773   1.383 -1.1579  0.6286 -0.3738
  121MOL0     H15913   5.882   9.756   1.595  3.6357 -0.0106  0.1614
  121MOL0     H15914   5.961   9.605   1.587  1.0923  0.7035 -0.8866
  121MOL0     H15915   5.657   9.637   1.541  0.5583  0.3044  0.8676
  121MOL0     H15916   5.739   9.487   1.514 -0.3274 -1.5347  1.3809
  121MOL0     H15917   5.805   9.524   1.766  0.0455 -0.3083  1.2424
  121MOL0     H15918   5.621   9.492   1.729 -0.4001  0.5533 -2.1630
  121MOL0     H15919   5.558   9.722   1.748  0.9062  1.7295  0.7402
  121MOL0     H15920   5.731   9.768   1.737  1.3981 -0.6811 -1.3960
  121MOL0     H15921   5.583   9.619   1.960  1.1846 -1.1137  3.6797
  121MOL0     H15922   5.758   9.637   1.967 -0.6065 -1.6064  0.2061
  121MOL0     H15923   5.715   9.883   1.977 -0.9297  1.3724  0.5024
  121MOL0     H15924   5.648   9.812   2.120  3.8360  0.8452 -1.1198
  121MOL0     H15925   5.549   9.997   1.797  0.5527 -0.2929 -1.5086
  121MOL0     H15926   5.175  10.075   1.786  0.1039  0.0863 -3.9758
  121MOL0     H15927   5.308  10.069   1.676 -0.9510  3.4929 -1.1136
  121MOL0     H15928   5.265  10.281   1.706  1.1917  0.3235  0.4071
  121MOL0     H15929   5.426  10.269   1.772  1.3547 -1.3212 -2.8052
  121MOL0     H15930   5.162  10.265   1.932 -1.0991  1.2949 -0.1722
  121MOL0     H15931   5.328  10.264   1.990  3.8064  0.1138 -2.7663
  121MOL0     H15932   5.353  10.493   1.836 -1.4620  0.7285 -2.5083
  121MOL0     H15933   5.274  10.502   1.996  2.6625 -0.2633 -0.2316
  121MOL0     H15934   4.957  10.586   1.675 -1.6827  2.5433 -1.7559
  121MOL0     H15935   4.860  10.818   1.691  0.7509 -1.2657 -1.0642
  121MOL0     H15936   5.063  11.254   1.983 -0.4468 -1.2781  0.7454
  121MOL0     H15937   5.018  11.487   2.038  1.7211 -1.4812  0.7733
  121MOL0     H15938   4.815  11.671   1.908 -2.0389  3.2858 -0.6473
  121MOL0     H15939   4.945  11.705   2.023  0.3977 -0.2637 -4.0959
  121MOL0     H15940   4.793  11.840   2.158 -2.0904  0.0742 -0.8121
  121MOL0     H15941   4.677  11.855   2.037  1.0884  1.8015 -0.8294
  121MOL0     H15942   4.848  11.945   1.870 -0.3032  3.8738 -0.8939
  121MOL0     H15943   4.973  11.926   1.994  0.1052 -0.2983 -1.2053
  121MOL0     H15944   4.730  12.121   2.002 -1.4214  0.1964  4.6918
  121MOL0     H15945   4.820  12.050   2.134 -2.6320 -0.4984 -0.9394
  121MOL0     H15946   5.034  12.131   1.981  0.3588 -1.3357  2.8989
  121MOL0     H15947   4.963  12.238   2.106  5.7836  2.8727 -1.3204
  121MOL0     H15948   4.829  12.359   1.960  0.1778  0.7719  0.6313
  121MOL0     H15949   4.835  12.244   1.830 -1.0223 -1.1531  2.0419
  121MOL0     H15950   4.964  12.461   1.790 -1.9003 -0.8740 -0.9999
  121MOL0     H15951   5.084  12.407   1.914  1.2412 -0.2461 -0.6545
  121MOL0     H15952   5.094  12.189   1.782  0.5300  0.3496  2.5490
  121MOL0     H15953   5.169  12.333   1.708 -0.2850 -1.1588 -1.2418
  121MOL0     H15954   4.609  11.412   2.093  1.5877  1.6039  3.8034
  121MOL0     H15955   4.656  11.152   2.035 -0.9992  1.1991  0.0621
  121MOL0     H15956   5.047  10.870   2.069  2.7400  1.2436 -1.2221
  121MOL0     H15957   5.157  10.661   2.055  1.6925  1.0425  0.4294
  121MOL0     H15958   6.198   9.421   1.219 -0.0954 -0.1878  0.4565
  121MOL0     H15959   6.364   9.399   1.030 -2.2170 -1.2290  1.8108
  121MOL0     H15960   6.423   9.715   0.443  1.8056  2.5096  0.8951
  121MOL0     H15961   6.646   9.745   0.351 -0.0883 -0.1249  0.9134
  121MOL0     H15962   6.958   9.467   0.452 -0.2209 -0.6714 -2.7308
  121MOL0     H15963   7.012   9.613   0.548  1.5427  1.9237 -1.9121
  121MOL0     H15964   7.163   9.505   0.363 -0.0345  1.2321  1.3671
  121MOL0     H15965   7.052   9.581   0.247  3.0585 -0.8936 -1.3253
  121MOL0     H15966   7.177   9.728   0.477  1.9622  0.7070  0.6101
  121MOL0     H15967   7.087   9.802   0.350  1.4096  1.7068 -0.4534
  121MOL0     H15968   7.268   9.770   0.187  5.3862  1.2030 -1.3600
  121MOL0     H15969   7.325   9.836   0.325 -0.9421  0.0272  0.9610
  121MOL0     H15970   7.540   9.465   0.294 -1.9273 -2.2968 -1.1743
  121MOL0     H15971   6.813   9.473   0.636 -1.5923  0.1167  1.0961
  121MOL0     H15972   6.605   9.442   0.742 -3.2676 -1.7255 -0.8437
  122MOL0     O15973   0.752   2.167   8.193  0.3170 -0.3552  0.9762
  122MOL0     C15974   0.720   2.281   8.170  0.1958 -0.2046  0.0290
  122MOL0     O15975   0.652   2.368   8.260 -0.2239  0.0882 -0.1942
  122MOL0     C15976   0.634   2.321   8.385 -0.4462  0.2937 -0.3725
  122MOL0     C15977   0.726   2.261   8.464  0.7766  0.2099 -0.0708
  122MOL0     C15978   0.701   2.261   8.600 -0.2244 -0.7299 -0.4611
  122MOL0     C15979   0.587   2.312   8.668  0.2561 -0.5099  0.5529
  122MOL0     O15980   0.567   2.302   8.809 -0.3639  0.6147  0.3025
  122MOL0     C15981   0.655   2.232   8.903  0.0193 -0.6609 -1.0825
  122MOL0     C15982   0.579   2.180   9.026  0.4360 -0.3441  0.2829
  122MOL0     C15983   0.563   2.298   9.123  0.6542 -0.2484  1.4981
  122MOL0     C15984   0.506   2.252   9.258 -0.2628 -0.6855 -0.1612
  122MOL0     C15985   0.530   2.341   9.375  0.4391 -0.2035 -0.7256
  122MOL0     C15986   0.501   2.276   9.516  0.6411  0.8835 -0.0828
  122MOL0     C15987   0.533   2.373   9.631 -0.1765  0.4537  0.0322
  122MOL0     C15988   0.431   2.492   9.648  0.1228 -0.0148 -1.1884
  122MOL0     N15989   0.331   2.469   9.746  0.0472 -0.3179  0.9279
  122MOL0     C15990   0.316   2.543   9.857  0.5009 -0.6891 -0.1544
  122MOL0     C15991   0.212   2.479   9.916 -0.8178 -0.6227  0.1208
  122MOL0     C15992   0.171   2.526  10.049  0.6787 -0.3707 -0.2400
  122MOL0     C15993   0.271   2.508  10.172  0.5375  0.0988 -0.0986
  122MOL0     C15994   0.226   2.588  10.299  0.6310  0.1327  0.6883
  122MOL0     C15995   0.097   2.536  10.364  0.3598  0.9931  0.4389
  122MOL0     O15996   0.064   2.593  10.490 -0.6008 -0.0844  0.6558
  122MOL0     C15997  -0.068   2.585  10.530  0.0881  0.1030 -0.8503
  122MOL0     C15998  -0.096   2.667  10.638 -0.0791  0.5019 -0.4121
  122MOL0     C15999  -0.235   2.677  10.689 -0.0999 -0.4135 -0.6941
  122MOL0     C16000  -0.335   2.595  10.639  0.2635  0.2072  0.6454
  122MOL0     C16001  -0.478   2.602  10.684 -0.3324 -0.0636  0.1890
  122MOL0     O16002  -0.563   2.518  10.626  0.1041 -0.5275  0.0650
  122MOL0     C16003  -0.697   2.512  10.645 -1.3714 -0.4287  0.0599
  122MOL0     C16004  -0.775   2.624  10.672  1.3632 -0.9957  0.0395
  122MOL0     C16005  -0.914   2.624  10.689 -0.2628 -0.1868 -0.4999
  122MOL0     C16006  -0.972   2.503  10.675  0.4039  0.7786  0.2216
  122MOL0     O16007  -1.105   2.487  10.713 -0.7845 -0.6462 -0.4089
  122MOL0     C16008  -1.195   2.504  10.602 -0.8049  0.2969 -0.1332
  122MOL0     C16009  -1.331   2.551  10.656 -0.4530 -0.1036 -1.3774
  122MOL0     C16010  -1.451   2.535  10.568 -0.5091 -0.0512 -0.9042
  122MOL0     C16011  -1.572   2.576  10.648  0.6096  0.4287  0.9036
  122MOL0     C16012  -1.698   2.541  10.576  0.8728 -0.6632 -0.1217
  122MOL0     C16013  -1.716   2.640  10.457  1.0724 -0.1059  0.7188
  122MOL0     C16014  -1.863   2.623  10.405 -1.2586 -0.2427  0.2953
  122MOL0     C16015  -1.914   2.732  10.304  0.3848 -0.4729  0.1864
  122MOL0    Cl16016  -1.873   2.911  10.350 -0.2027  0.0356 -0.3796
  122MOL0     C16017  -0.899   2.389  10.637 -0.8364 -0.2355 -0.7349
  122MOL0     C16018  -0.760   2.389  10.635  0.3495  0.5051  1.2014
  122MOL0     O16019  -0.505   2.680  10.772 -0.2991  0.4099  0.4847
  122MOL0     C16020  -0.306   2.517  10.523  1.4531 -0.1258 -0.8110
  122MOL0     C16021  -0.177   2.511  10.473  0.2112  0.1988 -0.8389
  122MOL0     N16022   0.161   2.374   9.842  0.4620 -0.2435  0.1258
  122MOL0     N16023   0.233   2.372   9.733 -0.4303  0.1824 -0.2600
  122MOL0     C16024   0.497   2.368   8.584 -0.0733 -0.4466 -1.2021
  122MOL0     C16025   0.521   2.379   8.448  0.1858  0.0824  0.0977
  122MOL0     C16026   0.743   2.335   8.033 -0.3014 -0.2156  0.4173
  122MOL0     C16027   0.809   2.262   7.933 -0.0946  0.4714 -0.1517
  122MOL0     C16028   0.832   2.320   7.810  0.5364 -0.4830  0.3503
  122MOL0     C16029   0.783   2.451   7.782 -0.2774 -0.2332  0.3308
  122MOL0     O16030   0.799   2.505   7.658  0.3576 -0.9388 -0.0074
  122MOL0     C16031   0.787   2.424   7.545 -1.1625  0.1056 -0.1410
  122MOL0     C16032   0.765   2.503   7.412  0.0137 -0.2376 -0.9236
  122MOL0     C16033   0.624   2.556   7.409  0.3694  0.0492 -0.5520
  122MOL0     C16034   0.580   2.612   7.277  0.3172 -0.2775  0.3830
  122MOL0     C16035   0.468   2.705   7.317 -0.7444 -1.2294 -0.1534
  122MOL0     C16036   0.384   2.793   7.335  0.3463  0.3094  0.0387
  122MOL0     C16037   0.729   2.528   7.883 -0.2666  0.3122  0.1731
  122MOL0     C16038   0.705   2.470   8.005  0.1249  0.7086  0.0522
  122MOL0     H16039   0.819   2.221   8.423  1.0681  0.3875  0.4044
  122MOL0     H16040   0.771   2.207   8.662  1.0414  0.1884 -1.0561
  122MOL0     H16041   0.738   2.291   8.942 -0.7712  0.1706 -0.6170
  122MOL0     H16042   0.694   2.140   8.859  1.1013 -0.9365  0.3941
  122MOL0     H16043   0.630   2.095   9.071  3.1236  0.3379 -1.2785
  122MOL0     H16044   0.479   2.151   8.992  0.5987  1.2153 -1.7096
  122MOL0     H16045   0.486   2.365   9.085  0.9166  1.9760  4.5275
  122MOL0     H16046   0.661   2.347   9.129  0.6456  0.0510 -0.2502
  122MOL0     H16047   0.398   2.238   9.258 -1.0008  3.6786 -1.5488
  122MOL0     H16048   0.554   2.153   9.265  1.0542 -0.4992 -3.9184
  122MOL0     H16049   0.470   2.432   9.375  1.2382  0.3536 -1.8454
  122MOL0     H16050   0.636   2.371   9.375  1.2599 -2.8073 -1.3245
  122MOL0     H16051   0.563   2.186   9.524  0.5556  0.7796 -0.5514
  122MOL0     H16052   0.401   2.234   9.528  0.0541  2.0022 -0.9223
  122MOL0     H16053   0.528   2.303   9.715 -4.0177 -4.4211 -3.6112
  122MOL0     H16054   0.632   2.418   9.632  0.2088 -0.2846  2.6699
  122MOL0     H16055   0.386   2.520   9.552  2.2999  1.5396 -1.8371
  122MOL0     H16056   0.487   2.580   9.681  1.5965 -0.3007 -2.7920
  122MOL0     H16057   0.368   2.627   9.901 -1.1265  0.2616  0.0016
  122MOL0     H16058   0.075   2.485  10.082 -0.9770  2.8997 -0.6719
  122MOL0     H16059   0.155   2.633  10.039  0.5085 -0.4311 -0.6374
  122MOL0     H16060   0.372   2.537  10.142  0.2356  1.5607  0.2394
  122MOL0     H16061   0.291   2.404  10.202 -3.7388 -0.4015  1.8569
  122MOL0     H16062   0.300   2.577  10.379 -0.9855 -0.1016  2.2329
  122MOL0     H16063   0.224   2.694  10.271 -2.6910 -0.0742 -0.3519
  122MOL0     H16064   0.095   2.427  10.365  2.9023  0.8805  1.4264
  122MOL0     H16065   0.017   2.563  10.295 -0.2153 -0.5829  0.4524
  122MOL0     H16066  -0.022   2.718  10.699 -1.3370 -1.2425  2.8526
  122MOL0     H16067  -0.246   2.741  10.775  2.4028 -2.0614  0.9635
  122MOL0     H16068  -0.750   2.729  10.668 -3.4847  0.4349  0.1150
  122MOL0     H16069  -0.959   2.717  10.721  0.2111 -0.3859  0.7819
  122MOL0     H16070  -1.206   2.415  10.539 -1.2416 -0.1436  0.5512
  122MOL0     H16071  -1.160   2.583  10.535 -2.7068 -0.4999 -2.1759
  122MOL0     H16072  -1.322   2.653  10.695  0.8092 -0.2700 -1.2058
  122MOL0     H16073  -1.348   2.493  10.747  2.6350  0.2407 -0.4764
  122MOL0     H16074  -1.468   2.429  10.547  2.7053 -0.8608 -0.0505
  122MOL0     H16075  -1.430   2.592  10.477  3.3027  0.6225  0.2215
  122MOL0     H16076  -1.562   2.527  10.745 -2.3364 -0.1843  1.0048
  122MOL0     H16077  -1.576   2.684  10.665 -2.0293  0.7450 -0.9469
  122MOL0     H16078  -1.774   2.553  10.654  2.6581 -0.8458  1.7377
  122MOL0     H16079  -1.694   2.436  10.544  1.3002  0.0716 -2.7190
  122MOL0     H16080  -1.651   2.614  10.372 -0.0381  0.5601 -0.3583
  122MOL0     H16081  -1.704   2.743  10.490  1.2068 -0.5309  2.0297
  122MOL0     H16082  -1.857   2.525  10.356  0.1768 -0.8053  1.4983
  122MOL0     H16083  -1.920   2.624  10.498  2.7324  1.0783  2.9910
  122MOL0     H16084  -2.019   2.725  10.274  0.6992 -0.3547 -0.9928
  122MOL0     H16085  -1.859   2.689  10.220 -2.4050 -3.5091 -0.3033
  122MOL0     H16086  -0.937   2.289  10.615  0.4497 -0.9925  0.3045
  122MOL0     H16087  -0.715   2.295  10.604 -1.8206  0.0257 -0.7120
  122MOL0     H16088  -0.387   2.476  10.464  0.8845 -2.9058  1.6238
  122MOL0     H16089  -0.166   2.448  10.386 -0.8435  0.2568 -1.0292
  122MOL0     H16090   0.402   2.401   8.626  0.0551 -2.4364  0.8529
  122MOL0     H16091   0.460   2.458   8.406 -0.1864 -1.1542 -1.8241
  122MOL0     H16092   0.844   2.161   7.953  0.4535  1.2017  3.1314
  122MOL0     H16093   0.874   2.265   7.726  0.1084 -0.6374  0.2347
  122MOL0     H16094   0.713   2.348   7.571  1.0637 -2.0138  0.2738
  122MOL0     H16095   0.880   2.370   7.532 -0.9699  0.1487  0.9584
  122MOL0     H16096   0.842   2.580   7.401 -1.5773  1.2918 -1.7245
  122MOL0     H16097   0.776   2.436   7.326  0.7414 -1.3595  0.0065
  122MOL0     H16098   0.621   2.631   7.489 -1.0636 -0.8925  0.3311
  122MOL0     H16099   0.551   2.476   7.427  0.7685 -0.4898 -1.3221
  122MOL0     H16100   0.666   2.664   7.235 -1.1909  2.5288  0.5069
  122MOL0     H16101   0.555   2.531   7.207  0.8777 -0.6815  0.6448
  122MOL0     H16102   0.305   2.865   7.346 -1.7240 -1.8446  0.1600
  122MOL0     H16103   0.709   2.633   7.861  2.7485  1.1525  0.9883
  122MOL0     H16104   0.644   2.527   8.075  0.8135  3.7938 -1.6871
  123MOL0     O16105   3.721   8.153   0.058 -0.6464  0.2120  0.0040
  123MOL0     C16106   3.725   8.025   0.062  0.7563 -0.0008  0.1422
  123MOL0     O16107   3.721   7.948  -0.050 -0.4294  0.1091 -0.8532
  123MOL0     C16108   3.760   8.011  -0.165  0.4423  0.3252 -0.0432
  123MOL0     C16109   3.897   8.033  -0.199 -0.5738  0.1828 -0.4148
  123MOL0     C16110   3.936   8.098  -0.310  0.2531  0.1188  0.6664
  123MOL0     C16111   3.846   8.150  -0.396  0.2766 -0.2105  0.4517
  123MOL0     O16112   3.889   8.201  -0.517  0.5168  0.0095 -0.0196
  123MOL0     C16113   3.822   8.155  -0.633 -0.2233  0.1057  0.4405
  123MOL0     C16114   3.865   8.251  -0.752 -0.1503  0.6244 -0.1864
  123MOL0     C16115   3.781   8.234  -0.877 -0.7419  0.8745  0.4411
  123MOL0     C16116   3.818   8.341  -0.986 -0.9987  0.3837 -0.0177
  123MOL0     C16117   3.740   8.296  -1.119 -0.3213 -0.0538 -0.0799
  123MOL0     C16118   3.592   8.290  -1.110  0.4502  0.4622 -0.1213
  123MOL0     C16119   3.527   8.413  -1.053  0.9514 -0.6505 -0.8106
  123MOL0     C16120   3.373   8.397  -1.073 -0.5635  0.4634 -0.7894
  123MOL0     N16121   3.305   8.312  -0.967  0.3315  0.5190 -0.3281
  123MOL0     C16122   3.191   8.343  -0.902 -0.3274 -0.5480  0.3185
  123MOL0     C16123   3.167   8.238  -0.820 -0.0868  0.0661  0.3261
  123MOL0     C16124   3.068   8.216  -0.710  0.2042 -0.3839  0.3378
  123MOL0     C16125   2.917   8.280  -0.714 -0.2807 -0.2904 -0.5775
  123MOL0     C16126   2.819   8.235  -0.603 -0.4788 -1.0136 -1.0201
  123MOL0     C16127   2.890   8.187  -0.479 -0.0961  0.5498  0.8735
  123MOL0     O16128   2.797   8.174  -0.370 -0.0729  0.6137  0.7275
  123MOL0     C16129   2.751   8.052  -0.331  0.0876 -0.0296 -0.0808
  123MOL0     C16130   2.770   7.939  -0.400  0.0712 -0.0229  0.3752
  123MOL0     C16131   2.704   7.824  -0.359 -0.6216  0.5521 -0.3550
  123MOL0     C16132   2.630   7.812  -0.235 -1.0469 -0.2138 -0.0629
  123MOL0     C16133   2.563   7.684  -0.195 -0.2269  0.1961 -0.3087
  123MOL0     O16134   2.605   7.567  -0.260 -0.0774 -0.0608  0.5421
  123MOL0     C16135   2.549   7.448  -0.227 -0.1638  0.5404  0.5524
  123MOL0     C16136   2.408   7.423  -0.238 -0.2144  0.1036 -0.2354
  123MOL0     C16137   2.361   7.282  -0.255 -0.7282  0.4436  0.7525
  123MOL0     C16138   2.449   7.174  -0.242 -0.0140  0.8601 -0.4173
  123MOL0     O16139   2.395   7.052  -0.257  0.1097  0.2267 -0.3271
  123MOL0     C16140   2.447   6.965  -0.362  0.0136  1.0974  0.3695
  123MOL0     C16141   2.355   6.850  -0.396  0.1642 -0.2332 -0.1920
  123MOL0     C16142   2.406   6.728  -0.316  0.2539 -0.0873  0.4481
  123MOL0     C16143   2.330   6.602  -0.359 -0.1894  0.0902 -0.2020
  123MOL0     C16144   2.186   6.594  -0.312 -0.1731  0.7222 -0.8831
  123MOL0     C16145   2.143   6.454  -0.291  0.2898 -0.2250  0.2129
  123MOL0     C16146   2.189   6.357  -0.405  1.5912 -0.0995 -0.2056
  123MOL0     C16147   2.094   6.241  -0.422  1.3712 -0.5400 -0.0430
  123MOL0    Cl16148   1.942   6.316  -0.485 -0.0423  0.1303 -0.3028
  123MOL0     C16149   2.584   7.198  -0.216 -0.1420 -0.0515 -1.1849
  123MOL0     C16150   2.635   7.333  -0.222 -0.0314 -0.2187  0.3047
  123MOL0     O16151   2.470   7.686  -0.113  0.1656 -0.1134 -0.2395
  123MOL0     C16152   2.600   7.940  -0.178  0.0468  0.4551  0.2834
  123MOL0     C16153   2.675   8.050  -0.215  1.1153  0.3715  0.3049
  123MOL0     N16154   3.278   8.158  -0.824 -0.1800 -0.2917  0.0952
  123MOL0     N16155   3.360   8.198  -0.909 -0.3361 -0.1727 -0.0145
  123MOL0     C16156   3.705   8.142  -0.363  0.1028 -0.1105 -0.9689
  123MOL0     C16157   3.667   8.067  -0.252  1.1724 -1.2014 -0.5030
  123MOL0     C16158   3.728   7.966   0.206  0.2656 -0.7891  0.7674
  123MOL0     C16159   3.695   7.833   0.229 -0.4767  0.1822 -0.5356
  123MOL0     C16160   3.712   7.780   0.356 -0.0713 -0.1680  0.8643
  123MOL0     C16161   3.773   7.846   0.456  0.3596  0.2868  0.2181
  123MOL0     O16162   3.769   7.774   0.582  0.7411 -0.5081  0.5885
  123MOL0     C16163   3.824   7.833   0.699  0.1775 -0.5446 -0.4304
  123MOL0     C16164   3.881   7.720   0.779  0.1174  0.4469 -0.4412
  123MOL0     C16165   4.033   7.720   0.800  0.0002 -0.4429  0.0429
  123MOL0     C16166   4.088   7.590   0.842  0.2278 -0.4034 -0.2051
  123MOL0     C16167   4.065   7.477   0.752  0.1539  0.7876  0.2353
  123MOL0     C16168   4.074   7.390   0.668 -0.0796  0.1279 -0.4530
  123MOL0     C16169   3.820   7.973   0.432  0.2309 -0.4920 -0.6120
  123MOL0     C16170   3.798   8.035   0.311 -0.1007 -0.8816 -0.7230
  123MOL0     H16171   3.970   7.980  -0.140 -0.9382 -0.2644 -0.3611
  123MOL0     H16172   4.043   8.103  -0.330  0.1093 -2.0372 -0.9662
  123MOL0     H16173   3.717   8.183  -0.627  0.2390  2.2415 -0.4071
  123MOL0     H16174   3.834   8.047  -0.647 -0.1759 -0.1710  2.3636
  123MOL0     H16175   3.973   8.248  -0.772  0.5246  1.3951  2.7274
  123MOL0     H16176   3.854   8.354  -0.716 -0.4117  0.7005 -0.4833
  123MOL0     H16177   3.674   8.218  -0.859 -0.2793 -1.3250  1.4586
  123MOL0     H16178   3.819   8.139  -0.913  0.9940  2.5532 -2.5885
  123MOL0     H16179   3.795   8.441  -0.950 -2.7175 -0.4241  1.2952
  123MOL0     H16180   3.925   8.341  -1.009 -0.5480  4.6600  1.3246
  123MOL0     H16181   3.779   8.199  -1.150 -0.8624 -0.1215 -0.5796
  123MOL0     H16182   3.754   8.373  -1.196  1.5180  1.1827  1.3954
  123MOL0     H16183   3.572   8.210  -1.039 -1.6286  0.0571 -1.0850
  123MOL0     H16184   3.557   8.268  -1.212  1.8170  0.4289 -0.6027
  123MOL0     H16185   3.552   8.427  -0.948  1.9330 -1.8723 -0.8580
  123MOL0     H16186   3.564   8.495  -1.115 -2.8495  1.3298 -0.7655
  123MOL0     H16187   3.358   8.354  -1.173  0.8684  0.5734 -1.0740
  123MOL0     H16188   3.332   8.497  -1.060 -2.0255 -0.2562  0.3729
  123MOL0     H16189   3.137   8.437  -0.893 -0.6871 -0.9072  2.4754
  123MOL0     H16190   3.125   8.248  -0.622  2.9485  1.3257 -1.8838
  123MOL0     H16191   3.059   8.107  -0.707  1.1331 -0.4644  0.5345
  123MOL0     H16192   2.860   8.262  -0.805 -2.0731 -2.6408  0.8946
  123MOL0     H16193   2.929   8.389  -0.718  0.8228 -0.3615  0.3158
  123MOL0     H16194   2.737   8.304  -0.580  0.3744  0.6989 -2.8168
  123MOL0     H16195   2.783   8.142  -0.649  0.9505 -1.8387 -0.5179
  123MOL0     H16196   2.953   8.270  -0.446  1.2457  0.5982 -1.5946
  123MOL0     H16197   2.964   8.111  -0.506 -2.5965 -1.0279 -2.2768
  123MOL0     H16198   2.826   7.936  -0.492  2.1864  2.6239  1.4298
  123MOL0     H16199   2.714   7.733  -0.418 -1.7007 -0.2896  0.7256
  123MOL0     H16200   2.339   7.506  -0.247 -0.3214  0.0760  0.2780
  123MOL0     H16201   2.260   7.249  -0.279  0.8334 -3.9919 -0.7857
  123MOL0     H16202   2.546   6.931  -0.329 -0.8488 -2.4599 -0.2429
  123MOL0     H16203   2.467   7.023  -0.452  1.3409  1.8147  1.0902
  123MOL0     H16204   2.355   6.823  -0.502 -2.3056  0.9798 -0.5832
  123MOL0     H16205   2.255   6.885  -0.366  0.2601 -0.1269  0.0034
  123MOL0     H16206   2.397   6.742  -0.208 -2.7419  2.3202  0.0093
  123MOL0     H16207   2.511   6.705  -0.339  0.1570 -0.8500  0.7254
  123MOL0     H16208   2.332   6.597  -0.469 -1.3748 -0.7913 -0.1969
  123MOL0     H16209   2.377   6.523  -0.301 -1.3169  1.6922  3.1773
  123MOL0     H16210   2.125   6.654  -0.379 -0.4298  1.2415 -0.1934
  123MOL0     H16211   2.184   6.634  -0.211  1.3923 -2.3061  0.4967
  123MOL0     H16212   2.033   6.462  -0.294  0.3340  0.1087 -1.2795
  123MOL0     H16213   2.182   6.419  -0.195 -0.2711  0.8580  0.8483
  123MOL0     H16214   2.193   6.413  -0.499 -4.4388  0.8635 -0.3156
  123MOL0     H16215   2.288   6.312  -0.391  1.7250  0.1738 -0.2624
  123MOL0     H16216   2.065   6.204  -0.323  0.3087 -0.9849 -0.4934
  123MOL0     H16217   2.132   6.158  -0.482  2.3019  0.2256 -0.5420
  123MOL0     H16218   2.647   7.112  -0.194 -1.0383 -0.3190  0.4593
  123MOL0     H16219   2.742   7.352  -0.219 -0.3219  1.5551  0.7353
  123MOL0     H16220   2.519   7.935  -0.106  0.7304  1.9366  1.1980
  123MOL0     H16221   2.650   8.141  -0.161 -1.4644  0.1836 -0.4052
  123MOL0     H16222   3.628   8.190  -0.422 -1.2454  1.4937  1.8647
  123MOL0     H16223   3.564   8.061  -0.218  0.8590 -3.7076 -1.6459
  123MOL0     H16224   3.670   7.765   0.149  1.6142 -1.0786 -0.2082
  123MOL0     H16225   3.668   7.681   0.359 -2.3422  0.7106 -0.6351
  123MOL0     H16226   3.744   7.869   0.764  0.1000 -0.0020 -0.8293
  123MOL0     H16227   3.890   7.919   0.684 -0.5946  0.1300 -0.0154
  123MOL0     H16228   3.834   7.734   0.877  0.7840  1.8887 -0.3025
  123MOL0     H16229   3.844   7.623   0.745  0.0778 -1.1690  3.6457
  123MOL0     H16230   4.053   7.797   0.875 -0.1769 -1.3642  1.0637
  123MOL0     H16231   4.082   7.758   0.710 -1.3410 -0.0464 -0.5453
  123MOL0     H16232   4.193   7.605   0.865 -0.5331  3.7930  1.4009
  123MOL0     H16233   4.038   7.573   0.938  1.8116  2.6645  1.3028
  123MOL0     H16234   4.080   7.315   0.591 -1.2325 -2.2730  1.6494
  123MOL0     H16235   3.865   8.033   0.510  0.2195 -1.8390  0.4663
  123MOL0     H16236   3.821   8.140   0.295  2.1732 -1.4532 -1.7273
  124MOL0     O16237   3.884  10.266   2.372 -0.9717 -0.6118  0.1446
  124MOL0     C16238   3.834  10.290   2.479  0.1867 -0.4007 -0.6581
  124MOL0     O16239   3.799  10.420   2.532  0.5449 -0.5855  0.5648
  124MOL0     C16240   3.784  10.517   2.433 -1.5215 -0.9694  1.1291
  124MOL0     C16241   3.702  10.477   2.318 -0.2182  0.4259  1.0162
  124MOL0     C16242   3.703  10.553   2.202 -0.5902  0.0421  0.5843
  124MOL0     C16243   3.784  10.677   2.201 -0.5789  0.1557 -0.1571
  124MOL0     O16244   3.781  10.754   2.087 -0.1990 -0.6995  0.0749
  124MOL0     C16245   3.681  10.730   1.990 -0.8202  1.2442  0.0765
  124MOL0     C16246   3.673  10.844   1.896 -0.3425  0.8476 -0.1750
  124MOL0     C16247   3.566  10.834   1.790  0.3397 -0.9438  0.2251
  124MOL0     C16248   3.570  10.972   1.727  1.1404 -0.3818  1.3987
  124MOL0     C16249   3.461  10.977   1.610  0.0840  0.4328  0.9098
  124MOL0     C16250   3.324  11.038   1.654  0.9043  0.3983 -0.1310
  124MOL0     C16251   3.236  11.048   1.530 -0.0007  0.0471 -0.4638
  124MOL0     C16252   3.104  11.089   1.582  0.0311  0.4762  0.1198
  124MOL0     N16253   3.010  11.097   1.468 -0.0596  0.7280  0.2883
  124MOL0     C16254   3.032  11.171   1.359  0.9014  0.1870 -0.4989
  124MOL0     C16255   2.908  11.175   1.303 -0.7658  0.7041 -0.6138
  124MOL0     C16256   2.891  11.224   1.163 -0.4757 -0.4286  0.4583
  124MOL0     C16257   2.874  11.112   1.061 -1.2825 -0.0947 -0.5354
  124MOL0     C16258   2.869  11.152   0.910  0.0226  0.5960 -0.4325
  124MOL0     C16259   2.740  11.208   0.878 -0.2181  0.3142 -0.7602
  124MOL0     O16260   2.738  11.279   0.754 -0.4008  0.7828  0.0351
  124MOL0     C16261   2.613  11.333   0.717 -0.4349 -0.5298 -0.0664
  124MOL0     C16262   2.485  11.283   0.760  0.5798 -0.1622  0.1077
  124MOL0     C16263   2.368  11.352   0.713  0.1654  0.4549  0.6488
  124MOL0     C16264   2.382  11.459   0.620  0.1132 -0.1934 -0.0618
  124MOL0     C16265   2.263  11.536   0.574  0.1714  0.6732  0.0012
  124MOL0     O16266   2.280  11.656   0.516  0.2712 -0.3203 -0.0137
  124MOL0     C16267   2.180  11.744   0.490  0.6374 -0.5079 -0.0115
  124MOL0     C16268   2.203  11.879   0.502  1.2415 -1.1160  0.4261
  124MOL0     C16269   2.106  11.970   0.466  0.5775 -0.5838 -0.1447
  124MOL0     C16270   1.977  11.932   0.420  0.6293  0.0250 -0.6106
  124MOL0     O16271   1.871  12.018   0.400 -0.5769  1.5023  0.0992
  124MOL0     C16272   1.902  12.155   0.393 -0.5104 -0.2084  0.0861
  124MOL0     C16273   1.779  12.202   0.336 -0.0439  0.4447  0.2634
  124MOL0     C16274   1.652  12.192   0.431  0.5003 -1.0435 -0.4284
  124MOL0     C16275   1.553  12.304   0.388 -0.4399  0.2630  0.3761
  124MOL0     C16276   1.434  12.287   0.479 -0.2733 -1.2602  0.0222
  124MOL0     C16277   1.315  12.373   0.432  0.4212  0.2827  0.0471
  124MOL0     C16278   1.179  12.337   0.494  0.4178 -0.4293 -0.1586
  124MOL0     C16279   1.164  12.417   0.624 -0.1075  0.2675  0.1013
  124MOL0    Cl16280   1.104  12.580   0.587 -0.2041  0.1658 -0.3832
  124MOL0     C16281   1.959  11.797   0.404 -0.7239  0.3674 -1.1695
  124MOL0     C16282   2.056  11.705   0.439 -0.1921 -0.2285  0.9927
  124MOL0     O16283   2.159  11.493   0.617  0.2580 -0.0098  0.5491
  124MOL0     C16284   2.510  11.508   0.581  0.4338  0.7852 -0.1351
  124MOL0     C16285   2.625  11.439   0.626  0.3703  0.9117  1.2201
  124MOL0     N16286   2.820  11.109   1.386  0.1199  0.8546  0.0554
  124MOL0     N16287   2.881  11.059   1.485  0.4930 -0.1927 -0.0445
  124MOL0     C16288   3.857  10.722   2.312 -0.1020  0.4893 -0.6024
  124MOL0     C16289   3.862  10.632   2.418  0.9506 -0.7042 -0.4655
  124MOL0     C16290   3.805  10.177   2.563  0.4831  0.6475 -0.1378
  124MOL0     C16291   3.766  10.052   2.506 -0.2719 -0.4516 -0.0419
  124MOL0     C16292   3.743   9.944   2.592 -0.1896 -0.5220 -0.0021
  124MOL0     C16293   3.725   9.964   2.729  1.6328  0.2627 -0.4961
  124MOL0     O16294   3.678   9.849   2.799 -0.5903  0.3055 -0.4848
  124MOL0     C16295   3.630   9.863   2.931 -0.0726 -0.6232 -0.4058
  124MOL0     C16296   3.539   9.756   2.964  0.1447  1.3735  1.0177
  124MOL0     C16297   3.594   9.623   2.949  0.1527 -0.3653 -0.1499
  124MOL0     C16298   3.700   9.589   3.065 -0.2379  0.4708  0.4699
  124MOL0     C16299   3.735   9.443   3.066  0.1168 -0.7724  0.2977
  124MOL0     C16300   3.740   9.322   3.084 -0.3352 -0.2803  0.9355
  124MOL0     C16301   3.730  10.088   2.787 -1.1358 -0.8459  1.0093
  124MOL0     C16302   3.784  10.196   2.703  1.0439 -0.0680  0.3377
  124MOL0     H16303   3.645  10.385   2.330  0.5369  0.1961  3.4448
  124MOL0     H16304   3.642  10.516   2.120 -2.3085  2.7342  0.5235
  124MOL0     H16305   3.585  10.717   2.040 -0.4815 -1.2349  0.1742
  124MOL0     H16306   3.701  10.637   1.936  0.8134 -1.3256  4.6261
  124MOL0     H16307   3.774  10.856   1.858 -0.2664 -0.1624 -0.3192
  124MOL0     H16308   3.654  10.930   1.962 -1.6535  0.8239 -0.4924
  124MOL0     H16309   3.465  10.824   1.832 -0.4372  0.6344 -1.1431
  124MOL0     H16310   3.572  10.756   1.714 -0.5020 -2.8365  1.9940
  124MOL0     H16311   3.569  11.052   1.801 -2.1746  0.6415  0.4015
  124MOL0     H16312   3.671  10.977   1.687  1.0327  1.2854  1.2991
  124MOL0     H16313   3.448  10.876   1.571 -0.3014  0.5263  0.7837
  124MOL0     H16314   3.499  11.031   1.522  2.0152  1.2491  2.1839
  124MOL0     H16315   3.338  11.140   1.693 -0.6271  1.7790 -2.8966
  124MOL0     H16316   3.288  10.983   1.741 -1.0091  4.2690  1.8223
  124MOL0     H16317   3.286  11.125   1.471 -1.6219  0.6742 -1.0748
  124MOL0     H16318   3.234  10.951   1.480 -1.7814  0.8950 -2.1500
  124MOL0     H16319   3.126  11.186   1.626  2.4747  1.3005 -2.5876
  124MOL0     H16320   3.065  11.008   1.645  0.4450 -0.7777 -1.1883
  124MOL0     H16321   3.121  11.219   1.320  0.7393  0.1526 -0.9184
  124MOL0     H16322   2.974  11.287   1.129  0.2506 -0.9763  1.1712
  124MOL0     H16323   2.798  11.281   1.157 -1.0541 -0.8043  4.0658
  124MOL0     H16324   2.782  11.054   1.078 -0.9194 -0.9993 -1.5501
  124MOL0     H16325   2.953  11.037   1.070 -3.2001 -2.0023  1.8704
  124MOL0     H16326   2.960  11.205   0.882  1.4048 -1.7616 -0.6725
  124MOL0     H16327   2.867  11.071   0.837 -2.8464 -1.1093  1.3554
  124MOL0     H16328   2.707  11.272   0.960  0.8428 -2.4516  2.0188
  124MOL0     H16329   2.662  11.131   0.877  0.0766  0.0155 -0.5612
  124MOL0     H16330   2.475  11.197   0.826 -0.0438 -1.8994 -2.0948
  124MOL0     H16331   2.271  11.306   0.730 -0.3475  2.7953  6.4930
  124MOL0     H16332   2.299  11.919   0.530  1.5122 -0.2517 -1.5404
  124MOL0     H16333   2.135  12.072   0.488  0.0356 -0.7968  1.6876
  124MOL0     H16334   1.989  12.184   0.334 -1.4647  0.6957 -0.9040
  124MOL0     H16335   1.915  12.199   0.492  0.5532  0.4353 -0.3234
  124MOL0     H16336   1.757  12.149   0.243 -1.1648 -0.5653  1.0809
  124MOL0     H16337   1.805  12.307   0.319  4.0137 -0.5328 -0.9142
  124MOL0     H16338   1.687  12.223   0.530 -0.3655  0.1663 -0.4731
  124MOL0     H16339   1.607  12.093   0.427  1.1130 -1.3675  0.3317
  124MOL0     H16340   1.602  12.402   0.389  0.2901 -0.0027 -2.2208
  124MOL0     H16341   1.519  12.279   0.287  0.1425  0.6632  0.0738
  124MOL0     H16342   1.459  12.314   0.582 -0.9291 -0.0813 -0.1081
  124MOL0     H16343   1.412  12.180   0.468  1.5267 -1.4361 -2.6412
  124MOL0     H16344   1.300  12.350   0.327 -1.8169 -0.1155  0.4094
  124MOL0     H16345   1.341  12.479   0.446  3.3229 -0.5982  2.7617
  124MOL0     H16346   1.092  12.367   0.435 -0.3073 -0.7645  0.7292
  124MOL0     H16347   1.165  12.231   0.515 -1.8052 -0.3684 -1.1180
  124MOL0     H16348   1.261  12.435   0.672  0.6724 -0.2966 -1.2281
  124MOL0     H16349   1.093  12.367   0.690 -0.9888 -1.1802 -1.8463
  124MOL0     H16350   1.861  11.754   0.385  0.8042 -3.7850 -0.6599
  124MOL0     H16351   2.026  11.601   0.428  3.7824 -1.3087 -1.8278
  124MOL0     H16352   2.523  11.588   0.510  1.2583 -1.8671 -3.2214
  124MOL0     H16353   2.727  11.460   0.593 -0.0381 -0.8874 -1.5120
  124MOL0     H16354   3.908  10.818   2.318  0.0821  0.3137  3.7186
  124MOL0     H16355   3.911  10.664   2.509 -1.5498  1.9588  0.0926
  124MOL0     H16356   3.784  10.037   2.400 -0.5301  1.4456 -0.3921
  124MOL0     H16357   3.730   9.853   2.534 -0.5364 -1.5725  1.6538
  124MOL0     H16358   3.573   9.956   2.943  0.4637 -0.2946 -0.3798
  124MOL0     H16359   3.715   9.863   3.000 -0.6592 -0.5704  0.3273
  124MOL0     H16360   3.501   9.784   3.063 -2.0888  2.0508  0.0505
  124MOL0     H16361   3.460   9.767   2.889  0.9824 -2.6943 -0.6724
  124MOL0     H16362   3.634   9.599   2.850 -0.5782 -3.1466  0.1441
  124MOL0     H16363   3.513   9.552   2.970  1.8510 -1.4686  3.5487
  124MOL0     H16364   3.796   9.636   3.043  0.1456 -1.6177 -3.3489
  124MOL0     H16365   3.669   9.615   3.166  0.2365  2.9180  0.0305
  124MOL0     H16366   3.734   9.216   3.103 -2.2309 -0.7026 -1.4784
  124MOL0     H16367   3.720  10.106   2.894  0.6735  0.8582  0.9645
  124MOL0     H16368   3.806  10.287   2.758  3.4142  1.3797 -2.7133
  125MOL0     O16369   6.626   4.941   3.585 -0.9500 -0.3266  0.7056
  125MOL0     C16370   6.522   4.942   3.646 -0.1042  0.3595  0.0928
  125MOL0     O16371   6.489   4.846   3.732  0.0985 -1.0444 -0.7341
  125MOL0     C16372   6.589   4.824   3.824 -0.1272 -0.0397  0.2560
  125MOL0     C16373   6.711   4.762   3.787 -0.3726  0.0043  0.2203
  125MOL0     C16374   6.812   4.734   3.879  0.4930 -0.0335 -0.1625
  125MOL0     C16375   6.793   4.766   4.016  0.3552 -0.5699  0.0345
  125MOL0     O16376   6.904   4.767   4.086 -0.4768  0.7574 -0.2403
  125MOL0     C16377   6.886   4.699   4.212  0.3330 -0.6885  0.2847
  125MOL0     C16378   7.032   4.681   4.253  0.3422 -0.8649  0.3340
  125MOL0     C16379   7.091   4.569   4.167  0.5038 -0.7147 -0.9459
  125MOL0     C16380   7.229   4.541   4.207  0.0464  0.2069  0.5919
  125MOL0     C16381   7.316   4.483   4.090  0.7749  0.3530 -0.0153
  125MOL0     C16382   7.255   4.353   4.036  0.3173 -1.5813 -0.2967
  125MOL0     C16383   7.321   4.299   3.912  0.7907  0.6637  0.4138
  125MOL0     C16384   7.264   4.154   3.884 -0.4936 -0.0481 -0.3631
  125MOL0     N16385   7.283   4.105   3.749 -0.4582 -0.9017  0.2516
  125MOL0     C16386   7.191   4.119   3.651  0.3722  0.5408  0.0112
  125MOL0     C16387   7.256   4.083   3.536 -0.1632 -0.4707  0.5265
  125MOL0     C16388   7.205   4.092   3.393 -0.2403  0.7115 -0.2659
  125MOL0     C16389   7.117   3.968   3.365  0.2946 -0.8183 -0.4593
  125MOL0     C16390   7.035   3.988   3.237 -0.0771 -0.1374 -0.9222
  125MOL0     C16391   6.970   3.867   3.191 -0.2198  0.2370 -0.0771
  125MOL0     O16392   6.895   3.901   3.074 -0.1089 -0.6937  0.3571
  125MOL0     C16393   6.770   3.851   3.070 -0.5667 -0.3175 -0.6747
  125MOL0     C16394   6.674   3.838   3.176  0.2445 -1.1102  0.3318
  125MOL0     C16395   6.552   3.777   3.158 -1.0062 -0.6938  0.4305
  125MOL0     C16396   6.517   3.731   3.028 -0.0335 -0.2165 -1.9756
  125MOL0     C16397   6.379   3.681   3.008  0.1385  0.1120  0.7485
  125MOL0     O16398   6.334   3.662   2.882  0.3187  0.2481 -0.0188
  125MOL0     C16399   6.202   3.624   2.863  0.2345 -0.2996  0.4214
  125MOL0     C16400   6.102   3.720   2.850 -0.5764 -0.2277  0.2361
  125MOL0     C16401   5.973   3.682   2.842 -0.2198 -0.2452 -1.1421
  125MOL0     C16402   5.930   3.542   2.839  0.1066 -0.1002  0.2767
  125MOL0     O16403   5.797   3.523   2.830  0.3051  0.9410  0.6619
  125MOL0     C16404   5.754   3.390   2.860  0.2752 -0.5412 -0.3899
  125MOL0     C16405   5.606   3.380   2.812  0.4725 -0.5435  0.3927
  125MOL0     C16406   5.542   3.259   2.885  0.1122  0.5363 -0.3345
  125MOL0     C16407   5.388   3.263   2.863  0.0240 -0.1234  0.6825
  125MOL0     C16408   5.336   3.113   2.872 -0.0824  1.1681  0.0158
  125MOL0     C16409   5.180   3.108   2.876 -1.1816 -0.6466  0.1567
  125MOL0     C16410   5.101   3.200   2.778 -1.0127  0.0428  0.1088
  125MOL0     C16411   4.962   3.161   2.755  0.4862 -0.4255  0.3143
  125MOL0    Cl16412   4.875   3.297   2.672 -0.0392  0.3860  0.5923
  125MOL0     C16413   6.039   3.442   2.845 -0.1807 -0.2951  0.6947
  125MOL0     C16414   6.165   3.492   2.853  0.4642  0.0684  0.0965
  125MOL0     O16415   6.310   3.681   3.106  0.8092  0.9799 -0.6068
  125MOL0     C16416   6.600   3.757   2.921 -0.6802  0.5158 -0.8891
  125MOL0     C16417   6.721   3.819   2.947  0.3108 -0.3146 -0.0074
  125MOL0     N16418   7.379   4.033   3.564  0.4245 -0.0144 -0.3151
  125MOL0     N16419   7.400   4.052   3.696  0.1228 -0.4595 -0.2996
  125MOL0     C16420   6.667   4.831   4.051 -0.3635  0.6943  0.8070
  125MOL0     C16421   6.568   4.861   3.956  0.1300  1.0621  0.3646
  125MOL0     C16422   6.416   5.032   3.605 -0.3450 -0.6204 -0.2937
  125MOL0     C16423   6.301   5.051   3.691 -0.6374 -0.2954  0.5754
  125MOL0     C16424   6.197   5.134   3.662  0.8261  0.8572 -0.4322
  125MOL0     C16425   6.197   5.212   3.547 -0.9946  0.9590 -0.7885
  125MOL0     O16426   6.083   5.289   3.525 -0.7108  0.6158 -0.1201
  125MOL0     C16427   6.055   5.349   3.404 -0.3540 -0.0921 -0.6290
  125MOL0     C16428   5.942   5.446   3.415  0.3594  0.1676  0.4770
  125MOL0     C16429   5.805   5.372   3.390 -0.4537 -0.2075 -0.1081
  125MOL0     C16430   5.687   5.469   3.393 -0.0376  0.1519 -0.4535
  125MOL0     C16431   5.561   5.416   3.345 -0.3608  0.6474  0.7493
  125MOL0     C16432   5.445   5.387   3.317  0.1292  0.6166 -0.9710
  125MOL0     C16433   6.302   5.195   3.466 -0.8544  0.5277  0.8001
  125MOL0     C16434   6.416   5.119   3.490  0.3622  0.7271  0.1844
  125MOL0     H16435   6.718   4.724   3.685 -0.6840 -0.8511  0.5097
  125MOL0     H16436   6.909   4.690   3.857  0.3412 -1.3918  1.6070
  125MOL0     H16437   6.828   4.607   4.208  3.1632 -3.1409  5.5883
  125MOL0     H16438   6.837   4.753   4.294  0.1607  0.4972 -0.5631
  125MOL0     H16439   7.047   4.657   4.358 -3.3382  0.3641  1.3039
  125MOL0     H16440   7.073   4.781   4.245 -2.6504  0.4282 -0.3745
  125MOL0     H16441   7.088   4.599   4.062  0.7190  2.1748 -0.2081
  125MOL0     H16442   7.028   4.481   4.181  0.5585 -0.3501  2.5331
  125MOL0     H16443   7.275   4.636   4.238  1.4336 -0.0133 -0.6681
  125MOL0     H16444   7.241   4.478   4.295 -1.4401 -1.4646 -0.3493
  125MOL0     H16445   7.421   4.476   4.121  1.2932  1.2620 -1.4491
  125MOL0     H16446   7.309   4.549   4.002  1.6163 -0.5662 -0.7909
  125MOL0     H16447   7.149   4.366   4.012 -0.1472 -1.2171  1.7784
  125MOL0     H16448   7.239   4.288   4.122 -2.8774  1.0046  1.2669
  125MOL0     H16449   7.300   4.375   3.837 -2.8612 -1.3870 -0.8733
  125MOL0     H16450   7.429   4.290   3.932  1.1899  2.2838 -0.7912
  125MOL0     H16451   7.155   4.159   3.895 -0.5139  1.6573 -1.0554
  125MOL0     H16452   7.318   4.088   3.953 -0.3172  0.9635  0.4952
  125MOL0     H16453   7.089   4.151   3.667 -0.3984 -1.4214 -0.6384
  125MOL0     H16454   7.291   4.107   3.327  0.8162 -1.8708  0.4027
  125MOL0     H16455   7.144   4.184   3.390 -3.0959 -0.8551  2.7754
  125MOL0     H16456   7.038   3.952   3.438 -0.8074 -1.9485 -1.8311
  125MOL0     H16457   7.189   3.886   3.361  1.4224  0.1078  0.1248
  125MOL0     H16458   6.956   4.061   3.258 -0.8088 -0.5543 -2.0783
  125MOL0     H16459   7.107   4.027   3.163  0.4282 -0.1261 -0.4298
  125MOL0     H16460   6.915   3.817   3.273  1.7093  0.8720  1.6825
  125MOL0     H16461   7.045   3.793   3.162 -1.1997 -0.8664  0.0868
  125MOL0     H16462   6.683   3.880   3.276  1.8771  1.4121 -0.7760
  125MOL0     H16463   6.485   3.775   3.243 -0.5143 -1.2741  0.8144
  125MOL0     H16464   6.117   3.827   2.849  1.5132 -0.4845 -0.5150
  125MOL0     H16465   5.889   3.750   2.834  1.1644  1.7785  0.5021
  125MOL0     H16466   5.764   3.365   2.967 -1.9164  0.3520  0.0735
  125MOL0     H16467   5.817   3.327   2.796  2.2363  0.7152  0.1915
  125MOL0     H16468   5.598   3.352   2.707 -1.5805 -0.6823  0.5410
  125MOL0     H16469   5.547   3.470   2.829 -1.9032 -1.3927 -2.6145
  125MOL0     H16470   5.561   3.255   2.992  0.3879  2.8430 -0.2499
  125MOL0     H16471   5.593   3.172   2.842  0.3297  1.1034 -1.2639
  125MOL0     H16472   5.332   3.316   2.940 -1.6812 -1.8401  0.7088
  125MOL0     H16473   5.359   3.297   2.764  1.7665  2.3063  0.9086
  125MOL0     H16474   5.383   3.057   2.953 -1.5789 -3.5301 -2.0031
  125MOL0     H16475   5.374   3.067   2.781 -1.6125  1.3106 -0.7216
  125MOL0     H16476   5.157   3.136   2.979  3.4089 -0.7357  1.4480
  125MOL0     H16477   5.139   3.009   2.855 -2.4292  0.5292 -3.8881
  125MOL0     H16478   5.108   3.304   2.808  2.2674  0.6973 -2.3415
  125MOL0     H16479   5.139   3.204   2.675 -4.9024 -2.0000 -1.6020
  125MOL0     H16480   4.907   3.147   2.849 -0.0683 -0.0091  0.0532
  125MOL0     H16481   4.954   3.070   2.694  0.2019 -0.5214  0.4906
  125MOL0     H16482   6.021   3.336   2.832  0.3674 -0.3824  0.5910
  125MOL0     H16483   6.238   3.412   2.849 -0.6989 -0.9894 -1.2523
  125MOL0     H16484   6.567   3.732   2.821 -0.3321  1.0111 -1.1339
  125MOL0     H16485   6.785   3.839   2.861  0.6830 -1.2649  0.0454
  125MOL0     H16486   6.639   4.858   4.152  0.6987 -0.2076  1.3632
  125MOL0     H16487   6.479   4.914   3.989 -2.9395 -0.9424 -3.8300
  125MOL0     H16488   6.286   4.995   3.782 -0.7678 -0.2965  0.5532
  125MOL0     H16489   6.113   5.133   3.731  0.4637 -1.3149 -0.8264
  125MOL0     H16490   6.040   5.277   3.323  2.2484 -1.7589  0.2376
  125MOL0     H16491   6.145   5.409   3.387  0.0804  1.3202  4.6932
  125MOL0     H16492   5.938   5.491   3.515 -2.7096  2.8547 -0.6683
  125MOL0     H16493   5.949   5.531   3.346 -1.9530  2.1839  2.5095
  125MOL0     H16494   5.787   5.294   3.464  0.4216  1.5322  2.0870
  125MOL0     H16495   5.818   5.315   3.298 -2.3985 -3.6233  1.5608
  125MOL0     H16496   5.674   5.487   3.500 -0.6471 -5.3370  0.6876
  125MOL0     H16497   5.704   5.562   3.337 -3.6215  3.3524  3.2072
  125MOL0     H16498   5.344   5.355   3.302 -0.5768  1.5177  1.5128
  125MOL0     H16499   6.318   5.250   3.374 -0.1743  0.1054  0.6560
  125MOL0     H16500   6.500   5.133   3.423  0.4729 -0.4336  0.0612
  126MOL0     O16501   2.784   3.612   8.517 -0.0624  0.4710  0.5544
  126MOL0     C16502   2.805   3.495   8.509  0.3373  1.1416  0.7833
  126MOL0     O16503   2.775   3.403   8.613  0.6409  0.5191 -0.1105
  126MOL0     C16504   2.695   3.441   8.729  0.0298  0.6002  0.0951
  126MOL0     C16505   2.729   3.414   8.862  0.2334  0.1950  0.2477
  126MOL0     C16506   2.644   3.441   8.972  0.7681  0.3619  0.7508
  126MOL0     C16507   2.514   3.493   8.944 -0.5265  0.2185 -0.9560
  126MOL0     O16508   2.431   3.510   9.047 -0.7089 -0.0487 -0.2126
  126MOL0     C16509   2.282   3.505   9.025  0.0604 -0.0925 -0.2812
  126MOL0     C16510   2.207   3.476   9.159  0.4343 -1.2649  0.7955
  126MOL0     C16511   2.227   3.591   9.263  0.7781  0.0202 -0.6707
  126MOL0     C16512   2.112   3.574   9.365  0.3079 -0.6581  0.2527
  126MOL0     C16513   2.094   3.686   9.465 -0.1667 -0.6234  0.5904
  126MOL0     C16514   2.209   3.712   9.568  0.4853 -0.0064 -0.0757
  126MOL0     C16515   2.154   3.801   9.675  0.0381  0.4345 -0.2714
  126MOL0     C16516   2.146   3.949   9.628 -0.5460  0.5012  0.3523
  126MOL0     N16517   2.281   4.007   9.647 -0.3674 -0.3657 -0.9391
  126MOL0     C16518   2.374   4.040   9.550  0.4225 -0.2502 -0.1887
  126MOL0     C16519   2.465   4.110   9.623 -0.1105  0.2559 -0.0976
  126MOL0     C16520   2.592   4.169   9.567 -0.1202 -0.4735 -0.6604
  126MOL0     C16521   2.620   4.305   9.632  0.4643  0.8770  0.1332
  126MOL0     C16522   2.699   4.296   9.766 -0.2873  0.8713  0.9081
  126MOL0     C16523   2.769   4.430   9.788 -0.3742  0.2607  0.3787
  126MOL0     O16524   2.691   4.548   9.769 -0.0744  0.2764 -0.8722
  126MOL0     C16525   2.722   4.655   9.850  0.1776 -0.4426  0.0956
  126MOL0     C16526   2.715   4.641   9.991 -0.2396 -0.2327  1.0310
  126MOL0     C16527   2.741   4.752  10.077  0.3401 -0.8276  1.1331
  126MOL0     C16528   2.784   4.877  10.025 -0.8599 -0.0490  0.1287
  126MOL0     C16529   2.825   4.997  10.107  0.4621  0.0771 -1.1860
  126MOL0     O16530   2.834   4.972  10.245  0.6438  0.0984  0.3822
  126MOL0     C16531   2.858   5.067  10.335 -0.8978 -0.5030 -0.5470
  126MOL0     C16532   2.938   5.183  10.315 -0.6430  0.3865 -0.3331
  126MOL0     C16533   2.962   5.271  10.425  0.3811 -0.2144  0.5024
  126MOL0     C16534   2.907   5.242  10.547 -0.5007 -0.5360  0.9264
  126MOL0     O16535   2.932   5.308  10.661  0.5676 -0.1044 -0.1015
  126MOL0     C16536   2.861   5.426  10.664 -0.5759 -0.4000 -0.0655
  126MOL0     C16537   2.728   5.417  10.737 -0.3047  0.5878  0.1718
  126MOL0     C16538   2.746   5.387  10.885  0.1173  0.4557 -0.5823
  126MOL0     C16539   2.702   5.505  10.976 -0.4888 -0.7514 -0.1713
  126MOL0     C16540   2.553   5.480  11.011  0.2594 -0.6628  0.8101
  126MOL0     C16541   2.488   5.605  11.084  0.7605 -0.8068 -0.0482
  126MOL0     C16542   2.470   5.716  10.975 -0.0404 -0.1832 -0.3639
  126MOL0     C16543   2.373   5.832  11.020  1.0492 -0.3767 -0.6011
  126MOL0    Cl16544   2.362   5.953  10.895 -0.5347  0.0439 -0.3909
  126MOL0     C16545   2.821   5.134  10.569 -0.3220  0.5890 -0.2062
  126MOL0     C16546   2.808   5.043  10.464  0.2687 -0.1824  0.6956
  126MOL0     O16547   2.841   5.104  10.052 -0.3913  0.3628  0.2673
  126MOL0     C16548   2.781   4.895   9.882 -0.7581 -0.2044 -0.4418
  126MOL0     C16549   2.762   4.783   9.794  0.3828 -0.2876  0.4006
  126MOL0     N16550   2.441   4.096   9.757 -0.1840 -0.1621  0.1307
  126MOL0     N16551   2.324   4.048   9.768 -0.9112  0.1699 -0.2904
  126MOL0     C16552   2.484   3.525   8.811  0.7814  0.3425 -0.9736
  126MOL0     C16553   2.571   3.506   8.710 -0.2441 -0.3136 -0.1276
  126MOL0     C16554   2.867   3.434   8.384  0.6802  0.5298  0.4340
  126MOL0     C16555   2.881   3.292   8.366 -1.0012  0.3371  0.0917
  126MOL0     C16556   2.936   3.230   8.246  0.2281  0.0645 -0.4670
  126MOL0     C16557   2.971   3.313   8.141 -1.0256  0.6867  0.4246
  126MOL0     O16558   3.023   3.263   8.024  0.0281 -1.1154  0.1298
  126MOL0     C16559   3.082   3.137   8.008  0.3699  0.5055 -0.0922
  126MOL0     C16560   2.993   3.063   7.909 -0.3188  0.5534 -0.1638
  126MOL0     C16561   3.067   2.935   7.859 -0.0732  0.6866 -0.4586
  126MOL0     C16562   2.976   2.830   7.806 -0.0801  0.1438  0.3541
  126MOL0     C16563   3.046   2.730   7.722 -0.5105 -0.4666  0.2239
  126MOL0     C16564   3.111   2.670   7.646 -0.0706  0.7934 -0.6393
  126MOL0     C16565   2.976   3.449   8.158  0.0050  0.6748 -0.3524
  126MOL0     C16566   2.922   3.516   8.278  0.3982 -0.3784 -0.2831
  126MOL0     H16567   2.823   3.362   8.878 -0.5140 -1.3585 -0.2027
  126MOL0     H16568   2.674   3.415   9.074  1.6005  1.5830  0.8478
  126MOL0     H16569   2.261   3.426   8.952  2.5554 -0.4993 -0.6602
  126MOL0     H16570   2.239   3.594   8.979 -1.1034  0.1515  1.2283
  126MOL0     H16571   2.231   3.383   9.210 -2.0446 -1.2922  2.0960
  126MOL0     H16572   2.103   3.469   9.124  0.8000  0.6563 -0.8833
  126MOL0     H16573   2.207   3.686   9.213  0.9687 -0.4615 -1.6708
  126MOL0     H16574   2.324   3.586   9.313  0.2086  0.3474  0.5170
  126MOL0     H16575   2.019   3.557   9.310  0.3086  0.6945 -0.2209
  126MOL0     H16576   2.138   3.477   9.409  0.0186 -2.4654 -3.1848
  126MOL0     H16577   1.998   3.654   9.508 -0.4778 -3.1893 -1.7271
  126MOL0     H16578   2.064   3.781   9.420  0.4558  1.3498  4.0086
  126MOL0     H16579   2.296   3.761   9.524 -0.2682  2.3735  0.9232
  126MOL0     H16580   2.234   3.613   9.609 -0.6157 -0.5799 -0.7322
  126MOL0     H16581   2.053   3.775   9.709 -0.6076 -1.4911 -3.3191
  126MOL0     H16582   2.216   3.795   9.765  0.1109 -0.8578 -0.3877
  126MOL0     H16583   2.080   3.999   9.699 -1.5111  1.5985 -1.2705
  126MOL0     H16584   2.094   3.959   9.533  2.3770  1.9467 -1.2163
  126MOL0     H16585   2.358   4.010   9.447 -0.8893  3.3359 -1.1843
  126MOL0     H16586   2.598   4.179   9.458  5.3705 -0.4631 -0.6100
  126MOL0     H16587   2.674   4.098   9.581  2.1534  1.2968 -3.7923
  126MOL0     H16588   2.526   4.357   9.652 -0.5694 -0.7910 -0.1395
  126MOL0     H16589   2.677   4.365   9.560 -1.9589  0.1377 -2.6252
  126MOL0     H16590   2.631   4.265   9.846  1.2838 -3.0411  0.9534
  126MOL0     H16591   2.766   4.212   9.746 -0.4332  1.0683 -0.5138
  126MOL0     H16592   2.837   4.419   9.703 -2.0805 -2.1353 -0.7806
  126MOL0     H16593   2.822   4.438   9.883  1.0308  0.4898 -0.3976
  126MOL0     H16594   2.686   4.545  10.033 -1.0250 -0.0772  0.8719
  126MOL0     H16595   2.731   4.729  10.182 -0.4656 -0.9472  1.0359
  126MOL0     H16596   2.991   5.212  10.225 -1.0393  1.0838 -0.3537
  126MOL0     H16597   3.016   5.364  10.411 -4.9999  3.1409 -1.1338
  126MOL0     H16598   2.848   5.464  10.562  2.3800  1.7762  0.2292
  126MOL0     H16599   2.919   5.501  10.719  0.0223 -0.2232 -0.9186
  126MOL0     H16600   2.670   5.337  10.689  0.5033  0.3360 -0.3954
  126MOL0     H16601   2.678   5.513  10.722  0.8981  1.3174  0.6740
  126MOL0     H16602   2.850   5.360  10.909 -0.5321 -1.4387  0.3411
  126MOL0     H16603   2.686   5.298  10.903 -0.0835  0.6468 -0.2920
  126MOL0     H16604   2.753   5.501  11.073 -0.9429  2.5235  0.2964
  126MOL0     H16605   2.733   5.599  10.930  2.0961 -1.7596 -0.7052
  126MOL0     H16606   2.561   5.396  11.081 -1.2790 -0.6757  1.0116
  126MOL0     H16607   2.497   5.436  10.929 -0.4194  2.4538 -0.5424
  126MOL0     H16608   2.555   5.652  11.156  1.8360  2.0759 -2.7131
  126MOL0     H16609   2.392   5.581  11.130 -0.3285  1.1992 -1.1357
  126MOL0     H16610   2.568   5.758  10.951 -1.2281  1.9222 -1.9817
  126MOL0     H16611   2.420   5.683  10.883 -1.5120 -2.5065  1.1791
  126MOL0     H16612   2.411   5.883  11.109 -2.7817 -0.7934  1.4572
  126MOL0     H16613   2.273   5.789  11.027  0.1701  1.2288 -2.3442
  126MOL0     H16614   2.764   5.111  10.658 -0.0535 -1.1966 -0.4667
  126MOL0     H16615   2.738   4.959  10.463  0.5774 -0.5168 -2.6705
  126MOL0     H16616   2.796   4.994   9.840  1.6797 -0.1477  0.3585
  126MOL0     H16617   2.764   4.814   9.690 -2.4451 -2.6460 -0.4952
  126MOL0     H16618   2.380   3.559   8.805 -0.6427 -2.6162  2.7619
  126MOL0     H16619   2.537   3.540   8.612 -3.7661 -0.3351  0.9664
  126MOL0     H16620   2.858   3.224   8.448 -1.7155 -2.3063 -2.1496
  126MOL0     H16621   2.935   3.121   8.242  3.4860 -0.1318  0.8318
  126MOL0     H16622   3.096   3.075   8.097  0.8418  0.1532 -0.4077
  126MOL0     H16623   3.179   3.153   7.959  1.2544  0.0777  1.4494
  126MOL0     H16624   2.899   3.044   7.961 -0.3528  0.6625 -0.1838
  126MOL0     H16625   2.978   3.127   7.821 -1.8662  2.2886  1.2970
  126MOL0     H16626   3.132   2.887   7.933 -0.3575  0.9725 -0.0201
  126MOL0     H16627   3.123   2.976   7.775 -2.1603  0.7043 -1.9249
  126MOL0     H16628   2.931   2.769   7.884  1.2907 -0.1888  0.9098
  126MOL0     H16629   2.896   2.869   7.742 -1.3402 -5.9850 -2.5294
  126MOL0     H16630   3.163   2.619   7.568  0.2408  0.7875 -0.4332
  126MOL0     H16631   3.026   3.498   8.076  2.4826 -0.3304  0.4476
  126MOL0     H16632   2.918   3.624   8.276  2.3612 -0.2613 -2.7229
  127MOL0     O16633   6.347   1.550   6.844 -0.1558 -0.4593  0.2847
  127MOL0     C16634   6.256   1.628   6.802 -0.9313  0.0946  0.2558
  127MOL0     O16635   6.237   1.668   6.667  0.0497 -0.3494  0.1377
  127MOL0     C16636   6.310   1.616   6.563 -0.6740 -0.9551 -0.5817
  127MOL0     C16637   6.307   1.475   6.539  0.0705  0.2759  0.0255
  127MOL0     C16638   6.405   1.426   6.452  0.5422  0.7410 -0.0987
  127MOL0     C16639   6.494   1.509   6.383  0.3133  0.0854  0.3060
  127MOL0     O16640   6.578   1.468   6.276  0.2653  0.1357 -0.8754
  127MOL0     C16641   6.655   1.339   6.289 -0.3013 -0.2354 -0.5432
  127MOL0     C16642   6.671   1.260   6.160  0.6054 -0.3477  0.1464
  127MOL0     C16643   6.813   1.248   6.121  0.2761  0.3069 -0.3300
  127MOL0     C16644   6.836   1.141   6.006 -0.1409 -1.3882 -1.2248
  127MOL0     C16645   6.981   1.111   5.982 -0.1252 -0.1977  0.0034
  127MOL0     C16646   7.008   1.044   5.846 -0.0699 -0.1330  0.4007
  127MOL0     C16647   6.964   0.894   5.841 -0.6309 -0.8255  0.3196
  127MOL0     C16648   7.017   0.833   5.706  0.1085  0.5866  0.0077
  127MOL0     N16649   6.994   0.693   5.692  0.0037 -0.3502 -0.4135
  127MOL0     C16650   6.864   0.646   5.682 -0.3240  0.7314  0.0958
  127MOL0     C16651   6.879   0.506   5.655  0.4445  0.0299 -0.2359
  127MOL0     C16652   6.766   0.410   5.654 -0.1893 -0.7451  0.6055
  127MOL0     C16653   6.666   0.413   5.777 -1.3985 -0.4113  0.3927
  127MOL0     C16654   6.741   0.416   5.911  0.2706  0.4410 -0.0852
  127MOL0     C16655   6.644   0.407   6.029  0.0606 -0.3148  0.3096
  127MOL0     O16656   6.521   0.485   6.002 -1.1227  0.1549 -0.0621
  127MOL0     C16657   6.445   0.510   6.109 -0.5335 -0.2173  1.2458
  127MOL0     C16658   6.355   0.621   6.095 -0.3005 -0.1820  0.6707
  127MOL0     C16659   6.277   0.668   6.206  0.4397 -0.0608  1.3878
  127MOL0     C16660   6.287   0.598   6.328  0.8867 -0.4991 -0.3164
  127MOL0     C16661   6.210   0.642   6.443  0.8492 -0.3921 -0.1747
  127MOL0     O16662   6.196   0.553   6.536 -0.9359  0.4082 -0.8690
  127MOL0     C16663   6.190   0.580   6.674  0.9439 -0.2974 -0.1719
  127MOL0     C16664   6.135   0.698   6.733  0.0583  0.2324 -0.0359
  127MOL0     C16665   6.113   0.718   6.868 -0.3722 -0.9681  0.5464
  127MOL0     C16666   6.144   0.610   6.952  0.1782  0.3279 -1.0352
  127MOL0     O16667   6.119   0.610   7.088  0.0987 -0.1327  0.3046
  127MOL0     C16668   6.051   0.725   7.151  0.2279 -0.1446  0.0352
  127MOL0     C16669   5.989   0.680   7.288 -0.5142 -0.8891 -0.1416
  127MOL0     C16670   5.871   0.579   7.276 -0.2853 -0.2336 -0.0767
  127MOL0     C16671   5.823   0.542   7.421 -0.1405  0.1613 -0.3559
  127MOL0     C16672   5.722   0.427   7.428 -0.1155  0.1007  0.5370
  127MOL0     C16673   5.593   0.447   7.343  0.6794 -0.0541  0.2158
  127MOL0     C16674   5.523   0.580   7.366  0.0548  0.0041 -0.1544
  127MOL0     C16675   5.401   0.593   7.282 -1.1035 -0.0100 -0.6050
  127MOL0    Cl16676   5.251   0.511   7.348  0.2664 -0.1181  0.2581
  127MOL0     C16677   6.205   0.502   6.896  1.1996  0.7872  0.1554
  127MOL0     C16678   6.226   0.482   6.761 -0.7979 -0.2358 -0.2574
  127MOL0     O16679   6.158   0.755   6.445 -0.4715 -0.8840  0.4796
  127MOL0     C16680   6.369   0.488   6.335 -0.5891 -0.6325 -0.5504
  127MOL0     C16681   6.451   0.449   6.238  0.5064 -0.8086  0.7069
  127MOL0     N16682   7.012   0.485   5.644  0.6858 -0.1004 -0.2049
  127MOL0     N16683   7.086   0.592   5.676 -0.2618  0.0469  0.3034
  127MOL0     C16684   6.490   1.646   6.401 -0.4810  0.1497 -0.8125
  127MOL0     C16685   6.398   1.702   6.491 -0.0329 -0.0883 -0.6017
  127MOL0     C16686   6.166   1.667   6.903 -0.5283 -0.7625 -0.9051
  127MOL0     C16687   6.093   1.782   6.887 -0.4216 -0.0891 -0.5766
  127MOL0     C16688   6.014   1.827   6.995  1.0055 -0.0253 -0.2818
  127MOL0     C16689   6.004   1.759   7.118 -0.3288 -0.0429 -0.3898
  127MOL0     O16690   5.901   1.777   7.209 -1.2796 -0.4841  0.4022
  127MOL0     C16691   5.787   1.714   7.182  0.5288 -0.4614  0.6396
  127MOL0     C16692   5.737   1.662   7.321 -0.8193  0.4829 -0.6617
  127MOL0     C16693   5.619   1.558   7.316  0.9144 -1.0114 -0.5499
  127MOL0     C16694   5.504   1.602   7.416 -0.4944 -0.1665 -0.2954
  127MOL0     C16695   5.390   1.509   7.408 -0.3948  0.1606 -0.1274
  127MOL0     C16696   5.307   1.422   7.417  0.5860 -0.5974  0.1105
  127MOL0     C16697   6.079   1.648   7.128  0.2052  0.6208  0.9237
  127MOL0     C16698   6.151   1.602   7.022 -1.1510 -0.2667 -0.3940
  127MOL0     H16699   6.239   1.411   6.595  0.1865 -0.2818 -0.4637
  127MOL0     H16700   6.400   1.321   6.423 -3.5765  0.7579 -0.0685
  127MOL0     H16701   6.597   1.270   6.351  2.5303 -3.9799 -1.6614
  127MOL0     H16702   6.755   1.365   6.325 -0.4017 -0.6864  0.0775
  127MOL0     H16703   6.621   1.310   6.077  1.6044  2.3126  1.0450
  127MOL0     H16704   6.632   1.158   6.168  1.3222 -1.0879 -3.7064
  127MOL0     H16705   6.865   1.200   6.204 -0.3796 -1.5635 -0.9313
  127MOL0     H16706   6.848   1.350   6.103 -0.8832  0.6692 -0.6235
  127MOL0     H16707   6.784   1.050   6.036  2.1601 -2.5262 -0.3790
  127MOL0     H16708   6.796   1.180   5.912  1.3429 -0.0123 -1.3377
  127MOL0     H16709   7.018   1.050   6.065 -1.7672  1.4142  2.0336
  127MOL0     H16710   7.031   1.209   5.979 -2.5486  1.1499  1.0420
  127MOL0     H16711   7.114   1.033   5.824 -0.3636 -1.0594 -0.6411
  127MOL0     H16712   6.950   1.096   5.769 -1.2316  0.5837  1.7187
  127MOL0     H16713   7.009   0.847   5.929 -0.7816  2.9722  2.6403
  127MOL0     H16714   6.855   0.889   5.843 -0.6334 -0.7798  2.6109
  127MOL0     H16715   7.126   0.834   5.710  0.0802  1.3749  1.0927
  127MOL0     H16716   6.976   0.878   5.615  3.5724  1.7708 -1.1092
  127MOL0     H16717   6.774   0.707   5.684 -0.1718  0.9323  1.2874
  127MOL0     H16718   6.801   0.307   5.662  0.6478 -0.6424 -1.1882
  127MOL0     H16719   6.697   0.420   5.570 -2.1025 -0.6721  2.1102
  127MOL0     H16720   6.613   0.318   5.766 -1.5328 -0.3214  0.2598
  127MOL0     H16721   6.597   0.498   5.781 -1.8897 -0.8538  2.8447
  127MOL0     H16722   6.803   0.327   5.920  0.6506  0.7813  0.9287
  127MOL0     H16723   6.810   0.501   5.923  0.6124  0.3856 -1.5750
  127MOL0     H16724   6.689   0.470   6.106  1.0043  0.9916 -1.2772
  127MOL0     H16725   6.628   0.299   6.039 -2.1199 -0.2327 -1.6012
  127MOL0     H16726   6.360   0.676   6.002 -0.7946 -0.2676  0.5911
  127MOL0     H16727   6.218   0.758   6.189 -2.6734 -2.2115 -0.3252
  127MOL0     H16728   6.094   0.776   6.670 -1.0663 -1.1633 -1.0898
  127MOL0     H16729   6.053   0.803   6.901 -2.7786 -1.8674 -1.2402
  127MOL0     H16730   5.965   0.747   7.087 -0.3122  0.3282  0.9096
  127MOL0     H16731   6.122   0.807   7.162  2.4385 -2.1777  2.3139
  127MOL0     H16732   5.959   0.777   7.330  1.5026 -0.5685  0.6754
  127MOL0     H16733   6.066   0.644   7.357  2.0353  3.5731 -0.2693
  127MOL0     H16734   5.896   0.487   7.223  0.1352 -0.5505  0.6569
  127MOL0     H16735   5.791   0.624   7.217  0.0445  0.6537  0.1379
  127MOL0     H16736   5.907   0.504   7.480 -0.5865  0.8410  0.7256
  127MOL0     H16737   5.775   0.629   7.467  1.0144  0.5145  0.2187
  127MOL0     H16738   5.704   0.403   7.533  3.3759 -1.6577  0.9067
  127MOL0     H16739   5.764   0.334   7.387  1.3130  1.4631 -1.2946
  127MOL0     H16740   5.516   0.375   7.370 -0.6057  1.2950  0.2865
  127MOL0     H16741   5.611   0.434   7.236 -0.4811 -0.9968  0.1162
  127MOL0     H16742   5.495   0.595   7.471 -1.0097 -1.2676 -0.2333
  127MOL0     H16743   5.593   0.657   7.334  0.5982 -0.5693 -0.3703
  127MOL0     H16744   5.416   0.553   7.182  1.5264 -3.8919  1.0851
  127MOL0     H16745   5.373   0.699   7.272  1.5765  0.7263 -1.1461
  127MOL0     H16746   6.241   0.427   6.966 -1.8847  0.3484  1.4676
  127MOL0     H16747   6.258   0.384   6.726 -1.4538 -1.5265  2.4540
  127MOL0     H16748   6.376   0.434   6.429 -0.8407  0.6499  0.2375
  127MOL0     H16749   6.527   0.374   6.258  2.0396  1.0100  2.0723
  127MOL0     H16750   6.555   1.709   6.341  2.0314 -0.4850  1.0628
  127MOL0     H16751   6.383   1.809   6.503  0.3365 -0.1276  0.3039
  127MOL0     H16752   6.095   1.852   6.803 -0.8407  0.7144  0.0744
  127MOL0     H16753   5.951   1.915   6.984  3.9570  2.1144 -1.3324
  127MOL0     H16754   5.792   1.641   7.101 -1.5304 -1.6227  1.5084
  127MOL0     H16755   5.712   1.786   7.147 -0.0875 -0.9091  1.0335
  127MOL0     H16756   5.820   1.623   7.381 -3.1975  0.6938  3.1122
  127MOL0     H16757   5.703   1.755   7.367  2.2293  0.8452  1.0837
  127MOL0     H16758   5.659   1.459   7.340 -0.6934 -1.7282 -0.7135
  127MOL0     H16759   5.580   1.552   7.214  1.7161  0.3907 -0.9744
  127MOL0     H16760   5.548   1.613   7.515  1.9025  4.5235 -1.5812
  127MOL0     H16761   5.472   1.701   7.383  1.2834  0.1038 -1.3895
  127MOL0     H16762   5.243   1.336   7.410  1.3935 -1.1077 -1.7746
  127MOL0     H16763   6.073   1.585   7.216 -0.0623  1.4634  1.5108
  127MOL0     H16764   6.217   1.518   7.041  2.2761  2.5484  1.1986
  128MOL0     O16765   7.184   6.923   6.824 -0.6041  0.1558 -0.3539
  128MOL0     C16766   7.301   6.957   6.853  0.4591 -0.1882  1.3515
  128MOL0     O16767   7.371   7.028   6.777 -0.2930  0.0324 -0.7462
  128MOL0     C16768   7.328   7.101   6.667  0.0175 -1.1060 -0.4456
  128MOL0     C16769   7.334   7.040   6.536  0.0589  0.5524 -0.4591
  128MOL0     C16770   7.288   7.107   6.420 -0.0077 -0.2315 -0.9417
  128MOL0     C16771   7.232   7.235   6.432  0.5653  1.3224  0.2934
  128MOL0     O16772   7.196   7.315   6.324 -0.2941  0.2399  0.0862
  128MOL0     C16773   7.188   7.247   6.196 -0.0834 -0.8618 -0.7392
  128MOL0     C16774   7.129   7.347   6.099  0.2960 -0.8569  0.6420
  128MOL0     C16775   7.142   7.302   5.949 -0.3810  0.0030  0.4022
  128MOL0     C16776   7.046   7.377   5.850  0.3117 -0.8793 -0.6660
  128MOL0     C16777   7.066   7.333   5.707  0.1527 -0.6942 -0.4350
  128MOL0     C16778   6.996   7.419   5.606  0.3883  0.0076 -0.2289
  128MOL0     C16779   7.040   7.399   5.454  0.2908 -0.3863  0.1694
  128MOL0     C16780   7.063   7.254   5.407  0.7136 -0.2920  0.9057
  128MOL0     N16781   7.104   7.244   5.262 -0.5242  0.0410  0.5576
  128MOL0     C16782   7.167   7.127   5.213 -0.7682 -0.0942  0.0945
  128MOL0     C16783   7.151   7.139   5.081 -0.4813 -0.3946  0.2531
  128MOL0     C16784   7.222   7.043   4.986  0.8155  0.1416  1.0586
  128MOL0     C16785   7.203   7.104   4.847  0.5482 -0.3742  1.5999
  128MOL0     C16786   7.239   7.019   4.730 -0.6281  0.1987 -0.0114
  128MOL0     C16787   7.161   6.890   4.722  0.5575  0.1945 -0.7800
  128MOL0     O16788   7.204   6.778   4.795 -0.7600  0.3986 -0.2415
  128MOL0     C16789   7.320   6.718   4.750  0.0872  0.0011 -1.1239
  128MOL0     C16790   7.349   6.599   4.815 -0.7937  0.9005  0.2445
  128MOL0     C16791   7.464   6.529   4.777 -0.5674  0.2089  0.5766
  128MOL0     C16792   7.531   6.560   4.663  0.2811 -0.0158 -0.6388
  128MOL0     C16793   7.650   6.490   4.626  0.1201  0.0989 -0.1086
  128MOL0     O16794   7.685   6.400   4.721  0.8546 -0.2579 -0.3974
  128MOL0     C16795   7.798   6.323   4.706 -0.7632  0.1257 -0.1053
  128MOL0     C16796   7.796   6.180   4.735  0.4144 -0.1591  0.3315
  128MOL0     C16797   7.900   6.097   4.729  0.4233  0.1065 -0.0321
  128MOL0     C16798   8.028   6.146   4.695 -0.0683 -0.9781  0.2858
  128MOL0     O16799   8.144   6.068   4.670  0.1905  0.8162  0.1205
  128MOL0     C16800   8.148   5.931   4.704 -0.3663 -0.2003  0.0328
  128MOL0     C16801   8.285   5.870   4.681 -0.4911  0.1991  0.5516
  128MOL0     C16802   8.300   5.719   4.724 -0.2711 -0.2178  1.2209
  128MOL0     C16803   8.446   5.679   4.696  0.1702 -0.2945  0.4320
  128MOL0     C16804   8.442   5.525   4.683 -0.4550 -0.0786 -0.1560
  128MOL0     C16805   8.578   5.455   4.689 -0.3926 -0.3910 -0.0197
  128MOL0     C16806   8.576   5.296   4.680 -0.8107 -0.9333  0.6854
  128MOL0     C16807   8.711   5.233   4.679  0.0587  0.5111 -0.1731
  128MOL0    Cl16808   8.763   5.241   4.843 -0.1712  0.4559 -0.3681
  128MOL0     C16809   8.033   6.285   4.682  0.4711  0.0418 -0.2263
  128MOL0     C16810   7.926   6.377   4.683  0.0337  1.1027  0.2413
  128MOL0     O16811   7.713   6.516   4.527  0.0001 -0.3470 -0.5221
  128MOL0     C16812   7.475   6.667   4.575  0.2941 -0.2094 -0.5843
  128MOL0     C16813   7.378   6.749   4.632 -0.3979 -0.3047  0.5160
  128MOL0     N16814   7.076   7.254   5.053  0.3609 -0.1668 -0.2430
  128MOL0     N16815   7.045   7.309   5.164  0.6870  0.2861  0.0366
  128MOL0     C16816   7.253   7.301   6.557 -0.3543  0.3205 -0.6442
  128MOL0     C16817   7.303   7.240   6.674 -0.8425 -0.4899 -0.6994
  128MOL0     C16818   7.359   6.913   6.977  0.0055  0.3552 -0.1827
  128MOL0     C16819   7.287   6.858   7.083 -1.3517  0.5911  0.1578
  128MOL0     C16820   7.354   6.829   7.203  0.4615  0.0704  0.1770
  128MOL0     C16821   7.491   6.820   7.208 -0.8252  0.5599  0.5516
  128MOL0     O16822   7.541   6.766   7.325  0.5383 -0.3429  0.8037
  128MOL0     C16823   7.681   6.752   7.329  0.0585  0.2803  0.4941
  128MOL0     C16824   7.723   6.683   7.452  0.6809 -0.6596 -0.1664
  128MOL0     C16825   7.884   6.685   7.453  0.1427  1.4075 -1.1127
  128MOL0     C16826   7.950   6.625   7.582 -0.3829  0.5000  0.7751
  128MOL0     C16827   7.915   6.480   7.593  0.4624  0.5290 -0.4194
  128MOL0     C16828   7.885   6.361   7.617 -0.4856  0.1083  0.3959
  128MOL0     C16829   7.569   6.869   7.101  0.5865  0.6925  0.7307
  128MOL0     C16830   7.501   6.914   6.982  0.3500 -0.4245 -0.3554
  128MOL0     H16831   7.374   6.941   6.515 -2.2402 -0.1040 -2.2435
  128MOL0     H16832   7.301   7.071   6.318  2.3698  1.3568 -1.2786
  128MOL0     H16833   7.133   7.152   6.199  0.2873 -1.0526  1.1311
  128MOL0     H16834   7.290   7.227   6.162  1.1843  0.2732  2.0455
  128MOL0     H16835   7.193   7.435   6.114  1.9590 -2.0749  1.0411
  128MOL0     H16836   7.025   7.379   6.110  0.2262 -0.0783 -1.6732
  128MOL0     H16837   7.121   7.195   5.937  0.4014 -0.1698  0.5556
  128MOL0     H16838   7.249   7.318   5.932 -0.4562  1.0177  0.8117
  128MOL0     H16839   6.942   7.356   5.877 -0.7376  0.6390 -3.1643
  128MOL0     H16840   7.047   7.487   5.858 -0.3785 -0.9596  0.8289
  128MOL0     H16841   7.028   7.230   5.707 -1.2250 -0.2400 -2.0298
  128MOL0     H16842   7.170   7.329   5.670 -0.0336 -0.5785 -0.9865
  128MOL0     H16843   7.009   7.524   5.636  0.3341 -0.6104  2.1702
  128MOL0     H16844   6.889   7.400   5.609 -0.0849  2.4201  1.9877
  128MOL0     H16845   6.962   7.446   5.394  0.3452 -2.8499 -2.0139
  128MOL0     H16846   7.135   7.453   5.456 -0.7388  1.4609  0.6046
  128MOL0     H16847   6.967   7.205   5.420 -2.0971  4.4968  0.4931
  128MOL0     H16848   7.135   7.204   5.473 -0.5603  1.8298  4.1658
  128MOL0     H16849   7.217   7.043   5.260 -1.7816  1.7699  5.0824
  128MOL0     H16850   7.166   6.949   4.982 -2.6751  2.0587  0.7639
  128MOL0     H16851   7.328   7.028   5.008  1.5733 -1.8747 -2.9794
  128MOL0     H16852   7.274   7.186   4.843 -0.9447  0.8852 -0.3313
  128MOL0     H16853   7.100   7.138   4.832  0.8036  2.5240  5.0894
  128MOL0     H16854   7.200   7.088   4.655 -0.0835  0.6357  0.1031
  128MOL0     H16855   7.345   7.004   4.712 -1.1418 -1.1002 -2.2998
  128MOL0     H16856   7.137   6.859   4.620  1.9376 -1.5367 -0.6236
  128MOL0     H16857   7.059   6.909   4.755  0.0504  0.9757 -2.7092
  128MOL0     H16858   7.291   6.563   4.900 -0.0115 -1.0550 -0.0010
  128MOL0     H16859   7.489   6.446   4.842 -2.7975 -0.4075  0.7381
  128MOL0     H16860   7.706   6.126   4.760 -0.0737 -0.5784 -2.0546
  128MOL0     H16861   7.885   5.991   4.744  2.7388 -0.1992  0.6480
  128MOL0     H16862   8.068   5.887   4.643 -0.3279  1.5752 -1.3973
  128MOL0     H16863   8.118   5.908   4.806 -3.1614  0.4056 -0.5560
  128MOL0     H16864   8.366   5.926   4.729  0.7693 -1.2102  0.1607
  128MOL0     H16865   8.318   5.872   4.576  2.5728  1.9807  1.4264
  128MOL0     H16866   8.231   5.670   4.654 -0.4028 -0.2667  1.3832
  128MOL0     H16867   8.265   5.710   4.827 -1.5464  2.1137  1.0452
  128MOL0     H16868   8.477   5.724   4.601 -0.8471  0.0880  0.2694
  128MOL0     H16869   8.515   5.700   4.778 -0.6386 -0.7612  1.2380
  128MOL0     H16870   8.397   5.498   4.587 -0.3804  2.7661 -1.0997
  128MOL0     H16871   8.383   5.485   4.766  3.4299 -0.3419  2.7772
  128MOL0     H16872   8.610   5.481   4.791 -1.4811  5.6645 -0.8384
  128MOL0     H16873   8.636   5.496   4.606 -1.4080  0.7625 -0.1903
  128MOL0     H16874   8.513   5.264   4.764 -1.4538 -0.4327  0.4024
  128MOL0     H16875   8.528   5.270   4.585 -1.6995 -2.7128  1.5604
  128MOL0     H16876   8.772   5.289   4.607 -1.2830  1.7496 -0.4056
  128MOL0     H16877   8.714   5.126   4.656 -1.3849  0.1325  1.2386
  128MOL0     H16878   8.130   6.323   4.652  0.9523 -1.8432 -1.2568
  128MOL0     H16879   7.937   6.483   4.664 -1.4667  1.2834  0.2504
  128MOL0     H16880   7.513   6.691   4.477  1.7683  0.1495  0.0463
  128MOL0     H16881   7.342   6.817   4.555  1.8417 -0.8191 -1.1106
  128MOL0     H16882   7.240   7.408   6.557  3.0028  0.8573  1.3761
  128MOL0     H16883   7.313   7.296   6.766  0.2903  0.5283 -1.4213
  128MOL0     H16884   7.179   6.867   7.075 -1.3410  1.0752  0.5211
  128MOL0     H16885   7.305   6.785   7.289 -0.2636 -0.3116 -0.4284
  128MOL0     H16886   7.725   6.852   7.338  0.3173  0.2983 -0.8301
  128MOL0     H16887   7.725   6.700   7.244 -2.3518 -0.2693 -0.4993
  128MOL0     H16888   7.680   6.733   7.539 -3.0691  0.0351 -2.2155
  128MOL0     H16889   7.691   6.579   7.444 -0.4255 -0.3025 -0.7001
  128MOL0     H16890   7.914   6.791   7.448  0.7299  1.2634 -0.7694
  128MOL0     H16891   7.935   6.624   7.377  0.4738 -0.6747  0.7012
  128MOL0     H16892   8.059   6.634   7.579 -0.3951  0.3422 -1.6778
  128MOL0     H16893   7.920   6.673   7.676  1.8629 -0.5859  2.1391
  128MOL0     H16894   7.877   6.261   7.655 -2.0143  0.1178  0.1492
  128MOL0     H16895   7.674   6.884   7.119  0.6954  2.4069 -0.9542
  128MOL0     H16896   7.556   6.963   6.902 -1.5592 -0.2754 -1.6294
  129MOL0     O16897   4.394  10.606   5.473 -0.2037  0.3584 -0.2263
  129MOL0     C16898   4.471  10.551   5.554 -0.2168  0.6446 -0.4736
  129MOL0     O16899   4.438  10.520   5.685  0.0519  0.3267 -0.1653
  129MOL0     C16900   4.303  10.507   5.714 -0.6620  0.0256  1.1851
  129MOL0     C16901   4.229  10.601   5.785  0.3887 -0.4618 -0.0246
  129MOL0     C16902   4.097  10.584   5.806 -1.1863  1.0083 -0.1200
  129MOL0     C16903   4.033  10.472   5.756  0.9036  0.1839 -0.8133
  129MOL0     O16904   3.895  10.458   5.785  0.1862 -0.2343 -0.0913
  129MOL0     C16905   3.851  10.333   5.845 -0.1577  0.0348 -0.5806
  129MOL0     C16906   3.694  10.327   5.867 -0.6736 -0.4132 -0.6337
  129MOL0     C16907   3.660  10.372   6.012 -0.3837  0.1355 -0.2349
  129MOL0     C16908   3.506  10.348   6.022  0.2755  0.3158  0.0911
  129MOL0     C16909   3.481  10.383   6.175  0.5121  0.6891  0.0049
  129MOL0     C16910   3.338  10.343   6.208 -0.5587 -0.5571  0.7684
  129MOL0     C16911   3.301  10.372   6.360 -0.5533 -0.1717  0.5362
  129MOL0     C16912   3.145  10.345   6.378 -0.1016  0.6126  1.2863
  129MOL0     N16913   3.072  10.389   6.494  0.3414 -0.1923  0.0086
  129MOL0     C16914   2.999  10.503   6.502  0.3028  0.1586  0.2763
  129MOL0     C16915   2.975  10.518   6.638 -0.2109  0.6619  0.5272
  129MOL0     C16916   2.925  10.637   6.704  0.0103 -0.2966  0.4231
  129MOL0     C16917   2.859  10.734   6.599  0.2731  0.8976 -0.7572
  129MOL0     C16918   2.812  10.864   6.659  0.5889  0.7271 -0.1226
  129MOL0     C16919   2.738  10.841   6.790  0.7229  0.5287 -0.1571
  129MOL0     O16920   2.683  10.972   6.819  0.2717  0.0257 -0.0830
  129MOL0     C16921   2.567  10.980   6.887 -0.6248 -0.5675 -1.2933
  129MOL0     C16922   2.581  10.994   7.029 -0.4547 -0.0105 -0.7216
  129MOL0     C16923   2.463  10.987   7.111 -0.3478  0.2202 -0.6161
  129MOL0     C16924   2.331  10.976   7.060  0.4083 -0.0090 -0.7360
  129MOL0     C16925   2.211  10.966   7.154  0.2186  0.2918  0.6636
  129MOL0     O16926   2.094  10.923   7.097  0.1193 -0.1129  0.2587
  129MOL0     C16927   1.968  10.917   7.155  0.0939  0.6411  0.4542
  129MOL0     C16928   1.944  10.901   7.292 -0.7179 -0.5522  0.4254
  129MOL0     C16929   1.814  10.888   7.343 -0.4509 -0.5830  0.8745
  129MOL0     C16930   1.701  10.897   7.258  0.9040 -0.3515 -0.3551
  129MOL0     O16931   1.571  10.924   7.311 -0.4001 -0.5812  0.3863
  129MOL0     C16932   1.565  10.927   7.453  0.8652  0.4956 -0.1965
  129MOL0     C16933   1.423  10.983   7.485 -0.5110 -0.4942  0.0382
  129MOL0     C16934   1.314  10.878   7.446  1.1156 -0.1512  0.1809
  129MOL0     C16935   1.171  10.935   7.457 -0.1283 -0.5926  0.0011
  129MOL0     C16936   1.138  11.048   7.361 -0.0968 -0.1992 -0.0304
  129MOL0     C16937   0.994  11.081   7.356  0.5450 -0.5865 -0.8493
  129MOL0     C16938   0.905  10.966   7.322  0.5072  0.0859 -0.3987
  129MOL0     C16939   0.764  11.014   7.289 -0.4023  0.7327  0.0958
  129MOL0    Cl16940   0.705  10.943   7.134  0.1557 -0.2410 -0.4392
  129MOL0     C16941   1.730  10.903   7.120  0.4904 -0.5704  0.3925
  129MOL0     C16942   1.857  10.911   7.060  0.2358 -0.9737  0.1080
  129MOL0     O16943   2.240  10.974   7.271  0.1113 -0.3451 -0.7796
  129MOL0     C16944   2.322  10.974   6.925  0.1377  1.1218  1.3544
  129MOL0     C16945   2.437  10.977   6.835  0.6590  0.9642 -0.5352
  129MOL0     N16946   3.018  10.400   6.705 -0.9393 -0.2957 -0.1253
  129MOL0     N16947   3.077  10.326   6.615  0.1430  0.1735 -0.0743
  129MOL0     C16948   4.101  10.376   5.684 -0.7386  0.2078  1.0682
  129MOL0     C16949   4.241  10.394   5.665 -0.2152 -0.1809 -0.2182
  129MOL0     C16950   4.614  10.540   5.517 -0.2657 -0.3894 -0.3287
  129MOL0     C16951   4.691  10.468   5.599 -0.5231 -1.4679  0.6112
  129MOL0     C16952   4.828  10.458   5.574 -0.1292  1.1507 -0.3513
  129MOL0     C16953   4.887  10.525   5.466  0.4144 -0.1051 -0.0807
  129MOL0     O16954   5.018  10.513   5.458  0.6388 -0.2787 -0.6238
  129MOL0     C16955   5.083  10.565   5.338 -0.0360  0.0388  0.6378
  129MOL0     C16956   5.230  10.524   5.351 -0.5282 -0.0926  0.2572
  129MOL0     C16957   5.311  10.591   5.467 -0.6234 -0.4005 -0.5080
  129MOL0     C16958   5.359  10.738   5.436  0.4633 -0.3663 -0.9481
  129MOL0     C16959   5.454  10.751   5.333  0.4303 -0.1971  1.1055
  129MOL0     C16960   5.529  10.756   5.243 -1.2298 -0.4237  0.5197
  129MOL0     C16961   4.806  10.605   5.387  1.1379  0.1930  1.4418
  129MOL0     C16962   4.670  10.604   5.413 -0.1824 -0.5976 -0.4246
  129MOL0     H16963   4.283  10.687   5.821 -0.0737 -0.4884  0.7539
  129MOL0     H16964   4.041  10.662   5.856  0.6431  2.1181  0.2883
  129MOL0     H16965   3.899  10.314   5.941 -1.1962  2.9914  0.6455
  129MOL0     H16966   3.870  10.243   5.786  0.0230  0.3668 -1.0354
  129MOL0     H16967   3.663  10.226   5.841  2.9772 -1.3735 -1.8761
  129MOL0     H16968   3.640  10.399   5.805  0.4328  0.5903 -0.4762
  129MOL0     H16969   3.678  10.477   6.037  2.9928 -0.2887 -0.3852
  129MOL0     H16970   3.713  10.300   6.076 -1.2214 -1.3070 -1.0884
  129MOL0     H16971   3.457  10.410   5.946 -0.1729 -0.4914 -0.2912
  129MOL0     H16972   3.474  10.247   5.997  1.6663  0.5968 -3.3658
  129MOL0     H16973   3.497  10.490   6.191 -0.6294  1.3244 -2.5767
  129MOL0     H16974   3.549  10.330   6.242 -0.1084  1.8307  1.6265
  129MOL0     H16975   3.318  10.240   6.179  1.2557 -0.0487 -2.7859
  129MOL0     H16976   3.270  10.399   6.143 -0.1612  1.0318  1.6545
  129MOL0     H16977   3.356  10.305   6.426 -2.9339  0.2056  3.0745
  129MOL0     H16978   3.319  10.476   6.389 -2.9722  0.9631 -1.6143
  129MOL0     H16979   3.138  10.237   6.364  3.6268  0.5995 -2.5369
  129MOL0     H16980   3.090  10.385   6.292  1.8683  0.1532 -0.2525
  129MOL0     H16981   2.978  10.582   6.430 -0.9296  0.6304  1.1237
  129MOL0     H16982   3.003  10.689   6.760 -0.7510  1.2955  0.0761
  129MOL0     H16983   2.849  10.599   6.773  1.0563 -0.4295  1.5336
  129MOL0     H16984   2.772  10.684   6.553  0.9191 -0.5339 -0.4811
  129MOL0     H16985   2.934  10.758   6.523  0.9137  2.6236  0.3665
  129MOL0     H16986   2.893  10.934   6.684 -0.3987  2.0355 -0.4273
  129MOL0     H16987   2.747  10.910   6.583  0.1769 -1.5863 -1.2597
  129MOL0     H16988   2.815  10.819   6.864  0.7029 -1.5549 -0.7028
  129MOL0     H16989   2.652  10.779   6.766 -1.0458  3.2034 -1.2951
  129MOL0     H16990   2.678  11.016   7.073  1.3276 -3.2949 -2.6012
  129MOL0     H16991   2.474  10.991   7.219  1.3696  2.7681 -0.7942
  129MOL0     H16992   2.024  10.898   7.366 -0.6115  0.4501  0.3574
  129MOL0     H16993   1.803  10.856   7.446  1.2905 -3.9313  0.1457
  129MOL0     H16994   1.639  10.996   7.494 -0.3999  1.7318  0.0528
  129MOL0     H16995   1.572  10.824   7.488 -0.1793 -0.1027 -1.6305
  129MOL0     H16996   1.411  11.071   7.423  1.4621 -0.0962  0.1383
  129MOL0     H16997   1.417  11.013   7.590  0.1970 -2.1184  0.5907
  129MOL0     H16998   1.323  10.793   7.514  0.0449 -1.9516 -1.8041
  129MOL0     H16999   1.325  10.854   7.340 -0.0023 -0.8668  0.2115
  129MOL0     H17000   1.102  10.852   7.439 -1.1491  0.2962 -0.3031
  129MOL0     H17001   1.158  10.986   7.552  0.6424  1.7573 -1.0753
  129MOL0     H17002   1.144  11.019   7.256 -2.2501  1.7913 -0.7836
  129MOL0     H17003   1.201  11.136   7.379 -0.5385 -0.0496  0.8188
  129MOL0     H17004   0.993  11.160   7.281 -0.4315  1.4921  1.2462
  129MOL0     H17005   0.957  11.118   7.452  1.6514  2.0054 -1.3504
  129MOL0     H17006   0.949  10.909   7.240 -1.6219  0.6297 -2.0295
  129MOL0     H17007   0.893  10.904   7.411  0.9706  2.8450  1.7240
  129MOL0     H17008   0.773  11.122   7.274  1.1022  0.3136 -2.5043
  129MOL0     H17009   0.691  10.999   7.369 -1.1792 -3.0631 -1.1572
  129MOL0     H17010   1.644  10.898   7.053  1.1758 -0.4698 -0.5055
  129MOL0     H17011   1.881  10.922   6.955 -0.1917 -0.2912  0.0736
  129MOL0     H17012   2.233  10.967   6.863  1.5514  1.9443 -0.9023
  129MOL0     H17013   2.418  10.958   6.730 -1.1128 -0.4302 -0.0260
  129MOL0     H17014   4.056  10.282   5.652  0.5894  0.2128 -0.9884
  129MOL0     H17015   4.305  10.336   5.599 -1.5330  1.2220 -2.9081
  129MOL0     H17016   4.653  10.414   5.684  1.8174  1.4095  3.7696
  129MOL0     H17017   4.892  10.399   5.639  1.4218  2.8517 -0.2454
  129MOL0     H17018   5.070  10.673   5.334  2.3088  0.4708  2.3635
  129MOL0     H17019   5.051  10.515   5.246  2.3470 -3.6311  1.6133
  129MOL0     H17020   5.227  10.415   5.352  0.2068 -0.1093  0.8269
  129MOL0     H17021   5.271  10.571   5.261  1.5829  0.1358  1.2966
  129MOL0     H17022   5.401  10.530   5.476 -1.4745 -1.8683 -1.5769
  129MOL0     H17023   5.266  10.569   5.564  1.4728  2.0191  1.1680
  129MOL0     H17024   5.274  10.807   5.430  2.0724  2.0085  1.1859
  129MOL0     H17025   5.415  10.766   5.526  1.4682 -1.8056 -1.0935
  129MOL0     H17026   5.589  10.758   5.154  0.3299  0.5986  1.5381
  129MOL0     H17027   4.843  10.657   5.299  2.5590  1.7068  2.8640
  129MOL0     H17028   4.602  10.668   5.358 -0.5536 -0.3261  0.3376
  130MOL0     O17029   4.417   4.570   9.096  0.2649  0.4681 -0.1527
  130MOL0     C17030   4.298   4.522   9.105 -0.2775  0.3051  0.2476
  130MOL0     O17031   4.267   4.388   9.087  0.2145  0.6179 -0.6395
  130MOL0     C17032   4.346   4.297   9.008  0.1591 -0.3018  1.2839
  130MOL0     C17033   4.308   4.169   9.018  0.1592  0.0641  0.5199
  130MOL0     C17034   4.376   4.067   8.946 -0.0618  0.3522 -0.6924
  130MOL0     C17035   4.493   4.098   8.867 -0.7011 -0.4776 -0.6588
  130MOL0     O17036   4.568   4.001   8.798  0.1226  0.6398 -0.2450
  130MOL0     C17037   4.508   3.870   8.768 -0.1613 -0.3300 -0.1328
  130MOL0     C17038   4.605   3.779   8.694  0.2067  0.2456 -0.5912
  130MOL0     C17039   4.734   3.762   8.773  0.2640  0.8949  0.0318
  130MOL0     C17040   4.832   3.643   8.730  0.3727  0.0728  0.3716
  130MOL0     C17041   4.777   3.506   8.788  0.1184  0.4107  0.5456
  130MOL0     C17042   4.821   3.388   8.710 -0.1604  0.0596 -0.4536
  130MOL0     C17043   4.772   3.249   8.776 -0.1954 -0.0505  1.3391
  130MOL0     C17044   4.816   3.111   8.700 -0.3709 -0.3501 -0.5047
  130MOL0     N17045   4.737   3.005   8.751  0.5697 -0.5051 -0.6042
  130MOL0     C17046   4.601   2.992   8.730  0.0407 -0.7261  0.1844
  130MOL0     C17047   4.567   2.888   8.812 -0.2034 -0.6799 -0.2406
  130MOL0     C17048   4.423   2.849   8.831  0.1429  0.1778  0.3060
  130MOL0     C17049   4.349   2.926   8.933  0.3465 -0.1174 -0.1050
  130MOL0     C17050   4.213   2.857   8.971 -0.0072 -0.3250  0.1951
  130MOL0     C17051   4.106   2.966   9.007  1.1482  0.2760 -0.6419
  130MOL0     O17052   4.090   2.963   9.148  0.7338  1.1823 -0.2905
  130MOL0     C17053   4.031   2.850   9.214  1.2416 -0.4154  1.0089
  130MOL0     C17054   3.960   2.749   9.147  0.0663  0.1996 -0.5838
  130MOL0     C17055   3.896   2.651   9.219  0.6468 -0.0232 -0.5775
  130MOL0     C17056   3.876   2.655   9.361 -0.3819  0.3248  0.9652
  130MOL0     C17057   3.814   2.534   9.425  0.1221  0.3762 -1.0860
  130MOL0     O17058   3.877   2.498   9.541  0.6016 -0.1542  0.0429
  130MOL0     C17059   3.852   2.371   9.582 -0.1388 -0.0226 -0.0841
  130MOL0     C17060   3.759   2.346   9.681  0.0400 -0.7241  0.4493
  130MOL0     C17061   3.736   2.212   9.726  0.1426  0.8119  0.3864
  130MOL0     C17062   3.818   2.105   9.675 -0.0504 -0.6286  0.5753
  130MOL0     O17063   3.810   1.980   9.728 -0.1620 -0.5092 -0.2038
  130MOL0     C17064   3.683   1.915   9.718  0.5560  0.1510 -0.0099
  130MOL0     C17065   3.709   1.789   9.627 -0.3535  0.3448 -0.1236
  130MOL0     C17066   3.714   1.805   9.473 -0.5999 -0.0582 -0.1832
  130MOL0     C17067   3.723   1.667   9.408  0.2554 -0.3866  0.2890
  130MOL0     C17068   3.842   1.580   9.443  0.6050  0.4264  0.5049
  130MOL0     C17069   3.974   1.631   9.398  0.7197 -0.3168  0.2070
  130MOL0     C17070   4.087   1.530   9.389  1.2228 -0.4488 -0.2143
  130MOL0     C17071   4.194   1.584   9.305  0.6204 -0.3036 -0.0641
  130MOL0    Cl17072   4.357   1.515   9.334  0.3750  0.3355  0.1756
  130MOL0     C17073   3.923   2.139   9.582  0.0138 -0.3655 -0.4793
  130MOL0     C17074   3.935   2.267   9.536  0.5732  0.0499  0.1451
  130MOL0     O17075   3.753   2.454   9.351 -0.1810 -0.1570  0.3973
  130MOL0     C17076   3.940   2.760   9.426 -0.5984  0.6757  0.0065
  130MOL0     C17077   4.011   2.856   9.352  0.4529 -1.1060  0.7008
  130MOL0     N17078   4.683   2.827   8.868  0.1040 -1.6378  0.2773
  130MOL0     N17079   4.782   2.901   8.824 -0.1167  0.0882  0.2429
  130MOL0     C17080   4.543   4.229   8.871 -0.5215  0.6987  0.7376
  130MOL0     C17081   4.474   4.325   8.947  0.1412 -0.4713  0.3638
  130MOL0     C17082   4.189   4.613   9.151  0.6250 -0.7101  0.1113
  130MOL0     C17083   4.214   4.740   9.209 -0.1421 -0.2799 -0.3055
  130MOL0     C17084   4.101   4.823   9.237 -0.1911 -0.1028 -1.0821
  130MOL0     C17085   3.969   4.794   9.224 -0.8588  0.1478 -0.2159
  130MOL0     O17086   3.875   4.879   9.288 -1.0822 -0.7843  0.1619
  130MOL0     C17087   3.735   4.860   9.261 -0.2233  0.5826 -0.1877
  130MOL0     C17088   3.657   4.990   9.276 -0.8078  0.4564 -0.1013
  130MOL0     C17089   3.512   4.985   9.217 -0.2358  0.2574  0.4277
  130MOL0     C17090   3.395   5.004   9.322 -0.2751 -0.4383 -0.8864
  130MOL0     C17091   3.416   5.111   9.413  0.1271  0.2757 -0.1494
  130MOL0     C17092   3.425   5.201   9.488  0.5737  0.0603  0.1714
  130MOL0     C17093   3.945   4.668   9.163  0.1654  0.1779  0.2062
  130MOL0     C17094   4.050   4.584   9.122 -0.4753 -0.7198 -0.4657
  130MOL0     H17095   4.233   4.156   9.095 -0.0190  0.3826  0.4029
  130MOL0     H17096   4.341   3.964   8.944  1.1986 -0.1017 -0.0831
  130MOL0     H17097   4.428   3.891   8.696 -0.8525  1.8655  1.1606
  130MOL0     H17098   4.470   3.829   8.862  0.0433 -1.5309 -0.5670
  130MOL0     H17099   4.614   3.799   8.587  2.5692 -0.8986 -0.6629
  130MOL0     H17100   4.554   3.683   8.682  2.2937 -1.1218  0.8098
  130MOL0     H17101   4.701   3.742   8.876  2.6263  1.5877  0.9966
  130MOL0     H17102   4.786   3.859   8.777 -1.6425  2.0044 -0.7047
  130MOL0     H17103   4.852   3.624   8.624  0.0589 -2.3817  0.6909
  130MOL0     H17104   4.928   3.665   8.777  1.4295 -2.4712 -0.4255
  130MOL0     H17105   4.668   3.509   8.783  0.1042 -0.5255 -0.0488
  130MOL0     H17106   4.812   3.499   8.892  0.9906 -0.1823  0.2209
  130MOL0     H17107   4.931   3.387   8.717 -0.2638  0.0952  1.7903
  130MOL0     H17108   4.788   3.381   8.606  0.8997 -1.4283 -0.7327
  130MOL0     H17109   4.810   3.243   8.878  0.9302 -2.8971  0.8546
  130MOL0     H17110   4.662   3.250   8.771 -0.1585  0.2623  0.5431
  130MOL0     H17111   4.922   3.087   8.716 -0.8497 -3.2484 -1.0336
  130MOL0     H17112   4.818   3.113   8.590  3.9844  1.2259 -0.5798
  130MOL0     H17113   4.536   3.057   8.672  0.8739  2.4536  2.4750
  130MOL0     H17114   4.415   2.746   8.865 -1.0537  0.5432  1.2114
  130MOL0     H17115   4.386   2.862   8.729  3.9596  2.1371 -1.0352
  130MOL0     H17116   4.342   3.029   8.896 -1.9752  0.0505  0.6609
  130MOL0     H17117   4.405   2.931   9.027 -0.3777  0.2116  0.3146
  130MOL0     H17118   4.178   2.790   8.892  0.0638 -1.9405  1.4874
  130MOL0     H17119   4.235   2.789   9.053  0.2671 -1.7561 -1.0255
  130MOL0     H17120   4.015   2.952   8.947  1.0769  1.1842 -0.7540
  130MOL0     H17121   4.143   3.066   8.986 -0.9060  0.7462 -2.4368
  130MOL0     H17122   3.964   2.752   9.039 -0.9253 -0.8003 -0.6707
  130MOL0     H17123   3.842   2.569   9.173  0.9055 -0.0447 -0.8436
  130MOL0     H17124   3.698   2.423   9.728  1.4738  1.7963 -1.5682
  130MOL0     H17125   3.662   2.203   9.805 -0.9877 -0.2655 -0.7450
  130MOL0     H17126   3.610   1.987   9.680 -0.9190 -0.5793  1.3235
  130MOL0     H17127   3.655   1.891   9.821  2.1414  1.2775  0.7281
  130MOL0     H17128   3.622   1.727   9.651 -0.0978  0.5380  1.3877
  130MOL0     H17129   3.799   1.734   9.655  0.6395 -0.1021 -3.6796
  130MOL0     H17130   3.798   1.868   9.442 -0.7868 -0.6160 -1.9040
  130MOL0     H17131   3.616   1.837   9.437  0.2759 -0.5714 -3.2236
  130MOL0     H17132   3.632   1.610   9.424  0.1515  0.0587  1.3588
  130MOL0     H17133   3.727   1.677   9.299 -3.0490 -0.3104  0.0770
  130MOL0     H17134   3.813   1.484   9.398 -2.0010 -0.2826  3.3607
  130MOL0     H17135   3.843   1.563   9.551 -3.0097  0.3660  0.6246
  130MOL0     H17136   3.997   1.709   9.472  0.5218 -0.5059  0.4715
  130MOL0     H17137   3.966   1.687   9.305  0.9557  0.2996  0.5481
  130MOL0     H17138   4.113   1.501   9.491 -0.4096  0.0291  0.3748
  130MOL0     H17139   4.052   1.432   9.353 -0.0660 -0.9808  2.2497
  130MOL0     H17140   4.203   1.691   9.323  1.0018 -0.5289  1.2036
  130MOL0     H17141   4.162   1.579   9.200  2.9491 -1.5208 -0.7963
  130MOL0     H17142   3.992   2.059   9.559 -0.3538 -1.1860  1.1806
  130MOL0     H17143   4.010   2.277   9.458  2.1605 -2.7315  1.1651
  130MOL0     H17144   3.953   2.760   9.534  1.0065 -0.9898 -0.1280
  130MOL0     H17145   4.071   2.934   9.398 -0.4796 -0.0625  0.1987
  130MOL0     H17146   4.625   4.267   8.811  1.5736 -0.3635  2.7640
  130MOL0     H17147   4.522   4.422   8.948  2.1291 -1.3326  3.2378
  130MOL0     H17148   4.319   4.764   9.215 -0.5846  2.0011 -0.8182
  130MOL0     H17149   4.143   4.917   9.271 -1.7853 -0.5037  2.3031
  130MOL0     H17150   3.694   4.785   9.331  0.6799 -3.0951 -3.2326
  130MOL0     H17151   3.729   4.811   9.163  1.9216 -0.2641  0.0530
  130MOL0     H17152   3.661   5.023   9.380  0.4385 -2.1480  0.7651
  130MOL0     H17153   3.710   5.075   9.234  0.3759  0.7811  1.9139
  130MOL0     H17154   3.501   4.896   9.154  2.1779  0.8458 -0.9707
  130MOL0     H17155   3.507   5.071   9.149 -0.4251  2.3793  2.9560
  130MOL0     H17156   3.299   5.023   9.274 -1.0897  1.0898  1.2090
  130MOL0     H17157   3.392   4.916   9.387  4.0138 -0.6616 -0.6753
  130MOL0     H17158   3.440   5.281   9.559 -2.7019 -0.5134  1.6937
  130MOL0     H17159   3.844   4.630   9.146  1.2079 -2.8552  0.2974
  130MOL0     H17160   4.039   4.492   9.065  1.5005 -1.6853  0.6330
  131MOL0     O17161   7.601   7.444   1.148  0.0298 -0.2078  0.0903
  131MOL0     C17162   7.542   7.375   1.230 -0.7571 -0.4463  0.3025
  131MOL0     O17163   7.589   7.332   1.350 -1.4278  1.3189 -0.0032
  131MOL0     C17164   7.705   7.373   1.398  0.0600  0.3556  0.3218
  131MOL0     C17165   7.715   7.359   1.536  1.1404 -0.7127 -1.3927
  131MOL0     C17166   7.824   7.405   1.604  0.3520 -0.2110 -0.2249
  131MOL0     C17167   7.937   7.449   1.531 -0.5489 -0.1295 -0.2345
  131MOL0     O17168   8.056   7.507   1.576 -0.3482  0.8126 -0.6084
  131MOL0     C17169   8.095   7.495   1.715  0.3788  0.0951 -0.2756
  131MOL0     C17170   8.250   7.510   1.719 -0.8023  0.7754 -0.2475
  131MOL0     C17171   8.305   7.479   1.854  1.1099  0.0133 -0.8031
  131MOL0     C17172   8.447   7.533   1.888 -0.7833 -0.2515 -0.4707
  131MOL0     C17173   8.498   7.479   2.025 -0.2435 -0.5060 -0.3183
  131MOL0     C17174   8.658   7.516   2.042 -0.0060 -1.0197 -0.0652
  131MOL0     C17175   8.716   7.471   2.173  0.2112  0.3725 -0.2629
  131MOL0     C17176   8.861   7.490   2.180 -0.0456 -0.2170  0.0062
  131MOL0     N17177   8.919   7.426   2.297 -0.6206  0.1237 -0.1550
  131MOL0     C17178   9.039   7.474   2.338 -0.0572  0.0361 -1.3562
  131MOL0     C17179   9.079   7.379   2.431  0.0122  0.2893  0.5125
  131MOL0     C17180   9.195   7.381   2.520 -0.0947  0.0892 -0.6178
  131MOL0     C17181   9.319   7.401   2.433 -0.4080 -1.4741 -0.9729
  131MOL0     C17182   9.416   7.487   2.522 -0.0768  1.2717  0.0228
  131MOL0     C17183   9.538   7.526   2.447 -0.0034  0.0111  0.3469
  131MOL0     O17184   9.597   7.631   2.505 -0.3877 -0.3072 -0.4174
  131MOL0     C17185   9.714   7.679   2.451 -0.3208 -0.2514  0.8720
  131MOL0     C17186   9.761   7.794   2.509 -1.2340 -0.0936  0.4658
  131MOL0     C17187   9.885   7.851   2.466 -0.2525 -0.5453  0.0024
  131MOL0     C17188   9.958   7.798   2.347  1.0684 -0.0420 -0.4574
  131MOL0     C17189  10.068   7.862   2.282 -0.9305 -0.0730 -0.1797
  131MOL0     O17190  10.135   7.789   2.198  0.0480 -0.3771 -0.4346
  131MOL0     C17191  10.261   7.831   2.156  1.4243 -0.3827  0.8262
  131MOL0     C17192  10.285   7.958   2.096 -0.6085  0.2418 -0.2138
  131MOL0     C17193  10.415   8.003   2.057  0.4575 -0.1631  0.1070
  131MOL0     C17194  10.528   7.921   2.076 -0.3956 -0.0875  0.8317
  131MOL0     O17195  10.652   7.961   2.045  0.0446  0.3288 -0.0078
  131MOL0     C17196  10.682   8.028   1.922 -0.1138 -0.4118 -0.9277
  131MOL0     C17197  10.835   8.038   1.926  0.2091  0.0120 -0.5368
  131MOL0     C17198  10.879   8.140   2.034 -0.6555 -1.1542 -0.2022
  131MOL0     C17199  11.019   8.190   1.978 -0.2178 -0.1926  0.9564
  131MOL0     C17200  11.115   8.238   2.091 -0.3340  0.2062  0.2636
  131MOL0     C17201  11.068   8.353   2.179 -0.2119  0.4344  0.3910
  131MOL0     C17202  11.074   8.481   2.103  0.6248  0.3643 -0.0431
  131MOL0     C17203  11.076   8.606   2.191 -0.0887  0.1326  0.7826
  131MOL0    Cl17204  10.912   8.636   2.264 -0.0980 -0.3785  0.1710
  131MOL0     C17205  10.502   7.799   2.132  0.1198  0.0285 -0.3981
  131MOL0     C17206  10.375   7.753   2.168  0.1519 -1.4549  0.2693
  131MOL0     O17207  10.099   7.978   2.319 -0.0194 -0.3345  0.0663
  131MOL0     C17208   9.908   7.678   2.297 -0.4262 -0.0818 -0.1371
  131MOL0     C17209   9.794   7.611   2.355 -0.3533  0.8726  1.3982
  131MOL0     N17210   8.977   7.282   2.445 -0.1587 -0.1864 -0.4350
  131MOL0     N17211   8.877   7.318   2.366 -0.4822 -0.4257 -0.2071
  131MOL0     C17212   7.934   7.468   1.392 -0.0196  0.7674 -0.3967
  131MOL0     C17213   7.818   7.423   1.328  0.2538 -0.1443  0.4731
  131MOL0     C17214   7.403   7.326   1.200 -1.3411  0.4567  0.0795
  131MOL0     C17215   7.344   7.225   1.277  0.0530  0.1497  0.3528
  131MOL0     C17216   7.217   7.177   1.237 -0.3454 -1.0231 -0.1900
  131MOL0     C17217   7.149   7.236   1.130  0.7272  0.7620  0.6068
  131MOL0     O17218   7.028   7.179   1.084  0.3502  0.4033  0.2215
  131MOL0     C17219   6.910   7.225   1.146 -0.4003  0.2985 -0.7324
  131MOL0     C17220   6.880   7.369   1.087 -1.0040  0.1379 -0.0852
  131MOL0     C17221   6.838   7.378   0.942 -0.0167  0.0364  1.5019
  131MOL0     C17222   6.707   7.303   0.913 -0.1389  0.3492  0.0093
  131MOL0     C17223   6.649   7.360   0.799  0.3677 -0.2701  0.3348
  131MOL0     C17224   6.609   7.404   0.689 -0.8909  1.7041  0.1753
  131MOL0     C17225   7.213   7.327   1.044 -0.4340  0.1400  0.0114
  131MOL0     C17226   7.340   7.368   1.081  0.2452  0.8399  0.0865
  131MOL0     H17227   7.633   7.313   1.591  2.2207  0.9200  1.8177
  131MOL0     H17228   7.844   7.411   1.711  0.9631 -2.9975 -0.1017
  131MOL0     H17229   8.079   7.397   1.762  2.6282  0.3260  1.0821
  131MOL0     H17230   8.047   7.577   1.768 -0.5677 -1.7062  1.8120
  131MOL0     H17231   8.283   7.609   1.686 -2.5295  0.8864 -1.7900
  131MOL0     H17232   8.301   7.431   1.662 -0.8305  0.7697 -0.2647
  131MOL0     H17233   8.302   7.370   1.856 -1.3910  0.0298  0.8946
  131MOL0     H17234   8.243   7.518   1.935  0.2035  1.7000 -2.2341
  131MOL0     H17235   8.516   7.499   1.810 -2.0449 -2.0673 -0.8558
  131MOL0     H17236   8.444   7.642   1.890 -2.1949 -0.2859 -0.1891
  131MOL0     H17237   8.491   7.370   2.020  1.4066 -0.6066 -0.9408
  131MOL0     H17238   8.437   7.536   2.095  0.9540  3.3918 -2.1764
  131MOL0     H17239   8.670   7.624   2.049 -1.2553 -0.8654 -0.0707
  131MOL0     H17240   8.718   7.473   1.961  0.1180  0.4827 -0.7968
  131MOL0     H17241   8.663   7.521   2.254 -3.7341 -2.1740 -0.9923
  131MOL0     H17242   8.689   7.365   2.184 -0.2693  0.4250 -0.8789
  131MOL0     H17243   8.893   7.595   2.184  0.5153 -0.4216  1.7964
  131MOL0     H17244   8.913   7.461   2.088  1.8782  3.8033 -0.3883
  131MOL0     H17245   9.107   7.550   2.300  1.1986 -1.3120 -1.9382
  131MOL0     H17246   9.197   7.285   2.574  0.7056 -1.3296 -3.0061
  131MOL0     H17247   9.178   7.452   2.601  6.8489 -1.2363  2.7179
  131MOL0     H17248   9.298   7.464   2.346  2.9642  0.2722 -0.6811
  131MOL0     H17249   9.352   7.301   2.402  0.4621 -1.2588 -0.7753
  131MOL0     H17250   9.356   7.568   2.564 -2.6746 -0.7959  0.5628
  131MOL0     H17251   9.452   7.424   2.604  2.5100  2.8153  0.1795
  131MOL0     H17252   9.516   7.545   2.342 -1.7896 -3.0191  0.0668
  131MOL0     H17253   9.603   7.438   2.443  2.0263  1.2636  2.5558
  131MOL0     H17254   9.696   7.844   2.579 -3.3822 -1.4551 -0.4341
  131MOL0     H17255   9.901   7.954   2.497 -5.6581  0.1219  1.7317
  131MOL0     H17256  10.206   8.025   2.065 -0.3731  0.3381 -0.6158
  131MOL0     H17257  10.428   8.102   2.015  0.1263 -0.1364  0.0634
  131MOL0     H17258  10.636   8.127   1.917 -1.9584 -1.2036 -0.4599
  131MOL0     H17259  10.659   7.967   1.833  0.2401 -0.5093 -0.9539
  131MOL0     H17260  10.859   8.081   1.828 -3.9178  2.2419 -0.7620
  131MOL0     H17261  10.888   7.946   1.953  2.2470  1.9611  2.7939
  131MOL0     H17262  10.894   8.084   2.126  4.2083  2.5355  1.6961
  131MOL0     H17263  10.810   8.224   2.050 -1.3331 -1.9644  1.3331
  131MOL0     H17264  11.055   8.107   1.917 -2.0306  0.1051 -0.6133
  131MOL0     H17265  11.007   8.279   1.917 -0.9119  0.6872  2.3340
  131MOL0     H17266  11.205   8.266   2.035 -0.0462 -2.2545 -0.6131
  131MOL0     H17267  11.140   8.149   2.149 -1.6583 -1.8350 -2.1341
  131MOL0     H17268  11.134   8.367   2.265  0.6895  3.1081 -0.6316
  131MOL0     H17269  10.963   8.339   2.206 -0.6637 -2.9081 -2.4261
  131MOL0     H17270  11.167   8.482   2.047  1.2596 -2.7731  0.7501
  131MOL0     H17271  10.985   8.489   2.039  0.6848  1.6931  0.0141
  131MOL0     H17272  11.090   8.691   2.124 -1.1192 -0.4115 -0.1668
  131MOL0     H17273  11.163   8.593   2.255  2.7406  2.7368 -2.1668
  131MOL0     H17274  10.587   7.734   2.147 -0.0684 -1.3946 -4.2492
  131MOL0     H17275  10.365   7.659   2.221 -0.9612 -1.7429 -0.4030
  131MOL0     H17276   9.957   7.617   2.222  2.2011 -2.2918  3.0989
  131MOL0     H17277   9.773   7.509   2.324  0.8634  1.1282 -0.3746
  131MOL0     H17278   8.024   7.502   1.342 -2.0049  3.0385 -2.6766
  131MOL0     H17279   7.819   7.441   1.220  0.3319  0.2950  0.5456
  131MOL0     H17280   7.392   7.184   1.365  1.4971 -0.7723 -0.8110
  131MOL0     H17281   7.160   7.105   1.296 -0.4928 -0.7337  0.0260
  131MOL0     H17282   6.922   7.226   1.254  1.5601 -0.8598 -0.8697
  131MOL0     H17283   6.833   7.154   1.115  0.5214  0.5680 -4.0425
  131MOL0     H17284   6.800   7.416   1.146 -1.7744 -3.4953  2.0566
  131MOL0     H17285   6.968   7.434   1.095 -2.0811  1.5955  0.3806
  131MOL0     H17286   6.916   7.335   0.879 -2.2413 -0.9348 -0.7405
  131MOL0     H17287   6.828   7.482   0.910 -0.5799 -0.6055 -0.5638
  131MOL0     H17288   6.727   7.197   0.898  0.7453  0.3343  1.1521
  131MOL0     H17289   6.628   7.303   0.988 -1.2954 -3.3251 -1.0132
  131MOL0     H17290   6.572   7.450   0.600 -1.6096 -1.2952 -1.2243
  131MOL0     H17291   7.161   7.357   0.953  0.0953 -0.5854 -0.5504
  131MOL0     H17292   7.397   7.441   1.026  1.8865 -1.9392 -2.2284
  132MOL0     O17293   7.259   1.961  11.351 -0.3254 -0.0702  0.4866
  132MOL0     C17294   7.153   2.022  11.344  0.6181 -0.1190 -0.2144
  132MOL0     O17295   7.127   2.158  11.387  0.3110  0.0410  0.6956
  132MOL0     C17296   7.224   2.248  11.421  0.1678 -0.2139  0.6263
  132MOL0     C17297   7.359   2.223  11.413  0.5630 -0.5318  0.1216
  132MOL0     C17298   7.445   2.315  11.454 -0.5426  0.0616 -0.0970
  132MOL0     C17299   7.397   2.441  11.498 -0.5289 -0.4269 -0.0454
  132MOL0     O17300   7.499   2.532  11.513 -0.1621  0.1651  0.5218
  132MOL0     C17301   7.487   2.658  11.569 -0.2110 -0.4310 -0.1456
  132MOL0     C17302   7.616   2.685  11.639 -0.8023  0.3288 -0.7921
  132MOL0     C17303   7.607   2.640  11.791  0.8046 -0.0178 -0.7359
  132MOL0     C17304   7.751   2.610  11.849  0.2318  0.0284 -0.2256
  132MOL0     C17305   7.753   2.576  11.991 -0.2580  0.1044  0.3822
  132MOL0     C17306   7.886   2.536  12.045  0.1299 -0.0488 -0.1093
  132MOL0     C17307   8.002   2.642  12.021 -0.6363 -0.6800  0.6955
  132MOL0     C17308   8.135   2.573  12.054  0.1227 -0.2139 -0.3798
  132MOL0     N17309   8.253   2.668  12.040 -0.2979 -0.6250 -0.0158
  132MOL0     C17310   8.303   2.741  12.141  0.4287 -0.3061  0.6518
  132MOL0     C17311   8.411   2.814  12.092 -0.3542 -0.1036  0.4663
  132MOL0     C17312   8.507   2.919  12.148  0.0673 -0.1964 -0.3956
  132MOL0     C17313   8.619   2.866  12.237 -0.6266 -1.0281  0.4342
  132MOL0     C17314   8.697   2.981  12.300  0.1909 -0.3106 -0.0563
  132MOL0     C17315   8.808   2.932  12.404 -0.1370  0.1183 -0.6272
  132MOL0     O17316   8.930   2.881  12.352  0.2634  0.7936  0.6270
  132MOL0     C17317   9.040   2.949  12.391  0.0784 -0.4026  0.9395
  132MOL0     C17318   9.075   2.947  12.526  0.8883  0.4425  1.0788
  132MOL0     C17319   9.185   3.018  12.578  0.4172  0.1428  0.1607
  132MOL0     C17320   9.259   3.091  12.491 -0.1796  0.3334 -0.1459
  132MOL0     C17321   9.382   3.166  12.543  0.3173 -0.5641  0.7181
  132MOL0     O17322   9.481   3.176  12.453 -0.0363 -0.3543  1.1689
  132MOL0     C17323   9.602   3.240  12.456  0.0241 -0.1842  0.4561
  132MOL0     C17324   9.689   3.216  12.348  0.1338  0.4272 -0.1544
  132MOL0     C17325   9.814   3.276  12.340  0.1701  0.6126  0.6401
  132MOL0     C17326   9.861   3.355  12.445  0.1193  0.0260 -0.1934
  132MOL0     O17327   9.983   3.421  12.439  0.5682 -0.5299 -0.8575
  132MOL0     C17328   9.985   3.494  12.315  0.3794  0.0673  0.0567
  132MOL0     C17329  10.121   3.570  12.303  0.0894 -0.6023  0.2572
  132MOL0     C17330  10.242   3.476  12.301  0.5696  0.3355 -0.3399
  132MOL0     C17331  10.378   3.537  12.278  0.4296 -1.2458  0.0170
  132MOL0     C17332  10.493   3.441  12.275 -0.4446  1.1668  0.2257
  132MOL0     C17333  10.631   3.497  12.225  0.9531 -1.2415  0.1405
  132MOL0     C17334  10.739   3.388  12.225  0.3176 -0.5267  0.1713
  132MOL0     C17335  10.751   3.315  12.357 -0.5422 -0.3101 -0.6367
  132MOL0    Cl17336  10.893   3.197  12.358  0.5633  0.1313 -0.0568
  132MOL0     C17337   9.773   3.372  12.554 -0.1457 -0.5562  0.2283
  132MOL0     C17338   9.650   3.307  12.570  0.1570 -0.2322  1.1324
  132MOL0     O17339   9.388   3.198  12.660 -0.0007 -0.5218 -0.9644
  132MOL0     C17340   9.224   3.092  12.354  0.6813 -0.2915 -1.1913
  132MOL0     C17341   9.120   3.018  12.300  0.3451 -0.3310 -0.2056
  132MOL0     N17342   8.421   2.785  11.954  0.8044  0.0370  0.4613
  132MOL0     N17343   8.324   2.704  11.931  0.4253  0.5414  0.4982
  132MOL0     C17344   7.266   2.480  11.497  0.7514 -0.1591  0.3661
  132MOL0     C17345   7.178   2.374  11.468  0.2558 -0.6365  0.0479
  132MOL0     C17346   7.030   1.952  11.302 -0.2184 -0.1459 -0.2683
  132MOL0     C17347   6.903   2.009  11.288 -0.4972  0.5954 -0.6096
  132MOL0     C17348   6.795   1.924  11.268  0.7217  0.2713 -0.7200
  132MOL0     C17349   6.793   1.790  11.275 -1.1956 -0.4081  0.4424
  132MOL0     O17350   6.681   1.712  11.265 -0.7049  0.3277  0.8210
  132MOL0     C17351   6.569   1.785  11.223  0.2056 -0.1229 -0.0346
  132MOL0     C17352   6.474   1.665  11.174  0.5739 -0.7452  0.6601
  132MOL0     C17353   6.534   1.587  11.060  0.3455 -0.5199 -0.2213
  132MOL0     C17354   6.443   1.468  11.034  0.0970  0.3825  0.0760
  132MOL0     C17355   6.434   1.365  11.145 -0.3737  0.2762 -0.1111
  132MOL0     C17356   6.427   1.281  11.232 -0.9206 -0.6623  0.3425
  132MOL0     C17357   6.921   1.736  11.286  0.3206  0.2494 -0.8221
  132MOL0     C17358   7.032   1.814  11.296  0.3490 -0.3477 -1.1169
  132MOL0     H17359   7.407   2.132  11.377 -4.4815 -2.7052 -2.0945
  132MOL0     H17360   7.550   2.287  11.451 -0.5286 -0.1504  1.5008
  132MOL0     H17361   7.404   2.665  11.640  1.3272  3.8840  1.6238
  132MOL0     H17362   7.464   2.729  11.489 -0.3686 -1.0990 -0.6950
  132MOL0     H17363   7.629   2.793  11.647 -0.6670  0.2039  1.2373
  132MOL0     H17364   7.704   2.655  11.581  0.2018 -2.1018  1.7475
  132MOL0     H17365   7.551   2.547  11.783 -2.1444  1.7054 -1.7209
  132MOL0     H17366   7.547   2.704  11.856  0.4012 -1.1887  0.0621
  132MOL0     H17367   7.791   2.527  11.791  2.9007 -0.3508  1.9726
  132MOL0     H17368   7.810   2.699  11.824 -1.9207  0.9487 -2.4395
  132MOL0     H17369   7.677   2.500  12.011  1.0883 -2.0314 -1.9640
  132MOL0     H17370   7.727   2.675  12.029  2.3578  2.2122 -2.7443
  132MOL0     H17371   7.919   2.440  12.003 -3.7877 -2.1007  0.9401
  132MOL0     H17372   7.869   2.519  12.152 -2.0349 -2.2147 -0.7105
  132MOL0     H17373   7.998   2.667  11.914 -2.4173  1.5871  1.2145
  132MOL0     H17374   7.979   2.734  12.075  2.6200  0.3202  0.5682
  132MOL0     H17375   8.158   2.493  11.982  0.0436 -2.6883  2.1578
  132MOL0     H17376   8.136   2.520  12.150  0.6055  0.2063 -0.1518
  132MOL0     H17377   8.262   2.736  12.242 -0.5429 -0.0699  0.2726
  132MOL0     H17378   8.444   2.991  12.200 -3.5925 -1.4696 -2.6679
  132MOL0     H17379   8.555   2.974  12.066 -2.6112  1.8563 -0.7294
  132MOL0     H17380   8.701   2.821  12.181 -0.2063  2.2216 -1.8524
  132MOL0     H17381   8.586   2.784  12.302  0.5291 -2.3344 -0.5430
  132MOL0     H17382   8.755   3.043  12.231  2.0980 -2.8634 -0.9032
  132MOL0     H17383   8.629   3.048  12.353 -0.0807 -1.5415  1.2281
  132MOL0     H17384   8.761   2.867  12.478 -0.3284 -0.4073 -1.2012
  132MOL0     H17385   8.825   3.022  12.463  2.0282 -1.4974  1.3982
  132MOL0     H17386   9.017   2.868  12.575 -0.9479  0.1166 -1.4247
  132MOL0     H17387   9.196   3.024  12.685  1.8582 -1.9205  0.1800
  132MOL0     H17388   9.659   3.135  12.283  1.5419 -0.2283 -0.0329
  132MOL0     H17389   9.874   3.238  12.259 -2.7646 -3.6910  0.1506
  132MOL0     H17390   9.899   3.560  12.309  1.0634  0.8286 -4.1438
  132MOL0     H17391   9.982   3.422  12.233 -3.3982 -0.6089  0.6046
  132MOL0     H17392  10.149   3.644  12.379  0.9136 -0.4645 -0.1664
  132MOL0     H17393  10.120   3.622  12.207 -0.4195 -3.3473 -1.3154
  132MOL0     H17394  10.228   3.395  12.228  0.6548 -0.2300  0.2607
  132MOL0     H17395  10.243   3.414  12.391  2.3307  0.3566 -0.3163
  132MOL0     H17396  10.367   3.590  12.183 -0.8385  0.6822  1.1832
  132MOL0     H17397  10.390   3.608  12.360 -2.5524 -1.4122  0.7003
  132MOL0     H17398  10.455   3.363  12.207 -4.2680  1.5823  1.6245
  132MOL0     H17399  10.510   3.402  12.375  2.0959  0.8718 -0.2648
  132MOL0     H17400  10.660   3.589  12.277 -1.4502  1.1543 -2.3725
  132MOL0     H17401  10.621   3.535  12.122  1.4832  2.5740  1.3300
  132MOL0     H17402  10.700   3.310  12.159 -1.8157 -0.2609  1.0633
  132MOL0     H17403  10.835   3.434  12.196  0.4635  0.9687  2.7601
  132MOL0     H17404  10.662   3.254  12.373  0.6398 -2.3802 -1.5975
  132MOL0     H17405  10.769   3.385  12.439 -1.3824 -0.0386 -0.6770
  132MOL0     H17406   9.813   3.431  12.637  0.4794 -0.1492 -0.3511
  132MOL0     H17407   9.584   3.324  12.654 -1.6883  1.2839 -0.5030
  132MOL0     H17408   9.296   3.153  12.301  1.8797  0.4118  1.1291
  132MOL0     H17409   9.100   3.024  12.194 -2.5412 -0.7073  0.2153
  132MOL0     H17410   7.226   2.580  11.513 -2.8219 -1.2450 -0.7845
  132MOL0     H17411   7.073   2.402  11.476 -0.1383 -2.3800  1.6177
  132MOL0     H17412   6.885   2.112  11.316  1.0656  0.4854  0.9583
  132MOL0     H17413   6.698   1.973  11.263 -0.1062 -1.3539 -1.0681
  132MOL0     H17414   6.580   1.853  11.138 -2.4868  1.5246  0.7975
  132MOL0     H17415   6.522   1.837  11.307 -0.6530 -0.0904 -0.5262
  132MOL0     H17416   6.445   1.597  11.256 -4.3782  1.1691  0.8155
  132MOL0     H17417   6.382   1.711  11.139  0.5200  0.4803  2.2619
  132MOL0     H17418   6.633   1.554  11.093 -0.7400 -3.4969  0.3117
  132MOL0     H17419   6.551   1.655  10.975  2.2267 -0.4415  0.1725
  132MOL0     H17420   6.344   1.507  11.009  1.4286  3.7429 -0.5362
  132MOL0     H17421   6.474   1.419  10.942  2.0507  0.6364  0.5665
  132MOL0     H17422   6.416   1.212  11.313  0.5464  0.3007  1.4029
  132MOL0     H17423   6.929   1.630  11.304  0.6818  0.8289  3.5544
  132MOL0     H17424   7.125   1.759  11.307  1.0574  1.0262  0.1461
  133MOL0     O17425   1.764   8.047   4.548  0.7030 -0.1139  0.3666
  133MOL0     C17426   1.826   8.133   4.614 -0.2041  0.3371 -0.3045
  133MOL0     O17427   1.805   8.269   4.600 -0.0877 -0.5540  0.4318
  133MOL0     C17428   1.739   8.324   4.491  0.1135 -0.6586  0.0485
  133MOL0     C17429   1.701   8.454   4.517  0.8527  1.0986  0.1675
  133MOL0     C17430   1.625   8.534   4.427  0.1456  0.7734  0.9524
  133MOL0     C17431   1.595   8.484   4.303  0.4082 -0.0459 -0.1082
  133MOL0     O17432   1.515   8.539   4.211  0.5149  0.6992 -0.2180
  133MOL0     C17433   1.474   8.679   4.230 -0.3164  0.2835 -0.4918
  133MOL0     C17434   1.371   8.706   4.339 -0.0527  0.2949  0.0107
  133MOL0     C17435   1.343   8.860   4.356  0.3011 -0.2798  0.5328
  133MOL0     C17436   1.457   8.936   4.424 -0.6920 -0.6502 -0.3201
  133MOL0     C17437   1.415   9.082   4.457 -0.6356  0.0129 -0.3481
  133MOL0     C17438   1.361   9.084   4.594 -0.4754  1.1767 -0.7354
  133MOL0     C17439   1.238   9.163   4.595  0.2898  0.2111  0.0816
  133MOL0     C17440   1.247   9.318   4.555  0.6714 -0.1869 -0.3574
  133MOL0     N17441   1.120   9.387   4.576 -1.3537 -0.1845  0.8736
  133MOL0     C17442   1.064   9.414   4.700 -0.3343  0.3560 -0.3262
  133MOL0     C17443   0.989   9.518   4.691 -0.3906  0.4842 -0.2547
  133MOL0     C17444   0.902   9.570   4.802  0.3483  0.0193  0.2875
  133MOL0     C17445   0.754   9.585   4.769 -0.9717 -0.5143  0.5888
  133MOL0     C17446   0.668   9.609   4.896 -1.0996 -0.5679 -0.0035
  133MOL0     C17447   0.602   9.477   4.938 -0.5959 -0.4967 -0.3833
  133MOL0     O17448   0.552   9.489   5.079  1.1219 -0.2971  0.4173
  133MOL0     C17449   0.422   9.537   5.101  0.6993  0.7646  0.5450
  133MOL0     C17450   0.326   9.441   5.138 -0.0675  0.4354  1.0137
  133MOL0     C17451   0.200   9.484   5.170  0.0740  0.3315 -0.9371
  133MOL0     C17452   0.165   9.620   5.170 -0.6059 -0.0323  1.0880
  133MOL0     C17453   0.042   9.667   5.230  0.5007  0.8764  0.1482
  133MOL0     O17454   0.027   9.795   5.256 -0.9531  0.1286 -0.4124
  133MOL0     C17455  -0.086   9.841   5.315 -0.8435 -0.3320 -0.3280
  133MOL0     C17456  -0.089   9.868   5.453  0.0122  0.4022  0.0848
  133MOL0     C17457  -0.191   9.942   5.502  0.1550  0.0072 -0.3401
  133MOL0     C17458  -0.275  10.016   5.424 -0.5058 -0.5958  0.0418
  133MOL0     O17459  -0.375  10.103   5.475  0.3158 -0.1527  0.1156
  133MOL0     C17460  -0.402  10.119   5.615 -0.1328  0.9323 -0.5967
  133MOL0     C17461  -0.503  10.223   5.648  0.1818  0.3843 -0.6845
  133MOL0     C17462  -0.651  10.163   5.656 -0.9364 -0.2187  0.0542
  133MOL0     C17463  -0.751  10.281   5.666 -0.5564 -0.5829 -0.5418
  133MOL0     C17464  -0.889  10.224   5.688 -0.0508 -0.2764 -0.6707
  133MOL0     C17465  -0.979  10.348   5.708  0.1768 -0.4264  0.0513
  133MOL0     C17466  -1.135  10.334   5.718  0.1450  0.1202  0.2922
  133MOL0     C17467  -1.206  10.459   5.777  0.0219 -0.3612 -0.0709
  133MOL0    Cl17468  -1.179  10.622   5.691  0.1253  0.0807 -0.2912
  133MOL0     C17469  -0.278   9.991   5.292 -0.2976  0.5547 -0.1693
  133MOL0     C17470  -0.189   9.901   5.239 -0.1121 -0.1212  0.4280
  133MOL0     O17471  -0.037   9.579   5.270 -0.4189 -0.7608  0.0590
  133MOL0     C17472   0.260   9.711   5.102  0.8917 -0.4044 -0.3914
  133MOL0     C17473   0.383   9.668   5.074  0.3825  0.0196 -0.1945
  133MOL0     N17474   0.995   9.561   4.553 -0.7824  0.5439 -0.0484
  133MOL0     N17475   1.077   9.481   4.486 -0.0529  0.2127  0.2536
  133MOL0     C17476   1.644   8.358   4.275 -0.1868 -0.0949  0.2144
  133MOL0     C17477   1.707   8.276   4.363 -0.4738  1.0201  0.5764
  133MOL0     C17478   1.916   8.091   4.726  0.5982  0.3021  0.1677
  133MOL0     C17479   1.998   8.183   4.798  0.0361 -0.3899 -0.3415
  133MOL0     C17480   2.070   8.134   4.909  0.1620 -0.8485  0.2800
  133MOL0     C17481   2.058   8.004   4.958  0.5360  0.1705  0.5885
  133MOL0     O17482   2.118   7.959   5.070 -0.8908  0.4257  0.5927
  133MOL0     C17483   2.168   7.825   5.091 -0.0720 -0.2751 -0.1325
  133MOL0     C17484   2.210   7.811   5.231 -1.1910  1.0058 -0.6742
  133MOL0     C17485   2.338   7.882   5.276 -1.0887 -0.3371 -0.0354
  133MOL0     C17486   2.366   7.887   5.429  0.7068 -0.3764  0.5915
  133MOL0     C17487   2.409   7.762   5.482 -0.7757 -0.0654  0.2407
  133MOL0     C17488   2.478   7.678   5.528 -1.0107  0.1007  0.2835
  133MOL0     C17489   1.976   7.913   4.882  0.4447 -0.1755 -0.0265
  133MOL0     C17490   1.909   7.952   4.764  0.5841 -0.6881 -0.4647
  133MOL0     H17491   1.720   8.507   4.610  2.4057 -0.1528  0.5903
  133MOL0     H17492   1.614   8.637   4.459  1.6979  1.2621  0.0269
  133MOL0     H17493   1.411   8.699   4.143 -2.2828  2.5838  1.3280
  133MOL0     H17494   1.560   8.746   4.236 -1.1606  1.6553 -2.7602
  133MOL0     H17495   1.407   8.674   4.437  1.1465  0.9664 -0.1906
  133MOL0     H17496   1.283   8.649   4.310  0.5205 -1.2077  1.1103
  133MOL0     H17497   1.252   8.869   4.417  1.1478  0.7080  1.7065
  133MOL0     H17498   1.334   8.915   4.261  2.3731  2.4028  1.7522
  133MOL0     H17499   1.482   8.889   4.519 -1.0750 -2.8077 -1.2197
  133MOL0     H17500   1.543   8.911   4.360 -2.2582 -3.8426 -1.4012
  133MOL0     H17501   1.341   9.123   4.388 -0.2666  1.5136  0.1107
  133MOL0     H17502   1.499   9.151   4.449 -1.6831  1.2448 -1.0201
  133MOL0     H17503   1.429   9.118   4.673  1.5308 -2.7398 -0.4867
  133MOL0     H17504   1.343   8.981   4.628  1.9030  1.0216  0.2971
  133MOL0     H17505   1.163   9.123   4.526  0.6562  0.6215 -0.5626
  133MOL0     H17506   1.210   9.149   4.700  2.3425 -1.1126  0.5087
  133MOL0     H17507   1.270   9.336   4.450  3.7794  3.5572  0.7086
  133MOL0     H17508   1.315   9.387   4.606 -1.7461  2.1069 -0.0219
  133MOL0     H17509   1.081   9.360   4.793 -2.2140  0.3147  0.0298
  133MOL0     H17510   0.940   9.671   4.820 -3.6387  1.6966  0.3326
  133MOL0     H17511   0.912   9.518   4.898 -2.0495  3.0402  2.3558
  133MOL0     H17512   0.718   9.511   4.698  2.5868 -2.1426  0.2773
  133MOL0     H17513   0.747   9.672   4.703 -2.1770  0.2241  1.6288
  133MOL0     H17514   0.729   9.657   4.973 -0.8143 -0.3347 -0.3707
  133MOL0     H17515   0.587   9.677   4.871  0.1328  0.2839 -1.8849
  133MOL0     H17516   0.672   9.394   4.926 -0.1664  0.0188 -1.5738
  133MOL0     H17517   0.523   9.456   4.866  0.2401  1.7645 -2.0921
  133MOL0     H17518   0.373   9.345   5.156  2.6152  1.5841  0.7912
  133MOL0     H17519   0.142   9.415   5.229 -0.3294 -0.1889 -1.9118
  133MOL0     H17520  -0.014   9.827   5.521 -3.0047 -2.8819  1.7760
  133MOL0     H17521  -0.198   9.964   5.608 -1.9206 -0.6332 -0.2957
  133MOL0     H17522  -0.311  10.159   5.662  0.2308 -0.0473 -0.4408
  133MOL0     H17523  -0.423  10.021   5.659  2.2935  1.0379  0.9894
  133MOL0     H17524  -0.501  10.308   5.579  1.5290  3.7181  3.0899
  133MOL0     H17525  -0.473  10.257   5.747  0.2308 -1.0331 -0.1905
  133MOL0     H17526  -0.670  10.099   5.743 -2.9146  0.0386 -0.1500
  133MOL0     H17527  -0.674  10.102   5.569 -0.7062  1.4867 -1.2383
  133MOL0     H17528  -0.732  10.349   5.750  1.4489 -2.2602  0.4560
  133MOL0     H17529  -0.754  10.347   5.579  3.2292  3.3150  1.8770
  133MOL0     H17530  -0.902  10.171   5.783 -1.5575  0.1238 -0.6274
  133MOL0     H17531  -0.915  10.156   5.606 -4.0250 -0.3305  0.4395
  133MOL0     H17532  -0.962  10.408   5.618  0.1747  0.5948  0.7178
  133MOL0     H17533  -0.954  10.395   5.803 -3.0295 -3.5887  2.7672
  133MOL0     H17534  -1.193  10.319   5.626 -2.8040 -2.4231  2.3467
  133MOL0     H17535  -1.148  10.259   5.796 -1.6449  0.0954  0.0258
  133MOL0     H17536  -1.175  10.472   5.881  0.0053 -0.2546 -0.0793
  133MOL0     H17537  -1.314  10.444   5.765 -0.4824  3.1797 -1.0436
  133MOL0     H17538  -0.352  10.042   5.231 -0.1265  1.4945  0.3833
  133MOL0     H17539  -0.207   9.893   5.133  1.4418  1.7375 -0.0285
  133MOL0     H17540   0.240   9.817   5.084 -1.9398 -0.8814 -0.4543
  133MOL0     H17541   0.459   9.736   5.036  2.7862 -2.0542  0.6292
  133MOL0     H17542   1.613   8.312   4.181  1.8290 -0.3488 -0.3813
  133MOL0     H17543   1.736   8.176   4.332 -0.1826  1.0057  0.8942
  133MOL0     H17544   2.014   8.283   4.758  0.1749 -0.0899  0.4389
  133MOL0     H17545   2.131   8.209   4.960 -3.7458  2.9916 -0.1414
  133MOL0     H17546   2.253   7.806   5.025  1.1568  1.9016  0.6938
  133MOL0     H17547   2.096   7.746   5.071  1.1317 -1.3895 -0.1994
  133MOL0     H17548   2.132   7.844   5.300  1.5431 -0.5707  3.5597
  133MOL0     H17549   2.240   7.706   5.247 -1.5217  0.9773 -0.2119
  133MOL0     H17550   2.346   7.985   5.241 -0.0862  1.0530  3.8469
  133MOL0     H17551   2.428   7.835   5.234 -0.3971  1.4333 -0.5975
  133MOL0     H17552   2.442   7.956   5.465 -0.7185  0.6474  1.7107
  133MOL0     H17553   2.272   7.921   5.474  1.0973  1.4399  0.0892
  133MOL0     H17554   2.540   7.599   5.566 -0.1636  0.4614 -0.3323
  133MOL0     H17555   1.979   7.807   4.904  2.9425  0.4340  3.2747
  133MOL0     H17556   1.854   7.875   4.711  0.7025 -0.7533 -0.4916
  134MOL0     O17557   3.700   7.559   6.388 -0.3549  0.7684  0.7137
  134MOL0     C17558   3.693   7.561   6.263  0.9487 -0.0654 -0.6169
  134MOL0     O17559   3.584   7.616   6.194 -0.0346 -0.0879  0.1242
  134MOL0     C17560   3.476   7.669   6.256  0.3601 -0.1035 -0.5561
  134MOL0     C17561   3.469   7.725   6.383  0.2995  0.6190  0.0750
  134MOL0     C17562   3.348   7.785   6.430 -1.0320  0.2615 -0.1488
  134MOL0     C17563   3.233   7.777   6.349  0.1054 -1.3868  0.0182
  134MOL0     O17564   3.117   7.834   6.374  0.3775 -0.6993 -0.2911
  134MOL0     C17565   3.100   7.903   6.502  0.0636 -0.2661  0.4909
  134MOL0     C17566   2.957   7.934   6.537  0.0834 -0.3682  0.4803
  134MOL0     C17567   2.858   7.935   6.418 -0.8357  0.1424 -0.2454
  134MOL0     C17568   2.712   7.969   6.473  0.4200 -0.1098  0.5390
  134MOL0     C17569   2.611   7.986   6.362  0.7271  0.1367 -1.2464
  134MOL0     C17570   2.478   7.999   6.437 -0.8315 -0.0885  0.1031
  134MOL0     C17571   2.362   8.032   6.342  0.5658  0.7848 -0.0228
  134MOL0     C17572   2.244   8.087   6.419 -0.3475 -0.0562  0.0170
  134MOL0     N17573   2.111   8.085   6.352 -0.8219 -0.3647 -0.9899
  134MOL0     C17574   2.097   8.133   6.228 -1.0001  0.8245  0.0241
  134MOL0     C17575   1.965   8.120   6.187  0.0686  0.0415 -0.9867
  134MOL0     C17576   1.896   8.178   6.058  0.7710  0.5311 -0.0187
  134MOL0     C17577   1.883   8.077   5.941 -0.5273 -0.1495  0.7206
  134MOL0     C17578   1.748   8.100   5.867 -1.3477 -0.8368  0.7782
  134MOL0     C17579   1.735   8.238   5.794 -0.8199  0.5706 -0.9639
  134MOL0     O17580   1.614   8.292   5.839  0.3542  0.0017  0.3837
  134MOL0     C17581   1.502   8.234   5.784  0.2079 -0.3886  0.4903
  134MOL0     C17582   1.400   8.203   5.873  0.8603  0.5803  1.0820
  134MOL0     C17583   1.276   8.153   5.822 -0.2189  0.3009 -0.3064
  134MOL0     C17584   1.251   8.138   5.689  0.0137 -0.3042 -1.0617
  134MOL0     C17585   1.134   8.057   5.647  0.3444  0.0261  0.9372
  134MOL0     O17586   1.145   7.959   5.544 -0.4991  0.2190 -0.9440
  134MOL0     C17587   1.050   7.859   5.529  1.1010 -0.7308  0.1058
  134MOL0     C17588   1.027   7.807   5.398 -0.2074 -0.0073 -0.5731
  134MOL0     C17589   0.917   7.721   5.381  0.2795 -0.0764 -0.2730
  134MOL0     C17590   0.848   7.679   5.489  0.1623  0.1219 -1.3450
  134MOL0     O17591   0.752   7.591   5.460 -1.0480 -0.8096 -0.1831
  134MOL0     C17592   0.744   7.482   5.547 -0.4050  1.2734 -0.5362
  134MOL0     C17593   0.674   7.365   5.477  0.5678  0.5071  0.2996
  134MOL0     C17594   0.744   7.320   5.348  0.5544  0.4304  0.0376
  134MOL0     C17595   0.655   7.212   5.279  0.3066 -0.5673 -0.4985
  134MOL0     C17596   0.712   7.179   5.142 -0.4636  0.3224 -0.2886
  134MOL0     C17597   0.683   7.297   5.049 -0.3560  0.2302 -0.4815
  134MOL0     C17598   0.719   7.258   4.903 -0.3242  0.6687 -0.0035
  134MOL0     C17599   0.684   7.372   4.800 -0.4553 -0.3169 -0.3132
  134MOL0    Cl17600   0.793   7.380   4.661  0.6339  0.1701  0.5982
  134MOL0     C17601   0.889   7.710   5.629  0.8713  0.2144  0.4476
  134MOL0     C17602   0.992   7.803   5.644  0.4343  0.4802  0.1601
  134MOL0     O17603   1.035   8.079   5.707 -0.4023  0.3250  0.3106
  134MOL0     C17604   1.345   8.186   5.597 -0.3015  0.6964  0.0749
  134MOL0     C17605   1.474   8.235   5.649 -0.5666  0.0270  0.4016
  134MOL0     N17606   1.902   8.057   6.298 -0.5942  0.2699  0.2038
  134MOL0     N17607   1.987   8.045   6.391 -0.6109  0.6855 -0.5432
  134MOL0     C17608   3.239   7.705   6.229  0.3550 -0.3073  0.0469
  134MOL0     C17609   3.365   7.654   6.181  0.0435 -1.4975  0.2283
  134MOL0     C17610   3.800   7.481   6.192 -1.1822 -0.3871 -0.6517
  134MOL0     C17611   3.915   7.419   6.253 -0.1675 -0.5181  0.1190
  134MOL0     C17612   4.009   7.356   6.173  0.1069 -0.5538  0.0144
  134MOL0     C17613   3.998   7.356   6.035 -0.2582 -0.2491  0.1582
  134MOL0     O17614   4.107   7.310   5.964  0.2199  1.1082 -0.9849
  134MOL0     C17615   4.161   7.177   5.997  0.7024 -0.2685 -0.1096
  134MOL0     C17616   4.223   7.111   5.880 -0.7597 -0.1172 -0.8398
  134MOL0     C17617   4.287   6.973   5.913 -0.6734 -0.5634  0.4826
  134MOL0     C17618   4.389   6.935   5.806  0.3181  0.4279 -0.5406
  134MOL0     C17619   4.335   6.929   5.668 -0.6454 -0.1635 -0.2940
  134MOL0     C17620   4.294   6.946   5.556  0.1942 -0.2101 -0.0083
  134MOL0     C17621   3.883   7.409   5.977  0.3568  0.1243  0.2423
  134MOL0     C17622   3.789   7.479   6.055  0.6870  0.7073  0.1447
  134MOL0     H17623   3.558   7.733   6.444  0.7663  0.5772 -0.6000
  134MOL0     H17624   3.361   7.834   6.526 -1.6503  1.4647 -0.6504
  134MOL0     H17625   3.153   7.998   6.494 -0.6268  0.0620 -0.4973
  134MOL0     H17626   3.131   7.838   6.584 -2.0008 -1.6621  0.2569
  134MOL0     H17627   2.949   8.029   6.590  1.6923  1.7513 -2.7765
  134MOL0     H17628   2.938   7.850   6.604  1.7333  0.8450  2.6035
  134MOL0     H17629   2.856   7.839   6.365  0.8941  1.6155 -3.2267
  134MOL0     H17630   2.890   8.015   6.351  3.0885  0.0503  1.2297
  134MOL0     H17631   2.687   7.887   6.541 -0.4546 -0.1646  0.1596
  134MOL0     H17632   2.721   8.066   6.523  0.3515  1.0235 -1.5512
  134MOL0     H17633   2.607   7.894   6.303  1.6778 -2.2650  2.1328
  134MOL0     H17634   2.626   8.076   6.301  0.1042 -0.8168 -2.8744
  134MOL0     H17635   2.481   8.073   6.518  0.4619  0.4152 -0.3946
  134MOL0     H17636   2.451   7.906   6.488 -1.5787  0.0640  0.0013
  134MOL0     H17637   2.392   8.111   6.272 -1.5888  2.2508  0.6111
  134MOL0     H17638   2.325   7.939   6.297 -0.5620  1.1109  0.2148
  134MOL0     H17639   2.267   8.191   6.443 -0.8066  0.6221 -2.2579
  134MOL0     H17640   2.248   8.034   6.515  1.6070  1.7138  1.0135
  134MOL0     H17641   2.183   8.166   6.170 -0.3505 -0.5838  0.1457
  134MOL0     H17642   1.945   8.273   6.035 -2.9598  2.0033 -2.8582
  134MOL0     H17643   1.794   8.207   6.082 -0.0857 -0.1616 -2.5418
  134MOL0     H17644   1.897   7.979   5.987  1.8453 -0.1020  0.2332
  134MOL0     H17645   1.965   8.084   5.868  2.2190 -0.1795  3.5686
  134MOL0     H17646   1.722   8.015   5.803  0.4662 -2.4636  2.0749
  134MOL0     H17647   1.674   8.104   5.947 -0.8884 -0.7198  1.2051
  134MOL0     H17648   1.738   8.214   5.687 -1.8120  0.7960 -1.0467
  134MOL0     H17649   1.815   8.310   5.816 -2.9650  2.1850  2.4870
  134MOL0     H17650   1.410   8.209   5.981 -0.2411  2.5215  1.1230
  134MOL0     H17651   1.206   8.116   5.896  2.4517 -4.6079  0.2238
  134MOL0     H17652   1.077   7.852   5.313  1.9298 -1.1922  0.0009
  134MOL0     H17653   0.898   7.690   5.278  1.0789 -0.4565 -0.3156
  134MOL0     H17654   0.688   7.519   5.633 -1.3413  3.4267 -1.9871
  134MOL0     H17655   0.839   7.440   5.582 -1.3839 -2.6634 -2.0604
  134MOL0     H17656   0.574   7.401   5.452 -0.4612 -2.4359 -0.2572
  134MOL0     H17657   0.660   7.276   5.540  0.1737  0.5709  0.2984
  134MOL0     H17658   0.842   7.287   5.383 -0.1235 -0.9067  0.7904
  134MOL0     H17659   0.749   7.420   5.306  2.7161  0.6395  0.7083
  134MOL0     H17660   0.645   7.117   5.334  4.1436 -0.9081 -0.0585
  134MOL0     H17661   0.550   7.240   5.267  0.3952  0.9087  1.6248
  134MOL0     H17662   0.661   7.091   5.102  1.3497  0.5169 -3.2897
  134MOL0     H17663   0.820   7.162   5.146  0.0148  3.1222  0.3993
  134MOL0     H17664   0.746   7.382   5.077 -0.3278 -0.3439  1.3418
  134MOL0     H17665   0.583   7.337   5.069  0.3119  0.4469  3.1438
  134MOL0     H17666   0.821   7.225   4.885 -1.2331 -2.6090  0.2889
  134MOL0     H17667   0.658   7.177   4.863 -0.7175  0.5938  0.7332
  134MOL0     H17668   0.679   7.472   4.845  1.3977 -0.5993  0.6011
  134MOL0     H17669   0.586   7.353   4.754  0.1501 -3.6525 -0.4656
  134MOL0     H17670   0.836   7.664   5.712 -1.0122 -0.7438 -1.1805
  134MOL0     H17671   1.025   7.810   5.747 -1.7347 -2.3149  1.1671
  134MOL0     H17672   1.325   8.176   5.490  1.9391  0.6353 -0.3849
  134MOL0     H17673   1.549   8.264   5.576  2.3847 -4.4461  1.2721
  134MOL0     H17674   3.152   7.691   6.167  1.2091 -1.4489 -0.9513
  134MOL0     H17675   3.355   7.612   6.081 -1.3220  0.4947 -0.5144
  134MOL0     H17676   3.925   7.437   6.360 -1.3654 -3.3235  0.7923
  134MOL0     H17677   4.102   7.324   6.219 -0.1455 -0.4337  0.6188
  134MOL0     H17678   4.083   7.117   6.046 -0.0392  0.6983 -0.0745
  134MOL0     H17679   4.229   7.206   6.078 -0.7061  0.7086  0.7766
  134MOL0     H17680   4.162   7.105   5.789 -0.8789  0.5480 -0.8080
  134MOL0     H17681   4.302   7.179   5.847 -2.2532  3.5162  2.4173
  134MOL0     H17682   4.200   6.907   5.904 -0.9586  0.1302 -4.2457
  134MOL0     H17683   4.337   6.967   6.010 -0.8883  1.7339  0.7791
  134MOL0     H17684   4.477   6.999   5.820 -0.7970  1.7046  0.9075
  134MOL0     H17685   4.413   6.831   5.828  0.9565  0.3738 -1.4443
  134MOL0     H17686   4.287   6.952   5.449 -0.2149 -1.6074 -0.0813
  134MOL0     H17687   3.870   7.412   5.869 -1.4616  0.7850  0.4341
  134MOL0     H17688   3.712   7.541   6.011 -1.5508 -0.6432  1.9451
  135MOL0     O17689   5.582   6.043  10.717 -1.1410  0.2430  0.7667
  135MOL0     C17690   5.648   6.122  10.775  0.1079 -0.2891  0.7577
  135MOL0     O17691   5.722   6.092  10.888 -0.7632 -0.0603  0.3891
  135MOL0     C17692   5.701   5.981  10.962 -0.7671 -0.3052 -0.0190
  135MOL0     C17693   5.664   5.850  10.913 -0.6603  0.8294 -0.4586
  135MOL0     C17694   5.657   5.737  11.004 -0.7593 -0.4501  0.4189
  135MOL0     C17695   5.700   5.750  11.133  0.5605 -0.9303  0.3826
  135MOL0     O17696   5.698   5.647  11.211  0.9982  0.9714  0.1938
  135MOL0     C17697   5.564   5.617  11.253 -0.7175 -0.9304  0.1040
  135MOL0     C17698   5.574   5.579  11.396 -0.0604 -0.3429  0.3905
  135MOL0     C17699   5.590   5.705  11.492  0.0881  0.0370  0.1721
  135MOL0     C17700   5.564   5.680  11.643 -0.8003 -0.1107  0.0360
  135MOL0     C17701   5.535   5.812  11.718 -0.4568  0.3641  0.4110
  135MOL0     C17702   5.508   5.792  11.866  0.0477  0.0006 -0.7717
  135MOL0     C17703   5.357   5.760  11.900 -1.0826 -0.3851  0.7307
  135MOL0     C17704   5.341   5.696  12.046 -0.4747  0.0832  0.0334
  135MOL0     N17705   5.213   5.623  12.055  0.0329  0.1172  0.0429
  135MOL0     C17706   5.095   5.680  12.011  0.5475 -0.0769  0.2883
  135MOL0     C17707   5.011   5.579  11.977  0.2361  0.1625 -0.2048
  135MOL0     C17708   4.877   5.583  11.913  0.6702 -0.0678  0.5497
  135MOL0     C17709   4.875   5.611  11.766 -0.8275 -0.0336 -0.5327
  135MOL0     C17710   4.958   5.515  11.669 -0.8563  0.1897  0.1649
  135MOL0     C17711   5.114   5.557  11.660  0.7990  0.5291 -0.2284
  135MOL0     O17712   5.179   5.490  11.554 -0.9359  0.4377  0.7142
  135MOL0     C17713   5.208   5.356  11.571  0.2035  0.8905  0.5379
  135MOL0     C17714   5.196   5.285  11.695 -0.3145  0.2134  0.1375
  135MOL0     C17715   5.242   5.149  11.702 -0.6308 -0.1482 -0.9706
  135MOL0     C17716   5.286   5.082  11.592 -0.3110 -0.2538  0.7847
  135MOL0     C17717   5.346   4.947  11.606  0.4874 -0.3234  0.9083
  135MOL0     O17718   5.364   4.905  11.731 -0.3360 -0.8231 -0.5834
  135MOL0     C17719   5.454   4.808  11.759  1.0107 -0.1313 -0.2346
  135MOL0     C17720   5.579   4.806  11.716 -0.4051 -0.1654 -0.7319
  135MOL0     C17721   5.674   4.706  11.741 -0.0305  0.6846  0.7127
  135MOL0     C17722   5.636   4.598  11.806 -0.1015 -0.0452 -0.7681
  135MOL0     O17723   5.709   4.483  11.830 -0.5202 -0.1367 -0.2959
  135MOL0     C17724   5.830   4.464  11.755  0.5507  0.1907 -0.3428
  135MOL0     C17725   5.891   4.334  11.817  0.1870 -0.0777 -0.4386
  135MOL0     C17726   6.030   4.302  11.784  1.8400 -0.1983  0.3053
  135MOL0     C17727   6.065   4.328  11.636  0.8193  0.5657 -0.7566
  135MOL0     C17728   6.211   4.293  11.603 -0.2061  0.6455  0.3763
  135MOL0     C17729   6.215   4.253  11.457 -0.2982 -0.0552  0.5348
  135MOL0     C17730   6.154   4.360  11.363 -0.1750  0.0135 -0.2723
  135MOL0     C17731   6.219   4.499  11.397  0.3206  0.0737 -0.1995
  135MOL0    Cl17732   6.164   4.617  11.268 -0.2700  0.1552  0.2530
  135MOL0     C17733   5.504   4.594  11.860  0.1470  1.3026  0.2919
  135MOL0     C17734   5.410   4.700  11.835  0.7507  0.0015  0.3803
  135MOL0     O17735   5.387   4.891  11.501  0.3957 -0.0203 -0.4292
  135MOL0     C17736   5.281   5.153  11.469 -0.5569 -0.1841  0.4139
  135MOL0     C17737   5.259   5.287  11.462  0.4589 -0.5706 -0.7718
  135MOL0     N17738   5.091   5.464  12.005  0.9248  0.3585 -0.0429
  135MOL0     N17739   5.200   5.487  12.062  0.2804 -0.5047  0.3375
  135MOL0     C17740   5.749   5.869  11.179 -0.8663 -0.2394  0.2591
  135MOL0     C17741   5.749   5.983  11.092  0.0689  0.0765  0.0302
  135MOL0     C17742   5.641   6.267  10.740 -0.7078 -0.8975 -0.6269
  135MOL0     C17743   5.561   6.302  10.633  0.4520 -0.2349  0.0468
  135MOL0     C17744   5.549   6.432  10.595 -0.5993 -0.5813 -0.1069
  135MOL0     C17745   5.629   6.531  10.660  0.2843  1.2208 -0.1013
  135MOL0     O17746   5.612   6.656  10.610  0.0698 -0.0145 -0.1955
  135MOL0     C17747   5.683   6.761  10.678 -0.3789 -0.5839 -0.5500
  135MOL0     C17748   5.639   6.895  10.622 -0.8485  0.7221 -0.1567
  135MOL0     C17749   5.750   6.965  10.529 -0.1335 -0.6779 -0.2625
  135MOL0     C17750   5.739   6.914  10.379  0.2698 -0.1534  0.6431
  135MOL0     C17751   5.850   6.959  10.296 -1.4487 -0.5267  0.2633
  135MOL0     C17752   5.950   6.977  10.226 -0.2407  0.2403  1.3356
  135MOL0     C17753   5.730   6.490  10.749  0.4462 -0.8463 -0.0624
  135MOL0     C17754   5.731   6.359  10.793 -0.2086  0.0523 -0.4201
  135MOL0     H17755   5.651   5.833  10.807  3.3137 -1.4774 -0.7739
  135MOL0     H17756   5.633   5.639  10.962  0.0478 -0.3666 -0.2617
  135MOL0     H17757   5.520   5.535  11.195 -0.4042  0.4614 -2.2219
  135MOL0     H17758   5.493   5.698  11.238  0.8457  0.8503  1.7595
  135MOL0     H17759   5.661   5.514  11.414  1.0455  0.9871  0.0192
  135MOL0     H17760   5.484   5.526  11.427 -0.8144 -0.5908 -2.0211
  135MOL0     H17761   5.534   5.791  11.453 -1.9243 -2.0495 -1.8723
  135MOL0     H17762   5.698   5.721  11.482 -0.0596  0.2774 -1.4367
  135MOL0     H17763   5.476   5.614  11.645 -1.0248  0.1574  2.6741
  135MOL0     H17764   5.644   5.619  11.685  0.7380  0.3273 -2.1253
  135MOL0     H17765   5.462   5.881  11.673  3.7480  5.1412  0.0987
  135MOL0     H17766   5.623   5.874  11.700 -1.4559  1.9009  0.6410
  135MOL0     H17767   5.524   5.886  11.919 -4.1614  1.4075 -1.5895
  135MOL0     H17768   5.570   5.713  11.910 -1.4517 -0.3738  0.8246
  135MOL0     H17769   5.296   5.850  11.907 -1.2392 -0.5927  2.6303
  135MOL0     H17770   5.321   5.703  11.813  1.8275 -1.1293 -0.1141
  135MOL0     H17771   5.346   5.771  12.125 -1.2920 -2.0905  2.2889
  135MOL0     H17772   5.425   5.627  12.062  0.2885  1.2343  1.1418
  135MOL0     H17773   5.070   5.785  12.007 -0.7524 -0.3535  0.4742
  135MOL0     H17774   4.812   5.654  11.965 -0.2395 -1.3918  1.2964
  135MOL0     H17775   4.828   5.487  11.931  0.0021  0.6081  2.5734
  135MOL0     H17776   4.894   5.717  11.750 -0.6898  0.3757  1.9875
  135MOL0     H17777   4.773   5.591  11.733 -0.4059 -2.3578 -0.6636
  135MOL0     H17778   4.943   5.412  11.700  1.8579 -0.4393 -0.3481
  135MOL0     H17779   4.918   5.526  11.567 -0.8767  0.3854  0.1926
  135MOL0     H17780   5.169   5.543  11.754 -0.7011  4.0048  1.3602
  135MOL0     H17781   5.122   5.662  11.631 -1.7523  0.9695  0.4540
  135MOL0     H17782   5.154   5.329  11.785 -0.1738 -0.0479  0.3337
  135MOL0     H17783   5.240   5.095  11.796  0.6398 -0.5954 -1.1799
  135MOL0     H17784   5.605   4.890  11.652  1.0385 -0.8717 -1.1106
  135MOL0     H17785   5.767   4.692  11.686  0.8878 -3.8631  2.9165
  135MOL0     H17786   5.900   4.548  11.750  2.0469 -1.0793 -1.5604
  135MOL0     H17787   5.809   4.438  11.650  2.4416 -0.6540 -0.5506
  135MOL0     H17788   5.835   4.242  11.798  0.1410  0.0573 -0.9780
  135MOL0     H17789   5.891   4.338  11.926  3.7158  1.5908 -0.3531
  135MOL0     H17790   6.056   4.196  11.794  2.2031 -0.2686 -1.1330
  135MOL0     H17791   6.098   4.366  11.841  0.6325  0.3383  1.1833
  135MOL0     H17792   6.004   4.267  11.569  1.3911 -0.9178  0.0097
  135MOL0     H17793   6.047   4.429  11.600  0.0058 -0.0960 -2.2886
  135MOL0     H17794   6.257   4.207  11.653 -1.5905 -0.3821 -0.0407
  135MOL0     H17795   6.268   4.381  11.633  2.0013 -1.0030  1.3385
  135MOL0     H17796   6.163   4.158  11.442 -0.4427  0.4352 -2.9312
  135MOL0     H17797   6.315   4.235  11.416 -0.6381  1.4947 -1.0606
  135MOL0     H17798   6.188   4.353  11.260  2.0901  1.4351  0.2964
  135MOL0     H17799   6.045   4.364  11.374 -0.1255  1.6888 -0.0795
  135MOL0     H17800   6.328   4.491  11.400  0.2677 -0.3288  2.0494
  135MOL0     H17801   6.190   4.539  11.495  1.2955  1.8920 -0.6029
  135MOL0     H17802   5.482   4.507  11.921  2.1837 -0.0203 -0.7499
  135MOL0     H17803   5.302   4.701  11.846  0.6831  0.1542 -0.2360
  135MOL0     H17804   5.307   5.103  11.377 -0.8051  1.9775 -0.8917
  135MOL0     H17805   5.278   5.344  11.371 -1.1536  1.7559  0.2470
  135MOL0     H17806   5.778   5.874  11.284  1.7451  0.2526 -0.4303
  135MOL0     H17807   5.788   6.072  11.141 -0.5289  0.8951 -0.9529
  135MOL0     H17808   5.486   6.232  10.597  1.4640 -1.4262  0.1993
  135MOL0     H17809   5.476   6.477  10.528  0.2876 -0.1909 -0.8349
  135MOL0     H17810   5.791   6.744  10.670  0.4359  1.5482  3.1674
  135MOL0     H17811   5.660   6.759  10.785  0.9019  2.9789 -0.0734
  135MOL0     H17812   5.549   6.880  10.562 -0.5172  2.9506 -1.3188
  135MOL0     H17813   5.619   6.967  10.702  0.7931  1.8205 -0.6871
  135MOL0     H17814   5.844   6.924  10.566 -1.0351 -1.8684  0.8276
  135MOL0     H17815   5.757   7.073  10.542 -1.1137 -0.7905  1.5858
  135MOL0     H17816   5.726   6.806  10.374  0.7758 -0.2559  1.4825
  135MOL0     H17817   5.649   6.964  10.341 -0.8106 -0.0900  3.1357
  135MOL0     H17818   6.038   6.975  10.165 -1.8715  0.4075 -1.1824
  135MOL0     H17819   5.796   6.567  10.786 -0.8240  1.8801 -2.9499
  135MOL0     H17820   5.796   6.314  10.867 -1.2484  0.3222  0.6901
  136MOL0     O17821   8.368  10.981   3.464 -0.0696  0.1532  0.4068
  136MOL0     C17822   8.435  10.904   3.541  0.6699 -0.4422  0.1656
  136MOL0     O17823   8.474  10.775   3.515  0.2784  0.2616  0.2803
  136MOL0     C17824   8.424  10.709   3.400 -0.7030  0.4175 -0.1316
  136MOL0     C17825   8.304  10.731   3.330  0.4343  0.5796 -0.4084
  136MOL0     C17826   8.270  10.661   3.216 -0.6644 -0.3714 -0.2443
  136MOL0     C17827   8.340  10.551   3.182  0.5297  0.0413  0.4241
  136MOL0     O17828   8.284  10.469   3.074  1.2030  0.1774  0.2094
  136MOL0     C17829   8.378  10.381   3.008  0.5559  0.7355  1.0959
  136MOL0     C17830   8.297  10.334   2.882 -0.2592  0.3893  0.4189
  136MOL0     C17831   8.376  10.226   2.802 -0.2177 -0.4313 -0.9184
  136MOL0     C17832   8.301  10.156   2.687 -0.5881  0.2193 -0.3709
  136MOL0     C17833   8.385  10.060   2.607 -0.2290 -0.8861 -0.1465
  136MOL0     C17834   8.293  10.002   2.503  0.9212 -0.1253 -0.0259
  136MOL0     C17835   8.344   9.881   2.427  0.2652 -0.0771 -0.4265
  136MOL0     C17836   8.256   9.855   2.308 -0.3206 -0.5563 -0.3611
  136MOL0     N17837   8.299   9.737   2.228 -1.1867 -0.3752  0.1801
  136MOL0     C17838   8.245   9.615   2.242 -0.4400 -0.3368 -0.2945
  136MOL0     C17839   8.304   9.528   2.159  0.0224  0.4982  0.2305
  136MOL0     C17840   8.258   9.388   2.139  0.2717 -0.3551 -0.5894
  136MOL0     C17841   8.183   9.367   2.009 -0.5489 -0.3067  1.1606
  136MOL0     C17842   8.055   9.270   2.020  0.1163  0.1307  0.2186
  136MOL0     C17843   7.981   9.274   1.885  0.1992 -0.7959  0.7081
  136MOL0     O17844   7.842   9.247   1.908 -0.9605 -0.6674 -0.1505
  136MOL0     C17845   7.775   9.144   1.844  0.4450  0.4660  0.5683
  136MOL0     C17846   7.822   9.047   1.750 -0.7973  0.2975  0.5973
  136MOL0     C17847   7.727   8.967   1.681  0.3541  0.2274  0.6339
  136MOL0     C17848   7.591   8.961   1.717  0.8163 -0.2256 -1.1703
  136MOL0     C17849   7.489   8.883   1.648 -0.6892 -0.3684 -0.1628
  136MOL0     O17850   7.362   8.926   1.652 -0.4981 -0.2429 -0.1049
  136MOL0     C17851   7.260   8.859   1.584  0.5395  0.2678  0.0257
  136MOL0     C17852   7.137   8.899   1.635 -0.1123  0.2911  0.0117
  136MOL0     C17853   7.016   8.873   1.566 -0.2675 -0.0215 -0.0109
  136MOL0     C17854   7.019   8.788   1.450  0.3876  0.3276 -0.0456
  136MOL0     O17855   6.901   8.746   1.382 -0.5734  0.2850  0.2489
  136MOL0     C17856   6.775   8.777   1.448  0.4395  0.0172  0.4159
  136MOL0     C17857   6.672   8.781   1.324 -0.1711 -0.6332 -0.6962
  136MOL0     C17858   6.665   8.665   1.226  0.0347 -0.1446 -0.2235
  136MOL0     C17859   6.549   8.652   1.145  0.0944  0.1942 -0.3050
  136MOL0     C17860   6.550   8.542   1.044  0.1675  0.4975 -0.3171
  136MOL0     C17861   6.418   8.536   0.953 -0.7469 -0.2888  0.2376
  136MOL0     C17862   6.396   8.660   0.852  0.4439 -0.2001  0.1436
  136MOL0     C17863   6.251   8.658   0.785 -0.4837  0.4946 -0.5463
  136MOL0    Cl17864   6.241   8.536   0.645  0.2842  0.3451  0.1658
  136MOL0     C17865   7.142   8.742   1.402  0.5317 -0.3139  0.2637
  136MOL0     C17866   7.262   8.782   1.470  1.0012  0.6075 -1.0650
  136MOL0     O17867   7.534   8.786   1.578 -0.0892  0.4559 -0.4129
  136MOL0     C17868   7.549   9.047   1.814 -0.0754 -0.6287 -1.0174
  136MOL0     C17869   7.639   9.136   1.877 -0.5809 -0.6762 -0.5249
  136MOL0     N17870   8.395   9.604   2.089 -1.7346  0.0790 -0.1595
  136MOL0     N17871   8.406   9.719   2.139 -0.2241 -0.5755  0.5290
  136MOL0     C17872   8.461  10.525   3.247  0.6687 -0.5326  1.0267
  136MOL0     C17873   8.508  10.608   3.348 -0.0092  0.9009 -0.4466
  136MOL0     C17874   8.493  10.956   3.670  0.2518 -0.1822 -0.3135
  136MOL0     C17875   8.616  10.910   3.708 -0.3742 -0.1056  0.4843
  136MOL0     C17876   8.652  10.941   3.839 -1.1895 -0.3086 -0.5744
  136MOL0     C17877   8.570  11.022   3.923  0.2695 -0.0190  0.7902
  136MOL0     O17878   8.608  11.031   4.056 -0.0972 -0.1938 -0.4709
  136MOL0     C17879   8.559  11.146   4.142 -0.7630  0.4708  0.2999
  136MOL0     C17880   8.644  11.158   4.276  0.1351  0.3434  0.3459
  136MOL0     C17881   8.596  11.278   4.354  0.0550 -0.1024 -0.4362
  136MOL0     C17882   8.627  11.257   4.504 -0.1929 -0.6868  0.3373
  136MOL0     C17883   8.604  11.381   4.581  0.0985 -0.0012  0.6431
  136MOL0     C17884   8.584  11.473   4.655 -1.0449  0.2950 -0.0863
  136MOL0     C17885   8.450  11.080   3.866 -0.3683 -0.1586 -0.2351
  136MOL0     C17886   8.416  11.048   3.742  0.7981  0.2869  0.0506
  136MOL0     H17887   8.235  10.809   3.360 -1.2733 -1.4300  1.2189
  136MOL0     H17888   8.177  10.671   3.161 -0.8271 -0.4684  0.0157
  136MOL0     H17889   8.407  10.296   3.068 -0.6465  1.6105  3.0189
  136MOL0     H17890   8.468  10.435   2.977  2.2317 -0.5186  3.5589
  136MOL0     H17891   8.267  10.421   2.823  0.7426  1.1276  0.9690
  136MOL0     H17892   8.197  10.292   2.898  0.0947 -0.6464 -0.0497
  136MOL0     H17893   8.416  10.151   2.871  0.2632  0.8439  0.2114
  136MOL0     H17894   8.465  10.278   2.767  2.3702 -1.9990  2.7423
  136MOL0     H17895   8.220  10.098   2.730 -0.3317  0.4621  0.4533
  136MOL0     H17896   8.260  10.233   2.620 -1.6090  2.1192  2.2867
  136MOL0     H17897   8.413   9.976   2.671 -0.8912 -2.1275 -1.4348
  136MOL0     H17898   8.476  10.112   2.575  0.3142  0.4372  3.1044
  136MOL0     H17899   8.274  10.082   2.431 -1.9599 -2.0736 -1.6007
  136MOL0     H17900   8.197   9.988   2.552  0.6568  0.4008 -0.3793
  136MOL0     H17901   8.446   9.903   2.394 -0.7142  2.4663 -2.1291
  136MOL0     H17902   8.337   9.795   2.494 -1.6671  0.9306  0.7725
  136MOL0     H17903   8.267   9.942   2.242  3.7013 -0.3454  0.3278
  136MOL0     H17904   8.153   9.844   2.342  0.1753  2.9584  3.0092
  136MOL0     H17905   8.162   9.595   2.308  1.5881 -1.4192  2.1088
  136MOL0     H17906   8.191   9.359   2.221  0.2519  3.0561  0.7913
  136MOL0     H17907   8.344   9.320   2.141  0.6789  0.1673 -0.0227
  136MOL0     H17908   8.252   9.335   1.930 -0.7917  2.8340 -0.4571
  136MOL0     H17909   8.145   9.466   1.984  2.5712  0.7425  0.0479
  136MOL0     H17910   8.074   9.163   2.036 -0.9889 -0.2043 -0.5527
  136MOL0     H17911   7.996   9.314   2.101 -3.0612 -0.4415 -1.6031
  136MOL0     H17912   8.027   9.204   1.815  1.7128  0.2113  0.6501
  136MOL0     H17913   7.987   9.369   1.832 -3.9561 -0.6770  0.1327
  136MOL0     H17914   7.929   9.050   1.731 -0.8778  0.3880  0.1232
  136MOL0     H17915   7.751   8.908   1.594 -1.9096  1.1359 -0.7067
  136MOL0     H17916   7.127   8.973   1.714 -1.3268 -1.1142  1.2193
  136MOL0     H17917   6.931   8.924   1.609 -0.3652  0.8455 -1.1820
  136MOL0     H17918   6.765   8.871   1.502  0.0824  2.1701 -3.0626
  136MOL0     H17919   6.754   8.691   1.512 -1.6475 -1.2054 -1.7281
  136MOL0     H17920   6.697   8.867   1.261 -2.0221 -0.7044 -1.6023
  136MOL0     H17921   6.570   8.814   1.347 -0.2007 -1.5168  0.5493
  136MOL0     H17922   6.671   8.566   1.274 -1.2206  0.0516  0.3723
  136MOL0     H17923   6.758   8.671   1.168 -0.6324 -0.1381 -1.3237
  136MOL0     H17924   6.461   8.625   1.205 -1.1334  0.4235 -1.9485
  136MOL0     H17925   6.541   8.751   1.099  1.0599  0.6346  0.4298
  136MOL0     H17926   6.550   8.447   1.099  0.0795 -1.5169 -3.5210
  136MOL0     H17927   6.636   8.554   0.978  0.4843 -0.7518 -0.1556
  136MOL0     H17928   6.328   8.533   1.015 -0.6328 -2.8171  0.3851
  136MOL0     H17929   6.427   8.439   0.905  0.5720 -1.1261  2.0212
  136MOL0     H17930   6.416   8.756   0.902  1.2472  1.3696 -2.9391
  136MOL0     H17931   6.471   8.661   0.773 -1.3384 -1.0589 -1.6258
  136MOL0     H17932   6.239   8.758   0.743 -0.4971  1.0189  0.6830
  136MOL0     H17933   6.171   8.639   0.856 -0.9674 -0.9361 -1.4212
  136MOL0     H17934   7.151   8.669   1.322  3.3288 -1.7318  1.7415
  136MOL0     H17935   7.354   8.755   1.419  0.9044 -2.0653  0.0149
  136MOL0     H17936   7.447   9.058   1.848  0.2425 -0.6748  0.0099
  136MOL0     H17937   7.612   9.201   1.959  1.0852  0.8168 -1.1179
  136MOL0     H17938   8.521  10.443   3.209 -1.4042 -1.1276 -1.2718
  136MOL0     H17939   8.601  10.592   3.400 -0.6089  0.7128  0.6003
  136MOL0     H17940   8.668  10.830   3.657 -0.2655 -0.6588  1.4308
  136MOL0     H17941   8.740  10.894   3.881 -2.8547 -3.3743 -0.2070
  136MOL0     H17942   8.452  11.130   4.159 -0.5427 -0.3869  1.0111
  136MOL0     H17943   8.562  11.242   4.090 -2.3281  0.2706 -0.2335
  136MOL0     H17944   8.639  11.075   4.346 -2.1195  0.8755  0.8909
  136MOL0     H17945   8.749  11.174   4.250  0.4328  1.0305  1.8815
  136MOL0     H17946   8.487  11.283   4.347  0.0127 -1.0077 -0.6305
  136MOL0     H17947   8.636  11.371   4.313  2.5902 -1.7895 -2.1032
  136MOL0     H17948   8.555  11.187   4.548 -0.0912  0.0432  1.7273
  136MOL0     H17949   8.729  11.224   4.525 -0.1452 -1.3437 -0.8428
  136MOL0     H17950   8.569  11.552   4.725 -2.0353  0.1006 -0.0684
  136MOL0     H17951   8.386  11.150   3.920  2.0684  2.8564 -0.9904
  136MOL0     H17952   8.323  11.091   3.705  0.2913  0.1766  1.1356
  137MOL0     O17953   9.671   9.720   2.270  0.0674  0.4016 -0.8170
  137MOL0     C17954   9.570   9.778   2.238  0.1817  0.1318  0.6024
  137MOL0     O17955   9.559   9.917   2.224 -0.1726 -0.3965 -0.6749
  137MOL0     C17956   9.642  10.015   2.294 -0.7231  0.6210  0.5354
  137MOL0     C17957   9.615  10.150   2.254 -0.5408 -0.9110  0.0235
  137MOL0     C17958   9.680  10.264   2.315  0.5638 -0.1226 -0.3432
  137MOL0     C17959   9.763  10.242   2.423  0.2456  0.7324 -0.6463
  137MOL0     O17960   9.820  10.335   2.502 -0.3346  0.5157  0.2047
  137MOL0     C17961   9.816  10.470   2.469  0.4618 -0.4253 -0.0403
  137MOL0     C17962   9.865  10.563   2.584 -0.2192  0.5161  0.3140
  137MOL0     C17963  10.018  10.538   2.585  0.0019 -1.0434  0.3521
  137MOL0     C17964  10.099  10.647   2.647  0.4468 -0.8598 -0.4825
  137MOL0     C17965  10.185  10.704   2.545  0.2159  0.6101 -0.0648
  137MOL0     C17966  10.285  10.812   2.598 -0.2240  0.5013 -0.6906
  137MOL0     C17967  10.386  10.857   2.497  1.0590  0.4469  0.7686
  137MOL0     C17968  10.470  10.961   2.554 -0.3115  0.1737  1.3300
  137MOL0     N17969  10.543  11.016   2.430  0.0923  0.2882  0.4860
  137MOL0     C17970  10.645  10.939   2.368  0.3635  0.4028 -0.8126
  137MOL0     C17971  10.707  11.024   2.286 -0.5204  0.2610  0.4893
  137MOL0     C17972  10.830  10.990   2.205 -0.0005 -0.5213 -0.6984
  137MOL0     C17973  10.875  11.117   2.131  0.4123  0.1040  0.7756
  137MOL0     C17974  11.007  11.074   2.058 -0.1306 -0.1824 -0.9802
  137MOL0     C17975  11.098  11.191   2.059  0.0987  0.5142  1.1048
  137MOL0     O17976  11.230  11.168   2.103  0.0267 -0.0727 -0.6859
  137MOL0     C17977  11.258  11.165   2.243 -0.3268 -0.1797  0.1403
  137MOL0     C17978  11.179  11.202   2.348  0.4928 -0.4359  0.1259
  137MOL0     C17979  11.231  11.204   2.481 -0.3694  0.6950 -1.1117
  137MOL0     C17980  11.363  11.161   2.513  0.2014  0.6516  0.1630
  137MOL0     C17981  11.417  11.166   2.648 -1.2076 -0.2860 -0.7844
  137MOL0     O17982  11.551  11.171   2.663 -0.0152 -0.3304  0.0432
  137MOL0     C17983  11.594  11.164   2.794 -0.2026  0.6811  0.3756
  137MOL0     C17984  11.634  11.047   2.858 -0.5831  0.4390 -0.1661
  137MOL0     C17985  11.695  11.063   2.974  0.4486  0.4083 -0.4296
  137MOL0     C17986  11.694  11.176   3.053 -0.7877  1.2133 -0.1751
  137MOL0     O17987  11.745  11.158   3.177  0.2074  0.6707  0.1165
  137MOL0     C17988  11.666  11.083   3.274  0.2697 -0.2814 -0.0037
  137MOL0     C17989  11.691  11.127   3.410  0.6692 -0.3647  0.0362
  137MOL0     C17990  11.835  11.106   3.458  0.2748  0.2896 -0.1340
  137MOL0     C17991  11.871  11.142   3.598  0.5244  0.5903  0.6240
  137MOL0     C17992  12.009  11.102   3.642  0.1502  0.7324 -0.1494
  137MOL0     C17993  12.038  11.178   3.773 -0.6813 -0.5164  0.0595
  137MOL0     C17994  12.197  11.179   3.812  0.0380  0.1822 -0.0270
  137MOL0     C17995  12.224  11.199   3.960 -1.4625 -0.7945 -0.5982
  137MOL0    Cl17996  12.150  11.361   3.990  0.5832  0.2394  0.5275
  137MOL0     C17997  11.642  11.296   3.006 -0.2672 -0.0245  1.0171
  137MOL0     C17998  11.598  11.286   2.871 -0.1814 -0.0386 -0.3111
  137MOL0     O17999  11.335  11.128   2.738  0.2902 -0.1528 -0.4951
  137MOL0     C18000  11.433  11.110   2.404 -0.2746 -1.2918  0.4994
  137MOL0     C18001  11.381  11.110   2.273  0.0768  0.2887  0.4753
  137MOL0     N18002  10.662  11.158   2.313  0.1855 -0.7833 -0.1073
  137MOL0     N18003  10.567  11.143   2.399 -0.2139  0.4604  0.5027
  137MOL0     C18004   9.790  10.113   2.463 -0.7647 -1.1957  0.5386
  137MOL0     C18005   9.735  10.001   2.403 -1.1215  0.2169  0.6119
  137MOL0     C18006   9.460   9.697   2.165  0.8880  0.6115  0.2243
  137MOL0     C18007   9.490   9.593   2.071  0.0265  0.0043 -0.0779
  137MOL0     C18008   9.396   9.525   1.999  0.9103  0.3792  0.5124
  137MOL0     C18009   9.258   9.551   2.033 -0.3221  0.4282  0.6409
  137MOL0     O18010   9.153   9.474   1.974 -0.4806 -0.7048 -0.8824
  137MOL0     C18011   9.170   9.328   1.972  0.4856 -0.1447  0.8679
  137MOL0     C18012   9.036   9.266   1.923 -0.0302 -0.3098  0.6476
  137MOL0     C18013   8.925   9.303   2.014  0.1445  0.8346 -0.1827
  137MOL0     C18014   8.890   9.195   2.118 -0.5456  0.4187 -0.7405
  137MOL0     C18015   8.795   9.094   2.055  0.1574  0.0836  0.1598
  137MOL0     C18016   8.740   9.009   1.991  0.2903  0.0771  0.7088
  137MOL0     C18017   9.222   9.646   2.128 -0.1007 -0.0138 -0.2856
  137MOL0     C18018   9.322   9.726   2.186 -0.1889 -0.6316 -0.8770
  137MOL0     H18019   9.549  10.164   2.169 -3.2382  3.1339  2.4668
  137MOL0     H18020   9.664  10.366   2.280 -1.6847 -0.9886 -2.1236
  137MOL0     H18021   9.710  10.493   2.457  0.1318 -1.8137  0.0644
  137MOL0     H18022   9.859  10.496   2.371 -2.6294  0.6730 -1.2298
  137MOL0     H18023   9.819  10.558   2.683 -0.2719  0.5615  0.2915
  137MOL0     H18024   9.848  10.667   2.558  0.7554  0.2810 -1.4374
  137MOL0     H18025  10.063  10.517   2.488 -2.5160  2.4313 -1.8141
  137MOL0     H18026  10.039  10.446   2.641  0.1159 -2.3748 -1.7618
  137MOL0     H18027  10.039  10.733   2.679 -2.3900 -1.5577 -3.3308
  137MOL0     H18028  10.156  10.604   2.729  1.6580  0.1439 -0.7692
  137MOL0     H18029  10.124  10.762   2.476 -0.0354  0.9948  0.4721
  137MOL0     H18030  10.243  10.628   2.491 -0.2881  0.1810 -0.0155
  137MOL0     H18031  10.334  10.771   2.686  1.0138 -0.4401 -1.7769
  137MOL0     H18032  10.230  10.900   2.633 -0.8828  0.3795 -1.3914
  137MOL0     H18033  10.450  10.772   2.468  1.6957  0.7988  1.1110
  137MOL0     H18034  10.324  10.892   2.415  0.1611  2.0372  2.0657
  137MOL0     H18035  10.541  10.929   2.631  1.3447  0.9056  0.1714
  137MOL0     H18036  10.410  11.042   2.597  2.5553  1.7820  2.6009
  137MOL0     H18037  10.681  10.837   2.380 -1.9653 -0.3276  0.3769
  137MOL0     H18038  10.814  10.907   2.136  0.7958 -1.9155  0.7112
  137MOL0     H18039  10.902  10.960   2.282  0.0997  1.1042 -0.1383
  137MOL0     H18040  10.874  11.201   2.200  0.0720  0.2491  0.5928
  137MOL0     H18041  10.807  11.143   2.049  0.5237  0.3080  0.7464
  137MOL0     H18042  11.048  10.999   2.127 -1.1443  0.6311  0.5825
  137MOL0     H18043  11.006  11.022   1.962  2.0339 -2.4951  0.1175
  137MOL0     H18044  11.054  11.280   2.105 -1.4682  1.4677 -1.9676
  137MOL0     H18045  11.096  11.228   1.955  2.4554 -1.1093  0.3976
  137MOL0     H18046  11.083  11.240   2.314  0.9331  0.8897  0.2916
  137MOL0     H18047  11.174  11.239   2.566 -0.8167 -3.4165  0.5457
  137MOL0     H18048  11.634  10.950   2.811 -0.0465  0.5600 -0.4258
  137MOL0     H18049  11.721  10.966   3.015 -0.7543  1.2802  2.6506
  137MOL0     H18050  11.700  10.979   3.276 -0.6527 -0.5873  2.5075
  137MOL0     H18051  11.559  11.096   3.255  0.8096  2.4831 -1.9032
  137MOL0     H18052  11.625  11.080   3.483  1.0993 -1.5493 -0.3168
  137MOL0     H18053  11.681  11.236   3.405 -0.7287 -0.5098 -1.5239
  137MOL0     H18054  11.906  11.170   3.405 -0.9222  1.5019 -0.3232
  137MOL0     H18055  11.849  10.998   3.443 -3.9804 -0.4582  0.2255
  137MOL0     H18056  11.854  11.250   3.604  1.8338  0.8545 -0.1192
  137MOL0     H18057  11.796  11.105   3.669  1.0944  1.2051  1.5687
  137MOL0     H18058  12.079  11.128   3.561 -0.2106 -0.3204 -0.8330
  137MOL0     H18059  12.019  10.994   3.655 -2.4649  0.4427 -0.0486
  137MOL0     H18060  11.972  11.135   3.849 -1.6783 -1.1853 -1.1464
  137MOL0     H18061  12.000  11.281   3.765 -0.2464 -0.3115  0.5446
  137MOL0     H18062  12.234  11.078   3.791  3.5369  1.0924  0.9614
  137MOL0     H18063  12.251  11.244   3.743 -1.5859  0.8650 -0.7008
  137MOL0     H18064  12.330  11.217   3.981 -1.3777 -2.1082  0.2028
  137MOL0     H18065  12.182  11.122   4.025 -0.6489 -0.2953  0.5643
  137MOL0     H18066  11.647  11.388   3.062  0.7010  0.9797 -0.6393
  137MOL0     H18067  11.584  11.376   2.813  1.8203  0.1121 -0.6311
  137MOL0     H18068  11.534  11.072   2.418  0.3454  0.6620  1.7509
  137MOL0     H18069  11.441  11.066   2.194  0.9626 -0.6713  1.6287
  137MOL0     H18070   9.863  10.106   2.543  2.2762 -0.9810 -2.0389
  137MOL0     H18071   9.764   9.900   2.430 -1.7271 -0.0111  0.4290
  137MOL0     H18072   9.595   9.574   2.054 -0.5912 -1.8899 -2.3077
  137MOL0     H18073   9.430   9.451   1.928  1.2688  1.1086 -0.0858
  137MOL0     H18074   9.176   9.287   2.073  0.4568  1.0730  1.3831
  137MOL0     H18075   9.259   9.309   1.912  0.3366 -0.4989  0.7572
  137MOL0     H18076   9.016   9.303   1.822 -2.5111 -0.6151  0.9675
  137MOL0     H18077   9.049   9.157   1.925  0.3829 -0.3501 -1.4785
  137MOL0     H18078   8.833   9.319   1.957  0.0339  3.7269  0.6517
  137MOL0     H18079   8.926   9.398   2.069  0.6377  1.2546 -0.9046
  137MOL0     H18080   8.982   9.139   2.136 -0.5146  0.2606 -1.3524
  137MOL0     H18081   8.851   9.239   2.210 -1.2257 -0.2996 -0.6702
  137MOL0     H18082   8.702   8.931   1.929  1.6255  0.2646 -0.4055
  137MOL0     H18083   9.121   9.661   2.164 -1.0253 -0.3382 -2.5911
  137MOL0     H18084   9.287   9.809   2.247 -2.0174 -1.2261 -1.0849
  138MOL0     O18085   1.763   9.281   2.065  0.1100 -0.2435  0.3688
  138MOL0     C18086   1.735   9.364   2.146 -0.3151 -0.4131  0.9994
  138MOL0     O18087   1.753   9.348   2.279  0.3456  0.2726 -0.6566
  138MOL0     C18088   1.801   9.228   2.332 -0.0659  0.1580 -0.4966
  138MOL0     C18089   1.718   9.141   2.403  0.2738 -0.6106 -0.6934
  138MOL0     C18090   1.764   9.026   2.467  0.3271  0.3033  0.7512
  138MOL0     C18091   1.897   8.989   2.443  0.2738 -0.3446 -0.4850
  138MOL0     O18092   1.958   8.875   2.481  0.3009  0.1027 -0.3987
  138MOL0     C18093   1.874   8.775   2.553  0.3092  0.1723  0.2838
  138MOL0     C18094   1.882   8.808   2.693  0.5089  0.1095  0.0142
  138MOL0     C18095   1.801   8.710   2.781  0.2894 -0.0258  0.9536
  138MOL0     C18096   1.870   8.574   2.812 -0.0411  0.4440 -0.0002
  138MOL0     C18097   1.844   8.459   2.714 -0.6461  0.2710  0.2309
  138MOL0     C18098   1.908   8.330   2.767 -0.4223 -0.2191  0.2183
  138MOL0     C18099   1.813   8.205   2.760 -0.5197 -0.0533  0.1316
  138MOL0     C18100   1.748   8.170   2.614  0.1493  1.0201 -0.6290
  138MOL0     N18101   1.727   8.018   2.604  0.4663  0.2361 -0.1283
  138MOL0     C18102   1.834   7.942   2.562  0.4856 -0.8858  0.8758
  138MOL0     C18103   1.795   7.816   2.606  0.2784 -0.2981  0.6066
  138MOL0     C18104   1.867   7.687   2.575 -0.2807  0.1131  0.1505
  138MOL0     C18105   1.846   7.589   2.687 -0.4161  0.6870 -0.6572
  138MOL0     C18106   1.943   7.472   2.674 -0.2759  0.2541 -0.0271
  138MOL0     C18107   1.908   7.373   2.787 -0.1416  0.1069 -0.2042
  138MOL0     O18108   1.977   7.418   2.904  0.3438 -0.2441  0.9018
  138MOL0     C18109   1.943   7.358   3.023 -0.8100 -0.1795  0.2823
  138MOL0     C18110   1.966   7.436   3.137 -0.5292  0.8122 -0.2931
  138MOL0     C18111   1.946   7.389   3.265  0.0306  0.3820 -0.2100
  138MOL0     C18112   1.898   7.254   3.274  0.5620 -0.8436 -0.2149
  138MOL0     C18113   1.871   7.199   3.405  0.7316 -0.6378 -0.0640
  138MOL0     O18114   1.926   7.261   3.507 -0.6351  0.5740 -0.6428
  138MOL0     C18115   1.911   7.220   3.635 -0.0707  0.2939  0.7944
  138MOL0     C18116   2.027   7.249   3.712  0.6603  0.8599 -0.0155
  138MOL0     C18117   2.035   7.207   3.841  0.3029  0.0050 -0.0184
  138MOL0     C18118   1.926   7.163   3.911  0.0402  0.1438 -0.3968
  138MOL0     O18119   1.948   7.120   4.038  0.2866  0.1463 -0.7104
  138MOL0     C18120   1.916   6.981   4.078 -0.1592 -1.0236  0.1109
  138MOL0     C18121   1.899   6.976   4.225  0.6484  1.0107 -0.2833
  138MOL0     C18122   2.021   7.012   4.304  0.3078  0.1181 -0.3036
  138MOL0     C18123   1.986   6.993   4.448  0.5385  0.9306 -0.1686
  138MOL0     C18124   2.094   6.920   4.535  0.1587  0.5007  0.6466
  138MOL0     C18125   2.233   6.969   4.504 -0.5164 -0.1670 -0.4065
  138MOL0     C18126   2.353   6.902   4.592 -0.0046 -0.3060  1.0644
  138MOL0     C18127   2.361   6.959   4.728 -0.3681 -0.1555 -0.6769
  138MOL0    Cl18128   2.432   6.821   4.833  0.6377  0.7895  0.1069
  138MOL0     C18129   1.808   7.129   3.839 -1.0482 -0.5200 -0.7269
  138MOL0     C18130   1.792   7.161   3.700 -0.6115 -0.2092  0.2555
  138MOL0     O18131   1.799   7.099   3.416 -0.4505  0.3078 -0.0886
  138MOL0     C18132   1.873   7.174   3.156 -0.0543  0.2060  0.7521
  138MOL0     C18133   1.891   7.222   3.028  0.3349 -0.1156  0.0808
  138MOL0     N18134   1.669   7.824   2.669 -0.1243  0.5852  0.8110
  138MOL0     N18135   1.628   7.946   2.663  0.0983  0.7240  0.1894
  138MOL0     C18136   1.984   9.077   2.384  0.2309  0.3827 -0.0280
  138MOL0     C18137   1.933   9.198   2.330 -0.2576  0.7488 -0.2785
  138MOL0     C18138   1.681   9.494   2.097  0.6907  0.4897 -0.1504
  138MOL0     C18139   1.593   9.578   2.172 -0.2905  0.4097 -0.0019
  138MOL0     C18140   1.552   9.696   2.114  0.0021 -0.1197 -0.6948
  138MOL0     C18141   1.587   9.736   1.989 -0.7470 -0.4226 -0.2354
  138MOL0     O18142   1.520   9.838   1.941  0.8783 -0.3313  1.1055
  138MOL0     C18143   1.492   9.840   1.798  0.4225 -0.0668 -0.5047
  138MOL0     C18144   1.406   9.956   1.775 -1.5877  0.3028 -0.2110
  138MOL0     C18145   1.386   9.970   1.625  0.5054 -0.3615  0.5533
  138MOL0     C18146   1.352  10.110   1.578  0.0999 -0.1391 -0.6326
  138MOL0     C18147   1.218  10.150   1.598  0.4014 -0.1382  0.0728
  138MOL0     C18148   1.095  10.179   1.614  0.5297  1.0740  0.8257
  138MOL0     C18149   1.689   9.663   1.923  0.3658 -0.0199  0.4259
  138MOL0     C18150   1.724   9.540   1.971 -0.4135 -0.4403  0.3643
  138MOL0     H18151   1.611   9.162   2.406 -0.0394 -2.0378 -1.1528
  138MOL0     H18152   1.691   8.968   2.523  1.3198 -2.1763 -0.3763
  138MOL0     H18153   1.930   8.683   2.537 -0.0698 -0.0618  0.3090
  138MOL0     H18154   1.775   8.757   2.511  1.0045 -1.3502 -0.7765
  138MOL0     H18155   1.853   8.913   2.702  3.4706  0.9594  0.5092
  138MOL0     H18156   1.987   8.811   2.725  0.8094 -1.0718 -0.7853
  138MOL0     H18157   1.700   8.696   2.742 -0.2667  2.9006  1.0566
  138MOL0     H18158   1.777   8.751   2.879 -0.2093 -0.6809  1.1046
  138MOL0     H18159   1.978   8.594   2.805  0.5003 -1.9561  0.7801
  138MOL0     H18160   1.843   8.541   2.912  1.0825  1.3283  0.6191
  138MOL0     H18161   1.860   8.471   2.607 -3.1183 -2.6545 -0.6127
  138MOL0     H18162   1.741   8.428   2.729 -0.1849 -1.9251 -0.6717
  138MOL0     H18163   1.928   8.344   2.873  0.1794 -1.4917  0.2937
  138MOL0     H18164   2.008   8.306   2.730 -1.4394 -3.6120 -0.6575
  138MOL0     H18165   1.868   8.117   2.795  0.5624  0.7795  0.5831
  138MOL0     H18166   1.732   8.212   2.834  0.4360  1.1548  1.0925
  138MOL0     H18167   1.808   8.201   2.528 -2.5048 -0.5270 -3.2513
  138MOL0     H18168   1.653   8.224   2.607 -1.2274 -1.1230  0.1642
  138MOL0     H18169   1.918   7.980   2.505  0.0691  0.2217  0.9706
  138MOL0     H18170   1.973   7.713   2.566 -0.6445  1.0814 -1.9420
  138MOL0     H18171   1.834   7.638   2.483 -0.8482 -0.0291  0.4273
  138MOL0     H18172   1.744   7.549   2.689 -0.5604  1.0682  0.8237
  138MOL0     H18173   1.866   7.635   2.784  1.8819 -0.6921 -0.4105
  138MOL0     H18174   1.939   7.412   2.583  0.1823 -1.2491  0.8944
  138MOL0     H18175   2.052   7.488   2.678  0.3727 -1.3040 -4.9634
  138MOL0     H18176   1.936   7.271   2.759  0.6166 -0.7747  3.3345
  138MOL0     H18177   1.800   7.373   2.805  0.1498  0.4485  1.7611
  138MOL0     H18178   2.009   7.535   3.135  4.2265 -0.8172  2.8420
  138MOL0     H18179   1.951   7.449   3.355 -1.1870 -0.3702  0.4011
  138MOL0     H18180   2.117   7.291   3.668 -0.6859  3.3333 -0.6537
  138MOL0     H18181   2.136   7.218   3.880  1.5498  0.2731 -3.0684
  138MOL0     H18182   1.999   6.916   4.049  1.0450  0.6910 -0.4943
  138MOL0     H18183   1.829   6.940   4.027  0.3539 -2.8441  0.6252
  138MOL0     H18184   1.860   6.876   4.248 -0.3383  1.3170 -0.5593
  138MOL0     H18185   1.815   7.042   4.249  0.6595  0.3471  1.8702
  138MOL0     H18186   2.041   7.118   4.289 -1.5251  0.5838  0.2740
  138MOL0     H18187   2.096   6.940   4.270  2.5288  1.0959  2.1772
  138MOL0     H18188   1.974   7.092   4.492  0.4416  0.9467 -0.2314
  138MOL0     H18189   1.889   6.948   4.469  0.8507  0.3068 -0.0471
  138MOL0     H18190   2.104   6.813   4.514  1.7418  0.7530 -0.0464
  138MOL0     H18191   2.057   6.919   4.638 -0.9835 -1.7943  0.2748
  138MOL0     H18192   2.238   7.078   4.514  0.4226 -0.2993  1.0275
  138MOL0     H18193   2.265   6.949   4.402  0.3602  0.8764 -0.3643
  138MOL0     H18194   2.327   6.797   4.603  0.8947 -0.3459  3.6868
  138MOL0     H18195   2.450   6.898   4.542  0.3443 -0.4312  1.7381
  138MOL0     H18196   2.261   6.982   4.766  0.2223 -0.3775  1.0761
  138MOL0     H18197   2.421   7.050   4.731 -3.5264  2.0726  0.5375
  138MOL0     H18198   1.730   7.085   3.900  0.4531  0.1923  1.8740
  138MOL0     H18199   1.706   7.136   3.640  1.5605 -0.6130 -2.9237
  138MOL0     H18200   1.866   7.066   3.170  3.2390 -0.4774 -1.6927
  138MOL0     H18201   1.872   7.174   2.932 -2.6188  3.5361 -1.4334
  138MOL0     H18202   2.089   9.052   2.387 -0.1409 -1.2746  2.3069
  138MOL0     H18203   2.014   9.259   2.290  0.0669 -0.9537 -2.4366
  138MOL0     H18204   1.565   9.534   2.267 -0.2522  0.5763  0.0866
  138MOL0     H18205   1.488   9.765   2.168 -1.2468  0.9530 -3.3351
  138MOL0     H18206   1.434   9.751   1.774 -0.6676  1.1123 -2.4451
  138MOL0     H18207   1.588   9.836   1.745  0.9690  2.8743  0.0648
  138MOL0     H18208   1.311   9.952   1.829 -0.7260 -1.8336  1.2420
  138MOL0     H18209   1.449  10.043   1.825 -3.6154  1.2566 -0.0200
  138MOL0     H18210   1.307   9.897   1.604 -0.6826  1.8011 -3.7364
  138MOL0     H18211   1.472   9.945   1.563  0.8085 -0.0275  0.8382
  138MOL0     H18212   1.423  10.177   1.628  1.6649 -1.5162 -0.9301
  138MOL0     H18213   1.360  10.111   1.469  2.1268 -0.5447 -0.5310
  138MOL0     H18214   0.996  10.219   1.625 -0.0951  0.0021 -0.6135
  138MOL0     H18215   1.737   9.681   1.827  1.4908 -2.2901  0.5048
  138MOL0     H18216   1.789   9.479   1.910  0.8661 -0.2341  1.4702
  139MOL0     O18217   8.152  10.164   6.279  0.1071  0.1421 -0.1652
  139MOL0     C18218   8.228  10.181   6.185  0.0521 -0.4188 -0.2968
  139MOL0     O18219   8.210  10.258   6.070 -0.5523  0.8050 -0.0029
  139MOL0     C18220   8.088  10.329   6.049  0.2516  0.2872  0.1179
  139MOL0     C18221   7.959  10.306   6.104 -0.4085  0.5221 -0.7632
  139MOL0     C18222   7.859  10.391   6.072 -0.7917  0.3636  1.0429
  139MOL0     C18223   7.869  10.504   5.990  0.1476  0.1376 -0.4219
  139MOL0     O18224   7.757  10.578   5.968 -0.6174  0.2380 -0.3131
  139MOL0     C18225   7.766  10.701   5.902 -0.2004  0.5538 -0.0832
  139MOL0     C18226   7.651  10.801   5.922 -0.0788 -0.9073 -0.0999
  139MOL0     C18227   7.521  10.726   5.866  0.7621 -0.4530  0.6338
  139MOL0     C18228   7.408  10.827   5.856  1.0461 -0.1139  1.1405
  139MOL0     C18229   7.275  10.764   5.807 -0.0100 -0.3212  1.0053
  139MOL0     C18230   7.167  10.869   5.783  0.3545  1.0622  0.4041
  139MOL0     C18231   7.047  10.797   5.726 -0.0912 -0.1581  0.7737
  139MOL0     C18232   6.943  10.901   5.716 -0.3427 -0.2411  0.1133
  139MOL0     N18233   6.832  10.837   5.645  0.2011 -0.4293  0.2323
  139MOL0     C18234   6.809  10.847   5.513 -0.0545 -0.6416 -1.0308
  139MOL0     C18235   6.690  10.786   5.484 -0.2041 -0.2827 -0.5417
  139MOL0     C18236   6.621  10.792   5.347 -0.4886  0.0430  0.8704
  139MOL0     C18237   6.487  10.866   5.341  0.1118 -0.7690 -0.4013
  139MOL0     C18238   6.388  10.828   5.226 -0.5348  0.3821 -0.7288
  139MOL0     C18239   6.448  10.823   5.087  0.0109 -0.2829 -0.2049
  139MOL0     O18240   6.523  10.934   5.047 -0.4498  0.2955  0.1484
  139MOL0     C18241   6.602  10.894   4.934 -0.0515 -0.0219 -0.9749
  139MOL0     C18242   6.746  10.916   4.932  0.8221 -0.4329  0.4061
  139MOL0     C18243   6.809  10.872   4.818 -0.9059  0.5844  0.7571
  139MOL0     C18244   6.748  10.807   4.704 -0.3660  0.1528  0.5477
  139MOL0     C18245   6.838  10.754   4.596 -0.9313 -0.5235  0.2184
  139MOL0     O18246   6.973  10.759   4.611 -0.0022 -0.4383 -0.1379
  139MOL0     C18247   7.052  10.691   4.523 -0.1876  0.1845  0.9990
  139MOL0     C18248   7.028  10.567   4.462  0.6563  0.1012 -0.4842
  139MOL0     C18249   7.123  10.505   4.380 -0.7777 -0.1415  0.1288
  139MOL0     C18250   7.250  10.564   4.356  0.0020 -0.1621  0.5848
  139MOL0     O18251   7.343  10.497   4.284 -0.2194 -0.2818  0.3387
  139MOL0     C18252   7.314  10.392   4.186 -0.0882 -0.1206 -1.1146
  139MOL0     C18253   7.428  10.371   4.093  0.5907  0.2273 -0.4038
  139MOL0     C18254   7.526  10.489   4.056  1.0907  0.3835 -0.3738
  139MOL0     C18255   7.641  10.460   3.959 -0.3178  0.0998  1.1691
  139MOL0     C18256   7.741  10.579   3.972 -0.0240  0.7133 -0.3364
  139MOL0     C18257   7.864  10.557   3.879  0.8384  0.7421 -0.2753
  139MOL0     C18258   7.833  10.591   3.733 -0.4426  0.0128  0.5860
  139MOL0     C18259   7.950  10.548   3.634 -0.0319  0.2664 -0.0436
  139MOL0    Cl18260   8.004  10.380   3.636  0.3382  0.0132  0.8994
  139MOL0     C18261   7.275  10.681   4.420 -0.2898 -0.0136  0.2003
  139MOL0     C18262   7.189  10.732   4.515 -0.4696  0.2370  0.5930
  139MOL0     O18263   6.778  10.703   4.502 -0.0835 -0.6452  0.1534
  139MOL0     C18264   6.610  10.782   4.708  0.4302 -0.2092 -0.2535
  139MOL0     C18265   6.542  10.825   4.826 -0.2208 -0.1726 -0.2659
  139MOL0     N18266   6.632  10.744   5.606  0.1608 -0.6737 -0.0197
  139MOL0     N18267   6.722  10.774   5.697 -0.5996  0.5568  0.3751
  139MOL0     C18268   7.991  10.520   5.925 -0.3745 -0.5018  0.0504
  139MOL0     C18269   8.097  10.429   5.953  0.1509  0.6817 -0.0628
  139MOL0     C18270   8.347  10.103   6.197  0.3367  0.5753  0.1066
  139MOL0     C18271   8.370  10.010   6.294 -0.0820  0.6810  0.2975
  139MOL0     C18272   8.494   9.942   6.289  0.0476  0.6747  0.4639
  139MOL0     C18273   8.596   9.961   6.192  0.2756  0.1076 -0.7873
  139MOL0     O18274   8.715   9.898   6.187 -0.4478  0.4855 -0.6568
  139MOL0     C18275   8.790   9.909   6.311  0.5489 -0.4285  1.2980
  139MOL0     C18276   8.849   9.778   6.343  0.3708  0.3092  0.6283
  139MOL0     C18277   8.938   9.714   6.235  0.7867 -0.1936 -0.2156
  139MOL0     C18278   9.001   9.580   6.266 -0.2031  0.3580  0.8532
  139MOL0     C18279   9.116   9.588   6.353 -0.3396  0.1489 -0.2557
  139MOL0     C18280   9.217   9.608   6.423 -0.3583  0.3386  0.3282
  139MOL0     C18281   8.574  10.061   6.105  1.1009  0.1434  0.1132
  139MOL0     C18282   8.445  10.126   6.100  0.1625  0.4923  0.7717
  139MOL0     H18283   7.939  10.227   6.176  1.2653  0.5462 -0.2378
  139MOL0     H18284   7.760  10.373   6.112 -1.8618  0.2732 -1.5106
  139MOL0     H18285   7.784  10.679   5.796  4.0943 -0.1360  0.5770
  139MOL0     H18286   7.859  10.750   5.932  0.7409 -0.6208 -0.9936
  139MOL0     H18287   7.670  10.894   5.869 -0.0226 -0.2142  1.1139
  139MOL0     H18288   7.638  10.817   6.029 -0.3561 -2.6975  0.1704
  139MOL0     H18289   7.488  10.654   5.942 -1.3038 -1.2422 -0.9368
  139MOL0     H18290   7.533  10.665   5.776 -0.6571 -2.2795  1.6313
  139MOL0     H18291   7.379  10.877   5.949 -2.8232 -2.0999  1.2337
  139MOL0     H18292   7.454  10.907   5.797 -0.0860 -1.0211 -1.1130
  139MOL0     H18293   7.245  10.706   5.894  1.8260 -3.1647 -0.1268
  139MOL0     H18294   7.293  10.712   5.712  2.2718 -1.1441  1.8285
  139MOL0     H18295   7.205  10.939   5.708 -2.1423  1.1262 -0.8974
  139MOL0     H18296   7.139  10.925   5.873 -0.8253 -1.3277  1.6087
  139MOL0     H18297   7.066  10.782   5.620  0.0543 -1.0742  0.9246
  139MOL0     H18298   7.024  10.703   5.777  1.7234 -0.9852  0.1353
  139MOL0     H18299   6.975  10.987   5.656 -3.9641 -1.9305 -4.9360
  139MOL0     H18300   6.911  10.947   5.810  1.4473  2.4693 -0.4818
  139MOL0     H18301   6.881  10.895   5.448 -2.2261  2.0653 -1.6492
  139MOL0     H18302   6.615  10.692   5.303  1.0595  0.5774 -0.6892
  139MOL0     H18303   6.690  10.853   5.288 -4.4647  1.2259 -3.1294
  139MOL0     H18304   6.492  10.975   5.333 -2.3807 -0.4196  1.7602
  139MOL0     H18305   6.434  10.856   5.436  0.4969  0.1927 -0.0715
  139MOL0     H18306   6.356  10.726   5.248  1.2663 -0.4279 -1.6234
  139MOL0     H18307   6.303  10.897   5.227  0.4864  1.6811  0.2692
  139MOL0     H18308   6.358  10.825   5.025  1.4952 -1.6876 -2.5459
  139MOL0     H18309   6.490  10.723   5.076 -3.4395 -1.6292 -2.2894
  139MOL0     H18310   6.799  10.982   5.000 -2.7839  2.0384  1.1143
  139MOL0     H18311   6.912  10.905   4.806 -0.6861 -0.8321 -2.0285
  139MOL0     H18312   6.942  10.510   4.493  0.0978  1.2535  0.1448
  139MOL0     H18313   7.090  10.413   4.333  0.6448  0.5336 -2.4155
  139MOL0     H18314   7.222  10.432   4.143 -0.3486  1.4285  0.7122
  139MOL0     H18315   7.275  10.307   4.242 -0.7396  2.1095  2.1211
  139MOL0     H18316   7.387  10.344   3.995 -1.1828 -0.9418  0.6041
  139MOL0     H18317   7.488  10.289   4.134  2.8662  1.3778 -1.2412
  139MOL0     H18318   7.568  10.513   4.155 -3.1136  3.9659  0.8706
  139MOL0     H18319   7.483  10.579   4.012 -0.5527  0.3777  1.0858
  139MOL0     H18320   7.691  10.368   3.991 -2.2606 -0.6683  2.1985
  139MOL0     H18321   7.597  10.448   3.860 -3.9104  0.9548  2.4887
  139MOL0     H18322   7.783  10.585   4.073  1.2699  0.0416 -0.8058
  139MOL0     H18323   7.688  10.673   3.951 -2.9886 -0.7011  0.4059
  139MOL0     H18324   7.882  10.449   3.878 -2.3584  0.0281  2.0396
  139MOL0     H18325   7.953  10.609   3.916  2.3821 -0.8675 -1.5372
  139MOL0     H18326   7.740  10.544   3.698 -1.0768  2.0840 -0.6763
  139MOL0     H18327   7.836  10.700   3.728  0.7352  0.0454  1.5492
  139MOL0     H18328   8.032  10.616   3.660 -0.2319  1.1332 -1.5754
  139MOL0     H18329   7.921  10.575   3.532 -0.7837 -3.0915 -0.8472
  139MOL0     H18330   7.375  10.722   4.409 -0.1880 -0.5938 -1.2289
  139MOL0     H18331   7.212  10.816   4.580 -3.8553  0.6513  1.4457
  139MOL0     H18332   6.544  10.746   4.630  0.1241  0.2766 -0.2204
  139MOL0     H18333   6.434  10.832   4.823 -0.3800 -2.3679 -1.0539
  139MOL0     H18334   7.993  10.599   5.850 -4.3030 -1.4038 -1.2621
  139MOL0     H18335   8.192  10.451   5.904  0.5957  2.4075  1.4814
  139MOL0     H18336   8.305   9.984   6.376 -2.1543 -0.3742 -1.5659
  139MOL0     H18337   8.518   9.866   6.363  0.5592 -1.5329 -1.8328
  139MOL0     H18338   8.734   9.941   6.399 -0.6252 -0.5648  0.6195
  139MOL0     H18339   8.870   9.982   6.292 -0.2091 -0.1037 -0.9072
  139MOL0     H18340   8.911   9.797   6.431 -0.3466 -0.6262  1.3562
  139MOL0     H18341   8.773   9.705   6.368  0.5576  0.1396  0.7061
  139MOL0     H18342   9.012   9.792   6.215 -0.1079  0.6151 -0.4969
  139MOL0     H18343   8.867   9.696   6.153 -0.5234 -0.6469  0.9841
  139MOL0     H18344   8.928   9.510   6.308 -1.5597  1.7877  0.9638
  139MOL0     H18345   9.032   9.533   6.172 -0.1496 -0.5594  1.3147
  139MOL0     H18346   9.302   9.617   6.488  0.4333  0.1688 -0.6525
  139MOL0     H18347   8.653  10.077   6.032  1.8584 -1.8814  0.4265
  139MOL0     H18348   8.435  10.199   6.020  2.7495 -0.0703 -0.1449
  140MOL0     O18349   7.979   0.176  10.004  0.3480 -0.0389 -1.0727
  140MOL0     C18350   7.980   0.204   9.888 -0.2776  0.4268 -0.1704
  140MOL0     O18351   7.879   0.176   9.801 -1.1819 -0.0662  0.3429
  140MOL0     C18352   7.747   0.171   9.824  0.6521  0.9649 -0.7330
  140MOL0     C18353   7.660   0.114   9.728 -0.3193 -0.4732  0.1347
  140MOL0     C18354   7.517   0.112   9.750 -0.2541  0.1914 -0.2866
  140MOL0     C18355   7.466   0.164   9.872  0.0983 -1.2262 -0.0086
  140MOL0     O18356   7.333   0.170   9.897 -0.1103  0.0213 -1.2703
  140MOL0     C18357   7.292   0.134  10.023 -0.5494  0.4158  0.1184
  140MOL0     C18358   7.143   0.173  10.042 -0.5088  0.2048 -0.8091
  140MOL0     C18359   7.031   0.086   9.984 -0.0574 -0.5634 -0.5036
  140MOL0     C18360   7.046   0.030   9.837 -0.6282  0.5905 -0.9582
  140MOL0     C18361   6.905  -0.026   9.786 -0.0418 -0.5873  0.1722
  140MOL0     C18362   6.844  -0.135   9.866 -0.1127 -0.4059 -0.3937
  140MOL0     C18363   6.716  -0.200   9.815 -0.6928  0.0861  0.5666
  140MOL0     C18364   6.596  -0.095   9.811 -0.5037  0.2662  0.0155
  140MOL0     N18365   6.463  -0.161   9.815 -0.2761  0.5180 -0.7477
  140MOL0     C18366   6.349  -0.097   9.783 -1.0257  0.0302 -0.3173
  140MOL0     C18367   6.252  -0.187   9.807  0.0671  0.9007  0.0961
  140MOL0     C18368   6.101  -0.172   9.776 -0.4675 -0.4232 -0.6788
  140MOL0     C18369   6.027  -0.070   9.862  0.2461 -0.5559 -0.0515
  140MOL0     C18370   6.033  -0.094  10.020  0.2569  0.9297  1.0759
  140MOL0     C18371   5.931   0.007  10.077  0.3874  0.3997 -0.5314
  140MOL0     O18372   6.000   0.137  10.065  0.4868 -0.0427 -0.1569
  140MOL0     C18373   5.922   0.251  10.093 -0.5549  0.1603  0.3694
  140MOL0     C18374   5.789   0.263  10.138 -0.1668  0.1831 -0.0523
  140MOL0     C18375   5.739   0.387  10.173  0.4848 -0.3220  0.3143
  140MOL0     C18376   5.817   0.510  10.155 -0.2184 -1.3166  0.3018
  140MOL0     C18377   5.767   0.647  10.180  0.5158  0.3473  0.7044
  140MOL0     O18378   5.645   0.647  10.242  0.2370  0.5491  0.9546
  140MOL0     C18379   5.575   0.763  10.289 -0.0189  0.5059 -0.1975
  140MOL0     C18380   5.615   0.895  10.260  0.8355 -0.4646  0.0696
  140MOL0     C18381   5.528   0.992  10.288 -0.5380 -0.3471 -0.2927
  140MOL0     C18382   5.408   0.981  10.352 -0.3277  0.7547 -0.1985
  140MOL0     O18383   5.337   1.083  10.394  0.3025  0.4959  0.1059
  140MOL0     C18384   5.247   1.122  10.284 -0.3279  0.2256 -0.0425
  140MOL0     C18385   5.158   1.226  10.338 -0.2811 -0.0296 -0.1385
  140MOL0     C18386   5.109   1.328  10.237  0.7990  0.1803 -0.2392
  140MOL0     C18387   5.001   1.418  10.300  0.3480  1.4499  0.1948
  140MOL0     C18388   5.003   1.565  10.248 -0.0984  0.4078 -0.4397
  140MOL0     C18389   4.970   1.572  10.101 -0.8315  1.0467  0.1827
  140MOL0     C18390   4.930   1.712  10.051 -0.0593  0.3662 -0.1887
  140MOL0     C18391   4.787   1.735  10.084 -1.0556  1.0109  0.1182
  140MOL0    Cl18392   4.683   1.640   9.974  0.2765 -0.1997  0.5635
  140MOL0     C18393   5.364   0.847  10.371  0.4448 -0.9529 -0.1751
  140MOL0     C18394   5.450   0.745  10.347 -0.7927  0.5627 -0.1438
  140MOL0     O18395   5.845   0.745  10.166 -0.5798  1.0508  0.3089
  140MOL0     C18396   5.947   0.496  10.108 -0.3498  0.6096  0.8917
  140MOL0     C18397   5.992   0.369  10.069  0.1521  0.2473 -0.3010
  140MOL0     N18398   6.304  -0.304   9.861  0.4456  0.2552  0.3541
  140MOL0     N18399   6.431  -0.280   9.866 -0.3607  0.2961 -0.4837
  140MOL0     C18400   7.555   0.216   9.967 -0.1834 -0.6855 -0.0907
  140MOL0     C18401   7.690   0.217   9.946 -1.0298  1.0685 -0.3228
  140MOL0     C18402   8.111   0.260   9.834  0.2798  0.0037 -0.2064
  140MOL0     C18403   8.217   0.271   9.928  0.4667 -0.0313  0.1607
  140MOL0     C18404   8.333   0.330   9.895 -0.2076  0.2654  0.2444
  140MOL0     C18405   8.350   0.382   9.765  0.1168 -0.2288  0.3625
  140MOL0     O18406   8.456   0.459   9.726 -0.3604 -0.2454  0.2975
  140MOL0     C18407   8.477   0.581   9.806 -0.6982 -0.3581  1.3474
  140MOL0     C18408   8.412   0.708   9.732  0.7943  0.4429  0.3458
  140MOL0     C18409   8.440   0.721   9.582  1.6407 -0.4730 -0.1593
  140MOL0     C18410   8.593   0.748   9.552 -0.7243  0.1144 -0.1548
  140MOL0     C18411   8.603   0.761   9.410  0.0447 -0.4055  0.2843
  140MOL0     C18412   8.600   0.802   9.293  0.9976 -0.6832 -0.0850
  140MOL0     C18413   8.253   0.354   9.669  0.2344  0.7138  0.3576
  140MOL0     C18414   8.129   0.310   9.706  0.3798 -0.6519  0.2938
  140MOL0     H18415   7.705   0.090   9.633 -2.1085 -0.2202 -0.8278
  140MOL0     H18416   7.439   0.079   9.681  0.9075 -2.7208 -0.3042
  140MOL0     H18417   7.339   0.191  10.103 -0.6987  1.0011 -0.2072
  140MOL0     H18418   7.302   0.025  10.032  2.4724  0.6738  0.6761
  140MOL0     H18419   7.131   0.274  10.001 -0.5625  0.1833 -0.8446
  140MOL0     H18420   7.123   0.180  10.150 -2.5859  2.8384 -1.2514
  140MOL0     H18421   6.932   0.133   9.995  1.1079  1.7561  0.8564
  140MOL0     H18422   7.021   0.003  10.054  1.8398 -0.6275 -0.2691
  140MOL0     H18423   7.082   0.097   9.758 -0.8785  3.3675  1.1201
  140MOL0     H18424   7.124  -0.046   9.849 -1.6605 -0.3308  0.1407
  140MOL0     H18425   6.919  -0.063   9.684 -4.0342  3.1308 -2.0168
  140MOL0     H18426   6.831   0.054   9.777 -1.0728 -1.3885  1.2811
  140MOL0     H18427   6.837  -0.106   9.972  3.6800 -2.3291  0.5554
  140MOL0     H18428   6.914  -0.218   9.879  0.5021 -0.9052 -5.3196
  140MOL0     H18429   6.737  -0.248   9.718  1.6429 -1.5143  1.7689
  140MOL0     H18430   6.707  -0.288   9.880  1.1671 -0.4355  0.1794
  140MOL0     H18431   6.601  -0.024   9.728  0.4076 -1.2181 -1.2664
  140MOL0     H18432   6.604  -0.028   9.897  0.2017  1.1363 -0.6977
  140MOL0     H18433   6.328   0.005   9.752 -3.5534 -0.4666 -0.4412
  140MOL0     H18434   6.055  -0.271   9.781 -0.2604 -0.5298 -0.8320
  140MOL0     H18435   6.094  -0.145   9.670  3.3043  1.2979 -0.6868
  140MOL0     H18436   5.927  -0.061   9.819  0.6813  0.3852 -0.9043
  140MOL0     H18437   6.077   0.022   9.832  0.6244 -1.7772 -3.6409
  140MOL0     H18438   6.019  -0.201  10.037  0.0533  0.9935  1.3077
  140MOL0     H18439   6.132  -0.059  10.053  1.4561  0.8252 -2.0314
  140MOL0     H18440   5.902  -0.017  10.179  0.1089 -0.7239 -0.8607
  140MOL0     H18441   5.837  -0.002  10.021 -0.1782 -1.3006  0.6257
  140MOL0     H18442   5.734   0.170  10.149  0.9061 -0.1880  4.3789
  140MOL0     H18443   5.638   0.402  10.210  0.2242  2.2300 -1.1440
  140MOL0     H18444   5.707   0.921  10.210 -0.4751  1.3964 -1.5259
  140MOL0     H18445   5.557   1.095  10.267 -1.8878  0.2003  0.3797
  140MOL0     H18446   5.206   1.034  10.235  2.4987  0.3312 -2.9316
  140MOL0     H18447   5.316   1.162  10.209  1.8638 -0.0167  1.7177
  140MOL0     H18448   5.206   1.285  10.416  0.1161 -0.1675 -0.2764
  140MOL0     H18449   5.069   1.177  10.378 -1.5366  0.2710 -2.4207
  140MOL0     H18450   5.075   1.290  10.140  1.5874  3.6131 -2.0178
  140MOL0     H18451   5.195   1.392  10.216 -0.3062  3.2015  3.4675
  140MOL0     H18452   4.906   1.380  10.262 -0.9798  0.5220  4.0854
  140MOL0     H18453   4.997   1.406  10.408 -0.4749 -1.3228 -0.0599
  140MOL0     H18454   5.097   1.615  10.272  0.7438 -1.2064 -0.2873
  140MOL0     H18455   4.923   1.614  10.305  2.2739  0.8070  2.8186
  140MOL0     H18456   4.894   1.500  10.069  0.2163 -0.9267  1.8544
  140MOL0     H18457   5.063   1.549  10.048 -0.9050  1.0854  0.0363
  140MOL0     H18458   4.987   1.794  10.096 -0.5994  0.3690  0.4962
  140MOL0     H18459   4.936   1.718   9.942  1.7217 -1.0986 -0.2230
  140MOL0     H18460   4.757   1.839  10.068  0.0180  1.1856 -0.8867
  140MOL0     H18461   4.774   1.714  10.191  0.1240 -1.5514 -0.1707
  140MOL0     H18462   5.258   0.834  10.392  0.3432 -2.9834 -1.6641
  140MOL0     H18463   5.426   0.639  10.348 -2.0856  0.7721 -2.1471
  140MOL0     H18464   6.009   0.584  10.095 -0.3053  0.2388 -2.1226
  140MOL0     H18465   6.094   0.360  10.032  0.2044 -0.2957 -0.0370
  140MOL0     H18466   7.517   0.259  10.059 -0.4704 -2.2598  0.5521
  140MOL0     H18467   7.750   0.264  10.023 -0.5364  0.6099 -0.4181
  140MOL0     H18468   8.209   0.236  10.030 -0.3217 -1.4408 -0.3633
  140MOL0     H18469   8.417   0.335   9.964  2.3713 -0.3208 -2.6326
  140MOL0     H18470   8.581   0.614   9.807 -1.1051  1.1028  0.2141
  140MOL0     H18471   8.443   0.563   9.908 -2.3994 -1.3635  0.6439
  140MOL0     H18472   8.305   0.693   9.751  0.6429  2.1529  0.9518
  140MOL0     H18473   8.425   0.808   9.774  2.0884 -0.2779  1.7677
  140MOL0     H18474   8.391   0.812   9.547  0.0535 -1.0826  0.4312
  140MOL0     H18475   8.395   0.633   9.535  0.7371 -0.8459  1.3136
  140MOL0     H18476   8.624   0.839   9.604  0.4004  0.9419 -2.1241
  140MOL0     H18477   8.650   0.658   9.578  0.0125  0.2136 -1.3440
  140MOL0     H18478   8.583   0.839   9.194  0.8137 -1.8960 -0.5312
  140MOL0     H18479   8.256   0.389   9.567 -0.2776 -1.0056 -0.2665
  140MOL0     H18480   8.060   0.305   9.623  1.8497  1.2736 -1.1409
  141MOL0     O18481  11.047   6.048   2.931  0.5032 -0.1915 -0.2420
  141MOL0     C18482  11.098   5.938   2.905 -0.6582  0.8246  0.2006
  141MOL0     O18483  11.028   5.828   2.870 -0.3109  0.5977 -0.1234
  141MOL0     C18484  10.890   5.839   2.854 -0.0301  0.2916 -0.3617
  141MOL0     C18485  10.825   5.755   2.946 -1.0577  0.7695  0.4555
  141MOL0     C18486  10.686   5.760   2.954  0.6568  1.1071 -0.5079
  141MOL0     C18487  10.600   5.841   2.874  0.0823  0.2128 -0.2069
  141MOL0     O18488  10.470   5.829   2.891  0.1087 -0.9178  0.5517
  141MOL0     C18489  10.389   5.943   2.883  0.2079 -0.1463  0.5448
  141MOL0     C18490  10.269   5.945   2.786  0.2083 -0.4600  0.1975
  141MOL0     C18491  10.157   6.038   2.833  0.3051  0.7713  0.3736
  141MOL0     C18492  10.027   5.976   2.788 -0.5147 -0.1836 -0.7442
  141MOL0     C18493   9.909   6.059   2.853 -0.7020  0.3175  0.0746
  141MOL0     C18494   9.788   5.975   2.835  1.4834 -0.1703 -0.1372
  141MOL0     C18495   9.651   6.049   2.877 -1.0135  0.4939 -0.3740
  141MOL0     C18496   9.548   5.957   2.808 -0.9686 -0.9081 -0.0042
  141MOL0     N18497   9.418   5.963   2.870 -0.8553  0.1633 -0.6782
  141MOL0     C18498   9.328   6.067   2.860 -0.6664 -0.2907 -0.3562
  141MOL0     C18499   9.233   6.036   2.949 -1.2440 -0.3009 -1.2102
  141MOL0     C18500   9.122   6.123   2.989  0.3862  1.4898  0.1311
  141MOL0     C18501   9.163   6.224   3.093 -0.1381  0.2175  1.3067
  141MOL0     C18502   9.049   6.295   3.156  0.3506  0.9599  0.3132
  141MOL0     C18503   9.099   6.407   3.250 -0.8642 -0.3716 -0.1828
  141MOL0     O18504   8.983   6.474   3.307 -0.7055  0.6911  0.0873
  141MOL0     C18505   9.002   6.586   3.389 -0.6443 -0.0056 -0.3989
  141MOL0     C18506   9.127   6.649   3.414  0.0161  0.2033 -0.6405
  141MOL0     C18507   9.130   6.773   3.485  0.1567  0.1733 -0.0839
  141MOL0     C18508   9.016   6.837   3.539 -0.2587  0.0834  0.0565
  141MOL0     C18509   9.023   6.959   3.620  0.1127 -0.6388  0.7920
  141MOL0     O18510   8.921   6.984   3.703  0.0888  1.2695  0.3089
  141MOL0     C18511   8.934   7.097   3.772  0.5186 -0.4883  0.4567
  141MOL0     C18512   9.022   7.113   3.879 -0.0131 -0.3325  0.4692
  141MOL0     C18513   9.003   7.221   3.965 -0.3912 -1.6713  0.3497
  141MOL0     C18514   8.925   7.327   3.927  0.0989  0.0478 -0.6841
  141MOL0     O18515   8.911   7.452   3.991  0.7315  0.8240  0.1374
  141MOL0     C18516   9.004   7.493   4.089 -0.3773  0.4783  0.1762
  141MOL0     C18517   8.991   7.643   4.116 -0.0366  0.2802  0.2747
  141MOL0     C18518   9.067   7.675   4.242 -0.1575 -0.2360  0.0752
  141MOL0     C18519   9.053   7.814   4.293  0.0479  0.5278 -0.8478
  141MOL0     C18520   9.149   7.847   4.413  0.0062  0.0973  0.8961
  141MOL0     C18521   9.111   7.788   4.547  0.0450 -0.0596  0.5432
  141MOL0     C18522   9.205   7.812   4.666  0.0692 -0.6482  0.4668
  141MOL0     C18523   9.140   7.751   4.785  0.1098 -0.7198  0.1496
  141MOL0    Cl18524   9.004   7.838   4.838 -0.2560 -0.2636 -0.0950
  141MOL0     C18525   8.844   7.321   3.818 -0.1545 -0.1662  0.3536
  141MOL0     C18526   8.853   7.205   3.742 -0.0547  0.5786  0.1510
  141MOL0     O18527   9.132   7.018   3.622 -0.8187 -0.4149 -0.2694
  141MOL0     C18528   8.899   6.771   3.508  0.0297  0.4572 -0.7678
  141MOL0     C18529   8.889   6.654   3.427  0.8217 -0.4904  0.2531
  141MOL0     N18530   9.264   5.913   3.007  0.2027  0.1685 -0.7068
  141MOL0     N18531   9.372   5.873   2.967 -0.2263 -0.9032  0.4431
  141MOL0     C18532  10.668   5.922   2.784 -0.1780  0.0858 -0.3605
  141MOL0     C18533  10.810   5.919   2.763 -0.7836  0.0724  0.0254
  141MOL0     C18534  11.240   5.907   2.942 -0.1120 -0.6576 -0.2684
  141MOL0     C18535  11.310   6.012   3.000 -0.6634 -0.2931 -0.2608
  141MOL0     C18536  11.444   5.988   3.043  0.4964 -0.0357 -0.6020
  141MOL0     C18537  11.506   5.869   3.037 -0.1539 -0.1032  0.0778
  141MOL0     O18538  11.632   5.875   3.074  0.2486 -0.2852 -0.1329
  141MOL0     C18539  11.703   5.755   3.106 -0.1560  0.0268  0.6172
  141MOL0     C18540  11.823   5.785   3.197  0.2718 -0.1810 -0.2804
  141MOL0     C18541  11.793   5.760   3.344  0.3913  0.4296  0.1004
  141MOL0     C18542  11.904   5.807   3.441 -0.4512 -0.0650 -0.4126
  141MOL0     C18543  11.934   5.705   3.542  0.7594  0.2277  0.7201
  141MOL0     C18544  11.952   5.616   3.625  0.8054 -0.2425 -1.1489
  141MOL0     C18545  11.436   5.764   2.968 -0.5445 -0.5798 -0.3461
  141MOL0     C18546  11.306   5.780   2.927 -0.3389  0.2970  0.7105
  141MOL0     H18547  10.873   5.676   3.002  1.8093  2.3625  0.4246
  141MOL0     H18548  10.641   5.686   3.019  2.7548 -0.2823 -0.5118
  141MOL0     H18549  10.442   6.039   2.887 -0.3030  0.3876 -2.5911
  141MOL0     H18550  10.351   5.922   2.983  0.6027 -1.3554  0.4525
  141MOL0     H18551  10.234   5.842   2.774 -0.0400 -0.6577  2.2747
  141MOL0     H18552  10.309   5.979   2.690  0.0739  0.3986  0.4380
  141MOL0     H18553  10.177   6.138   2.793 -0.8127  0.5754 -0.7789
  141MOL0     H18554  10.147   6.035   2.942 -0.8714 -1.2787  0.2584
  141MOL0     H18555  10.036   5.990   2.679  2.7615 -2.3074 -0.8890
  141MOL0     H18556  10.026   5.868   2.806  2.5227  0.0446  1.7066
  141MOL0     H18557   9.897   6.159   2.811 -0.2083 -0.4994 -2.1383
  141MOL0     H18558   9.928   6.067   2.961 -0.4791 -1.0777  0.1623
  141MOL0     H18559   9.791   5.875   2.879  0.1347 -0.0237  0.3347
  141MOL0     H18560   9.777   5.965   2.726  2.1262 -2.5522 -0.0273
  141MOL0     H18561   9.634   6.052   2.985 -2.4588 -2.1632 -0.4626
  141MOL0     H18562   9.653   6.152   2.839 -2.4430  0.8991  0.5850
  141MOL0     H18563   9.576   5.851   2.805 -1.9452 -1.1923  0.3398
  141MOL0     H18564   9.534   5.987   2.704  1.4172 -2.8543 -0.9638
  141MOL0     H18565   9.342   6.160   2.806  3.0212 -1.0866 -1.0325
  141MOL0     H18566   9.039   6.056   3.014  0.6198 -0.9438 -4.4507
  141MOL0     H18567   9.083   6.158   2.892  0.9627 -1.9842 -1.4873
  141MOL0     H18568   9.224   6.301   3.044  0.6188 -1.0631  0.1936
  141MOL0     H18569   9.228   6.172   3.165 -2.3826 -1.5305  2.1737
  141MOL0     H18570   8.991   6.340   3.075  1.7033  1.4124 -0.4208
  141MOL0     H18571   8.988   6.220   3.207  2.6901 -0.5408  1.0177
  141MOL0     H18572   9.169   6.472   3.197  1.5267 -1.0086  1.9941
  141MOL0     H18573   9.170   6.384   3.330 -1.0875  0.9320  0.4170
  141MOL0     H18574   9.225   6.608   3.395 -0.5881 -1.8635  0.3944
  141MOL0     H18575   9.224   6.826   3.500  0.5331 -0.3317 -0.6636
  141MOL0     H18576   9.095   7.035   3.896  1.5577  0.2539 -2.8939
  141MOL0     H18577   9.064   7.230   4.055 -0.6395 -0.2658  0.4054
  141MOL0     H18578   9.108   7.473   4.064 -0.4483 -0.1683  0.3730
  141MOL0     H18579   8.996   7.430   4.178  1.6207 -0.2297 -0.0874
  141MOL0     H18580   8.883   7.658   4.129 -0.3045 -0.3458 -1.0649
  141MOL0     H18581   9.024   7.696   4.026 -1.8674 -2.3771 -2.1158
  141MOL0     H18582   9.168   7.654   4.208  0.1475 -1.5143  1.6352
  141MOL0     H18583   9.037   7.607   4.323 -3.4644  0.1816 -0.6318
  141MOL0     H18584   9.072   7.882   4.210  2.4633 -1.0546 -1.6820
  141MOL0     H18585   8.949   7.816   4.329  0.0020  0.6163 -0.9834
  141MOL0     H18586   9.131   7.953   4.434 -3.2252  0.2531 -1.9559
  141MOL0     H18587   9.255   7.835   4.387 -0.7563 -4.4887 -1.1505
  141MOL0     H18588   9.103   7.679   4.537 -0.3158  0.0527 -0.5553
  141MOL0     H18589   9.009   7.814   4.576  0.1877 -2.2377  3.4150
  141MOL0     H18590   9.302   7.768   4.639  1.1183  2.4365 -1.3082
  141MOL0     H18591   9.219   7.919   4.679 -0.0081 -0.3693 -1.4655
  141MOL0     H18592   9.203   7.725   4.871  0.2671 -1.4352 -0.1725
  141MOL0     H18593   9.110   7.653   4.748 -1.1948 -0.8712  1.4824
  141MOL0     H18594   8.775   7.397   3.784  0.2900  0.6132  1.1872
  141MOL0     H18595   8.787   7.180   3.660  2.2892 -5.2281 -0.4744
  141MOL0     H18596   8.797   6.806   3.520  0.2945  0.5307  1.7995
  141MOL0     H18597   8.790   6.632   3.389  0.2180  2.2418  0.0525
  141MOL0     H18598  10.605   5.987   2.725 -0.8263 -2.1801 -2.2817
  141MOL0     H18599  10.858   5.983   2.690 -0.5802 -1.7681 -1.5259
  141MOL0     H18600  11.264   6.107   3.027  1.5142  0.8088 -0.2216
  141MOL0     H18601  11.490   6.072   3.094  0.3246  2.0002 -3.5495
  141MOL0     H18602  11.723   5.694   3.017 -0.6333 -1.5003  1.5273
  141MOL0     H18603  11.634   5.695   3.165  0.7443 -1.6581  0.0298
  141MOL0     H18604  11.896   5.709   3.168 -1.3713 -2.1868  0.5641
  141MOL0     H18605  11.857   5.887   3.178 -0.0018 -0.3604 -1.8300
  141MOL0     H18606  11.766   5.655   3.357 -1.4042  0.8400 -0.0327
  141MOL0     H18607  11.701   5.810   3.375  0.4019  1.2553 -1.1159
  141MOL0     H18608  11.993   5.833   3.383 -0.6201 -1.2432 -1.2420
  141MOL0     H18609  11.865   5.897   3.491  0.2680 -0.2099  0.4332
  141MOL0     H18610  11.985   5.563   3.712 -0.2262  2.9039  1.3436
  141MOL0     H18611  11.505   5.681   2.952 -1.1984 -1.0635 -0.6783
  141MOL0     H18612  11.263   5.686   2.892  2.9594 -0.8639 -0.6779
  142MOL0     O18613   6.137   6.174   4.354  0.8719  1.1954 -0.1800
  142MOL0     C18614   6.233   6.217   4.430 -0.8485  0.5953 -0.4103
  142MOL0     O18615   6.294   6.158   4.550 -0.5658  0.1237  0.4127
  142MOL0     C18616   6.284   6.028   4.584 -0.4335 -0.6278  0.2556
  142MOL0     C18617   6.155   5.973   4.613 -0.8957  0.1608  0.1486
  142MOL0     C18618   6.151   5.842   4.668 -0.8365  0.4118 -0.2368
  142MOL0     C18619   6.263   5.766   4.689 -0.6920  0.3424 -0.1996
  142MOL0     O18620   6.265   5.644   4.737 -0.0336 -0.0793  0.2644
  142MOL0     C18621   6.194   5.551   4.668  0.3743  0.3414 -0.0468
  142MOL0     C18622   6.186   5.407   4.734  0.0960 -0.7601  0.3918
  142MOL0     C18623   6.315   5.330   4.730  0.3319 -0.2773 -1.3725
  142MOL0     C18624   6.289   5.198   4.806  0.2486 -0.9444 -1.1986
  142MOL0     C18625   6.428   5.135   4.835 -0.5346  0.2965  0.1789
  142MOL0     C18626   6.411   4.984   4.870  0.1298 -0.8709  0.3260
  142MOL0     C18627   6.336   4.956   4.995  0.7271 -0.0746  0.1774
  142MOL0     C18628   6.355   4.815   5.057  0.5070  0.5504 -0.8412
  142MOL0     N18629   6.295   4.705   4.979  0.1798  0.0950 -0.3353
  142MOL0     C18630   6.187   4.716   4.898 -0.0198 -0.1797 -0.0394
  142MOL0     C18631   6.191   4.610   4.813 -0.1455  1.0802 -0.2409
  142MOL0     C18632   6.104   4.566   4.704 -0.1264  0.3282 -0.4815
  142MOL0     C18633   5.982   4.493   4.760 -0.4374 -0.4826 -0.0505
  142MOL0     C18634   5.872   4.579   4.817 -0.5714  0.1121  0.0462
  142MOL0     C18635   5.811   4.659   4.697 -0.0159 -0.2456  0.4668
  142MOL0     O18636   5.764   4.581   4.588  0.2711  0.4611 -0.3546
  142MOL0     C18637   5.636   4.529   4.586  0.5103  0.6469 -0.4902
  142MOL0     C18638   5.547   4.513   4.697 -0.1935 -0.3170  0.4481
  142MOL0     C18639   5.419   4.470   4.678  0.1216 -0.1844 -0.2039
  142MOL0     C18640   5.374   4.433   4.548 -0.8548  1.5182  0.4495
  142MOL0     C18641   5.234   4.384   4.527 -0.4098  0.5891  0.8153
  142MOL0     O18642   5.193   4.368   4.400  0.1719 -0.5946 -0.3794
  142MOL0     C18643   5.066   4.325   4.378  0.1796  0.3781 -0.3806
  142MOL0     C18644   5.035   4.211   4.293  0.2382  0.5792  0.2149
  142MOL0     C18645   4.904   4.154   4.287  0.3983 -0.0248  0.0527
  142MOL0     C18646   4.798   4.215   4.353  0.2276 -0.0499  0.4649
  142MOL0     O18647   4.677   4.166   4.320  0.2408  0.1560 -0.5690
  142MOL0     C18648   4.562   4.252   4.318 -1.1800 -0.2930 -0.4110
  142MOL0     C18649   4.436   4.181   4.270  0.5291  0.4593  0.4742
  142MOL0     C18650   4.315   4.270   4.304 -0.2050  0.1930 -0.4861
  142MOL0     C18651   4.194   4.184   4.335 -0.1572 -0.6236 -0.2923
  142MOL0     C18652   4.069   4.268   4.352 -0.3792  0.2013 -0.1792
  142MOL0     C18653   3.961   4.180   4.420  0.2108  0.6641  0.6367
  142MOL0     C18654   3.816   4.245   4.411 -1.1847  0.0767  0.1857
  142MOL0     C18655   3.794   4.365   4.506 -0.0242  0.1756 -0.4058
  142MOL0    Cl18656   3.803   4.337   4.683  0.1010  0.0798  0.1061
  142MOL0     C18657   4.820   4.339   4.427  0.2966 -0.0394  0.2119
  142MOL0     C18658   4.950   4.381   4.443  0.5962  0.6139  0.1651
  142MOL0     O18659   5.164   4.359   4.620  0.2612 -0.5850 -0.6242
  142MOL0     C18660   5.458   4.436   4.435 -0.4103 -0.1698  0.4721
  142MOL0     C18661   5.583   4.496   4.456 -0.2106 -0.4750 -0.3206
  142MOL0     N18662   6.307   4.533   4.834 -0.1702 -0.2573 -0.0055
  142MOL0     N18663   6.362   4.586   4.949 -0.6646  0.4469  0.3747
  142MOL0     C18664   6.390   5.825   4.673  0.4595 -0.9146 -0.1534
  142MOL0     C18665   6.398   5.948   4.625  0.3726 -0.5352 -0.4055
  142MOL0     C18666   6.269   6.356   4.401 -0.6374 -0.8799  0.3544
  142MOL0     C18667   6.215   6.419   4.283 -0.4350 -0.9005 -0.5671
  142MOL0     C18668   6.255   6.556   4.265  0.5664 -0.0768 -1.1933
  142MOL0     C18669   6.319   6.637   4.361  0.9329 -0.2818  0.0761
  142MOL0     O18670   6.323   6.767   4.317  0.0617 -0.5298 -0.9420
  142MOL0     C18671   6.401   6.864   4.390 -0.3816  0.1002 -0.8350
  142MOL0     C18672   6.329   6.906   4.522  0.4302 -0.3166 -0.6415
  142MOL0     C18673   6.438   6.897   4.644  0.6917 -0.2408  0.6517
  142MOL0     C18674   6.474   7.045   4.670  0.4816 -0.2832 -0.5384
  142MOL0     C18675   6.566   7.100   4.568 -0.3347 -0.9645  1.0527
  142MOL0     C18676   6.628   7.134   4.474 -0.3282 -0.7660 -0.2329
  142MOL0     C18677   6.363   6.570   4.481 -0.4102 -0.0236  0.0353
  142MOL0     C18678   6.344   6.432   4.488 -0.5071 -0.0371 -0.9004
  142MOL0     H18679   6.064   6.028   4.592 -0.0084  1.0342 -1.6932
  142MOL0     H18680   6.052   5.813   4.702 -0.5449  2.8684  3.2452
  142MOL0     H18681   6.236   5.554   4.567 -0.6207  1.7915 -0.4375
  142MOL0     H18682   6.089   5.581   4.669  0.3440  0.3447 -1.2458
  142MOL0     H18683   6.109   5.356   4.675 -0.0151 -0.5921  0.3938
  142MOL0     H18684   6.145   5.416   4.834 -0.0229  2.6312  0.1365
  142MOL0     H18685   6.388   5.388   4.786 -2.7539  3.2892 -0.6587
  142MOL0     H18686   6.339   5.305   4.626  0.5083  0.5196 -1.5270
  142MOL0     H18687   6.251   5.232   4.903  3.5160  3.7149 -1.2005
  142MOL0     H18688   6.218   5.134   4.751 -1.4626  3.1161 -4.2879
  142MOL0     H18689   6.487   5.193   4.907 -0.2052 -0.6573  0.6910
  142MOL0     H18690   6.480   5.127   4.739 -0.0304  2.2773  0.2365
  142MOL0     H18691   6.506   4.933   4.882  1.0233  0.0044 -2.3206
  142MOL0     H18692   6.364   4.929   4.788  2.2874 -1.9263 -0.2609
  142MOL0     H18693   6.370   5.026   5.072 -0.3094  0.8738 -0.1938
  142MOL0     H18694   6.230   4.978   4.979  1.5091  3.2890 -1.1527
  142MOL0     H18695   6.301   4.821   5.151 -0.4941 -2.4853 -1.1195
  142MOL0     H18696   6.454   4.789   5.095 -0.2481 -0.9153  0.2057
  142MOL0     H18697   6.118   4.796   4.921 -0.6015 -0.6151 -0.2267
  142MOL0     H18698   6.150   4.496   4.633 -0.0200  2.0776 -2.2314
  142MOL0     H18699   6.076   4.646   4.635 -1.2252 -0.5000 -1.0388
  142MOL0     H18700   6.012   4.416   4.831  0.3424  1.5515  1.9372
  142MOL0     H18701   5.936   4.429   4.684  0.5526 -1.8460  0.4657
  142MOL0     H18702   5.797   4.510   4.856  1.3435 -2.0836  0.0654
  142MOL0     H18703   5.899   4.640   4.903 -0.0634 -1.9434  1.4144
  142MOL0     H18704   5.880   4.728   4.649  1.6652 -3.1847 -1.7191
  142MOL0     H18705   5.734   4.725   4.738 -2.0117 -1.3876 -1.1791
  142MOL0     H18706   5.586   4.541   4.795 -0.2308 -0.4321  0.4959
  142MOL0     H18707   5.343   4.468   4.756  1.1710  0.4971  0.8638
  142MOL0     H18708   5.108   4.161   4.230 -0.0667  3.2187 -2.4704
  142MOL0     H18709   4.877   4.065   4.230  1.5129  0.0001 -0.5384
  142MOL0     H18710   4.595   4.343   4.266  0.7837 -0.0835  1.1275
  142MOL0     H18711   4.541   4.290   4.418  0.8421  1.5216 -0.6098
  142MOL0     H18712   4.433   4.086   4.324  2.7631  0.4016  0.6032
  142MOL0     H18713   4.440   4.154   4.164  0.2981  1.5624  0.1745
  142MOL0     H18714   4.292   4.348   4.231  0.2548  1.2070  0.4061
  142MOL0     H18715   4.336   4.332   4.392  0.4379  1.0870 -1.2536
  142MOL0     H18716   4.182   4.114   4.252  0.8172 -0.2266 -0.7778
  142MOL0     H18717   4.209   4.135   4.432 -0.6936  0.6232  0.4434
  142MOL0     H18718   4.041   4.309   4.255  1.0608  2.8251  0.4083
  142MOL0     H18719   4.099   4.351   4.417  0.7847 -2.0602  2.3987
  142MOL0     H18720   3.984   4.163   4.526 -0.2542  1.7516  0.9292
  142MOL0     H18721   3.954   4.087   4.363 -4.4604  0.5297  1.0240
  142MOL0     H18722   3.796   4.271   4.307  0.7938  2.7089  0.3652
  142MOL0     H18723   3.746   4.163   4.428 -1.2524  0.2103  0.5612
  142MOL0     H18724   3.698   4.410   4.480 -0.7949 -1.3361 -0.2865
  142MOL0     H18725   3.864   4.446   4.483  0.3747 -0.3284 -0.9866
  142MOL0     H18726   4.743   4.395   4.479 -0.2242 -0.3324 -0.2301
  142MOL0     H18727   4.959   4.467   4.509 -1.4387 -1.2289  3.0661
  142MOL0     H18728   5.431   4.409   4.333  0.4168  0.5578  0.0450
  142MOL0     H18729   5.653   4.530   4.380  3.0345 -2.9463  1.3369
  142MOL0     H18730   6.477   5.765   4.700  1.4681  1.6032  2.9130
  142MOL0     H18731   6.495   5.983   4.592  0.9804 -2.4037 -0.7510
  142MOL0     H18732   6.162   6.370   4.202  0.3601 -2.1030 -0.3769
  142MOL0     H18733   6.227   6.615   4.178  1.7167 -0.0998 -1.6007
  142MOL0     H18734   6.409   6.959   4.336 -1.7861  1.2250  0.8430
  142MOL0     H18735   6.492   6.807   4.413 -0.6261 -0.4718 -1.2506
  142MOL0     H18736   6.284   7.006   4.518  1.7645  0.3536  0.2955
  142MOL0     H18737   6.249   6.840   4.556 -0.5507 -0.2063 -2.5374
  142MOL0     H18738   6.526   6.839   4.616 -0.4856 -1.5533 -0.4730
  142MOL0     H18739   6.401   6.848   4.734 -0.4478 -0.5086  0.0569
  142MOL0     H18740   6.386   7.110   4.677  0.6935  0.2165 -2.1133
  142MOL0     H18741   6.539   7.047   4.758  2.9603 -0.4479 -2.2778
  142MOL0     H18742   6.683   7.164   4.387 -1.3042 -0.5521 -0.7894
  142MOL0     H18743   6.413   6.633   4.553 -0.2336 -0.4512  0.2906
  142MOL0     H18744   6.402   6.375   4.561  1.9306  1.3355 -1.6545
  143MOL0     O18745   8.344   5.955   1.283 -0.4042  0.4770 -0.3592
  143MOL0     C18746   8.344   5.867   1.374  0.6640 -0.9614 -0.2311
  143MOL0     O18747   8.453   5.798   1.435  0.0109  0.2936 -0.0028
  143MOL0     C18748   8.573   5.821   1.372  0.1493  0.1798 -0.3360
  143MOL0     C18749   8.652   5.705   1.343  0.8278  0.4110 -0.2466
  143MOL0     C18750   8.785   5.700   1.308  0.8623 -0.5064  0.2114
  143MOL0     C18751   8.849   5.829   1.313 -0.2547  0.6806 -0.5625
  143MOL0     O18752   8.984   5.817   1.280  0.3474 -0.1879  0.2797
  143MOL0     C18753   9.060   5.924   1.217 -0.2954 -0.1322 -0.5794
  143MOL0     C18754   9.181   5.860   1.156  0.1660  0.2795 -0.3389
  143MOL0     C18755   9.287   5.963   1.121 -0.9793 -0.1272  0.1390
  143MOL0     C18756   9.390   5.910   1.015 -0.4669 -0.4753  0.2378
  143MOL0     C18757   9.489   5.803   1.062  1.0127  0.0738 -0.3254
  143MOL0     C18758   9.583   5.775   0.940  0.0575  0.3725  0.4831
  143MOL0     C18759   9.713   5.701   0.977 -0.5661 -0.6825 -0.4046
  143MOL0     C18760   9.822   5.732   0.857 -0.2414 -0.5199  0.6046
  143MOL0     N18761   9.764   5.729   0.721  0.0397 -0.4806  1.0376
  143MOL0     C18762   9.720   5.620   0.653 -0.4894 -0.2625 -0.1192
  143MOL0     C18763   9.669   5.660   0.530  0.6214  0.3986 -0.1714
  143MOL0     C18764   9.613   5.575   0.423 -1.0134  0.0261  0.4070
  143MOL0     C18765   9.464   5.556   0.418  0.1589 -0.1517 -0.1646
  143MOL0     C18766   9.386   5.689   0.427 -0.0748 -0.3408 -0.0152
  143MOL0     C18767   9.392   5.778   0.300  0.4588 -0.2033 -0.2736
  143MOL0     O18768   9.330   5.707   0.189 -0.6807 -0.6292  0.4021
  143MOL0     C18769   9.194   5.693   0.178 -0.5255 -0.3727 -0.0770
  143MOL0     C18770   9.155   5.618   0.065 -0.1003 -0.3730  0.1961
  143MOL0     C18771   9.013   5.604   0.033 -0.4420 -0.0413 -0.3615
  143MOL0     C18772   8.914   5.664   0.110 -0.0503 -0.3836  0.9199
  143MOL0     C18773   8.771   5.656   0.061  0.5470 -0.1154 -0.3007
  143MOL0     O18774   8.683   5.699   0.155 -0.9619 -1.1519 -0.3281
  143MOL0     C18775   8.549   5.716   0.125  0.2016  0.2974 -0.0622
  143MOL0     C18776   8.497   5.815   0.039  0.4410  0.6729  0.8888
  143MOL0     C18777   8.359   5.837   0.033  0.9027 -0.0451  0.3883
  143MOL0     C18778   8.274   5.757   0.106 -0.3354 -0.2199  0.0792
  143MOL0     O18779   8.138   5.759   0.099  0.3387  1.1954 -0.2601
  143MOL0     C18780   8.077   5.865   0.020 -0.2546  0.3402  0.4856
  143MOL0     C18781   7.942   5.902   0.089  1.3017 -0.6305  0.0273
  143MOL0     C18782   7.832   5.992   0.018  0.2579 -0.2254  0.0026
  143MOL0     C18783   7.733   5.905  -0.071 -0.4165 -0.1599 -0.3493
  143MOL0     C18784   7.606   5.988  -0.094  0.0126 -0.1052  0.6239
  143MOL0     C18785   7.501   6.010   0.018  0.2066 -0.1842 -0.1286
  143MOL0     C18786   7.360   6.053  -0.019 -0.3207 -0.0639 -0.5189
  143MOL0     C18787   7.263   6.076   0.100  0.1303  0.1469 -0.4352
  143MOL0    Cl18788   7.100   6.127   0.021 -0.0824  0.1207 -0.1772
  143MOL0     C18789   8.325   5.656   0.187 -0.1870 -0.1983  0.3806
  143MOL0     C18790   8.458   5.632   0.189 -0.7673  0.8620 -0.7253
  143MOL0     O18791   8.748   5.632  -0.059 -0.5702 -1.0655 -0.6132
  143MOL0     C18792   8.959   5.739   0.216 -0.9045 -0.0093  0.1565
  143MOL0     C18793   9.091   5.757   0.258  0.0575 -0.4608  0.9972
  143MOL0     N18794   9.684   5.803   0.529 -0.2291 -0.4024 -0.4156
  143MOL0     N18795   9.747   5.838   0.641 -0.0761  0.0444 -0.3325
  143MOL0     C18796   8.779   5.949   1.336 -0.7687  0.2857 -1.2920
  143MOL0     C18797   8.636   5.940   1.355 -1.0745 -0.6540 -0.6315
  143MOL0     C18798   8.209   5.802   1.401 -1.3228  0.7173  0.4194
  143MOL0     C18799   8.099   5.833   1.319  0.9352  0.1730 -0.5984
  143MOL0     C18800   7.974   5.786   1.347  0.7070  0.2954  0.0139
  143MOL0     C18801   7.944   5.697   1.447 -1.1158 -0.3854 -0.0561
  143MOL0     O18802   7.818   5.641   1.476 -0.1929  0.2120 -0.0532
  143MOL0     C18803   7.716   5.647   1.367  0.1342 -0.2213 -0.0630
  143MOL0     C18804   7.594   5.580   1.430  0.3580 -0.0916  0.3821
  143MOL0     C18805   7.480   5.580   1.334 -0.2759 -0.8171 -0.1652
  143MOL0     C18806   7.346   5.564   1.406 -0.2091 -0.2232  0.9372
  143MOL0     C18807   7.258   5.507   1.309 -1.2060 -0.3670  0.0181
  143MOL0     C18808   7.182   5.488   1.223 -0.1113 -0.4787  0.3848
  143MOL0     C18809   8.054   5.655   1.530 -0.3379 -0.5861 -0.1277
  143MOL0     C18810   8.186   5.711   1.510  0.0864 -0.1273 -0.1225
  143MOL0     H18811   8.597   5.614   1.366  2.9818 -1.1397 -0.8770
  143MOL0     H18812   8.832   5.604   1.286 -0.7941 -2.0331  2.7544
  143MOL0     H18813   9.093   6.002   1.287 -0.5899 -0.7662  0.2915
  143MOL0     H18814   9.001   5.960   1.132  0.9402  0.7060 -1.1157
  143MOL0     H18815   9.152   5.812   1.061 -1.0708 -2.4124  1.2807
  143MOL0     H18816   9.221   5.781   1.221  1.2627  0.0791 -1.2153
  143MOL0     H18817   9.346   5.988   1.210 -0.1471  1.1116 -0.7283
  143MOL0     H18818   9.241   6.059   1.095  1.7322  1.8348  1.9594
  143MOL0     H18819   9.344   5.887   0.919  1.4483  2.3420 -1.4933
  143MOL0     H18820   9.463   5.990   1.001  2.2437 -2.7484  0.4044
  143MOL0     H18821   9.443   5.724   1.123  1.2813  1.6021  1.9840
  143MOL0     H18822   9.560   5.853   1.128  2.1354 -0.9489 -0.7214
  143MOL0     H18823   9.608   5.865   0.883 -2.2221 -0.4845 -2.0715
  143MOL0     H18824   9.544   5.706   0.864  0.4087  1.1177 -0.3949
  143MOL0     H18825   9.739   5.739   1.076  0.6068 -1.8577 -0.2259
  143MOL0     H18826   9.694   5.593   0.984 -0.5995 -0.6214  0.5155
  143MOL0     H18827   9.919   5.680   0.860  0.1523  0.1630  4.5203
  143MOL0     H18828   9.856   5.833   0.880 -0.9428 -0.0640 -0.3070
  143MOL0     H18829   9.723   5.516   0.685 -0.4405 -0.2719 -0.1554
  143MOL0     H18830   9.645   5.470   0.433 -2.3266 -0.4101  0.1641
  143MOL0     H18831   9.640   5.614   0.325 -0.5088  1.1594  0.9760
  143MOL0     H18832   9.434   5.498   0.505  1.0546  3.6072  2.9471
  143MOL0     H18833   9.436   5.503   0.327 -1.4924  0.7094 -0.2039
  143MOL0     H18834   9.278   5.673   0.433 -0.4599  1.4741 -1.1242
  143MOL0     H18835   9.411   5.740   0.520 -2.0707 -0.7693  0.8106
  143MOL0     H18836   9.497   5.802   0.282  0.7430  1.1911  2.5356
  143MOL0     H18837   9.342   5.875   0.311 -3.0543 -2.0384  1.5888
  143MOL0     H18838   9.222   5.569  -0.004 -0.9784 -0.3493 -0.6884
  143MOL0     H18839   8.985   5.550  -0.058 -0.5678  0.4786 -0.6335
  143MOL0     H18840   8.556   5.889  -0.015 -0.4095 -0.1479 -1.2752
  143MOL0     H18841   8.322   5.908  -0.041  2.5837  0.1404 -0.3438
  143MOL0     H18842   8.065   5.818  -0.078 -1.7037 -1.2768  1.3728
  143MOL0     H18843   8.135   5.957   0.013  2.2994 -1.2470 -1.0415
  143MOL0     H18844   7.958   5.958   0.181 -1.5684  1.8921 -0.8312
  143MOL0     H18845   7.903   5.802   0.108 -0.6926  0.2222  0.7074
  143MOL0     H18846   7.877   6.066  -0.049  1.3181 -4.1144 -4.1029
  143MOL0     H18847   7.780   6.055   0.089  0.8788  0.6003 -0.2490
  143MOL0     H18848   7.782   5.874  -0.164 -1.6037 -1.3046 -0.6336
  143MOL0     H18849   7.697   5.813  -0.023 -2.1505  1.2110  1.1413
  143MOL0     H18850   7.558   5.960  -0.188  1.4503  0.4918 -0.3096
  143MOL0     H18851   7.632   6.090  -0.123  1.1253  0.1899  2.4673
  143MOL0     H18852   7.548   6.088   0.079 -1.4098  0.4989  0.2876
  143MOL0     H18853   7.488   5.917   0.075 -0.9006  0.9556  1.5835
  143MOL0     H18854   7.359   6.140  -0.086 -1.2306  0.2123 -0.1675
  143MOL0     H18855   7.308   5.975  -0.076 -2.0508  0.3444  0.4168
  143MOL0     H18856   7.297   6.143   0.180 -1.4825  1.1423 -0.5273
  143MOL0     H18857   7.247   5.976   0.142  0.6049 -0.9065 -2.6343
  143MOL0     H18858   8.256   5.601   0.251 -0.7023 -0.3347 -0.2810
  143MOL0     H18859   8.496   5.569   0.269  0.7290  2.1724 -0.3373
  143MOL0     H18860   8.880   5.786   0.273  0.7554  1.4908  1.3767
  143MOL0     H18861   9.116   5.822   0.341  1.4411  0.4166 -0.0721
  143MOL0     H18862   8.829   6.045   1.326  1.0394 -0.5642 -0.8723
  143MOL0     H18863   8.575   6.028   1.370 -0.6072 -0.7745  2.7500
  143MOL0     H18864   8.105   5.899   1.233  0.4030  0.7259 -0.2166
  143MOL0     H18865   7.895   5.838   1.295  0.3742 -0.8172 -0.6201
  143MOL0     H18866   7.728   5.590   1.274  0.7784  0.5904 -0.4912
  143MOL0     H18867   7.699   5.754   1.354  0.0170 -0.1810  0.3905
  143MOL0     H18868   7.614   5.475   1.452 -3.1623 -1.0513 -0.3639
  143MOL0     H18869   7.569   5.638   1.519 -3.0377  0.7390 -0.9416
  143MOL0     H18870   7.505   5.502   1.261 -2.0900 -2.3087  0.7029
  143MOL0     H18871   7.477   5.675   1.281 -0.5204  0.7717  2.5327
  143MOL0     H18872   7.358   5.496   1.491 -2.2634 -2.0813 -0.1571
  143MOL0     H18873   7.307   5.662   1.433 -0.7899 -0.1073 -0.2384
  143MOL0     H18874   7.120   5.462   1.139  1.9490  0.1579 -1.4135
  143MOL0     H18875   8.044   5.576   1.604  0.1536 -0.4718  0.0613
  143MOL0     H18876   8.258   5.676   1.584  0.0280 -1.8393 -0.8268
  144MOL0     O18877   2.369  10.443   8.766  0.4453  0.2121  0.0987
  144MOL0     C18878   2.285  10.356   8.782  0.7873 -0.5636  0.3645
  144MOL0     O18879   2.150  10.378   8.776 -0.4447  0.5420  0.4522
  144MOL0     C18880   2.087  10.503   8.754 -0.1664 -1.1596  0.3342
  144MOL0     C18881   2.133  10.590   8.650  0.6892 -0.4279 -0.4992
  144MOL0     C18882   2.065  10.708   8.629 -0.2139 -0.2653  0.2140
  144MOL0     C18883   1.949  10.745   8.707  0.2724 -0.4972  0.4225
  144MOL0     O18884   1.889  10.868   8.682  0.2806 -0.6206 -1.1357
  144MOL0     C18885   1.973  10.972   8.730 -0.2028  0.3908  0.3773
  144MOL0     C18886   1.891  11.089   8.792  0.1791  0.0403 -0.6502
  144MOL0     C18887   1.810  11.058   8.917 -0.1704 -0.0081 -1.0467
  144MOL0     C18888   1.913  11.024   9.027 -0.1254 -1.8264  0.7774
  144MOL0     C18889   1.868  11.029   9.176 -0.5346  0.1895  0.3824
  144MOL0     C18890   1.969  10.970   9.268  0.2929 -0.6999 -0.9102
  144MOL0     C18891   1.904  10.953   9.413  0.3312  0.9967  0.2483
  144MOL0     C18892   1.998  10.911   9.521  0.5825 -0.0378 -1.0193
  144MOL0     N18893   1.943  10.905   9.657 -0.5294  0.0251  0.0778
  144MOL0     C18894   1.868  10.801   9.707  0.6792  0.2234 -0.6635
  144MOL0     C18895   1.852  10.828   9.840 -0.4533 -0.5264 -0.8343
  144MOL0     C18896   1.800  10.725   9.937 -0.1985  0.1075 -0.0705
  144MOL0     C18897   1.885  10.695  10.057 -0.1347 -0.3179 -0.1027
  144MOL0     C18898   2.028  10.647  10.022 -0.0626 -0.0443  0.2349
  144MOL0     C18899   2.110  10.609  10.144  0.5117 -0.4551 -0.3380
  144MOL0     O18900   2.133  10.723  10.234 -0.1275 -0.8599  0.0727
  144MOL0     C18901   2.265  10.767  10.241  0.4411 -0.4239  0.2075
  144MOL0     C18902   2.374  10.682  10.250 -1.4540  0.3722  0.6213
  144MOL0     C18903   2.502  10.732  10.261 -0.5852  0.8037 -0.2914
  144MOL0     C18904   2.530  10.871  10.274 -0.3445 -0.4747 -0.1391
  144MOL0     C18905   2.668  10.920  10.300  0.0461  0.3035 -0.1321
  144MOL0     O18906   2.768  10.833  10.273  0.1341  0.3159  0.5388
  144MOL0     C18907   2.896  10.880  10.304  0.5989 -0.0746 -0.3668
  144MOL0     C18908   2.937  10.932  10.427  0.4163  0.5800 -0.9542
  144MOL0     C18909   3.074  10.951  10.450  0.5054 -0.3373  0.7607
  144MOL0     C18910   3.159  10.943  10.335 -0.0067 -0.1179  0.5054
  144MOL0     O18911   3.295  10.956  10.359 -0.7896 -0.5119  0.7543
  144MOL0     C18912   3.349  11.065  10.291  0.2542  0.2556 -0.4281
  144MOL0     C18913   3.439  11.027  10.175 -0.7069 -0.2762 -0.1072
  144MOL0     C18914   3.588  11.001  10.213  0.4957  0.6279 -0.6317
  144MOL0     C18915   3.666  11.128  10.277  0.5258 -0.4859  0.3354
  144MOL0     C18916   3.818  11.109  10.292  0.8213  1.3421 -1.2121
  144MOL0     C18917   3.883  11.239  10.313  0.8387  0.7393 -0.1828
  144MOL0     C18918   4.035  11.219  10.316  0.3526 -0.5679 -0.0569
  144MOL0     C18919   4.080  11.156  10.448  0.6332  0.0591  0.1760
  144MOL0    Cl18920   4.027  11.263  10.574  0.4078 -0.3461  0.2876
  144MOL0     C18921   3.113  10.909  10.217  0.1155 -1.0193  0.0517
  144MOL0     C18922   2.982  10.876  10.197  0.3048  0.0924  0.5815
  144MOL0     O18923   2.671  11.035  10.353 -0.0064  0.1467  0.1896
  144MOL0     C18924   2.420  10.962  10.267  0.1947 -0.5272 -0.0406
  144MOL0     C18925   2.284  10.912  10.256 -0.7026  0.1954  0.1084
  144MOL0     N18926   1.892  10.954   9.864 -1.0760  0.9652 -1.2973
  144MOL0     N18927   1.954  10.995   9.756  0.8251 -0.1901 -0.0522
  144MOL0     C18928   1.915  10.663   8.822 -0.7387 -0.2181  0.0405
  144MOL0     C18929   1.982  10.538   8.839 -0.3621 -0.2732 -0.3631
  144MOL0     C18930   2.323  10.219   8.802  0.1557  0.1918 -0.0035
  144MOL0     C18931   2.455  10.180   8.818 -0.2245  0.7807 -0.1695
  144MOL0     C18932   2.483  10.044   8.824  0.4052  0.0683  0.2996
  144MOL0     C18933   2.396   9.940   8.810 -0.4178 -0.6276  0.7626
  144MOL0     O18934   2.442   9.811   8.832 -0.0944  0.3876  0.9035
  144MOL0     C18935   2.388   9.701   8.763 -0.1727  0.7962 -0.2021
  144MOL0     C18936   2.475   9.636   8.649  0.1690  0.1762  0.5139
  144MOL0     C18937   2.600   9.555   8.697 -0.2431 -0.2961  0.3482
  144MOL0     C18938   2.679   9.480   8.598 -0.2159  0.2284  0.4748
  144MOL0     C18939   2.751   9.362   8.661  0.9774 -0.3628  0.8946
  144MOL0     C18940   2.811   9.264   8.699 -0.7298 -0.3899  0.6966
  144MOL0     C18941   2.262   9.976   8.789  0.5351  0.2512 -0.5549
  144MOL0     C18942   2.224  10.114   8.792 -0.6427 -0.3363 -0.4831
  144MOL0     H18943   2.225  10.571   8.597  1.7322 -1.3428  1.5161
  144MOL0     H18944   2.107  10.782   8.563  2.2511 -2.8226 -1.2896
  144MOL0     H18945   2.025  11.014   8.644  1.5173  3.4434  2.7058
  144MOL0     H18946   2.057  10.938   8.791  0.7777  0.4211 -0.9270
  144MOL0     H18947   1.819  11.131   8.721  2.3335  3.3815 -1.0915
  144MOL0     H18948   1.952  11.179   8.810  0.3563  0.2735 -2.2875
  144MOL0     H18949   1.737  10.976   8.910 -0.8994  0.6322 -1.0458
  144MOL0     H18950   1.755  11.147   8.946  1.3419  0.2967  1.1980
  144MOL0     H18951   1.937  10.918   9.023 -3.3996 -2.7558  2.3018
  144MOL0     H18952   2.002  11.088   9.018 -2.0352  1.5258  3.2843
  144MOL0     H18953   1.776  10.971   9.184  0.7295 -1.9200  0.2768
  144MOL0     H18954   1.843  11.129   9.212 -0.6496 -0.5892  2.5852
  144MOL0     H18955   2.053  11.041   9.273 -1.9757  2.0733  0.7595
  144MOL0     H18956   2.016  10.880   9.226 -0.2349 -0.3699 -2.2679
  144MOL0     H18957   1.862  11.049   9.443  0.3886  0.8086  0.9479
  144MOL0     H18958   1.824  10.878   9.401  1.8313 -0.7324  0.6019
  144MOL0     H18959   2.090  10.971   9.522  0.6043 -0.0256 -2.0346
  144MOL0     H18960   2.031  10.809   9.499 -0.0265 -0.7193  1.0472
  144MOL0     H18961   1.835  10.710   9.659 -2.9098  1.4481 -0.7808
  144MOL0     H18962   1.772  10.628   9.895  1.3894  1.2023 -4.0648
  144MOL0     H18963   1.713  10.783   9.970 -0.0710  2.1482 -2.9654
  144MOL0     H18964   1.832  10.620  10.116 -2.4181  0.0907 -1.5134
  144MOL0     H18965   1.897  10.779  10.125  1.8954 -1.8956  1.6559
  144MOL0     H18966   2.008  10.552   9.973  0.7533 -0.6735  1.0736
  144MOL0     H18967   2.079  10.719   9.957  0.4136  0.7630  1.4610
  144MOL0     H18968   2.204  10.560  10.116  0.9654  0.3889 -0.3068
  144MOL0     H18969   2.057  10.532  10.202  0.1932  0.4515  0.6016
  144MOL0     H18970   2.364  10.574  10.240  0.2528  0.3067 -1.1178
  144MOL0     H18971   2.584  10.661  10.261 -1.9489 -0.8615  0.0575
  144MOL0     H18972   2.864  10.947  10.507  1.8895 -1.2025  0.8302
  144MOL0     H18973   3.125  10.996  10.535  0.6446  3.2281 -1.0405
  144MOL0     H18974   3.401  11.138  10.354 -0.7844 -0.6840  1.6139
  144MOL0     H18975   3.267  11.119  10.243 -0.6571 -0.1837  0.5775
  144MOL0     H18976   3.444  11.107  10.100 -1.3187 -1.5144 -1.5324
  144MOL0     H18977   3.395  10.940  10.123 -1.3556  0.4093 -0.7305
  144MOL0     H18978   3.639  10.974  10.120  1.8515 -1.7274  0.6915
  144MOL0     H18979   3.588  10.917  10.284 -3.2765  0.1709 -0.9642
  144MOL0     H18980   3.650  11.209  10.205  2.3736 -1.8678 -1.7978
  144MOL0     H18981   3.619  11.160  10.370 -0.6154 -0.8400 -0.0998
  144MOL0     H18982   3.853  11.065  10.198 -1.4607  1.2874 -2.0915
  144MOL0     H18983   3.832  11.035  10.371  0.6214  0.2118 -2.1961
  144MOL0     H18984   3.855  11.293  10.404 -0.6078  0.2118 -0.2778
  144MOL0     H18985   3.860  11.301  10.226 -0.8610  0.5231  0.0653
  144MOL0     H18986   4.062  11.144  10.241  3.6941 -1.1196  1.5399
  144MOL0     H18987   4.074  11.317  10.284 -0.1445 -0.0330  0.9186
  144MOL0     H18988   4.190  11.154  10.449  0.7072  1.8913 -0.8883
  144MOL0     H18989   4.042  11.054  10.460  0.5269  0.0749 -0.0316
  144MOL0     H18990   3.172  10.894  10.127  0.4011  2.7920 -0.5597
  144MOL0     H18991   2.944  10.843  10.100 -1.8721  1.0428  1.0417
  144MOL0     H18992   2.445  11.067  10.278 -0.5048 -0.3756  0.1688
  144MOL0     H18993   2.190  10.968  10.254 -1.5528 -1.1161  1.4746
  144MOL0     H18994   1.835  10.693   8.889 -0.6280  1.8485 -0.6823
  144MOL0     H18995   1.946  10.466   8.912 -2.9107 -0.6265 -1.8541
  144MOL0     H18996   2.543  10.242   8.829 -0.3546  0.7571  1.1670
  144MOL0     H18997   2.583  10.025   8.861  1.3867  0.8402 -1.8286
  144MOL0     H18998   2.283   9.716   8.735 -0.4082 -1.3308 -0.6880
  144MOL0     H18999   2.387   9.626   8.843  0.7940 -0.0694 -0.9850
  144MOL0     H19000   2.410   9.558   8.609  0.5761 -0.5259  1.1960
  144MOL0     H19001   2.500   9.711   8.574  0.9023 -0.3833  0.1883
  144MOL0     H19002   2.564   9.490   8.778 -1.3245  0.6877  0.6864
  144MOL0     H19003   2.668   9.630   8.738  2.4554 -2.3380 -0.0820
  144MOL0     H19004   2.610   9.456   8.516 -0.1575  1.4715  0.0383
  144MOL0     H19005   2.739   9.555   8.545 -0.2353 -1.3117 -1.8932
  144MOL0     H19006   2.866   9.174   8.717  0.1707 -0.1379 -0.6480
  144MOL0     H19007   2.175   9.911   8.779  2.0650 -1.7275 -1.7061
  144MOL0     H19008   2.119  10.126   8.770 -1.2694 -2.8712  0.6676
  145MOL0     O19009   9.619  11.361   1.223  0.2311  0.3349 -0.0423
  145MOL0     C19010   9.510  11.377   1.280  0.5776  0.3422  0.1102
  145MOL0     O19011   9.475  11.477   1.372 -0.1758 -0.4351  0.0350
  145MOL0     C19012   9.569  11.569   1.418 -0.2054 -0.0673  0.4680
  145MOL0     C19013   9.695  11.530   1.447 -0.7733 -0.5788  0.3317
  145MOL0     C19014   9.782  11.629   1.490 -0.3930 -0.7239  0.0711
  145MOL0     C19015   9.737  11.757   1.511 -0.1326 -1.0309  0.7759
  145MOL0     O19016   9.835  11.852   1.545 -0.6940 -0.2854 -0.0042
  145MOL0     C19017   9.818  11.992   1.543  0.4883 -0.9729 -0.0600
  145MOL0     C19018   9.958  12.054   1.547  0.7321 -0.2348  0.2019
  145MOL0     C19019  10.022  12.086   1.406  0.3782 -0.1308 -0.3533
  145MOL0     C19020  10.160  12.141   1.416  0.5629  0.7560 -0.2121
  145MOL0     C19021  10.211  12.180   1.275  0.2392 -0.9984 -0.0848
  145MOL0     C19022  10.344  12.260   1.272 -0.1635  0.3974 -0.4675
  145MOL0     C19023  10.332  12.403   1.311 -0.4305 -0.3826 -0.7849
  145MOL0     C19024  10.457  12.488   1.276  0.0269 -0.5313 -0.8314
  145MOL0     N19025  10.577  12.443   1.354  0.6202 -0.7674  0.5364
  145MOL0     C19026  10.695  12.388   1.303 -0.0848  0.2783  0.7432
  145MOL0     C19027  10.753  12.341   1.411  0.4163 -0.1752 -0.4205
  145MOL0     C19028  10.882  12.265   1.426  0.4613  0.4634  0.8766
  145MOL0     C19029  10.913  12.211   1.568  0.7467 -0.3968  0.4011
  145MOL0     C19030  11.063  12.168   1.602  0.0960  0.6818 -0.1943
  145MOL0     C19031  11.110  12.039   1.532  0.1940 -0.2506  0.0268
  145MOL0     O19032  11.245  12.007   1.576 -0.0925  0.7711  0.0905
  145MOL0     C19033  11.278  11.878   1.551 -0.4481  0.8986 -0.0097
  145MOL0     C19034  11.395  11.837   1.613  0.1243  1.2254  0.3493
  145MOL0     C19035  11.452  11.707   1.603 -0.5690  0.4534 -0.2858
  145MOL0     C19036  11.386  11.615   1.524 -0.1640  0.4644  0.6260
  145MOL0     C19037  11.432  11.477   1.517 -0.3987  0.4647 -0.0668
  145MOL0     O19038  11.343  11.386   1.461  0.1985 -0.1938  0.0112
  145MOL0     C19039  11.369  11.254   1.447 -0.4574 -0.5191  0.0135
  145MOL0     C19040  11.314  11.197   1.335  0.5578  1.0773 -1.5565
  145MOL0     C19041  11.323  11.062   1.311 -0.1410 -0.5135  0.2388
  145MOL0     C19042  11.389  10.983   1.395 -0.2007 -0.2803 -0.6096
  145MOL0     O19043  11.382  10.855   1.354 -0.3555 -0.3056 -0.0012
  145MOL0     C19044  11.458  10.777   1.448 -0.0857  0.2473  0.4996
  145MOL0     C19045  11.495  10.644   1.389 -0.0729  0.4767 -1.1253
  145MOL0     C19046  11.441  10.521   1.470 -0.5219 -1.0997  0.7876
  145MOL0     C19047  11.448  10.395   1.379  0.5049  0.7933  0.4536
  145MOL0     C19048  11.379  10.281   1.445 -0.1273  0.4014 -0.3189
  145MOL0     C19049  11.404  10.143   1.381  0.4022  0.6191 -0.6416
  145MOL0     C19050  11.550  10.096   1.384 -0.6005  0.2549 -1.0257
  145MOL0     C19051  11.568   9.972   1.295  0.5991 -0.0998  0.1639
  145MOL0    Cl19052  11.509   9.822   1.376  0.0983  0.2934 -0.2006
  145MOL0     C19053  11.453  11.038   1.511  0.7173  0.1883  0.0543
  145MOL0     C19054  11.429  11.175   1.542  0.1854  0.5300  0.8305
  145MOL0     O19055  11.540  11.445   1.562  0.0966  0.2857 -0.0608
  145MOL0     C19056  11.270  11.653   1.449 -0.2484  0.3178  0.9278
  145MOL0     C19057  11.222  11.785   1.460 -0.2663 -0.0758 -0.1667
  145MOL0     N19058  10.683  12.367   1.523 -0.2780 -0.5316 -0.2586
  145MOL0     N19059  10.588  12.440   1.486  0.9007 -0.2887  0.3394
  145MOL0     C19060   9.602  11.788   1.511  0.5566  0.1692 -0.8802
  145MOL0     C19061   9.518  11.693   1.459 -0.2595 -0.0673 -0.3947
  145MOL0     C19062   9.401  11.294   1.221 -1.2049  1.1231 -0.2193
  145MOL0     C19063   9.394  11.151   1.226 -0.6191  0.2896  0.5125
  145MOL0     C19064   9.292  11.081   1.170 -0.4515 -0.9984  0.4314
  145MOL0     C19065   9.180  11.139   1.112  0.4007 -0.1863 -0.0692
  145MOL0     O19066   9.071  11.062   1.067 -1.0765  0.3638 -0.6663
  145MOL0     C19067   8.976  11.113   0.970 -0.4250  0.2983 -0.6817
  145MOL0     C19068   8.873  11.005   0.934 -0.2077 -0.0728 -0.0686
  145MOL0     C19069   8.745  11.011   1.023 -0.4200  0.2296 -0.5984
  145MOL0     C19070   8.636  10.933   0.958  0.0872 -0.0607  0.7679
  145MOL0     C19071   8.531  10.910   1.056  0.7042  0.0332  0.3008
  145MOL0     C19072   8.456  10.890   1.153  0.2922  0.1339 -0.0718
  145MOL0     C19073   9.185  11.280   1.099 -0.0224  0.4269  0.0711
  145MOL0     C19074   9.288  11.354   1.152 -0.0848 -0.0489 -0.9599
  145MOL0     H19075   9.725  11.428   1.426  0.9315  0.1135 -0.8380
  145MOL0     H19076   9.888  11.612   1.507  0.3831  1.1320 -2.3431
  145MOL0     H19077   9.752  12.019   1.626  0.8682  0.3400 -0.1610
  145MOL0     H19078   9.769  12.039   1.457  1.7895 -1.3199 -1.0263
  145MOL0     H19079  10.021  11.989   1.608 -0.0054 -1.4226 -0.2797
  145MOL0     H19080   9.946  12.143   1.610  0.7625  0.6275 -0.9735
  145MOL0     H19081   9.957  12.165   1.366 -0.4622 -0.0797  1.0467
  145MOL0     H19082  10.019  11.996   1.344  0.1351 -0.1072 -0.3748
  145MOL0     H19083  10.152  12.229   1.481  0.1572 -1.3504  2.7699
  145MOL0     H19084  10.216  12.066   1.472 -0.7097  0.0073  0.0766
  145MOL0     H19085  10.143  12.236   1.209  2.1640  0.2699 -1.0766
  145MOL0     H19086  10.234  12.084   1.228  1.5376 -0.8394  0.1900
  145MOL0     H19087  10.381  12.251   1.169 -0.3314  0.0635 -0.4977
  145MOL0     H19088  10.410  12.204   1.339  1.3085  1.4361 -0.9813
  145MOL0     H19089  10.253  12.445   1.248  1.3503  1.1340 -2.1426
  145MOL0     H19090  10.295  12.409   1.414 -1.2896  2.1385 -1.1649
  145MOL0     H19091  10.424  12.589   1.306  0.7515  0.0347 -1.8810
  145MOL0     H19092  10.485  12.493   1.171  0.7808 -0.6814 -0.6439
  145MOL0     H19093  10.724  12.377   1.199 -2.5996 -1.5348  0.1296
  145MOL0     H19094  10.955  12.342   1.398 -0.0651  0.9008  0.6992
  145MOL0     H19095  10.895  12.182   1.355  2.8068 -0.9759  2.7963
  145MOL0     H19096  10.844  12.128   1.589  1.6302 -0.6681  2.4932
  145MOL0     H19097  10.892  12.293   1.637  0.1159  0.6771 -1.0217
  145MOL0     H19098  11.129  12.244   1.560  0.3338 -1.4159 -4.1237
  145MOL0     H19099  11.071  12.171   1.711  1.6006  0.1152 -0.2487
  145MOL0     H19100  11.099  12.051   1.424 -0.7578  2.4827  0.3459
  145MOL0     H19101  11.044  11.958   1.563  2.8651 -2.3686  0.5513
  145MOL0     H19102  11.459  11.908   1.665  2.8328 -0.2547 -0.7471
  145MOL0     H19103  11.547  11.688   1.651  0.1809  0.3130 -1.7546
  145MOL0     H19104  11.250  11.253   1.268 -0.6312 -0.7190 -1.9994
  145MOL0     H19105  11.267  11.025   1.227  0.3201  1.4192 -0.9880
  145MOL0     H19106  11.397  10.778   1.538  0.2771  2.6734  0.8041
  145MOL0     H19107  11.557  10.818   1.471  0.8310 -0.9318 -1.1176
  145MOL0     H19108  11.603  10.637   1.372  0.2755  0.0095  1.0358
  145MOL0     H19109  11.456  10.637   1.287 -1.8433  0.3756 -0.4825
  145MOL0     H19110  11.341  10.539   1.511  0.2249 -0.2525  2.3011
  145MOL0     H19111  11.504  10.509   1.558  1.9009  2.2650 -0.2766
  145MOL0     H19112  11.407  10.401   1.278 -2.0236 -3.2158  1.0065
  145MOL0     H19113  11.554  10.376   1.358  0.5056 -0.3945  1.4024
  145MOL0     H19114  11.273  10.306   1.458 -0.0284  1.0527 -0.7656
  145MOL0     H19115  11.421  10.272   1.546 -0.8116  1.8390  0.1286
  145MOL0     H19116  11.362  10.154   1.280  0.0710 -0.4890 -0.6324
  145MOL0     H19117  11.345  10.070   1.438 -0.7683  2.7752  1.0887
  145MOL0     H19118  11.619  10.176   1.357  1.3726 -0.2136  2.2027
  145MOL0     H19119  11.570  10.075   1.489 -1.3764 -0.6620 -1.0477
  145MOL0     H19120  11.671   9.952   1.263  0.3295 -1.2723 -0.0272
  145MOL0     H19121  11.513   9.976   1.201  3.0003 -1.1197 -1.3866
  145MOL0     H19122  11.492  10.982   1.595 -1.7228  0.2502  1.3459
  145MOL0     H19123  11.466  11.219   1.634  0.3156  1.5857  0.2881
  145MOL0     H19124  11.222  11.578   1.387  0.1904 -2.0643  3.2884
  145MOL0     H19125  11.130  11.815   1.410  0.3975  3.3493  0.4677
  145MOL0     H19126   9.566  11.890   1.523 -0.9965 -0.0670 -3.0118
  145MOL0     H19127   9.417  11.730   1.445 -0.0611 -0.0044 -1.8267
  145MOL0     H19128   9.461  11.080   1.273  0.4369  0.9339  0.0250
  145MOL0     H19129   9.309  10.974   1.167  0.0271 -0.9761 -3.8108
  145MOL0     H19130   9.034  11.137   0.881  3.2439  0.4643  1.5450
  145MOL0     H19131   8.919  11.194   1.016 -3.6969 -2.4608  0.6159
  145MOL0     H19132   8.843  11.024   0.831 -2.9069  2.4369  1.0492
  145MOL0     H19133   8.917  10.905   0.943 -0.8024 -0.3396 -0.0846
  145MOL0     H19134   8.704  11.112   1.029  2.6480  1.5517 -0.0154
  145MOL0     H19135   8.764  10.973   1.124 -3.7154 -1.1438 -0.3708
  145MOL0     H19136   8.610  10.991   0.869 -0.4549  0.8366  1.4902
  145MOL0     H19137   8.673  10.834   0.929 -0.3061 -0.3199  1.1317
  145MOL0     H19138   8.401  10.867   1.242  0.1874 -0.4554 -0.2813
  145MOL0     H19139   9.109  11.334   1.042 -2.1460 -0.1476  2.2063
  145MOL0     H19140   9.284  11.459   1.127 -1.6135  0.2864  0.4862
  146MOL0     O19141   3.838   4.961   0.940 -0.6076  0.3999 -0.1202
  146MOL0     C19142   3.841   4.978   0.816  0.2758  0.6713  0.9106
  146MOL0     O19143   3.732   4.969   0.731 -0.3409  0.3159 -0.1032
  146MOL0     C19144   3.607   4.970   0.788 -0.9448 -0.3436 -0.6342
  146MOL0     C19145   3.577   5.057   0.898 -0.1199 -0.1665 -0.8407
  146MOL0     C19146   3.463   5.037   0.971 -0.6700  0.6654 -0.4142
  146MOL0     C19147   3.369   4.939   0.941  0.6388  0.6438 -0.1354
  146MOL0     O19148   3.271   4.910   1.037  0.5949  1.4247  0.6139
  146MOL0     C19149   3.143   4.958   0.990 -0.0380  0.7232 -0.1058
  146MOL0     C19150   3.044   4.846   0.983  0.7959 -0.0770  0.6765
  146MOL0     C19151   2.909   4.875   0.917 -0.0756 -1.5943  0.0831
  146MOL0     C19152   2.810   4.757   0.919 -0.2842  0.1876  0.1110
  146MOL0     C19153   2.669   4.805   0.890 -0.7713 -0.1890 -0.1079
  146MOL0     C19154   2.569   4.692   0.877 -0.8385 -0.4289 -0.3504
  146MOL0     C19155   2.513   4.654   1.013 -0.2286  0.2970 -0.7846
  146MOL0     C19156   2.405   4.755   1.068 -0.4099  0.9248  1.2608
  146MOL0     N19157   2.287   4.758   0.970 -0.1679  0.5806 -0.0803
  146MOL0     C19158   2.179   4.665   0.960 -0.5419  0.8127 -1.3358
  146MOL0     C19159   2.089   4.729   0.875  0.7533  0.9688 -0.8741
  146MOL0     C19160   1.950   4.691   0.847  1.1588 -0.5647  0.3391
  146MOL0     C19161   1.849   4.804   0.908 -0.9922 -0.9979 -0.0728
  146MOL0     C19162   1.869   4.953   0.857 -0.7557  0.2073  0.8761
  146MOL0     C19163   1.737   5.027   0.888  0.4503 -0.0378  0.1283
  146MOL0     O19164   1.637   4.980   0.791  0.2671 -0.2367 -0.2084
  146MOL0     C19165   1.529   5.056   0.763  0.2541  0.3421  0.0509
  146MOL0     C19166   1.475   5.133   0.868  0.9326 -0.4942  0.1268
  146MOL0     C19167   1.375   5.219   0.839 -0.7928  0.5738 -0.5828
  146MOL0     C19168   1.322   5.220   0.713  0.5301 -0.3546  0.2316
  146MOL0     C19169   1.202   5.300   0.690  0.6519  0.4263 -0.1710
  146MOL0     O19170   1.154   5.378   0.793  0.3747  0.0333 -0.3593
  146MOL0     C19171   1.052   5.460   0.766  0.7391  0.5571 -0.3599
  146MOL0     C19172   0.939   5.423   0.695  0.5699 -0.6017  0.0919
  146MOL0     C19173   0.828   5.501   0.673  0.1976  0.2442  0.1677
  146MOL0     C19174   0.842   5.641   0.707  0.0207  0.8241  0.0437
  146MOL0     O19175   0.749   5.735   0.674 -0.1243 -0.3605  0.0846
  146MOL0     C19176   0.651   5.713   0.580 -0.4235 -0.5095  0.0255
  146MOL0     C19177   0.587   5.832   0.518  0.2081  0.3449  0.5216
  146MOL0     C19178   0.541   5.806   0.373 -0.1901  0.4187  0.5563
  146MOL0     C19179   0.463   5.678   0.357  0.1924 -0.4488 -0.3597
  146MOL0     C19180   0.454   5.643   0.204 -0.6634  1.1155  0.1003
  146MOL0     C19181   0.406   5.752   0.110  0.7448  0.4861  0.5821
  146MOL0     C19182   0.259   5.782   0.134 -0.5028  0.2517  1.4854
  146MOL0     C19183   0.158   5.724   0.040  0.5772  0.2338  0.7865
  146MOL0    Cl19184   0.165   5.547   0.018  0.2684  0.4033 -0.0148
  146MOL0     C19185   0.958   5.684   0.766  0.1752  0.5392 -0.8566
  146MOL0     C19186   1.045   5.592   0.809 -0.3410 -0.1577 -0.5466
  146MOL0     O19187   1.163   5.307   0.571 -0.6550 -0.2789 -0.3111
  146MOL0     C19188   1.363   5.137   0.615 -0.5416 -0.2065 -0.5367
  146MOL0     C19189   1.469   5.050   0.636 -0.2135  1.2495  0.2711
  146MOL0     N19190   2.143   4.845   0.834 -0.7578 -0.3946  0.0189
  146MOL0     N19191   2.260   4.863   0.890 -0.0560  0.5409  0.5502
  146MOL0     C19192   3.394   4.856   0.833  0.5385 -0.5081  0.7947
  146MOL0     C19193   3.509   4.870   0.751  0.5396  0.3121 -0.1618
  146MOL0     C19194   3.966   5.007   0.750  0.2132 -0.2729 -0.5630
  146MOL0     C19195   4.087   5.017   0.824  0.1302  0.1750  0.7659
  146MOL0     C19196   4.207   5.046   0.757  0.3697  0.4055 -1.2031
  146MOL0     C19197   4.212   5.064   0.620  0.1509  0.0462 -0.9997
  146MOL0     O19198   4.322   5.107   0.563  0.7588  0.1979 -0.3213
  146MOL0     C19199   4.447   5.097   0.621 -0.2208 -1.3597 -0.9184
  146MOL0     C19200   4.550   5.134   0.526 -1.0010 -0.7245  0.0355
  146MOL0     C19201   4.546   5.277   0.476 -0.7274  0.1515  0.2795
  146MOL0     C19202   4.549   5.289   0.324  0.6111 -0.0728 -0.0906
  146MOL0     C19203   4.671   5.235   0.278 -0.7067 -0.1683  0.2351
  146MOL0     C19204   4.771   5.177   0.235  1.1950 -0.3316  0.3590
  146MOL0     C19205   4.096   5.061   0.555 -0.1721 -0.1684 -0.0450
  146MOL0     C19206   3.968   5.027   0.606 -0.7177  0.4343 -0.2083
  146MOL0     H19207   3.646   5.133   0.933  0.4889 -0.2799 -1.7538
  146MOL0     H19208   3.438   5.110   1.047 -1.6979  1.9027 -1.8888
  146MOL0     H19209   3.148   4.996   0.888  1.0200 -0.5770 -0.5609
  146MOL0     H19210   3.118   5.041   1.057  2.2610  0.7126  0.8728
  146MOL0     H19211   3.038   4.801   1.083  0.7536 -2.7982 -0.4539
  146MOL0     H19212   3.081   4.780   0.904 -0.6596  0.3067 -0.3769
  146MOL0     H19213   2.921   4.913   0.815 -1.1462  2.3837  1.2559
  146MOL0     H19214   2.862   4.956   0.975 -1.4777 -2.8160  0.7178
  146MOL0     H19215   2.842   4.673   0.857  0.7866  0.2196  0.6054
  146MOL0     H19216   2.814   4.700   1.013 -0.5139  1.2754  0.7927
  146MOL0     H19217   2.672   4.863   0.797  0.4759 -0.5971 -0.3552
  146MOL0     H19218   2.645   4.867   0.976  1.0933 -1.2739  1.2756
  146MOL0     H19219   2.615   4.601   0.838  1.9695  1.2274 -1.1413
  146MOL0     H19220   2.479   4.719   0.821 -0.2055  1.4439 -0.5125
  146MOL0     H19221   2.465   4.556   1.006 -1.6118  0.8747  0.2830
  146MOL0     H19222   2.595   4.652   1.086  1.1676  0.6436 -2.2851
  146MOL0     H19223   2.447   4.856   1.073  3.0178  0.0099 -3.1844
  146MOL0     H19224   2.387   4.711   1.167  0.8583  0.4630  1.3060
  146MOL0     H19225   2.165   4.575   1.019  0.8382  1.9310  0.8511
  146MOL0     H19226   1.916   4.591   0.874 -0.5496  0.5870  2.8196
  146MOL0     H19227   1.933   4.699   0.739 -0.8346  2.2536  0.7358
  146MOL0     H19228   1.866   4.811   1.016  0.5706  0.3005 -0.3719
  146MOL0     H19229   1.747   4.767   0.891 -0.4317 -1.8520 -1.7577
  146MOL0     H19230   1.955   4.997   0.907  1.1207 -1.2228 -0.9125
  146MOL0     H19231   1.895   4.952   0.750 -1.5918  2.0158  0.5979
  146MOL0     H19232   1.755   5.135   0.882 -0.0580  0.1599  1.7641
  146MOL0     H19233   1.695   5.011   0.987 -2.5110  1.3498 -0.7880
  146MOL0     H19234   1.527   5.145   0.962  2.1344 -0.9342 -0.4547
  146MOL0     H19235   1.333   5.281   0.918  0.6462 -0.4377  1.0609
  146MOL0     H19236   0.939   5.319   0.664  2.5176 -0.2915 -1.0712
  146MOL0     H19237   0.729   5.468   0.641  0.0337 -0.7427  1.6117
  146MOL0     H19238   0.565   5.658   0.618  0.8039 -2.3962  0.1843
  146MOL0     H19239   0.689   5.651   0.499  1.5320 -1.0557  1.2921
  146MOL0     H19240   0.661   5.912   0.508  1.3481 -0.9712 -2.7044
  146MOL0     H19241   0.505   5.862   0.584 -0.5021 -0.9424  0.2643
  146MOL0     H19242   0.631   5.777   0.317 -0.2706 -1.3933  1.3114
  146MOL0     H19243   0.483   5.892   0.339  0.4065  1.0633  1.1235
  146MOL0     H19244   0.522   5.595   0.398  2.4210  1.6208  0.8837
  146MOL0     H19245   0.362   5.673   0.400 -0.3599 -0.4770 -1.6078
  146MOL0     H19246   0.393   5.552   0.206  0.0834  0.6161  1.0941
  146MOL0     H19247   0.551   5.607   0.169 -1.7681 -0.1038 -1.9405
  146MOL0     H19248   0.423   5.714   0.009 -3.0270 -0.6937  0.2548
  146MOL0     H19249   0.461   5.846   0.113  2.7024 -0.5560  4.8218
  146MOL0     H19250   0.227   5.765   0.238 -4.1145  1.1487  0.6720
  146MOL0     H19251   0.252   5.890   0.124  3.3732  0.4465 -2.1370
  146MOL0     H19252   0.157   5.779  -0.054 -1.1984  0.6460  1.0152
  146MOL0     H19253   0.061   5.737   0.090 -0.5438 -1.6388 -0.7311
  146MOL0     H19254   0.974   5.788   0.793 -0.4583  0.8478 -1.6048
  146MOL0     H19255   1.124   5.630   0.873 -0.3471  0.0647 -0.6718
  146MOL0     H19256   1.313   5.142   0.518  0.4844  1.0415 -1.0246
  146MOL0     H19257   1.518   4.987   0.562 -1.2359  0.3726  0.3190
  146MOL0     H19258   3.317   4.784   0.806 -0.0954 -0.2023  1.7369
  146MOL0     H19259   3.542   4.802   0.673  4.3845 -3.2209  3.9545
  146MOL0     H19260   4.089   5.012   0.932 -4.2643 -0.1297  0.9972
  146MOL0     H19261   4.301   5.063   0.809  0.3043  0.5155 -1.1169
  146MOL0     H19262   4.464   4.992   0.650 -2.2436 -1.3745  0.3771
  146MOL0     H19263   4.465   5.161   0.707 -1.4769 -2.6088  0.3219
  146MOL0     H19264   4.650   5.128   0.571 -0.9613 -4.3389 -0.2398
  146MOL0     H19265   4.543   5.064   0.442 -2.5806  1.4285 -1.7369
  146MOL0     H19266   4.638   5.324   0.511 -1.0249  0.4317  0.6863
  146MOL0     H19267   4.469   5.337   0.524 -0.3280 -0.4587  1.7253
  146MOL0     H19268   4.467   5.228   0.284  1.0446 -2.2485  2.1397
  146MOL0     H19269   4.540   5.391   0.286  0.2598  0.4764  1.3962
  146MOL0     H19270   4.862   5.125   0.215  0.7005 -1.5360  1.1418
  146MOL0     H19271   4.094   5.089   0.450  0.2576  0.2382  0.0502
  146MOL0     H19272   3.877   5.019   0.546 -0.8315 -1.9248  0.2026
  147MOL0     O19273  10.452  10.745   0.481 -1.0218 -0.5698  0.0303
  147MOL0     C19274  10.459  10.695   0.364  0.6661 -0.1803 -0.5031
  147MOL0     O19275  10.361  10.634   0.292  0.3758 -0.1840 -0.3200
  147MOL0     C19276  10.230  10.638   0.318  0.2912  0.1088  0.2382
  147MOL0     C19277  10.151  10.560   0.232  0.1388 -0.2746  0.3292
  147MOL0     C19278  10.010  10.552   0.258  0.3565  0.8453  0.4394
  147MOL0     C19279   9.950  10.635   0.357 -0.2761  0.0099 -0.3797
  147MOL0     O19280   9.821  10.634   0.389  1.0541  0.5201 -0.2354
  147MOL0     C19281   9.729  10.583   0.293  0.6626 -0.4520  1.0577
  147MOL0     C19282   9.704  10.665   0.168 -0.6656 -0.5623 -1.2290
  147MOL0     C19283   9.596  10.617   0.079  1.5106 -0.7522  0.3539
  147MOL0     C19284   9.458  10.659   0.157 -0.2991  0.0930 -0.2176
  147MOL0     C19285   9.335  10.655   0.065 -0.5850  0.5676 -0.8613
  147MOL0     C19286   9.303  10.518   0.011  0.6544 -0.7928  0.0197
  147MOL0     C19287   9.296  10.400   0.118  0.2146 -0.3317 -0.2094
  147MOL0     C19288   9.188  10.413   0.224  0.0260 -0.1526  0.2252
  147MOL0     N19289   9.056  10.387   0.165 -0.5962 -0.9241  0.2576
  147MOL0     C19290   8.961  10.491   0.153  0.0203 -0.3863  0.5362
  147MOL0     C19291   8.858  10.427   0.097  0.5936 -0.3717  0.4658
  147MOL0     C19292   8.732  10.505   0.054 -0.5203  0.7927  0.2405
  147MOL0     C19293   8.603  10.489   0.145 -0.0845 -0.5406  0.6363
  147MOL0     C19294   8.520  10.362   0.107 -0.3006 -1.0175  0.3093
  147MOL0     C19295   8.396  10.338   0.180 -0.2854  0.0087 -0.3223
  147MOL0     O19296   8.414  10.323   0.323  0.2452 -0.5055  0.5565
  147MOL0     C19297   8.305  10.334   0.410 -0.1496  0.2814  0.4267
  147MOL0     C19298   8.171  10.332   0.365 -0.8675 -0.3734 -0.2776
  147MOL0     C19299   8.071  10.320   0.460  0.8675 -0.2329 -0.3075
  147MOL0     C19300   8.093  10.313   0.598  1.2206  0.7991  0.6977
  147MOL0     C19301   7.984  10.266   0.689 -0.4278 -0.2692 -0.4997
  147MOL0     O19302   7.854  10.282   0.649 -0.4129  0.9713 -0.4897
  147MOL0     C19303   7.760  10.234   0.737 -0.3577 -0.7175 -0.6180
  147MOL0     C19304   7.642  10.307   0.773  1.0234 -0.0681  0.7807
  147MOL0     C19305   7.543  10.261   0.863 -0.3527 -1.1140 -0.3568
  147MOL0     C19306   7.560  10.143   0.930 -0.2544  0.0037 -0.3182
  147MOL0     O19307   7.473  10.070   1.011 -0.7967 -0.5000 -0.6035
  147MOL0     C19308   7.339  10.107   1.004 -0.2376 -1.8306  0.4679
  147MOL0     C19309   7.290  10.212   1.096 -0.1026  0.0892 -0.5095
  147MOL0     C19310   7.143  10.235   1.072  0.2800  0.8847  0.2357
  147MOL0     C19311   7.051  10.118   1.108  0.5621 -0.9638  0.7313
  147MOL0     C19312   6.910  10.172   1.077 -0.1629  0.0659  0.0225
  147MOL0     C19313   6.791  10.102   1.145 -0.4929 -0.0647  0.3221
  147MOL0     C19314   6.658  10.152   1.104  0.7324 -0.4098  0.7476
  147MOL0     C19315   6.609  10.292   1.138 -0.2100  0.4565  0.2788
  147MOL0    Cl19316   6.441  10.305   1.089 -0.2822 -0.6979  0.0819
  147MOL0     C19317   7.677  10.075   0.910  0.0507  1.1280 -0.1787
  147MOL0     C19318   7.767  10.114   0.813  0.4362 -0.8481  1.0887
  147MOL0     O19319   8.019  10.224   0.800  0.7443 -0.0455 -0.2044
  147MOL0     C19320   8.226  10.318   0.644 -0.0018  0.2712  0.2848
  147MOL0     C19321   8.332  10.343   0.552 -0.0017  0.1493 -0.7686
  147MOL0     N19322   8.885  10.291   0.069 -0.4753  0.1678  0.2831
  147MOL0     N19323   9.006  10.275   0.118 -0.0665  0.1866  0.3107
  147MOL0     C19324  10.034  10.712   0.433 -0.4200  0.5178  0.6783
  147MOL0     C19325  10.170  10.717   0.404 -0.5871  0.1127 -0.5714
  147MOL0     C19326  10.594  10.705   0.311  0.9299  0.1562 -0.3386
  147MOL0     C19327  10.705  10.736   0.382  0.2824 -0.0981 -0.6195
  147MOL0     C19328  10.830  10.753   0.327  0.6033  0.6238 -0.5191
  147MOL0     C19329  10.848  10.739   0.191  0.1730  0.2264 -0.6212
  147MOL0     O19330  10.968  10.760   0.125  0.0182 -0.8323  0.3695
  147MOL0     C19331  11.078  10.820   0.192 -0.0541 -0.0182  0.6141
  147MOL0     C19332  11.155  10.720   0.271  0.6856  0.1280 -0.3203
  147MOL0     C19333  11.247  10.803   0.353 -0.0286 -0.0579  0.3095
  147MOL0     C19334  11.391  10.775   0.331  0.6785  0.4346  0.0054
  147MOL0     C19335  11.479  10.891   0.329 -0.3821  0.4086 -0.2993
  147MOL0     C19336  11.558  10.982   0.300 -0.0821 -0.5615 -0.2816
  147MOL0     C19337  10.735  10.702   0.115  0.1276 -0.9058 -0.1748
  147MOL0     C19338  10.609  10.690   0.174  0.0710  1.1150  0.1052
  147MOL0     H19339  10.193  10.499   0.153  0.9250 -0.7073  1.0645
  147MOL0     H19340   9.960  10.468   0.211  0.6970  0.2896  1.0565
  147MOL0     H19341   9.636  10.574   0.350 -1.0767 -0.6397 -1.6141
  147MOL0     H19342   9.753  10.477   0.275  0.4676 -0.7140  2.2490
  147MOL0     H19343   9.800  10.645   0.120  0.1990 -0.5016  0.4029
  147MOL0     H19344   9.696  10.766   0.209 -2.3937 -1.5708  1.1422
  147MOL0     H19345   9.609  10.508   0.082  0.4694 -0.9732 -1.6632
  147MOL0     H19346   9.606  10.657  -0.022 -1.5571 -2.0674 -0.5850
  147MOL0     H19347   9.449  10.595   0.245 -0.9043  0.9064  0.3185
  147MOL0     H19348   9.473  10.763   0.187  1.4796 -0.3302  0.5465
  147MOL0     H19349   9.357  10.717  -0.023 -2.3925  1.5493 -0.6836
  147MOL0     H19350   9.248  10.702   0.114 -1.4746 -2.1378  0.3310
  147MOL0     H19351   9.375  10.485  -0.065  1.3967 -1.7959  1.1286
  147MOL0     H19352   9.205  10.536  -0.035  0.2553  0.6546  1.3332
  147MOL0     H19353   9.300  10.304   0.064  2.7120 -0.8186  0.6899
  147MOL0     H19354   9.389  10.406   0.174 -1.6745 -1.6968  3.3425
  147MOL0     H19355   9.191  10.510   0.274 -1.0019  0.1957 -0.3388
  147MOL0     H19356   9.216  10.337   0.297  2.9269  0.0668 -0.5709
  147MOL0     H19357   8.956  10.597   0.174 -1.6989 -0.3229 -0.0173
  147MOL0     H19358   8.717  10.471  -0.049 -1.0407 -2.2812  1.2370
  147MOL0     H19359   8.749  10.613   0.060  2.9764  0.3127  0.7409
  147MOL0     H19360   8.540  10.578   0.135 -0.1592 -0.6887 -0.4089
  147MOL0     H19361   8.628  10.489   0.251 -0.7468  3.8780  0.9706
  147MOL0     H19362   8.503  10.382   0.001  0.9240  0.8488  0.4072
  147MOL0     H19363   8.582  10.273   0.120  0.7506 -0.2666  0.5493
  147MOL0     H19364   8.339  10.249   0.154 -0.5111 -0.8260  2.6955
  147MOL0     H19365   8.340  10.431   0.163 -0.1685 -0.0727 -1.2396
  147MOL0     H19366   8.146  10.323   0.259 -1.3956  0.8241 -0.2725
  147MOL0     H19367   7.967  10.315   0.428  0.5838 -2.8990  0.7540
  147MOL0     H19368   7.637  10.399   0.714 -1.0236 -0.7607 -0.2447
  147MOL0     H19369   7.451  10.312   0.887  2.0049  3.1223  0.5338
  147MOL0     H19370   7.297  10.006   1.016 -3.0321 -1.0707 -1.7379
  147MOL0     H19371   7.316  10.145   0.904  1.3593  1.7528  1.3311
  147MOL0     H19372   7.358  10.296   1.081 -0.6122  1.1072  2.1978
  147MOL0     H19373   7.308  10.165   1.193 -0.4528 -0.5928 -0.7702
  147MOL0     H19374   7.120  10.265   0.969 -1.4769 -0.1520  0.2966
  147MOL0     H19375   7.115  10.313   1.143 -2.0764 -0.9378  1.4170
  147MOL0     H19376   7.065  10.029   1.047 -1.3183  0.9046 -2.7396
  147MOL0     H19377   7.060  10.089   1.213  1.3640 -1.3321  0.5698
  147MOL0     H19378   6.898  10.165   0.968  1.4083 -0.4641 -0.1401
  147MOL0     H19379   6.900  10.276   1.108 -0.4083  0.7164 -2.0388
  147MOL0     H19380   6.796  10.117   1.254  0.0493  1.0053  0.1621
  147MOL0     H19381   6.789   9.995   1.122 -3.6213 -0.2696  1.1315
  147MOL0     H19382   6.634  10.145   0.997  0.6115  1.6929  0.5934
  147MOL0     H19383   6.593  10.080   1.155  1.4722 -2.4743 -1.0174
  147MOL0     H19384   6.676  10.356   1.079  2.2094 -2.7246 -0.6967
  147MOL0     H19385   6.633  10.313   1.243  0.7140 -0.6369  0.3036
  147MOL0     H19386   7.697   9.990   0.974  1.6183  1.2549 -0.4707
  147MOL0     H19387   7.849  10.044   0.799 -0.5762 -2.0657  1.0524
  147MOL0     H19388   8.246  10.299   0.749 -1.4601 -0.8203  0.3854
  147MOL0     H19389   8.434  10.347   0.588 -0.4910  2.2930  0.6338
  147MOL0     H19390   9.986  10.762   0.516 -2.6154 -0.3115 -0.0398
  147MOL0     H19391  10.223  10.767   0.484 -2.2013 -0.3175  0.8285
  147MOL0     H19392  10.690  10.742   0.490  0.3494 -0.0628 -0.6124
  147MOL0     H19393  10.903  10.776   0.404 -0.6316  4.9268 -0.3648
  147MOL0     H19394  11.035  10.897   0.257 -0.2480  0.6911 -0.3198
  147MOL0     H19395  11.140  10.879   0.124 -0.1173 -1.2461 -0.5403
  147MOL0     H19396  11.096  10.665   0.345 -1.0997  0.1550 -1.6419
  147MOL0     H19397  11.204  10.635   0.224 -0.7776  0.1862 -2.0470
  147MOL0     H19398  11.232  10.799   0.461  2.6058 -0.3905  0.7168
  147MOL0     H19399  11.243  10.909   0.326  2.5496  0.0263  0.0249
  147MOL0     H19400  11.425  10.707   0.410  2.5228 -0.4635 -1.4812
  147MOL0     H19401  11.409  10.734   0.231 -1.9200  2.1968 -1.3010
  147MOL0     H19402  11.631  11.054   0.271 -1.7231 -0.4843 -5.0860
  147MOL0     H19403  10.758  10.688   0.010 -0.7435 -1.8868 -0.2463
  147MOL0     H19404  10.525  10.673   0.107 -1.1585  0.4369  1.7353
  148MOL0     O19405  10.948   0.069   1.148 -0.3473  0.6102  0.4927
  148MOL0     C19406  10.910   0.066   1.035  0.1547  0.1109 -0.0473
  148MOL0     O19407  10.982   0.010   0.937  0.5718  0.2282 -0.0240
  148MOL0     C19408  11.110  -0.046   0.947  0.3604 -1.5964  0.3850
  148MOL0     C19409  11.206  -0.019   1.049  0.6708  0.0296  0.2677
  148MOL0     C19410  11.330  -0.080   1.039  0.1710  0.0494 -0.3474
  148MOL0     C19411  11.359  -0.159   0.929 -0.4342 -0.5618  0.1800
  148MOL0     O19412  11.485  -0.220   0.928 -0.1007  0.5550  0.1429
  148MOL0     C19413  11.511  -0.301   1.037 -0.2289  0.1970  0.3544
  148MOL0     C19414  11.558  -0.430   0.979 -1.5743 -0.0041 -0.1028
  148MOL0     C19415  11.459  -0.526   0.907  0.9422  0.0171  0.7978
  148MOL0     C19416  11.522  -0.628   0.807 -0.7060 -0.6091 -0.2336
  148MOL0     C19417  11.405  -0.691   0.730  0.5817  0.4393 -0.2001
  148MOL0     C19418  11.450  -0.828   0.670 -0.8376  0.6998 -0.3902
  148MOL0     C19419  11.344  -0.896   0.591  0.1498  0.1529 -0.4709
  148MOL0     C19420  11.227  -0.949   0.680 -0.0445  0.4760 -0.7852
  148MOL0     N19421  11.254  -1.050   0.779  0.2120  1.1719 -0.5932
  148MOL0     C19422  11.256  -1.184   0.744  1.6446 -1.5451  0.2959
  148MOL0     C19423  11.285  -1.246   0.862 -0.0790 -0.4951  0.7568
  148MOL0     C19424  11.312  -1.398   0.876 -1.0906 -0.5231 -0.9755
  148MOL0     C19425  11.211  -1.462   0.969 -0.9777 -0.1995  0.1031
  148MOL0     C19426  11.228  -1.616   0.980  0.6151 -0.8962 -0.2379
  148MOL0     C19427  11.365  -1.665   1.032  0.2431 -0.4517  1.2434
  148MOL0     O19428  11.354  -1.803   1.025  0.1353  0.1249  0.6514
  148MOL0     C19429  11.419  -1.873   1.125 -0.0146  0.1846 -0.6564
  148MOL0     C19430  11.537  -1.835   1.198  0.1196  0.4785 -0.8426
  148MOL0     C19431  11.583  -1.911   1.312  0.1036  0.5874  0.3597
  148MOL0     C19432  11.531  -2.044   1.342 -0.3941  0.0054  0.5932
  148MOL0     C19433  11.601  -2.144   1.436  0.2236 -0.0513 -0.0582
  148MOL0     O19434  11.693  -2.083   1.516  0.0452 -0.0896  0.3817
  148MOL0     C19435  11.736  -2.150   1.627 -1.1471 -0.0529  0.1143
  148MOL0     C19436  11.782  -2.278   1.622 -0.0588  0.1097 -0.7904
  148MOL0     C19437  11.822  -2.342   1.746  0.2623 -0.5539  1.0652
  148MOL0     C19438  11.818  -2.281   1.866 -0.2146 -0.3278 -0.4136
  148MOL0     O19439  11.859  -2.349   1.981  0.6257 -0.1981  0.3193
  148MOL0     C19440  11.799  -2.473   2.013 -0.0225 -0.8323 -0.1106
  148MOL0     C19441  11.769  -2.474   2.166 -0.2427 -0.0371  0.5399
  148MOL0     C19442  11.887  -2.484   2.262 -0.3153  0.2198  0.5268
  148MOL0     C19443  11.841  -2.506   2.406  0.2018 -0.3241 -1.0087
  148MOL0     C19444  11.869  -2.381   2.491  0.9736  0.5261 -0.5688
  148MOL0     C19445  11.854  -2.424   2.643  0.4722 -0.0918  0.2784
  148MOL0     C19446  11.915  -2.341   2.757 -0.3221 -0.7065  0.5229
  148MOL0     C19447  11.829  -2.214   2.789 -0.1145  0.6373  1.3932
  148MOL0    Cl19448  11.924  -2.128   2.911 -0.4254  0.4491  0.1354
  148MOL0     C19449  11.784  -2.147   1.870 -1.1406  0.3264  1.2032
  148MOL0     C19450  11.736  -2.082   1.753  0.7910 -0.1745  0.0894
  148MOL0     O19451  11.569  -2.264   1.439 -0.2627  0.1114 -0.0171
  148MOL0     C19452  11.432  -2.087   1.258  0.0016  0.0793  0.5565
  148MOL0     C19453  11.374  -2.002   1.157  0.2065 -0.2752 -0.6304
  148MOL0     N19454  11.287  -1.152   0.958 -0.1604  0.8418 -0.4949
  148MOL0     N19455  11.283  -1.031   0.908  0.2173  0.3480 -0.0269
  148MOL0     C19456  11.269  -0.187   0.826  0.0804  0.7512  0.2170
  148MOL0     C19457  11.149  -0.113   0.835  0.4409  0.9185  0.5041
  148MOL0     C19458  10.778   0.126   0.999 -0.3512  0.0022  0.4052
  148MOL0     C19459  10.717   0.113   0.867  0.2643 -0.7275  0.9364
  148MOL0     C19460  10.588   0.162   0.845  0.8529 -0.3008 -0.5409
  148MOL0     C19461  10.513   0.220   0.948  0.5393  0.0581 -0.0946
  148MOL0     O19462  10.379   0.244   0.931  0.3818 -0.3550  0.0281
  148MOL0     C19463  10.302   0.228   0.810 -0.0973  0.5069 -0.1601
  148MOL0     C19464  10.268   0.081   0.782  0.0345  0.6812 -1.0685
  148MOL0     C19465  10.180   0.014   0.885 -0.7500  0.5035 -0.5686
  148MOL0     C19466  10.046   0.093   0.915 -0.1480  0.1403 -1.3586
  148MOL0     C19467   9.949   0.093   0.795 -0.7414  0.4136 -0.0206
  148MOL0     C19468   9.862   0.061   0.720 -0.0687  0.4335  0.9076
  148MOL0     C19469  10.568   0.232   1.077 -0.2918  0.4186  1.0587
  148MOL0     C19470  10.699   0.171   1.110 -0.2380  0.2391  0.3509
  148MOL0     H19471  11.186   0.028   1.145  3.2634 -0.6822  1.2285
  148MOL0     H19472  11.412  -0.069   1.109  0.1245  1.0093 -0.4280
  148MOL0     H19473  11.422  -0.326   1.095 -1.2921  1.0825 -0.8398
  148MOL0     H19474  11.580  -0.257   1.109 -0.5061  1.7725 -0.3029
  148MOL0     H19475  11.602  -0.485   1.063 -2.5935 -1.8626 -0.7240
  148MOL0     H19476  11.640  -0.401   0.912 -1.7194 -0.3193 -0.4196
  148MOL0     H19477  11.392  -0.463   0.847  3.4689  0.2537 -2.0474
  148MOL0     H19478  11.410  -0.580   0.988  1.5432  1.4286  2.1454
  148MOL0     H19479  11.590  -0.580   0.735 -0.4677  1.4603  1.2676
  148MOL0     H19480  11.578  -0.707   0.859  0.0655  0.2116  0.2295
  148MOL0     H19481  11.378  -0.620   0.651 -2.0701  0.6175  0.7628
  148MOL0     H19482  11.331  -0.723   0.804 -0.6569 -0.6138 -1.8117
  148MOL0     H19483  11.476  -0.905   0.742 -1.6966  0.9471  0.2088
  148MOL0     H19484  11.535  -0.807   0.604  0.7849  0.7749  1.6207
  148MOL0     H19485  11.304  -0.823   0.521 -0.6048  2.5324  2.2718
  148MOL0     H19486  11.385  -0.987   0.545 -0.5007  0.5613 -1.9141
  148MOL0     H19487  11.148  -1.000   0.624 -1.1149  1.8598 -0.5743
  148MOL0     H19488  11.179  -0.861   0.723 -2.1908  0.9374 -3.8014
  148MOL0     H19489  11.235  -1.243   0.656  1.5920 -3.4898  1.5449
  148MOL0     H19490  11.415  -1.408   0.908  0.0116  4.5266 -2.1629
  148MOL0     H19491  11.302  -1.447   0.778  0.8845 -0.2520 -1.3559
  148MOL0     H19492  11.116  -1.444   0.918 -1.1207  1.1163  0.7827
  148MOL0     H19493  11.219  -1.428   1.073  1.1572 -0.2656  0.0108
  148MOL0     H19494  11.148  -1.658   1.042  0.4410 -0.0635  0.1025
  148MOL0     H19495  11.212  -1.661   0.881 -0.3317 -2.2686  0.4905
  148MOL0     H19496  11.397  -1.631   1.131  1.2825 -0.2774  0.8629
  148MOL0     H19497  11.438  -1.627   0.960 -0.3383 -1.4915  0.0818
  148MOL0     H19498  11.597  -1.747   1.177 -1.3154  2.2129  1.7816
  148MOL0     H19499  11.662  -1.872   1.376  0.5793 -0.5237  0.4817
  148MOL0     H19500  11.793  -2.317   1.522 -1.3142  1.8108 -1.6385
  148MOL0     H19501  11.864  -2.441   1.728 -1.0862 -0.9755  0.1033
  148MOL0     H19502  11.868  -2.556   1.990 -1.5114 -2.2092  0.2467
  148MOL0     H19503  11.705  -2.488   1.959 -0.8660  1.8951  0.4631
  148MOL0     H19504  11.704  -2.560   2.188  1.4003 -0.6481  3.5045
  148MOL0     H19505  11.708  -2.390   2.200  2.2139  0.6908  3.5629
  148MOL0     H19506  11.949  -2.396   2.245 -0.3083  0.0498 -0.3807
  148MOL0     H19507  11.956  -2.562   2.227  0.4671  1.1205  0.0176
  148MOL0     H19508  11.732  -2.516   2.407  0.3401 -3.0778  1.6255
  148MOL0     H19509  11.903  -2.584   2.452  0.5155  1.0464  1.0611
  148MOL0     H19510  11.804  -2.296   2.470  3.3933  2.7190  0.3376
  148MOL0     H19511  11.973  -2.359   2.466  1.8892 -3.2473 -0.7981
  148MOL0     H19512  11.912  -2.517   2.647  2.7028  1.0308 -2.4694
  148MOL0     H19513  11.751  -2.449   2.671  0.3086  1.1006  0.8154
  148MOL0     H19514  11.931  -2.394   2.851  0.1528  2.7181  2.5298
  148MOL0     H19515  12.012  -2.302   2.726 -1.3404  0.7576 -1.0162
  148MOL0     H19516  11.729  -2.237   2.827 -0.0936 -0.7740  0.6557
  148MOL0     H19517  11.823  -2.151   2.699  1.1681 -0.9370  0.1369
  148MOL0     H19518  11.795  -2.090   1.961  2.9120 -0.6487  1.5124
  148MOL0     H19519  11.702  -1.979   1.756 -1.0141 -0.6813 -1.3235
  148MOL0     H19520  11.398  -2.189   1.270  0.3062 -0.3538 -1.7433
  148MOL0     H19521  11.289  -2.038   1.100 -1.3021  0.7874  0.8341
  148MOL0     H19522  11.287  -0.258   0.746 -1.9712  2.0144 -1.4785
  148MOL0     H19523  11.083  -0.122   0.750 -0.5464  0.6408  1.2753
  148MOL0     H19524  10.774   0.079   0.781 -1.2909 -0.4604 -0.2547
  148MOL0     H19525  10.543   0.176   0.747 -0.6626  1.1262  0.3160
  148MOL0     H19526  10.340   0.259   0.712 -1.9401  0.8097 -0.8232
  148MOL0     H19527  10.213   0.291   0.823  0.2745  1.0038  0.0152
  148MOL0     H19528  10.223   0.062   0.683 -1.2697  2.6056 -0.8940
  148MOL0     H19529  10.353   0.013   0.792 -0.9827 -0.4377  0.3842
  148MOL0     H19530  10.247   0.001   0.971  0.0627  0.6541 -1.1628
  148MOL0     H19531  10.154  -0.089   0.857 -2.2754  0.8477 -0.5018
  148MOL0     H19532   9.994   0.047   1.000 -0.9778  2.1539 -0.7400
  148MOL0     H19533  10.076   0.195   0.941 -0.0376  0.0944 -1.3043
  148MOL0     H19534   9.777   0.018   0.671 -0.9113 -0.0534  2.6966
  148MOL0     H19535  10.514   0.268   1.164  1.1533  1.3439  1.6134
  148MOL0     H19536  10.736   0.166   1.212 -2.4068 -1.9776  1.1133
  149MOL0     O19537   4.732   2.017   7.637  0.0056 -0.2101 -0.3478
  149MOL0     C19538   4.703   2.031   7.757  0.5497  0.1168  1.0372
  149MOL0     O19539   4.721   2.146   7.831 -0.0734  0.1504  0.1057
  149MOL0     C19540   4.822   2.234   7.803  0.1674  0.3716  0.9682
  149MOL0     C19541   4.808   2.370   7.837  0.2273 -0.3470 -0.1710
  149MOL0     C19542   4.910   2.461   7.820  0.1742  0.6458 -0.0456
  149MOL0     C19543   5.035   2.414   7.763 -0.7685  0.1655 -0.1833
  149MOL0     O19544   5.134   2.501   7.750  0.8830 -0.2189 -0.2974
  149MOL0     C19545   5.162   2.527   7.615  0.3019 -0.3782 -0.6814
  149MOL0     C19546   5.291   2.603   7.602 -0.5422  0.3080  0.6393
  149MOL0     C19547   5.414   2.520   7.585 -0.8636  0.8571  0.1289
  149MOL0     C19548   5.539   2.593   7.581  0.0183  0.0284  0.1794
  149MOL0     C19549   5.650   2.493   7.569 -0.0607 -1.0300 -0.7332
  149MOL0     C19550   5.791   2.554   7.573  0.3808 -0.3169 -0.6679
  149MOL0     C19551   5.893   2.445   7.561  0.8344  0.0615  0.0330
  149MOL0     C19552   6.032   2.498   7.593 -0.6296  0.5667 -0.8810
  149MOL0     N19553   6.089   2.573   7.477 -0.4124  0.4907  0.1248
  149MOL0     C19554   6.169   2.512   7.386 -0.1005  0.5807  0.9491
  149MOL0     C19555   6.195   2.620   7.303  0.2688  0.9694  0.2311
  149MOL0     C19556   6.282   2.612   7.178 -0.9141 -0.0534 -0.9013
  149MOL0     C19557   6.239   2.519   7.070  0.3829 -0.7993 -0.4954
  149MOL0     C19558   6.127   2.570   6.980 -1.1143  0.1866  0.0503
  149MOL0     C19559   6.001   2.622   7.040 -0.1904 -0.4365 -0.9690
  149MOL0     O19560   5.926   2.514   7.091 -0.3933  0.2744 -0.0549
  149MOL0     C19561   5.798   2.532   7.132 -0.9424  0.7880  1.0312
  149MOL0     C19562   5.727   2.417   7.170  1.0825 -0.0193  0.2582
  149MOL0     C19563   5.587   2.420   7.193 -0.1757  0.7256 -0.3503
  149MOL0     C19564   5.527   2.539   7.190  0.6109 -1.3292  0.5671
  149MOL0     C19565   5.379   2.543   7.207 -0.0251  0.1298  0.5134
  149MOL0     O19566   5.300   2.423   7.196 -0.2665 -0.2270  0.1984
  149MOL0     C19567   5.163   2.425   7.232 -0.0664  0.1632  0.3782
  149MOL0     C19568   5.107   2.304   7.275 -0.1267  0.5286 -0.1414
  149MOL0     C19569   4.972   2.296   7.308 -0.1639 -0.2820 -0.1324
  149MOL0     C19570   4.889   2.413   7.285 -0.1816  0.8056  0.2239
  149MOL0     O19571   4.756   2.416   7.307  0.0547  0.1854 -0.6980
  149MOL0     C19572   4.678   2.292   7.327  0.7623  0.7354 -0.5835
  149MOL0     C19573   4.529   2.325   7.350  0.3469  0.0076 -1.5720
  149MOL0     C19574   4.453   2.243   7.457 -0.1817  0.9968 -0.5304
  149MOL0     C19575   4.295   2.223   7.448 -0.5853  0.9884 -0.3872
  149MOL0     C19576   4.235   2.101   7.523  0.0427  0.2049  0.9625
  149MOL0     C19577   4.242   2.107   7.682 -0.0269 -0.1151  0.2087
  149MOL0     C19578   4.179   1.987   7.742  0.0085  0.3590  0.3138
  149MOL0     C19579   4.202   1.992   7.892  0.4634 -0.2681  0.2753
  149MOL0    Cl19580   4.127   1.841   7.947 -0.2891  0.3187 -0.3081
  149MOL0     C19581   4.943   2.524   7.234 -0.2848 -0.5596  0.0749
  149MOL0     C19582   5.080   2.533   7.203 -0.3848  0.1231  0.4648
  149MOL0     O19583   5.342   2.648   7.255  0.6263 -0.1904  0.2723
  149MOL0     C19584   5.604   2.659   7.179 -0.7429  0.1743 -1.1259
  149MOL0     C19585   5.736   2.661   7.149 -0.7702  0.4299  1.0964
  149MOL0     N19586   6.129   2.735   7.346 -0.2676 -0.6023 -0.0191
  149MOL0     N19587   6.069   2.707   7.454  0.2044  0.1518 -0.3328
  149MOL0     C19588   5.052   2.278   7.743  0.6712  0.1245  0.7452
  149MOL0     C19589   4.946   2.188   7.757 -0.3970  0.8848 -0.6120
  149MOL0     C19590   4.613   1.929   7.807  0.1907  0.0296  0.0201
  149MOL0     C19591   4.605   1.917   7.948 -0.1434  0.8091  0.2911
  149MOL0     C19592   4.520   1.813   8.001 -0.1786 -0.1683 -0.0705
  149MOL0     C19593   4.454   1.725   7.920  0.8102 -0.2315  0.4630
  149MOL0     O19594   4.377   1.612   7.969 -0.2102 -0.5063 -0.3200
  149MOL0     C19595   4.355   1.609   8.112 -0.0582 -0.1779 -0.4096
  149MOL0     C19596   4.466   1.545   8.187 -0.0311 -0.3288 -0.2199
  149MOL0     C19597   4.424   1.516   8.328 -0.1831 -1.3757 -0.8671
  149MOL0     C19598   4.504   1.391   8.379 -0.2465  0.1306  0.3634
  149MOL0     C19599   4.639   1.427   8.432 -0.1647  0.3106  0.4291
  149MOL0     C19600   4.749   1.469   8.473  0.0698 -0.1298  0.2825
  149MOL0     C19601   4.458   1.739   7.780 -0.0255 -0.3417  0.1262
  149MOL0     C19602   4.547   1.832   7.730  0.5661  0.0346 -0.8838
  149MOL0     H19603   4.718   2.409   7.884  0.6664  0.1780  0.2516
  149MOL0     H19604   4.891   2.565   7.844 -1.0794 -0.1335  2.7507
  149MOL0     H19605   5.070   2.580   7.585 -3.4654 -5.0179  1.3600
  149MOL0     H19606   5.168   2.432   7.562  1.7242 -0.8009  0.1966
  149MOL0     H19607   5.311   2.683   7.674  1.6017 -0.5227  1.0306
  149MOL0     H19608   5.273   2.650   7.505  1.9583  1.5679  0.7226
  149MOL0     H19609   5.393   2.450   7.503 -0.4871 -1.9807  2.2794
  149MOL0     H19610   5.422   2.449   7.668 -0.5166 -0.2846 -0.8412
  149MOL0     H19611   5.544   2.664   7.498  3.6904  1.0999  1.1031
  149MOL0     H19612   5.560   2.657   7.667 -2.3830  1.7428 -0.4150
  149MOL0     H19613   5.642   2.448   7.469 -0.8071  1.7613 -2.0328
  149MOL0     H19614   5.638   2.426   7.655 -3.7018  0.6334  0.2460
  149MOL0     H19615   5.798   2.604   7.670  1.0246 -0.0546 -0.8437
  149MOL0     H19616   5.804   2.632   7.497 -1.8840 -1.1906 -2.0668
  149MOL0     H19617   5.876   2.368   7.637  1.4696  0.8407  0.9953
  149MOL0     H19618   5.882   2.405   7.460 -0.5179  0.9417 -0.1934
  149MOL0     H19619   6.098   2.413   7.613 -2.0706 -0.3399  0.2842
  149MOL0     H19620   6.025   2.565   7.680  0.3736  0.3235 -0.5962
  149MOL0     H19621   6.205   2.410   7.376  0.1827  0.9032 -2.1780
  149MOL0     H19622   6.374   2.570   7.219 -0.9022  0.3199 -0.5262
  149MOL0     H19623   6.305   2.713   7.142 -1.5715  0.6267  0.5078
  149MOL0     H19624   6.202   2.426   7.115 -2.2633  1.9151  3.6287
  149MOL0     H19625   6.338   2.495   7.030  1.7485  2.3066  0.7054
  149MOL0     H19626   6.163   2.641   6.905 -3.3129 -1.3493 -2.6494
  149MOL0     H19627   6.089   2.492   6.912 -2.3670  1.8431 -1.2424
  149MOL0     H19628   5.947   2.675   6.961 -1.3626  2.2227  1.4309
  149MOL0     H19629   6.006   2.711   7.103 -2.0070  2.4285 -4.4576
  149MOL0     H19630   5.781   2.323   7.153  0.6670 -0.4901  1.4814
  149MOL0     H19631   5.536   2.325   7.207  1.7741 -0.0455  2.2123
  149MOL0     H19632   5.167   2.215   7.288 -0.0353  0.6620  0.3464
  149MOL0     H19633   4.928   2.204   7.345 -0.9506  0.7759  1.7103
  149MOL0     H19634   4.718   2.242   7.415 -1.2303 -1.2666 -0.7303
  149MOL0     H19635   4.683   2.234   7.234  0.0790 -0.4623  0.1067
  149MOL0     H19636   4.473   2.301   7.258  0.1673 -0.1942 -1.4106
  149MOL0     H19637   4.523   2.431   7.374 -1.2145  0.0755 -2.1198
  149MOL0     H19638   4.495   2.272   7.553  0.2955  0.1176 -0.4603
  149MOL0     H19639   4.492   2.141   7.445  0.3436  1.1631 -0.2832
  149MOL0     H19640   4.253   2.314   7.493  1.3330  1.0522  1.4429
  149MOL0     H19641   4.258   2.206   7.347 -2.5809  0.2364  0.4230
  149MOL0     H19642   4.302   2.020   7.491  1.7370  1.6174  0.7918
  149MOL0     H19643   4.132   2.083   7.490  0.3510 -2.1065  1.0939
  149MOL0     H19644   4.195   2.200   7.715  1.2939  0.4543  0.5558
  149MOL0     H19645   4.344   2.118   7.719 -0.2848  0.5456  0.7387
  149MOL0     H19646   4.071   1.980   7.729  0.1297 -2.2485  0.0801
  149MOL0     H19647   4.232   1.895   7.715  2.7827  0.9151  3.2366
  149MOL0     H19648   4.141   2.073   7.931 -1.7026 -0.2914 -2.7410
  149MOL0     H19649   4.309   1.997   7.917  0.7099 -2.3454 -0.1477
  149MOL0     H19650   4.887   2.613   7.208  3.2979  1.9015 -0.0185
  149MOL0     H19651   5.118   2.627   7.163 -3.3249  1.6897  1.0444
  149MOL0     H19652   5.562   2.757   7.199  0.8898  0.4630  1.3811
  149MOL0     H19653   5.793   2.753   7.145  2.4717 -1.4517  0.4279
  149MOL0     H19654   5.154   2.257   7.713  1.7168  4.4585  0.6729
  149MOL0     H19655   4.985   2.087   7.750  0.8029  1.2227  0.6602
  149MOL0     H19656   4.661   1.980   8.016  2.1819 -1.6553  0.8290
  149MOL0     H19657   4.509   1.797   8.108  2.7747 -1.4472  0.1432
  149MOL0     H19658   4.271   1.540   8.124 -1.0809  0.7763 -1.6754
  149MOL0     H19659   4.310   1.698   8.157 -0.9277 -0.0881 -1.4045
  149MOL0     H19660   4.491   1.460   8.123  0.5563 -0.3540  0.0331
  149MOL0     H19661   4.553   1.612   8.191  0.2716 -0.6958 -0.5466
  149MOL0     H19662   4.316   1.498   8.331 -0.5294  0.5354 -0.6063
  149MOL0     H19663   4.458   1.600   8.389 -2.9254 -1.3870  0.8504
  149MOL0     H19664   4.448   1.348   8.462  0.2045  1.4232  1.3710
  149MOL0     H19665   4.504   1.302   8.315 -1.0735 -1.4090  2.3791
  149MOL0     H19666   4.849   1.499   8.497  0.0195  1.2744 -1.0728
  149MOL0     H19667   4.400   1.672   7.717 -1.5909  0.2076  0.9339
  149MOL0     H19668   4.567   1.832   7.623 -0.5599  1.8070 -1.1305
  150MOL0     O19669   9.892   8.796  10.786 -1.4658 -0.0830 -0.9082
  150MOL0     C19670   9.809   8.823  10.869  0.6968 -0.0788 -0.2277
  150MOL0     O19671   9.672   8.836  10.849 -0.4341 -0.0151 -0.7537
  150MOL0     C19672   9.607   8.794  10.734 -1.0229  0.1638  0.5065
  150MOL0     C19673   9.640   8.704  10.631  0.5987 -0.9906 -0.6135
  150MOL0     C19674   9.537   8.660  10.541 -0.4353 -0.2666 -0.9236
  150MOL0     C19675   9.400   8.696  10.559 -0.2636 -0.7981  0.9698
  150MOL0     O19676   9.314   8.654  10.457 -0.0949 -0.1461 -0.4918
  150MOL0     C19677   9.225   8.760  10.420  0.0048 -0.4233  0.2101
  150MOL0     C19678   9.140   8.724  10.297 -1.0367 -0.6106 -0.5211
  150MOL0     C19679   9.036   8.610  10.297  0.3173  0.3359 -0.1731
  150MOL0     C19680   8.960   8.598  10.171  0.2923  1.1902 -0.7048
  150MOL0     C19681   8.844   8.699  10.152 -0.8308  0.5123  0.6429
  150MOL0     C19682   8.723   8.650  10.236  1.0705  0.2031  0.1834
  150MOL0     C19683   8.602   8.751  10.230  0.8792 -0.7886  0.0460
  150MOL0     C19684   8.542   8.765  10.080 -0.2264  0.1086 -0.9021
  150MOL0     N19685   8.421   8.844  10.054  0.0824  0.7814  0.6379
  150MOL0     C19686   8.294   8.808  10.086  0.4248 -0.4386 -0.1908
  150MOL0     C19687   8.211   8.898  10.033  0.0177 -0.4927  0.7473
  150MOL0     C19688   8.071   8.923  10.061  0.2280 -0.2701 -0.0888
  150MOL0     C19689   8.031   9.041  10.154  0.0322  0.3957  0.2621
  150MOL0     C19690   8.053   9.179  10.101  0.0009 -0.2253 -0.3497
  150MOL0     C19691   7.936   9.246  10.023  0.2102 -0.1058  0.3647
  150MOL0     O19692   7.880   9.146   9.930  0.0143  0.3864 -1.1535
  150MOL0     C19693   7.767   9.176   9.870 -0.8242 -0.1743 -0.4049
  150MOL0     C19694   7.688   9.060   9.837  0.1138 -0.4105  0.2208
  150MOL0     C19695   7.570   9.072   9.767  0.3952  0.5567 -0.0230
  150MOL0     C19696   7.510   9.200   9.735  0.4864 -0.6469 -0.3529
  150MOL0     C19697   7.387   9.207   9.651 -0.0222  0.8242 -0.7252
  150MOL0     O19698   7.347   9.325   9.587 -0.6463  0.3027 -0.3851
  150MOL0     C19699   7.238   9.306   9.509 -0.2828 -0.4929 -0.1711
  150MOL0     C19700   7.243   9.261   9.382 -0.0955  1.1362 -0.1882
  150MOL0     C19701   7.126   9.227   9.308  0.0387  1.0956  0.3881
  150MOL0     C19702   6.998   9.252   9.369  0.6855  0.3689 -0.2214
  150MOL0     O19703   6.873   9.220   9.310  0.0138 -0.1297  0.3119
  150MOL0     C19704   6.862   9.268   9.177 -0.5330  0.2622 -0.3354
  150MOL0     C19705   6.720   9.237   9.117  0.2695 -0.1172 -0.0465
  150MOL0     C19706   6.613   9.305   9.207 -0.0795 -0.3718 -0.2587
  150MOL0     C19707   6.583   9.229   9.342 -0.2396  0.1115  0.6412
  150MOL0     C19708   6.565   9.331   9.453  0.4812 -0.1835 -0.4553
  150MOL0     C19709   6.455   9.440   9.426  0.4219 -0.3737 -0.2912
  150MOL0     C19710   6.317   9.382   9.378  0.1142  0.0929  0.0262
  150MOL0     C19711   6.208   9.482   9.397 -0.2003 -0.5277 -0.5064
  150MOL0    Cl19712   6.188   9.505   9.576 -0.6993  0.2209 -0.2972
  150MOL0     C19713   6.996   9.296   9.497  0.0169  0.1827 -0.3830
  150MOL0     C19714   7.115   9.315   9.571  0.6314 -0.1983 -0.4582
  150MOL0     O19715   7.332   9.094   9.639 -0.3399 -0.8273 -0.4183
  150MOL0     C19716   7.580   9.319   9.768 -0.6159 -0.8413  0.2167
  150MOL0     C19717   7.717   9.302   9.825  0.4634  0.3700 -0.0689
  150MOL0     N19718   8.294   8.981   9.951  0.1291 -0.2617  0.0226
  150MOL0     N19719   8.415   8.949   9.962  0.1776 -0.5752  0.6466
  150MOL0     C19720   9.373   8.800  10.655  0.0296 -0.3465  0.4692
  150MOL0     C19721   9.478   8.846  10.742  0.4842  0.8651  0.6010
  150MOL0     C19722   9.870   8.872  10.999  1.2361  0.3012  0.2675
  150MOL0     C19723   9.787   8.912  11.108  0.1426 -0.0764 -0.0708
  150MOL0     C19724   9.837   8.973  11.222 -0.2047  0.0270 -0.6088
  150MOL0     C19725   9.977   9.005  11.224  0.8408  0.4335 -0.4486
  150MOL0     O19726  10.032   9.080  11.320  0.1952  0.4536  0.0817
  150MOL0     C19727   9.953   9.156  11.408  0.3767 -1.3172 -0.6695
  150MOL0     C19728   9.881   9.088  11.522  0.1618  0.5726  0.1916
  150MOL0     C19729   9.813   9.185  11.628 -0.0869 -1.1297 -0.4479
  150MOL0     C19730   9.738   9.122  11.748 -0.0358 -1.3417  0.5421
  150MOL0     C19731   9.606   9.079  11.702 -0.2500  0.4625  0.8227
  150MOL0     C19732   9.503   9.020  11.667  0.6508 -0.4553  0.2547
  150MOL0     C19733  10.066   8.950  11.124  0.4023  0.6814 -0.1175
  150MOL0     C19734  10.008   8.886  11.009  0.2089 -0.2223  0.2860
  150MOL0     H19735   9.742   8.671  10.612  1.9731  2.7401 -0.5588
  150MOL0     H19736   9.556   8.582  10.468  0.7825 -0.8511 -0.0285
  150MOL0     H19737   9.281   8.852  10.399  1.6028 -1.1589  1.0047
  150MOL0     H19738   9.150   8.762  10.499  0.4922 -1.8647  0.7432
  150MOL0     H19739   9.212   8.696  10.221  0.8384 -3.2878  2.0187
  150MOL0     H19740   9.075   8.811  10.281 -0.7297 -0.2428  0.1639
  150MOL0     H19741   8.970   8.620  10.383 -2.2129  1.6454 -2.1327
  150MOL0     H19742   9.086   8.513  10.306 -0.2375 -0.0522 -1.1182
  150MOL0     H19743   9.033   8.617  10.092  0.5830  0.2805 -0.6681
  150MOL0     H19744   8.936   8.492  10.157 -0.4501  1.3970 -1.0393
  150MOL0     H19745   8.811   8.683  10.049 -2.5646 -2.5256  1.5451
  150MOL0     H19746   8.887   8.798  10.170 -1.2213  1.5101 -3.1539
  150MOL0     H19747   8.749   8.627  10.340  1.7474 -1.1282 -0.2529
  150MOL0     H19748   8.691   8.558  10.186  1.7946 -0.9980  1.8266
  150MOL0     H19749   8.519   8.734  10.299  0.3891  3.6556  0.8152
  150MOL0     H19750   8.642   8.850  10.253 -0.0001 -0.7368  1.5287
  150MOL0     H19751   8.538   8.665  10.035  3.3791  1.1948 -4.0558
  150MOL0     H19752   8.625   8.811  10.027 -0.9876  0.2577 -1.9835
  150MOL0     H19753   8.282   8.739  10.169  3.6584  0.1308  0.9365
  150MOL0     H19754   8.028   8.827  10.090  2.0768 -0.6512  1.6253
  150MOL0     H19755   8.032   8.947   9.962  0.7083 -2.0014 -0.7391
  150MOL0     H19756   8.074   9.041  10.254  0.6242  5.8028  0.3046
  150MOL0     H19757   7.923   9.033  10.168 -0.5250  0.3108 -3.1297
  150MOL0     H19758   8.081   9.253  10.176 -0.4971 -0.4679  0.0833
  150MOL0     H19759   8.133   9.173  10.026  0.2242  0.2690 -0.1604
  150MOL0     H19760   7.983   9.326   9.965 -1.3858  0.0961 -0.7079
  150MOL0     H19761   7.861   9.275  10.097 -0.8351 -1.7746  0.0284
  150MOL0     H19762   7.721   8.961   9.868  1.0702 -0.1990 -0.0675
  150MOL0     H19763   7.527   8.983   9.723  0.0036  0.5875  0.2853
  150MOL0     H19764   7.337   9.225   9.341 -1.5084 -2.6516 -0.5356
  150MOL0     H19765   7.139   9.198   9.205 -0.0009  0.8448  0.4533
  150MOL0     H19766   6.926   9.211   9.110 -0.1508 -0.2153  0.4229
  150MOL0     H19767   6.882   9.376   9.178  0.9967  0.0051  0.8700
  150MOL0     H19768   6.705   9.130   9.098  0.1278  0.0003 -0.6396
  150MOL0     H19769   6.719   9.273   9.013  2.1434 -1.8148 -0.7350
  150MOL0     H19770   6.529   9.315   9.137 -0.9548 -0.2316  0.7909
  150MOL0     H19771   6.648   9.407   9.221  0.1969 -0.0017 -3.0898
  150MOL0     H19772   6.487   9.178   9.332 -1.4153  2.2448  0.3915
  150MOL0     H19773   6.660   9.157   9.370  1.9756  1.4736 -1.5821
  150MOL0     H19774   6.667   9.365   9.470  0.0776  0.0238  2.0403
  150MOL0     H19775   6.545   9.271   9.543  3.4633 -2.4576 -1.1399
  150MOL0     H19776   6.478   9.521   9.357 -1.0402  0.1384 -0.2240
  150MOL0     H19777   6.437   9.486   9.524 -1.1786  1.9238 -1.5693
  150MOL0     H19778   6.327   9.351   9.274 -1.5818  1.9432 -0.7579
  150MOL0     H19779   6.298   9.299   9.447 -0.1782 -2.2493 -2.6932
  150MOL0     H19780   6.123   9.429   9.355 -1.2601  2.2443 -2.1599
  150MOL0     H19781   6.212   9.577   9.342 -0.4054  2.0432  3.4468
  150MOL0     H19782   6.906   9.307   9.556  1.3214  0.3631  1.6515
  150MOL0     H19783   7.097   9.341   9.674 -0.9540 -1.1547 -0.4653
  150MOL0     H19784   7.551   9.423   9.755  1.2491  0.0458  2.4803
  150MOL0     H19785   7.776   9.392   9.840 -0.5401  1.2106 -1.0541
  150MOL0     H19786   9.281   8.855  10.668  0.1623 -0.3272  1.3995
  150MOL0     H19787   9.458   8.911  10.826  0.4098  1.3444  0.2185
  150MOL0     H19788   9.679   8.906  11.103  0.0301  1.1662  0.3260
  150MOL0     H19789   9.765   9.014  11.292  1.5820 -0.1139  1.4135
  150MOL0     H19790   9.874   9.209  11.354  0.6328 -1.0422 -0.7785
  150MOL0     H19791  10.022   9.232  11.446 -1.0662 -0.6184  0.6728
  150MOL0     H19792   9.819   9.003  11.492  2.6955 -0.9512 -1.0919
  150MOL0     H19793   9.963   9.048  11.582  1.0802  2.7314  0.4769
  150MOL0     H19794   9.758   9.268  11.582  3.0746  1.9501  0.9214
  150MOL0     H19795   9.889   9.241  11.682 -1.2976 -1.5857  1.8808
  150MOL0     H19796   9.785   9.030  11.783  0.3828 -1.0873  0.6616
  150MOL0     H19797   9.734   9.189  11.835  0.3244 -1.0781  0.3589
  150MOL0     H19798   9.418   8.962  11.637  0.3974 -0.4960  1.0338
  150MOL0     H19799  10.171   8.970  11.137  0.5461  0.2742 -0.6443
  150MOL0     H19800  10.076   8.869  10.927  0.2016 -1.5770  0.5417
  151MOL0     O19801   0.278   8.100   9.102 -0.0378  0.1545  0.1906
  151MOL0     C19802   0.382   8.158   9.105 -1.1297  0.9079  0.4342
  151MOL0     O19803   0.489   8.127   9.182 -0.6540 -0.6488  0.4666
  151MOL0     C19804   0.495   8.046   9.290  0.8102  0.6394 -0.4636
  151MOL0     C19805   0.619   7.982   9.307  0.9123 -0.1232  0.1715
  151MOL0     C19806   0.655   7.932   9.429  0.2857  0.2879 -0.4623
  151MOL0     C19807   0.562   7.919   9.530 -0.1252  1.2340 -0.0034
  151MOL0     O19808   0.566   7.864   9.654 -0.1956  0.0148 -0.3215
  151MOL0     C19809   0.694   7.802   9.696 -0.9282 -0.2538 -0.0613
  151MOL0     C19810   0.702   7.661   9.637  0.0742 -1.0817 -0.0052
  151MOL0     C19811   0.802   7.588   9.718 -0.5910  0.0175  0.6498
  151MOL0     C19812   0.809   7.430   9.703 -0.1203  0.6243 -0.2298
  151MOL0     C19813   0.865   7.385   9.572  0.6956 -0.1415  0.5141
  151MOL0     C19814   0.888   7.241   9.564  0.4354  0.8860  0.1577
  151MOL0     C19815   0.765   7.162   9.594 -0.1025  0.2855  0.0528
  151MOL0     C19816   0.758   7.027   9.524  0.3068 -0.8120  0.0332
  151MOL0     N19817   0.846   6.929   9.592 -0.1714  0.6294  0.4159
  151MOL0     C19818   0.834   6.878   9.718 -0.2822  0.2333 -0.0463
  151MOL0     C19819   0.928   6.783   9.726  0.5424 -0.1558  0.8563
  151MOL0     C19820   0.940   6.679   9.839  0.3956  0.2379  0.2723
  151MOL0     C19821   0.833   6.577   9.812  1.3634 -0.0887 -0.0148
  151MOL0     C19822   0.869   6.502   9.682  0.5573  0.4680 -1.1371
  151MOL0     C19823   0.796   6.362   9.690 -1.5277  0.2817  0.0480
  151MOL0     O19824   0.826   6.288   9.572 -0.3666 -0.0348  0.2233
  151MOL0     C19825   0.738   6.191   9.528  0.2707 -0.2345  0.1079
  151MOL0     C19826   0.599   6.208   9.505 -0.4964  0.0543  0.0857
  151MOL0     C19827   0.523   6.100   9.454 -0.5635  0.4406 -0.6175
  151MOL0     C19828   0.579   5.971   9.433  0.1756 -1.2335 -0.5934
  151MOL0     C19829   0.486   5.869   9.380  0.7891  0.3647  0.3814
  151MOL0     O19830   0.545   5.765   9.326 -0.2817  0.9017 -0.2663
  151MOL0     C19831   0.475   5.648   9.302  0.4418 -0.2802  0.0451
  151MOL0     C19832   0.475   5.537   9.389  1.0605  0.2001  1.2105
  151MOL0     C19833   0.392   5.427   9.365 -0.8886  0.1638 -0.5629
  151MOL0     C19834   0.305   5.420   9.260  0.4628 -0.3058 -0.1967
  151MOL0     O19835   0.224   5.315   9.232  0.1459  0.8283  0.1445
  151MOL0     C19836   0.225   5.203   9.314 -0.8658 -0.5264  0.9430
  151MOL0     C19837   0.174   5.077   9.246 -0.3235 -0.5822 -0.0685
  151MOL0     C19838   0.258   5.056   9.117  0.5766  0.1768  0.4452
  151MOL0     C19839   0.258   4.907   9.058  0.2845 -0.8870  0.8554
  151MOL0     C19840   0.113   4.839   9.040  0.3506 -0.5277 -0.2893
  151MOL0     C19841   0.009   4.928   8.966 -0.6126  0.4991  0.9765
  151MOL0     C19842  -0.116   4.853   8.931 -0.3629 -0.0086 -0.2265
  151MOL0     C19843  -0.189   4.821   9.055 -0.0659  0.2078 -0.5833
  151MOL0    Cl19844  -0.352   4.775   9.007  0.4070  0.3056  0.3975
  151MOL0     C19845   0.289   5.534   9.178  0.3702  0.3129 -0.1847
  151MOL0     C19846   0.383   5.641   9.198 -0.5110 -0.1610 -1.3818
  151MOL0     O19847   0.366   5.881   9.398  0.2694 -0.6054  0.2677
  151MOL0     C19848   0.714   5.955   9.451 -0.2739  0.9251  0.0165
  151MOL0     C19849   0.791   6.063   9.492  0.5986 -0.4192 -0.5384
  151MOL0     N19850   1.019   6.796   9.612  0.0934  0.1714  0.2412
  151MOL0     N19851   0.956   6.874   9.523 -0.4700 -0.5496  0.0426
  151MOL0     C19852   0.427   7.971   9.503 -0.9119  0.1886 -0.6050
  151MOL0     C19853   0.401   8.044   9.391  0.8583  1.3372 -0.1595
  151MOL0     C19854   0.399   8.280   9.023 -0.4534  0.3741  0.0688
  151MOL0     C19855   0.294   8.359   8.963 -0.4466  0.5594  0.7397
  151MOL0     C19856   0.320   8.470   8.887  0.0699  0.0599 -0.1904
  151MOL0     C19857   0.450   8.509   8.866 -0.4602 -0.1009 -0.5276
  151MOL0     O19858   0.480   8.632   8.812  0.0756  0.8678 -0.5142
  151MOL0     C19859   0.382   8.720   8.760  0.5170  1.1627  0.4391
  151MOL0     C19860   0.447   8.859   8.735  0.9390 -0.0199 -0.4187
  151MOL0     C19861   0.346   8.970   8.707  0.0385 -0.2932 -0.5165
  151MOL0     C19862   0.421   9.095   8.645  0.4931 -0.2565 -0.2396
  151MOL0     C19863   0.468   9.066   8.512 -1.4482 -0.7880  0.1936
  151MOL0     C19864   0.512   9.023   8.402 -0.0306 -0.3286 -0.3801
  151MOL0     C19865   0.559   8.434   8.909  0.3380  0.2934 -0.5846
  151MOL0     C19866   0.534   8.314   8.987  0.1870 -2.1315  0.4519
  151MOL0     H19867   0.702   8.006   9.242  2.2931 -2.9514  0.7378
  151MOL0     H19868   0.757   7.896   9.445  0.5452  1.1799 -0.0356
  151MOL0     H19869   0.718   7.823   9.801 -0.8438  2.2725 -0.5240
  151MOL0     H19870   0.773   7.860   9.648 -1.8565  0.5846 -0.6214
  151MOL0     H19871   0.732   7.655   9.532  0.6291  0.3470  0.0459
  151MOL0     H19872   0.606   7.614   9.660  0.5823 -0.5488  3.8308
  151MOL0     H19873   0.799   7.610   9.825  1.7581 -0.2383  0.8360
  151MOL0     H19874   0.901   7.630   9.695  0.5920 -0.5487  4.0361
  151MOL0     H19875   0.878   7.395   9.781  0.2102  3.3762  0.8602
  151MOL0     H19876   0.710   7.394   9.731 -0.5603  1.5954 -0.5128
  151MOL0     H19877   0.957   7.443   9.566 -1.3282  3.4870  1.7033
  151MOL0     H19878   0.798   7.424   9.495 -1.6205  0.6780  2.7810
  151MOL0     H19879   0.975   7.217   9.625  0.0171 -1.5713 -0.1189
  151MOL0     H19880   0.914   7.213   9.462  0.1724 -1.3694  0.6416
  151MOL0     H19881   0.756   7.166   9.703  0.3683  1.3700  0.0696
  151MOL0     H19882   0.679   7.225   9.568 -0.2457 -0.0269 -0.2356
  151MOL0     H19883   0.774   7.011   9.417 -0.8727 -3.4698  0.1528
  151MOL0     H19884   0.658   6.982   9.525  0.6321 -1.5726  1.2227
  151MOL0     H19885   0.750   6.894   9.784 -0.2237  0.1388  0.0521
  151MOL0     H19886   0.917   6.716   9.939  1.7997 -0.5177  0.9104
  151MOL0     H19887   1.038   6.629   9.839  0.4793  0.3650 -0.8137
  151MOL0     H19888   0.737   6.628   9.815  0.7324 -1.1981 -0.7716
  151MOL0     H19889   0.847   6.508   9.896  1.0248  1.3763  1.2917
  151MOL0     H19890   0.843   6.567   9.598  1.4781  2.5371  0.0717
  151MOL0     H19891   0.976   6.480   9.675  0.5570 -0.3075  0.7267
  151MOL0     H19892   0.688   6.371   9.705 -1.5507  0.1868 -0.0605
  151MOL0     H19893   0.843   6.321   9.779  2.4205  3.1744 -0.4298
  151MOL0     H19894   0.555   6.306   9.520 -0.6888  0.5792 -3.1756
  151MOL0     H19895   0.422   6.128   9.426 -0.2011  2.9792  0.4006
  151MOL0     H19896   0.542   5.530   9.475  2.6758 -0.5061 -0.0604
  151MOL0     H19897   0.385   5.348   9.440 -3.8730  0.4858 -0.3941
  151MOL0     H19898   0.170   5.217   9.408 -5.0817 -1.4148 -1.1579
  151MOL0     H19899   0.331   5.182   9.336  0.1938  2.0477 -1.2712
  151MOL0     H19900   0.068   5.086   9.223  0.0437 -0.5191 -1.8259
  151MOL0     H19901   0.187   4.986   9.305  1.4623 -1.1096 -1.2026
  151MOL0     H19902   0.364   5.080   9.128  0.3836  0.2634  2.7497
  151MOL0     H19903   0.226   5.132   9.046  1.6389  0.0696 -0.1626
  151MOL0     H19904   0.306   4.919   8.961  0.1662  0.6102  0.9610
  151MOL0     H19905   0.315   4.835   9.118 -0.8150 -3.1496 -0.6851
  151MOL0     H19906   0.065   4.812   9.135 -0.3183  2.7881  0.4267
  151MOL0     H19907   0.127   4.747   8.983  1.1978 -2.8171  3.2573
  151MOL0     H19908   0.051   4.950   8.867  1.3107  0.0753  1.6393
  151MOL0     H19909  -0.001   5.028   9.011 -0.2809  1.5681 -1.1767
  151MOL0     H19910  -0.186   4.915   8.874 -2.2497 -1.0389  0.8680
  151MOL0     H19911  -0.086   4.761   8.882  2.8635  1.3086 -0.9906
  151MOL0     H19912  -0.201   4.922   9.094 -3.0915  0.3667 -1.6682
  151MOL0     H19913  -0.150   4.743   9.120  3.0070  2.2681  0.2680
  151MOL0     H19914   0.232   5.538   9.085  0.1119 -1.3265 -0.1375
  151MOL0     H19915   0.366   5.723   9.129 -0.5757  1.0212  0.0040
  151MOL0     H19916   0.754   5.855   9.446 -0.3365  0.9016 -0.0294
  151MOL0     H19917   0.899   6.060   9.503  0.9524  3.2258 -1.6866
  151MOL0     H19918   0.345   7.966   9.574  0.0268  2.1915  0.6856
  151MOL0     H19919   0.308   8.101   9.389 -1.0856 -1.5446  1.2994
  151MOL0     H19920   0.189   8.335   8.974 -0.5133  0.5114  0.0082
  151MOL0     H19921   0.240   8.529   8.844  2.0353  2.3145 -0.9624
  151MOL0     H19922   0.299   8.743   8.828  0.4986  1.5030  0.3037
  151MOL0     H19923   0.347   8.674   8.667 -2.2119  1.6246  1.1265
  151MOL0     H19924   0.494   8.882   8.831 -0.6512  0.4157  0.3016
  151MOL0     H19925   0.521   8.855   8.654  0.7655 -0.6160 -0.5508
  151MOL0     H19926   0.301   9.004   8.801 -0.6931  1.9349 -1.5907
  151MOL0     H19927   0.256   8.941   8.652 -0.5933  2.2958 -0.9887
  151MOL0     H19928   0.352   9.180   8.649  0.4461 -0.2691 -0.7129
  151MOL0     H19929   0.507   9.132   8.701  0.8406 -0.1803 -0.8098
  151MOL0     H19930   0.548   8.985   8.308 -0.9215  0.0026 -0.8702
  151MOL0     H19931   0.662   8.457   8.885  0.0787 -0.4150 -2.5032
  151MOL0     H19932   0.622   8.251   8.996  1.6812 -0.3273 -0.8262
  152MOL0     O19933   4.186   0.924   3.845 -0.1317  0.3315  0.7774
  152MOL0     C19934   4.289   0.995   3.860 -0.4866  1.0022  0.3535
  152MOL0     O19935   4.410   0.972   3.799 -1.0606 -0.3535 -0.5476
  152MOL0     C19936   4.445   0.849   3.754 -0.3008 -0.1666  0.1595
  152MOL0     C19937   4.389   0.763   3.658 -0.6663 -0.3566  0.7684
  152MOL0     C19938   4.446   0.639   3.619  0.0886 -0.1057  0.6786
  152MOL0     C19939   4.559   0.588   3.680  0.3183 -0.4102  0.3764
  152MOL0     O19940   4.629   0.476   3.639 -0.2009 -0.4102 -0.5648
  152MOL0     C19941   4.583   0.405   3.526 -0.0266 -0.8143  0.4887
  152MOL0     C19942   4.669   0.277   3.511 -0.2831  0.1643 -0.1561
  152MOL0     C19943   4.797   0.319   3.442 -0.6736  0.2135 -0.2897
  152MOL0     C19944   4.867   0.201   3.383  0.3059  0.1072  0.1850
  152MOL0     C19945   5.000   0.263   3.314  0.4866  0.9927 -0.1826
  152MOL0     C19946   5.079   0.150   3.245  1.2502 -0.0213 -0.1850
  152MOL0     C19947   5.204   0.204   3.169 -0.4747  0.5498  0.2190
  152MOL0     C19948   5.306   0.299   3.242 -0.4495  0.1040 -0.0085
  152MOL0     N19949   5.385   0.227   3.347 -0.2072  0.6462 -0.1443
  152MOL0     C19950   5.337   0.153   3.459  0.7521 -0.3787  0.5896
  152MOL0     C19951   5.450   0.093   3.512  0.3273 -0.1857 -0.1711
  152MOL0     C19952   5.449  -0.007   3.619  0.5561  0.0419 -0.5647
  152MOL0     C19953   5.462   0.066   3.762 -0.0409  0.1763 -0.2416
  152MOL0     C19954   5.428  -0.034   3.877  0.1409 -0.3115  0.6723
  152MOL0     C19955   5.504  -0.157   3.871  0.1405  0.1061 -0.2156
  152MOL0     O19956   5.497  -0.216   4.004  0.6790 -0.3464  0.9466
  152MOL0     C19957   5.410  -0.326   4.027  0.1640  0.2157  0.6356
  152MOL0     C19958   5.275  -0.306   4.022  0.7651  0.4195 -0.2082
  152MOL0     C19959   5.190  -0.407   4.058 -0.4098 -0.4783 -0.0923
  152MOL0     C19960   5.236  -0.543   4.067 -0.0221  0.4972 -0.6886
  152MOL0     C19961   5.128  -0.648   4.091  0.1616 -0.0815  0.1193
  152MOL0     O19962   5.165  -0.774   4.125 -0.0941  0.6314  0.7825
  152MOL0     C19963   5.080  -0.869   4.183 -0.5267 -0.1743 -0.2834
  152MOL0     C19964   5.056  -0.979   4.114 -0.1042  0.1989  0.6246
  152MOL0     C19965   4.969  -1.075   4.161  0.3744  1.4180  0.1229
  152MOL0     C19966   4.900  -1.052   4.280  0.0649 -0.4088  0.8066
  152MOL0     O19967   4.806  -1.149   4.312  0.1324 -0.5830  0.6523
  152MOL0     C19968   4.675  -1.094   4.332  0.0687  0.5646 -0.6234
  152MOL0     C19969   4.611  -1.187   4.441  0.4180  0.6355 -0.2963
  152MOL0     C19970   4.700  -1.194   4.564 -0.1535 -0.0054  0.3216
  152MOL0     C19971   4.640  -1.315   4.644  0.0006  0.3338  0.6555
  152MOL0     C19972   4.684  -1.293   4.786 -0.5766  0.8807  1.3728
  152MOL0     C19973   4.653  -1.414   4.869  0.7002 -0.8524 -0.2563
  152MOL0     C19974   4.702  -1.404   5.009 -0.2639  0.1098 -0.2220
  152MOL0     C19975   4.704  -1.533   5.088  0.3624  0.2661 -0.0350
  152MOL0    Cl19976   4.559  -1.640   5.082 -0.6803  0.2698 -0.2346
  152MOL0     C19977   4.917  -0.929   4.350  0.0073  1.2297  0.1817
  152MOL0     C19978   5.004  -0.835   4.300 -0.2478  0.5502 -0.0904
  152MOL0     O19979   5.013  -0.604   4.094 -0.1462 -0.3615  1.0344
  152MOL0     C19980   5.378  -0.567   4.057  0.6316  1.0010  0.2286
  152MOL0     C19981   5.465  -0.459   4.033 -0.2475 -0.0198 -0.0458
  152MOL0     N19982   5.557   0.148   3.450  0.3970  0.9360 -0.4395
  152MOL0     N19983   5.523   0.211   3.339  0.4508  0.6624  0.6878
  152MOL0     C19984   4.609   0.669   3.775 -0.4892 -0.9965  0.6579
  152MOL0     C19985   4.557   0.797   3.810 -0.9939 -0.5960 -0.6477
  152MOL0     C19986   4.268   1.123   3.931  0.2006  0.6114 -0.9055
  152MOL0     C19987   4.375   1.211   3.954 -0.5897  0.1465  1.0476
  152MOL0     C19988   4.357   1.332   4.023  0.6292 -0.5975 -0.2772
  152MOL0     C19989   4.232   1.366   4.074 -0.0931 -0.0867 -0.6045
  152MOL0     O19990   4.205   1.492   4.148  0.3151  0.1590 -0.4894
  152MOL0     C19991   4.309   1.562   4.207  0.4518  0.0806  0.5745
  152MOL0     C19992   4.259   1.703   4.261 -0.5290 -0.7377 -0.0880
  152MOL0     C19993   4.159   1.678   4.375 -0.4238  0.2969  0.3424
  152MOL0     C19994   4.107   1.809   4.422 -0.4154 -1.1064 -0.2224
  152MOL0     C19995   4.021   1.786   4.540  0.7876 -0.5280  0.2619
  152MOL0     C19996   3.937   1.764   4.626 -0.2615 -0.0568 -0.2229
  152MOL0     C19997   4.125   1.279   4.052  0.6655 -0.0565 -0.0499
  152MOL0     C19998   4.145   1.162   3.981 -0.2712 -1.4169  0.6307
  152MOL0     H19999   4.300   0.799   3.607 -0.0550 -0.4307 -0.3663
  152MOL0     H20000   4.406   0.586   3.533 -0.2962  1.0950  0.1038
  152MOL0     H20001   4.581   0.453   3.428 -0.3944 -0.7492  0.5268
  152MOL0     H20002   4.479   0.378   3.545 -1.0563  0.1118 -3.1834
  152MOL0     H20003   4.603   0.208   3.458  1.2844 -1.2842 -0.2782
  152MOL0     H20004   4.686   0.219   3.602 -0.1789 -0.2917 -0.4637
  152MOL0     H20005   4.860   0.377   3.509 -0.9997  0.9072 -0.5713
  152MOL0     H20006   4.769   0.381   3.356 -1.5192 -3.0217 -2.5421
  152MOL0     H20007   4.895   0.130   3.461  1.2443  1.1079  0.7666
  152MOL0     H20008   4.801   0.152   3.310  0.1569  0.8592 -0.1918
  152MOL0     H20009   5.069   0.307   3.387  2.9879  0.2784 -2.0185
  152MOL0     H20010   4.968   0.334   3.238 -1.0392  2.3956  1.6753
  152MOL0     H20011   5.014   0.105   3.170  0.8514  1.6333 -0.8785
  152MOL0     H20012   5.113   0.070   3.311  0.4068 -1.8750 -1.9035
  152MOL0     H20013   5.244   0.112   3.126  3.6293  1.8436  0.8227
  152MOL0     H20014   5.167   0.264   3.086 -0.5258  1.1652  0.6753
  152MOL0     H20015   5.255   0.388   3.282 -2.5102 -0.1914 -1.7799
  152MOL0     H20016   5.380   0.335   3.170 -2.4127  0.2891 -2.0411
  152MOL0     H20017   5.236   0.127   3.489  0.3075  2.1569  1.4688
  152MOL0     H20018   5.516  -0.093   3.609  0.5020 -0.3835  1.9863
  152MOL0     H20019   5.355  -0.059   3.601  0.5135  1.0927 -3.9615
  152MOL0     H20020   5.389   0.147   3.753  0.6521  0.8030 -0.3332
  152MOL0     H20021   5.555   0.115   3.792  0.2853 -2.2185  3.3250
  152MOL0     H20022   5.427   0.021   3.972 -0.1064 -1.0884  1.1315
  152MOL0     H20023   5.327  -0.061   3.848  0.5331  0.6869 -1.8300
  152MOL0     H20024   5.611  -0.139   3.870  0.5727 -2.0343  0.9806
  152MOL0     H20025   5.463  -0.230   3.800  0.4910  0.0767 -0.3873
  152MOL0     H20026   5.234  -0.205   4.028  4.1498  1.9056  0.3494
  152MOL0     H20027   5.090  -0.376   4.083 -0.7190 -0.9146 -0.7592
  152MOL0     H20028   5.121  -0.997   4.029  1.7716  2.7040  1.4183
  152MOL0     H20029   4.953  -1.168   4.109  1.8335  0.1302  1.8625
  152MOL0     H20030   4.616  -1.112   4.242  2.1346 -1.8319 -1.6193
  152MOL0     H20031   4.673  -0.989   4.363  0.3251 -0.4112  3.1188
  152MOL0     H20032   4.591  -1.287   4.402 -2.5274 -0.8927  4.3225
  152MOL0     H20033   4.513  -1.159   4.479  0.1832  1.2822 -1.3193
  152MOL0     H20034   4.694  -1.102   4.622 -0.2771  0.9611 -1.1665
  152MOL0     H20035   4.806  -1.219   4.550 -0.4367 -0.6002 -0.9544
  152MOL0     H20036   4.531  -1.317   4.644 -0.0392 -0.0697  2.6733
  152MOL0     H20037   4.670  -1.407   4.592  0.8933  1.5197 -1.0206
  152MOL0     H20038   4.631  -1.209   4.831 -0.4360  1.9532 -0.3865
  152MOL0     H20039   4.792  -1.273   4.788 -0.2329 -0.7116  0.6389
  152MOL0     H20040   4.696  -1.497   4.812  2.8475  1.0966 -1.6326
  152MOL0     H20041   4.544  -1.421   4.870  0.7901 -4.1020  1.0034
  152MOL0     H20042   4.803  -1.364   4.997 -0.8581  1.5152 -0.7624
  152MOL0     H20043   4.639  -1.330   5.060 -0.6816  0.7172 -1.5644
  152MOL0     H20044   4.719  -1.511   5.194  1.1455  1.8867 -0.4522
  152MOL0     H20045   4.794  -1.584   5.054 -1.2895 -0.9461 -2.9540
  152MOL0     H20046   4.873  -0.925   4.449  0.4153 -2.8026  0.6986
  152MOL0     H20047   5.005  -0.740   4.353 -3.9875  0.8855 -0.3166
  152MOL0     H20048   5.426  -0.663   4.071  0.4316  0.7283 -0.8482
  152MOL0     H20049   5.572  -0.470   4.024 -0.2486 -0.2561  0.2028
  152MOL0     H20050   4.706   0.643   3.814  1.1849  0.6818 -2.0759
  152MOL0     H20051   4.613   0.858   3.880  0.5666 -0.6923 -1.7603
  152MOL0     H20052   4.473   1.182   3.918 -1.0659  2.1203 -2.1472
  152MOL0     H20053   4.443   1.398   4.025  0.1402  0.1350 -2.1331
  152MOL0     H20054   4.393   1.590   4.143  0.2717 -1.8159 -0.5520
  152MOL0     H20055   4.345   1.498   4.288  1.1369 -1.2663 -0.7494
  152MOL0     H20056   4.345   1.758   4.299 -0.7981 -1.2228  1.3191
  152MOL0     H20057   4.206   1.757   4.182 -0.3493 -0.8139 -0.2622
  152MOL0     H20058   4.208   1.621   4.454  1.7137  2.5989  0.7836
  152MOL0     H20059   4.079   1.613   4.339  1.3485 -1.2464 -1.0410
  152MOL0     H20060   4.188   1.878   4.450 -1.1313 -0.7602  1.0684
  152MOL0     H20061   4.049   1.861   4.346  1.5101  2.8742  0.7325
  152MOL0     H20062   3.880   1.742   4.714  3.9850 -1.9821  2.3840
  152MOL0     H20063   4.025   1.304   4.085  0.4169 -0.1562 -0.7079
  152MOL0     H20064   4.048   1.115   3.983 -2.0340  1.9420  2.2136
  153MOL0     O20065   9.135   6.593   1.880  0.8368 -0.6940 -0.4044
  153MOL0     C20066   9.244   6.591   1.944 -0.0063 -0.2662 -0.5700
  153MOL0     O20067   9.354   6.671   1.920  0.1938 -0.8049  0.3986
  153MOL0     C20068   9.350   6.791   1.855  1.0854  0.4147 -0.1240
  153MOL0     C20069   9.473   6.854   1.823  0.5769  0.6562 -0.9028
  153MOL0     C20070   9.485   6.981   1.781  0.1973 -0.5695 -0.3745
  153MOL0     C20071   9.366   7.055   1.760 -0.1595 -0.7417  0.5193
  153MOL0     O20072   9.386   7.178   1.699 -0.3755  0.2611 -0.3860
  153MOL0     C20073   9.376   7.189   1.550 -0.3922 -0.1608 -0.0980
  153MOL0     C20074   9.245   7.267   1.517  0.1085 -0.3298  0.6435
  153MOL0     C20075   9.201   7.254   1.370 -0.1708 -0.8193  0.6436
  153MOL0     C20076   9.078   7.337   1.339 -0.3127  0.9701  0.2836
  153MOL0     C20077   9.040   7.319   1.189 -0.2576 -0.4428 -0.4559
  153MOL0     C20078   8.955   7.435   1.130 -0.8822  0.7374  0.0808
  153MOL0     C20079   8.828   7.462   1.210 -0.2063 -0.0799  0.1669
  153MOL0     C20080   8.741   7.566   1.128  0.9492  0.7714 -1.0078
  153MOL0     N20081   8.660   7.493   1.028  0.1342  0.1328  1.1270
  153MOL0     C20082   8.683   7.480   0.891  0.3218 -0.7264  0.4969
  153MOL0     C20083   8.577   7.415   0.840 -0.0308 -0.3079  0.4555
  153MOL0     C20084   8.549   7.383   0.697  0.1069  0.1222  0.4220
  153MOL0     C20085   8.594   7.504   0.614 -0.3481 -0.5061 -0.4051
  153MOL0     C20086   8.551   7.489   0.472 -0.4616  0.1804 -0.5518
  153MOL0     C20087   8.408   7.519   0.449  1.3899 -0.1607 -0.7385
  153MOL0     O20088   8.365   7.497   0.317  0.3226 -0.5090 -0.1866
  153MOL0     C20089   8.229   7.505   0.298  0.7697 -0.3565  0.0811
  153MOL0     C20090   8.184   7.468   0.169 -0.1703  0.1926  0.4375
  153MOL0     C20091   8.053   7.482   0.130 -0.7829 -0.0521  0.4899
  153MOL0     C20092   7.958   7.534   0.216 -0.2996 -0.1353 -0.1487
  153MOL0     C20093   7.816   7.558   0.175  1.3106  0.3493 -0.5275
  153MOL0     O20094   7.726   7.582   0.271  0.6915 -0.0098 -0.5752
  153MOL0     C20095   7.589   7.607   0.262  0.2924  0.1001  0.2743
  153MOL0     C20096   7.530   7.659   0.146 -0.5360  0.9563 -0.2424
  153MOL0     C20097   7.391   7.683   0.138 -0.0105  0.1639 -1.8676
  153MOL0     C20098   7.309   7.649   0.247  1.3375  0.9327 -0.1515
  153MOL0     O20099   7.175   7.687   0.230 -0.1957  0.1050 -0.9548
  153MOL0     C20100   7.091   7.659   0.341  0.5775  0.1446 -0.4810
  153MOL0     C20101   6.951   7.668   0.278 -0.3252 -0.0460  0.7742
  153MOL0     C20102   6.842   7.660   0.381 -0.5550  1.0617 -0.0045
  153MOL0     C20103   6.713   7.693   0.300 -0.0319  0.7284 -0.3367
  153MOL0     C20104   6.589   7.716   0.391  0.0835  0.4412  0.8938
  153MOL0     C20105   6.451   7.721   0.327  0.7610 -0.1850  0.3030
  153MOL0     C20106   6.417   7.625   0.211 -0.2717 -0.2383 -0.8503
  153MOL0     C20107   6.267   7.614   0.208 -0.2361  0.5863 -0.1877
  153MOL0    Cl20108   6.200   7.767   0.139  0.2072 -0.3350 -0.1667
  153MOL0     C20109   7.364   7.593   0.361 -0.2607  1.0457 -0.2288
  153MOL0     C20110   7.503   7.583   0.368 -0.5299 -0.5993  0.2332
  153MOL0     O20111   7.791   7.559   0.056 -1.2241 -0.8674 -0.0708
  153MOL0     C20112   8.000   7.567   0.346 -0.0099 -0.0781 -0.8614
  153MOL0     C20113   8.134   7.554   0.384  0.7538  0.4210 -0.8356
  153MOL0     N20114   8.475   7.404   0.938  0.0760 -0.1057 -1.4186
  153MOL0     N20115   8.538   7.443   1.051  0.1070 -0.1110  0.0094
  153MOL0     C20116   9.240   6.995   1.777 -1.1263  0.0889 -0.3140
  153MOL0     C20117   9.233   6.856   1.821  0.2696 -0.0639  0.3201
  153MOL0     C20118   9.258   6.495   2.048  0.6203  0.8935 -0.6893
  153MOL0     C20119   9.143   6.441   2.109  0.0787  0.1360  0.1307
  153MOL0     C20120   9.147   6.348   2.212 -0.8943  0.0415 -0.0905
  153MOL0     C20121   9.269   6.309   2.266 -0.2843 -0.6078  0.7863
  153MOL0     O20122   9.263   6.219   2.371 -0.7410 -0.3912 -0.1525
  153MOL0     C20123   9.380   6.208   2.454  0.4370 -0.2247  0.8938
  153MOL0     C20124   9.473   6.107   2.395 -0.2415  0.5574  0.6344
  153MOL0     C20125   9.413   5.968   2.408 -0.9630  0.0238  0.0141
  153MOL0     C20126   9.508   5.854   2.345  0.6345 -0.5770  0.3197
  153MOL0     C20127   9.642   5.851   2.410 -0.6871 -0.3514 -0.4629
  153MOL0     C20128   9.750   5.856   2.471  1.0200  0.3942  0.3715
  153MOL0     C20129   9.384   6.373   2.209  0.8881 -0.4695 -0.2786
  153MOL0     C20130   9.378   6.460   2.102 -0.0800  0.2624 -0.4658
  153MOL0     H20131   9.564   6.801   1.851  0.8274  0.6963 -1.5900
  153MOL0     H20132   9.577   7.035   1.764 -0.4890  0.5581 -0.6489
  153MOL0     H20133   9.384   7.086   1.514 -0.9690 -0.6747  1.1623
  153MOL0     H20134   9.459   7.253   1.517  0.0967  0.3550  1.9766
  153MOL0     H20135   9.268   7.372   1.538 -3.6233  1.6497 -3.4193
  153MOL0     H20136   9.156   7.242   1.575  0.2924  0.3290  1.2130
  153MOL0     H20137   9.178   7.148   1.358 -0.2119 -0.5472 -2.2073
  153MOL0     H20138   9.291   7.284   1.316 -2.0741  1.0741 -1.6839
  153MOL0     H20139   8.994   7.310   1.404 -0.3409  1.9230  0.6469
  153MOL0     H20140   9.101   7.440   1.367 -1.9890  1.6232 -0.5862
  153MOL0     H20141   8.982   7.229   1.169 -2.2430  0.6034  0.3202
  153MOL0     H20142   9.139   7.316   1.143  1.8370  1.6856  3.3873
  153MOL0     H20143   8.933   7.417   1.024  1.9814 -0.3899 -0.4182
  153MOL0     H20144   9.025   7.516   1.148 -0.1516  0.4727 -1.4116
  153MOL0     H20145   8.775   7.371   1.239 -0.0367 -0.4632 -0.6843
  153MOL0     H20146   8.859   7.520   1.298  0.4672 -3.7697  2.5791
  153MOL0     H20147   8.803   7.642   1.080 -1.3305  3.1226 -0.4305
  153MOL0     H20148   8.668   7.618   1.191 -0.0878  2.8261 -3.6927
  153MOL0     H20149   8.771   7.520   0.842  0.6550 -2.4739 -0.4143
  153MOL0     H20150   8.445   7.361   0.672 -0.9620  2.9296  1.9231
  153MOL0     H20151   8.613   7.300   0.667 -0.8035 -0.6354  0.5509
  153MOL0     H20152   8.703   7.499   0.607 -0.3788  0.7324 -2.3856
  153MOL0     H20153   8.568   7.604   0.651 -1.8446  0.0069 -2.6251
  153MOL0     H20154   8.607   7.560   0.412 -0.6842  0.6642 -0.1946
  153MOL0     H20155   8.573   7.391   0.427 -3.6016  0.1193 -2.2250
  153MOL0     H20156   8.383   7.621   0.480 -2.6231  0.1334 -4.1035
  153MOL0     H20157   8.355   7.449   0.514  2.0821 -2.0667 -2.1385
  153MOL0     H20158   8.240   7.447   0.078  0.8913  0.6892  0.9597
  153MOL0     H20159   8.028   7.470   0.024  1.1121 -2.3039  0.2177
  153MOL0     H20160   7.586   7.691   0.059 -2.0529  1.4280 -1.0805
  153MOL0     H20161   7.346   7.726   0.049  0.1206 -0.3054 -2.1681
  153MOL0     H20162   7.103   7.732   0.420  0.4423  1.4901 -1.6625
  153MOL0     H20163   7.117   7.561   0.382  2.8022 -0.0022 -2.0404
  153MOL0     H20164   6.938   7.599   0.194  1.5912 -0.8838  1.1071
  153MOL0     H20165   6.935   7.764   0.227 -0.1403  0.7156  2.0948
  153MOL0     H20166   6.866   7.736   0.456  1.1578  0.0704  0.5058
  153MOL0     H20167   6.836   7.567   0.438  2.4247  1.7209  1.5729
  153MOL0     H20168   6.729   7.775   0.230  0.9145  2.2247  1.5506
  153MOL0     H20169   6.693   7.609   0.232  3.7335  0.4461 -1.3500
  153MOL0     H20170   6.593   7.810   0.447 -1.8079  0.2492  1.4075
  153MOL0     H20171   6.582   7.639   0.468 -1.5574 -0.7799 -0.4015
  153MOL0     H20172   6.457   7.823   0.288 -0.3919 -0.6423 -1.1951
  153MOL0     H20173   6.383   7.710   0.412 -0.3679  2.1352 -0.2303
  153MOL0     H20174   6.446   7.676   0.118 -0.6780  0.0461 -0.8259
  153MOL0     H20175   6.467   7.529   0.224 -1.2022 -0.7333 -0.8736
  153MOL0     H20176   6.226   7.600   0.308  3.0055 -0.3841  1.1437
  153MOL0     H20177   6.244   7.525   0.148 -1.8609  0.2149  0.9272
  153MOL0     H20178   7.310   7.573   0.454  0.9251  0.7841  0.4193
  153MOL0     H20179   7.549   7.550   0.460  1.3250 -1.3403 -0.8892
  153MOL0     H20180   7.931   7.613   0.416  1.7715  3.0818 -1.0163
  153MOL0     H20181   8.155   7.602   0.480 -1.5619 -0.0164 -0.0454
  153MOL0     H20182   9.150   7.045   1.743 -0.3897  2.3675  0.9184
  153MOL0     H20183   9.134   6.821   1.847 -0.9896  2.0672 -1.3483
  153MOL0     H20184   9.044   6.463   2.071 -0.9798  0.1737  2.6639
  153MOL0     H20185   9.058   6.301   2.253  0.8653 -1.2305  2.5892
  153MOL0     H20186   9.337   6.169   2.546 -0.6264 -1.0739  0.0749
  153MOL0     H20187   9.424   6.305   2.482 -2.8146  2.0522 -1.1143
  153MOL0     H20188   9.507   6.119   2.292  1.1088  0.2660  1.0228
  153MOL0     H20189   9.571   6.110   2.444  0.0213 -2.6853  0.5370
  153MOL0     H20190   9.313   5.950   2.367 -1.4509  1.1998  0.6241
  153MOL0     H20191   9.389   5.941   2.511 -3.2102  1.3557 -0.0959
  153MOL0     H20192   9.455   5.758   2.343  1.6742 -1.1667 -0.8526
  153MOL0     H20193   9.513   5.882   2.239 -0.7972 -1.4755 -0.0162
  153MOL0     H20194   9.849   5.862   2.512  0.5851  0.0124  1.5292
  153MOL0     H20195   9.478   6.362   2.262  1.7032  1.9604 -1.0786
  153MOL0     H20196   9.468   6.504   2.060 -0.4640  1.5142 -0.0149
  154MOL0     O20197   5.871   4.951   5.928  0.5472  0.8297  0.4755
  154MOL0     C20198   5.802   4.917   6.021  0.2373 -0.1343  0.0190
  154MOL0     O20199   5.759   4.797   6.051 -0.4151 -0.0709 -0.0696
  154MOL0     C20200   5.789   4.691   5.963  0.0789 -0.6391 -0.4610
  154MOL0     C20201   5.728   4.684   5.837  0.0902 -0.3968  0.1175
  154MOL0     C20202   5.757   4.573   5.755  0.0470 -1.3505 -0.6117
  154MOL0     C20203   5.856   4.483   5.787 -0.4793  0.4903 -0.4406
  154MOL0     O20204   5.910   4.374   5.711  1.0047  0.2374 -0.6578
  154MOL0     C20205   5.806   4.327   5.629 -0.0498 -0.0327  0.1194
  154MOL0     C20206   5.857   4.187   5.582  0.4318  0.8829  0.0374
  154MOL0     C20207   5.739   4.116   5.511 -0.1199  0.2848 -0.3608
  154MOL0     C20208   5.790   3.997   5.436  0.0946 -0.4260 -0.6461
  154MOL0     C20209   5.676   3.922   5.359  0.0207 -0.3182 -0.5459
  154MOL0     C20210   5.732   3.782   5.317  0.3218  0.3472  0.4159
  154MOL0     C20211   5.856   3.790   5.215  0.2289  0.8702  0.6113
  154MOL0     C20212   5.899   3.646   5.184  0.4292 -0.1088 -0.2885
  154MOL0     N20213   5.982   3.635   5.063  0.5146 -0.7604 -0.3927
  154MOL0     C20214   5.948   3.672   4.940  0.4313 -0.7051 -0.1539
  154MOL0     C20215   6.063   3.659   4.861 -0.1609 -0.9076 -1.2919
  154MOL0     C20216   6.074   3.697   4.719  0.3584  0.5543  0.7307
  154MOL0     C20217   6.119   3.577   4.633 -0.1590  0.5490 -0.5794
  154MOL0     C20218   6.108   3.599   4.488 -0.8546 -0.3396 -0.0872
  154MOL0     C20219   6.196   3.711   4.431  0.8443 -0.3962  0.0299
  154MOL0     O20220   6.220   3.715   4.292  0.8666  0.2614  0.0005
  154MOL0     C20221   6.108   3.740   4.213  0.7528 -0.5732 -0.2670
  154MOL0     C20222   6.094   3.656   4.102  0.1307  0.2569 -0.2113
  154MOL0     C20223   5.992   3.665   4.010 -0.5403 -0.2522 -0.2743
  154MOL0     C20224   5.895   3.767   4.028 -0.9011 -1.0062  0.0125
  154MOL0     C20225   5.785   3.777   3.930 -0.2501  0.3877 -0.2417
  154MOL0     O20226   5.772   3.669   3.850  0.2734 -0.5203 -0.8382
  154MOL0     C20227   5.675   3.664   3.752  0.2160 -0.6530  0.5086
  154MOL0     C20228   5.615   3.772   3.670 -0.3192  0.3236 -0.0128
  154MOL0     C20229   5.508   3.752   3.585  0.2643 -0.9456 -0.1732
  154MOL0     C20230   5.469   3.618   3.550 -0.4832  0.0849 -0.4243
  154MOL0     O20231   5.382   3.588   3.455  0.5917  0.0758  0.0716
  154MOL0     C20232   5.411   3.474   3.373  0.4103 -0.4148  0.3280
  154MOL0     C20233   5.320   3.478   3.256  0.2665 -0.3433  0.0778
  154MOL0     C20234   5.353   3.575   3.135 -0.0528  0.1473  0.4916
  154MOL0     C20235   5.244   3.578   3.032 -0.4197  0.0122 -0.0639
  154MOL0     C20236   5.297   3.658   2.912 -0.6414 -0.6148  0.1514
  154MOL0     C20237   5.208   3.658   2.783 -0.7668 -0.2441 -0.7017
  154MOL0     C20238   5.287   3.767   2.689  0.4489  0.5359 -0.6216
  154MOL0     C20239   5.227   3.763   2.552 -0.4749  0.4914 -0.3311
  154MOL0    Cl20240   5.300   3.866   2.424 -0.2864 -0.4588  0.1664
  154MOL0     C20241   5.535   3.515   3.619 -1.6035 -0.1441 -0.3674
  154MOL0     C20242   5.636   3.532   3.714 -0.3827 -0.1086  1.1867
  154MOL0     O20243   5.703   3.861   3.950  0.3227  0.2473  0.4469
  154MOL0     C20244   5.908   3.855   4.132  0.0023  0.2832  0.3447
  154MOL0     C20245   6.017   3.842   4.219  0.4201 -0.2293 -0.5261
  154MOL0     N20246   6.161   3.624   4.958 -0.2724 -0.4921  0.7083
  154MOL0     N20247   6.114   3.608   5.073  0.2230 -0.0598  0.8590
  154MOL0     C20248   5.917   4.485   5.916  0.1659  0.1095  0.3127
  154MOL0     C20249   5.886   4.589   6.000 -0.0058 -0.1502  0.4897
  154MOL0     C20250   5.752   5.029   6.115 -0.7235 -0.4227 -0.8539
  154MOL0     C20251   5.739   5.159   6.073  0.1269 -0.8202 -0.2693
  154MOL0     C20252   5.710   5.267   6.160  0.6714  0.4260  0.2882
  154MOL0     C20253   5.693   5.231   6.293 -0.0470 -0.2609  0.2676
  154MOL0     O20254   5.658   5.334   6.378 -0.1392  0.2431  0.4768
  154MOL0     C20255   5.570   5.298   6.486  0.1944 -0.8360 -1.2502
  154MOL0     C20256   5.524   5.426   6.574  1.0905  0.1491 -0.2981
  154MOL0     C20257   5.423   5.505   6.496 -0.3923 -0.0489  0.0908
  154MOL0     C20258   5.353   5.625   6.567 -0.6539 -0.0323  0.4560
  154MOL0     C20259   5.442   5.730   6.601 -0.2345  0.5910  0.5992
  154MOL0     C20260   5.525   5.811   6.628  0.3050 -0.8520 -0.1862
  154MOL0     C20261   5.718   5.097   6.332 -0.5454  0.3860 -0.1696
  154MOL0     C20262   5.748   4.997   6.244  0.2734 -0.3653 -0.6379
  154MOL0     H20263   5.656   4.761   5.810 -0.4766 -1.0633 -0.3399
  154MOL0     H20264   5.703   4.560   5.661 -0.1581 -0.6861 -0.5948
  154MOL0     H20265   5.794   4.387   5.538  2.0104 -2.9173 -2.2804
  154MOL0     H20266   5.707   4.313   5.672 -1.7194 -3.9466 -4.1026
  154MOL0     H20267   5.907   4.137   5.666  1.4469  2.2787  0.2872
  154MOL0     H20268   5.935   4.204   5.508 -0.0533  1.2911 -0.3819
  154MOL0     H20269   5.683   4.179   5.441 -0.4135 -0.1314 -0.5000
  154MOL0     H20270   5.665   4.083   5.584  0.2543 -1.7819 -0.8631
  154MOL0     H20271   5.864   4.031   5.364  0.5170  0.8969  0.3611
  154MOL0     H20272   5.833   3.933   5.514 -2.7713 -0.6893  0.8590
  154MOL0     H20273   5.632   3.978   5.276 -1.1298 -0.8762 -0.3369
  154MOL0     H20274   5.589   3.901   5.423  0.2616 -0.0660 -0.1271
  154MOL0     H20275   5.652   3.721   5.272 -0.5979  1.3090  0.7089
  154MOL0     H20276   5.777   3.734   5.405  2.1891  0.8356 -0.2313
  154MOL0     H20277   5.806   3.840   5.132  0.1244 -0.4784 -0.1686
  154MOL0     H20278   5.940   3.840   5.265 -1.3245  4.8413 -0.3636
  154MOL0     H20279   5.821   3.571   5.171  1.7466 -1.8022  1.1224
  154MOL0     H20280   5.964   3.613   5.266  0.2655  1.3035  0.4527
  154MOL0     H20281   5.864   3.727   4.900  1.0502  1.8556  1.8065
  154MOL0     H20282   6.145   3.779   4.711  0.6861  0.4562  2.2951
  154MOL0     H20283   5.972   3.723   4.687 -0.2335 -1.3316  0.9873
  154MOL0     H20284   6.069   3.486   4.668  3.1328 -0.4408  2.2139
  154MOL0     H20285   6.226   3.557   4.648  0.1342  0.5514 -2.4524
  154MOL0     H20286   6.129   3.504   4.437  2.5129  0.9042 -1.2792
  154MOL0     H20287   6.005   3.623   4.460 -2.3492 -6.4796 -1.4273
  154MOL0     H20288   6.294   3.702   4.478  2.6050 -1.0252 -3.4175
  154MOL0     H20289   6.161   3.812   4.456  1.5702  0.6011 -2.6214
  154MOL0     H20290   6.157   3.570   4.081 -3.7611 -2.7285 -0.8998
  154MOL0     H20291   5.998   3.591   3.931  2.5946  0.0536 -0.4691
  154MOL0     H20292   5.641   3.877   3.684 -0.5138  0.6678 -1.8766
  154MOL0     H20293   5.454   3.841   3.553 -0.8153 -0.5469  2.4640
  154MOL0     H20294   5.394   3.377   3.421 -2.0722 -1.6097 -2.6379
  154MOL0     H20295   5.514   3.489   3.340 -0.0421  1.8654 -0.2162
  154MOL0     H20296   5.220   3.504   3.293  1.5482  2.3899  2.0024
  154MOL0     H20297   5.308   3.375   3.220 -2.1579 -0.2162  0.3459
  154MOL0     H20298   5.450   3.540   3.097  0.6338 -2.7744  4.2866
  154MOL0     H20299   5.371   3.671   3.185 -3.3604  0.5819  1.0860
  154MOL0     H20300   5.219   3.479   2.992  1.9618 -0.8139  0.3694
  154MOL0     H20301   5.150   3.623   3.066 -0.4882 -1.5582  2.0146
  154MOL0     H20302   5.392   3.618   2.875 -0.8684  2.0615 -3.8577
  154MOL0     H20303   5.312   3.760   2.951 -1.2994  0.0246 -1.2161
  154MOL0     H20304   5.105   3.690   2.802 -0.6630 -0.7714  0.8296
  154MOL0     H20305   5.196   3.564   2.729 -2.6679 -1.6120  1.9299
  154MOL0     H20306   5.305   3.869   2.723 -1.0936  1.4033 -2.2498
  154MOL0     H20307   5.389   3.729   2.677  0.4761  0.3640  0.1122
  154MOL0     H20308   5.119   3.773   2.545 -0.7759 -1.3342  1.2158
  154MOL0     H20309   5.246   3.662   2.513  1.2690  0.9420 -0.7642
  154MOL0     H20310   5.523   3.408   3.611 -0.4311 -0.4218  1.0664
  154MOL0     H20311   5.689   3.450   3.762  2.4543  1.6555  1.2540
  154MOL0     H20312   5.833   3.933   4.146  0.9545  0.8576  2.7449
  154MOL0     H20313   6.038   3.909   4.302  0.5417  1.2818 -1.7244
  154MOL0     H20314   6.002   4.421   5.938 -1.6235 -2.6211 -0.1821
  154MOL0     H20315   5.915   4.594   6.104 -0.6170  0.0930  0.6553
  154MOL0     H20316   5.759   5.175   5.968 -2.0037 -1.4097 -0.8080
  154MOL0     H20317   5.694   5.364   6.114 -4.6513 -1.2694 -2.2394
  154MOL0     H20318   5.630   5.231   6.548  0.4690 -1.4812 -2.1844
  154MOL0     H20319   5.493   5.232   6.444 -0.5608 -1.5133  1.0540
  154MOL0     H20320   5.471   5.382   6.659  1.0756 -0.6608 -0.7145
  154MOL0     H20321   5.611   5.482   6.608 -1.4246  2.0656  3.7883
  154MOL0     H20322   5.339   5.439   6.472 -0.6972 -0.2640  1.6540
  154MOL0     H20323   5.472   5.540   6.405  1.7199 -2.0842  0.3655
  154MOL0     H20324   5.274   5.667   6.505 -0.6042 -0.6662 -0.0524
  154MOL0     H20325   5.317   5.590   6.665  1.1907 -1.3097  0.7268
  154MOL0     H20326   5.591   5.892   6.650 -1.0982  0.6079 -1.2063
  154MOL0     H20327   5.719   5.066   6.436  1.1342 -1.4161 -0.6746
  154MOL0     H20328   5.778   4.901   6.285  3.4161  1.1208  0.9427
  155MOL0     O20329   1.498   2.571   8.500  0.3707 -0.0349  0.6077
  155MOL0     C20330   1.577   2.606   8.416  0.0872 -0.4921 -0.0450
  155MOL0     O20331   1.690   2.684   8.429  0.0374  0.6252  0.2398
  155MOL0     C20332   1.734   2.746   8.545 -1.3391  0.9522 -0.4315
  155MOL0     C20333   1.819   2.861   8.532 -0.9338  0.1461 -0.3688
  155MOL0     C20334   1.878   2.914   8.641 -0.1112 -0.7619 -0.5707
  155MOL0     C20335   1.856   2.870   8.769 -0.3207  1.3589  0.2765
  155MOL0     O20336   1.928   2.937   8.865 -0.1480  0.5565 -0.2285
  155MOL0     C20337   1.895   2.914   9.003 -0.8289 -0.5834 -0.0738
  155MOL0     C20338   1.971   3.002   9.101 -0.0486 -0.0471  0.2308
  155MOL0     C20339   1.955   3.142   9.068  0.7310 -0.7032  0.8770
  155MOL0     C20340   1.842   3.220   9.150 -0.8533  0.6561  0.0210
  155MOL0     C20341   1.857   3.202   9.302 -0.3914 -1.2721 -0.1110
  155MOL0     C20342   1.788   3.325   9.370 -0.2885  0.0842 -0.2023
  155MOL0     C20343   1.810   3.314   9.522  0.1557  1.1556  0.4620
  155MOL0     C20344   1.746   3.432   9.581 -0.2855 -0.4235 -0.0016
  155MOL0     N20345   1.602   3.430   9.598 -0.2014  0.5909  0.9545
  155MOL0     C20346   1.529   3.327   9.654 -0.7480  0.4309 -1.5923
  155MOL0     C20347   1.402   3.373   9.654 -0.5770 -0.3398 -0.2984
  155MOL0     C20348   1.288   3.306   9.731  0.5178  0.3297 -0.7272
  155MOL0     C20349   1.247   3.176   9.648 -0.0439 -1.2197 -0.2222
  155MOL0     C20350   1.253   3.193   9.491  1.3348  0.8756  0.3909
  155MOL0     C20351   1.129   3.133   9.432  0.0413 -0.6511  0.1069
  155MOL0     O20352   1.149   3.004   9.398  0.0758 -0.5454  0.3929
  155MOL0     C20353   1.152   2.906   9.498 -0.4641  0.4893 -0.4525
  155MOL0     C20354   1.268   2.829   9.514 -0.1921  0.0662 -0.0147
  155MOL0     C20355   1.280   2.733   9.618  0.1139 -0.0556  0.1961
  155MOL0     C20356   1.190   2.731   9.729  0.2275  0.2916  0.0755
  155MOL0     C20357   1.194   2.645   9.847 -1.2682 -0.1170  0.4334
  155MOL0     O20358   1.324   2.616   9.885  0.4742  0.1319 -0.1712
  155MOL0     C20359   1.332   2.536   9.995 -0.3398 -0.7154 -1.0853
  155MOL0     C20360   1.304   2.395  10.000 -0.2281  0.6518 -0.2652
  155MOL0     C20361   1.344   2.314  10.105 -0.1418 -0.5386 -0.4341
  155MOL0     C20362   1.379   2.380  10.224  0.0170 -0.5269  0.6998
  155MOL0     O20363   1.394   2.297  10.331 -0.4416 -0.0822 -0.2364
  155MOL0     C20364   1.393   2.351  10.470 -0.3962  0.6389 -0.3426
  155MOL0     C20365   1.441   2.233  10.569  0.1540 -0.0909 -0.0758
  155MOL0     C20366   1.565   2.155  10.517  0.1848  0.1529  0.0678
  155MOL0     C20367   1.606   2.066  10.633 -0.7240  1.2419  0.5604
  155MOL0     C20368   1.742   1.993  10.601  0.1494 -0.2696  0.2362
  155MOL0     C20369   1.729   1.844  10.574  0.1970 -1.2918  0.3582
  155MOL0     C20370   1.865   1.790  10.527  1.0688 -1.0519 -0.0117
  155MOL0     C20371   1.996   1.873  10.559 -0.6964 -0.9647  0.3666
  155MOL0    Cl20372   2.142   1.778  10.507 -0.0635 -0.2028 -0.2088
  155MOL0     C20373   1.391   2.520  10.228  0.2887  0.3635 -0.7527
  155MOL0     C20374   1.371   2.599  10.113 -0.2376 -0.1893 -0.5102
  155MOL0     O20375   1.097   2.616   9.921 -0.0007  0.0196 -0.0909
  155MOL0     C20376   1.080   2.822   9.713 -0.0073  0.0579 -0.0567
  155MOL0     C20377   1.063   2.906   9.601 -0.7195  0.0851  0.0217
  155MOL0     N20378   1.393   3.496   9.588 -0.5987 -0.3246 -0.1998
  155MOL0     N20379   1.510   3.525   9.550  0.3950  0.0986  0.3605
  155MOL0     C20380   1.782   2.752   8.784  0.2402 -0.1635 -0.1023
  155MOL0     C20381   1.718   2.696   8.676  0.4477 -0.5369 -0.3990
  155MOL0     C20382   1.547   2.560   8.280  0.9064 -0.4565  0.9608
  155MOL0     C20383   1.651   2.566   8.180 -0.1737 -0.4449  0.0896
  155MOL0     C20384   1.631   2.507   8.049  0.8517  0.5015  1.1700
  155MOL0     C20385   1.498   2.457   8.007 -0.7435 -1.2132  0.2951
  155MOL0     O20386   1.482   2.391   7.888  0.1547 -0.3092  0.3964
  155MOL0     C20387   1.361   2.423   7.820 -0.8275  0.7655  0.5366
  155MOL0     C20388   1.264   2.313   7.824 -1.1496  0.4705 -0.1739
  155MOL0     C20389   1.324   2.173   7.787 -0.1364  0.1927 -0.9836
  155MOL0     C20390   1.364   2.098   7.908 -0.4530  0.6151  0.1437
  155MOL0     C20391   1.231   2.039   7.959 -0.9253  0.4606 -0.5022
  155MOL0     C20392   1.127   1.999   7.999  0.4813 -0.1408  0.3577
  155MOL0     C20393   1.403   2.445   8.117  0.8022 -0.3867 -0.0524
  155MOL0     C20394   1.424   2.499   8.247  0.1253 -0.1477  0.0906
  155MOL0     H20395   1.845   2.901   8.434  0.5284 -0.6994 -0.3492
  155MOL0     H20396   1.936   3.005   8.632 -1.5934  0.5364  2.0066
  155MOL0     H20397   1.923   2.810   9.022  3.0766  0.1690 -0.8124
  155MOL0     H20398   1.790   2.930   9.030 -0.4981 -1.5320  1.9641
  155MOL0     H20399   2.078   2.981   9.093 -0.0283 -0.0536  0.4974
  155MOL0     H20400   1.934   2.976   9.201 -1.3975 -0.1052 -0.2634
  155MOL0     H20401   1.929   3.154   8.962  1.8823 -0.9089  0.5567
  155MOL0     H20402   2.046   3.198   9.088  0.2671  0.2069  0.4937
  155MOL0     H20403   1.852   3.327   9.127  1.4798  0.4186 -0.3143
  155MOL0     H20404   1.743   3.188   9.117 -1.1225  2.2717 -0.8432
  155MOL0     H20405   1.963   3.202   9.331 -0.5895  0.7308  0.7752
  155MOL0     H20406   1.803   3.112   9.334 -3.0951  0.1818 -0.2912
  155MOL0     H20407   1.682   3.328   9.345  0.0731 -2.6269 -2.4948
  155MOL0     H20408   1.833   3.414   9.326  2.5735 -0.8263  0.6263
  155MOL0     H20409   1.770   3.219   9.557  2.6605 -0.1511 -0.0293
  155MOL0     H20410   1.917   3.296   9.533 -0.1157 -1.3941 -0.4131
  155MOL0     H20411   1.769   3.522   9.524 -1.5524 -0.2785 -0.3088
  155MOL0     H20412   1.774   3.429   9.687 -0.6683 -2.0007  0.0879
  155MOL0     H20413   1.558   3.229   9.691  2.3392  1.8977  0.2780
  155MOL0     H20414   1.201   3.371   9.741 -0.0202 -0.5512  0.5981
  155MOL0     H20415   1.323   3.272   9.829 -0.1787  1.7962  0.0613
  155MOL0     H20416   1.141   3.156   9.671 -0.9424  0.9724 -2.0394
  155MOL0     H20417   1.292   3.080   9.676 -1.1604 -0.8872  3.1277
  155MOL0     H20418   1.242   3.299   9.465 -2.4261  1.1977  2.4964
  155MOL0     H20419   1.338   3.153   9.434 -0.4718  1.7070 -3.2207
  155MOL0     H20420   1.101   3.177   9.336  2.6861  5.7951  1.7535
  155MOL0     H20421   1.042   3.143   9.497  1.3820  1.0905  1.7398
  155MOL0     H20422   1.347   2.827   9.440  0.9585 -1.9540  1.1927
  155MOL0     H20423   1.366   2.667   9.624  0.1376 -0.5221 -3.2041
  155MOL0     H20424   1.271   2.346   9.908  0.9443  0.0453 -0.3866
  155MOL0     H20425   1.349   2.206  10.093 -1.0545 -0.5449 -0.8284
  155MOL0     H20426   1.287   2.370  10.491 -0.3891  0.8613 -0.5128
  155MOL0     H20427   1.457   2.439  10.471  1.1185 -0.3945 -1.5677
  155MOL0     H20428   1.354   2.174  10.597 -1.1287  1.0638 -1.4966
  155MOL0     H20429   1.471   2.293  10.656 -3.6909  1.8594  0.1031
  155MOL0     H20430   1.656   2.216  10.509  0.7090 -0.8169 -2.1860
  155MOL0     H20431   1.545   2.107  10.421 -2.8342 -1.2190  1.2468
  155MOL0     H20432   1.621   2.116  10.729  1.2070  1.9245 -0.0607
  155MOL0     H20433   1.529   1.989  10.639 -0.4985  1.0554  1.0507
  155MOL0     H20434   1.813   2.012  10.683  0.2354 -2.0351  0.6102
  155MOL0     H20435   1.787   2.036  10.511  0.9095 -2.0764 -0.3000
  155MOL0     H20436   1.646   1.827  10.506 -0.8120  1.1322  0.8910
  155MOL0     H20437   1.701   1.785  10.661  1.2430 -0.8864  0.9989
  155MOL0     H20438   1.886   1.691  10.568  2.2744 -0.6789  0.3054
  155MOL0     H20439   1.857   1.768  10.420 -0.5473 -1.5093  0.1761
  155MOL0     H20440   1.998   1.908  10.662 -2.4048  1.3466 -0.2776
  155MOL0     H20441   1.992   1.958  10.490 -1.2605 -3.0186 -2.3120
  155MOL0     H20442   1.420   2.573  10.319 -2.7303 -3.0458  2.5264
  155MOL0     H20443   1.392   2.706  10.105  1.3887 -0.5087 -0.8092
  155MOL0     H20444   1.011   2.848   9.792  0.1858 -1.6548  0.7235
  155MOL0     H20445   0.971   2.962   9.612 -1.6561 -1.5012  0.5459
  155MOL0     H20446   1.767   2.704   8.881 -0.9955 -2.6715 -1.4184
  155MOL0     H20447   1.659   2.605   8.679  0.7627 -0.7249  1.2654
  155MOL0     H20448   1.747   2.608   8.206 -1.1346  2.2032 -0.3390
  155MOL0     H20449   1.707   2.515   7.972  0.0252  1.3714  0.4138
  155MOL0     H20450   1.380   2.455   7.717 -1.8308  3.0601  0.9830
  155MOL0     H20451   1.319   2.512   7.868  1.8742  1.5832  1.5972
  155MOL0     H20452   1.213   2.304   7.921 -3.1570 -2.8854 -1.3648
  155MOL0     H20453   1.183   2.340   7.756 -1.0333  0.6013 -0.2577
  155MOL0     H20454   1.421   2.189   7.739  0.4401  1.0141  0.3836
  155MOL0     H20455   1.250   2.113   7.733 -3.0107  3.4035 -0.9957
  155MOL0     H20456   1.429   2.020   7.868  0.5695  0.2861  2.2910
  155MOL0     H20457   1.413   2.149   7.992 -2.1808 -0.9637  2.2442
  155MOL0     H20458   1.027   1.972   8.026  0.6874 -3.2833 -1.5139
  155MOL0     H20459   1.311   2.389   8.100 -0.1908  0.4020  2.3519
  155MOL0     H20460   1.345   2.475   8.317 -0.6041  2.7297  0.3691
  156MOL0     O20461   0.394   3.309   6.349 -0.0603  0.7215 -0.6174
  156MOL0     C20462   0.403   3.185   6.336  0.0245 -0.6432 -0.7018
  156MOL0     O20463   0.336   3.105   6.249  0.1410  0.4369  0.4280
  156MOL0     C20464   0.246   3.162   6.159  0.8359  0.9616 -0.2619
  156MOL0     C20465   0.109   3.115   6.158  0.5264  0.6770 -0.5442
  156MOL0     C20466   0.011   3.185   6.080 -0.3528 -0.0629 -0.8459
  156MOL0     C20467   0.040   3.286   5.993 -1.0733  0.0277 -0.3187
  156MOL0     O20468  -0.067   3.335   5.925  0.1687  0.5353 -0.5192
  156MOL0     C20469  -0.053   3.455   5.843  0.2767 -0.7415  0.4470
  156MOL0     C20470  -0.097   3.589   5.904 -0.1673  0.2303  0.6939
  156MOL0     C20471  -0.243   3.598   5.921  0.7012  0.1143  0.1418
  156MOL0     C20472  -0.306   3.674   5.805 -0.3577  0.0470  0.1164
  156MOL0     C20473  -0.454   3.668   5.787 -1.1400 -0.0368  0.2330
  156MOL0     C20474  -0.507   3.782   5.697  0.0981 -0.3228  0.7864
  156MOL0     C20475  -0.644   3.746   5.624 -0.1544 -0.1185 -0.3805
  156MOL0     C20476  -0.770   3.747   5.711 -0.1725 -0.4069  0.1903
  156MOL0     N20477  -0.777   3.627   5.800  0.2418 -0.4929  0.0549
  156MOL0     C20478  -0.769   3.637   5.933 -0.6351 -0.2150  0.3604
  156MOL0     C20479  -0.834   3.530   5.983 -0.2357 -0.1581 -0.4682
  156MOL0     C20480  -0.875   3.496   6.130 -1.1293 -0.4451  0.2355
  156MOL0     C20481  -0.754   3.492   6.221 -0.1720 -0.2033  0.0927
  156MOL0     C20482  -0.796   3.489   6.368 -0.8557 -0.3982  0.2541
  156MOL0     C20483  -0.680   3.491   6.460 -1.1382 -0.0184  0.5558
  156MOL0     O20484  -0.612   3.364   6.451  0.0051  0.1683 -0.4148
  156MOL0     C20485  -0.534   3.339   6.569  0.0597  0.0363 -0.0163
  156MOL0     C20486  -0.564   3.387   6.697  0.6130  0.3628 -0.9258
  156MOL0     C20487  -0.494   3.353   6.808  0.3670 -0.4916 -0.9830
  156MOL0     C20488  -0.374   3.276   6.789  0.4323  0.4473  0.7341
  156MOL0     C20489  -0.288   3.252   6.914  1.7191  0.8580  0.8457
  156MOL0     O20490  -0.173   3.173   6.891 -0.1786  0.4747 -0.3949
  156MOL0     C20491  -0.075   3.155   6.986  0.5735  0.4670 -0.2787
  156MOL0     C20492   0.002   3.036   6.977  0.6025 -1.0182 -0.4589
  156MOL0     C20493   0.121   3.029   7.055  0.6547 -0.1051 -0.0312
  156MOL0     C20494   0.151   3.117   7.161  0.0327 -0.9103 -0.2113
  156MOL0     O20495   0.250   3.076   7.242  0.1516 -0.5059  0.2617
  156MOL0     C20496   0.291   3.178   7.340 -1.0098 -0.7308  0.0338
  156MOL0     C20497   0.384   3.125   7.457 -0.3477 -0.5310 -0.1502
  156MOL0     C20498   0.524   3.130   7.403  1.0011  0.7960  0.3973
  156MOL0     C20499   0.625   3.081   7.506  0.2687 -0.6738  0.3963
  156MOL0     C20500   0.778   3.084   7.462  0.0340 -0.0625 -0.6385
  156MOL0     C20501   0.875   3.035   7.572 -0.1538  0.4592  0.6004
  156MOL0     C20502   0.874   2.889   7.618 -0.2088 -0.0445  0.0563
  156MOL0     C20503   0.989   2.856   7.714 -0.6986  0.3290 -0.4104
  156MOL0    Cl20504   1.037   2.680   7.691 -0.1888  0.2691 -0.4551
  156MOL0     C20505   0.081   3.242   7.158 -1.1448  0.3375  0.3650
  156MOL0     C20506  -0.033   3.252   7.078 -0.0319 -0.1074  0.8786
  156MOL0     O20507  -0.322   3.306   7.016  0.5303 -0.6584 -0.4342
  156MOL0     C20508  -0.334   3.227   6.660 -0.1393 -1.2307  0.5761
  156MOL0     C20509  -0.417   3.256   6.549 -0.6562 -0.6211  0.5800
  156MOL0     N20510  -0.884   3.463   5.877 -0.2601 -1.0172  0.5098
  156MOL0     N20511  -0.842   3.509   5.762 -0.6154 -0.0404 -0.1011
  156MOL0     C20512   0.175   3.319   5.994  0.4485  0.4981  0.6475
  156MOL0     C20513   0.279   3.255   6.066 -0.6000  0.3273 -0.4683
  156MOL0     C20514   0.515   3.113   6.417  0.0685 -1.2862 -0.6667
  156MOL0     C20515   0.621   3.193   6.475 -0.2256  0.0664 -0.9397
  156MOL0     C20516   0.733   3.125   6.534  0.7367 -0.4030  0.2727
  156MOL0     C20517   0.740   2.992   6.553 -0.3885 -0.7268  0.3645
  156MOL0     O20518   0.835   2.928   6.625 -0.3248  0.5396  0.0640
  156MOL0     C20519   0.944   3.012   6.672  0.0890  0.2756  0.3680
  156MOL0     C20520   1.053   2.929   6.731  0.9158  0.5800 -0.0691
  156MOL0     C20521   1.110   2.826   6.629 -0.5301  0.1238 -0.4915
  156MOL0     C20522   1.114   2.692   6.694 -0.1188 -0.1486 -0.1343
  156MOL0     C20523   1.204   2.606   6.610  0.3416  0.7725 -0.2967
  156MOL0     C20524   1.258   2.519   6.545 -1.1438 -0.5136  0.1680
  156MOL0     C20525   0.635   2.917   6.499 -0.7334  0.5500 -0.7739
  156MOL0     C20526   0.521   2.973   6.439  0.1147  0.5546  0.6871
  156MOL0     H20527   0.084   3.024   6.211  3.1241 -0.9225 -1.8422
  156MOL0     H20528  -0.094   3.158   6.087 -0.4602  0.4936 -0.0811
  156MOL0     H20529  -0.098   3.452   5.743 -1.5891  2.4672  1.0650
  156MOL0     H20530   0.053   3.468   5.818  1.3773 -1.6469  4.0689
  156MOL0     H20531  -0.054   3.674   5.849  0.0260 -0.8504 -0.8938
  156MOL0     H20532  -0.047   3.587   6.001  0.4486 -0.9334  0.3718
  156MOL0     H20533  -0.261   3.646   6.017  3.7000 -2.0897  1.9646
  156MOL0     H20534  -0.299   3.504   5.925  1.3875 -0.3662 -0.9765
  156MOL0     H20535  -0.272   3.778   5.807  1.1167 -0.1717 -4.2934
  156MOL0     H20536  -0.258   3.650   5.710  0.8297 -1.8310  1.1178
  156MOL0     H20537  -0.502   3.672   5.885  0.8119  0.8472  1.2024
  156MOL0     H20538  -0.466   3.572   5.736  0.2752  0.0026 -0.2220
  156MOL0     H20539  -0.438   3.811   5.617 -0.9507  0.4642  0.1274
  156MOL0     H20540  -0.504   3.871   5.760 -0.1254 -0.8510  1.5564
  156MOL0     H20541  -0.657   3.816   5.541 -0.1449 -0.7618 -0.9363
  156MOL0     H20542  -0.623   3.650   5.576 -0.7883  1.0642 -3.1893
  156MOL0     H20543  -0.853   3.760   5.641  0.7612 -0.2205 -0.9111
  156MOL0     H20544  -0.773   3.841   5.766 -0.1510  0.0495 -0.5723
  156MOL0     H20545  -0.712   3.713   5.985 -2.7430  0.2353  2.1419
  156MOL0     H20546  -0.925   3.399   6.129  0.7060 -1.4784 -2.3140
  156MOL0     H20547  -0.937   3.579   6.164  1.8975  1.3500  1.8711
  156MOL0     H20548  -0.694   3.582   6.201 -2.9933  1.1735 -3.1796
  156MOL0     H20549  -0.702   3.398   6.199 -0.6881 -0.6239  0.6419
  156MOL0     H20550  -0.866   3.570   6.388  0.3447  0.9575 -0.8166
  156MOL0     H20551  -0.840   3.391   6.390  4.2981 -2.9074  1.0622
  156MOL0     H20552  -0.734   3.519   6.551 -1.8236  0.9464 -0.1289
  156MOL0     H20553  -0.613   3.574   6.437 -0.5246 -0.5843  0.2835
  156MOL0     H20554  -0.644   3.457   6.720 -0.9826 -1.4829 -0.5851
  156MOL0     H20555  -0.525   3.385   6.907  1.4198  0.2652 -0.8877
  156MOL0     H20556  -0.016   2.969   6.894  1.3968 -5.6414  2.7620
  156MOL0     H20557   0.187   2.944   7.062  0.2931 -0.6930 -2.5192
  156MOL0     H20558   0.202   3.213   7.394  0.3904  1.4106  1.1325
  156MOL0     H20559   0.342   3.263   7.293 -0.0560 -1.5241 -0.3845
  156MOL0     H20560   0.350   3.026   7.489  0.7222 -1.2415 -1.1141
  156MOL0     H20561   0.387   3.188   7.546  0.8642 -1.9449  0.8399
  156MOL0     H20562   0.546   3.234   7.379 -0.3096  1.0942  0.4384
  156MOL0     H20563   0.515   3.068   7.313 -2.4825  1.3137  0.2815
  156MOL0     H20564   0.621   3.145   7.595  1.5029  0.1961 -0.1442
  156MOL0     H20565   0.596   2.978   7.531 -0.9326 -0.6790 -0.8975
  156MOL0     H20566   0.799   3.188   7.434 -0.3734  0.5099  1.0415
  156MOL0     H20567   0.792   3.018   7.376  0.6407 -2.0484  0.9227
  156MOL0     H20568   0.869   3.098   7.661 -0.4109  0.6831  0.4241
  156MOL0     H20569   0.980   3.045   7.544  0.0467  0.6400  1.3818
  156MOL0     H20570   0.787   2.861   7.678  0.1997 -1.6175 -0.0468
  156MOL0     H20571   0.888   2.831   7.527  0.0309  2.1446 -1.3682
  156MOL0     H20572   0.961   2.870   7.819  0.0938 -3.0032  0.3747
  156MOL0     H20573   1.070   2.925   7.690 -0.1393  1.1816  3.2465
  156MOL0     H20574   0.119   3.326   7.215  3.4760 -2.2297  1.5029
  156MOL0     H20575  -0.094   3.342   7.088  0.8776  0.4836  1.1778
  156MOL0     H20576  -0.251   3.159   6.642  1.3001  0.2989  1.0465
  156MOL0     H20577  -0.395   3.230   6.446 -1.0699 -1.6108  0.7328
  156MOL0     H20578   0.202   3.399   5.925 -0.1715 -0.2069 -0.4367
  156MOL0     H20579   0.385   3.276   6.061 -1.1155  2.8901 -3.1705
  156MOL0     H20580   0.617   3.301   6.475  1.3916  0.2264  1.5008
  156MOL0     H20581   0.812   3.189   6.572 -1.6849  2.9340  0.1414
  156MOL0     H20582   0.903   3.069   6.756 -0.6989  1.0533 -0.5194
  156MOL0     H20583   0.989   3.068   6.589 -1.6932  2.2054  0.6142
  156MOL0     H20584   1.127   2.992   6.781 -1.2770  0.7861  3.2229
  156MOL0     H20585   1.004   2.868   6.807  3.9026  0.2112  1.7315
  156MOL0     H20586   1.215   2.854   6.612  0.0717 -2.1141 -0.8537
  156MOL0     H20587   1.049   2.808   6.540  0.5307  1.8723 -1.6222
  156MOL0     H20588   1.166   2.706   6.789 -0.5858 -1.4032  0.3277
  156MOL0     H20589   1.012   2.654   6.709 -0.7210  0.9261 -1.2981
  156MOL0     H20590   1.286   2.442   6.476  1.3217 -0.7330  1.3135
  156MOL0     H20591   0.646   2.814   6.531 -0.6378 -0.4047 -3.5895
  156MOL0     H20592   0.444   2.907   6.402  1.6621 -1.3451  0.6704
  157MOL0     O20593   2.446   6.809   8.492 -0.3814  0.4595 -0.4028
  157MOL0     C20594   2.474   6.765   8.597 -0.5926 -0.1283 -0.3006
  157MOL0     O20595   2.495   6.841   8.707 -0.0165 -0.5267  0.4237
  157MOL0     C20596   2.445   6.971   8.705 -0.6373 -0.4687 -0.5227
  157MOL0     C20597   2.527   7.086   8.694 -0.9258  0.3422 -0.5477
  157MOL0     C20598   2.469   7.211   8.701 -0.3675 -0.2853  0.3617
  157MOL0     C20599   2.333   7.231   8.720 -0.1190 -0.2588  0.5497
  157MOL0     O20600   2.274   7.358   8.721  0.7416  0.1865  0.8007
  157MOL0     C20601   2.356   7.460   8.659  0.1239  0.4045 -0.1480
  157MOL0     C20602   2.274   7.581   8.664  0.1752  0.2814 -0.5441
  157MOL0     C20603   2.265   7.663   8.798  0.4829 -0.5423  0.7834
  157MOL0     C20604   2.143   7.755   8.814 -0.5474 -1.4107 -0.5050
  157MOL0     C20605   2.148   7.862   8.927 -0.0743  0.3640 -0.3261
  157MOL0     C20606   2.240   7.991   8.908  0.3093  0.3039 -0.5412
  157MOL0     C20607   2.178   8.104   8.822 -0.5872 -0.5134 -0.3322
  157MOL0     C20608   2.097   8.194   8.909 -0.2025  0.6562  0.3500
  157MOL0     N20609   2.050   8.323   8.847  0.7822  0.6554  0.1310
  157MOL0     C20610   1.946   8.338   8.772  0.0283 -0.0615  0.1248
  157MOL0     C20611   1.942   8.463   8.721 -0.0555 -1.2429  0.8277
  157MOL0     C20612   1.830   8.529   8.638 -0.5862 -0.1864 -0.7530
  157MOL0     C20613   1.857   8.515   8.492 -0.2482 -0.2981 -0.2608
  157MOL0     C20614   1.976   8.607   8.457  0.1723  0.8879  0.2371
  157MOL0     C20615   1.992   8.609   8.311  0.7520 -0.2987 -0.3116
  157MOL0     O20616   2.115   8.675   8.283 -0.2753  0.9923  0.3171
  157MOL0     C20617   2.156   8.679   8.149  0.2597  0.2021 -0.1411
  157MOL0     C20618   2.091   8.636   8.041  0.2746 -0.6910  0.9156
  157MOL0     C20619   2.134   8.649   7.912  0.7633 -0.1291  0.1254
  157MOL0     C20620   2.279   8.693   7.897  0.5418  0.6582  0.5008
  157MOL0     C20621   2.329   8.702   7.761 -0.0797 -0.2327  0.1460
  157MOL0     O20622   2.247   8.687   7.649 -0.0050 -0.2659 -0.4662
  157MOL0     C20623   2.317   8.657   7.536 -0.5031  0.7302 -0.8109
  157MOL0     C20624   2.327   8.529   7.482  0.2386 -0.2045 -0.0228
  157MOL0     C20625   2.387   8.515   7.356  0.0252  0.1885  0.4151
  157MOL0     C20626   2.443   8.621   7.288  0.5252 -0.0404 -0.0766
  157MOL0     O20627   2.518   8.609   7.173  0.1204 -0.1181 -0.6712
  157MOL0     C20628   2.556   8.479   7.122  0.7121  0.2417 -0.4571
  157MOL0     C20629   2.591   8.490   6.976 -0.6492 -0.1726  0.2934
  157MOL0     C20630   2.680   8.370   6.939  0.0093  0.4840  1.3345
  157MOL0     C20631   2.719   8.394   6.794 -0.1414 -0.2716  0.0309
  157MOL0     C20632   2.825   8.294   6.753 -0.4574 -0.2568  0.1646
  157MOL0     C20633   2.935   8.348   6.655  0.3205 -0.1359 -0.4584
  157MOL0     C20634   2.892   8.391   6.518 -0.1334  0.2935 -0.2898
  157MOL0     C20635   2.993   8.481   6.464  1.7316 -0.1216 -0.0746
  157MOL0    Cl20636   3.133   8.399   6.420  0.1703 -0.3408 -0.0122
  157MOL0     C20637   2.430   8.752   7.355  0.9725  0.4290  0.3134
  157MOL0     C20638   2.363   8.769   7.476  0.8912  0.1225  0.3786
  157MOL0     O20639   2.449   8.742   7.756  0.6431 -0.8156  0.0150
  157MOL0     C20640   2.354   8.723   8.013 -1.2383  0.2397 -0.8941
  157MOL0     C20641   2.292   8.711   8.137 -0.7233 -0.7572 -0.2555
  157MOL0     N20642   2.063   8.523   8.759 -0.3262  0.2321  0.1077
  157MOL0     N20643   2.126   8.435   8.834 -0.2731  0.2593  0.5796
  157MOL0     C20644   2.249   7.119   8.735 -0.2679  0.4197 -1.0054
  157MOL0     C20645   2.311   6.989   8.722 -0.0207 -0.3545  0.5450
  157MOL0     C20646   2.499   6.616   8.605 -0.1673 -0.0576 -1.2732
  157MOL0     C20647   2.466   6.530   8.504  0.7771  0.0582  0.8404
  157MOL0     C20648   2.501   6.393   8.513  0.2856 -0.5356  0.3123
  157MOL0     C20649   2.562   6.341   8.628 -0.6226 -0.6174  1.0371
  157MOL0     O20650   2.569   6.206   8.652  0.0225 -0.1464  0.7438
  157MOL0     C20651   2.664   6.139   8.728 -0.3241  0.2121  0.6603
  157MOL0     C20652   2.820   6.168   8.688  0.8849  0.1920 -0.1094
  157MOL0     C20653   2.840   6.132   8.541  0.5442  0.4754  0.6560
  157MOL0     C20654   2.856   5.982   8.510  0.2198  0.6071  0.3011
  157MOL0     C20655   2.730   5.908   8.483 -0.7435  0.1693 -0.6374
  157MOL0     C20656   2.618   5.853   8.463 -0.9018  0.9148  0.3267
  157MOL0     C20657   2.612   6.429   8.728  0.0343  0.8014 -0.1227
  157MOL0     C20658   2.574   6.561   8.718 -0.2365 -0.2665 -0.3319
  157MOL0     H20659   2.631   7.062   8.676 -1.0269  0.0903 -0.8093
  157MOL0     H20660   2.529   7.300   8.691  1.6192 -1.2637  2.5711
  157MOL0     H20661   2.372   7.431   8.554 -2.4672 -0.5993 -0.3353
  157MOL0     H20662   2.447   7.479   8.716  0.9598 -0.3988 -1.1781
  157MOL0     H20663   2.170   7.557   8.642 -0.0504 -0.6994  1.3520
  157MOL0     H20664   2.313   7.640   8.581 -2.8192 -0.2031 -2.4484
  157MOL0     H20665   2.356   7.722   8.786  0.4118 -1.0099 -4.5673
  157MOL0     H20666   2.264   7.597   8.885 -0.6535  2.4919  3.2634
  157MOL0     H20667   2.126   7.816   8.725  1.6813  1.5150  0.9212
  157MOL0     H20668   2.052   7.694   8.824  0.1778 -2.3566  0.5606
  157MOL0     H20669   2.197   7.797   9.000  1.7993  0.9988 -0.9654
  157MOL0     H20670   2.049   7.899   8.956 -1.1372 -1.0114 -1.9927
  157MOL0     H20671   2.329   7.971   8.847 -1.2890 -1.0084 -2.5577
  157MOL0     H20672   2.274   8.032   9.003  1.1595  1.0182 -1.1315
  157MOL0     H20673   2.255   8.164   8.771 -1.7666 -0.4510 -2.1281
  157MOL0     H20674   2.126   8.053   8.740  1.7472 -1.8973 -1.0456
  157MOL0     H20675   2.158   8.236   8.990  1.8204 -0.3808 -0.5521
  157MOL0     H20676   2.018   8.135   8.957  2.2676  1.0232  5.6081
  157MOL0     H20677   1.873   8.260   8.755 -1.5915  2.1179 -5.2606
  157MOL0     H20678   1.817   8.635   8.659  1.9688  0.1725 -0.6333
  157MOL0     H20679   1.744   8.465   8.661 -0.5908 -0.0109 -0.2727
  157MOL0     H20680   1.770   8.535   8.430 -1.5322 -0.3892  1.4408
  157MOL0     H20681   1.875   8.409   8.473 -1.1753 -1.1433  2.8893
  157MOL0     H20682   1.957   8.710   8.489 -0.8853  1.4903 -2.0829
  157MOL0     H20683   2.069   8.580   8.506 -0.9320 -0.2013  1.8232
  157MOL0     H20684   1.904   8.650   8.261  2.2648  1.9140 -1.3776
  157MOL0     H20685   1.990   8.506   8.277 -1.6644 -0.1332 -0.8613
  157MOL0     H20686   1.988   8.603   8.053  0.6157 -1.5859  1.4618
  157MOL0     H20687   2.067   8.623   7.830 -2.1488 -0.9145  2.5877
  157MOL0     H20688   2.293   8.434   7.521 -1.6023  0.1686 -0.6111
  157MOL0     H20689   2.382   8.416   7.311 -2.4044  0.8120 -0.8625
  157MOL0     H20690   2.475   8.406   7.125  2.4117 -1.7115  1.3236
  157MOL0     H20691   2.643   8.432   7.170 -1.0230 -1.5671  1.0873
  157MOL0     H20692   2.648   8.582   6.957 -0.7113 -0.3452 -0.8244
  157MOL0     H20693   2.510   8.503   6.903  1.3444 -1.3034 -2.2926
  157MOL0     H20694   2.621   8.278   6.945 -1.1083  0.7890 -2.5171
  157MOL0     H20695   2.768   8.360   7.003 -0.5716  3.1080  2.7062
  157MOL0     H20696   2.629   8.400   6.732 -0.1829 -1.9834 -0.1068
  157MOL0     H20697   2.759   8.495   6.780  0.3886 -0.4396  0.2770
  157MOL0     H20698   2.772   8.212   6.704  0.3402 -1.1696  0.7864
  157MOL0     H20699   2.872   8.245   6.838 -1.6300  1.8332  2.1399
  157MOL0     H20700   3.004   8.264   6.659  0.8916  0.3679  0.8328
  157MOL0     H20701   2.981   8.437   6.701 -0.7608  1.4420 -2.2894
  157MOL0     H20702   2.885   8.301   6.456  2.4761  0.6194 -1.1766
  157MOL0     H20703   2.791   8.434   6.519 -0.4495  0.6817 -6.6965
  157MOL0     H20704   3.016   8.562   6.533  1.4485  1.5879 -1.8947
  157MOL0     H20705   2.947   8.516   6.371 -3.0676 -3.8384  0.5119
  157MOL0     H20706   2.475   8.840   7.310 -2.3417  1.6787 -0.8627
  157MOL0     H20707   2.342   8.868   7.516 -1.4269  0.7824 -2.1693
  157MOL0     H20708   2.458   8.747   7.997  0.0089 -2.8172  1.6124
  157MOL0     H20709   2.346   8.748   8.223 -0.3805  2.0766 -1.5723
  157MOL0     H20710   2.141   7.125   8.744 -0.1832  1.9166 -0.7863
  157MOL0     H20711   2.251   6.898   8.723 -2.5447  1.1923  0.3131
  157MOL0     H20712   2.407   6.568   8.422 -0.6211 -1.2627  1.1876
  157MOL0     H20713   2.468   6.319   8.441  1.4656  0.3841 -1.2419
  157MOL0     H20714   2.639   6.034   8.712 -1.6502  0.3729  1.4805
  157MOL0     H20715   2.650   6.143   8.837  0.6584 -2.5573  0.9710
  157MOL0     H20716   2.854   6.270   8.712 -0.9235  0.6626  0.6147
  157MOL0     H20717   2.893   6.110   8.746  2.0839  1.9873  0.2745
  157MOL0     H20718   2.936   6.176   8.513  0.8120 -0.9947 -0.9278
  157MOL0     H20719   2.764   6.161   8.467 -0.8190 -4.2127 -0.0942
  157MOL0     H20720   2.925   5.962   8.428  1.3026  1.7511  0.9035
  157MOL0     H20721   2.874   5.932   8.605 -1.5781  0.3475  0.5498
  157MOL0     H20722   2.520   5.812   8.449 -0.2507  0.1714 -2.7583
  157MOL0     H20723   2.679   6.394   8.805 -2.2223 -2.0422  0.6894
  157MOL0     H20724   2.607   6.632   8.792  2.1796 -0.0107 -1.5502
  158MOL0     O20725   7.026   4.744  10.009 -0.5294 -0.4922  0.7259
  158MOL0     C20726   6.941   4.660   9.994 -0.5189 -0.2520  0.4623
  158MOL0     O20727   6.971   4.525  10.010 -0.2807  0.1230  0.4551
  158MOL0     C20728   7.096   4.496  10.060  0.0697  0.3671  0.0819
  158MOL0     C20729   7.143   4.522  10.192  0.0908 -0.7597  0.4923
  158MOL0     C20730   7.275   4.502  10.230 -0.0518  0.8748  0.2374
  158MOL0     C20731   7.362   4.445  10.140 -0.2010 -0.0458  0.1867
  158MOL0     O20732   7.490   4.417  10.187  0.2400 -1.1580 -0.6855
  158MOL0     C20733   7.606   4.376  10.112  0.4552  0.7945  0.6229
  158MOL0     C20734   7.691   4.278  10.194  0.0854 -0.1154  0.1295
  158MOL0     C20735   7.839   4.330  10.203  0.1726  0.2600 -0.3685
  158MOL0     C20736   7.929   4.244  10.292 -0.0547  0.0305  0.3463
  158MOL0     C20737   8.051   4.324  10.332 -0.5189  0.4984  0.0075
  158MOL0     C20738   8.167   4.229  10.371 -0.7497 -0.0994  0.2654
  158MOL0     C20739   8.316   4.285  10.350 -0.6956 -1.2032 -1.0353
  158MOL0     C20740   8.417   4.232  10.449 -1.2043 -0.2989 -0.1121
  158MOL0     N20741   8.536   4.313  10.470  0.3068 -0.5049  0.2005
  158MOL0     C20742   8.572   4.377  10.589  0.8226  0.2070 -0.0483
  158MOL0     C20743   8.701   4.416  10.573  0.1930  0.1682  1.1909
  158MOL0     C20744   8.767   4.515  10.664 -0.7564 -0.6941 -0.6289
  158MOL0     C20745   8.895   4.454  10.720 -0.8037  0.1186  0.2003
  158MOL0     C20746   8.975   4.567  10.801 -0.2474 -0.2151 -0.5797
  158MOL0     C20747   9.077   4.498  10.898  0.2877  0.7913  0.3222
  158MOL0     O20748   9.174   4.582  10.971  0.1794  0.1501  0.7164
  158MOL0     C20749   9.289   4.630  10.910 -1.7620  0.7590 -0.6263
  158MOL0     C20750   9.313   4.640  10.776 -1.0219 -0.9632 -0.1318
  158MOL0     C20751   9.427   4.699  10.733 -0.8658 -0.7992  0.3983
  158MOL0     C20752   9.527   4.759  10.815  0.5581 -0.0474  0.3712
  158MOL0     C20753   9.643   4.832  10.760  0.8022 -1.1648 -0.0621
  158MOL0     O20754   9.651   4.826  10.622 -0.3633  0.4579 -0.4426
  158MOL0     C20755   9.764   4.878  10.568 -0.5866  0.0699  0.4757
  158MOL0     C20756   9.789   5.016  10.556 -0.5066 -0.4020 -0.4507
  158MOL0     C20757   9.918   5.053  10.515  0.7451  0.5607  0.2939
  158MOL0     C20758  10.016   4.969  10.470 -0.4982 -0.5063  0.7906
  158MOL0     O20759  10.130   5.022  10.413  0.1891  0.5153  0.2697
  158MOL0     C20760  10.130   4.999  10.275 -1.0103 -0.7812  0.1916
  158MOL0     C20761  10.268   5.047  10.204 -0.1271  0.1775  0.7752
  158MOL0     C20762  10.391   4.986  10.280  0.4601 -0.6215  0.3315
  158MOL0     C20763  10.523   5.021  10.222  0.1550 -1.1868 -0.4700
  158MOL0     C20764  10.640   4.952  10.303  0.0389  0.5128 -0.1055
  158MOL0     C20765  10.781   5.009  10.270  1.2194  0.2732 -0.7188
  158MOL0     C20766  10.893   4.926  10.332 -0.0560  0.2438  0.2724
  158MOL0     C20767  11.033   4.972  10.293  0.7061  0.6843  1.4500
  158MOL0    Cl20768  11.126   4.840  10.391 -0.5671 -0.2236  0.3347
  158MOL0     C20769   9.982   4.832  10.464 -0.6289  0.2851  0.3771
  158MOL0     C20770   9.863   4.798  10.519 -0.7545  0.1234 -0.3362
  158MOL0     O20771   9.725   4.886  10.828  0.0005 -0.0316  0.1157
  158MOL0     C20772   9.491   4.760  10.947  0.0866  0.5047 -0.8908
  158MOL0     C20773   9.378   4.696  11.001  0.0268 -0.3060 -0.1763
  158MOL0     N20774   8.747   4.379  10.440  0.4310  0.1960 -0.8393
  158MOL0     N20775   8.651   4.314  10.390  0.9855 -0.2079  0.3199
  158MOL0     C20776   7.318   4.409  10.013  0.6181 -0.2661  0.1393
  158MOL0     C20777   7.180   4.424   9.972  0.2209 -0.6448  1.4212
  158MOL0     C20778   6.815   4.704   9.951 -0.1597  0.5328  0.4171
  158MOL0     C20779   6.700   4.613   9.963 -0.4487  0.6045 -0.1147
  158MOL0     C20780   6.575   4.646   9.913 -0.2490  0.6991  0.4370
  158MOL0     C20781   6.549   4.767   9.844 -0.2285 -0.5607  0.8343
  158MOL0     O20782   6.419   4.794   9.816 -0.1805  0.2553 -0.0288
  158MOL0     C20783   6.388   4.892   9.723 -0.4651 -0.4002  0.6545
  158MOL0     C20784   6.319   5.016   9.782 -0.0317  1.1558  0.2584
  158MOL0     C20785   6.210   4.981   9.891 -0.5680 -0.7099  0.1053
  158MOL0     C20786   6.186   5.071  10.011 -0.6889 -0.2065  0.5975
  158MOL0     C20787   6.310   5.132  10.066  0.6296  0.1839  0.4341
  158MOL0     C20788   6.410   5.164  10.123 -1.1880  0.8021  0.3802
  158MOL0     C20789   6.657   4.858   9.828  0.7053  0.0154  0.2447
  158MOL0     C20790   6.780   4.831   9.890  0.1823 -1.1023 -0.7081
  158MOL0     H20791   7.086   4.576  10.267  0.6933 -0.5650  0.8262
  158MOL0     H20792   7.312   4.514  10.331 -0.2412 -2.7701  0.8825
  158MOL0     H20793   7.667   4.466  10.107  0.9757  0.9385  5.3587
  158MOL0     H20794   7.579   4.322  10.020  3.4867 -0.9049  0.5896
  158MOL0     H20795   7.670   4.180  10.150 -1.3468  0.6504 -0.9802
  158MOL0     H20796   7.652   4.258  10.295  0.1262 -1.7323 -0.1433
  158MOL0     H20797   7.840   4.431  10.244  1.2581 -0.3290  1.1495
  158MOL0     H20798   7.882   4.332  10.103  1.1722  0.3514  0.0523
  158MOL0     H20799   7.886   4.211  10.387  3.2658 -0.5425  1.7974
  158MOL0     H20800   7.950   4.151  10.239 -0.8099 -0.1401  0.3330
  158MOL0     H20801   8.028   4.391  10.415 -1.1084 -1.2590  1.3184
  158MOL0     H20802   8.087   4.388  10.251 -1.1766  2.8220  1.4744
  158MOL0     H20803   8.166   4.136  10.314 -0.9906  0.7394 -1.1623
  158MOL0     H20804   8.136   4.215  10.475 -0.2156  6.0720  1.6593
  158MOL0     H20805   8.347   4.273  10.246  1.9172  3.5056 -1.0861
  158MOL0     H20806   8.322   4.393  10.363  4.5679 -1.5769  3.2786
  158MOL0     H20807   8.457   4.135  10.417 -2.8141 -1.2819  0.7087
  158MOL0     H20808   8.374   4.215  10.548  1.1282 -1.0765  0.8301
  158MOL0     H20809   8.501   4.395  10.669  0.2947 -3.4318  0.4907
  158MOL0     H20810   8.702   4.552  10.744 -1.1810 -1.8702 -0.4123
  158MOL0     H20811   8.791   4.598  10.596  0.2884 -0.2212  0.2861
  158MOL0     H20812   8.964   4.411  10.646 -3.8564  1.3551 -3.7278
  158MOL0     H20813   8.865   4.375  10.790  0.2669  2.5187  3.6197
  158MOL0     H20814   9.038   4.624  10.733  2.1153 -3.3955 -1.3156
  158MOL0     H20815   8.908   4.634  10.855 -0.8688 -0.0701 -1.5131
  158MOL0     H20816   9.130   4.427  10.833 -2.4953 -0.5628 -0.6207
  158MOL0     H20817   9.028   4.430  10.968  1.2765 -1.3534 -0.9529
  158MOL0     H20818   9.237   4.606  10.707  0.2475 -1.6519 -1.2491
  158MOL0     H20819   9.438   4.721  10.627  0.4741  0.4091  0.7604
  158MOL0     H20820   9.714   5.091  10.580  1.3564  2.0297 -1.7825
  158MOL0     H20821   9.933   5.160  10.508 -1.4391  1.0546  2.0282
  158MOL0     H20822  10.039   5.050  10.240  0.2699  1.0949 -0.5275
  158MOL0     H20823  10.126   4.892  10.253  0.9012 -0.9614  0.6188
  158MOL0     H20824  10.260   5.156  10.204 -4.7601  0.0281  0.4535
  158MOL0     H20825  10.271   5.011  10.101  1.3202  0.5295  0.6639
  158MOL0     H20826  10.379   4.878  10.275 -0.1600 -0.5732  0.6644
  158MOL0     H20827  10.387   5.006  10.388  1.5086  3.3619 -0.1868
  158MOL0     H20828  10.534   4.993  10.117 -0.1418 -0.0109 -0.8253
  158MOL0     H20829  10.542   5.129  10.226  0.8272 -1.2902 -0.7421
  158MOL0     H20830  10.640   4.846  10.278  0.2275  0.3538  0.5573
  158MOL0     H20831  10.620   4.955  10.410 -1.5670 -0.8302 -0.3343
  158MOL0     H20832  10.790   5.106  10.320 -0.1187 -1.0542  2.3698
  158MOL0     H20833  10.796   5.003  10.162  0.6353 -0.4766 -0.7733
  158MOL0     H20834  10.882   4.930  10.441  1.8772 -1.3332  0.5766
  158MOL0     H20835  10.876   4.826  10.293 -1.8948  1.3140 -1.8748
  158MOL0     H20836  11.043   5.072  10.335 -4.3040  1.8061  0.6304
  158MOL0     H20837  11.043   4.953  10.185  0.6978 -0.1570  1.5936
  158MOL0     H20838  10.056   4.756  10.440  1.0552  1.1082  2.5622
  158MOL0     H20839   9.853   4.690  10.510 -0.7165  0.2695 -2.9547
  158MOL0     H20840   9.555   4.827  11.005  1.1230 -1.0694 -0.1597
  158MOL0     H20841   9.359   4.701  11.108 -2.3296 -2.8473 -0.3541
  158MOL0     H20842   7.385   4.358   9.945  0.9284 -1.5656  1.3788
  158MOL0     H20843   7.167   4.403   9.866  2.4576 -0.3865  1.0529
  158MOL0     H20844   6.722   4.514  10.002 -3.4106 -0.0604  0.0620
  158MOL0     H20845   6.508   4.563   9.926  0.0563  0.1738 -1.1232
  158MOL0     H20846   6.314   4.841   9.662 -0.7251 -0.5869  1.1178
  158MOL0     H20847   6.469   4.932   9.661 -2.6091  1.5662 -1.0345
  158MOL0     H20848   6.398   5.078   9.823  1.7933 -0.4786 -0.6324
  158MOL0     H20849   6.272   5.067   9.697  0.0828 -1.3814 -1.4639
  158MOL0     H20850   6.218   4.882   9.935  0.0251 -0.4216  0.6721
  158MOL0     H20851   6.113   4.978   9.841  0.6654  1.7290 -2.7739
  158MOL0     H20852   6.119   5.154   9.986  1.0832  0.7121 -1.4870
  158MOL0     H20853   6.129   5.013  10.084 -2.2337  1.9812  1.2184
  158MOL0     H20854   6.496   5.195  10.178 -1.2462 -1.1177  1.6757
  158MOL0     H20855   6.623   4.954   9.791 -0.5638 -0.0063  1.2753
  158MOL0     H20856   6.860   4.904   9.883  0.9939 -2.0156 -1.1934
  159MOL0     O20857   6.446   5.847   3.175 -0.7023  0.5713  0.3791
  159MOL0     C20858   6.337   5.796   3.212 -0.7917  0.3149  0.3265
  159MOL0     O20859   6.329   5.689   3.296  0.8728  0.5095 -0.4990
  159MOL0     C20860   6.441   5.617   3.325 -0.1163  0.4911 -0.9049
  159MOL0     C20861   6.425   5.558   3.449 -0.2414  0.8831  0.8547
  159MOL0     C20862   6.529   5.479   3.490 -0.2543 -0.0012  0.3008
  159MOL0     C20863   6.648   5.459   3.418  0.2812  0.0971 -0.3092
  159MOL0     O20864   6.741   5.389   3.490 -0.3586  0.2477 -0.5908
  159MOL0     C20865   6.852   5.334   3.420  0.7256  0.8736  0.3737
  159MOL0     C20866   6.972   5.408   3.460 -0.4876  0.1880  0.5552
  159MOL0     C20867   7.098   5.322   3.429 -0.0815  0.6108 -0.2302
  159MOL0     C20868   7.217   5.401   3.480  0.0253 -0.7607  0.1169
  159MOL0     C20869   7.348   5.346   3.437 -0.7834  0.5016  0.5914
  159MOL0     C20870   7.400   5.232   3.535  1.1288 -0.1916 -0.0842
  159MOL0     C20871   7.512   5.145   3.481  0.0777 -0.4981 -0.1682
  159MOL0     C20872   7.549   5.033   3.567  0.8560  0.5077  0.0061
  159MOL0     N20873   7.666   4.962   3.508 -0.3550 -0.2267  0.2999
  159MOL0     C20874   7.797   4.989   3.541 -0.3277 -0.5116  0.8288
  159MOL0     C20875   7.858   4.903   3.454  0.8128 -0.1583 -0.1620
  159MOL0     C20876   8.010   4.876   3.457 -0.4987  0.6062 -0.6908
  159MOL0     C20877   8.042   4.786   3.579  0.0219 -0.8775 -0.6924
  159MOL0     C20878   8.195   4.754   3.579 -0.3527 -0.2216 -0.6967
  159MOL0     C20879   8.220   4.640   3.691  0.2020  1.0014 -0.7443
  159MOL0     O20880   8.358   4.625   3.720 -0.3183  0.1694 -0.3802
  159MOL0     C20881   8.395   4.514   3.783  0.3117  0.6571 -0.0481
  159MOL0     C20882   8.529   4.479   3.783 -0.6103  0.2886 -0.5897
  159MOL0     C20883   8.583   4.371   3.855  0.0203  0.7556 -1.1467
  159MOL0     C20884   8.487   4.284   3.930 -0.4848 -1.2671  0.4095
  159MOL0     C20885   8.540   4.170   4.006 -0.1167 -0.5129  0.3259
  159MOL0     O20886   8.676   4.153   4.011 -0.2325 -0.2147 -0.4785
  159MOL0     C20887   8.720   4.039   4.067 -0.3824  0.1464 -0.8699
  159MOL0     C20888   8.687   3.914   4.013  0.6321  0.5105  0.0619
  159MOL0     C20889   8.745   3.799   4.068  0.1343  0.4684 -1.2847
  159MOL0     C20890   8.803   3.807   4.197  1.7587 -0.5165 -0.4289
  159MOL0     O20891   8.868   3.708   4.265 -0.6831  0.0945 -0.7904
  159MOL0     C20892   8.897   3.582   4.207  0.7275 -0.3133 -0.1658
  159MOL0     C20893   9.028   3.514   4.241 -0.9188  0.0618 -0.2730
  159MOL0     C20894   9.158   3.589   4.200 -0.0008  0.8084  0.1884
  159MOL0     C20895   9.285   3.509   4.260 -1.0102  0.1292 -0.2038
  159MOL0     C20896   9.274   3.475   4.408  0.1679 -0.5885 -0.2706
  159MOL0     C20897   9.400   3.481   4.493 -0.6344  0.2935 -0.2975
  159MOL0     C20898   9.510   3.394   4.437  0.6820  0.0583  0.0443
  159MOL0     C20899   9.653   3.461   4.424 -0.4344 -0.3580  0.2178
  159MOL0    Cl20900   9.758   3.331   4.336  0.2703 -0.2138 -0.5036
  159MOL0     C20901   8.826   3.932   4.256  0.7955  0.4148 -0.0195
  159MOL0     C20902   8.787   4.048   4.194 -0.6198 -0.0045 -1.1614
  159MOL0     O20903   8.461   4.109   4.082  0.1544 -0.2314  0.0053
  159MOL0     C20904   8.355   4.312   3.921  0.4999 -0.3555 -0.7708
  159MOL0     C20905   8.305   4.430   3.857  0.0607 -0.8150  0.4129
  159MOL0     N20906   7.775   4.815   3.394  0.2817  0.5954  0.1460
  159MOL0     N20907   7.660   4.848   3.433  0.8195  0.3564  0.9714
  159MOL0     C20908   6.649   5.512   3.284  0.2714 -0.0424 -1.4123
  159MOL0     C20909   6.545   5.580   3.236 -0.5992  0.1842 -0.0262
  159MOL0     C20910   6.218   5.845   3.144  0.1672 -0.6550 -0.1984
  159MOL0     C20911   6.094   5.780   3.161  0.0199  0.3617 -0.0306
  159MOL0     C20912   5.984   5.816   3.084 -0.8110 -0.0894 -0.4082
  159MOL0     C20913   5.995   5.924   2.992 -0.0540  0.4787 -0.0736
  159MOL0     O20914   5.883   5.934   2.916 -0.1373 -0.7981 -0.0465
  159MOL0     C20915   5.903   6.004   2.789  0.0566  0.6954  0.4715
  159MOL0     C20916   5.772   6.005   2.717  0.4919  0.1353  0.3853
  159MOL0     C20917   5.785   6.089   2.585  1.0809 -0.9001 -0.1799
  159MOL0     C20918   5.660   6.098   2.497  0.4824 -0.1500  0.7031
  159MOL0     C20919   5.612   5.971   2.451  0.4155 -0.4903  0.1204
  159MOL0     C20920   5.567   5.854   2.423 -0.9181 -1.5908  0.0774
  159MOL0     C20921   6.119   5.978   2.962  0.0868 -0.1576  0.6227
  159MOL0     C20922   6.224   5.942   3.039 -0.8388  0.2937  0.5134
  159MOL0     H20923   6.338   5.560   3.514  1.1760 -1.0923  3.0010
  159MOL0     H20924   6.523   5.439   3.591  2.8104 -0.6114  0.3269
  159MOL0     H20925   6.841   5.327   3.311  2.9636 -2.0029  0.2060
  159MOL0     H20926   6.860   5.228   3.447 -0.0968  0.5510 -0.5875
  159MOL0     H20927   6.961   5.439   3.565 -3.5604 -0.7749  0.6246
  159MOL0     H20928   6.983   5.499   3.401 -1.8868 -0.7717 -1.2616
  159MOL0     H20929   7.104   5.306   3.321  1.1852 -1.0519  0.0406
  159MOL0     H20930   7.097   5.220   3.470  2.7020 -0.6859 -3.0100
  159MOL0     H20931   7.207   5.504   3.446  2.8247 -0.0669  1.1418
  159MOL0     H20932   7.223   5.410   3.589  1.2533  2.2900 -0.0952
  159MOL0     H20933   7.427   5.422   3.443 -1.7874  1.6706 -0.5774
  159MOL0     H20934   7.332   5.316   3.334 -0.3534  3.1454 -0.3248
  159MOL0     H20935   7.310   5.172   3.551 -0.2951  1.8573 -0.0509
  159MOL0     H20936   7.440   5.276   3.626 -1.8136  0.1395  1.1604
  159MOL0     H20937   7.487   5.104   3.383 -0.6395 -3.3436  1.0806
  159MOL0     H20938   7.598   5.212   3.479  0.0408 -0.3819  1.2685
  159MOL0     H20939   7.465   4.968   3.594  0.7614  1.4957  2.3508
  159MOL0     H20940   7.571   5.081   3.663 -1.1608 -2.8436  2.3651
  159MOL0     H20941   7.858   5.053   3.604  0.9847 -2.6615  1.8780
  159MOL0     H20942   8.071   4.966   3.455  0.4239  0.0167 -0.1501
  159MOL0     H20943   8.036   4.820   3.367 -2.4717  0.7166 -1.3673
  159MOL0     H20944   7.970   4.704   3.586 -1.0750  0.0680 -0.6571
  159MOL0     H20945   8.030   4.840   3.673  2.0955 -1.1860 -0.2115
  159MOL0     H20946   8.231   4.729   3.479 -0.2987  0.0401 -0.7451
  159MOL0     H20947   8.256   4.841   3.608 -2.3440  1.9915 -2.7411
  159MOL0     H20948   8.181   4.545   3.653 -1.1649  1.7475 -1.2818
  159MOL0     H20949   8.177   4.663   3.789  0.7589 -2.5614  0.4686
  159MOL0     H20950   8.603   4.533   3.724 -0.1290  1.2644  0.8329
  159MOL0     H20951   8.691   4.357   3.860  0.5460  4.4236  1.8206
  159MOL0     H20952   8.634   3.928   3.920  0.1848  3.4712  0.6611
  159MOL0     H20953   8.724   3.696   4.041 -2.7515  1.0355 -1.5347
  159MOL0     H20954   8.890   3.566   4.099  3.0701 -2.7807 -0.0711
  159MOL0     H20955   8.820   3.519   4.252  0.7667 -2.2256 -2.5517
  159MOL0     H20956   9.008   3.416   4.196  0.2231 -0.4470  0.3062
  159MOL0     H20957   9.027   3.506   4.350 -0.3215  0.3216 -0.2506
  159MOL0     H20958   9.161   3.688   4.247  4.1884  0.0767  1.8358
  159MOL0     H20959   9.163   3.592   4.091 -0.3148 -1.8453  0.0554
  159MOL0     H20960   9.290   3.418   4.200  1.6393 -0.3245  0.5869
  159MOL0     H20961   9.374   3.570   4.243 -1.6583  0.6627 -1.8415
  159MOL0     H20962   9.240   3.372   4.418 -1.7010  0.0692  0.5708
  159MOL0     H20963   9.196   3.540   4.448 -0.0316  0.1017 -1.6971
  159MOL0     H20964   9.362   3.459   4.594  4.9540 -1.3791  1.8341
  159MOL0     H20965   9.439   3.583   4.502 -1.7218  0.6483  0.6225
  159MOL0     H20966   9.524   3.308   4.504  0.7291  1.2607  1.6298
  159MOL0     H20967   9.475   3.350   4.343  2.0991 -1.4414  0.1714
  159MOL0     H20968   9.694   3.477   4.524 -0.9902 -4.1301  1.2399
  159MOL0     H20969   9.644   3.548   4.358  1.3182  0.8250  1.4565
  159MOL0     H20970   8.877   3.942   4.351  1.8710 -2.5814 -0.1659
  159MOL0     H20971   8.802   4.138   4.253  1.4906 -1.4627  0.7393
  159MOL0     H20972   8.280   4.258   3.978 -0.8686 -0.1122 -2.2675
  159MOL0     H20973   8.199   4.451   3.841  0.4337  0.7069 -0.1931
  159MOL0     H20974   6.733   5.475   3.226  0.2396 -2.1291 -0.2024
  159MOL0     H20975   6.547   5.606   3.131 -2.9078  1.1345  0.1049
  159MOL0     H20976   6.082   5.717   3.249  1.6716  0.3441  0.2256
  159MOL0     H20977   5.886   5.769   3.096 -0.4604 -0.8325 -0.3939
  159MOL0     H20978   5.979   5.960   2.725 -0.5389  3.5442 -2.4074
  159MOL0     H20979   5.924   6.107   2.819  0.0820 -0.0867  3.5958
  159MOL0     H20980   5.737   5.904   2.692 -1.7017  1.0143 -0.3621
  159MOL0     H20981   5.689   6.053   2.770 -0.0253  4.0934 -3.4185
  159MOL0     H20982   5.868   6.063   2.518  0.6874  0.8095 -1.3652
  159MOL0     H20983   5.814   6.192   2.606 -0.5422 -0.5548  0.4891
  159MOL0     H20984   5.571   6.137   2.547 -1.4307 -1.2499 -1.6443
  159MOL0     H20985   5.674   6.162   2.410 -0.7410  0.6138  1.0418
  159MOL0     H20986   5.516   5.765   2.390 -1.9170 -1.3198  0.8394
  159MOL0     H20987   6.134   6.047   2.880 -1.3664  1.0590  1.3292
  159MOL0     H20988   6.315   5.990   3.004 -1.2909 -0.4655 -1.8827
  160MOL0     O20989   1.257   5.040   6.103 -0.5155 -0.3862  0.1423
  160MOL0     C20990   1.185   5.000   6.193 -0.2821  0.8719 -0.7286
  160MOL0     O20991   1.052   4.986   6.191  0.0976 -0.8939  0.0695
  160MOL0     C20992   0.970   4.969   6.082 -0.2877  0.1471  0.6944
  160MOL0     C20993   0.831   4.958   6.111 -0.3038 -0.7105 -0.4520
  160MOL0     C20994   0.743   4.943   6.001 -0.7302 -0.3647 -0.0932
  160MOL0     C20995   0.793   4.954   5.865 -0.4076 -0.0604 -0.2376
  160MOL0     O20996   0.723   4.932   5.745  0.0653 -0.2983 -0.0059
  160MOL0     C20997   0.586   4.896   5.743  0.2255 -0.8677 -0.0384
  160MOL0     C20998   0.581   4.753   5.683 -0.5582 -0.3253 -0.6530
  160MOL0     C20999   0.428   4.712   5.675  0.2560 -0.2911 -0.0367
  160MOL0     C21000   0.356   4.782   5.554  0.7506  0.1026  0.8869
  160MOL0     C21001   0.207   4.736   5.552 -0.8871 -0.5609  0.4604
  160MOL0     C21002   0.129   4.732   5.684  0.4499 -0.5500  0.0375
  160MOL0     C21003  -0.020   4.736   5.654  0.5365  1.0962  0.9356
  160MOL0     C21004  -0.109   4.721   5.772  0.4768  0.0854  0.5598
  160MOL0     N21005  -0.242   4.750   5.728  0.4929 -0.8229 -0.2951
  160MOL0     C21006  -0.322   4.834   5.803 -0.4454  0.5398  0.3144
  160MOL0     C21007  -0.446   4.817   5.746  0.0366 -0.0121 -0.2721
  160MOL0     C21008  -0.570   4.890   5.785  0.0048  0.4707  0.8660
  160MOL0     C21009  -0.650   4.790   5.864  0.1019 -0.5427  1.0345
  160MOL0     C21010  -0.776   4.863   5.905  0.2999  0.3370  0.2658
  160MOL0     C21011  -0.858   4.787   6.015 -0.9353  0.7381  0.3154
  160MOL0     O21012  -0.980   4.860   6.048 -0.2449  0.0383  0.2405
  160MOL0     C21013  -1.077   4.790   6.119  0.8814 -0.6989  0.1293
  160MOL0     C21014  -1.051   4.696   6.219 -0.0072  0.0604  0.2587
  160MOL0     C21015  -1.158   4.643   6.293 -0.2353  0.4045  0.2080
  160MOL0     C21016  -1.292   4.670   6.262 -0.0593  0.2379  0.1806
  160MOL0     C21017  -1.406   4.599   6.336 -0.5526  0.3351 -0.0757
  160MOL0     O21018  -1.533   4.645   6.298 -0.2539  0.4096  0.1421
  160MOL0     C21019  -1.642   4.562   6.310 -1.0647 -0.9151 -0.7234
  160MOL0     C21020  -1.766   4.631   6.300 -1.0470 -0.0162  0.5620
  160MOL0     C21021  -1.880   4.560   6.281 -0.0558  0.1482 -0.2540
  160MOL0     C21022  -1.886   4.422   6.307  0.1215  0.2159 -0.2534
  160MOL0     O21023  -2.015   4.365   6.322  0.3067  0.9316  0.6119
  160MOL0     C21024  -2.022   4.238   6.374 -0.3613  0.8663  0.4178
  160MOL0     C21025  -2.166   4.182   6.381 -0.7204 -0.3119 -1.5546
  160MOL0     C21026  -2.168   4.021   6.389 -0.1979 -0.7061  0.1951
  160MOL0     C21027  -2.292   3.959   6.451 -0.2019  0.5534 -0.5702
  160MOL0     C21028  -2.252   3.814   6.500 -0.7315  0.6788  0.2105
  160MOL0     C21029  -2.366   3.718   6.534  0.0244 -0.0533  0.5841
  160MOL0     C21030  -2.465   3.772   6.648  0.8249  0.2123  0.6301
  160MOL0     C21031  -2.565   3.654   6.689 -0.6903 -0.4899  0.2079
  160MOL0    Cl21032  -2.676   3.703   6.825 -0.2566 -0.1895  0.4055
  160MOL0     C21033  -1.766   4.358   6.330  0.6443 -0.1773  0.4713
  160MOL0     C21034  -1.644   4.420   6.329 -0.3146 -0.7301 -0.4048
  160MOL0     O21035  -1.385   4.513   6.418 -0.1864  0.1397 -0.0515
  160MOL0     C21036  -1.316   4.761   6.162  0.4912 -0.3598 -0.4538
  160MOL0     C21037  -1.211   4.821   6.098  0.7286 -0.2483  0.1978
  160MOL0     N21038  -0.433   4.728   5.637 -0.5310 -0.4478 -0.2190
  160MOL0     N21039  -0.314   4.699   5.619  0.1282 -0.4990 -0.4345
  160MOL0     C21040   0.933   4.961   5.850  0.7635  0.3218  0.7717
  160MOL0     C21041   1.011   4.961   5.957  1.3226  0.1350 -0.4214
  160MOL0     C21042   1.246   4.976   6.327  0.3170  0.3858  0.1504
  160MOL0     C21043   1.172   4.916   6.432 -0.2656 -0.2999  0.4769
  160MOL0     C21044   1.242   4.871   6.544 -0.0854  0.2782  0.5524
  160MOL0     C21045   1.379   4.889   6.558 -0.0542 -0.5965  0.3805
  160MOL0     O21046   1.437   4.837   6.670  0.3374  0.2395  0.2742
  160MOL0     C21047   1.569   4.876   6.700 -0.6568 -0.4617 -0.2899
  160MOL0     C21048   1.607   4.811   6.829 -0.5438 -0.8955 -0.6003
  160MOL0     C21049   1.628   4.659   6.821 -0.4206  0.2560  0.8888
  160MOL0     C21050   1.776   4.630   6.825  0.1611 -0.9636  0.0403
  160MOL0     C21051   1.858   4.683   6.714  0.1666  0.3299  0.4806
  160MOL0     C21052   1.935   4.733   6.634  0.0336  0.3074  0.1618
  160MOL0     C21053   1.450   4.950   6.449  0.8500 -0.2247 -0.4013
  160MOL0     C21054   1.382   5.004   6.347  0.1960  0.5082 -0.2103
  160MOL0     H21055   0.802   4.952   6.215 -0.0958  1.0769 -0.2550
  160MOL0     H21056   0.643   4.923   6.038 -0.5046 -2.7380 -0.6044
  160MOL0     H21057   0.530   4.967   5.681  0.9540 -1.9077 -1.9813
  160MOL0     H21058   0.539   4.903   5.841 -0.1176  3.8400 -0.3070
  160MOL0     H21059   0.639   4.690   5.751  0.8824  1.1131 -0.4839
  160MOL0     H21060   0.632   4.758   5.586  1.8799  3.6978  0.6038
  160MOL0     H21061   0.382   4.738   5.771 -1.9890  2.7300 -1.7735
  160MOL0     H21062   0.418   4.603   5.667 -0.3121 -0.4526  2.3055
  160MOL0     H21063   0.350   4.891   5.559  0.4515  0.2636 -1.5634
  160MOL0     H21064   0.398   4.745   5.460 -2.4813  3.0457 -2.0378
  160MOL0     H21065   0.208   4.641   5.499  2.0331  1.7933 -4.4466
  160MOL0     H21066   0.148   4.799   5.485 -3.0239 -1.7368  1.1478
  160MOL0     H21067   0.149   4.813   5.754 -0.7192  1.2401 -1.6173
  160MOL0     H21068   0.152   4.641   5.740  1.3147  0.1814  0.9091
  160MOL0     H21069  -0.040   4.828   5.599  2.0579 -0.2265 -2.1200
  160MOL0     H21070  -0.047   4.652   5.588 -0.0581  3.2553 -1.7296
  160MOL0     H21071  -0.075   4.791   5.849 -0.5616  1.3242 -0.0676
  160MOL0     H21072  -0.094   4.620   5.811 -1.7128 -0.1509  0.9114
  160MOL0     H21073  -0.304   4.885   5.897  0.4585  2.9916 -1.0918
  160MOL0     H21074  -0.620   4.916   5.692 -1.3983 -0.6831  1.2637
  160MOL0     H21075  -0.552   4.982   5.842 -0.1624 -1.0193  3.4943
  160MOL0     H21076  -0.599   4.758   5.955 -0.8501 -0.0378  1.7695
  160MOL0     H21077  -0.684   4.708   5.801 -0.1856 -0.1286  0.6418
  160MOL0     H21078  -0.754   4.956   5.958 -2.9875 -0.4631  3.4993
  160MOL0     H21079  -0.839   4.888   5.819 -0.7179  1.6137  1.3445
  160MOL0     H21080  -0.806   4.762   6.108  1.4901  3.8918 -0.0108
  160MOL0     H21081  -0.899   4.693   5.977 -1.1293  0.6068  0.8442
  160MOL0     H21082  -0.950   4.668   6.249  0.8971  3.0708  0.3927
  160MOL0     H21083  -1.129   4.570   6.368  1.2119  0.9687  0.2123
  160MOL0     H21084  -1.757   4.738   6.283  0.1787 -0.4218 -1.7727
  160MOL0     H21085  -1.971   4.616   6.260  0.8853  1.7968 -0.1132
  160MOL0     H21086  -1.968   4.222   6.467  0.2896 -1.3700 -0.2779
  160MOL0     H21087  -1.961   4.172   6.311  2.1572  0.9259  2.6467
  160MOL0     H21088  -2.225   4.220   6.298  0.7361  2.3953 -1.4607
  160MOL0     H21089  -2.209   4.218   6.475  1.0035 -0.8581 -0.5001
  160MOL0     H21090  -2.087   3.997   6.459 -0.5177 -0.2056  0.7434
  160MOL0     H21091  -2.137   3.974   6.295 -1.0487 -0.9790  0.0412
  160MOL0     H21092  -2.326   4.016   6.538 -1.3055  0.9036 -1.2146
  160MOL0     H21093  -2.368   3.955   6.372 -2.9957 -1.1233  1.9905
  160MOL0     H21094  -2.186   3.824   6.587  4.0942  2.0004 -3.1965
  160MOL0     H21095  -2.193   3.773   6.418 -1.5299  1.6710 -0.9102
  160MOL0     H21096  -2.321   3.624   6.566 -1.0888 -1.7435 -2.4370
  160MOL0     H21097  -2.427   3.696   6.446 -1.8063  0.4963  1.6714
  160MOL0     H21098  -2.411   3.812   6.734  0.0357 -1.3276  1.8868
  160MOL0     H21099  -2.531   3.847   6.604  0.0900 -0.3239  0.7858
  160MOL0     H21100  -2.504   3.566   6.706  2.0891  0.1000 -4.7814
  160MOL0     H21101  -2.636   3.623   6.611  2.9640  0.4474 -3.8864
  160MOL0     H21102  -1.759   4.250   6.338 -0.5463 -0.2058  1.3071
  160MOL0     H21103  -1.550   4.366   6.331 -1.4856 -2.8586  0.7286
  160MOL0     H21104  -1.415   4.782   6.122 -0.6916 -0.9150  1.9508
  160MOL0     H21105  -1.223   4.891   6.016  0.4497 -0.2559  0.2309
  160MOL0     H21106   0.963   4.943   5.747 -0.6413  2.8951 -0.2103
  160MOL0     H21107   1.116   4.946   5.932  0.7169  0.4543 -3.5360
  160MOL0     H21108   1.064   4.908   6.433 -0.3908 -0.1472 -2.4543
  160MOL0     H21109   1.178   4.808   6.605 -0.4642 -2.1190 -2.0730
  160MOL0     H21110   1.581   4.985   6.700  3.2006 -0.7357 -0.4153
  160MOL0     H21111   1.642   4.838   6.627 -2.4609 -1.9751 -1.3775
  160MOL0     H21112   1.692   4.862   6.875  0.5571 -1.4453 -1.9679
  160MOL0     H21113   1.530   4.837   6.902  1.6229 -2.4198  2.4494
  160MOL0     H21114   1.597   4.615   6.726  0.9542 -0.7244  0.8689
  160MOL0     H21115   1.577   4.603   6.899 -1.1233 -0.4736 -0.0710
  160MOL0     H21116   1.824   4.673   6.914  0.2149  0.1111 -0.4911
  160MOL0     H21117   1.789   4.522   6.835 -1.1982 -1.0552  1.2772
  160MOL0     H21118   1.991   4.791   6.563  1.0889  1.6153  1.9797
  160MOL0     H21119   1.558   4.954   6.457  1.0789 -4.4431  1.2338
  160MOL0     H21120   1.442   5.055   6.272 -0.9526  1.6168 -0.4159
  161MOL0     O21121   4.204  10.705   9.309 -0.7790  0.5572  0.5120
  161MOL0     C21122   4.171  10.643   9.205 -0.4384  0.6871  0.4808
  161MOL0     O21123   4.193  10.685   9.081  0.5697  0.1519 -0.1290
  161MOL0     C21124   4.275  10.797   9.060 -0.4997 -0.0665 -0.3780
  161MOL0     C21125   4.215  10.927   9.060 -0.6486  0.6444  0.9125
  161MOL0     C21126   4.292  11.036   9.043 -0.0818 -0.2315  0.2360
  161MOL0     C21127   4.427  11.028   9.019 -0.4298  0.1815  0.1210
  161MOL0     O21128   4.505  11.137   9.017  0.0744 -0.5119  0.4272
  161MOL0     C21129   4.453  11.267   8.987  0.5285  1.1531  0.5010
  161MOL0     C21130   4.436  11.358   9.112  0.1748  0.0958 -0.9033
  161MOL0     C21131   4.546  11.391   9.195 -0.2970  0.3644  0.1048
  161MOL0     C21132   4.649  11.492   9.123  0.2187  0.0723 -0.0058
  161MOL0     C21133   4.770  11.525   9.209  0.5909  1.2303  0.2768
  161MOL0     C21134   4.872  11.624   9.134  0.1806  0.3141  0.2381
  161MOL0     C21135   5.008  11.640   9.207  0.3014 -0.7427  0.2936
  161MOL0     C21136   5.130  11.558   9.150  0.9066  0.5047 -0.4979
  161MOL0     N21137   5.090  11.427   9.114  0.4723  0.7945  0.6693
  161MOL0     C21138   5.077  11.327   9.202  0.3522  0.0950  0.3694
  161MOL0     C21139   5.074  11.217   9.123  0.6418  0.5256  0.5858
  161MOL0     C21140   5.057  11.075   9.176  0.0368 -1.0533  0.9367
  161MOL0     C21141   5.186  10.996   9.147 -0.6886 -0.7493  0.2004
  161MOL0     C21142   5.188  10.861   9.220 -0.2746 -0.2946 -0.4255
  161MOL0     C21143   5.326  10.797   9.222 -0.4940  0.0114 -0.2447
  161MOL0     O21144   5.333  10.677   9.300  0.4045 -0.8635  0.1865
  161MOL0     C21145   5.274  10.564   9.241 -0.6796 -0.0225 -0.1194
  161MOL0     C21146   5.256  10.540   9.100  0.0684 -0.2724  0.0720
  161MOL0     C21147   5.193  10.426   9.057 -0.7544 -0.2016  0.2753
  161MOL0     C21148   5.136  10.332   9.148  0.5633  0.6247  1.1083
  161MOL0     C21149   5.081  10.200   9.094  0.2028 -0.9695 -0.2266
  161MOL0     O21150   5.092  10.094   9.175 -0.0569 -0.0183  0.3535
  161MOL0     C21151   5.024   9.976   9.142 -0.6319  0.3332  0.0115
  161MOL0     C21152   4.881   9.966   9.140 -0.1045  0.4354 -0.3232
  161MOL0     C21153   4.816   9.851   9.103 -0.0433  0.5086 -0.2642
  161MOL0     C21154   4.894   9.733   9.091 -0.2984  0.0142  0.5515
  161MOL0     O21155   4.823   9.625   9.056  0.6262  0.3230  0.3746
  161MOL0     C21156   4.859   9.499   9.130  0.7652 -0.3324  0.1976
  161MOL0     C21157   4.737   9.414   9.162 -1.0682  0.1221 -0.5486
  161MOL0     C21158   4.649   9.388   9.037  0.0280 -0.4784 -0.5343
  161MOL0     C21159   4.519   9.300   9.050 -0.5659 -0.2936  0.4486
  161MOL0     C21160   4.440   9.285   8.915 -0.5246  0.0420 -0.0032
  161MOL0     C21161   4.507   9.182   8.820  0.3831  0.9318 -0.0515
  161MOL0     C21162   4.453   9.043   8.849  0.6429  0.1554  0.3366
  161MOL0     C21163   4.561   8.933   8.853 -0.3771 -0.6556  0.7095
  161MOL0    Cl21164   4.659   8.965   9.002 -0.2098  0.2596  0.6825
  161MOL0     C21165   5.034   9.737   9.095 -0.6968 -0.0852  0.1414
  161MOL0     C21166   5.102   9.855   9.132  0.4698  0.8356  1.2027
  161MOL0     O21167   5.033  10.208   8.980 -0.2467  0.2450 -1.1096
  161MOL0     C21168   5.152  10.361   9.278 -0.8054 -0.0899 -0.0630
  161MOL0     C21169   5.224  10.477   9.333  0.2265  0.0214 -0.4390
  161MOL0     N21170   5.084  11.250   8.990 -0.2743 -0.8232  0.2011
  161MOL0     N21171   5.092  11.379   8.986  0.0214 -1.3217  0.2534
  161MOL0     C21172   4.490  10.904   9.014  0.5238  0.8521  0.8747
  161MOL0     C21173   4.412  10.787   9.027  0.6468  0.7157 -0.1249
  161MOL0     C21174   4.082  10.535   9.221  0.6934  0.1466  0.3328
  161MOL0     C21175   4.062  10.437   9.116 -0.5849  0.0815  0.2612
  161MOL0     C21176   3.955  10.345   9.123 -0.8952 -0.7118 -0.1900
  161MOL0     C21177   3.893  10.331   9.244 -0.6283 -0.7650 -0.4988
  161MOL0     O21178   3.778  10.258   9.258 -0.5123  0.5754  0.2037
  161MOL0     C21179   3.686  10.250   9.145 -0.2896 -0.2782 -0.3485
  161MOL0     C21180   3.660  10.105   9.121  0.5392 -0.0949  0.4842
  161MOL0     C21181   3.582  10.080   8.989 -0.1634 -0.0614 -0.2658
  161MOL0     C21182   3.430  10.096   9.016 -0.3137  0.1738  0.3631
  161MOL0     C21183   3.376   9.969   9.062  0.3724  1.0313  0.0435
  161MOL0     C21184   3.324   9.856   9.086  0.9298 -0.5533  0.4598
  161MOL0     C21185   3.939  10.407   9.352  1.2650  0.8234 -0.0395
  161MOL0     C21186   4.023  10.509   9.339 -0.2846  0.1469 -0.4902
  161MOL0     H21187   4.109  10.937   9.076 -1.6332 -0.6644 -3.5142
  161MOL0     H21188   4.248  11.136   9.043 -0.4358 -0.2950 -2.7431
  161MOL0     H21189   4.354  11.255   8.942  0.7430 -1.7078  0.5935
  161MOL0     H21190   4.516  11.315   8.911  0.1077  1.2096  0.1819
  161MOL0     H21191   4.364  11.297   9.168  1.3136 -1.6006 -1.2091
  161MOL0     H21192   4.385  11.452   9.092 -1.3242  1.0585  5.3685
  161MOL0     H21193   4.595  11.296   9.218 -0.0644  0.2676 -0.7601
  161MOL0     H21194   4.511  11.435   9.289  1.8063 -1.2159  1.7365
  161MOL0     H21195   4.677  11.451   9.026  1.0730 -1.1333  0.7063
  161MOL0     H21196   4.603  11.589   9.104  4.0019  1.7714 -1.3965
  161MOL0     H21197   4.818  11.427   9.217 -1.0013  0.5557  2.2478
  161MOL0     H21198   4.741  11.562   9.308  1.3107 -3.7623  2.6436
  161MOL0     H21199   4.824  11.719   9.110  2.1719  1.9715  2.2767
  161MOL0     H21200   4.884  11.584   9.033 -5.7794  0.1831 -0.7449
  161MOL0     H21201   5.028  11.747   9.197  1.1599 -0.9868 -0.8919
  161MOL0     H21202   4.990  11.616   9.312 -2.5819 -0.7633 -0.1300
  161MOL0     H21203   5.217  11.554   9.216  1.3275 -2.3747 -1.0731
  161MOL0     H21204   5.153  11.603   9.053 -0.4551  1.5938 -0.3458
  161MOL0     H21205   5.083  11.330   9.310  4.0105  1.6325  0.2481
  161MOL0     H21206   4.972  11.018   9.135  0.6238 -0.8907 -0.5796
  161MOL0     H21207   5.057  11.093   9.284 -0.5222  0.4718  0.7022
  161MOL0     H21208   5.277  11.054   9.165 -1.3431 -0.1784  1.8738
  161MOL0     H21209   5.193  10.972   9.040  1.1524  1.8266 -0.3395
  161MOL0     H21210   5.153  10.875   9.322  1.0978 -3.2014  0.5367
  161MOL0     H21211   5.117  10.799   9.166  0.0649 -0.3821 -0.7837
  161MOL0     H21212   5.412  10.859   9.249  0.9604 -0.3583 -3.5829
  161MOL0     H21213   5.351  10.780   9.117  0.7071  0.6790 -0.0806
  161MOL0     H21214   5.286  10.606   9.019  0.9435 -1.6298 -0.7509
  161MOL0     H21215   5.188  10.405   8.951  1.5027 -4.2971  0.7597
  161MOL0     H21216   4.828  10.058   9.166 -0.9844 -0.1815  0.1016
  161MOL0     H21217   4.708   9.863   9.107 -0.0411  1.0930 -1.5100
  161MOL0     H21218   4.899   9.539   9.223 -2.9050 -1.4277  2.4825
  161MOL0     H21219   4.942   9.451   9.077  3.1781  0.3189  3.1393
  161MOL0     H21220   4.680   9.463   9.241  0.0994  1.2735 -0.3885
  161MOL0     H21221   4.775   9.315   9.190 -2.8340  0.0472  1.9193
  161MOL0     H21222   4.709   9.345   8.956 -0.1337 -2.3337  0.2774
  161MOL0     H21223   4.616   9.485   8.998  2.3213  0.7228  0.3406
  161MOL0     H21224   4.548   9.203   9.093 -0.8552  0.1376  1.6774
  161MOL0     H21225   4.458   9.345   9.129 -1.2822 -2.6795  1.3358
  161MOL0     H21226   4.443   9.381   8.862  1.6318  1.0294  1.7441
  161MOL0     H21227   4.338   9.253   8.938 -0.6478 -0.7548 -1.5376
  161MOL0     H21228   4.616   9.192   8.827  0.3557  1.5987 -0.4545
  161MOL0     H21229   4.485   9.209   8.717 -2.0295  3.3567  0.9657
  161MOL0     H21230   4.408   9.047   8.949  0.2452  1.1892  0.1300
  161MOL0     H21231   4.380   9.020   8.770  0.3504  0.2371  0.5794
  161MOL0     H21232   4.612   8.928   8.756 -0.0420 -1.5095  0.9205
  161MOL0     H21233   4.510   8.837   8.869 -0.4961 -0.8287 -0.6039
  161MOL0     H21234   5.097   9.653   9.069 -1.8712 -0.9331 -0.0775
  161MOL0     H21235   5.210   9.850   9.143  0.5832 -0.3219 -0.1481
  161MOL0     H21236   5.120  10.296   9.359  1.0369  2.8029  3.2992
  161MOL0     H21237   5.229  10.488   9.441 -1.5652  0.6566 -0.4032
  161MOL0     H21238   4.598  10.895   9.003  0.6157 -0.1403  2.4232
  161MOL0     H21239   4.460  10.689   9.025  1.9165  1.3129 -0.1565
  161MOL0     H21240   4.123  10.464   9.030  0.6023  2.1173  1.6412
  161MOL0     H21241   3.924  10.283   9.040 -1.3634  1.6392 -1.8828
  161MOL0     H21242   3.717  10.301   9.053 -0.9189 -0.3189 -0.5840
  161MOL0     H21243   3.591  10.299   9.165 -0.3010  1.0080 -3.0473
  161MOL0     H21244   3.763  10.069   9.119  0.1669 -1.2086  0.2784
  161MOL0     H21245   3.608  10.064   9.208 -2.8919  0.4701 -1.1098
  161MOL0     H21246   3.599   9.980   8.949  2.8842 -0.4014  1.5482
  161MOL0     H21247   3.613  10.151   8.912 -0.4790 -1.8479 -2.1289
  161MOL0     H21248   3.407  10.177   9.085  1.7980 -0.2220  1.6184
  161MOL0     H21249   3.367  10.125   8.931 -1.9877  0.3817  1.6117
  161MOL0     H21250   3.289   9.756   9.101 -0.9076 -0.5151 -2.6878
  161MOL0     H21251   3.885  10.405   9.446  4.5211 -0.3419  1.9744
  161MOL0     H21252   4.030  10.574   9.426 -3.1440 -2.1219  1.6346
  162MOL0     O21253   7.144   4.743   0.867 -0.1693 -0.8183  0.5074
  162MOL0     C21254   7.054   4.752   0.940  0.4740  0.2541  0.1256
  162MOL0     O21255   7.073   4.734   1.076 -0.2619 -1.2425  0.0013
  162MOL0     C21256   7.192   4.720   1.141  0.7046  0.0297  0.1754
  162MOL0     C21257   7.313   4.777   1.088 -0.1123 -0.7539  0.1691
  162MOL0     C21258   7.433   4.777   1.170  0.3421 -0.1135  0.3542
  162MOL0     C21259   7.425   4.698   1.287  0.6896  0.3362 -0.8034
  162MOL0     O21260   7.540   4.679   1.362 -0.2896  0.0789  0.0135
  162MOL0     C21261   7.670   4.674   1.291  0.3009 -0.4814  0.3778
  162MOL0     C21262   7.760   4.581   1.360  1.0328 -0.4457 -0.1490
  162MOL0     C21263   7.912   4.616   1.339 -0.7279 -0.1453 -0.7969
  162MOL0     C21264   7.996   4.525   1.434 -1.1004  0.7245 -0.4067
  162MOL0     C21265   8.146   4.515   1.374  0.3160  0.1084 -0.3660
  162MOL0     C21266   8.246   4.436   1.458 -0.6472  0.4083  0.0631
  162MOL0     C21267   8.326   4.343   1.364  0.2273  0.0560 -0.3980
  162MOL0     C21268   8.445   4.290   1.437 -1.1577 -1.2363  0.3255
  162MOL0     N21269   8.405   4.204   1.555  0.1826 -0.4200 -0.3477
  162MOL0     C21270   8.355   4.079   1.539  0.2662  0.2718  0.1436
  162MOL0     C21271   8.304   4.048   1.663  0.6690  0.5202  1.1107
  162MOL0     C21272   8.261   3.917   1.703 -0.3354  0.3504  0.0833
  162MOL0     C21273   8.192   3.830   1.595  0.5723  0.1835 -0.7241
  162MOL0     C21274   8.161   3.681   1.630  0.4418 -0.3510  1.1065
  162MOL0     C21275   8.105   3.600   1.515  0.3133 -0.4726  1.2861
  162MOL0     O21276   8.010   3.659   1.431  0.7642 -0.5866 -0.1184
  162MOL0     C21277   7.954   3.584   1.335  0.0991  0.5087  0.2170
  162MOL0     C21278   7.894   3.666   1.243 -0.0666  0.4553 -0.7666
  162MOL0     C21279   7.829   3.603   1.140 -0.0636  0.7395  0.2380
  162MOL0     C21280   7.835   3.468   1.114 -0.6816 -0.1191 -0.0545
  162MOL0     C21281   7.756   3.402   1.013 -0.1117 -0.4492  0.1591
  162MOL0     O21282   7.734   3.482   0.900  0.4328  0.1463 -0.0076
  162MOL0     C21283   7.632   3.451   0.819  0.1444 -0.3209  0.5110
  162MOL0     C21284   7.503   3.434   0.869  0.2038 -0.2504  0.6036
  162MOL0     C21285   7.407   3.397   0.778  0.3432  0.8604  0.3937
  162MOL0     C21286   7.437   3.350   0.647 -0.6320 -0.6001 -0.4321
  162MOL0     O21287   7.338   3.293   0.577 -0.6294  0.4563 -1.1412
  162MOL0     C21288   7.369   3.193   0.480  0.2621 -0.2408  0.0208
  162MOL0     C21289   7.241   3.116   0.444  1.3120  0.1833  0.2046
  162MOL0     C21290   7.110   3.193   0.400 -0.1830  0.2519 -0.1298
  162MOL0     C21291   6.992   3.094   0.387  0.2614  0.3906  0.2050
  162MOL0     C21292   6.867   3.160   0.327 -0.6730  0.2778  1.1781
  162MOL0     C21293   6.836   3.296   0.391 -0.0320 -0.5871  1.2833
  162MOL0     C21294   6.700   3.353   0.332  0.1470  0.2621  0.4912
  162MOL0     C21295   6.721   3.429   0.199 -0.2415  0.1914  0.1112
  162MOL0    Cl21296   6.556   3.497   0.152 -0.0096  0.5340  0.3005
  162MOL0     C21297   7.567   3.366   0.595  0.1149  0.0778 -0.6625
  162MOL0     C21298   7.663   3.432   0.680  0.2696  0.6867  0.0432
  162MOL0     O21299   7.724   3.283   1.022  0.0394  0.4679  0.0486
  162MOL0     C21300   7.906   3.387   1.204 -0.2908 -0.3412  1.7485
  162MOL0     C21301   7.971   3.445   1.310 -0.1135  0.3308  0.3889
  162MOL0     N21302   8.333   4.154   1.750  0.4936  0.5735 -0.3750
  162MOL0     N21303   8.404   4.242   1.685 -0.7280  1.0409  0.1969
  162MOL0     C21304   7.310   4.630   1.331  0.1966  0.0240 -0.3008
  162MOL0     C21305   7.189   4.647   1.259  0.0528 -0.1493  0.1259
  162MOL0     C21306   6.911   4.768   0.906  0.6506 -0.3477 -0.3159
  162MOL0     C21307   6.821   4.717   0.995  0.4932 -0.0412  0.1779
  162MOL0     C21308   6.685   4.744   0.972  0.4093  0.4956  0.2393
  162MOL0     C21309   6.641   4.807   0.861  0.3015 -0.3688 -0.5754
  162MOL0     O21310   6.505   4.817   0.831  0.4027  1.2490 -0.2966
  162MOL0     C21311   6.404   4.822   0.930 -0.2275  0.1556 -0.5066
  162MOL0     C21312   6.278   4.806   0.854 -0.0997 -0.7384 -0.5608
  162MOL0     C21313   6.152   4.820   0.942  0.3151  0.1579  1.0583
  162MOL0     C21314   6.038   4.903   0.869 -0.4717  0.7230  0.0827
  162MOL0     C21315   5.934   4.934   0.969  1.0213 -0.4092  0.5576
  162MOL0     C21316   5.847   4.943   1.049  0.7868 -0.2172  0.2286
  162MOL0     C21317   6.735   4.858   0.778  0.1804 -0.5257 -0.3916
  162MOL0     C21318   6.868   4.845   0.798  0.8012  0.3583  1.1225
  162MOL0     H21319   7.318   4.828   0.992  0.3208 -2.3751 -0.7202
  162MOL0     H21320   7.525   4.811   1.124  0.6633 -0.7294  0.5286
  162MOL0     H21321   7.712   4.775   1.290  0.5750 -0.5694  1.6731
  162MOL0     H21322   7.667   4.640   1.187  0.4221  0.4113  0.0713
  162MOL0     H21323   7.738   4.483   1.317 -0.5875 -0.7989  1.3556
  162MOL0     H21324   7.742   4.565   1.467  1.0656  0.0618 -0.0616
  162MOL0     H21325   7.933   4.720   1.363 -3.0077 -0.5052  3.7229
  162MOL0     H21326   7.927   4.596   1.233  2.3054  0.6147 -0.6137
  162MOL0     H21327   8.002   4.545   1.541 -2.1478 -5.0923  1.0948
  162MOL0     H21328   7.949   4.428   1.421 -1.2857  0.8194 -0.4379
  162MOL0     H21329   8.183   4.618   1.381 -0.7692  0.6207 -1.7059
  162MOL0     H21330   8.141   4.484   1.269 -0.4551  1.3653 -0.7305
  162MOL0     H21331   8.196   4.376   1.534  1.0123 -0.4650  0.5056
  162MOL0     H21332   8.314   4.511   1.500 -2.2104  1.8296  0.1836
  162MOL0     H21333   8.257   4.260   1.346 -1.4311  1.0536  1.0240
  162MOL0     H21334   8.363   4.399   1.278  1.6231  1.8588  1.2750
  162MOL0     H21335   8.507   4.370   1.480 -1.2744 -1.8083  1.5960
  162MOL0     H21336   8.505   4.245   1.357 -2.5701 -0.6639 -1.0989
  162MOL0     H21337   8.363   4.019   1.449 -1.3773  1.5022 -0.8733
  162MOL0     H21338   8.188   3.921   1.785 -0.9064 -1.5629 -0.2657
  162MOL0     H21339   8.353   3.867   1.734  1.0358  2.1628 -0.8891
  162MOL0     H21340   8.253   3.821   1.504 -0.3684  0.8969 -1.4454
  162MOL0     H21341   8.091   3.863   1.571  0.7881 -0.5683 -2.8672
  162MOL0     H21342   8.238   3.625   1.683  0.5515 -2.1962 -0.8548
  162MOL0     H21343   8.079   3.673   1.701 -1.5606 -0.2518 -1.0535
  162MOL0     H21344   8.061   3.508   1.554  1.7467 -0.6378  2.5916
  162MOL0     H21345   8.190   3.572   1.451 -0.6874  1.5594 -1.1107
  162MOL0     H21346   7.887   3.774   1.254  2.0020  1.0019 -3.7246
  162MOL0     H21347   7.772   3.668   1.074 -0.4095  0.8439  0.6386
  162MOL0     H21348   7.475   3.441   0.974  0.4010 -1.8335  0.7794
  162MOL0     H21349   7.302   3.388   0.804  0.3494  0.3988  0.2583
  162MOL0     H21350   7.441   3.127   0.530  1.3714  0.1572 -1.0227
  162MOL0     H21351   7.412   3.230   0.387  0.2918 -2.1315 -0.7655
  162MOL0     H21352   7.215   3.042   0.520 -1.4395  0.9771  0.1241
  162MOL0     H21353   7.259   3.060   0.351 -0.9396 -0.8730  0.3593
  162MOL0     H21354   7.127   3.253   0.310 -0.5694  0.5258 -0.0215
  162MOL0     H21355   7.087   3.260   0.483 -0.0091 -0.5748  0.5944
  162MOL0     H21356   7.017   3.000   0.337 -0.5139 -1.2479  2.6734
  162MOL0     H21357   6.969   3.065   0.490  0.7552 -1.4374 -0.1571
  162MOL0     H21358   6.785   3.088   0.341  2.0235 -2.7200  3.2119
  162MOL0     H21359   6.870   3.172   0.219 -1.0149 -2.7926  0.7258
  162MOL0     H21360   6.914   3.370   0.371  0.2757 -0.5991  2.4036
  162MOL0     H21361   6.839   3.290   0.500  1.4167  0.5953  1.3434
  162MOL0     H21362   6.623   3.276   0.324  0.6383 -0.4723  2.3662
  162MOL0     H21363   6.663   3.431   0.400 -0.7003 -0.3857  0.8069
  162MOL0     H21364   6.754   3.381   0.106 -3.5244  3.1413 -2.9203
  162MOL0     H21365   6.803   3.500   0.210  1.1256 -1.0965 -1.2075
  162MOL0     H21366   7.590   3.339   0.493 -1.7196 -2.4851 -0.4992
  162MOL0     H21367   7.762   3.453   0.641  2.1440  1.1671  4.4726
  162MOL0     H21368   7.931   3.282   1.197  1.0733 -0.1964  3.7166
  162MOL0     H21369   8.004   3.378   1.389 -1.7116  1.3376  1.9597
  162MOL0     H21370   7.300   4.577   1.425 -0.8776 -0.8173 -0.8690
  162MOL0     H21371   7.093   4.605   1.288  0.2726 -1.3058 -0.7486
  162MOL0     H21372   6.841   4.652   1.079  0.3261 -1.2579 -0.6884
  162MOL0     H21373   6.621   4.705   1.051  0.1215  0.8365  0.1724
  162MOL0     H21374   6.415   4.922   0.971 -1.5715 -0.7319  2.3042
  162MOL0     H21375   6.408   4.734   0.995  2.3183 -3.1563 -4.6382
  162MOL0     H21376   6.267   4.878   0.772 -4.5814 -2.9295 -2.2185
  162MOL0     H21377   6.274   4.709   0.804  0.9968 -1.0908 -0.0015
  162MOL0     H21378   6.181   4.862   1.039  1.7425 -0.6711  1.0170
  162MOL0     H21379   6.116   4.722   0.975 -0.2219  0.6449  1.9655
  162MOL0     H21380   6.085   4.992   0.827  2.2131 -1.2499 -1.3580
  162MOL0     H21381   5.992   4.835   0.797 -1.0735 -0.4164  1.4964
  162MOL0     H21382   5.764   4.964   1.114 -4.8509 -4.0670 -4.6392
  162MOL0     H21383   6.712   4.907   0.683 -1.6884 -2.3027 -0.9171
  162MOL0     H21384   6.943   4.885   0.730  1.3206  0.1910  1.5937
  163MOL0     O21385   8.767   8.204   8.370  0.2443 -0.2357 -0.7268
  163MOL0     C21386   8.853   8.286   8.339  0.5845  0.1329  0.0306
  163MOL0     O21387   8.833   8.420   8.288  0.1592  0.2663 -0.2246
  163MOL0     C21388   8.711   8.473   8.265 -0.1861 -0.4457  0.2864
  163MOL0     C21389   8.586   8.425   8.307 -0.2810 -1.2342 -0.3605
  163MOL0     C21390   8.465   8.491   8.302 -0.9846  0.9901 -0.6423
  163MOL0     C21391   8.464   8.624   8.262  0.3108  0.2371  0.5017
  163MOL0     O21392   8.358   8.714   8.273 -0.2029  0.2681  0.4304
  163MOL0     C21393   8.225   8.654   8.282 -0.1467 -0.6399  0.0011
  163MOL0     C21394   8.121   8.773   8.298  0.4529  1.1033  0.3288
  163MOL0     C21395   8.121   8.817   8.442  0.0969 -0.2433 -0.0636
  163MOL0     C21396   8.225   8.918   8.486  1.1195  0.9032 -0.4023
  163MOL0     C21397   8.178   9.070   8.481  0.0184 -0.0118 -0.6668
  163MOL0     C21398   8.060   9.103   8.583 -0.1152 -0.2195  0.7721
  163MOL0     C21399   7.957   9.195   8.517 -0.1900 -0.5892  0.2327
  163MOL0     C21400   7.867   9.252   8.638 -0.4305  0.5834  0.3936
  163MOL0     N21401   7.742   9.310   8.576 -0.0719  0.0859 -0.2221
  163MOL0     C21402   7.738   9.439   8.536  0.2857 -1.1629 -0.2691
  163MOL0     C21403   7.609   9.465   8.516  0.7038  0.4073  0.6005
  163MOL0     C21404   7.542   9.583   8.457  0.8400 -0.0500 -0.7753
  163MOL0     C21405   7.494   9.553   8.317  0.7741  0.6844  0.2092
  163MOL0     C21406   7.606   9.507   8.221 -0.9533  1.0686  0.7051
  163MOL0     C21407   7.570   9.420   8.088 -0.0967  0.3273 -0.5075
  163MOL0     O21408   7.682   9.391   8.009  0.5950 -0.2345  0.0518
  163MOL0     C21409   7.649   9.410   7.871 -1.0549  0.4485 -0.1089
  163MOL0     C21410   7.727   9.494   7.793 -0.2848 -1.1105 -0.9272
  163MOL0     C21411   7.743   9.482   7.657 -1.1652 -0.4103  0.1814
  163MOL0     C21412   7.661   9.393   7.595  0.1301  0.2699 -0.6807
  163MOL0     C21413   7.666   9.385   7.450  0.7296  0.4859  0.0400
  163MOL0     O21414   7.757   9.469   7.395 -0.3331  0.0239 -0.1567
  163MOL0     C21415   7.795   9.466   7.263 -0.5822  1.2925 -1.3787
  163MOL0     C21416   7.743   9.381   7.159 -0.0550 -0.1269 -0.5396
  163MOL0     C21417   7.792   9.380   7.028  0.3553  0.4432  0.4610
  163MOL0     C21418   7.902   9.459   7.000  0.7014  0.3518 -0.4172
  163MOL0     O21419   7.971   9.457   6.887  0.4424 -1.0109 -0.2702
  163MOL0     C21420   7.914   9.422   6.760  0.9222  0.2085  0.6816
  163MOL0     C21421   8.018   9.389   6.651 -0.3008  0.0258 -0.8438
  163MOL0     C21422   8.095   9.262   6.697 -0.3682 -0.7786 -0.7655
  163MOL0     C21423   8.211   9.226   6.604 -0.1802  0.3361  0.0527
  163MOL0     C21424   8.346   9.305   6.624 -0.2474  0.0261  0.3719
  163MOL0     C21425   8.450   9.276   6.506  0.7271 -0.0145  0.6902
  163MOL0     C21426   8.438   9.362   6.379 -0.1241  0.5765 -0.0931
  163MOL0     C21427   8.531   9.344   6.275 -1.0835 -0.6068  0.4426
  163MOL0    Cl21428   8.523   9.171   6.223 -0.4810  0.3144 -0.2009
  163MOL0     C21429   7.957   9.528   7.106  0.1959 -0.0708  0.3474
  163MOL0     C21430   7.905   9.537   7.233 -0.1442  0.2620  0.6671
  163MOL0     O21431   7.595   9.301   7.392  0.2556 -0.0853 -0.4729
  163MOL0     C21432   7.573   9.311   7.671 -0.7030  0.8634 -0.0549
  163MOL0     C21433   7.571   9.318   7.811 -0.1312 -0.0923 -0.2734
  163MOL0     N21434   7.529   9.358   8.552 -0.4853  0.9486  0.2457
  163MOL0     N21435   7.610   9.261   8.588 -0.4323 -0.2863  0.5276
  163MOL0     C21436   8.589   8.673   8.211  1.1528 -0.5755 -1.3886
  163MOL0     C21437   8.706   8.601   8.210 -0.5036 -0.4492 -0.0447
  163MOL0     C21438   8.993   8.256   8.374 -0.4760 -0.3001 -0.2160
  163MOL0     C21439   9.028   8.151   8.457  0.2231 -0.6872  0.7542
  163MOL0     C21440   9.160   8.108   8.477 -0.3436  0.0331 -0.4931
  163MOL0     C21441   9.264   8.181   8.423 -0.1309  0.3558  0.4124
  163MOL0     O21442   9.395   8.153   8.439 -0.2376 -0.0594 -0.1269
  163MOL0     C21443   9.497   8.187   8.337 -0.1790  0.3110  0.0763
  163MOL0     C21444   9.633   8.123   8.382  0.2090 -0.8604  0.1732
  163MOL0     C21445   9.743   8.122   8.273 -0.2292 -0.2970 -0.4498
  163MOL0     C21446   9.801   8.265   8.273  0.9318 -0.4429 -0.0621
  163MOL0     C21447   9.924   8.271   8.194 -0.0658 -0.4363 -0.3322
  163MOL0     C21448  10.025   8.286   8.124 -0.0430  0.4554 -0.8708
  163MOL0     C21449   9.237   8.296   8.336 -0.0447 -0.9310  0.2468
  163MOL0     C21450   9.097   8.327   8.318 -0.5032 -0.4359 -0.5251
  163MOL0     H21451   8.567   8.327   8.350  0.3261 -1.9560 -1.6821
  163MOL0     H21452   8.378   8.438   8.338  0.2247  0.4954  1.7380
  163MOL0     H21453   8.210   8.579   8.360 -3.1309  0.5209  0.6913
  163MOL0     H21454   8.189   8.601   8.193 -0.4142 -1.5508  0.6286
  163MOL0     H21455   8.030   8.714   8.284  3.6438 -4.9008  1.1493
  163MOL0     H21456   8.142   8.853   8.226  0.1797 -1.1826 -2.5055
  163MOL0     H21457   8.137   8.727   8.502  1.0322 -0.7347 -1.0179
  163MOL0     H21458   8.024   8.863   8.462  1.1693  1.3268  1.7785
  163MOL0     H21459   8.257   8.887   8.586 -0.2005 -3.0328 -1.0224
  163MOL0     H21460   8.315   8.912   8.425  3.0060  0.2615  2.2810
  163MOL0     H21461   8.145   9.097   8.380 -2.8732  1.8785  0.6524
  163MOL0     H21462   8.263   9.137   8.500 -0.1660  0.3492 -1.0882
  163MOL0     H21463   8.100   9.134   8.681 -0.5336 -2.5403  1.7455
  163MOL0     H21464   8.007   9.009   8.603  2.8870 -2.8076 -2.3229
  163MOL0     H21465   8.002   9.282   8.467 -1.3389 -0.1340 -0.0576
  163MOL0     H21466   7.893   9.155   8.437 -0.6587 -0.8494  0.7274
  163MOL0     H21467   7.920   9.328   8.698 -0.8305  0.3454  1.0593
  163MOL0     H21468   7.837   9.174   8.709 -0.8270  1.3514  1.0877
  163MOL0     H21469   7.827   9.501   8.528  0.3936 -1.0950  1.2145
  163MOL0     H21470   7.617   9.663   8.454  0.9536 -0.1834 -2.2753
  163MOL0     H21471   7.463   9.619   8.523 -0.3336  1.2207 -2.7572
  163MOL0     H21472   7.442   9.640   8.274  1.2915  0.4068 -1.0465
  163MOL0     H21473   7.420   9.473   8.328  3.0679 -1.3111  2.0143
  163MOL0     H21474   7.648   9.602   8.185  0.6485  0.0150 -0.3003
  163MOL0     H21475   7.693   9.465   8.273  0.9154  1.3268 -1.9926
  163MOL0     H21476   7.495   9.478   8.034 -1.8854 -0.1222  1.3671
  163MOL0     H21477   7.511   9.334   8.121  0.4975 -0.1100 -0.5673
  163MOL0     H21478   7.804   9.558   7.836 -0.3327  0.4973 -3.0877
  163MOL0     H21479   7.807   9.548   7.600 -3.7960 -0.0265 -2.5743
  163MOL0     H21480   7.651   9.324   7.173  0.3711 -0.6481  0.2277
  163MOL0     H21481   7.744   9.318   6.953  0.7143 -0.4218  0.9272
  163MOL0     H21482   7.856   9.504   6.717 -0.5851 -2.4260 -2.7608
  163MOL0     H21483   7.840   9.341   6.765  2.0166 -1.0467 -1.7254
  163MOL0     H21484   8.088   9.472   6.638  0.7565 -0.8914 -1.1488
  163MOL0     H21485   7.972   9.370   6.554  0.1837  1.7612 -1.4425
  163MOL0     H21486   8.026   9.177   6.691  0.6261 -1.7579  0.9458
  163MOL0     H21487   8.139   9.271   6.796 -1.4850  4.4844 -0.4958
  163MOL0     H21488   8.230   9.118   6.613 -4.8374 -0.5340  3.4110
  163MOL0     H21489   8.179   9.218   6.500  2.2975 -2.4277 -0.6344
  163MOL0     H21490   8.382   9.272   6.722 -1.6528  0.2645  1.0056
  163MOL0     H21491   8.319   9.411   6.634  0.4799  0.1700  0.8795
  163MOL0     H21492   8.439   9.169   6.487 -3.0635  0.1154  1.4409
  163MOL0     H21493   8.546   9.297   6.554  1.0788 -1.4674  0.6584
  163MOL0     H21494   8.338   9.356   6.334 -1.0649  1.8052  1.7046
  163MOL0     H21495   8.439   9.467   6.409 -3.6813  1.2891 -1.9097
  163MOL0     H21496   8.631   9.372   6.310 -0.9876  0.2939 -0.5131
  163MOL0     H21497   8.505   9.410   6.192 -1.5478 -1.9347 -0.5157
  163MOL0     H21498   8.051   9.576   7.082 -0.5524  0.4279 -1.7514
  163MOL0     H21499   7.948   9.595   7.314  0.7116 -1.3869  1.4387
  163MOL0     H21500   7.507   9.240   7.622 -1.0768 -0.6682  2.4696
  163MOL0     H21501   7.513   9.259   7.881 -0.7660 -0.3405 -0.9929
  163MOL0     H21502   8.599   8.770   8.164  2.3932 -0.7004 -1.4117
  163MOL0     H21503   8.798   8.651   8.180 -2.1895  3.2474  0.4036
  163MOL0     H21504   8.954   8.093   8.511 -1.4417  0.5007 -0.1524
  163MOL0     H21505   9.172   8.026   8.547 -2.3071 -0.8572 -1.1355
  163MOL0     H21506   9.515   8.294   8.328  1.5111 -0.1256 -3.8797
  163MOL0     H21507   9.460   8.162   8.237 -1.4796  1.1362  0.3325
  163MOL0     H21508   9.686   8.186   8.454 -0.2196  1.1125 -1.1455
  163MOL0     H21509   9.624   8.021   8.421  4.3626 -0.0075  4.1865
  163MOL0     H21510   9.707   8.093   8.174  1.1456 -2.5131 -0.3491
  163MOL0     H21511   9.830   8.061   8.298  0.6065  1.6705  1.8819
  163MOL0     H21512   9.732   8.333   8.222 -0.5757 -2.3985 -0.7892
  163MOL0     H21513   9.829   8.316   8.365  1.6687 -2.7327  1.0469
  163MOL0     H21514  10.123   8.293   8.081 -0.9646  0.5418 -3.0834
  163MOL0     H21515   9.313   8.355   8.287 -1.0769  2.2890  2.2609
  163MOL0     H21516   9.084   8.414   8.254  0.0643 -1.6378 -2.3673
  164MOL0     O21517   6.435   4.655  10.672 -1.5759 -0.0424 -0.4537
  164MOL0     C21518   6.483   4.715  10.770  0.3819  0.3803  0.7260
  164MOL0     O21519   6.411   4.778  10.867 -0.2167  0.1116  0.2030
  164MOL0     C21520   6.274   4.784  10.862 -0.9089  0.4431  0.6865
  164MOL0     C21521   6.203   4.797  10.744 -0.8059  0.0990 -0.1804
  164MOL0     C21522   6.057   4.788  10.744  0.7883 -0.4485 -0.1550
  164MOL0     C21523   5.987   4.779  10.867  0.2343 -0.3221 -0.0304
  164MOL0     O21524   5.844   4.765  10.878  0.5234  0.6528  0.2926
  164MOL0     C21525   5.758   4.762  10.763  0.2814 -0.1003 -0.2409
  164MOL0     C21526   5.615   4.783  10.816  0.3870  0.8612  0.2022
  164MOL0     C21527   5.600   4.894  10.919 -1.4400  0.5729  0.1788
  164MOL0     C21528   5.453   4.928  10.941 -0.1040  0.2107  0.3219
  164MOL0     C21529   5.438   5.046  11.034  0.8750 -0.2945 -0.1099
  164MOL0     C21530   5.301   5.079  11.095 -0.4941  0.5797  0.3174
  164MOL0     C21531   5.189   5.084  11.001 -0.8234  0.4249  1.0678
  164MOL0     C21532   5.217   5.177  10.883  0.4758 -0.7014  0.4680
  164MOL0     N21533   5.229   5.314  10.928  0.4557 -0.5358 -0.3486
  164MOL0     C21534   5.289   5.413  10.853 -0.0277 -0.6146 -0.5762
  164MOL0     C21535   5.259   5.526  10.926  0.2760 -0.1685 -0.4210
  164MOL0     C21536   5.310   5.661  10.902 -0.2493 -0.5786  0.6426
  164MOL0     C21537   5.221   5.780  10.871  0.1018  0.5380 -0.7525
  164MOL0     C21538   5.274   5.921  10.925  0.9430  0.9560 -1.2712
  164MOL0     C21539   5.175   6.039  10.909  0.2651 -0.7830  0.0343
  164MOL0     O21540   5.237   6.164  10.926 -0.3334  0.5950 -0.5034
  164MOL0     C21541   5.160   6.253  10.871  0.1477 -1.4148  1.2953
  164MOL0     C21542   5.217   6.332  10.767  0.5645  0.1084  0.0995
  164MOL0     C21543   5.154   6.451  10.720  0.0734  0.4452  0.0611
  164MOL0     C21544   5.027   6.477  10.764  0.4995  0.7480  0.5491
  164MOL0     C21545   4.954   6.597  10.712 -0.5357 -0.4722 -0.1969
  164MOL0     O21546   4.836   6.643  10.783  0.4111  0.6458  0.5874
  164MOL0     C21547   4.803   6.774  10.767  0.2655 -0.1906  0.2161
  164MOL0     C21548   4.821   6.863  10.875 -0.3858 -0.3038  0.5950
  164MOL0     C21549   4.788   6.997  10.857 -0.2560  0.0823  0.5912
  164MOL0     C21550   4.748   7.044  10.730 -0.0765 -0.0283 -0.1958
  164MOL0     O21551   4.756   7.179  10.720  0.8145 -0.5452  0.2504
  164MOL0     C21552   4.682   7.244  10.611  0.2843 -0.3134 -0.0795
  164MOL0     C21553   4.678   7.397  10.635 -0.3122 -0.2811 -0.6263
  164MOL0     C21554   4.597   7.482  10.529 -0.5665 -0.2154  0.2242
  164MOL0     C21555   4.568   7.622  10.581  0.3220  0.4115 -0.3393
  164MOL0     C21556   4.683   7.711  10.612 -0.0376 -0.2506 -0.0027
  164MOL0     C21557   4.740   7.775  10.485 -0.4575 -0.2340 -0.8366
  164MOL0     C21558   4.867   7.858  10.511 -0.4506 -0.7722  0.0760
  164MOL0     C21559   4.899   7.947  10.393  0.4483 -0.3515  0.3864
  164MOL0    Cl21560   5.074   8.015  10.394 -0.1313  0.6823 -0.0212
  164MOL0     C21561   4.726   6.958  10.622  0.0055  0.5711 -0.3931
  164MOL0     C21562   4.749   6.826  10.636 -0.2196 -0.8438  0.5765
  164MOL0     O21563   5.012   6.663  10.623  0.3241  0.5559 -0.3868
  164MOL0     C21564   4.966   6.399  10.862 -0.3073 -0.7458  0.7995
  164MOL0     C21565   5.028   6.287  10.915 -0.4448 -0.2749  0.7808
  164MOL0     N21566   5.164   5.494  11.025  1.0531 -1.4204 -0.2115
  164MOL0     N21567   5.144   5.371  11.018  0.0576  0.0819 -0.1224
  164MOL0     C21568   6.065   4.768  10.989  0.1670  0.4545 -0.6693
  164MOL0     C21569   6.203   4.774  10.985  0.5297  0.2253  0.0238
  164MOL0     C21570   6.625   4.729  10.787 -0.5156  0.8296  0.0265
  164MOL0     C21571   6.694   4.786  10.897  1.3751 -0.0807 -0.1553
  164MOL0     C21572   6.833   4.785  10.907  0.8696  0.3284  0.3277
  164MOL0     C21573   6.913   4.721  10.821 -0.2462  0.4813 -0.7540
  164MOL0     O21574   7.042   4.727  10.840  0.9264 -0.6600 -0.0526
  164MOL0     C21575   7.129   4.649  10.756  1.0460  0.4412 -0.7942
  164MOL0     C21576   7.271   4.678  10.811 -0.1447 -0.2194  0.0506
  164MOL0     C21577   7.305   4.594  10.935 -0.1079 -0.2796 -0.6660
  164MOL0     C21578   7.443   4.630  11.002  0.3841  0.0585  0.3588
  164MOL0     C21579   7.474   4.525  11.102 -0.1889  0.8075 -0.7439
  164MOL0     C21580   7.489   4.426  11.169  0.3924  0.5691 -0.1242
  164MOL0     C21581   6.853   4.673  10.709  0.4900  0.3295 -0.7749
  164MOL0     C21582   6.711   4.673  10.692  0.2423 -0.0995  0.2659
  164MOL0     H21583   6.249   4.803  10.646  0.1672 -0.5826  0.2166
  164MOL0     H21584   5.995   4.790  10.654  1.1452  4.3980 -0.5396
  164MOL0     H21585   5.772   4.668  10.709 -1.4926  0.5676 -1.9810
  164MOL0     H21586   5.778   4.844  10.693 -1.3365  0.8186  0.3252
  164MOL0     H21587   5.568   4.699  10.866  2.0625  0.3766  1.0463
  164MOL0     H21588   5.565   4.798  10.719 -1.2436 -2.4564  0.4192
  164MOL0     H21589   5.645   4.986  10.880 -0.6664 -0.3506 -1.1859
  164MOL0     H21590   5.638   4.856  11.014 -0.9460  0.5401 -0.0288
  164MOL0     H21591   5.391   4.944  10.853 -1.3949  4.0446  1.7087
  164MOL0     H21592   5.406   4.841  10.987 -0.8624  0.2300 -0.3992
  164MOL0     H21593   5.473   5.134  10.978  0.7255 -0.8043 -1.0215
  164MOL0     H21594   5.510   5.028  11.114 -0.3138 -0.7758  0.8823
  164MOL0     H21595   5.308   5.170  11.156  1.8542 -0.6138  1.9679
  164MOL0     H21596   5.279   5.004  11.172  0.9042  1.5383  1.7095
  164MOL0     H21597   5.174   4.982  10.963  1.4574  0.2034  0.5870
  164MOL0     H21598   5.100   5.115  11.056 -1.1852 -1.1514  1.4228
  164MOL0     H21599   5.137   5.181  10.809  0.5356  3.2482  0.3923
  164MOL0     H21600   5.306   5.155  10.824 -0.2434  0.2639 -1.0128
  164MOL0     H21601   5.346   5.399  10.762 -0.6027  1.3149 -1.2808
  164MOL0     H21602   5.389   5.660  10.825  1.8615 -0.5078  2.7066
  164MOL0     H21603   5.357   5.679  10.999 -0.4813 -2.3899  1.1322
  164MOL0     H21604   5.121   5.761  10.911  0.5840  0.1148  0.3102
  164MOL0     H21605   5.201   5.796  10.765  2.2271 -0.1194 -1.2944
  164MOL0     H21606   5.307   5.912  11.029 -1.1619 -0.7649 -0.6812
  164MOL0     H21607   5.372   5.936  10.878  2.7808 -1.7971  1.2870
  164MOL0     H21608   5.100   6.034  10.989  0.9636  1.3432  0.8945
  164MOL0     H21609   5.137   6.036  10.807 -1.8973  1.6218  0.6734
  164MOL0     H21610   5.320   6.315  10.736  0.4458 -0.5084  0.0481
  164MOL0     H21611   5.200   6.516  10.647 -2.6546  0.9436 -1.3427
  164MOL0     H21612   4.869   6.823  10.964 -2.1512 -2.3924  0.6808
  164MOL0     H21613   4.795   7.073  10.935  0.1652  0.4192  0.2347
  164MOL0     H21614   4.579   7.208  10.602 -0.1620  0.4581  1.5930
  164MOL0     H21615   4.729   7.219  10.515 -1.6558 -0.1952 -1.0969
  164MOL0     H21616   4.778   7.434  10.658 -0.8366  0.9931 -0.2843
  164MOL0     H21617   4.623   7.411  10.728 -0.0593 -2.6725 -0.0606
  164MOL0     H21618   4.504   7.429  10.507  0.4373 -1.7784 -0.4597
  164MOL0     H21619   4.640   7.497  10.430 -1.8316 -2.1077 -0.6686
  164MOL0     H21620   4.500   7.677  10.514 -1.4880  2.2505  2.7572
  164MOL0     H21621   4.515   7.615  10.677 -1.9392  0.7760 -1.4762
  164MOL0     H21622   4.761   7.645  10.652  0.4194 -0.8888 -1.8631
  164MOL0     H21623   4.666   7.778  10.697  0.1497 -2.4119  1.8431
  164MOL0     H21624   4.652   7.830  10.448 -1.1469 -1.2482 -0.7398
  164MOL0     H21625   4.767   7.705  10.406  1.1942  1.2491 -1.6651
  164MOL0     H21626   4.849   7.929  10.593  0.6086  0.7900 -0.9812
  164MOL0     H21627   4.949   7.794  10.544 -0.1536 -1.4251 -1.8389
  164MOL0     H21628   4.822   8.024  10.380 -0.5034 -1.1004  1.3635
  164MOL0     H21629   4.888   7.875  10.312  0.6100 -1.1541  1.0560
  164MOL0     H21630   4.722   7.003  10.523 -0.6546  2.3009  0.3924
  164MOL0     H21631   4.738   6.762  10.549 -2.6110  2.7583 -2.0370
  164MOL0     H21632   4.865   6.423  10.895 -1.5392 -2.9529 -1.0734
  164MOL0     H21633   4.983   6.220  10.987 -1.9455 -0.6123 -0.4129
  164MOL0     H21634   5.997   4.748  11.071 -2.6344  1.0826 -2.6642
  164MOL0     H21635   6.262   4.748  11.072  0.0156 -0.2535  0.2326
  164MOL0     H21636   6.628   4.817  10.978  3.7617  3.1442  0.7612
  164MOL0     H21637   6.876   4.813  11.003  2.6445 -2.1257  0.3466
  164MOL0     H21638   7.136   4.698  10.659  2.5742  2.2064  0.1335
  164MOL0     H21639   7.096   4.546  10.738 -0.2532  0.6896  0.0782
  164MOL0     H21640   7.342   4.643  10.736  1.5875  1.0730  1.0152
  164MOL0     H21641   7.290   4.783  10.834 -1.0580 -0.1148  0.3906
  164MOL0     H21642   7.315   4.489  10.906  1.3606 -0.3067 -0.1811
  164MOL0     H21643   7.215   4.606  10.997  0.0899 -1.2880 -0.1679
  164MOL0     H21644   7.524   4.626  10.929  0.1039 -0.2332  0.0634
  164MOL0     H21645   7.441   4.720  11.064 -0.4976 -0.9994  1.9356
  164MOL0     H21646   7.499   4.330  11.217 -0.4507  0.6273  0.1816
  164MOL0     H21647   6.921   4.623  10.641 -1.2297 -1.6761 -1.1218
  164MOL0     H21648   6.682   4.636  10.595  4.9248 -3.2865 -0.2959
  165MOL0     O21649   0.059   3.486   9.797 -0.0967 -0.2474 -0.1730
  165MOL0     C21650   0.150   3.551   9.843  0.4607  0.4122 -0.1336
  165MOL0     O21651   0.145   3.693   9.862  0.0463  0.2335  0.1539
  165MOL0     C21652   0.016   3.746   9.876  0.0453  0.0622 -0.7802
  165MOL0     C21653  -0.087   3.744   9.783 -0.0588  0.2455 -0.0757
  165MOL0     C21654  -0.209   3.789   9.800 -0.2204 -0.6227 -0.2819
  165MOL0     C21655  -0.240   3.845   9.929  0.6591 -0.2160 -0.0748
  165MOL0     O21656  -0.357   3.905   9.961 -0.2879  0.2090 -0.7352
  165MOL0     C21657  -0.476   3.854   9.908  0.0352  0.5773 -0.0231
  165MOL0     C21658  -0.598   3.898   9.977 -0.6297  0.2173  0.7059
  165MOL0     C21659  -0.714   3.800   9.953  0.2958 -0.0342 -1.0903
  165MOL0     C21660  -0.843   3.884   9.961 -0.8529  0.6696  0.2302
  165MOL0     C21661  -0.969   3.802   9.970  1.2915  0.3903 -0.9104
  165MOL0     C21662  -1.086   3.879  10.026  0.5569 -0.1711  0.5595
  165MOL0     C21663  -1.220   3.817   9.981  0.1158  0.0929  0.7150
  165MOL0     C21664  -1.345   3.883  10.033  0.4207 -0.3470  0.1845
  165MOL0     N21665  -1.474   3.826   9.988 -0.4729  0.9115  0.2738
  165MOL0     C21666  -1.552   3.749  10.069  0.2774 -1.2931  0.0993
  165MOL0     C21667  -1.636   3.702   9.986 -0.1942  0.2008  0.3993
  165MOL0     C21668  -1.756   3.622  10.035 -0.6318 -0.2006  0.0239
  165MOL0     C21669  -1.859   3.720  10.086  0.2652 -0.1809  0.2533
  165MOL0     C21670  -1.884   3.702  10.237 -0.0247  0.3730 -0.7936
  165MOL0     C21671  -1.967   3.818  10.296 -0.4781 -0.4352 -0.3932
  165MOL0     O21672  -1.900   3.947  10.290  0.4640  0.4201 -0.0356
  165MOL0     C21673  -1.767   3.960  10.335  0.3425 -0.5671  1.2509
  165MOL0     C21674  -1.714   3.895  10.445 -0.7298  0.9599 -0.1901
  165MOL0     C21675  -1.580   3.919  10.492  0.4788  0.0595  0.3626
  165MOL0     C21676  -1.492   4.004  10.420 -0.1004  0.0482  0.3101
  165MOL0     C21677  -1.356   4.015  10.465  0.3946  0.5835 -0.5096
  165MOL0     O21678  -1.275   4.101  10.392  0.2048  0.0969 -1.0978
  165MOL0     C21679  -1.148   4.124  10.426 -0.2853 -0.0420 -0.2319
  165MOL0     C21680  -1.080   4.081  10.543 -1.1086  0.7142 -0.6266
  165MOL0     C21681  -0.940   4.109  10.554 -1.5544  0.1030  0.3191
  165MOL0     C21682  -0.873   4.193  10.464  0.4426 -0.0567  0.3098
  165MOL0     O21683  -0.749   4.242  10.495  0.1925 -0.1303 -0.4370
  165MOL0     C21684  -0.683   4.322  10.398  0.4592  0.0428  0.5416
  165MOL0     C21685  -0.557   4.400  10.445 -0.4230  0.3965  0.7938
  165MOL0     C21686  -0.491   4.485  10.336 -1.2815 -0.8863  0.0468
  165MOL0     C21687  -0.411   4.395  10.237 -0.4227  0.7354 -0.3933
  165MOL0     C21688  -0.260   4.367  10.280  0.8202  0.7073 -0.4166
  165MOL0     C21689  -0.189   4.500  10.272  0.0025  0.3407 -0.1036
  165MOL0     C21690  -0.046   4.474  10.277  0.2612 -0.4304 -0.0940
  165MOL0     C21691   0.030   4.609  10.294 -1.1797  0.0160  1.3048
  165MOL0    Cl21692   0.206   4.609  10.261 -0.4252 -0.4559 -0.2917
  165MOL0     C21693  -0.950   4.233  10.353 -0.3947 -0.9011  0.3106
  165MOL0     C21694  -1.080   4.197  10.336 -0.5058  0.2377 -0.1693
  165MOL0     O21695  -1.328   3.941  10.557  0.1798 -0.1855  0.2986
  165MOL0     C21696  -1.541   4.079  10.314  1.4233  0.7952  0.6039
  165MOL0     C21697  -1.683   4.062  10.283 -0.9773  0.9505  0.5217
  165MOL0     N21698  -1.623   3.748   9.856 -0.0395  0.2526  0.3909
  165MOL0     N21699  -1.517   3.834   9.860 -0.5899 -0.6987 -0.5020
  165MOL0     C21700  -0.140   3.861  10.026 -0.5006 -0.0995 -0.0108
  165MOL0     C21701  -0.014   3.803   9.996 -0.3514  0.3370 -0.0702
  165MOL0     C21702   0.277   3.478   9.868 -0.0964 -0.5748  0.5851
  165MOL0     C21703   0.386   3.536   9.939  0.4493  0.1127  0.3626
  165MOL0     C21704   0.512   3.478   9.958 -0.2315 -0.9037 -0.3818
  165MOL0     C21705   0.530   3.352   9.905  0.2671 -0.1074  1.1602
  165MOL0     O21706   0.658   3.299   9.923 -0.1743 -0.4659 -0.5451
  165MOL0     C21707   0.693   3.165   9.887  0.0670  0.4802 -1.0998
  165MOL0     C21708   0.823   3.109   9.949 -0.1760  0.5571 -0.2136
  165MOL0     C21709   0.941   3.213   9.947  0.0509  0.9175 -0.1995
  165MOL0     C21710   1.078   3.142   9.996  0.2310 -0.4000  0.2093
  165MOL0     C21711   1.059   3.061  10.114 -0.2026 -0.8099 -0.7641
  165MOL0     C21712   1.059   2.998  10.216 -0.0255  0.2677  0.0477
  165MOL0     C21713   0.423   3.291   9.829 -0.2260 -0.2274 -0.0218
  165MOL0     C21714   0.297   3.347   9.826 -0.6446  1.0956 -0.3668
  165MOL0     H21715  -0.082   3.689   9.689  0.0878 -0.9961  0.6410
  165MOL0     H21716  -0.286   3.779   9.724 -0.6770 -3.7890  0.4356
  165MOL0     H21717  -0.468   3.745   9.915  1.7113  0.8093  3.3988
  165MOL0     H21718  -0.486   3.885   9.803 -1.1383 -0.7671 -0.3402
  165MOL0     H21719  -0.613   4.003   9.950  3.2121  0.6905 -0.1788
  165MOL0     H21720  -0.586   3.901  10.086  0.0649  1.6347  0.6124
  165MOL0     H21721  -0.707   3.712  10.016  0.4047 -0.1401 -1.2495
  165MOL0     H21722  -0.707   3.760   9.851 -0.0454 -1.7676 -0.4586
  165MOL0     H21723  -0.822   3.944  10.050  1.6894  0.0047  0.1622
  165MOL0     H21724  -0.848   3.959   9.881  2.9668  0.5944 -0.2821
  165MOL0     H21725  -0.960   3.710  10.028 -1.3868 -0.2815 -1.4425
  165MOL0     H21726  -0.991   3.763   9.870  2.0370 -0.4678 -0.7537
  165MOL0     H21727  -1.077   3.976   9.977  1.1531 -0.6983 -0.4020
  165MOL0     H21728  -1.081   3.889  10.135  3.7977  1.6140  0.3755
  165MOL0     H21729  -1.226   3.815   9.872  0.3491  1.0277  0.6820
  165MOL0     H21730  -1.228   3.712  10.010 -0.7917 -0.0437  0.0323
  165MOL0     H21731  -1.336   3.990  10.011  2.0422 -0.4274  0.3429
  165MOL0     H21732  -1.351   3.861  10.140  0.0455  2.4751  0.8183
  165MOL0     H21733  -1.547   3.743  10.177  3.2517  2.5830  0.4122
  165MOL0     H21734  -1.730   3.548  10.111 -1.2536 -1.7966 -1.2392
  165MOL0     H21735  -1.794   3.570   9.946  1.1078 -3.5889  1.0586
  165MOL0     H21736  -1.946   3.718  10.019  0.7304  2.2534 -0.5267
  165MOL0     H21737  -1.821   3.822  10.074  0.9972 -0.5747 -0.8744
  165MOL0     H21738  -1.948   3.617  10.260 -1.5845  1.7499  0.2316
  165MOL0     H21739  -1.796   3.689  10.300 -2.2047 -1.9161  2.0174
  165MOL0     H21740  -2.006   3.800  10.396  2.7179 -1.9071  0.7280
  165MOL0     H21741  -2.062   3.835  10.243 -0.0236  2.8802 -0.3109
  165MOL0     H21742  -1.776   3.823  10.497 -1.1457  1.3059 -0.2018
  165MOL0     H21743  -1.551   3.862  10.580 -2.5542 -0.6770  1.0235
  165MOL0     H21744  -1.120   4.026  10.627  0.3129  0.0259 -0.3754
  165MOL0     H21745  -0.895   4.083  10.650 -0.5795 -0.6466 -0.3260
  165MOL0     H21746  -0.746   4.392  10.342  0.3586 -1.5694 -1.4973
  165MOL0     H21747  -0.647   4.249  10.325  0.3910  1.1233 -0.6061
  165MOL0     H21748  -0.482   4.343  10.501  1.2633  0.3409 -1.3797
  165MOL0     H21749  -0.607   4.467  10.515 -0.0154  0.3426  1.1364
  165MOL0     H21750  -0.424   4.558  10.382 -0.6847  0.0876 -2.2411
  165MOL0     H21751  -0.562   4.527  10.264  1.6228 -0.0662 -2.5919
  165MOL0     H21752  -0.471   4.307  10.211  0.7735  0.0885 -1.0586
  165MOL0     H21753  -0.419   4.452  10.144 -1.1344 -1.8778 -2.0452
  165MOL0     H21754  -0.216   4.293  10.212 -0.4416  1.2194 -1.8617
  165MOL0     H21755  -0.260   4.323  10.380 -0.3817 -1.0833 -1.1654
  165MOL0     H21756  -0.220   4.568  10.351 -0.3112  1.3236 -1.0540
  165MOL0     H21757  -0.218   4.550  10.180 -3.1834 -0.5908  0.2744
  165MOL0     H21758  -0.023   4.396  10.350  0.1420 -2.4318 -2.0572
  165MOL0     H21759  -0.015   4.436  10.179 -2.7550  2.7573 -2.5369
  165MOL0     H21760   0.025   4.632  10.401 -0.2388 -0.7954  1.5366
  165MOL0     H21761  -0.007   4.697  10.240  0.7634  1.2882  1.9435
  165MOL0     H21762  -0.915   4.294  10.271 -3.0759 -0.1728 -0.4147
  165MOL0     H21763  -1.127   4.225  10.242 -2.8067  1.3286  1.2222
  165MOL0     H21764  -1.488   4.159  10.262  2.2902 -0.5476 -0.6849
  165MOL0     H21765  -1.730   4.127  10.210  1.7188 -2.1976 -4.6443
  165MOL0     H21766  -0.152   3.897  10.128  1.9475 -1.8181  0.9999
  165MOL0     H21767   0.057   3.799  10.078 -1.3578  0.6433  0.8518
  165MOL0     H21768   0.355   3.635   9.970  0.4177  0.6140 -1.1808
  165MOL0     H21769   0.592   3.538  10.000 -2.4636  1.5526  0.6512
  165MOL0     H21770   0.717   3.158   9.780 -1.5278  0.6475 -1.4965
  165MOL0     H21771   0.615   3.097   9.922 -1.7488  1.9179 -2.1401
  165MOL0     H21772   0.803   3.088  10.055  0.4281  1.2469  0.0446
  165MOL0     H21773   0.853   3.017   9.900 -2.0007 -0.0582 -0.2493
  165MOL0     H21774   0.915   3.289  10.021 -4.8809 -1.4808  0.9457
  165MOL0     H21775   0.959   3.267   9.853  1.6467  2.3242  0.8510
  165MOL0     H21776   1.116   3.076   9.918 -1.9023 -1.3052 -0.1388
  165MOL0     H21777   1.147   3.222  10.027 -0.9078 -0.2616  2.6701
  165MOL0     H21778   1.063   2.954  10.314 -0.3377 -2.1774 -0.9786
  165MOL0     H21779   0.443   3.191   9.792 -2.3327 -0.9655  0.6338
  165MOL0     H21780   0.221   3.288   9.774  3.6529 -4.7194 -1.1420
  166MOL0     O21781   5.812   9.132   5.534 -0.1713 -0.9286 -0.1016
  166MOL0     C21782   5.833   9.065   5.434  0.1810 -0.1212 -0.5113
  166MOL0     O21783   5.957   9.050   5.365 -0.3507 -0.0388  0.6423
  166MOL0     C21784   6.077   9.088   5.416 -0.0134 -0.7729 -0.7700
  166MOL0     C21785   6.097   9.093   5.563 -0.8698 -0.3506 -0.8919
  166MOL0     C21786   6.229   9.102   5.617  0.8028  0.8265  0.0866
  166MOL0     C21787   6.345   9.105   5.532 -0.1373  0.2690 -0.8762
  166MOL0     O21788   6.475   9.100   5.560  0.6236 -0.4158 -0.4486
  166MOL0     C21789   6.512   9.082   5.695 -0.3866  0.1309 -1.3536
  166MOL0     C21790   6.489   9.202   5.787 -0.2832  0.5908  0.3609
  166MOL0     C21791   6.604   9.208   5.891 -0.8979 -0.1400 -1.1439
  166MOL0     C21792   6.564   9.255   6.036 -0.5062 -0.0857 -0.0709
  166MOL0     C21793   6.698   9.246   6.115  0.5164  0.2411 -0.2393
  166MOL0     C21794   6.747   9.110   6.153 -0.4290  0.9606  0.1811
  166MOL0     C21795   6.851   9.125   6.267  0.7777 -0.7354  0.9490
  166MOL0     C21796   6.942   9.000   6.292 -0.5881  0.2955 -0.1749
  166MOL0     N21797   7.023   8.968   6.173 -0.5090  0.4903 -0.5194
  166MOL0     C21798   7.091   9.051   6.090 -0.2916  0.5079  0.6244
  166MOL0     C21799   7.165   8.965   6.013  0.1021 -0.5000  0.3625
  166MOL0     C21800   7.262   9.003   5.907  0.2271 -0.4394 -0.1140
  166MOL0     C21801   7.252   9.149   5.866 -0.5618  0.7673 -0.2706
  166MOL0     C21802   7.349   9.194   5.746  0.3393 -0.3716 -0.8812
  166MOL0     C21803   7.322   9.338   5.689 -0.0533  0.6333  0.9262
  166MOL0     O21804   7.228   9.327   5.580 -0.3194  0.3705 -0.0607
  166MOL0     C21805   7.211   9.432   5.497  0.3198 -0.3938  0.1406
  166MOL0     C21806   7.262   9.564   5.524  0.1843 -0.2187 -0.2088
  166MOL0     C21807   7.231   9.658   5.425  0.3613 -0.0688  0.5047
  166MOL0     C21808   7.149   9.633   5.307 -0.6848  0.5698 -0.0885
  166MOL0     C21809   7.126   9.747   5.223 -0.4538  0.0239  0.2512
  166MOL0     O21810   7.171   9.868   5.268  0.7714  0.4913  0.0673
  166MOL0     C21811   7.175   9.964   5.177  0.1734 -1.0909  0.4510
  166MOL0     C21812   7.077  10.057   5.171  0.6001  0.2921  0.2796
  166MOL0     C21813   7.080  10.165   5.085 -0.1843  0.1326 -0.2270
  166MOL0     C21814   7.179  10.165   4.983 -0.9968  0.5109 -0.5350
  166MOL0     O21815   7.178  10.265   4.896  0.3141 -0.5126  0.5770
  166MOL0     C21816   7.278  10.368   4.899 -0.6627  0.1135 -0.1583
  166MOL0     C21817   7.223  10.489   4.812  0.2849  0.1275  0.0013
  166MOL0     C21818   7.247  10.631   4.870  0.3987  0.0783 -0.4116
  166MOL0     C21819   7.401  10.672   4.838 -0.5193 -0.4061 -0.5844
  166MOL0     C21820   7.419  10.822   4.872 -0.3437  0.7414  0.1065
  166MOL0     C21821   7.562  10.875   4.836 -0.5005 -0.3787 -0.2227
  166MOL0     C21822   7.550  11.026   4.811  0.6278  0.1811  0.1781
  166MOL0     C21823   7.683  11.092   4.783  0.6329 -0.1236 -0.2744
  166MOL0    Cl21824   7.781  11.095   4.922  0.3908  0.2354 -0.3012
  166MOL0     C21825   7.287  10.077   4.995 -0.2056  0.1678 -0.1614
  166MOL0     C21826   7.289   9.981   5.095  0.3654  0.6279  0.0494
  166MOL0     O21827   7.089   9.722   5.106 -0.0406 -1.0627  0.3213
  166MOL0     C21828   7.104   9.503   5.287  0.0699 -1.2590 -0.6811
  166MOL0     C21829   7.135   9.404   5.379 -0.8757 -0.4541 -0.1157
  166MOL0     N21830   7.122   8.841   6.030 -0.0095  0.0984 -0.7723
  166MOL0     N21831   7.033   8.843   6.125  0.4386  0.2875  0.7028
  166MOL0     C21832   6.324   9.115   5.395 -0.2243  0.3444  0.8017
  166MOL0     C21833   6.197   9.103   5.337  0.3922  0.5382 -0.0250
  166MOL0     C21834   5.716   8.975   5.388 -0.6430  0.3224 -0.7763
  166MOL0     C21835   5.746   8.888   5.278 -0.9318 -0.8606 -0.6925
  166MOL0     C21836   5.645   8.793   5.239 -0.6540 -0.1352  0.1240
  166MOL0     C21837   5.522   8.788   5.300  0.6270  0.4884 -0.5013
  166MOL0     O21838   5.424   8.697   5.272 -0.1329  0.9236  0.2398
  166MOL0     C21839   5.450   8.572   5.197  0.4913  0.6532 -0.5566
  166MOL0     C21840   5.319   8.481   5.189 -0.1846  0.0703 -0.3447
  166MOL0     C21841   5.297   8.402   5.313 -0.6982  0.6859  0.5661
  166MOL0     C21842   5.403   8.296   5.339 -0.3546 -0.7951 -0.9796
  166MOL0     C21843   5.338   8.198   5.430  0.1037 -0.1948  0.8049
  166MOL0     C21844   5.295   8.107   5.492 -1.4797  0.3504 -0.6518
  166MOL0     C21845   5.493   8.883   5.397  0.0992 -0.7519 -0.9071
  166MOL0     C21846   5.584   8.980   5.440  0.2109 -0.7328  0.2505
  166MOL0     H21847   6.018   9.075   5.636 -0.1313 -0.2234 -0.0533
  166MOL0     H21848   6.236   9.099   5.726  0.6912  0.1596  0.0820
  166MOL0     H21849   6.618   9.062   5.677 -0.3365 -1.9721  0.8173
  166MOL0     H21850   6.475   8.993   5.747  0.9634  0.8872  1.0577
  166MOL0     H21851   6.392   9.191   5.836  0.5534  0.1872  2.0283
  166MOL0     H21852   6.485   9.292   5.725 -0.5738 -0.4414 -1.1673
  166MOL0     H21853   6.688   9.263   5.847 -0.9178 -2.4777 -4.5149
  166MOL0     H21854   6.642   9.107   5.907 -2.8071 -1.0368 -1.9244
  166MOL0     H21855   6.537   9.361   6.042 -0.2066 -0.0642  0.9977
  166MOL0     H21856   6.488   9.190   6.080  0.8105 -0.8177  1.2019
  166MOL0     H21857   6.692   9.294   6.214  1.4367 -2.1590  1.0619
  166MOL0     H21858   6.782   9.290   6.060 -1.3238  1.9452 -1.8291
  166MOL0     H21859   6.788   9.063   6.063 -0.0975  1.4145  0.0908
  166MOL0     H21860   6.671   9.039   6.185  0.1736  0.2386  0.0435
  166MOL0     H21861   6.924   9.203   6.243  0.0240 -0.2058  0.3362
  166MOL0     H21862   6.812   9.155   6.364  0.1863 -2.8825  1.4185
  166MOL0     H21863   6.890   8.907   6.315 -0.3239 -0.1980 -1.4661
  166MOL0     H21864   7.001   9.031   6.378 -2.4608  0.1653  1.2327
  166MOL0     H21865   7.088   9.159   6.084 -0.3519  0.4484 -0.6805
  166MOL0     H21866   7.247   8.941   5.818  1.0105 -2.5611  1.1662
  166MOL0     H21867   7.366   8.998   5.941  0.6360  4.2088  0.0272
  166MOL0     H21868   7.285   9.223   5.940  0.8643  2.6987 -2.6682
  166MOL0     H21869   7.150   9.165   5.832 -1.2089 -0.8051  0.8439
  166MOL0     H21870   7.448   9.195   5.794  0.1646 -2.5626 -0.3495
  166MOL0     H21871   7.348   9.112   5.673  1.2966 -2.9103  1.7320
  166MOL0     H21872   7.417   9.374   5.649 -0.8921  1.2892 -0.5632
  166MOL0     H21873   7.288   9.398   5.774 -2.3934 -1.6886  1.7617
  166MOL0     H21874   7.308   9.581   5.621 -0.2429 -3.0807  0.5839
  166MOL0     H21875   7.276   9.755   5.444 -0.0948 -0.4359  4.3502
  166MOL0     H21876   6.992  10.047   5.238 -0.1423 -0.8047 -0.7721
  166MOL0     H21877   6.994  10.231   5.089 -1.8163 -1.8187 -1.3460
  166MOL0     H21878   7.364  10.327   4.843 -3.3012 -2.2720 -2.8331
  166MOL0     H21879   7.304  10.405   4.998 -2.6079 -0.6661  0.6748
  166MOL0     H21880   7.115  10.481   4.825  0.0004  3.6070  0.7259
  166MOL0     H21881   7.259  10.484   4.709  3.3044 -2.7362  1.0292
  166MOL0     H21882   7.247  10.621   4.979 -0.7204 -0.2139 -0.4264
  166MOL0     H21883   7.179  10.709   4.835  1.5195  1.4088  0.2496
  166MOL0     H21884   7.468  10.612   4.899 -0.7170  1.9205  2.2062
  166MOL0     H21885   7.425  10.654   4.733  2.3056 -1.8405  0.2197
  166MOL0     H21886   7.388  10.839   4.976 -1.2776 -1.8815  0.3320
  166MOL0     H21887   7.348  10.887   4.820 -1.0498 -0.0148  0.1120
  166MOL0     H21888   7.603  10.826   4.748 -2.8944  0.2075 -1.7524
  166MOL0     H21889   7.631  10.855   4.918 -0.8498  0.2412  0.2389
  166MOL0     H21890   7.484  11.042   4.726  2.5443  1.8181 -1.0792
  166MOL0     H21891   7.507  11.078   4.897 -1.9377 -0.5783 -0.5452
  166MOL0     H21892   7.645  11.191   4.755  4.4133  0.6947 -3.3172
  166MOL0     H21893   7.736  11.057   4.694  4.0748  1.3734  1.0057
  166MOL0     H21894   7.377  10.086   4.934  0.3045 -0.0119  0.5586
  166MOL0     H21895   7.366   9.906   5.113 -0.6531 -0.3218  0.5911
  166MOL0     H21896   7.055   9.476   5.194 -0.3516 -1.7893 -0.3131
  166MOL0     H21897   7.110   9.301   5.355  2.6210 -1.2802 -0.7507
  166MOL0     H21898   6.408   9.124   5.327 -1.2982 -0.3294 -0.6777
  166MOL0     H21899   6.191   9.119   5.230  0.6104  0.3715 -0.0651
  166MOL0     H21900   5.850   8.885   5.245 -0.3323 -2.0306  1.1373
  166MOL0     H21901   5.663   8.730   5.153 -2.3645  2.1602 -2.0588
  166MOL0     H21902   5.538   8.523   5.239  0.8103  0.9018 -0.9319
  166MOL0     H21903   5.467   8.595   5.092  1.6858 -0.6003 -0.6642
  166MOL0     H21904   5.230   8.545   5.183 -0.9781 -0.8039  1.2358
  166MOL0     H21905   5.335   8.411   5.106  1.8872  0.6688 -0.4837
  166MOL0     H21906   5.199   8.355   5.299 -0.4841 -0.8002  3.3661
  166MOL0     H21907   5.291   8.460   5.406 -1.0882  0.7942  0.4753
  166MOL0     H21908   5.450   8.252   5.250  3.0729 -2.6724  1.5227
  166MOL0     H21909   5.481   8.336   5.404  0.4445 -0.9081 -1.8477
  166MOL0     H21910   5.270   8.012   5.537  2.9593 -1.3216 -1.2022
  166MOL0     H21911   5.394   8.886   5.440  0.7708 -1.1538  0.7293
  166MOL0     H21912   5.558   9.056   5.514 -1.5535 -0.5532 -0.5068
  167MOL0     O21913   5.394   0.899   9.861  0.1059 -0.1830  0.6859
  167MOL0     C21914   5.408   0.782   9.902 -0.8249  0.1366  0.9768
  167MOL0     O21915   5.325   0.716   9.989  0.2155  0.3971 -0.3739
  167MOL0     C21916   5.198   0.760  10.008 -0.7711 -0.4690 -0.6851
  167MOL0     C21917   5.148   0.728  10.132 -0.2925  0.7488  0.5409
  167MOL0     C21918   5.016   0.761  10.168  0.0862  0.9809 -0.1902
  167MOL0     C21919   4.943   0.848  10.084  0.2766  0.1212  0.4299
  167MOL0     O21920   4.834   0.910  10.144  0.4631  0.5417  0.4639
  167MOL0     C21921   4.811   0.901  10.297  0.0188  0.3831  0.8792
  167MOL0     C21922   4.688   0.989  10.340  0.7480 -0.0926 -0.6975
  167MOL0     C21923   4.556   0.912  10.320  0.2708 -0.2262  0.5037
  167MOL0     C21924   4.433   0.995  10.354 -0.9683 -0.5105  0.4377
  167MOL0     C21925   4.295   0.932  10.309 -0.3591  0.0564  0.0424
  167MOL0     C21926   4.262   0.779  10.344  0.4058  0.4292 -0.1236
  167MOL0     C21927   4.286   0.730  10.490 -0.3337  1.2260  0.0466
  167MOL0     C21928   4.207   0.802  10.598 -0.9309 -0.8032 -0.0175
  167MOL0     N21929   4.060   0.785  10.572 -0.2044  0.2252 -0.1923
  167MOL0     C21930   3.991   0.676  10.633  0.6161 -0.8529 -0.0975
  167MOL0     C21931   3.858   0.684  10.591 -0.8302 -0.2364  0.1075
  167MOL0     C21932   3.740   0.586  10.610 -0.6589 -0.0215 -0.2848
  167MOL0     C21933   3.634   0.660  10.687 -0.0471 -0.8594  1.0138
  167MOL0     C21934   3.543   0.563  10.751  0.6743 -0.4175 -0.6396
  167MOL0     C21935   3.423   0.641  10.806  0.3236  0.0465 -0.2086
  167MOL0     O21936   3.326   0.697  10.713  0.2171  0.5688  0.6607
  167MOL0     C21937   3.219   0.626  10.654 -0.0158 -0.6056 -0.4770
  167MOL0     C21938   3.123   0.696  10.589 -0.1164  0.4654  0.3702
  167MOL0     C21939   3.006   0.628  10.541  0.2641 -0.3904 -1.0104
  167MOL0     C21940   2.988   0.492  10.552  0.0530  0.7771 -0.6780
  167MOL0     C21941   2.876   0.419  10.485 -0.4155 -0.3772 -0.1994
  167MOL0     O21942   2.883   0.284  10.485  0.8583 -0.8165  0.2082
  167MOL0     C21943   2.776   0.206  10.443 -0.6803 -0.1661  0.5019
  167MOL0     C21944   2.784   0.129  10.324 -0.3124 -0.2894 -0.5352
  167MOL0     C21945   2.677   0.049  10.281  0.1319 -0.5159 -0.1844
  167MOL0     C21946   2.561   0.053  10.353  0.5525  0.9388  0.3821
  167MOL0     O21947   2.448  -0.011  10.307  0.0742 -0.6851 -0.5775
  167MOL0     C21948   2.442  -0.037  10.168 -0.0878  0.0300  0.4750
  167MOL0     C21949   2.298  -0.073  10.115  1.2132  0.0047 -0.1290
  167MOL0     C21950   2.182   0.017  10.182 -0.6684 -0.6386 -0.4152
  167MOL0     C21951   2.041  -0.015  10.126  0.5945  0.1167  0.8719
  167MOL0     C21952   1.990  -0.156  10.166 -0.0031 -0.2117 -0.2255
  167MOL0     C21953   1.849  -0.169  10.121 -1.3012 -1.0394  0.3070
  167MOL0     C21954   1.818  -0.312  10.163  0.5211  0.7184 -0.8356
  167MOL0     C21955   1.679  -0.353  10.126  0.4138  0.1989 -0.5511
  167MOL0    Cl21956   1.542  -0.258  10.198  0.4248  0.0650 -0.0888
  167MOL0     C21957   2.547   0.137  10.467 -0.0121 -1.4165  0.3270
  167MOL0     C21958   2.656   0.211  10.510 -0.0988 -0.3722 -0.1746
  167MOL0     O21959   2.785   0.479  10.438  0.7048 -0.6563  0.4011
  167MOL0     C21960   3.081   0.422  10.628 -0.1726  0.3526 -0.4803
  167MOL0     C21961   3.190   0.490  10.678  0.4166  0.5872 -0.8542
  167MOL0     N21962   3.855   0.800  10.511  0.6735 -0.1416  0.7149
  167MOL0     N21963   3.968   0.858  10.504  0.0879 -0.4028 -0.5799
  167MOL0     C21964   4.994   0.898   9.962 -0.0321  0.4764  0.5137
  167MOL0     C21965   5.119   0.844   9.920 -1.1874  0.0021  0.0283
  167MOL0     C21966   5.541   0.719   9.859 -0.6554 -0.2757 -0.9918
  167MOL0     C21967   5.642   0.799   9.791 -0.3106  0.6001  0.2800
  167MOL0     C21968   5.757   0.730   9.748 -0.2690  0.3702  0.1375
  167MOL0     C21969   5.784   0.600   9.782 -0.2125  0.5342  0.3677
  167MOL0     O21970   5.903   0.538   9.770  0.4101  0.2362  0.1171
  167MOL0     C21971   5.978   0.591   9.663  0.5307  0.7792  0.3194
  167MOL0     C21972   6.103   0.651   9.723 -0.2147 -0.1347 -0.2783
  167MOL0     C21973   6.221   0.662   9.623  0.3984 -0.1791 -0.5687
  167MOL0     C21974   6.327   0.747   9.679  0.0149 -0.3907 -0.2653
  167MOL0     C21975   6.426   0.765   9.574 -0.1956  0.8297 -0.7609
  167MOL0     C21976   6.520   0.781   9.502  0.9803  0.6284 -0.0623
  167MOL0     C21977   5.684   0.531   9.848 -0.4902  0.2401 -0.6827
  167MOL0     C21978   5.562   0.580   9.871  0.0302 -0.9130  0.0691
  167MOL0     H21979   5.206   0.663  10.197  3.0844  3.3030  0.3429
  167MOL0     H21980   4.982   0.715  10.260 -0.0784  2.1918  0.3850
  167MOL0     H21981   4.905   0.927  10.346 -0.2679  1.1988  1.0157
  167MOL0     H21982   4.796   0.799  10.332 -0.3916 -0.4256 -1.4758
  167MOL0     H21983   4.685   1.080  10.278 -3.3154  0.5416  0.1395
  167MOL0     H21984   4.698   1.013  10.446 -0.0203 -2.0441 -0.1462
  167MOL0     H21985   4.562   0.819  10.378  1.4791  1.5465  3.4655
  167MOL0     H21986   4.537   0.874  10.220  2.5011 -1.8624  0.6423
  167MOL0     H21987   4.437   1.001  10.463  1.4215  0.8371  0.3444
  167MOL0     H21988   4.453   1.086  10.297  0.9570 -1.7173 -0.9197
  167MOL0     H21989   4.283   0.931  10.201  0.5299  2.6431 -0.1403
  167MOL0     H21990   4.209   0.986  10.349 -2.2692 -4.4017  2.7127
  167MOL0     H21991   4.332   0.717  10.287 -0.9126 -0.5949 -0.6770
  167MOL0     H21992   4.168   0.750  10.297  0.5442  0.4180 -0.3934
  167MOL0     H21993   4.262   0.623  10.493  0.8274  0.8675 -2.0025
  167MOL0     H21994   4.392   0.742  10.512 -1.1408  4.4850  3.0257
  167MOL0     H21995   4.247   0.904  10.602 -0.9897 -0.6285 -2.3353
  167MOL0     H21996   4.237   0.762  10.696 -1.9805 -2.1328 -0.2128
  167MOL0     H21997   4.031   0.592  10.689 -0.0976 -4.2800 -4.1501
  167MOL0     H21998   3.763   0.511  10.686  1.0882  2.0997  1.4613
  167MOL0     H21999   3.706   0.538  10.519 -0.1675 -1.3758  0.2218
  167MOL0     H22000   3.575   0.728  10.625  2.0928  0.4863  0.3510
  167MOL0     H22001   3.682   0.710  10.772 -0.9106 -2.9689  2.8422
  167MOL0     H22002   3.510   0.499  10.668  0.1428 -0.4222 -0.4282
  167MOL0     H22003   3.581   0.494  10.827  2.0544 -1.4770 -2.1964
  167MOL0     H22004   3.443   0.722  10.876  1.6205 -1.9235  1.8502
  167MOL0     H22005   3.368   0.575  10.874 -1.9019  2.4564  0.4811
  167MOL0     H22006   3.129   0.804  10.579 -2.3911  0.7759  1.6279
  167MOL0     H22007   2.925   0.691  10.506  1.0625  0.3212 -1.6413
  167MOL0     H22008   2.874   0.132  10.264  1.0232  0.4490  1.4065
  167MOL0     H22009   2.685  -0.019  10.197  1.6235  1.7845 -2.0332
  167MOL0     H22010   2.502  -0.126  10.148  0.2912  0.6516 -1.2861
  167MOL0     H22011   2.485   0.039  10.103 -1.5952 -1.0999 -1.9850
  167MOL0     H22012   2.281  -0.179  10.132 -2.4309  0.0819 -2.3550
  167MOL0     H22013   2.305  -0.060  10.007  4.4165 -0.8756 -0.1219
  167MOL0     H22014   2.208   0.123  10.169  4.0465 -1.4629  0.3718
  167MOL0     H22015   2.179  -0.004  10.289  0.4557 -1.6566 -0.5694
  167MOL0     H22016   1.959   0.053  10.150 -1.3900 -2.0525  0.5431
  167MOL0     H22017   2.052  -0.012  10.017  1.9271 -0.6794  0.9631
  167MOL0     H22018   2.004  -0.175  10.273  0.1722 -2.1778 -0.5526
  167MOL0     H22019   2.045  -0.240  10.122 -3.1001 -3.2596  1.2855
  167MOL0     H22020   1.844  -0.168  10.011  3.0935  1.6666 -0.1141
  167MOL0     H22021   1.792  -0.086  10.163  0.3384  0.6187 -0.5687
  167MOL0     H22022   1.885  -0.379  10.108  2.0020 -0.0373  1.7097
  167MOL0     H22023   1.820  -0.334  10.270  1.6419  1.5925 -0.6550
  167MOL0     H22024   1.664  -0.452  10.170 -0.7258 -0.0738 -1.4765
  167MOL0     H22025   1.667  -0.356  10.017 -1.5361  1.6402 -0.4364
  167MOL0     H22026   2.448   0.150  10.509 -0.5608  2.6212 -1.7453
  167MOL0     H22027   2.644   0.291  10.583 -0.7451  0.0837 -0.7689
  167MOL0     H22028   3.077   0.314  10.642 -1.3943  0.5554  0.9231
  167MOL0     H22029   3.265   0.427  10.724 -0.4660 -0.1937 -0.4441
  167MOL0     H22030   4.934   0.963   9.899  2.6141  3.3405  0.6854
  167MOL0     H22031   5.150   0.876   9.821  0.1021 -1.2416 -0.0054
  167MOL0     H22032   5.624   0.905   9.780  0.3691  0.6599 -0.2867
  167MOL0     H22033   5.830   0.798   9.704  0.1534  0.4833  0.9823
  167MOL0     H22034   5.938   0.667   9.595  1.2467 -2.1760 -3.8356
  167MOL0     H22035   6.011   0.504   9.606  3.4723 -0.1083  3.0998
  167MOL0     H22036   6.071   0.751   9.754 -1.3939  0.6184 -3.4681
  167MOL0     H22037   6.137   0.593   9.808 -2.7860 -2.2319 -0.5317
  167MOL0     H22038   6.178   0.710   9.535 -0.1995  0.1277 -0.1120
  167MOL0     H22039   6.254   0.560   9.600 -0.9587 -0.7193 -0.2059
  167MOL0     H22040   6.281   0.840   9.712  1.5894  0.4219 -0.2763
  167MOL0     H22041   6.372   0.708   9.771 -1.3374  1.3995  1.2312
  167MOL0     H22042   6.603   0.822   9.448  3.4601 -2.3071  1.2458
  167MOL0     H22043   5.723   0.433   9.873 -1.5415 -0.2687 -0.9941
  167MOL0     H22044   5.483   0.513   9.901 -1.6122 -0.7990 -3.4914
  168MOL0     O22045  10.145  10.356   3.074  0.5285 -0.0415  0.4400
  168MOL0     C22046  10.040  10.364   3.134  0.0439  0.9192  0.7001
  168MOL0     O22047  10.017  10.411   3.259 -0.0001 -0.5457 -1.0958
  168MOL0     C22048  10.124  10.463   3.331 -0.0432 -0.0546  0.3607
  168MOL0     C22049  10.135  10.595   3.361 -0.4009 -0.0472 -0.6875
  168MOL0     C22050  10.252  10.638   3.425 -0.6711 -0.7430 -0.1782
  168MOL0     C22051  10.366  10.562   3.455  0.9717 -0.6648 -0.5654
  168MOL0     O22052  10.473  10.615   3.523  0.0841  0.4208 -0.0734
  168MOL0     C22053  10.485  10.747   3.582  0.2071  0.0010  0.8347
  168MOL0     C22054  10.437  10.759   3.723 -0.4830  0.1411 -0.0686
  168MOL0     C22055  10.303  10.684   3.754 -0.4593  0.8392  0.5561
  168MOL0     C22056  10.259  10.726   3.895 -0.0090  0.7480 -0.1595
  168MOL0     C22057  10.169  10.618   3.952 -0.3818  0.3367  0.3376
  168MOL0     C22058  10.081  10.662   4.074 -0.2449  0.3387 -0.2316
  168MOL0     C22059   9.969  10.571   4.127  0.9014  0.0207  0.9609
  168MOL0     C22060   9.920  10.587   4.274 -0.6410 -0.1648 -0.1823
  168MOL0     N22061  10.026  10.571   4.374 -0.1194 -0.0087 -0.5415
  168MOL0     C22062  10.108  10.458   4.366 -0.7212  0.6883 -0.6022
  168MOL0     C22063  10.204  10.484   4.460 -0.1513 -0.2578 -0.6610
  168MOL0     C22064  10.312  10.383   4.504  0.2788  0.0758 -0.1496
  168MOL0     C22065  10.425  10.356   4.402 -0.3292  0.1537 -0.5745
  168MOL0     C22066  10.507  10.237   4.447 -0.3077  0.7343  0.0149
  168MOL0     C22067  10.581  10.182   4.325  0.3429 -0.4689  0.1779
  168MOL0     O22068  10.710  10.237   4.286  0.0509 -0.5659  0.7187
  168MOL0     C22069  10.806  10.162   4.222 -0.6198 -0.3897  0.3375
  168MOL0     C22070  10.925  10.224   4.165  0.8047  0.9588 -1.6111
  168MOL0     C22071  11.033  10.152   4.116 -0.1726  0.3687 -0.7638
  168MOL0     C22072  11.028  10.014   4.107  0.0384 -0.6033  0.7381
  168MOL0     C22073  11.135   9.938   4.035  0.7592  0.0089 -0.6349
  168MOL0     O22074  11.239  10.016   3.992 -1.1884  0.2025  0.4648
  168MOL0     C22075  11.357   9.961   3.934  0.4155  0.6622 -0.2940
  168MOL0     C22076  11.414  10.026   3.822 -0.0459 -0.5034  0.7394
  168MOL0     C22077  11.527   9.964   3.757 -0.2968 -1.1946 -0.0737
  168MOL0     C22078  11.608   9.877   3.827  0.0076 -0.7698  1.0671
  168MOL0     O22079  11.734   9.856   3.769 -0.2098  0.1116 -0.4702
  168MOL0     C22080  11.839   9.872   3.862  0.8295  0.3555 -0.9751
  168MOL0     C22081  11.976   9.841   3.818 -0.1355 -0.2068  0.2721
  168MOL0     C22082  11.974   9.698   3.751 -0.6419 -0.1705  1.5850
  168MOL0     C22083  12.113   9.646   3.707  0.0406  0.2325  0.6270
  168MOL0     C22084  12.213   9.636   3.835 -0.9570 -0.2116 -0.9220
  168MOL0     C22085  12.336   9.558   3.796  1.0412 -0.7880 -0.5018
  168MOL0     C22086  12.452   9.570   3.897  0.0970 -0.0835  0.6645
  168MOL0     C22087  12.583   9.507   3.843 -0.1784  0.7247 -0.3078
  168MOL0    Cl22088  12.632   9.570   3.682  0.0474 -0.4296 -0.0865
  168MOL0     C22089  11.560   9.813   3.944  0.3840  0.0190 -0.6595
  168MOL0     C22090  11.430   9.851   3.992  0.0142  1.4066  0.2880
  168MOL0     O22091  11.126   9.818   4.037 -0.1183 -0.6009  0.3341
  168MOL0     C22092  10.912   9.948   4.155 -0.8522  0.0061 -0.1283
  168MOL0     C22093  10.807  10.020   4.210  0.2458  0.0764  0.1294
  168MOL0     N22094  10.176  10.610   4.516 -0.2113 -0.0043  0.0165
  168MOL0     N22095  10.079  10.664   4.456 -0.7060 -0.4104  0.9744
  168MOL0     C22096  10.359  10.427   3.420 -0.0806 -0.7105  1.2723
  168MOL0     C22097  10.238  10.377   3.364 -0.1090  0.2044  0.3749
  168MOL0     C22098   9.926  10.322   3.058 -0.1505 -0.0359 -0.0996
  168MOL0     C22099   9.806  10.296   3.117  0.0274  0.1119 -0.5350
  168MOL0     C22100   9.694  10.260   3.047 -0.9862 -0.4373  0.2941
  168MOL0     C22101   9.699  10.243   2.910 -0.3086  0.1076  0.8541
  168MOL0     O22102   9.573  10.207   2.862  0.5800 -0.3503  0.6463
  168MOL0     C22103   9.544  10.211   2.722  0.3498  0.2435 -0.5048
  168MOL0     C22104   9.402  10.149   2.676 -0.2514  0.0003  0.0713
  168MOL0     C22105   9.406  10.004   2.734  0.3727 -0.3651  0.4971
  168MOL0     C22106   9.395   9.899   2.626  0.1157  0.6600 -0.0387
  168MOL0     C22107   9.259   9.905   2.560 -0.9882  0.2051 -0.3233
  168MOL0     C22108   9.158   9.918   2.498  0.3920 -0.7382 -0.0343
  168MOL0     C22109   9.823  10.269   2.841  0.6387 -0.4489  0.3591
  168MOL0     C22110   9.931  10.300   2.917  0.0434  0.2320 -0.2402
  168MOL0     H22111  10.059  10.672   3.352  1.2309  1.6089 -0.7299
  168MOL0     H22112  10.250  10.745   3.443 -3.6042 -0.6429 -0.6337
  168MOL0     H22113  10.454  10.828   3.515  0.4589  0.5937  1.4185
  168MOL0     H22114  10.592  10.769   3.586 -0.2875  2.5874  3.2914
  168MOL0     H22115  10.426  10.866   3.742  0.0869 -0.1375  2.1328
  168MOL0     H22116  10.515  10.719   3.788 -0.0154  1.4761  0.2253
  168MOL0     H22117  10.321  10.576   3.747 -0.9366  0.6859  1.6035
  168MOL0     H22118  10.219  10.709   3.689  1.4244  3.1507 -1.1757
  168MOL0     H22119  10.346  10.732   3.961 -0.5033  1.1104  0.4658
  168MOL0     H22120  10.194  10.813   3.905 -1.0744 -0.2066  1.6169
  168MOL0     H22121  10.226  10.527   3.973 -0.6562  0.1531  0.2883
  168MOL0     H22122  10.098  10.598   3.871 -0.9884  0.7453  0.7534
  168MOL0     H22123  10.045  10.764   4.057 -0.2767  0.4461  0.4496
  168MOL0     H22124  10.154  10.676   4.154  1.0842 -1.5639 -1.0218
  168MOL0     H22125   9.879  10.566   4.065  2.8814 -1.2233 -2.0165
  168MOL0     H22126  10.004  10.467   4.122  1.9497  0.4112 -0.5969
  168MOL0     H22127   9.863  10.499   4.302  0.3657 -0.3833  1.2601
  168MOL0     H22128   9.866  10.681   4.291 -1.2995 -0.3325 -1.2526
  168MOL0     H22129  10.102  10.363   4.313 -0.4650 -0.9750  2.1692
  168MOL0     H22130  10.262  10.290   4.533  2.5342 -1.0520  0.3786
  168MOL0     H22131  10.361  10.419   4.595 -0.4471 -0.9599  0.6739
  168MOL0     H22132  10.493  10.441   4.396 -0.4390  0.1355 -3.0024
  168MOL0     H22133  10.382  10.346   4.302  1.1640 -2.7791 -1.0103
  168MOL0     H22134  10.579  10.253   4.528 -1.6142 -1.6060  1.7791
  168MOL0     H22135  10.432  10.168   4.489  0.1748 -0.9225 -1.6816
  168MOL0     H22136  10.511  10.174   4.242  0.7682 -2.9205 -0.0247
  168MOL0     H22137  10.597  10.077   4.350 -2.7588 -0.9878  0.3584
  168MOL0     H22138  10.920  10.333   4.162 -2.2604  0.8959 -2.7771
  168MOL0     H22139  11.119  10.213   4.091  0.1082 -0.3979 -1.7460
  168MOL0     H22140  11.368  10.119   3.790  0.7307  0.2759  1.8211
  168MOL0     H22141  11.568  10.021   3.674 -3.3108  1.0013 -0.2547
  168MOL0     H22142  11.809   9.816   3.951 -0.7816  0.5320 -1.3686
  168MOL0     H22143  11.830   9.979   3.885 -0.0565 -0.1646  1.4131
  168MOL0     H22144  12.040   9.844   3.907 -1.3028  1.4058  1.1014
  168MOL0     H22145  12.002   9.915   3.743  1.1088  0.4419  1.3051
  168MOL0     H22146  11.910   9.708   3.663  0.9031  0.6400  0.4982
  168MOL0     H22147  11.939   9.633   3.831 -1.2764 -0.0175  1.4348
  168MOL0     H22148  12.108   9.544   3.668  0.9406  0.3037  0.3173
  168MOL0     H22149  12.155   9.706   3.626  1.3258 -1.4983 -0.0404
  168MOL0     H22150  12.158   9.598   3.921 -1.6605  0.2799 -1.1426
  168MOL0     H22151  12.262   9.731   3.858  3.2570 -2.3545  0.0315
  168MOL0     H22152  12.370   9.595   3.698 -3.1124  1.2870 -1.3807
  168MOL0     H22153  12.314   9.452   3.786 -0.7169 -0.6469  1.2485
  168MOL0     H22154  12.470   9.676   3.917 -0.3802 -0.6259  5.0272
  168MOL0     H22155  12.431   9.515   3.989 -0.1348  0.2179  0.7917
  168MOL0     H22156  12.563   9.399   3.836 -0.4171  0.5469  2.2590
  168MOL0     H22157  12.663   9.527   3.914  1.0853 -0.6728 -1.2662
  168MOL0     H22158  11.616   9.735   3.993 -2.3122 -1.6099  0.0145
  168MOL0     H22159  11.381   9.812   4.081 -0.6076 -2.2614 -1.4602
  168MOL0     H22160  10.902   9.840   4.145  0.3756 -0.1920  0.5613
  168MOL0     H22161  10.728   9.955   4.246  0.4920 -1.0528 -1.2594
  168MOL0     H22162  10.452  10.377   3.444 -0.1601 -1.4752  0.0967
  168MOL0     H22163  10.229  10.271   3.342 -1.5906 -0.4377  3.4537
  168MOL0     H22164   9.791  10.303   3.225  0.0450 -0.6301 -0.4752
  168MOL0     H22165   9.603  10.240   3.103 -1.2131  1.3870  0.6419
  168MOL0     H22166   9.618  10.148   2.671  0.1141 -1.7838  1.4791
  168MOL0     H22167   9.546  10.308   2.673 -0.8410 -0.6776 -2.5004
  168MOL0     H22168   9.318  10.212   2.706  0.6730  0.3336  2.2069
  168MOL0     H22169   9.387  10.149   2.568  0.3446  0.8402 -0.0309
  168MOL0     H22170   9.321   9.979   2.799  1.1928 -1.4524  1.1713
  168MOL0     H22171   9.493   9.992   2.799 -1.7574 -0.6027  3.5271
  168MOL0     H22172   9.474   9.910   2.551 -0.5349 -1.4689 -1.1191
  168MOL0     H22173   9.406   9.799   2.670 -3.7812  0.6263  1.1820
  168MOL0     H22174   9.074   9.939   2.434  0.4041 -1.6049 -0.3407
  168MOL0     H22175   9.825  10.248   2.734 -2.0420 -0.0315  0.1526
  168MOL0     H22176  10.030  10.306   2.872  0.7141  0.6270  1.2277
  169MOL0     O22177   0.643   5.286   9.531  0.0240  0.1473  0.4239
  169MOL0     C22178   0.758   5.242   9.539  0.1195 -0.3543  0.4791
  169MOL0     O22179   0.798   5.107   9.542 -0.3788 -0.2513  0.2354
  169MOL0     C22180   0.701   5.019   9.498 -0.1085  0.5904  0.7102
  169MOL0     C22181   0.696   4.889   9.553  0.2833 -0.5382 -0.2933
  169MOL0     C22182   0.615   4.782   9.503  0.5233  0.2620 -0.2567
  169MOL0     C22183   0.542   4.799   9.390 -0.2506  0.4795  0.1908
  169MOL0     O22184   0.475   4.690   9.345  0.5523  0.4620 -0.2537
  169MOL0     C22185   0.340   4.698   9.370 -0.2299 -0.7527 -0.4908
  169MOL0     C22186   0.268   4.570   9.321  0.0612  0.8032  0.5980
  169MOL0     C22187   0.119   4.560   9.358  0.1949  0.6077  0.3098
  169MOL0     C22188   0.073   4.424   9.417  0.7924  0.1177  0.4962
  169MOL0     C22189  -0.077   4.393   9.399  1.2326  0.7081 -0.1453
  169MOL0     C22190  -0.128   4.384   9.254  0.5500  0.3085 -0.1806
  169MOL0     C22191  -0.085   4.256   9.184  1.0122  0.2924  0.8075
  169MOL0     C22192  -0.158   4.216   9.061  0.2375  0.8767 -0.3216
  169MOL0     N22193  -0.084   4.118   8.982 -0.0664 -0.0599  0.0173
  169MOL0     C22194  -0.008   4.017   9.032  0.2289  0.9120  0.0874
  169MOL0     C22195   0.060   3.971   8.928 -0.9935  0.0677 -0.2194
  169MOL0     C22196   0.154   3.855   8.929 -0.8296 -0.2480 -0.1315
  169MOL0     C22197   0.305   3.893   8.938  0.3608 -0.1287  0.0419
  169MOL0     C22198   0.397   3.781   8.903  0.1841 -0.0242  0.4563
  169MOL0     C22199   0.544   3.802   8.948  0.1416 -0.1471 -0.0240
  169MOL0     O22200   0.575   3.677   9.013  1.0059 -0.0443  0.0244
  169MOL0     C22201   0.668   3.702   9.111  0.2488 -0.1664 -1.0235
  169MOL0     C22202   0.804   3.725   9.082 -0.4450  0.1685 -0.8585
  169MOL0     C22203   0.895   3.782   9.169  0.2076  0.7903 -0.1185
  169MOL0     C22204   0.857   3.809   9.302  0.4138  0.5082 -0.8070
  169MOL0     C22205   0.945   3.871   9.403 -0.4412  0.2933  0.3631
  169MOL0     O22206   0.892   3.935   9.502 -0.1660  0.4608  0.4270
  169MOL0     C22207   0.972   4.001   9.594  1.0107  0.2135 -0.4981
  169MOL0     C22208   0.924   4.005   9.725 -0.0028 -0.4265 -0.0991
  169MOL0     C22209   0.999   4.075   9.821 -0.0744  0.1258  0.4797
  169MOL0     C22210   1.127   4.120   9.798  0.0646 -0.3963 -0.1156
  169MOL0     O22211   1.187   4.178   9.902 -0.1313 -0.1423  0.5241
  169MOL0     C22212   1.239   4.311   9.889 -0.3158  0.7852  0.8599
  169MOL0     C22213   1.396   4.323   9.881  0.2853  0.5070  0.1259
  169MOL0     C22214   1.416   4.475   9.883 -0.0223 -0.1495  0.0668
  169MOL0     C22215   1.564   4.493   9.853  0.4703 -0.3815 -0.7406
  169MOL0     C22216   1.625   4.622   9.880 -0.1660  0.4047 -0.3956
  169MOL0     C22217   1.781   4.632   9.860 -0.2267 -0.8332  0.9380
  169MOL0     C22218   1.821   4.777   9.834  0.2605 -0.0276 -0.4538
  169MOL0     C22219   1.974   4.813   9.856 -0.2033 -0.5036 -0.6773
  169MOL0    Cl22220   2.018   4.918   9.729 -0.2818  0.3861  0.0685
  169MOL0     C22221   1.180   4.117   9.671  0.7220  0.1599 -0.8580
  169MOL0     C22222   1.098   4.059   9.571 -0.1542 -0.7692  0.8829
  169MOL0     O22223   1.060   3.858   9.387  0.3172 -0.4566 -0.4967
  169MOL0     C22224   0.725   3.775   9.333 -0.0088 -0.4507  0.5801
  169MOL0     C22225   0.628   3.734   9.243 -0.4223  0.0016  0.9472
  169MOL0     N22226   0.031   4.041   8.813 -0.3295  0.4990 -0.3308
  169MOL0     N22227  -0.053   4.130   8.849 -1.4586  0.2513  0.0774
  169MOL0     C22228   0.541   4.929   9.329  0.4142  1.1301  0.8391
  169MOL0     C22229   0.607   5.035   9.390 -0.3285 -0.6636  0.3704
  169MOL0     C22230   0.856   5.354   9.557  0.4173  0.6253  0.1666
  169MOL0     C22231   0.820   5.486   9.590 -0.7985 -0.9671 -0.3442
  169MOL0     C22232   0.921   5.576   9.612  0.0311  0.7400 -1.0238
  169MOL0     C22233   1.058   5.542   9.589  0.2404  0.7086 -0.8351
  169MOL0     O22234   1.149   5.643   9.612 -0.5029  0.1146 -0.2671
  169MOL0     C22235   1.286   5.609   9.639  0.9849  1.5630 -0.1503
  169MOL0     C22236   1.341   5.711   9.737 -0.0575  0.4636 -0.4079
  169MOL0     C22237   1.333   5.857   9.699  0.5022 -0.7825  0.3559
  169MOL0     C22238   1.447   5.897   9.600 -0.5339 -0.0000 -1.0382
  169MOL0     C22239   1.476   6.038   9.622  0.3885  0.5816 -0.0132
  169MOL0     C22240   1.517   6.154   9.623  0.2364  0.8765  0.2853
  169MOL0     C22241   1.088   5.413   9.556 -0.3221  0.6871  0.8958
  169MOL0     C22242   0.991   5.319   9.533  0.4726  0.9121  0.0898
  169MOL0     H22243   0.761   4.874   9.639  0.3303  2.2353  0.2330
  169MOL0     H22244   0.621   4.689   9.559  1.5990  0.9479  0.8215
  169MOL0     H22245   0.288   4.776   9.313  1.0972  0.0198 -0.6924
  169MOL0     H22246   0.329   4.706   9.479 -2.0571 -0.4124 -0.6608
  169MOL0     H22247   0.320   4.482   9.360  0.9475 -0.7286 -3.4939
  169MOL0     H22248   0.280   4.556   9.213 -0.3548  1.6188  0.4368
  169MOL0     H22249   0.063   4.591   9.269 -1.2344  0.4705  1.1356
  169MOL0     H22250   0.096   4.647   9.419  0.6466  2.0715 -1.4944
  169MOL0     H22251   0.126   4.356   9.349 -1.6434 -0.3764 -1.0027
  169MOL0     H22252   0.101   4.416   9.523  3.1037 -0.5464 -0.0952
  169MOL0     H22253  -0.139   4.472   9.443 -0.3660 -0.3675 -0.4158
  169MOL0     H22254  -0.101   4.297   9.445  3.7365 -0.1123 -0.3829
  169MOL0     H22255  -0.098   4.470   9.194 -1.3763 -0.6687 -2.7059
  169MOL0     H22256  -0.236   4.378   9.270  0.5208 -1.9603 -0.9220
  169MOL0     H22257   0.020   4.270   9.159  0.6097  1.7070 -0.1778
  169MOL0     H22258  -0.085   4.179   9.262  3.1450  1.4044  1.9805
  169MOL0     H22259  -0.181   4.306   9.003 -4.2094 -0.7520 -1.5106
  169MOL0     H22260  -0.252   4.165   9.083  0.0751  0.2184 -2.3350
  169MOL0     H22261   0.011   3.997   9.137  0.9462  0.3864 -0.1346
  169MOL0     H22262   0.136   3.798   8.837  3.4566 -3.2013  0.5902
  169MOL0     H22263   0.111   3.786   9.002 -1.4898 -1.2397 -1.3991
  169MOL0     H22264   0.328   3.928   9.040  1.9462 -0.3812 -0.2029
  169MOL0     H22265   0.324   3.977   8.871 -1.8407  1.7109  1.5680
  169MOL0     H22266   0.367   3.695   8.963  0.4241  0.2082  0.9153
  169MOL0     H22267   0.385   3.750   8.799  0.0473 -0.3443  0.5635
  169MOL0     H22268   0.561   3.885   9.017 -0.3774 -1.0153  1.1944
  169MOL0     H22269   0.609   3.808   8.860  0.2477 -1.4151 -0.0525
  169MOL0     H22270   0.823   3.718   8.976  1.5741 -1.7500 -0.4391
  169MOL0     H22271   0.997   3.801   9.138  1.7851  0.2652  4.0950
  169MOL0     H22272   0.831   3.955   9.748 -0.0665 -0.7284 -0.9692
  169MOL0     H22273   0.974   4.077   9.927  1.5850  0.9249  0.8892
  169MOL0     H22274   1.186   4.372   9.963 -1.7759 -1.4609  1.7711
  169MOL0     H22275   1.209   4.352   9.792 -0.8460  1.4903  1.3061
  169MOL0     H22276   1.433   4.282   9.787  0.6679  2.3528 -0.5673
  169MOL0     H22277   1.453   4.269   9.957  0.1180 -2.2349 -1.5532
  169MOL0     H22278   1.407   4.529   9.977 -0.4056  2.9978 -1.6290
  169MOL0     H22279   1.357   4.525   9.805 -0.2097 -1.5048 -0.6936
  169MOL0     H22280   1.622   4.417   9.906 -0.6683  0.2452  1.5009
  169MOL0     H22281   1.581   4.469   9.747 -3.0073 -2.9681 -0.8947
  169MOL0     H22282   1.602   4.659   9.980  0.5649  2.0014 -0.7772
  169MOL0     H22283   1.561   4.696   9.830 -0.4406  2.5480  2.8242
  169MOL0     H22284   1.817   4.570   9.777 -1.3811  1.8012 -1.7540
  169MOL0     H22285   1.832   4.601   9.951  1.7034 -1.2817 -0.2372
  169MOL0     H22286   1.794   4.810   9.734 -0.7218  0.2201 -0.1157
  169MOL0     H22287   1.772   4.831   9.915 -0.8794  0.2101 -1.2887
  169MOL0     H22288   2.030   4.722   9.835 -2.5843 -2.3348  0.4257
  169MOL0     H22289   1.984   4.867   9.950 -0.8203  1.1344 -1.5051
  169MOL0     H22290   1.265   4.177   9.639  0.5066  0.2445 -1.2872
  169MOL0     H22291   1.135   4.048   9.470 -0.4139  0.6359  0.6127
  169MOL0     H22292   0.692   3.799   9.434 -0.3019  0.5022  0.2642
  169MOL0     H22293   0.525   3.710   9.268  0.1738 -0.8743  2.7236
  169MOL0     H22294   0.478   4.963   9.248  0.4558  0.1296  0.3713
  169MOL0     H22295   0.601   5.127   9.332  0.5213 -1.2637 -0.7143
  169MOL0     H22296   0.717   5.521   9.594  0.1503  1.9283  1.0741
  169MOL0     H22297   0.886   5.675   9.637  1.0830  1.9966 -4.0904
  169MOL0     H22298   1.341   5.616   9.545 -0.4735 -1.6963 -1.3766
  169MOL0     H22299   1.294   5.508   9.681 -0.8653  0.9669 -1.1386
  169MOL0     H22300   1.285   5.696   9.830  0.0526  2.5211  0.0433
  169MOL0     H22301   1.447   5.701   9.762 -0.1402  4.1791  2.3224
  169MOL0     H22302   1.352   5.914   9.790 -0.9887 -2.7687  2.0096
  169MOL0     H22303   1.235   5.881   9.656 -0.2687 -1.0822  1.8831
  169MOL0     H22304   1.535   5.842   9.634 -1.0889 -0.8175 -0.8835
  169MOL0     H22305   1.425   5.869   9.496  1.2108 -1.1495 -1.1420
  169MOL0     H22306   1.563   6.250   9.613  1.6301  0.2238  0.2837
  169MOL0     H22307   1.187   5.379   9.525 -0.7678  1.8991 -2.2263
  169MOL0     H22308   1.021   5.219   9.505  3.4708  2.4223 -2.8376
  170MOL0     O22309   7.710   3.701   5.522  0.6100 -0.0260  0.1971
  170MOL0     C22310   7.723   3.624   5.617  1.1591 -0.8932  0.0080
  170MOL0     O22311   7.660   3.633   5.733 -0.8491 -0.0180 -0.1253
  170MOL0     C22312   7.560   3.720   5.759 -0.3063  0.3871  0.9637
  170MOL0     C22313   7.434   3.677   5.767  0.3775 -0.1091  0.0337
  170MOL0     C22314   7.318   3.761   5.780 -0.4380  0.4487  0.5700
  170MOL0     C22315   7.342   3.900   5.778 -0.0420  1.1820 -0.3643
  170MOL0     O22316   7.228   3.976   5.784  0.0787  0.1569 -0.9336
  170MOL0     C22317   7.232   4.108   5.723 -0.4298 -0.6355  0.0583
  170MOL0     C22318   7.101   4.182   5.740  0.0897 -0.2286  0.3831
  170MOL0     C22319   7.076   4.205   5.884  0.9999  1.0491 -0.6302
  170MOL0     C22320   6.948   4.291   5.910 -0.5800  1.0396  0.6663
  170MOL0     C22321   6.822   4.217   5.866 -0.0655  0.7481  0.6399
  170MOL0     C22322   6.699   4.316   5.881  0.9633  0.6086 -0.6212
  170MOL0     C22323   6.563   4.230   5.851  0.5011 -0.0005 -0.7485
  170MOL0     C22324   6.443   4.321   5.892  0.5830 -0.1445  0.9121
  170MOL0     N22325   6.325   4.238   5.912 -0.2576  0.1757 -0.1407
  170MOL0     C22326   6.267   4.137   5.834  0.2741  1.3102 -0.0376
  170MOL0     C22327   6.167   4.080   5.919 -0.0320  0.9552  0.7971
  170MOL0     C22328   6.085   3.953   5.893 -0.0022  0.2951  0.0328
  170MOL0     C22329   6.174   3.842   5.944  0.7560  0.4831 -0.2530
  170MOL0     C22330   6.225   3.842   6.087  0.0523  0.1628 -0.2133
  170MOL0     C22331   6.278   3.696   6.106 -0.5263 -0.6757  0.1053
  170MOL0     O22332   6.320   3.665   6.237 -0.0403  0.3378 -0.4802
  170MOL0     C22333   6.382   3.542   6.262  1.3091  1.2535  1.0293
  170MOL0     C22334   6.385   3.504   6.396  0.5287  0.0518 -0.1894
  170MOL0     C22335   6.448   3.389   6.435 -0.4486  0.2920 -0.5530
  170MOL0     C22336   6.515   3.314   6.335 -0.0165  0.7639  0.4218
  170MOL0     C22337   6.599   3.197   6.374 -0.5365  0.3538  0.0046
  170MOL0     O22338   6.678   3.135   6.277 -0.0944  0.6828 -1.4056
  170MOL0     C22339   6.741   3.026   6.321  0.5185  0.2014  0.1211
  170MOL0     C22340   6.660   2.910   6.365 -0.5388 -0.6017 -0.0533
  170MOL0     C22341   6.731   2.782   6.367 -0.8081  0.2570 -0.1994
  170MOL0     C22342   6.863   2.770   6.338  0.1441 -0.6653 -0.4820
  170MOL0     O22343   6.945   2.652   6.342  0.3759  0.0647  0.6487
  170MOL0     C22344   6.928   2.572   6.461 -0.3402 -0.5401 -0.1972
  170MOL0     C22345   7.016   2.445   6.452  0.0609  0.6365 -1.0050
  170MOL0     C22346   6.947   2.326   6.385  0.1276  0.5463  0.5243
  170MOL0     C22347   6.989   2.212   6.471 -0.2644  1.0276 -1.2487
  170MOL0     C22348   6.949   2.086   6.389 -0.8259 -1.1954 -0.4384
  170MOL0     C22349   6.955   1.963   6.481 -0.3913  0.4778 -0.1614
  170MOL0     C22350   6.868   1.853   6.424 -0.1648  0.2366  0.3069
  170MOL0     C22351   6.871   1.730   6.516 -0.3402 -1.2119  0.5122
  170MOL0    Cl22352   6.805   1.769   6.686 -0.2564  0.0877 -0.1328
  170MOL0     C22353   6.932   2.881   6.302  0.3042  0.4601  0.1902
  170MOL0     C22354   6.871   3.008   6.294 -0.4249  0.7880 -0.0532
  170MOL0     O22355   6.589   3.163   6.487 -0.4604  0.2769 -0.1281
  170MOL0     C22356   6.513   3.346   6.199  0.7297 -0.7692 -1.2357
  170MOL0     C22357   6.436   3.458   6.162 -0.8372  0.3550  0.4293
  170MOL0     N22358   6.177   4.153   6.040 -0.5114  0.7382  0.0792
  170MOL0     N22359   6.263   4.243   6.029 -0.3224 -0.5446 -0.5955
  170MOL0     C22360   7.472   3.946   5.784  0.0942 -0.1950  0.0599
  170MOL0     C22361   7.581   3.855   5.774 -0.1750 -0.1851  0.4798
  170MOL0     C22362   7.822   3.520   5.597  0.5118 -0.0550  0.1265
  170MOL0     C22363   7.853   3.423   5.698 -0.4721 -0.8230  0.9361
  170MOL0     C22364   7.942   3.319   5.669 -0.4827  0.9291 -0.5353
  170MOL0     C22365   8.011   3.308   5.546  0.6773  0.2825  0.1641
  170MOL0     O22366   8.108   3.208   5.527 -0.7496  0.0419  0.1535
  170MOL0     C22367   8.222   3.250   5.586 -0.3896  1.0206  0.1900
  170MOL0     C22368   8.326   3.134   5.589  0.8539 -1.1730  0.3408
  170MOL0     C22369   8.331   3.075   5.727 -0.3095  0.9347 -0.0833
  170MOL0     C22370   8.428   2.957   5.718 -0.4120 -0.0882  1.0330
  170MOL0     C22371   8.451   2.893   5.852 -0.6590  0.5726  1.0833
  170MOL0     C22372   8.482   2.846   5.953 -0.0913 -0.4062  0.9614
  170MOL0     C22373   7.974   3.392   5.443  0.0315 -0.7760  0.1252
  170MOL0     C22374   7.878   3.504   5.465 -0.5245  0.6967  0.2413
  170MOL0     H22375   7.424   3.569   5.776 -0.7758 -0.2115 -1.9964
  170MOL0     H22376   7.218   3.719   5.785 -1.7891  1.9693 -5.3069
  170MOL0     H22377   7.244   4.105   5.614 -1.0659  4.1008 -0.3437
  170MOL0     H22378   7.314   4.169   5.760 -3.5289  2.3672  2.7038
  170MOL0     H22379   7.029   4.111   5.698 -2.7981  2.4308  0.5236
  170MOL0     H22380   7.106   4.272   5.678 -0.9754  0.5480  1.3782
  170MOL0     H22381   7.158   4.258   5.934  3.3310 -2.7702  0.0321
  170MOL0     H22382   7.066   4.112   5.940 -2.2019  2.3306  1.1843
  170MOL0     H22383   6.949   4.312   6.018  0.0617 -2.8779  1.5618
  170MOL0     H22384   6.952   4.389   5.861 -2.1114  1.4287  1.2584
  170MOL0     H22385   6.799   4.132   5.931  1.2454 -1.5991 -1.7691
  170MOL0     H22386   6.823   4.161   5.772  0.8033 -2.3533  2.3437
  170MOL0     H22387   6.702   4.398   5.810  1.0294  1.2344  0.0956
  170MOL0     H22388   6.697   4.356   5.983  0.7262 -1.9382  0.4565
  170MOL0     H22389   6.560   4.202   5.745 -0.2280 -2.3833 -0.1652
  170MOL0     H22390   6.576   4.140   5.912 -2.5050  0.0005  0.0565
  170MOL0     H22391   6.424   4.382   5.803  0.3892 -2.0099 -0.4031
  170MOL0     H22392   6.470   4.379   5.980  1.4334 -2.2034  2.0760
  170MOL0     H22393   6.301   4.103   5.737  0.1385  1.7879 -0.2559
  170MOL0     H22394   6.061   3.938   5.787 -0.1868 -4.7547  0.5587
  170MOL0     H22395   5.988   3.952   5.943 -1.2462  0.5964 -2.2024
  170MOL0     H22396   6.259   3.834   5.875  1.0740 -0.3588  0.2147
  170MOL0     H22397   6.125   3.750   5.909 -0.4620  0.6415  1.0044
  170MOL0     H22398   6.304   3.917   6.102 -1.7193  2.1592 -0.3359
  170MOL0     H22399   6.139   3.863   6.150  0.4641  1.7891 -0.1274
  170MOL0     H22400   6.369   3.678   6.049  1.9023 -0.5099  3.5903
  170MOL0     H22401   6.190   3.637   6.077 -1.1233 -0.1072  0.7316
  170MOL0     H22402   6.325   3.565   6.462 -4.0898 -2.9061 -1.2188
  170MOL0     H22403   6.446   3.356   6.538 -1.8633  1.2898 -0.2282
  170MOL0     H22404   6.560   2.933   6.401 -0.5279 -1.6238  0.6425
  170MOL0     H22405   6.663   2.704   6.400 -2.9400  2.1588  0.1672
  170MOL0     H22406   6.823   2.556   6.486 -0.6839  1.0376 -0.4855
  170MOL0     H22407   6.957   2.626   6.552  3.3582 -0.5931 -1.1655
  170MOL0     H22408   7.045   2.417   6.554  0.3218  1.6318 -0.7996
  170MOL0     H22409   7.106   2.474   6.398  1.4942 -1.6307  0.0108
  170MOL0     H22410   6.976   2.311   6.280  1.1020 -2.5815  1.1397
  170MOL0     H22411   6.838   2.316   6.380  0.3597 -2.2396 -1.1907
  170MOL0     H22412   7.097   2.213   6.490 -0.2579 -1.0979 -0.9722
  170MOL0     H22413   6.936   2.217   6.566  0.5628  2.4692 -0.8316
  170MOL0     H22414   7.011   2.082   6.299 -0.1603  0.2209 -0.0872
  170MOL0     H22415   6.847   2.092   6.349 -2.1060  1.6848  2.6763
  170MOL0     H22416   6.931   1.991   6.584  1.0833 -1.3306  0.7372
  170MOL0     H22417   7.060   1.931   6.480 -0.8318 -1.0326 -1.3985
  170MOL0     H22418   6.767   1.888   6.401 -1.2482 -3.1685 -0.8394
  170MOL0     H22419   6.918   1.832   6.329  1.9107  0.6553  1.2478
  170MOL0     H22420   6.973   1.695   6.532  0.3668  1.4071  2.2778
  170MOL0     H22421   6.822   1.649   6.461  2.0799 -1.2499 -1.8080
  170MOL0     H22422   7.040   2.872   6.298  0.2830 -0.0544  0.7148
  170MOL0     H22423   6.936   3.088   6.261  0.1485  0.3552  0.0138
  170MOL0     H22424   6.582   3.296   6.132  2.3210  0.1695 -0.3695
  170MOL0     H22425   6.436   3.475   6.055  0.0822  0.0308  0.3669
  170MOL0     H22426   7.485   4.053   5.788  0.3831 -0.2398  0.3169
  170MOL0     H22427   7.686   3.881   5.765 -0.3919  0.3575 -0.7179
  170MOL0     H22428   7.815   3.439   5.798 -0.5936 -2.4091  1.1753
  170MOL0     H22429   7.961   3.250   5.750  0.0479 -0.1156 -1.5185
  170MOL0     H22430   8.202   3.274   5.691 -0.2397  1.0880  0.2030
  170MOL0     H22431   8.278   3.335   5.548  0.4222  0.8289  0.9235
  170MOL0     H22432   8.302   3.058   5.515  0.7610  0.4308 -1.3517
  170MOL0     H22433   8.420   3.190   5.578 -1.7588  3.7703  0.1995
  170MOL0     H22434   8.234   3.040   5.763  0.0080  0.7390  0.6015
  170MOL0     H22435   8.366   3.146   5.802 -0.3068  0.0222  0.8012
  170MOL0     H22436   8.390   2.879   5.652 -2.0219 -0.4792  2.3324
  170MOL0     H22437   8.517   2.994   5.666 -1.2141  0.8961  0.3173
  170MOL0     H22438   8.505   2.810   6.051  0.6131  1.9049  1.7153
  170MOL0     H22439   8.010   3.385   5.341 -0.6055  3.2259 -0.5672
  170MOL0     H22440   7.851   3.575   5.388  1.8018  2.0533  0.5685
  171MOL0     O22441  11.055   8.106   7.966  0.3796 -1.0365 -1.0297
  171MOL0     C22442  11.010   8.027   8.051  0.1480 -0.4118 -0.6677
  171MOL0     O22443  10.995   8.049   8.186 -0.2231  0.2949  0.6424
  171MOL0     C22444  11.014   8.177   8.238  0.4622  0.1074  0.4258
  171MOL0     C22445  11.137   8.230   8.277 -0.0603  0.0344 -0.1283
  171MOL0     C22446  11.148   8.362   8.331  0.4438 -0.6738  0.4156
  171MOL0     C22447  11.034   8.446   8.342  0.2537  0.6363 -0.1554
  171MOL0     O22448  11.026   8.584   8.363 -0.5997 -0.5828  0.0075
  171MOL0     C22449  11.131   8.633   8.447  0.8618  0.8114  0.3068
  171MOL0     C22450  11.107   8.592   8.594  0.0333  0.4062 -0.1158
  171MOL0     C22451  10.978   8.647   8.661  0.5806  0.2091  0.9009
  171MOL0     C22452  10.967   8.613   8.809  0.2252 -0.5023 -0.6337
  171MOL0     C22453  10.898   8.476   8.818 -0.0887  0.3072 -0.8894
  171MOL0     C22454  10.753   8.467   8.775 -0.9321  0.1316  0.3354
  171MOL0     C22455  10.714   8.315   8.786 -0.0958 -0.7878 -0.4080
  171MOL0     C22456  10.577   8.300   8.711 -0.2312 -0.7669  0.0030
  171MOL0     N22457  10.543   8.160   8.707 -0.0086  0.3312  0.4565
  171MOL0     C22458  10.425   8.095   8.750  0.3752 -0.4671 -0.0755
  171MOL0     C22459  10.444   7.964   8.715  0.4844  0.1172  0.5689
  171MOL0     C22460  10.363   7.843   8.755  1.0568 -0.2715 -1.3048
  171MOL0     C22461  10.382   7.785   8.892  0.8088  0.5644 -0.0875
  171MOL0     C22462  10.516   7.720   8.915 -0.1405 -0.1525 -0.7658
  171MOL0     C22463  10.491   7.617   9.036 -0.1728 -0.3372  0.0712
  171MOL0     O22464  10.432   7.672   9.150  0.3184 -0.4331  1.2371
  171MOL0     C22465  10.441   7.604   9.272 -0.2084 -0.1938  0.6523
  171MOL0     C22466  10.559   7.575   9.316 -1.0331 -0.2273 -0.0146
  171MOL0     C22467  10.578   7.524   9.444 -0.2647 -0.2399 -0.3802
  171MOL0     C22468  10.467   7.508   9.522 -0.0800  0.0565 -0.2653
  171MOL0     C22469  10.482   7.441   9.663  0.2324 -0.7096  0.1862
  171MOL0     O22470  10.613   7.415   9.691 -0.1911 -0.6568 -0.1587
  171MOL0     C22471  10.665   7.346   9.796 -0.0387  0.1380  1.1648
  171MOL0     C22472  10.802   7.332   9.783 -0.3828  0.1687  1.0004
  171MOL0     C22473  10.871   7.249   9.866  0.9410 -0.6840  0.9171
  171MOL0     C22474  10.812   7.184   9.972 -0.4690 -0.4923 -0.7827
  171MOL0     O22475  10.879   7.093  10.049  0.3040  0.1686  0.5875
  171MOL0     C22476  10.998   7.023   9.999 -0.4926 -0.2834  0.0661
  171MOL0     C22477  10.967   6.914   9.898  0.2184 -0.0047 -0.6519
  171MOL0     C22478  11.073   6.804   9.910  0.1107 -0.2170  0.7781
  171MOL0     C22479  11.048   6.696   9.802  1.1389  0.4153  0.4765
  171MOL0     C22480  11.136   6.578   9.858 -0.6458 -0.4684 -0.2962
  171MOL0     C22481  11.291   6.580   9.874 -0.7558  0.0989 -1.3691
  171MOL0     C22482  11.355   6.634   9.746  0.4496  0.3231  0.5912
  171MOL0     C22483  11.411   6.521   9.655  0.3127 -0.4042 -0.6821
  171MOL0    Cl22484  11.267   6.451   9.568  0.5294  0.0521 -0.1050
  171MOL0     C22485  10.670   7.193   9.988  1.0429  0.0314 -0.5796
  171MOL0     C22486  10.603   7.279   9.905 -0.0614  0.1356  0.3345
  171MOL0     O22487  10.378   7.419   9.736 -0.3909  0.0271  0.4173
  171MOL0     C22488  10.345   7.555   9.482 -0.1286 -0.6038 -0.6645
  171MOL0     C22489  10.320   7.596   9.351 -0.0265 -0.1590  0.1582
  171MOL0     N22490  10.566   7.954   8.653  0.2371  0.1325 -0.2255
  171MOL0     N22491  10.631   8.069   8.652  0.0901 -0.5792 -1.2299
  171MOL0     C22492  10.913   8.387   8.312  0.4119 -0.9165  0.0174
  171MOL0     C22493  10.898   8.251   8.264 -0.4773  0.1195  0.6257
  171MOL0     C22494  10.977   7.899   7.996  1.3837  0.0115  0.3113
  171MOL0     C22495  10.972   7.783   8.073  0.3300  0.5991  0.9884
  171MOL0     C22496  10.964   7.655   8.024 -1.0234  0.7672 -0.1563
  171MOL0     C22497  10.926   7.635   7.889 -0.1014  0.3441 -0.8478
  171MOL0     O22498  10.904   7.512   7.836 -0.1884 -0.3154  0.6621
  171MOL0     C22499  10.842   7.509   7.711  0.0919  0.7121  0.5651
  171MOL0     C22500  10.794   7.364   7.675  0.4773  0.2076  0.3274
  171MOL0     C22501  10.736   7.336   7.542 -0.2330 -1.1507  0.2198
  171MOL0     C22502  10.828   7.353   7.415 -0.2100 -0.3157  0.2492
  171MOL0     C22503  10.955   7.294   7.437 -0.5282 -0.5064  0.1370
  171MOL0     C22504  11.058   7.231   7.449  1.1078 -0.9671 -0.5501
  171MOL0     C22505  10.919   7.751   7.813  0.6538  0.3943 -0.4614
  171MOL0     C22506  10.959   7.881   7.857  0.2598 -0.2252  0.3215
  171MOL0     H22507  11.224   8.169   8.255 -1.3941 -1.4506 -1.5246
  171MOL0     H22508  11.247   8.399   8.356  0.8809 -0.2403 -1.7660
  171MOL0     H22509  11.127   8.741   8.430  3.7286  0.5307 -3.5385
  171MOL0     H22510  11.230   8.616   8.404 -0.3443  2.2617 -3.5122
  171MOL0     H22511  11.186   8.635   8.656 -0.9516 -0.4217  1.7897
  171MOL0     H22512  11.103   8.484   8.603 -2.5286  0.6043  2.4685
  171MOL0     H22513  10.893   8.615   8.599  0.0354 -0.5570  2.0031
  171MOL0     H22514  10.983   8.755   8.642  2.3341 -0.1154 -0.7870
  171MOL0     H22515  11.058   8.631   8.867  1.0643  1.5337 -2.4417
  171MOL0     H22516  10.901   8.678   8.867 -0.5186 -0.9777 -0.9336
  171MOL0     H22517  10.895   8.456   8.926  1.3959 -0.3338 -0.9321
  171MOL0     H22518  10.960   8.405   8.762 -1.3056 -2.6585  1.2605
  171MOL0     H22519  10.739   8.496   8.670  0.1564 -0.0594  0.1224
  171MOL0     H22520  10.681   8.519   8.838 -1.3520 -0.7400  0.5918
  171MOL0     H22521  10.787   8.251   8.734  1.5731  1.2311 -0.6762
  171MOL0     H22522  10.709   8.292   8.892  0.9743 -1.6115 -0.5152
  171MOL0     H22523  10.575   8.336   8.608 -0.2901 -0.3266  0.1537
  171MOL0     H22524  10.500   8.361   8.759  0.4658 -0.0694  0.2500
  171MOL0     H22525  10.335   8.127   8.801 -1.7624 -1.5391 -2.9703
  171MOL0     H22526  10.389   7.766   8.682  0.0032 -0.7897 -1.1507
  171MOL0     H22527  10.261   7.881   8.746  1.0501 -0.1385 -0.6791
  171MOL0     H22528  10.297   7.719   8.912 -1.8203  3.3016 -1.4740
  171MOL0     H22529  10.370   7.859   8.972 -0.1474 -1.1738  1.4525
  171MOL0     H22530  10.542   7.666   8.823 -0.9160 -1.2559 -0.3528
  171MOL0     H22531  10.593   7.792   8.943  1.1656 -1.7248 -0.0995
  171MOL0     H22532  10.588   7.579   9.068  1.3252  1.3724 -2.0880
  171MOL0     H22533  10.433   7.530   9.005  1.1715 -1.0971 -0.3568
  171MOL0     H22534  10.642   7.581   9.246 -3.8063  1.6937 -3.4049
  171MOL0     H22535  10.675   7.485   9.476  0.0043  0.7354  0.0281
  171MOL0     H22536  10.859   7.377   9.703 -0.8503 -2.3055 -0.8394
  171MOL0     H22537  10.978   7.239   9.851  0.9112  0.7168 -0.4671
  171MOL0     H22538  11.037   6.988  10.095  1.2854  0.1311 -0.4725
  171MOL0     H22539  11.079   7.092   9.972 -1.0674  0.0999 -0.7111
  171MOL0     H22540  10.958   6.976   9.809 -2.4039  1.4454  0.5009
  171MOL0     H22541  10.873   6.862   9.921  1.2240 -0.7456  2.2158
  171MOL0     H22542  11.059   6.755  10.007  2.5502 -2.2586  0.1947
  171MOL0     H22543  11.175   6.842   9.900 -0.0571  1.0465  3.0420
  171MOL0     H22544  10.947   6.660   9.782  1.2579  0.8642 -1.0972
  171MOL0     H22545  11.084   6.727   9.703  0.4881 -0.1310  0.0667
  171MOL0     H22546  11.128   6.492   9.791 -1.5905  2.3858 -4.1994
  171MOL0     H22547  11.093   6.552   9.955 -1.7765 -0.8067 -0.8799
  171MOL0     H22548  11.320   6.480   9.906  0.2564  1.0122  0.8180
  171MOL0     H22549  11.321   6.642   9.959  3.8402 -2.6202 -0.7181
  171MOL0     H22550  11.294   6.709   9.693  2.0134 -0.6413 -2.8589
  171MOL0     H22551  11.438   6.704   9.762  1.7515 -1.0357 -0.0240
  171MOL0     H22552  11.468   6.448   9.713  0.3727 -0.3482 -0.6700
  171MOL0     H22553  11.486   6.556   9.584  1.5303  0.2679  0.8694
  171MOL0     H22554  10.618   7.119  10.048  1.1256  1.2842  1.1279
  171MOL0     H22555  10.494   7.280   9.910 -0.1065  2.9283  0.5254
  171MOL0     H22556  10.260   7.552   9.550  1.2289  0.2412  1.1422
  171MOL0     H22557  10.221   7.620   9.315  0.1213 -0.5405 -0.5050
  171MOL0     H22558  10.823   8.447   8.318  0.7218 -0.3889 -0.5736
  171MOL0     H22559  10.794   8.221   8.255  0.4519 -3.0197 -0.9926
  171MOL0     H22560  10.988   7.791   8.181 -2.1016  1.0959  1.3661
  171MOL0     H22561  10.970   7.565   8.085  0.6861  2.2311  1.9428
  171MOL0     H22562  10.913   7.542   7.635  0.0496  0.1906  0.2963
  171MOL0     H22563  10.754   7.573   7.697  0.2660  0.6406 -1.1218
  171MOL0     H22564  10.867   7.290   7.710 -0.6473 -0.9424  0.3237
  171MOL0     H22565  10.718   7.340   7.750 -0.8228  0.9872 -0.6995
  171MOL0     H22566  10.658   7.411   7.529  1.8664  1.1173  0.0702
  171MOL0     H22567  10.714   7.229   7.540  0.1991 -1.2455 -2.7707
  171MOL0     H22568  10.790   7.294   7.331  2.8062 -1.7634 -0.2391
  171MOL0     H22569  10.832   7.453   7.373  2.0800 -0.2509  0.4924
  171MOL0     H22570  11.158   7.194   7.460  0.4404 -2.3219  1.3573
  171MOL0     H22571  10.911   7.737   7.705  0.9632 -5.2485 -0.0448
  171MOL0     H22572  10.994   7.961   7.793 -1.5121  1.1342  0.9435
  172MOL0     O22573   1.241   2.513   3.177 -0.3085  0.2682  0.1603
  172MOL0     C22574   1.216   2.490   3.061 -0.2347 -0.1786  1.4135
  172MOL0     O22575   1.119   2.407   3.004  1.1389  0.9544 -0.2538
  172MOL0     C22576   1.022   2.344   3.077 -0.5201 -0.2751  0.6970
  172MOL0     C22577   0.933   2.263   3.003  0.4282  0.0578  1.1312
  172MOL0     C22578   0.812   2.222   3.054  0.1944  1.3848 -0.1834
  172MOL0     C22579   0.779   2.246   3.187 -0.1042 -0.2688 -0.5433
  172MOL0     O22580   0.648   2.210   3.232 -0.3163  0.0165  0.9384
  172MOL0     C22581   0.616   2.205   3.370 -0.2875 -0.8686 -0.7007
  172MOL0     C22582   0.501   2.112   3.395  0.1330  0.3674  0.1909
  172MOL0     C22583   0.381   2.140   3.300 -1.4531  0.4070  0.2197
  172MOL0     C22584   0.271   2.041   3.333 -0.2530 -0.3616 -0.3514
  172MOL0     C22585   0.145   2.087   3.260  0.5960  0.3311  0.0664
  172MOL0     C22586   0.022   1.989   3.262 -0.0052  0.5352 -0.0879
  172MOL0     C22587   0.051   1.856   3.181  0.3753  0.3344  0.2284
  172MOL0     C22588  -0.011   1.857   3.035  0.5870 -0.6072 -0.5037
  172MOL0     N22589  -0.022   1.720   2.980 -0.0153  0.2982  0.6089
  172MOL0     C22590  -0.076   1.610   3.039  1.0325  0.1950 -0.6140
  172MOL0     C22591  -0.049   1.504   2.946  0.7429  0.2198  0.0714
  172MOL0     C22592  -0.089   1.359   2.927 -0.5712 -0.5617 -0.5625
  172MOL0     C22593  -0.214   1.335   3.016 -0.4527  0.2778 -0.1349
  172MOL0     C22594  -0.270   1.194   2.986  0.9928  1.0970  0.1112
  172MOL0     C22595  -0.170   1.083   3.031  0.4694  1.3579  0.3056
  172MOL0     O22596  -0.244   0.969   3.053  0.1174 -0.1624  0.6698
  172MOL0     C22597  -0.181   0.867   3.117 -0.2986 -0.3869 -0.7305
  172MOL0     C22598  -0.051   0.877   3.166  0.8718 -0.3632  0.0125
  172MOL0     C22599   0.001   0.771   3.224 -0.0641  0.2933 -0.9833
  172MOL0     C22600  -0.074   0.655   3.250 -0.2011  0.3136  1.0637
  172MOL0     C22601  -0.001   0.532   3.316  0.5214 -0.1713  0.3514
  172MOL0     O22602  -0.061   0.416   3.291 -0.4131  0.5541 -0.7952
  172MOL0     C22603  -0.034   0.314   3.365 -0.4807  0.9381  0.0339
  172MOL0     C22604   0.020   0.207   3.291 -1.1916 -0.3299  0.1998
  172MOL0     C22605   0.050   0.085   3.353 -0.6183  0.8636 -0.0759
  172MOL0     C22606   0.022   0.068   3.491  0.4107 -0.4172  0.8624
  172MOL0     O22607   0.063  -0.056   3.537  0.0229 -0.2851  0.5959
  172MOL0     C22608   0.012  -0.091   3.665 -1.1862 -0.6582 -0.1844
  172MOL0     C22609  -0.123  -0.170   3.654  0.6484 -1.0047  0.8322
  172MOL0     C22610  -0.130  -0.301   3.581 -0.2629 -0.1019  0.2354
  172MOL0     C22611  -0.110  -0.430   3.663  0.2885  0.0645  0.4714
  172MOL0     C22612  -0.103  -0.566   3.583 -0.3993  0.5391  0.4943
  172MOL0     C22613   0.029  -0.566   3.503 -0.6788 -0.1312 -0.2351
  172MOL0     C22614   0.042  -0.695   3.432 -0.5173 -0.8771  0.5710
  172MOL0     C22615   0.153  -0.699   3.330  0.4231  0.7799 -0.1506
  172MOL0    Cl22616   0.314  -0.687   3.400  0.4430 -0.0270 -0.4742
  172MOL0     C22617  -0.044   0.175   3.561 -1.0396 -0.0133 -0.3745
  172MOL0     C22618  -0.073   0.302   3.498 -0.6799  1.3587  0.0964
  172MOL0     O22619   0.093   0.549   3.384 -0.2669 -0.5017 -0.0967
  172MOL0     C22620  -0.208   0.651   3.199 -0.0275  0.9156  0.4103
  172MOL0     C22621  -0.259   0.756   3.130  0.2366 -0.0057 -0.3561
  172MOL0     N22622   0.041   1.545   2.853 -0.3764 -0.2188 -0.1402
  172MOL0     N22623   0.052   1.677   2.873 -0.7494  1.0891  0.6796
  172MOL0     C22624   0.858   2.335   3.262 -0.1224  0.8601  0.0883
  172MOL0     C22625   0.980   2.383   3.204 -0.2194 -0.6611 -0.1456
  172MOL0     C22626   1.307   2.538   2.960 -0.1297  0.0690  0.0285
  172MOL0     C22627   1.430   2.605   2.975 -0.2599 -0.2796 -0.6225
  172MOL0     C22628   1.495   2.664   2.872  0.6932  0.2231 -0.6704
  172MOL0     C22629   1.448   2.652   2.744 -0.4851 -0.2238  0.3798
  172MOL0     O22630   1.514   2.715   2.640 -0.5780  0.1691  0.3197
  172MOL0     C22631   1.452   2.778   2.529  0.3009  0.3536 -0.3618
  172MOL0     C22632   1.450   2.687   2.413 -0.5709  0.0828  0.5716
  172MOL0     C22633   1.393   2.772   2.289 -0.5779 -0.1180  0.1716
  172MOL0     C22634   1.468   2.738   2.155 -1.0406  0.1927  0.5606
  172MOL0     C22635   1.453   2.589   2.123 -1.1741 -0.6146  0.1427
  172MOL0     C22636   1.457   2.465   2.101  0.7708 -0.6978 -0.6506
  172MOL0     C22637   1.335   2.576   2.714  0.5277 -0.1569 -0.1055
  172MOL0     C22638   1.268   2.518   2.823 -0.4852  0.5473 -0.5311
  172MOL0     H22639   0.958   2.233   2.902  0.7768  0.4994  1.0884
  172MOL0     H22640   0.748   2.151   3.003  0.5587  1.7058 -1.0969
  172MOL0     H22641   0.588   2.305   3.405  0.2731 -1.7112  2.3596
  172MOL0     H22642   0.698   2.174   3.435 -0.6653  1.7659  1.1940
  172MOL0     H22643   0.459   2.098   3.495  0.1957 -1.5630 -0.0279
  172MOL0     H22644   0.536   2.012   3.368 -0.7130 -0.0634  0.6538
  172MOL0     H22645   0.413   2.119   3.197  0.8290  1.9530  0.5360
  172MOL0     H22646   0.337   2.240   3.301 -2.2097  0.2424 -3.2657
  172MOL0     H22647   0.295   1.934   3.325 -0.2617 -0.2750 -1.7648
  172MOL0     H22648   0.251   2.063   3.439  2.9790  1.5834 -0.0244
  172MOL0     H22649   0.170   2.098   3.154  0.7715  3.1176  0.3384
  172MOL0     H22650   0.114   2.185   3.296  1.3696  0.2208  1.0869
  172MOL0     H22651  -0.065   2.027   3.208 -0.9877 -2.1013 -0.4664
  172MOL0     H22652   0.002   1.981   3.369 -1.6479 -0.0529 -0.4139
  172MOL0     H22653   0.159   1.843   3.172  0.5778  1.4985  0.8045
  172MOL0     H22654   0.011   1.771   3.237 -1.2696  0.4987 -0.6291
  172MOL0     H22655   0.058   1.912   2.969  0.7415 -0.0939  0.0778
  172MOL0     H22656  -0.110   1.903   3.029  1.4678  1.3936 -0.5470
  172MOL0     H22657  -0.148   1.618   3.120  0.5591  0.9756 -1.0954
  172MOL0     H22658   0.000   1.307   2.961 -1.3317 -2.2961 -1.1067
  172MOL0     H22659  -0.107   1.320   2.827  0.7326  1.6476 -1.7127
  172MOL0     H22660  -0.286   1.413   2.990  1.3180  1.5079 -1.6185
  172MOL0     H22661  -0.184   1.355   3.119 -1.5559 -0.7034  0.4017
  172MOL0     H22662  -0.366   1.185   3.036  0.9881  1.1182  0.1065
  172MOL0     H22663  -0.295   1.185   2.880 -0.5094 -0.0951  0.5473
  172MOL0     H22664  -0.112   1.110   3.120  0.3034 -2.0304  1.6113
  172MOL0     H22665  -0.102   1.059   2.948 -0.5446 -0.5453 -0.0264
  172MOL0     H22666   0.015   0.963   3.156 -1.2208  1.4400  0.9157
  172MOL0     H22667   0.109   0.773   3.240 -0.5279  1.6920  3.3548
  172MOL0     H22668   0.045   0.227   3.187  0.3473  2.8375  1.0550
  172MOL0     H22669   0.113   0.004   3.317 -0.3431  0.8062  0.5179
  172MOL0     H22670   0.018  -0.006   3.734 -0.7419 -0.0606 -0.9489
  172MOL0     H22671   0.080  -0.164   3.711 -0.3599 -0.5944 -1.2711
  172MOL0     H22672  -0.193  -0.110   3.596 -0.8820 -1.8351  1.7483
  172MOL0     H22673  -0.173  -0.183   3.751  3.7822 -3.8341  2.2807
  172MOL0     H22674  -0.064  -0.299   3.494 -0.2661 -3.8352 -0.0128
  172MOL0     H22675  -0.230  -0.304   3.537 -0.3688  2.4198  0.1512
  172MOL0     H22676  -0.015  -0.412   3.715 -0.0320  1.0136  0.7420
  172MOL0     H22677  -0.191  -0.437   3.736 -1.1669  3.0591 -0.7052
  172MOL0     H22678  -0.191  -0.598   3.528 -1.8051 -3.1682  4.3723
  172MOL0     H22679  -0.089  -0.648   3.654 -1.5777  0.3949  0.5771
  172MOL0     H22680   0.120  -0.548   3.560 -0.0188 -0.4162 -1.1884
  172MOL0     H22681   0.021  -0.496   3.420 -0.6368 -1.5376 -1.4528
  172MOL0     H22682   0.064  -0.774   3.504 -0.9568  0.5243  2.3214
  172MOL0     H22683  -0.048  -0.723   3.376 -1.2083  1.9374  0.1309
  172MOL0     H22684   0.137  -0.617   3.259  0.4809  2.0308  1.2237
  172MOL0     H22685   0.142  -0.796   3.281 -3.1479  2.3239 -2.8480
  172MOL0     H22686  -0.054   0.167   3.669  0.1557 -0.0357 -0.2429
  172MOL0     H22687  -0.128   0.380   3.549 -5.1573 -2.5740  2.0245
  172MOL0     H22688  -0.266   0.560   3.210  0.9325 -0.2912 -3.1855
  172MOL0     H22689  -0.356   0.766   3.084  0.5753 -1.4934 -1.4504
  172MOL0     H22690   0.822   2.389   3.349 -3.0914 -1.3668  0.3761
  172MOL0     H22691   1.047   2.449   3.258  0.7325 -2.0455  0.4284
  172MOL0     H22692   1.477   2.605   3.072  1.9352 -1.7792 -1.5965
  172MOL0     H22693   1.585   2.719   2.897  0.7164  0.0489 -0.3551
  172MOL0     H22694   1.510   2.870   2.512  0.6778  1.1965  4.2775
  172MOL0     H22695   1.352   2.809   2.560  0.3837 -1.1118  1.5109
  172MOL0     H22696   1.556   2.662   2.400 -1.0923 -0.9474 -2.3561
  172MOL0     H22697   1.393   2.595   2.428  1.3119 -0.8914  2.3203
  172MOL0     H22698   1.408   2.879   2.304  5.0223 -0.2193 -2.3979
  172MOL0     H22699   1.286   2.748   2.283 -0.3971 -0.7315 -0.6832
  172MOL0     H22700   1.433   2.801   2.073  0.4453  0.3213 -0.0023
  172MOL0     H22701   1.576   2.749   2.166 -1.1899  2.1255  0.3562
  172MOL0     H22702   1.453   2.359   2.107  2.6095 -0.7770 -0.1647
  172MOL0     H22703   1.303   2.563   2.611 -0.7806  0.3585  0.2218
  172MOL0     H22704   1.175   2.470   2.792 -0.1722  0.6058 -1.5933
  173MOL0     O22705   5.083   8.077   1.380 -0.4973  0.5166  0.0494
  173MOL0     C22706   5.171   8.084   1.301 -0.8498  0.4163  0.2206
  173MOL0     O22707   5.183   8.181   1.212 -0.5297 -0.4051 -0.3603
  173MOL0     C22708   5.074   8.268   1.195  0.3264  0.9959 -0.1869
  173MOL0     C22709   5.065   8.385   1.262  0.5368  0.0638 -0.4863
  173MOL0     C22710   4.960   8.482   1.247 -0.8715 -0.7270 -0.1534
  173MOL0     C22711   4.867   8.454   1.145  0.2500  0.6407  0.5427
  173MOL0     O22712   4.776   8.545   1.114 -0.1696 -0.5256 -0.2682
  173MOL0     C22713   4.808   8.612   0.989 -0.7471 -0.0170  0.4454
  173MOL0     C22714   4.912   8.720   0.992 -0.3131  0.7209  0.3508
  173MOL0     C22715   4.879   8.834   0.891  0.5767  1.3313  0.6363
  173MOL0     C22716   4.982   8.940   0.899  0.6273  0.1624  0.2014
  173MOL0     C22717   4.955   9.063   0.803 -0.2520  0.4259 -0.3049
  173MOL0     C22718   4.833   9.141   0.837 -0.1363 -0.2144 -0.2706
  173MOL0     C22719   4.807   9.258   0.747 -0.3072 -0.0152 -0.2687
  173MOL0     C22720   4.687   9.332   0.807  0.1096  0.2509 -0.3102
  173MOL0     N22721   4.648   9.448   0.721  0.0104 -0.5046 -0.3269
  173MOL0     C22722   4.726   9.550   0.674 -0.0776  0.2462 -0.7736
  173MOL0     C22723   4.632   9.649   0.632 -0.3413 -0.2671 -1.2100
  173MOL0     C22724   4.660   9.788   0.591 -0.0745 -0.3170  0.4579
  173MOL0     C22725   4.595   9.843   0.472 -0.8017 -0.4193  0.3613
  173MOL0     C22726   4.533   9.978   0.493 -0.5693  0.3491 -0.1309
  173MOL0     C22727   4.638  10.089   0.547  1.2553  0.9016  0.4323
  173MOL0     O22728   4.562  10.184   0.614 -0.6442 -0.9398 -0.0955
  173MOL0     C22729   4.625  10.300   0.657 -0.2410  0.5486  0.1536
  173MOL0     C22730   4.648  10.403   0.568 -0.0814 -0.1849 -0.3564
  173MOL0     C22731   4.696  10.527   0.606 -0.5104 -0.8361  0.3693
  173MOL0     C22732   4.745  10.542   0.734  0.4093  0.4948  0.7624
  173MOL0     C22733   4.821  10.666   0.761 -0.3988 -0.1061  0.5138
  173MOL0     O22734   4.862  10.742   0.651  0.8161 -0.4071  0.3285
  173MOL0     C22735   4.911  10.863   0.667  0.2505  0.4612  0.2606
  173MOL0     C22736   4.830  10.981   0.672  1.1229  0.0560 -0.2760
  173MOL0     C22737   4.889  11.108   0.688  0.4107 -0.0338 -0.2902
  173MOL0     C22738   5.029  11.117   0.678  0.1995 -0.6835 -0.1019
  173MOL0     O22739   5.097  11.234   0.677 -0.3834 -0.1551  0.5248
  173MOL0     C22740   5.029  11.358   0.705  0.4212  0.1490  0.1961
  173MOL0     C22741   4.995  11.419   0.566  0.6369  1.3024 -0.2750
  173MOL0     C22742   5.122  11.449   0.490 -0.7961 -0.0925  0.5872
  173MOL0     C22743   5.088  11.508   0.350  0.2244 -0.6157 -0.0871
  173MOL0     C22744   5.049  11.657   0.353 -0.0136 -0.0029  1.6463
  173MOL0     C22745   5.017  11.710   0.209 -0.1490  0.3757 -0.9055
  173MOL0     C22746   5.035  11.868   0.207 -0.6757  0.1535 -0.1555
  173MOL0     C22747   4.921  11.948   0.281 -0.7060  0.5591  0.2507
  173MOL0    Cl22748   4.764  11.928   0.206  0.2804 -0.1548 -0.1377
  173MOL0     C22749   5.108  11.004   0.664 -0.6361  0.3348 -1.4991
  173MOL0     C22750   5.048  10.874   0.663  0.2141  0.2532 -0.8505
  173MOL0     O22751   4.848  10.693   0.880 -0.0039 -0.1528  0.3945
  173MOL0     C22752   4.735  10.444   0.823 -0.6926  1.5476 -1.0793
  173MOL0     C22753   4.667  10.319   0.792 -0.5384  0.6770  0.3898
  173MOL0     N22754   4.510   9.607   0.655 -0.1333  0.1692  0.0984
  173MOL0     N22755   4.521   9.489   0.721  0.2236  0.3203  0.7791
  173MOL0     C22756   4.871   8.327   1.093  0.1381  0.7564  0.4447
  173MOL0     C22757   4.969   8.231   1.107 -0.5813 -0.3754 -0.7286
  173MOL0     C22758   5.280   7.980   1.311 -0.7869 -0.2271 -0.5001
  173MOL0     C22759   5.280   7.877   1.412  0.1005  0.2202 -0.3466
  173MOL0     C22760   5.387   7.778   1.403  0.4793  0.3654 -0.4206
  173MOL0     C22761   5.492   7.792   1.314  0.7302 -0.0795  0.5329
  173MOL0     O22762   5.591   7.700   1.316  0.0566 -0.4122 -0.4926
  173MOL0     C22763   5.709   7.725   1.244  0.2549  0.6041 -0.5815
  173MOL0     C22764   5.813   7.622   1.274  0.0219 -0.2367  0.5478
  173MOL0     C22765   5.958   7.667   1.252  0.9606  0.5087 -0.1248
  173MOL0     C22766   5.977   7.695   1.100 -0.1536 -0.8449 -0.5628
  173MOL0     C22767   5.962   7.839   1.067 -0.2230  0.4994  0.5030
  173MOL0     C22768   5.951   7.957   1.047  0.3222  0.1632 -0.2363
  173MOL0     C22769   5.490   7.895   1.223 -0.0583  0.5422 -0.2124
  173MOL0     C22770   5.382   7.985   1.216  0.4563 -0.5552 -0.2061
  173MOL0     H22771   5.146   8.422   1.324 -0.6821  3.8448 -0.9101
  173MOL0     H22772   4.964   8.580   1.293  0.3178 -0.4420 -0.8080
  173MOL0     H22773   4.718   8.658   0.945 -0.1340  0.6967 -0.0877
  173MOL0     H22774   4.841   8.538   0.916 -0.8519 -0.5389  0.9235
  173MOL0     H22775   5.010   8.677   0.970 -0.8266 -0.9831  1.2498
  173MOL0     H22776   4.923   8.755   1.095  0.6674 -1.8444  1.1828
  173MOL0     H22777   4.778   8.872   0.909  0.3985  1.8647 -1.2087
  173MOL0     H22778   4.877   8.795   0.789 -0.2154  5.5413 -1.1951
  173MOL0     H22779   4.990   8.978   1.001 -1.9559 -0.1148  0.5667
  173MOL0     H22780   5.080   8.894   0.881  1.4695  0.2740  3.6852
  173MOL0     H22781   4.929   9.027   0.703 -1.3973  0.6751 -0.1118
  173MOL0     H22782   5.037   9.134   0.786 -1.3291  1.7588 -0.0705
  173MOL0     H22783   4.838   9.168   0.943 -0.5720 -5.2671  1.3550
  173MOL0     H22784   4.746   9.076   0.823 -0.7046 -0.6380  3.8235
  173MOL0     H22785   4.889   9.328   0.762 -0.1618  0.1819 -1.8352
  173MOL0     H22786   4.802   9.230   0.641  2.2384 -1.6968 -0.0308
  173MOL0     H22787   4.699   9.360   0.912  1.9219  1.7716 -0.8841
  173MOL0     H22788   4.603   9.261   0.806  0.6150 -0.4317 -3.2604
  173MOL0     H22789   4.832   9.571   0.677 -0.1123  0.6182 -1.7344
  173MOL0     H22790   4.766   9.792   0.564  0.4522  0.8361  2.5204
  173MOL0     H22791   4.652   9.860   0.673  0.1044  0.1165  0.1055
  173MOL0     H22792   4.519   9.768   0.446 -0.8920 -0.1739 -0.1075
  173MOL0     H22793   4.666   9.850   0.389 -0.6433 -0.7885  0.4623
  173MOL0     H22794   4.508  10.013   0.392  3.3073  1.1744 -0.9371
  173MOL0     H22795   4.445   9.972   0.558 -0.6446  0.8570 -0.1808
  173MOL0     H22796   4.686  10.130   0.458  0.0095 -0.7674 -1.0895
  173MOL0     H22797   4.709  10.052   0.621  0.2040  1.7747  1.9329
  173MOL0     H22798   4.607  10.389   0.469 -0.2986  3.5679 -0.9279
  173MOL0     H22799   4.700  10.608   0.534  0.1473 -0.9532  0.2737
  173MOL0     H22800   4.722  10.970   0.662  0.8942  1.4895  0.4196
  173MOL0     H22801   4.833  11.196   0.661  2.9506  1.0163 -2.6100
  173MOL0     H22802   5.110  11.420   0.744  1.3606  0.0150 -1.4587
  173MOL0     H22803   4.942  11.353   0.771  0.6101 -0.9285  0.3798
  173MOL0     H22804   4.930  11.505   0.582 -1.6233 -0.8370  3.5335
  173MOL0     H22805   4.943  11.350   0.500  0.1952 -0.0696  1.4282
  173MOL0     H22806   5.184  11.359   0.480  1.3022  1.4342 -0.9450
  173MOL0     H22807   5.190  11.511   0.549  1.1125  0.6494 -2.1993
  173MOL0     H22808   5.171  11.511   0.278 -0.2992  0.2961 -0.6680
  173MOL0     H22809   4.996  11.461   0.316 -0.8611  1.5833 -0.4079
  173MOL0     H22810   5.139  11.713   0.378 -0.1298  1.9419 -1.6876
  173MOL0     H22811   4.966  11.686   0.419 -0.9799  0.3799  0.3119
  173MOL0     H22812   4.921  11.666   0.178  1.0515 -2.2072 -1.2443
  173MOL0     H22813   5.101  11.668   0.153  0.3648  1.5280 -1.0096
  173MOL0     H22814   5.130  11.896   0.255 -2.0868  1.7325  1.9087
  173MOL0     H22815   5.033  11.899   0.102 -1.6568 -0.3054 -0.2773
  173MOL0     H22816   4.956  12.051   0.284  2.0099 -0.3208  1.5974
  173MOL0     H22817   4.917  11.911   0.384 -0.6270 -1.4775 -0.4291
  173MOL0     H22818   5.215  11.017   0.653 -0.1413  0.8038  2.5769
  173MOL0     H22819   5.100  10.780   0.647  1.0183  0.1469  1.9265
  173MOL0     H22820   4.775  10.454   0.923 -0.2918 -2.0728 -0.7435
  173MOL0     H22821   4.646  10.239   0.862  3.2401 -0.9941 -0.1543
  173MOL0     H22822   4.795   8.310   1.017  0.7665 -0.3054  0.0330
  173MOL0     H22823   4.975   8.137   1.054 -0.0937 -0.5969 -0.2909
  173MOL0     H22824   5.212   7.888   1.495  0.1359  1.2539 -0.4388
  173MOL0     H22825   5.395   7.709   1.486  1.1941  0.9473  0.0056
  173MOL0     H22826   5.752   7.817   1.283 -0.8013  0.3899  1.2077
  173MOL0     H22827   5.701   7.742   1.136  2.5821  2.2143 -0.5862
  173MOL0     H22828   5.805   7.585   1.376 -1.2199  0.7723  0.8264
  173MOL0     H22829   5.795   7.538   1.206  5.6197  1.0194 -3.2100
  173MOL0     H22830   6.022   7.585   1.285  1.6076  0.9840 -0.1739
  173MOL0     H22831   5.978   7.756   1.313 -0.4385  2.5049 -2.3654
  173MOL0     H22832   6.084   7.678   1.087 -0.3472 -2.9194  0.1649
  173MOL0     H22833   5.926   7.634   1.026 -2.2024  2.2137 -1.9038
  173MOL0     H22834   5.959   8.061   1.026 -2.2447  0.6133  0.6424
  173MOL0     H22835   5.560   7.879   1.142 -0.7799  0.7067 -0.8757
  173MOL0     H22836   5.370   8.046   1.127 -1.3463 -0.1095  0.3008
  174MOL0     O22837   2.622   1.913   4.048  0.0791  0.3229  0.1208
  174MOL0     C22838   2.562   1.954   3.952  0.6975 -1.6467 -0.0511
  174MOL0     O22839   2.600   2.050   3.865 -0.8597  0.2621  0.4298
  174MOL0     C22840   2.730   2.105   3.862 -0.1878 -0.1509  0.1228
  174MOL0     C22841   2.844   2.028   3.844 -0.1001 -0.3764 -0.9033
  174MOL0     C22842   2.975   2.079   3.825 -0.0374 -0.5707 -0.2709
  174MOL0     C22843   2.996   2.216   3.834  0.0912 -1.2268  0.0692
  174MOL0     O22844   3.111   2.292   3.808  0.7053 -0.0834 -0.2459
  174MOL0     C22845   3.226   2.224   3.762 -0.0084 -0.4757  0.6572
  174MOL0     C22846   3.295   2.328   3.663  0.3595  0.1661  0.2883
  174MOL0     C22847   3.438   2.277   3.630  1.7468  0.3440  0.1171
  174MOL0     C22848   3.495   2.336   3.515  0.0203  0.1762 -0.1957
  174MOL0     C22849   3.638   2.300   3.496  0.4885 -0.1291 -0.6116
  174MOL0     C22850   3.709   2.371   3.382 -0.2602  0.3231  0.6501
  174MOL0     C22851   3.859   2.328   3.375 -0.5567  0.6693  0.8012
  174MOL0     C22852   3.938   2.419   3.285  0.5049  0.0994  0.2182
  174MOL0     N22853   4.079   2.388   3.289 -0.3321  0.7540  0.0244
  174MOL0     C22854   4.154   2.362   3.403 -0.3308  0.5667 -0.8760
  174MOL0     C22855   4.267   2.289   3.371 -0.1967 -0.3942  0.0484
  174MOL0     C22856   4.390   2.256   3.459  0.3133 -0.4037 -0.5363
  174MOL0     C22857   4.375   2.136   3.542  0.7191  0.2853  0.2599
  174MOL0     C22858   4.364   2.006   3.462  0.0543  0.6792  0.4191
  174MOL0     C22859   4.493   1.966   3.383  1.9632 -0.3298 -0.6278
  174MOL0     O22860   4.603   1.960   3.473 -0.1282 -0.4530  0.0510
  174MOL0     C22861   4.722   1.926   3.425  0.2490 -0.1969 -0.6284
  174MOL0     C22862   4.768   1.920   3.292  0.7883 -0.4639 -0.0369
  174MOL0     C22863   4.898   1.887   3.257  0.0978  0.0732  0.1730
  174MOL0     C22864   4.987   1.825   3.341  0.1881  0.0794  0.9607
  174MOL0     C22865   5.119   1.772   3.298 -0.1773  0.1790 -0.4408
  174MOL0     O22866   5.126   1.763   3.162  0.0732  0.2324  0.0882
  174MOL0     C22867   5.243   1.710   3.121  0.5310 -0.4220  0.0171
  174MOL0     C22868   5.361   1.780   3.132 -0.3202 -0.8964 -0.1334
  174MOL0     C22869   5.477   1.714   3.083 -0.2369  0.2570 -0.4480
  174MOL0     C22870   5.479   1.582   3.044 -0.2224 -0.7351 -0.2390
  174MOL0     O22871   5.593   1.526   3.000 -0.5988  0.1845 -0.2754
  174MOL0     C22872   5.671   1.598   2.897 -0.0221  0.0601 -0.1733
  174MOL0     C22873   5.604   1.564   2.756  0.8613 -0.3123 -0.1842
  174MOL0     C22874   5.582   1.421   2.712  0.8699  0.1433 -0.5704
  174MOL0     C22875   5.717   1.344   2.694  0.0272  0.2735  0.2615
  174MOL0     C22876   5.710   1.195   2.726  0.3834 -0.5160  0.0916
  174MOL0     C22877   5.732   1.163   2.873 -0.1486  0.7135 -0.1785
  174MOL0     C22878   5.725   1.021   2.903 -0.4814 -0.3385  0.4260
  174MOL0     C22879   5.707   0.978   3.054 -1.6978  0.1869  0.1968
  174MOL0    Cl22880   5.561   1.035   3.139 -0.0972 -0.0131 -0.3599
  174MOL0     C22881   5.356   1.507   3.037  0.0986 -0.1945  0.1225
  174MOL0     C22882   5.242   1.573   3.071  0.1196 -0.2253  0.7643
  174MOL0     O22883   5.207   1.738   3.378 -0.9455 -0.5383  0.2606
  174MOL0     C22884   4.947   1.817   3.476 -0.5659  0.3461  0.2590
  174MOL0     C22885   4.822   1.864   3.511  0.5700 -0.3814 -0.5816
  174MOL0     N22886   4.260   2.283   3.227 -0.4501 -0.3209 -0.3796
  174MOL0     N22887   4.147   2.327   3.183 -0.2827 -0.5680  1.0710
  174MOL0     C22888   2.885   2.298   3.861 -0.8945  0.1334 -0.0340
  174MOL0     C22889   2.755   2.241   3.866  0.9041 -0.2534  0.0510
  174MOL0     C22890   2.435   1.878   3.914 -0.5549  0.3429  0.6715
  174MOL0     C22891   2.331   1.959   3.858 -0.6595  0.0441  0.2552
  174MOL0     C22892   2.217   1.896   3.799 -0.6587 -0.2808  1.4524
  174MOL0     C22893   2.210   1.755   3.812 -0.0362 -0.3619  0.3461
  174MOL0     O22894   2.114   1.682   3.747 -0.1124  0.2667 -0.5439
  174MOL0     C22895   2.009   1.739   3.667  0.7922 -1.0293 -0.1057
  174MOL0     C22896   1.906   1.638   3.620  1.0158  0.6920  0.4028
  174MOL0     C22897   1.793   1.621   3.712 -0.3494  0.6123 -0.4255
  174MOL0     C22898   1.822   1.528   3.840 -0.1903 -0.7096  0.3569
  174MOL0     C22899   1.706   1.544   3.937 -0.6227 -0.9136 -0.0451
  174MOL0     C22900   1.614   1.572   4.013  0.1937  0.1748  0.9742
  174MOL0     C22901   2.305   1.682   3.873  0.1934 -0.1051 -0.0897
  174MOL0     C22902   2.424   1.740   3.925  0.9401  0.8014 -0.1235
  174MOL0     H22903   2.836   1.920   3.847 -0.0920 -0.3544  0.0064
  174MOL0     H22904   3.053   2.004   3.817  0.2621 -0.3213  0.2256
  174MOL0     H22905   3.198   2.131   3.713 -0.0394 -0.2645  0.2692
  174MOL0     H22906   3.303   2.204   3.837 -0.0116  2.1436  1.4814
  174MOL0     H22907   3.291   2.433   3.691 -1.8875  0.0315  0.7042
  174MOL0     H22908   3.240   2.326   3.568 -0.1158  0.1096  0.5569
  174MOL0     H22909   3.438   2.170   3.607 -2.2187  0.6603 -2.1823
  174MOL0     H22910   3.496   2.303   3.719  2.1542 -2.4728  0.7892
  174MOL0     H22911   3.435   2.311   3.427  0.3621  1.8202 -0.9301
  174MOL0     H22912   3.475   2.441   3.538  3.8548  0.4482  2.9594
  174MOL0     H22913   3.649   2.191   3.496  0.2886 -0.1556  0.3560
  174MOL0     H22914   3.697   2.323   3.585  1.6605 -1.2379 -1.0616
  174MOL0     H22915   3.715   2.475   3.414 -0.5088  0.0295  1.6981
  174MOL0     H22916   3.661   2.359   3.284  1.6015  0.0212 -0.2747
  174MOL0     H22917   3.900   2.331   3.477  0.3487 -1.9012  0.6072
  174MOL0     H22918   3.862   2.225   3.338 -0.6471  0.9771 -0.0840
  174MOL0     H22919   3.924   2.520   3.324  0.1183  0.9975 -2.0561
  174MOL0     H22920   3.899   2.426   3.183  3.5193  3.2346 -0.8862
  174MOL0     H22921   4.144   2.402   3.503  1.5365  1.7654 -1.1262
  174MOL0     H22922   4.413   2.328   3.538  1.3165 -3.2923  2.0475
  174MOL0     H22923   4.479   2.247   3.397 -1.0640 -0.4830 -2.5929
  174MOL0     H22924   4.286   2.152   3.603 -0.2765  1.7605 -1.4808
  174MOL0     H22925   4.451   2.120   3.619 -0.3400  0.2405  1.3218
  174MOL0     H22926   4.346   1.923   3.531  0.3985 -1.5077 -2.0011
  174MOL0     H22927   4.277   2.009   3.395  0.6414 -1.4869 -0.5272
  174MOL0     H22928   4.520   2.049   3.318  0.8418 -0.2287 -0.9862
  174MOL0     H22929   4.491   1.874   3.324 -1.5757  0.6318 -2.2753
  174MOL0     H22930   4.716   1.953   3.202  0.4343  2.0068  0.9795
  174MOL0     H22931   4.929   1.898   3.154 -2.1039  0.3825 -0.4988
  174MOL0     H22932   5.370   1.876   3.181 -0.0560 -1.8781  1.8183
  174MOL0     H22933   5.568   1.774   3.077  0.5591 -1.0749 -3.2524
  174MOL0     H22934   5.775   1.563   2.901 -0.1266 -0.2986 -0.4860
  174MOL0     H22935   5.681   1.704   2.919  5.2648 -0.5700  2.0768
  174MOL0     H22936   5.664   1.615   2.680  1.9809 -0.3155  0.6629
  174MOL0     H22937   5.506   1.613   2.752  1.0082  0.0785  0.7924
  174MOL0     H22938   5.526   1.412   2.618  0.3195 -1.6848 -0.0983
  174MOL0     H22939   5.526   1.367   2.789 -0.0040 -2.6383 -2.9420
  174MOL0     H22940   5.736   1.339   2.586 -0.8722 -2.5897  0.1457
  174MOL0     H22941   5.795   1.399   2.746 -0.3433  1.6057 -0.5274
  174MOL0     H22942   5.787   1.146   2.666  0.0839 -1.3493  0.3814
  174MOL0     H22943   5.618   1.146   2.692 -2.0266  4.4008 -1.5335
  174MOL0     H22944   5.654   1.204   2.937  1.5929 -0.8917  3.2116
  174MOL0     H22945   5.832   1.199   2.899 -0.1056  0.9515 -0.6572
  174MOL0     H22946   5.635   0.986   2.850 -1.7765  1.4361  1.3480
  174MOL0     H22947   5.816   0.983   2.855  0.2055  1.8874 -0.1456
  174MOL0     H22948   5.795   1.016   3.108  0.0134 -3.4526  0.2769
  174MOL0     H22949   5.707   0.870   3.069 -0.1563  0.2021  0.4529
  174MOL0     H22950   5.363   1.402   3.008 -2.5714 -0.9417  1.8729
  174MOL0     H22951   5.147   1.521   3.070 -0.0101  0.0128  0.7376
  174MOL0     H22952   5.018   1.784   3.551  1.4328  0.9691 -1.2604
  174MOL0     H22953   4.787   1.858   3.613 -2.4101  4.2683 -1.0276
  174MOL0     H22954   2.905   2.404   3.851 -1.6006  0.3142  0.4205
  174MOL0     H22955   2.667   2.304   3.866  0.8962 -0.1280 -2.5709
  174MOL0     H22956   2.330   2.067   3.852  3.5235  0.1766 -2.7243
  174MOL0     H22957   2.139   1.950   3.747  2.5330  0.5442 -3.1592
  174MOL0     H22958   2.061   1.783   3.581 -2.1485  0.9260 -1.0569
  174MOL0     H22959   1.967   1.822   3.725 -0.4470  0.0689 -2.4176
  174MOL0     H22960   1.859   1.692   3.537 -0.4837  2.3591  2.2422
  174MOL0     H22961   1.939   1.538   3.588 -1.7247  0.2924 -1.4979
  174MOL0     H22962   1.723   1.559   3.655 -0.8310 -0.3263  1.1166
  174MOL0     H22963   1.747   1.713   3.747 -0.7494 -0.8533  3.3832
  174MOL0     H22964   1.826   1.424   3.806 -0.1333  0.1620 -2.5614
  174MOL0     H22965   1.915   1.552   3.893 -0.2730 -0.3765  0.3494
  174MOL0     H22966   1.536   1.603   4.079 -0.6239 -1.4457  0.8071
  174MOL0     H22967   2.290   1.574   3.871  1.0931 -0.2515  0.7851
  174MOL0     H22968   2.504   1.675   3.959  0.7396 -3.5316 -6.2797
  175MOL0     O22969   3.202   9.272   5.365  0.5122 -0.2516 -0.2020
  175MOL0     C22970   3.167   9.320   5.251 -0.0687  0.5116 -0.9878
  175MOL0     O22971   3.255   9.344   5.149  0.8946 -0.0081 -0.4051
  175MOL0     C22972   3.389   9.319   5.158 -0.5722  0.0368 -0.0420
  175MOL0     C22973   3.471   9.376   5.256 -0.3935  1.4145  0.0726
  175MOL0     C22974   3.607   9.364   5.235  0.4362 -0.3206 -0.4720
  175MOL0     C22975   3.665   9.301   5.130 -0.3931 -0.6076  0.1511
  175MOL0     O22976   3.800   9.287   5.098 -0.2174  0.2591 -0.5880
  175MOL0     C22977   3.891   9.219   5.192 -0.0340 -0.5306  1.0143
  175MOL0     C22978   3.845   9.092   5.256  0.4514 -0.0789 -0.0823
  175MOL0     C22979   3.765   9.122   5.394 -1.1399 -0.7602  0.8643
  175MOL0     C22980   3.722   9.003   5.464  0.5646 -0.0201  0.0942
  175MOL0     C22981   3.632   9.038   5.586 -0.6156 -0.0966 -0.5166
  175MOL0     C22982   3.490   9.107   5.573  0.8259 -0.3849 -0.3700
  175MOL0     C22983   3.392   9.093   5.688  0.6422 -0.0794 -0.5131
  175MOL0     C22984   3.311   8.956   5.696 -0.1620 -0.5145 -0.2814
  175MOL0     N22985   3.202   8.968   5.793  0.4699  0.8512  0.1663
  175MOL0     C22986   3.088   9.047   5.774  0.8522  0.8009  0.1126
  175MOL0     C22987   3.008   9.006   5.875 -0.2357 -0.2056  1.1228
  175MOL0     C22988   2.866   9.047   5.888 -0.1733  0.8139 -0.0032
  175MOL0     C22989   2.788   9.098   5.762  0.3796  0.1705  0.0823
  175MOL0     C22990   2.642   9.129   5.792 -0.5772  0.8217 -0.0152
  175MOL0     C22991   2.564   9.193   5.676 -0.6012 -0.6878 -0.0414
  175MOL0     O22992   2.422   9.199   5.704  0.4081  0.0711 -0.9477
  175MOL0     C22993   2.340   9.094   5.683  0.3251  0.0974  0.2404
  175MOL0     C22994   2.370   8.958   5.653 -0.4881 -0.9906  0.0943
  175MOL0     C22995   2.262   8.879   5.626  0.8692  0.3330 -0.9614
  175MOL0     C22996   2.132   8.916   5.635 -0.3053  1.3979  0.1507
  175MOL0     C22997   2.030   8.808   5.606 -0.0097 -0.5221 -0.0012
  175MOL0     O22998   1.905   8.837   5.658 -0.1256 -0.1660 -0.1185
  175MOL0     C22999   1.797   8.769   5.618 -1.1417  0.7976 -0.6024
  175MOL0     C23000   1.776   8.760   5.479  0.0787  0.7232  0.3977
  175MOL0     C23001   1.675   8.684   5.427  0.4324 -0.9465 -0.4337
  175MOL0     C23002   1.592   8.606   5.510 -0.3335  0.3831 -0.0829
  175MOL0     O23003   1.501   8.515   5.455 -0.5183 -0.3969  0.5200
  175MOL0     C23004   1.433   8.555   5.329 -0.0832  0.2438 -0.1968
  175MOL0     C23005   1.318   8.459   5.312 -0.0924 -0.5102  0.1212
  175MOL0     C23006   1.213   8.472   5.429  0.4394  1.1114 -0.4563
  175MOL0     C23007   1.074   8.412   5.380  0.4991 -0.2156  0.4037
  175MOL0     C23008   0.983   8.338   5.476  0.8234  0.5840 -0.3371
  175MOL0     C23009   0.970   8.375   5.623 -0.5590 -0.4174  0.3149
  175MOL0     C23010   0.961   8.527   5.637 -0.8663 -0.1788  0.4970
  175MOL0     C23011   0.823   8.572   5.681  0.1339 -0.2767 -0.6100
  175MOL0    Cl23012   0.712   8.535   5.541 -0.2212  0.1296 -0.2366
  175MOL0     C23013   1.603   8.622   5.649  0.2181  0.7122 -0.0673
  175MOL0     C23014   1.715   8.696   5.703  0.6625  0.2595 -0.6787
  175MOL0     O23015   2.061   8.705   5.546 -0.1330 -0.2457  0.6077
  175MOL0     C23016   2.105   9.047   5.673  0.5465 -0.3159  0.5945
  175MOL0     C23017   2.206   9.133   5.691  0.7103 -0.3096  0.0598
  175MOL0     N23018   3.073   8.925   5.961 -0.0076 -0.0529 -0.0656
  175MOL0     N23019   3.185   8.890   5.906 -0.2780  0.0499  0.1766
  175MOL0     C23020   3.585   9.232   5.042 -0.4451 -1.1406  0.6881
  175MOL0     C23021   3.450   9.243   5.056 -0.1762 -0.8143  0.8770
  175MOL0     C23022   3.026   9.354   5.229  0.5599 -0.0761 -0.4397
  175MOL0     C23023   2.977   9.336   5.100 -0.1058 -0.5428  0.2281
  175MOL0     C23024   2.841   9.357   5.071 -0.1120 -1.1518 -0.6349
  175MOL0     C23025   2.751   9.388   5.176 -0.8356 -0.7688 -0.2208
  175MOL0     O23026   2.616   9.392   5.162  0.5802  0.3467  0.6235
  175MOL0     C23027   2.565   9.405   5.019 -0.1981 -0.1272 -0.3227
  175MOL0     C23028   2.591   9.547   4.971 -1.0216  0.2056  0.1815
  175MOL0     C23029   2.546   9.657   5.082  0.9941  0.3520 -0.5959
  175MOL0     C23030   2.577   9.796   5.031  0.4094  0.9149  0.0969
  175MOL0     C23031   2.526   9.889   5.134 -0.0804 -0.3664 -0.4609
  175MOL0     C23032   2.496   9.962   5.226  0.9346 -0.1538 -0.2859
  175MOL0     C23033   2.801   9.402   5.302  0.2656 -0.2637  0.5562
  175MOL0     C23034   2.936   9.384   5.329 -0.6267  0.1442 -0.5515
  175MOL0     H23035   3.426   9.435   5.335 -5.3082  2.0418 -2.8116
  175MOL0     H23036   3.663   9.401   5.320 -4.1447  2.9281  1.5072
  175MOL0     H23037   3.928   9.280   5.275  2.4356 -0.9046  0.2654
  175MOL0     H23038   3.984   9.201   5.138 -0.1605 -2.0418  1.2318
  175MOL0     H23039   3.935   9.031   5.268  1.3991  1.2983  0.1345
  175MOL0     H23040   3.780   9.035   5.189  0.7548 -1.2602  0.6160
  175MOL0     H23041   3.674   9.178   5.372  0.2146  1.3655  0.3273
  175MOL0     H23042   3.830   9.181   5.460  0.5541 -1.0834 -0.4359
  175MOL0     H23043   3.665   8.941   5.395 -0.7981 -1.1348  2.1231
  175MOL0     H23044   3.819   8.967   5.501  1.0059 -0.1496 -1.1608
  175MOL0     H23045   3.695   9.093   5.657 -0.7641  0.6983 -0.9854
  175MOL0     H23046   3.608   8.940   5.628 -0.0367  0.6256  1.6435
  175MOL0     H23047   3.429   9.067   5.492 -1.8158  1.1050  0.7373
  175MOL0     H23048   3.521   9.211   5.559  1.1875 -0.5163 -0.5498
  175MOL0     H23049   3.434   9.111   5.787 -1.4368  1.2987  0.1976
  175MOL0     H23050   3.319   9.174   5.679  0.0917 -0.1348  2.4680
  175MOL0     H23051   3.377   8.871   5.711 -1.7648 -2.0609 -1.5068
  175MOL0     H23052   3.257   8.942   5.602  0.3708 -2.4591 -0.3264
  175MOL0     H23053   3.075   9.121   5.696  3.8015  1.5869  0.2553
  175MOL0     H23054   2.851   9.112   5.975  0.5478 -1.4979  1.9498
  175MOL0     H23055   2.825   8.949   5.914  0.7169  0.5031  0.2697
  175MOL0     H23056   2.791   9.032   5.674 -0.2469 -0.7677  0.7501
  175MOL0     H23057   2.833   9.187   5.717  0.2645 -0.0107 -0.3970
  175MOL0     H23058   2.606   9.031   5.822  1.1336  1.2384  4.1763
  175MOL0     H23059   2.629   9.190   5.882 -0.9487  2.8191 -1.3503
  175MOL0     H23060   2.589   9.132   5.589  0.8356 -2.4585  1.5352
  175MOL0     H23061   2.602   9.294   5.656 -1.7239 -0.0026  1.1601
  175MOL0     H23062   2.474   8.928   5.652 -0.1909 -0.2890  2.7082
  175MOL0     H23063   2.289   8.780   5.590  3.4319  0.0385  1.4368
  175MOL0     H23064   1.841   8.814   5.411 -0.9430 -0.1322 -1.3200
  175MOL0     H23065   1.666   8.668   5.320 -0.8817  4.6427 -1.4793
  175MOL0     H23066   1.501   8.547   5.243  0.5176  2.8453 -0.0591
  175MOL0     H23067   1.397   8.658   5.329  0.3269  0.4231  1.3628
  175MOL0     H23068   1.362   8.359   5.306 -0.8941 -0.7981 -1.2614
  175MOL0     H23069   1.259   8.477   5.222  0.0481  0.5174  0.2138
  175MOL0     H23070   1.206   8.581   5.433  1.3096  1.1338  2.2860
  175MOL0     H23071   1.248   8.427   5.522  2.5151  2.5927 -0.4449
  175MOL0     H23072   1.006   8.481   5.329 -0.3210 -2.1557 -1.2015
  175MOL0     H23073   1.100   8.339   5.303  0.6693 -0.3048  0.5432
  175MOL0     H23074   1.005   8.231   5.485 -2.3643 -0.0177  1.8201
  175MOL0     H23075   0.880   8.338   5.442  0.0963 -1.4582  1.5580
  175MOL0     H23076   1.065   8.338   5.661  0.7472  1.4190 -0.9549
  175MOL0     H23077   0.884   8.334   5.675 -0.5692  0.7936  1.3091
  175MOL0     H23078   1.025   8.561   5.719 -1.1321  0.4432  0.4557
  175MOL0     H23079   0.995   8.578   5.546  2.3051 -0.5068  1.4169
  175MOL0     H23080   0.832   8.674   5.717  1.6052  0.2908 -2.4370
  175MOL0     H23081   0.797   8.510   5.767 -0.5595 -0.8234 -1.1873
  175MOL0     H23082   1.529   8.577   5.714  1.0985  0.7740  1.0124
  175MOL0     H23083   1.727   8.699   5.810 -0.7761  0.7432 -0.5129
  175MOL0     H23084   2.005   9.084   5.693 -0.6549 -2.1176 -1.7004
  175MOL0     H23085   2.193   9.237   5.720  4.0871  0.0151  0.8952
  175MOL0     H23086   3.632   9.164   4.971  0.4703  0.3160 -0.1357
  175MOL0     H23087   3.386   9.183   4.993 -1.5703 -0.4379  1.8832
  175MOL0     H23088   3.044   9.300   5.022 -1.5903  2.1539 -2.5064
  175MOL0     H23089   2.818   9.337   4.967 -0.1164  1.7994 -1.2945
  175MOL0     H23090   2.456   9.395   5.026 -0.0928 -0.3225  1.3378
  175MOL0     H23091   2.610   9.334   4.949  3.0816  0.4769  0.9901
  175MOL0     H23092   2.699   9.551   4.956 -0.0826  0.1391  5.2668
  175MOL0     H23093   2.531   9.569   4.882 -1.9516 -0.3900  0.6358
  175MOL0     H23094   2.587   9.626   5.179 -2.8150 -3.9860 -0.0265
  175MOL0     H23095   2.441   9.646   5.109  0.6274 -0.1005 -2.0969
  175MOL0     H23096   2.687   9.799   5.029  0.5354 -1.7483 -0.7826
  175MOL0     H23097   2.531   9.811   4.933 -0.6929  1.4321  0.6808
  175MOL0     H23098   2.485  10.036   5.303  0.1846  0.1059 -0.6381
  175MOL0     H23099   2.735   9.420   5.387 -1.8005  1.6132 -1.3224
  175MOL0     H23100   2.982   9.397   5.427 -2.0629  0.6831  0.0879
  176MOL0     O23101   0.458   2.333   0.014 -0.4813 -0.0788  0.1487
  176MOL0     C23102   0.466   2.386   0.126  0.1310  0.6884 -0.4939
  176MOL0     O23103   0.577   2.446   0.180 -0.1176  0.7084 -0.9574
  176MOL0     C23104   0.697   2.424   0.118 -0.0302 -0.7780 -0.5403
  176MOL0     C23105   0.729   2.505   0.014 -0.0911  0.1446  0.0600
  176MOL0     C23106   0.848   2.502  -0.058 -0.9579  0.6602  0.0813
  176MOL0     C23107   0.939   2.406  -0.024 -0.4586  0.1045  0.7966
  176MOL0     O23108   1.043   2.377  -0.112 -0.0016  0.1289 -0.5888
  176MOL0     C23109   1.116   2.496  -0.143  0.2101 -0.2223  0.4943
  176MOL0     C23110   1.251   2.458  -0.191 -0.3822 -0.2209 -1.1509
  176MOL0     C23111   1.347   2.570  -0.196 -0.3104 -0.9589 -0.8018
  176MOL0     C23112   1.361   2.661  -0.064  0.3188  0.2605 -0.1046
  176MOL0     C23113   1.416   2.592   0.061  0.8170  0.3866  1.0612
  176MOL0     C23114   1.363   2.668   0.187  0.2628  0.4050 -0.2739
  176MOL0     C23115   1.409   2.585   0.298 -0.0777 -0.8694 -0.0588
  176MOL0     C23116   1.368   2.643   0.430  0.4026 -0.3256 -0.6090
  176MOL0     N23117   1.225   2.654   0.444  0.6081 -0.3469  0.5151
  176MOL0     C23118   1.127   2.552   0.445  0.0858  0.1021  0.1990
  176MOL0     C23119   1.003   2.617   0.443 -0.8025  0.0925  1.4010
  176MOL0     C23120   0.871   2.541   0.429  0.2604  0.0200 -0.1506
  176MOL0     C23121   0.744   2.624   0.436  0.1465 -0.8134 -0.1006
  176MOL0     C23122   0.736   2.707   0.565  0.3428  0.2033  0.1303
  176MOL0     C23123   0.598   2.745   0.602 -0.1216  0.2993  0.0716
  176MOL0     O23124   0.534   2.622   0.642  0.4226  0.5100  0.1728
  176MOL0     C23125   0.417   2.627   0.714  0.4315 -1.1976  0.2979
  176MOL0     C23126   0.352   2.503   0.754 -1.0313  0.0472 -0.6319
  176MOL0     C23127   0.221   2.505   0.818  0.0115  0.2677  0.6977
  176MOL0     C23128   0.148   2.623   0.838  0.4825 -0.6874 -0.3824
  176MOL0     C23129   0.012   2.620   0.896 -0.0292 -0.5903  0.5580
  176MOL0     O23130  -0.044   2.744   0.916  0.0746 -0.4060 -0.3379
  176MOL0     C23131  -0.171   2.752   0.976 -0.1173  0.0732  0.0040
  176MOL0     C23132  -0.270   2.658   0.950  0.1167 -0.0733  0.4511
  176MOL0     C23133  -0.401   2.664   0.997  0.5537 -1.4395 -0.1850
  176MOL0     C23134  -0.436   2.768   1.081 -0.7117 -0.1172  0.0693
  176MOL0     O23135  -0.557   2.752   1.142  0.4608  0.9840  0.9395
  176MOL0     C23136  -0.583   2.850   1.235 -0.2227 -0.2059 -0.2135
  176MOL0     C23137  -0.706   2.816   1.315  1.0966 -0.5922  0.0241
  176MOL0     C23138  -0.830   2.853   1.232  0.0782  0.6034  1.1956
  176MOL0     C23139  -0.964   2.824   1.291 -0.0754  0.2634 -0.6080
  176MOL0     C23140  -0.988   2.665   1.295  0.7568 -0.8472 -0.8191
  176MOL0     C23141  -1.120   2.602   1.342 -0.1651 -0.6437 -0.5301
  176MOL0     C23142  -1.165   2.632   1.485 -0.1729 -0.3926 -0.4860
  176MOL0     C23143  -1.055   2.602   1.576  0.8394  0.1421 -0.3753
  176MOL0    Cl23144  -1.140   2.584   1.735  0.4269  0.1174 -0.1341
  176MOL0     C23145  -0.333   2.873   1.103  0.3306 -1.0562  0.3565
  176MOL0     C23146  -0.205   2.868   1.051 -0.1232  0.0596  0.5775
  176MOL0     O23147  -0.029   2.512   0.939 -0.0318 -0.3563 -0.2867
  176MOL0     C23148   0.214   2.745   0.794 -0.1447 -0.0924 -0.0403
  176MOL0     C23149   0.344   2.749   0.738  0.5904 -0.2041 -0.0531
  176MOL0     N23150   1.030   2.758   0.434 -0.2491  0.3010 -0.7980
  176MOL0     N23151   1.160   2.774   0.430 -0.3601 -0.5697  0.3399
  176MOL0     C23152   0.903   2.314   0.081  0.7043 -0.1455 -0.6756
  176MOL0     C23153   0.785   2.322   0.148  0.5449  0.0246  0.3127
  176MOL0     C23154   0.340   2.391   0.202  0.0601 -1.1203 -0.2550
  176MOL0     C23155   0.218   2.366   0.142  0.1152 -0.2224  0.8720
  176MOL0     C23156   0.093   2.381   0.219 -0.2347  0.4564  0.2178
  176MOL0     C23157   0.098   2.423   0.352 -0.5331  0.1488 -0.2048
  176MOL0     O23158  -0.023   2.429   0.419  0.5034  0.4899  0.4311
  176MOL0     C23159  -0.032   2.490   0.553 -0.2788  0.2490  0.0778
  176MOL0     C23160  -0.189   2.515   0.580  0.2894  0.3419 -0.7547
  176MOL0     C23161  -0.281   2.395   0.575 -0.8959  0.5275 -0.6976
  176MOL0     C23162  -0.428   2.432   0.576 -0.0932 -1.0337 -0.7928
  176MOL0     C23163  -0.500   2.322   0.523  0.7420 -0.6467  0.1835
  176MOL0     C23164  -0.579   2.239   0.482  0.3256 -0.2524  0.5266
  176MOL0     C23165   0.227   2.454   0.409 -0.0553  0.7896 -0.9989
  176MOL0     C23166   0.344   2.434   0.337 -0.1819  0.3595  0.4461
  176MOL0     H23167   0.670   2.594  -0.009  2.9503  1.7937 -2.1947
  176MOL0     H23168   0.865   2.587  -0.124  0.6542  0.0761 -0.3032
  176MOL0     H23169   1.126   2.561  -0.056  2.0220 -2.1563  1.8200
  176MOL0     H23170   1.060   2.552  -0.219 -0.8003  0.8327  1.9682
  176MOL0     H23171   1.243   2.408  -0.288  1.7613 -3.5153  0.2120
  176MOL0     H23172   1.292   2.380  -0.127 -2.5400 -0.5422 -0.0653
  176MOL0     H23173   1.313   2.638  -0.274 -0.6173 -0.4757 -0.2575
  176MOL0     H23174   1.436   2.519  -0.233 -0.8871  0.6517 -4.8717
  176MOL0     H23175   1.434   2.742  -0.077  1.9775 -0.6573  2.6062
  176MOL0     H23176   1.268   2.711  -0.037  1.3798  1.6748  1.1264
  176MOL0     H23177   1.525   2.596   0.059  0.7756  2.1627 -0.1584
  176MOL0     H23178   1.371   2.492   0.058 -2.1004  1.5943  1.1967
  176MOL0     H23179   1.256   2.688   0.205  0.0057 -0.0565 -1.2191
  176MOL0     H23180   1.414   2.764   0.189  1.2512 -0.1159  1.3725
  176MOL0     H23181   1.372   2.483   0.288 -0.9553 -0.5231 -0.4082
  176MOL0     H23182   1.518   2.586   0.307 -0.2309  0.7271  4.5363
  176MOL0     H23183   1.423   2.738   0.435  1.1588 -0.7154 -1.1925
  176MOL0     H23184   1.407   2.588   0.515  1.4837 -0.6473 -1.2964
  176MOL0     H23185   1.162   2.449   0.450 -2.9852 -1.0662 -0.0676
  176MOL0     H23186   0.876   2.456   0.498 -1.5671  1.4739  1.9093
  176MOL0     H23187   0.868   2.494   0.330 -0.2272  0.6797 -0.4604
  176MOL0     H23188   0.655   2.560   0.428 -0.4699 -0.5344  3.1336
  176MOL0     H23189   0.749   2.688   0.347 -1.9372 -0.0085  0.2989
  176MOL0     H23190   0.772   2.650   0.651 -0.7314 -0.0885  0.4051
  176MOL0     H23191   0.802   2.794   0.552  2.0780 -1.0425  0.3093
  176MOL0     H23192   0.551   2.803   0.522  2.2916  1.2296 -0.7385
  176MOL0     H23193   0.593   2.819   0.682  1.1645  1.5270 -0.9487
  176MOL0     H23194   0.413   2.412   0.755 -2.4257 -0.9158 -0.7065
  176MOL0     H23195   0.177   2.413   0.854  0.8400 -0.6680 -0.5624
  176MOL0     H23196  -0.245   2.569   0.892  0.6232  1.3626 -1.6247
  176MOL0     H23197  -0.473   2.586   0.975 -1.4492  0.1432  0.4530
  176MOL0     H23198  -0.600   2.940   1.176  0.5160 -0.5167 -0.9188
  176MOL0     H23199  -0.499   2.860   1.305 -0.0501  0.0743 -0.4592
  176MOL0     H23200  -0.706   2.876   1.406 -1.1481 -1.2907  0.5443
  176MOL0     H23201  -0.697   2.709   1.337 -2.3561 -1.2007 -0.9350
  176MOL0     H23202  -0.811   2.795   1.141 -1.5383 -1.7695  2.2556
  176MOL0     H23203  -0.817   2.953   1.191  0.8800 -0.0284 -0.1595
  176MOL0     H23204  -0.979   2.858   1.394 -0.7753 -1.9146  0.0877
  176MOL0     H23205  -1.039   2.873   1.228  0.9330 -0.4122 -2.4044
  176MOL0     H23206  -0.904   2.630   1.355  0.3289 -1.0208 -0.3034
  176MOL0     H23207  -0.979   2.631   1.192 -1.0336 -1.2935 -0.8707
  176MOL0     H23208  -1.106   2.494   1.326  1.4988 -0.3206 -1.4603
  176MOL0     H23209  -1.200   2.639   1.277  0.6733  1.1242 -0.5888
  176MOL0     H23210  -1.193   2.736   1.502  0.0802 -0.6752  2.0108
  176MOL0     H23211  -1.250   2.567   1.507  0.0422  0.5077  3.8903
  176MOL0     H23212  -0.979   2.680   1.592 -1.7732  2.7245  0.3780
  176MOL0     H23213  -1.002   2.508   1.559 -0.9277 -0.9838  0.1145
  176MOL0     H23214  -0.360   2.947   1.177  0.8780 -1.4082  0.9233
  176MOL0     H23215  -0.132   2.945   1.073 -0.7438  0.7482  0.2670
  176MOL0     H23216   0.171   2.842   0.815  3.2925  1.3335  1.1729
  176MOL0     H23217   0.366   2.845   0.692 -1.9044  0.7877  0.6706
  176MOL0     H23218   0.967   2.226   0.095  0.4776 -0.1684  0.2722
  176MOL0     H23219   0.758   2.254   0.228 -1.8205  1.9834  1.2930
  176MOL0     H23220   0.206   2.324   0.043 -2.5739 -0.8780  1.3867
  176MOL0     H23221  -0.004   2.343   0.187 -0.5561  1.5075 -0.0821
  176MOL0     H23222   0.016   2.588   0.548  0.9963 -0.4141 -1.8460
  176MOL0     H23223   0.012   2.418   0.622 -1.8482 -0.0537  0.8078
  176MOL0     H23224  -0.196   2.556   0.681  0.3756  0.6668 -0.8797
  176MOL0     H23225  -0.226   2.594   0.514  0.6365 -0.0632 -1.4514
  176MOL0     H23226  -0.254   2.343   0.668 -1.3474  0.0941 -0.8052
  176MOL0     H23227  -0.249   2.333   0.491  1.7562 -1.4434  1.5605
  176MOL0     H23228  -0.476   2.460   0.670 -1.2111 -0.7081 -1.4442
  176MOL0     H23229  -0.450   2.517   0.510  1.3854 -0.0700 -0.0978
  176MOL0     H23230  -0.635   2.158   0.442  1.5424 -0.3834 -1.0007
  176MOL0     H23231   0.239   2.469   0.516  0.5714  0.9767 -1.0951
  176MOL0     H23232   0.433   2.464   0.391 -0.2700  3.6259 -0.9754
  177MOL0     O23233   0.421   8.497  11.252  0.3400 -0.7296 -0.3115
  177MOL0     C23234   0.442   8.591  11.331 -0.0334  0.5435  0.8852
  177MOL0     O23235   0.574   8.632  11.364 -0.2410  0.3413 -0.7222
  177MOL0     C23236   0.590   8.725  11.466 -1.0388  0.3056  0.1746
  177MOL0     C23237   0.675   8.840  11.445 -0.7832  1.1644  1.1384
  177MOL0     C23238   0.718   8.910  11.549 -0.0692 -0.6028 -0.4367
  177MOL0     C23239   0.682   8.887  11.680  0.5776  1.3418 -0.6548
  177MOL0     O23240   0.721   8.956  11.799 -0.2291  0.6895  0.5349
  177MOL0     C23241   0.792   9.079  11.774  0.1429  0.4135 -0.5688
  177MOL0     C23242   0.829   9.157  11.903 -0.4425  0.5124 -0.4262
  177MOL0     C23243   0.894   9.282  11.867 -0.2187 -0.0421 -0.5809
  177MOL0     C23244   0.801   9.384  11.799 -0.5676  0.7790  0.3445
  177MOL0     C23245   0.869   9.538  11.798  0.3033  1.4988  0.3459
  177MOL0     C23246   1.007   9.547  11.748 -0.0272  0.3638  0.3997
  177MOL0     C23247   1.068   9.677  11.786 -0.5786 -0.9792 -0.1385
  177MOL0     C23248   1.002   9.803  11.732 -0.5076 -0.6885  0.1046
  177MOL0     N23249   1.065   9.930  11.774  0.6379  0.1587 -0.2630
  177MOL0     C23250   1.175   9.979  11.721  0.3071 -0.2027  0.8371
  177MOL0     C23251   1.176  10.109  11.766  0.7071  0.0351  0.7310
  177MOL0     C23252   1.292  10.205  11.748  0.1519  0.1132 -0.0566
  177MOL0     C23253   1.305  10.252  11.605  0.4152  0.0203  1.1027
  177MOL0     C23254   1.439  10.321  11.567  1.0696 -0.9758 -0.4737
  177MOL0     C23255   1.482  10.429  11.659  0.2374  0.7559 -1.0336
  177MOL0     O23256   1.534  10.363  11.778  0.3522 -0.6380  0.3591
  177MOL0     C23257   1.550  10.439  11.890 -0.2105  0.4600  0.5794
  177MOL0     C23258   1.550  10.576  11.893  0.2709 -0.1048 -0.2761
  177MOL0     C23259   1.587  10.643  12.008  0.2343  0.5158 -1.2559
  177MOL0     C23260   1.615  10.574  12.131 -0.0374 -0.6444 -0.0286
  177MOL0     C23261   1.640  10.658  12.257 -0.6047  0.7375 -0.6914
  177MOL0     O23262   1.620  10.789  12.248  0.2996 -0.5956  0.4584
  177MOL0     C23263   1.644  10.872  12.356 -0.1935  0.5067 -0.4446
  177MOL0     C23264   1.549  10.944  12.421  0.0761 -1.0327 -0.1462
  177MOL0     C23265   1.585  11.022  12.531 -0.9922  0.3916 -0.0549
  177MOL0     C23266   1.727  11.053  12.566  0.8308 -0.3770 -0.0703
  177MOL0     O23267   1.756  11.133  12.680  0.4003 -0.1137 -0.4285
  177MOL0     C23268   1.845  11.238  12.651 -0.1374 -0.2558 -0.2439
  177MOL0     C23269   1.780  11.361  12.572  0.0344  0.0226  0.0613
  177MOL0     C23270   1.872  11.480  12.572 -0.6562  0.5913  0.8290
  177MOL0     C23271   1.986  11.472  12.477  1.3537  0.6711  0.4159
  177MOL0     C23272   2.080  11.589  12.481  0.0409 -0.8818  0.6464
  177MOL0     C23273   2.208  11.561  12.403 -0.4413  0.6737 -0.6881
  177MOL0     C23274   2.294  11.697  12.397 -0.3078 -1.5630  0.0821
  177MOL0     C23275   2.418  11.679  12.312 -0.2444 -0.2328 -0.4303
  177MOL0    Cl23276   2.505  11.539  12.359  0.1640  0.2251 -0.7433
  177MOL0     C23277   1.816  10.984  12.500 -0.0781  0.0449 -0.7676
  177MOL0     C23278   1.777  10.886  12.399 -0.4950  0.2574  0.0034
  177MOL0     O23279   1.661  10.598  12.358  0.1300 -1.2200  0.1151
  177MOL0     C23280   1.609  10.439  12.132  0.3548 -0.2538  0.6909
  177MOL0     C23281   1.582  10.370  12.004  0.7825 -0.5125 -1.2661
  177MOL0     N23282   1.063  10.139  11.840  0.6298  0.3152  0.9211
  177MOL0     N23283   0.995  10.034  11.842 -0.4422  0.0244 -0.2435
  177MOL0     C23284   0.600   8.771  11.705  0.2000  0.6273 -0.0697
  177MOL0     C23285   0.553   8.691  11.597  0.1255 -0.6578  0.2374
  177MOL0     C23286   0.317   8.664  11.370  0.1948  0.3638  0.7912
  177MOL0     C23287   0.307   8.798  11.368  0.2106  0.8318 -1.0471
  177MOL0     C23288   0.189   8.869  11.400 -0.6654 -0.4311  0.5568
  177MOL0     C23289   0.080   8.797  11.440 -0.4147  0.3991  0.0191
  177MOL0     O23290  -0.034   8.864  11.465 -0.2146  0.6528 -0.2146
  177MOL0     C23291  -0.080   8.976  11.384 -0.7844  0.0927 -0.2652
  177MOL0     C23292  -0.227   8.997  11.397 -0.1658  0.0664 -0.0159
  177MOL0     C23293  -0.291   8.866  11.349 -0.9206 -0.5480  1.3432
  177MOL0     C23294  -0.441   8.875  11.380  0.4007  0.0918 -0.1546
  177MOL0     C23295  -0.524   8.954  11.290  0.0234  0.3985  0.7088
  177MOL0     C23296  -0.588   9.033  11.223 -0.3368 -0.0563  0.2882
  177MOL0     C23297   0.082   8.656  11.432 -0.0259  0.2718 -0.5579
  177MOL0     C23298   0.200   8.590  11.402  0.0471  0.2221 -0.0314
  177MOL0     H23299   0.716   8.858  11.346  1.0990 -4.0315  0.6450
  177MOL0     H23300   0.793   8.984  11.523 -0.0035 -0.5820 -0.1995
  177MOL0     H23301   0.721   9.143  11.720 -1.2730 -0.1774  0.5117
  177MOL0     H23302   0.889   9.058  11.728  0.6088 -2.2145  1.3594
  177MOL0     H23303   0.906   9.106  11.961  1.0363  0.1501 -2.5822
  177MOL0     H23304   0.734   9.179  11.952  0.7116  1.3786  1.5226
  177MOL0     H23305   0.985   9.259  11.811  0.7363 -3.2709  1.9712
  177MOL0     H23306   0.936   9.320  11.961  0.8796  0.6070 -1.3173
  177MOL0     H23307   0.788   9.352  11.695  0.1422 -0.2037  0.5485
  177MOL0     H23308   0.698   9.385  11.838 -1.4411  1.9253 -1.8216
  177MOL0     H23309   0.855   9.568  11.903 -1.3013 -3.5528  1.8800
  177MOL0     H23310   0.804   9.601  11.737  0.7781  1.0321 -0.6486
  177MOL0     H23311   1.025   9.513  11.646 -3.8385 -0.6174 -0.1103
  177MOL0     H23312   1.072   9.482  11.807  1.1533  1.8382  0.7850
  177MOL0     H23313   1.060   9.689  11.894 -0.1394  1.8187 -0.3385
  177MOL0     H23314   1.173   9.684  11.757 -0.8951  0.5165 -1.0416
  177MOL0     H23315   0.899   9.808  11.769 -0.9812 -3.9101 -0.4228
  177MOL0     H23316   1.007   9.812  11.623 -5.3443 -0.6861 -0.3503
  177MOL0     H23317   1.245   9.930  11.655 -2.1774 -1.9420 -0.6863
  177MOL0     H23318   1.383  10.152  11.777 -0.3541  0.0132  1.4156
  177MOL0     H23319   1.282  10.288  11.819 -0.5151  0.2875 -0.3471
  177MOL0     H23320   1.225  10.326  11.593  1.0486  0.2838 -2.8533
  177MOL0     H23321   1.292  10.168  11.537  0.8486  0.1416  0.8685
  177MOL0     H23322   1.513  10.241  11.564 -0.8921 -3.0416  1.6287
  177MOL0     H23323   1.428  10.377  11.473 -0.4863  1.3705  0.9845
  177MOL0     H23324   1.394  10.486  11.692  0.9146  1.0327  0.3570
  177MOL0     H23325   1.560  10.497  11.626 -1.3694  2.9552 -0.5665
  177MOL0     H23326   1.530  10.638  11.807 -1.3617  2.9079  2.0809
  177MOL0     H23327   1.597  10.751  12.009 -0.7884  0.7601  3.1911
  177MOL0     H23328   1.447  10.923  12.391 -0.0513 -1.7470  0.7248
  177MOL0     H23329   1.508  11.077  12.584  0.5176  0.9223  1.6512
  177MOL0     H23330   1.925  11.200  12.587 -2.9247 -2.1293 -2.8777
  177MOL0     H23331   1.890  11.276  12.743 -0.5462  0.5429 -0.3596
  177MOL0     H23332   1.694  11.394  12.630  0.2116  0.4474  0.0875
  177MOL0     H23333   1.750  11.336  12.469 -3.3490 -1.1565  1.2108
  177MOL0     H23334   1.913  11.503  12.671 -0.0019 -0.4613  0.8202
  177MOL0     H23335   1.819  11.561  12.522 -2.5353  0.4861  2.5324
  177MOL0     H23336   2.053  11.393  12.514 -0.9121 -1.3150  0.5250
  177MOL0     H23337   1.949  11.439  12.380 -0.2748  1.7640  0.6279
  177MOL0     H23338   2.093  11.630  12.581  0.0279  0.2290  0.2082
  177MOL0     H23339   2.022  11.662  12.423  1.8962 -1.7060 -2.4492
  177MOL0     H23340   2.189  11.520  12.303  4.0914 -0.7041 -1.2071
  177MOL0     H23341   2.272  11.485  12.449  2.6231  1.3012 -3.5135
  177MOL0     H23342   2.230  11.779  12.361 -0.0491 -1.2010  0.4492
  177MOL0     H23343   2.331  11.723  12.496  1.8406 -0.5419 -0.9329
  177MOL0     H23344   2.489  11.762  12.315 -1.5245  0.8582  1.8938
  177MOL0     H23345   2.367  11.656  12.217 -2.7516  1.9541  0.2664
  177MOL0     H23346   1.919  11.011  12.522 -0.7342  0.5348  2.0224
  177MOL0     H23347   1.856  10.828  12.352  1.7368  3.9796 -1.2852
  177MOL0     H23348   1.633  10.388  12.225  2.1102  0.7017  0.8061
  177MOL0     H23349   1.573  10.262  12.005  1.6503 -0.6356  1.1666
  177MOL0     H23350   0.590   8.735  11.807  3.7694 -1.3923 -0.2989
  177MOL0     H23351   0.493   8.605  11.625 -3.5418  1.2940 -1.0292
  177MOL0     H23352   0.397   8.847  11.332  1.3021  0.9035  1.5341
  177MOL0     H23353   0.196   8.977  11.403  1.2112 -0.5015  3.4944
  177MOL0     H23354  -0.066   8.957  11.277  2.4044 -3.1610  0.5453
  177MOL0     H23355  -0.019   9.062  11.414 -3.3673  0.8988  3.3194
  177MOL0     H23356  -0.260   9.016  11.500 -0.4884  1.2907 -0.3362
  177MOL0     H23357  -0.256   9.090  11.348  0.6770  0.7917  0.8226
  177MOL0     H23358  -0.247   8.770  11.379 -2.5497 -2.3999 -1.6575
  177MOL0     H23359  -0.281   8.857  11.240 -3.6422  1.1344  0.8710
  177MOL0     H23360  -0.478   8.772  11.386 -1.5590  0.8322  1.8409
  177MOL0     H23361  -0.455   8.905  11.484 -0.0128  0.7069 -0.3795
  177MOL0     H23362  -0.636   9.115  11.172 -0.5543 -0.7931 -0.7287
  177MOL0     H23363  -0.001   8.589  11.452  2.9493 -3.5874  0.0953
  177MOL0     H23364   0.198   8.482  11.414 -1.8889  0.4047  1.9259
  178MOL0     O23365   9.979   4.755   9.445 -0.2171 -1.1215 -0.9468
  178MOL0     C23366  10.037   4.678   9.517 -0.2535 -0.5017 -0.9562
  178MOL0     O23367   9.986   4.596   9.607  0.8638  0.9575 -0.4500
  178MOL0     C23368   9.848   4.597   9.634 -0.5647  0.7540  0.3721
  178MOL0     C23369   9.756   4.556   9.545 -0.4122 -0.0604 -1.1187
  178MOL0     C23370   9.617   4.572   9.571 -0.4690 -0.2595 -1.2649
  178MOL0     C23371   9.577   4.599   9.702  0.0435  1.0790  0.3693
  178MOL0     O23372   9.441   4.611   9.719 -0.6548 -0.0940  0.2232
  178MOL0     C23373   9.388   4.546   9.836 -0.7276  0.8137 -1.0562
  178MOL0     C23374   9.325   4.409   9.778 -0.0910  0.2451 -0.2461
  178MOL0     C23375   9.177   4.420   9.745  0.2513 -0.2087 -0.3548
  178MOL0     C23376   9.105   4.289   9.747 -0.3867 -0.9566  0.1724
  178MOL0     C23377   8.986   4.284   9.661  0.2272  0.0326 -0.1583
  178MOL0     C23378   8.942   4.143   9.645  0.6828  0.3066  0.1203
  178MOL0     C23379   8.831   4.137   9.534 -0.3319 -0.3289  0.2641
  178MOL0     C23380   8.775   3.995   9.496  0.0717 -0.6514  0.2444
  178MOL0     N23381   8.640   4.007   9.427 -0.0558 -0.0126 -0.8391
  178MOL0     C23382   8.527   4.079   9.474  0.3935  0.7502 -0.1547
  178MOL0     C23383   8.423   4.040   9.394 -0.1576 -0.3041 -0.4086
  178MOL0     C23384   8.285   4.095   9.408  0.1791 -0.0237  0.4982
  178MOL0     C23385   8.180   4.031   9.324 -1.3218  0.6630  0.1063
  178MOL0     C23386   8.134   3.895   9.380 -0.0108  0.2444  0.8869
  178MOL0     C23387   8.014   3.840   9.299  0.0013 -0.8410  0.1422
  178MOL0     O23388   7.901   3.915   9.328  0.3880 -0.0674 -0.7612
  178MOL0     C23389   7.779   3.850   9.294  0.7311  0.6324 -0.0014
  178MOL0     C23390   7.756   3.779   9.169 -0.4138 -0.1648 -0.8406
  178MOL0     C23391   7.640   3.708   9.147 -0.0978  0.0612 -0.0514
  178MOL0     C23392   7.538   3.709   9.241  1.0540  0.6378 -0.1247
  178MOL0     C23393   7.391   3.666   9.214 -0.5855 -0.4995  0.2332
  178MOL0     O23394   7.320   3.651   9.330  0.4329 -0.2944 -0.1454
  178MOL0     C23395   7.187   3.622   9.322  0.3555  0.3302  0.4126
  178MOL0     C23396   7.089   3.693   9.409  0.9041 -0.2050 -0.2143
  178MOL0     C23397   6.954   3.689   9.394  0.8584 -0.2588  0.5039
  178MOL0     C23398   6.910   3.604   9.293  1.3130 -0.4552  0.7744
  178MOL0     O23399   6.771   3.613   9.279 -0.6232  0.2349 -0.3725
  178MOL0     C23400   6.710   3.620   9.155 -0.5563 -0.2395  0.3096
  178MOL0     C23401   6.609   3.737   9.152 -0.4449 -0.1903  0.4743
  178MOL0     C23402   6.503   3.722   9.043 -0.6089 -0.1461  0.4595
  178MOL0     C23403   6.389   3.826   9.052 -0.3281 -0.2191  0.5752
  178MOL0     C23404   6.305   3.846   8.921 -0.6082 -0.4059  0.0877
  178MOL0     C23405   6.195   3.944   8.936  0.4133  0.1734  0.7989
  178MOL0     C23406   6.117   3.954   8.799 -0.0361 -0.1187 -0.3244
  178MOL0     C23407   6.005   4.046   8.807  0.8308 -0.3678  0.0802
  178MOL0    Cl23408   5.905   4.051   8.653  0.0671 -0.2512 -0.3383
  178MOL0     C23409   6.994   3.532   9.210  0.0412 -0.2690 -0.2734
  178MOL0     C23410   7.135   3.537   9.226  0.3004  0.3961  0.7179
  178MOL0     O23411   7.346   3.655   9.108 -0.6771  0.3479  0.0019
  178MOL0     C23412   7.555   3.778   9.363 -0.3187 -0.0179 -0.3293
  178MOL0     C23413   7.675   3.842   9.389  0.1459  0.1373 -0.1464
  178MOL0     N23414   8.468   3.944   9.307  0.4038 -0.7821  0.0908
  178MOL0     N23415   8.590   3.917   9.341 -1.0260  0.4662  0.2771
  178MOL0     C23416   9.676   4.622   9.799  0.9759  0.2255  0.3718
  178MOL0     C23417   9.807   4.619   9.761 -0.4114  0.3975 -0.2319
  178MOL0     C23418  10.188   4.687   9.506 -1.1865 -0.5849  0.7063
  178MOL0     C23419  10.247   4.769   9.404  0.4927 -0.6296 -0.4981
  178MOL0     C23420  10.387   4.787   9.407 -0.6532  0.5456  0.6871
  178MOL0     C23421  10.468   4.721   9.499 -0.3026  0.1772  0.5159
  178MOL0     O23422  10.605   4.743   9.495  0.4985  0.4166  0.5522
  178MOL0     C23423  10.667   4.775   9.367 -0.5417 -0.4666 -0.3535
  178MOL0     C23424  10.803   4.714   9.354 -0.7918  0.5326 -0.0782
  178MOL0     C23425  10.907   4.786   9.440  0.3626  0.7702 -0.3460
  178MOL0     C23426  11.058   4.753   9.430  0.0446  0.5863  0.8632
  178MOL0     C23427  11.141   4.859   9.492  0.8908 -0.2496  1.1313
  178MOL0     C23428  11.172   4.960   9.550  0.3672 -0.8114  0.4434
  178MOL0     C23429  10.407   4.629   9.584 -1.2119  0.2932 -0.0057
  178MOL0     C23430  10.269   4.606   9.589  0.4838 -0.1185  0.2251
  178MOL0     H23431   9.776   4.529   9.442 -1.0514 -1.3437 -0.9243
  178MOL0     H23432   9.543   4.546   9.496 -2.9288 -3.7140  1.9641
  178MOL0     H23433   9.311   4.602   9.890 -0.3526  0.0262  0.3316
  178MOL0     H23434   9.456   4.534   9.920 -0.7042  1.6533 -0.9467
  178MOL0     H23435   9.327   4.332   9.856  2.7112  0.1063 -0.3570
  178MOL0     H23436   9.381   4.384   9.688 -1.1659  0.0411 -0.8816
  178MOL0     H23437   9.167   4.460   9.644  2.6262 -0.5151 -0.7768
  178MOL0     H23438   9.118   4.496   9.798 -0.6786 -0.6525 -0.7458
  178MOL0     H23439   9.179   4.212   9.721  0.4825  0.2289 -1.0100
  178MOL0     H23440   9.085   4.273   9.853  1.8585  0.1752  0.8350
  178MOL0     H23441   9.015   4.322   9.562  1.1398 -0.4243 -0.0770
  178MOL0     H23442   8.903   4.352   9.686  0.3556 -0.2643  1.1489
  178MOL0     H23443   8.909   4.108   9.743 -1.2677 -0.4152 -0.7443
  178MOL0     H23444   9.018   4.071   9.610  0.0278 -0.7093  0.7454
  178MOL0     H23445   8.759   4.202   9.585 -2.1045  1.6430 -4.1827
  178MOL0     H23446   8.858   4.180   9.437 -0.0960 -0.0757  0.4403
  178MOL0     H23447   8.744   3.946   9.589 -1.1276  1.9902  1.3380
  178MOL0     H23448   8.858   3.941   9.449  1.1650 -0.3122  1.7072
  178MOL0     H23449   8.525   4.143   9.562  2.0618  1.0929 -0.3342
  178MOL0     H23450   8.283   4.204   9.394  1.6204  0.1870  1.7278
  178MOL0     H23451   8.252   4.080   9.511 -2.7970 -1.1844 -0.4966
  178MOL0     H23452   8.215   4.007   9.223 -3.8901 -1.1112 -0.4576
  178MOL0     H23453   8.091   4.095   9.325 -1.0828  1.0346  2.0726
  178MOL0     H23454   8.217   3.823   9.383  0.4737  0.6182 -1.5824
  178MOL0     H23455   8.092   3.906   9.481 -3.5352 -1.6942 -0.2024
  178MOL0     H23456   7.999   3.734   9.321 -0.5606 -0.6599  0.6752
  178MOL0     H23457   8.039   3.859   9.194 -0.0171 -1.3684  0.0412
  178MOL0     H23458   7.830   3.777   9.090 -0.4205 -1.0085 -0.8318
  178MOL0     H23459   7.627   3.646   9.058  2.2672  1.0786 -1.1912
  178MOL0     H23460   7.134   3.769   9.473 -1.3555  2.5411 -1.6845
  178MOL0     H23461   6.872   3.740   9.443 -0.9068 -2.1485 -0.3299
  178MOL0     H23462   6.659   3.524   9.150  2.7799 -2.3282  2.2733
  178MOL0     H23463   6.778   3.629   9.070 -0.3066 -0.7139  0.4544
  178MOL0     H23464   6.658   3.832   9.131  1.1819 -0.7608  1.5421
  178MOL0     H23465   6.556   3.741   9.248  0.2730  0.2105  0.8580
  178MOL0     H23466   6.467   3.619   9.051 -1.2239 -0.0313 -0.6830
  178MOL0     H23467   6.552   3.733   8.946 -2.0859  0.5676 -0.2447
  178MOL0     H23468   6.325   3.782   9.130 -3.1399  0.2854 -1.3057
  178MOL0     H23469   6.431   3.919   9.092  1.7041 -0.8975  0.1258
  178MOL0     H23470   6.257   3.754   8.885 -1.2572  0.4939 -1.5048
  178MOL0     H23471   6.370   3.881   8.840  1.1122  1.5276  2.2022
  178MOL0     H23472   6.235   4.043   8.960 -1.8102  2.1796 -2.8547
  178MOL0     H23473   6.120   3.908   9.008 -0.4601 -1.0302 -0.6352
  178MOL0     H23474   6.179   3.989   8.716  0.0319  0.1954 -0.1471
  178MOL0     H23475   6.091   3.850   8.777  1.8773 -0.6358 -0.3369
  178MOL0     H23476   6.025   4.150   8.836 -1.7663  0.2385 -0.0754
  178MOL0     H23477   5.940   4.001   8.883  0.4841  2.4591  1.5961
  178MOL0     H23478   6.955   3.465   9.134 -3.6136  0.9948  0.2929
  178MOL0     H23479   7.201   3.477   9.164 -1.5391 -0.1933 -0.7660
  178MOL0     H23480   7.471   3.785   9.432  1.0962  1.0606  1.3708
  178MOL0     H23481   7.695   3.884   9.488  0.5264  6.7136 -2.5054
  178MOL0     H23482   9.629   4.656   9.891  1.2377  0.7260  0.3230
  178MOL0     H23483   9.881   4.638   9.837 -0.2773 -2.7706  0.5597
  178MOL0     H23484  10.181   4.824   9.338 -0.8795  2.7302  3.2656
  178MOL0     H23485  10.425   4.848   9.325  2.3868 -1.0941  0.7349
  178MOL0     H23486  10.684   4.883   9.369 -1.1289 -0.3650 -0.6664
  178MOL0     H23487  10.610   4.736   9.283 -0.5765 -1.8262  0.2664
  178MOL0     H23488  10.797   4.609   9.383 -5.1697  0.2356 -1.3284
  178MOL0     H23489  10.834   4.708   9.249 -0.8489  0.1989 -0.0762
  178MOL0     H23490  10.852   4.775   9.534  1.4145  0.4671  0.2474
  178MOL0     H23491  10.893   4.889   9.406 -1.6551  0.2228 -1.3651
  178MOL0     H23492  11.070   4.660   9.488 -2.3632 -0.4702 -0.1867
  178MOL0     H23493  11.085   4.723   9.329 -2.7700 -2.7473  0.9073
  178MOL0     H23494  11.187   5.061   9.582 -1.1748 -0.6037  0.5822
  178MOL0     H23495  10.465   4.564   9.649  2.7354 -0.7218 -4.0528
  178MOL0     H23496  10.224   4.532   9.654  1.6068 -1.4554 -0.4636
  179MOL0     O23497  10.751   0.992   4.738  0.3564  0.4004 -0.8262
  179MOL0     C23498  10.783   0.872   4.735  0.4212  0.9945  0.4191
  179MOL0     O23499  10.894   0.818   4.774 -0.7677  0.1610 -0.1483
  179MOL0     C23500  11.001   0.892   4.796  0.3737  0.3727 -0.1618
  179MOL0     C23501  11.029   1.024   4.742 -0.9281  0.6362  0.1556
  179MOL0     C23502  11.146   1.095   4.771  1.1247  0.7345  0.4736
  179MOL0     C23503  11.235   1.037   4.870 -0.1186 -0.5735  0.1331
  179MOL0     O23504  11.354   1.094   4.902 -0.0574 -0.1741 -0.1254
  179MOL0     C23505  11.447   1.083   4.798 -1.6884  0.5243  0.1010
  179MOL0     C23506  11.552   1.191   4.818  0.6071 -0.4434 -0.3633
  179MOL0     C23507  11.657   1.169   4.929 -0.3437 -0.4764 -0.4335
  179MOL0     C23508  11.718   1.301   4.990  0.3601 -0.1760  0.0206
  179MOL0     C23509  11.817   1.295   5.105  0.9697 -0.0416  0.3228
  179MOL0     C23510  11.941   1.225   5.062 -0.3819  1.1991 -0.2933
  179MOL0     C23511  12.046   1.220   5.170 -0.2289 -0.1639 -0.3327
  179MOL0     C23512  12.176   1.159   5.124 -0.3087 -0.2806  0.6718
  179MOL0     N23513  12.281   1.175   5.221  0.4917  0.5757  0.2797
  179MOL0     C23514  12.410   1.194   5.189 -0.3516  0.7819  0.2762
  179MOL0     C23515  12.476   1.218   5.301  0.4602 -0.8184  0.4751
  179MOL0     C23516  12.621   1.234   5.302 -1.1613 -0.0935 -0.4197
  179MOL0     C23517  12.674   1.321   5.419  0.2607 -0.3996 -0.8334
  179MOL0     C23518  12.829   1.376   5.411 -0.0392 -0.1003  0.1699
  179MOL0     C23519  12.923   1.259   5.389 -0.8788 -1.0788 -0.1448
  179MOL0     O23520  12.943   1.193   5.514 -1.1505 -0.0272 -0.1749
  179MOL0     C23521  13.069   1.153   5.548 -0.2702  0.8730 -0.0396
  179MOL0     C23522  13.072   1.036   5.617  0.6244  0.3691  0.0508
  179MOL0     C23523  13.197   0.972   5.647 -0.9242  0.3878 -1.0723
  179MOL0     C23524  13.314   1.030   5.611  0.3255 -0.1038 -0.5700
  179MOL0     C23525  13.440   0.952   5.623  0.6223  1.2513  0.6376
  179MOL0     O23526  13.436   0.811   5.640 -0.8294  0.1610 -1.2079
  179MOL0     C23527  13.553   0.732   5.628  0.2796  0.3525  0.3924
  179MOL0     C23528  13.689   0.759   5.656  0.2368 -0.2741 -0.3794
  179MOL0     C23529  13.785   0.673   5.661  0.0736  0.1143 -0.3650
  179MOL0     C23530  13.765   0.547   5.611 -0.0253  0.1950  0.5039
  179MOL0     O23531  13.876   0.464   5.601 -0.3344  0.1244 -0.3252
  179MOL0     C23532  13.851   0.329   5.550 -0.3998 -0.0657 -0.6265
  179MOL0     C23533  13.980   0.252   5.571 -0.5508  0.8876 -0.1536
  179MOL0     C23534  13.959   0.108   5.507 -0.7962  0.3551 -0.8215
  179MOL0     C23535  14.078   0.024   5.559  0.1402 -0.0050  0.7142
  179MOL0     C23536  14.070  -0.117   5.508 -0.7486  0.2639  0.8024
  179MOL0     C23537  14.104  -0.127   5.349 -0.1304 -0.1087  0.3377
  179MOL0     C23538  14.054  -0.243   5.295  0.1897  0.7235  0.6843
  179MOL0     C23539  14.069  -0.264   5.143  0.5001 -0.3196  0.5319
  179MOL0    Cl23540  14.021  -0.106   5.058  0.0631 -0.2667 -0.1725
  179MOL0     C23541  13.632   0.513   5.566 -0.4368  0.1224  0.2237
  179MOL0     C23542  13.526   0.600   5.583 -0.2869 -0.0428  0.3297
  179MOL0     O23543  13.537   1.010   5.636 -0.4944  0.5119  0.2448
  179MOL0     C23544  13.315   1.155   5.548  0.5638 -0.3421 -0.6921
  179MOL0     C23545  13.194   1.209   5.510  0.1990 -0.6265 -0.4875
  179MOL0     N23546  12.377   1.232   5.405  0.1526  0.8584  0.0492
  179MOL0     N23547  12.272   1.194   5.348 -0.4049 -0.1919  0.4336
  179MOL0     C23548  11.211   0.903   4.924  0.7832 -0.1421  0.3746
  179MOL0     C23549  11.089   0.842   4.888 -0.8266  0.3058  0.4725
  179MOL0     C23550  10.687   0.788   4.659  0.1909 -0.0603  0.9775
  179MOL0     C23551  10.584   0.847   4.583  0.1133 -0.3192  0.1578
  179MOL0     C23552  10.494   0.769   4.506  0.8338  0.3812  0.1680
  179MOL0     C23553  10.487   0.636   4.522 -0.1280  0.5154  0.4246
  179MOL0     O23554  10.379   0.565   4.478  0.2210 -0.3537  0.5824
  179MOL0     C23555  10.355   0.430   4.511  0.4146  0.5914 -0.3647
  179MOL0     C23556  10.263   0.385   4.401 -0.3456  1.4146 -0.5520
  179MOL0     C23557  10.134   0.476   4.374  0.4200 -0.7162 -0.6626
  179MOL0     C23558  10.042   0.399   4.284 -0.9346  0.6680 -0.0042
  179MOL0     C23559   9.914   0.462   4.265 -0.1688 -0.1599  0.3041
  179MOL0     C23560   9.799   0.516   4.271 -0.0975  0.1255  0.5345
  179MOL0     C23561  10.597   0.578   4.590  0.2341  0.1549 -0.0049
  179MOL0     C23562  10.701   0.652   4.651 -0.2199 -0.3356 -0.5273
  179MOL0     H23563  10.967   1.081   4.673  0.1385  0.8454 -0.6575
  179MOL0     H23564  11.177   1.183   4.716  0.1936 -1.7062 -4.6246
  179MOL0     H23565  11.404   1.098   4.698 -1.9354 -0.7258 -0.0009
  179MOL0     H23566  11.492   0.983   4.790 -0.0299  1.0181  2.3656
  179MOL0     H23567  11.497   1.281   4.846 -0.2800 -0.4476 -1.9768
  179MOL0     H23568  11.606   1.217   4.726  1.5950 -0.1465  0.2784
  179MOL0     H23569  11.738   1.110   4.886  0.5904 -1.0643  1.9628
  179MOL0     H23570  11.610   1.106   5.005  0.6058 -0.5276  0.1229
  179MOL0     H23571  11.743   1.369   4.908 -1.2008 -0.2053 -0.5162
  179MOL0     H23572  11.628   1.346   5.034  1.2151  1.1715  0.4759
  179MOL0     H23573  11.773   1.248   5.193  1.6455 -1.2807  0.0281
  179MOL0     H23574  11.843   1.395   5.141  0.0026 -0.1879  1.4814
  179MOL0     H23575  11.979   1.274   4.972 -3.4801 -0.2699 -2.5717
  179MOL0     H23576  11.911   1.121   5.045 -2.0169  1.0924  2.5889
  179MOL0     H23577  12.071   1.316   5.215  2.3477 -1.6593  1.6996
  179MOL0     H23578  12.014   1.160   5.256  2.9090 -1.8931 -0.2191
  179MOL0     H23579  12.205   1.220   5.037  1.8010 -1.2993  0.5820
  179MOL0     H23580  12.161   1.053   5.102  0.9315 -0.4403  0.5112
  179MOL0     H23581  12.446   1.182   5.087 -1.4988 -0.5722 -0.0042
  179MOL0     H23582  12.660   1.264   5.204  0.7857 -0.5743  0.1604
  179MOL0     H23583  12.660   1.133   5.319 -0.4758  0.2261 -0.0464
  179MOL0     H23584  12.644   1.290   5.519  0.5893  1.8985  0.0392
  179MOL0     H23585  12.612   1.411   5.422 -0.4182 -0.8530 -1.1075
  179MOL0     H23586  12.832   1.450   5.331 -1.9873  3.4015  2.9992
  179MOL0     H23587  12.862   1.431   5.500  0.1641  2.1252 -1.2112
  179MOL0     H23588  13.015   1.302   5.350 -0.6157  0.8862  2.3393
  179MOL0     H23589  12.892   1.187   5.313 -0.4358 -1.1672 -0.2416
  179MOL0     H23590  12.987   0.972   5.640  1.3839 -0.0635  1.7926
  179MOL0     H23591  13.194   0.866   5.674 -1.4462  0.0278 -2.4577
  179MOL0     H23592  13.698   0.856   5.704 -1.3059 -0.8485  1.1739
  179MOL0     H23593  13.884   0.695   5.700  0.4900 -3.2478  0.8286
  179MOL0     H23594  13.831   0.339   5.443 -0.8509  2.4588 -0.3604
  179MOL0     H23595  13.762   0.279   5.591 -0.1050  0.1955  0.3620
  179MOL0     H23596  13.985   0.240   5.680 -2.1599 -1.7477 -0.2708
  179MOL0     H23597  14.069   0.301   5.532 -1.5023 -0.5324 -4.7063
  179MOL0     H23598  13.959   0.122   5.398  2.5539 -0.6641 -1.0599
  179MOL0     H23599  13.868   0.066   5.552  0.2052 -1.4192 -0.3672
  179MOL0     H23600  14.176   0.069   5.540  1.2081 -0.4535  4.3538
  179MOL0     H23601  14.068   0.028   5.668 -0.3847  4.4700  0.6732
  179MOL0     H23602  13.970  -0.162   5.516 -0.7635 -0.1907 -1.2298
  179MOL0     H23603  14.148  -0.177   5.555 -0.9284  1.9246  3.4069
  179MOL0     H23604  14.211  -0.125   5.325  0.4865  3.3721  2.6416
  179MOL0     H23605  14.060  -0.037   5.306 -0.8055 -0.8087 -0.4686
  179MOL0     H23606  14.097  -0.324   5.354 -0.2206 -0.2612 -0.3230
  179MOL0     H23607  13.952  -0.242   5.335  0.5011  2.8737  1.5701
  179MOL0     H23608  14.005  -0.345   5.107  2.0301 -1.2097 -0.2867
  179MOL0     H23609  14.172  -0.290   5.118 -0.0003 -0.1320 -2.0212
  179MOL0     H23610  13.611   0.432   5.497  3.4485 -1.6245  0.8069
  179MOL0     H23611  13.426   0.571   5.554 -1.0694  1.9586  0.8035
  179MOL0     H23612  13.398   1.209   5.505  0.2643 -1.3984 -2.7464
  179MOL0     H23613  13.206   1.302   5.456 -0.7609  0.1230  0.5526
  179MOL0     H23614  11.283   0.854   4.989 -1.2396 -3.2006  0.5330
  179MOL0     H23615  11.086   0.738   4.920 -1.2938 -0.6004 -2.2190
  179MOL0     H23616  10.580   0.955   4.580  1.0682 -0.2512  0.7591
  179MOL0     H23617  10.413   0.815   4.450  0.1977 -0.4803  0.3668
  179MOL0     H23618  10.300   0.431   4.605  0.0502  2.6224 -0.5392
  179MOL0     H23619  10.445   0.368   4.505 -0.8109 -1.2904 -0.0524
  179MOL0     H23620  10.326   0.385   4.311 -1.1333 -0.7489 -1.1579
  179MOL0     H23621  10.231   0.283   4.424 -1.4014  1.9478  0.4388
  179MOL0     H23622  10.157   0.576   4.337 -1.8661 -0.4739 -1.5913
  179MOL0     H23623  10.085   0.491   4.471  0.7618  1.1217 -0.7389
  179MOL0     H23624  10.093   0.386   4.188 -2.7993 -0.7887 -0.8639
  179MOL0     H23625  10.028   0.301   4.331  1.5373  1.5844  3.0303
  179MOL0     H23626   9.702   0.557   4.290  1.0244  2.6188  1.2890
  179MOL0     H23627  10.604   0.471   4.607 -1.6859 -0.5368 -2.8287
  179MOL0     H23628  10.772   0.600   4.715  1.0827 -1.1052 -2.5035
  180MOL0     O23629   3.885   3.958   5.326  0.1814 -0.1763  0.0803
  180MOL0     C23630   3.918   3.969   5.207 -0.5550  0.4915  0.9146
  180MOL0     O23631   3.883   3.886   5.102  0.0768 -0.4381  0.6797
  180MOL0     C23632   3.822   3.771   5.126  0.9513  0.3051 -0.4364
  180MOL0     C23633   3.709   3.733   5.047  0.3301 -1.6632  0.0375
  180MOL0     C23634   3.636   3.615   5.073 -0.0791  1.1119 -0.4318
  180MOL0     C23635   3.672   3.535   5.180  0.0618  0.6813 -0.7698
  180MOL0     O23636   3.599   3.428   5.201  0.6974  0.3215  0.0427
  180MOL0     C23637   3.453   3.447   5.240  0.3323 -0.3717  0.6317
  180MOL0     C23638   3.380   3.321   5.216 -0.2647  0.8282  0.6790
  180MOL0     C23639   3.354   3.291   5.073 -0.1728 -0.4894 -0.5325
  180MOL0     C23640   3.282   3.148   5.069 -0.1127 -0.5730  0.8177
  180MOL0     C23641   3.127   3.161   5.103 -0.6881 -0.3791  0.2219
  180MOL0     C23642   3.048   3.016   5.099 -0.1027  0.1370  0.5429
  180MOL0     C23643   2.904   3.030   5.068  0.7431 -0.3319  1.0349
  180MOL0     C23644   2.826   2.889   5.066 -0.6009 -0.3163  0.0727
  180MOL0     N23645   2.681   2.908   5.061  0.0461 -0.0913  1.1772
  180MOL0     C23646   2.595   2.923   5.162  0.9666  0.0528  0.6325
  180MOL0     C23647   2.476   2.914   5.102 -0.0488 -0.1421 -0.0767
  180MOL0     C23648   2.352   2.923   5.176  0.6333  0.2868  0.2902
  180MOL0     C23649   2.247   2.811   5.134 -0.3210 -0.1234 -0.4187
  180MOL0     C23650   2.114   2.824   5.215  0.1651  0.2201 -0.1381
  180MOL0     C23651   2.024   2.942   5.180 -0.0139  0.8279  0.4147
  180MOL0     O23652   1.907   2.946   5.261  0.2864  0.0365  0.4632
  180MOL0     C23653   1.787   2.890   5.213 -0.4726  0.6263  0.0828
  180MOL0     C23654   1.672   2.892   5.284  0.5245 -0.1704 -0.3483
  180MOL0     C23655   1.553   2.831   5.238  0.4638  0.0374 -1.1334
  180MOL0     C23656   1.548   2.752   5.125 -0.1074 -0.4597  0.2730
  180MOL0     C23657   1.423   2.684   5.074  0.4284  0.2707  0.1389
  180MOL0     O23658   1.424   2.613   4.953 -0.5057  0.2364  0.3373
  180MOL0     C23659   1.300   2.559   4.913 -0.5592 -0.4001  0.2119
  180MOL0     C23660   1.217   2.648   4.861 -0.0384 -0.4778  0.4811
  180MOL0     C23661   1.089   2.623   4.817  0.8080 -1.0906 -1.0353
  180MOL0     C23662   1.038   2.495   4.827  0.9367  0.3910 -0.7731
  180MOL0     O23663   0.905   2.476   4.784 -0.3729  0.3520  1.0510
  180MOL0     C23664   0.851   2.344   4.772 -0.3956 -0.8156  0.8415
  180MOL0     C23665   0.727   2.316   4.680 -0.5087 -0.6428 -0.0598
  180MOL0     C23666   0.585   2.360   4.728 -0.4616  0.6423  0.4720
  180MOL0     C23667   0.485   2.342   4.619  0.0313  0.3854 -0.3829
  180MOL0     C23668   0.341   2.331   4.671 -0.3142 -0.7596 -0.8655
  180MOL0     C23669   0.224   2.375   4.572 -1.3031  0.8196  0.1322
  180MOL0     C23670   0.094   2.318   4.625 -0.5650  0.4522  0.5222
  180MOL0     C23671  -0.017   2.346   4.529  0.8733  0.4022 -0.2275
  180MOL0    Cl23672  -0.157   2.226   4.544 -0.1184 -0.5979  0.0914
  180MOL0     C23673   1.120   2.396   4.888 -0.4745  0.8358 -0.7437
  180MOL0     C23674   1.248   2.429   4.917 -0.2687 -0.7377  0.3583
  180MOL0     O23675   1.324   2.694   5.151 -0.2904 -0.3443  0.3772
  180MOL0     C23676   1.670   2.746   5.047  0.5797 -0.0796 -0.8121
  180MOL0     C23677   1.791   2.804   5.095 -0.2632 -0.1223  1.3402
  180MOL0     N23678   2.488   2.892   4.966  1.3697 -0.4470 -0.1687
  180MOL0     N23679   2.615   2.876   4.943 -0.1256 -0.1354  0.5248
  180MOL0     C23680   3.789   3.568   5.258 -0.0819  0.5137 -0.1600
  180MOL0     C23681   3.862   3.681   5.228  1.0085  0.2254  0.4819
  180MOL0     C23682   3.982   4.097   5.160  0.4218 -0.3143  0.6930
  180MOL0     C23683   4.020   4.201   5.246 -0.3644  0.4105 -1.0865
  180MOL0     C23684   4.064   4.331   5.195  0.5643  0.2866  0.1459
  180MOL0     C23685   4.078   4.348   5.059 -0.3810  0.7612 -0.0817
  180MOL0     O23686   4.118   4.471   5.021  0.0828 -0.2413  0.7886
  180MOL0     C23687   4.115   4.511   4.881 -0.6585 -0.6345  0.4255
  180MOL0     C23688   4.257   4.497   4.820 -0.3633  0.2977 -0.6626
  180MOL0     C23689   4.253   4.470   4.672  0.1057 -0.0950  0.0879
  180MOL0     C23690   4.222   4.616   4.604  0.1899  0.7949 -0.2298
  180MOL0     C23691   4.219   4.612   4.462 -0.5002  0.1235 -0.6337
  180MOL0     C23692   4.206   4.608   4.347  0.2621 -0.7251  1.1163
  180MOL0     C23693   4.061   4.234   4.979  0.0618 -0.2220  1.4250
  180MOL0     C23694   3.998   4.118   5.023 -0.5736 -0.2112 -0.5994
  180MOL0     H23695   3.674   3.796   4.966  0.5692 -1.5042  0.0570
  180MOL0     H23696   3.548   3.587   5.015  0.9182  0.0238 -1.4803
  180MOL0     H23697   3.403   3.526   5.182  0.5346 -0.2911  0.5662
  180MOL0     H23698   3.447   3.486   5.342  0.4792  0.4373  0.3435
  180MOL0     H23699   3.276   3.341   5.245 -0.0260  1.1267  1.3472
  180MOL0     H23700   3.419   3.236   5.273 -2.9548 -0.3192  0.9850
  180MOL0     H23701   3.448   3.294   5.017  1.1113  1.1958  1.5695
  180MOL0     H23702   3.288   3.374   5.045  0.3272  0.4513  0.9795
  180MOL0     H23703   3.302   3.105   4.971  2.2429  0.1261  0.9195
  180MOL0     H23704   3.338   3.090   5.143 -0.9846 -1.6597  0.6476
  180MOL0     H23705   3.086   3.230   5.028 -0.3213  0.2932  0.6324
  180MOL0     H23706   3.125   3.208   5.201  2.9139 -0.7327  0.5973
  180MOL0     H23707   3.054   2.970   5.199  0.2841 -2.2621 -0.5082
  180MOL0     H23708   3.089   2.940   5.031 -1.2894 -0.8103  0.8486
  180MOL0     H23709   2.873   3.097   5.149  4.3298  1.5943  1.0138
  180MOL0     H23710   2.896   3.073   4.967  0.9995 -2.8871 -0.1650
  180MOL0     H23711   2.859   2.818   5.143 -0.2404  0.0239  0.2339
  180MOL0     H23712   2.859   2.848   4.970  0.5565 -2.1207  1.1718
  180MOL0     H23713   2.616   2.936   5.267 -0.1819  0.1569  0.8590
  180MOL0     H23714   2.314   3.023   5.152  0.0765  0.3771  1.4550
  180MOL0     H23715   2.370   2.930   5.283 -2.1860  1.7267  0.7855
  180MOL0     H23716   2.291   2.711   5.140 -0.1656 -0.0833 -0.8652
  180MOL0     H23717   2.231   2.833   5.028  0.6730  0.3696 -0.4824
  180MOL0     H23718   2.056   2.734   5.194  1.9929 -0.7189 -1.4349
  180MOL0     H23719   2.143   2.829   5.320  1.2244 -2.3020 -0.2408
  180MOL0     H23720   2.009   2.952   5.072  1.6283 -2.0247 -0.1740
  180MOL0     H23721   2.089   3.028   5.199  3.1942 -1.4635  0.4940
  180MOL0     H23722   1.670   2.957   5.371 -1.3648  0.5983 -0.9125
  180MOL0     H23723   1.464   2.851   5.297  1.4815  2.3135 -0.2511
  180MOL0     H23724   1.253   2.750   4.865  1.6633 -1.0788  1.6351
  180MOL0     H23725   1.032   2.711   4.788  0.6918 -0.7682  0.1314
  180MOL0     H23726   0.823   2.309   4.872 -2.1599 -2.8368 -0.2635
  180MOL0     H23727   0.931   2.280   4.734 -0.1057  0.8544 -1.6412
  180MOL0     H23728   0.723   2.209   4.657  1.8905 -0.8470  0.2699
  180MOL0     H23729   0.756   2.362   4.585  1.7081 -1.9405 -0.0899
  180MOL0     H23730   0.584   2.465   4.759 -3.0261  0.4745  1.2220
  180MOL0     H23731   0.552   2.317   4.823  3.6240 -1.1996  1.2880
  180MOL0     H23732   0.494   2.422   4.544  0.9442  0.6047 -0.0530
  180MOL0     H23733   0.513   2.262   4.550 -0.1052  1.9795 -2.4145
  180MOL0     H23734   0.325   2.389   4.762 -2.6498  0.1740 -1.7684
  180MOL0     H23735   0.320   2.229   4.704  0.1663 -0.4767  0.3530
  180MOL0     H23736   0.239   2.317   4.481 -0.5878 -1.0863  1.4036
  180MOL0     H23737   0.234   2.483   4.554 -0.1148  0.5118 -1.2144
  180MOL0     H23738   0.104   2.209   4.619 -1.6263  0.4176 -2.5272
  180MOL0     H23739   0.068   2.341   4.728  2.4923 -1.8121  1.9503
  180MOL0     H23740   0.013   2.363   4.425  3.9617  0.4614  0.5911
  180MOL0     H23741  -0.059   2.441   4.562 -1.0413 -0.4050 -0.1758
  180MOL0     H23742   1.092   2.292   4.903  2.3403 -0.1436 -1.6114
  180MOL0     H23743   1.321   2.364   4.964  2.5695  1.6122 -0.4885
  180MOL0     H23744   1.677   2.701   4.949  0.2958  0.1775 -0.9522
  180MOL0     H23745   1.871   2.786   5.024 -2.6595  2.5186 -2.4602
  180MOL0     H23746   3.829   3.493   5.326 -1.0152 -0.1254 -0.2865
  180MOL0     H23747   3.948   3.706   5.289  0.8676 -0.6568  1.0554
  180MOL0     H23748   4.000   4.184   5.352 -0.3641 -2.2567 -1.4573
  180MOL0     H23749   4.073   4.412   5.266 -2.3591  0.6767  0.1755
  180MOL0     H23750   4.085   4.616   4.877  0.1664 -0.3951 -3.1401
  180MOL0     H23751   4.036   4.456   4.828 -1.7755 -1.6483  2.9710
  180MOL0     H23752   4.321   4.586   4.822  1.6819 -1.0615 -2.0501
  180MOL0     H23753   4.302   4.417   4.879 -0.6749  0.6406  0.0505
  180MOL0     H23754   4.187   4.387   4.645  2.8036 -1.9416 -1.2607
  180MOL0     H23755   4.347   4.428   4.637 -0.3766  0.9851 -2.7404
  180MOL0     H23756   4.119   4.638   4.632  0.1301  1.0568 -0.6435
  180MOL0     H23757   4.290   4.693   4.644 -1.1792  1.2986  1.2204
  180MOL0     H23758   4.211   4.591   4.242  0.8533 -0.5161  1.1132
  180MOL0     H23759   4.089   4.253   4.876 -0.8799  1.8965  1.5191
  180MOL0     H23760   3.949   4.051   4.953 -0.8121 -1.4836  0.7367
  181MOL0     O23761   3.072  10.977   9.799  1.1270  0.2197  0.3324
  181MOL0     C23762   3.110  10.865   9.828  0.9243 -0.0767  0.1868
  181MOL0     O23763   3.236  10.828   9.847  0.2612  0.1031 -0.2212
  181MOL0     C23764   3.351  10.898   9.820 -0.0502  0.3961  0.0366
  181MOL0     C23765   3.463  10.825   9.814  0.5430  0.5166  0.3157
  181MOL0     C23766   3.585  10.878   9.780  0.0327 -0.4481 -0.3704
  181MOL0     C23767   3.600  11.014   9.752  0.0074  1.1243 -0.3294
  181MOL0     O23768   3.720  11.065   9.723 -0.0942 -0.3426  0.0631
  181MOL0     C23769   3.805  11.098   9.833  0.5632 -0.2569 -0.6318
  181MOL0     C23770   3.881  11.226   9.808  0.0132  0.3001  0.1070
  181MOL0     C23771   3.975  11.232   9.929 -0.7174  0.6452 -0.5093
  181MOL0     C23772   4.082  11.333   9.915  0.3335 -0.7138  0.0454
  181MOL0     C23773   4.017  11.465   9.914  0.7180 -0.6332 -0.4731
  181MOL0     C23774   4.033  11.542  10.048 -0.6014 -1.1868 -0.2171
  181MOL0     C23775   3.944  11.667  10.063  0.6576 -1.0367  0.3870
  181MOL0     C23776   3.794  11.651  10.113 -1.0630 -0.6734  0.1947
  181MOL0     N23777   3.714  11.563  10.019 -0.2581 -0.5264  0.3022
  181MOL0     C23778   3.649  11.625   9.918 -0.0970  0.4253  0.6053
  181MOL0     C23779   3.559  11.525   9.885  0.4195  0.0461  0.0823
  181MOL0     C23780   3.436  11.546   9.792 -0.1980  0.3292  0.4226
  181MOL0     C23781   3.484  11.557   9.656 -0.1921 -0.0097  0.5163
  181MOL0     C23782   3.369  11.548   9.546  0.5503 -0.6927  0.6286
  181MOL0     C23783   3.396  11.526   9.402 -0.5234  0.2961 -0.4127
  181MOL0     O23784   3.446  11.648   9.339  0.0804 -0.0116 -0.1772
  181MOL0     C23785   3.542  11.633   9.245  0.7407 -0.2252 -0.4267
  181MOL0     C23786   3.671  11.681   9.268 -0.1814 -0.4190 -0.0408
  181MOL0     C23787   3.767  11.683   9.159 -0.2814  1.1172  0.1043
  181MOL0     C23788   3.732  11.630   9.029 -0.0191 -0.2365 -0.4454
  181MOL0     C23789   3.833  11.636   8.916  0.8552 -0.5147 -0.1120
  181MOL0     O23790   3.932  11.724   8.930 -0.2097  0.1766 -0.1470
  181MOL0     C23791   4.057  11.714   8.879 -0.6433 -0.0282  1.2982
  181MOL0     C23792   4.118  11.586   8.862  0.1105 -0.3862  0.2943
  181MOL0     C23793   4.240  11.581   8.804 -0.4533  0.1766  0.8172
  181MOL0     C23794   4.312  11.698   8.754 -0.3658  0.2648 -0.0282
  181MOL0     O23795   4.434  11.693   8.695 -0.1584  0.6508  0.6373
  181MOL0     C23796   4.477  11.581   8.609  0.6996 -0.6116  0.0841
  181MOL0     C23797   4.611  11.618   8.532  0.6337  1.0879 -0.4322
  181MOL0     C23798   4.733  11.580   8.620  0.4876 -0.1103 -0.0676
  181MOL0     C23799   4.859  11.652   8.568  0.1584 -0.6814 -0.3088
  181MOL0     C23800   4.983  11.568   8.615 -0.2940 -0.9523 -0.3750
  181MOL0     C23801   5.122  11.636   8.597 -1.0756 -0.2110 -0.9661
  181MOL0     C23802   5.169  11.655   8.453  0.7727  0.1743  0.7582
  181MOL0     C23803   5.291  11.744   8.444 -0.0126 -0.3529  0.4152
  181MOL0    Cl23804   5.435  11.653   8.511  0.2177  0.0312  0.1536
  181MOL0     C23805   4.259  11.820   8.785 -0.4976  0.5248 -0.2263
  181MOL0     C23806   4.134  11.825   8.833 -0.0845 -0.2768 -0.5973
  181MOL0     O23807   3.823  11.554   8.824 -0.3242  0.7551 -0.7072
  181MOL0     C23808   3.607  11.561   9.013 -0.4197 -0.7075  0.5186
  181MOL0     C23809   3.519  11.564   9.125 -1.0692  0.2440 -0.4688
  181MOL0     N23810   3.573  11.416   9.963 -0.1013  0.5123 -0.1454
  181MOL0     N23811   3.663  11.443  10.047 -0.9519  0.5529  0.8917
  181MOL0     C23812   3.486  11.098   9.758 -0.5356 -0.1040  0.1161
  181MOL0     C23813   3.364  11.035   9.796 -0.6575 -0.0353 -0.5106
  181MOL0     C23814   3.008  10.765   9.873 -0.2711  0.9827 -0.4499
  181MOL0     C23815   2.873  10.802   9.858  0.4341 -0.7074 -0.3815
  181MOL0     C23816   2.775  10.728   9.919 -0.1501 -0.5858 -0.7672
  181MOL0     C23817   2.813  10.614   9.999  0.7061  0.0989 -1.6708
  181MOL0     O23818   2.718  10.523  10.052  0.4802  0.0413  0.5451
  181MOL0     C23819   2.752  10.379  10.052  0.6204  0.0643  0.5377
  181MOL0     C23820   2.632  10.289  10.082 -0.3519 -0.3232  0.1047
  181MOL0     C23821   2.526  10.283   9.971 -0.7925  0.3115  0.2798
  181MOL0     C23822   2.396  10.355  10.017  0.1869  0.4113 -1.4511
  181MOL0     C23823   2.343  10.314  10.148 -0.3762  0.0558 -1.0703
  181MOL0     C23824   2.298  10.274  10.253 -0.6599 -0.7945  0.1507
  181MOL0     C23825   2.953  10.581  10.015 -0.6295 -0.4105  0.5477
  181MOL0     C23826   3.052  10.653   9.949  0.5733 -0.3696 -0.1940
  181MOL0     H23827   3.468  10.719   9.838  0.2132  0.7370  1.4094
  181MOL0     H23828   3.669  10.813   9.802  0.5658  0.1134 -0.6971
  181MOL0     H23829   3.878  11.017   9.837 -0.8495 -1.5645  2.2852
  181MOL0     H23830   3.758  11.098   9.932  3.4104  2.1956  0.8902
  181MOL0     H23831   3.810  11.309   9.812  1.3459  1.4491  0.9006
  181MOL0     H23832   3.933  11.208   9.713 -1.7119  1.0014 -1.0233
  181MOL0     H23833   4.020  11.132   9.937 -2.2577 -0.0344 -0.0469
  181MOL0     H23834   3.916  11.239  10.020 -0.9249 -2.9142 -0.2046
  181MOL0     H23835   4.150  11.325  10.000 -1.1525  0.7593  1.4596
  181MOL0     H23836   4.123  11.320   9.815  0.1408  0.5110 -0.2095
  181MOL0     H23837   3.912  11.465   9.882  0.0819  0.9859  1.3886
  181MOL0     H23838   4.072  11.530   9.846  0.5072 -1.8798 -1.8734
  181MOL0     H23839   4.139  11.569  10.049 -0.5273 -1.4553  0.5474
  181MOL0     H23840   4.010  11.478  10.134  0.8465 -0.2044  0.9496
  181MOL0     H23841   3.996  11.733  10.132 -0.6624 -2.0132  2.4280
  181MOL0     H23842   3.935  11.722   9.969 -0.7068  0.7566  1.4893
  181MOL0     H23843   3.748  11.749  10.128  0.8177  0.0857  1.5465
  181MOL0     H23844   3.786  11.603  10.211 -6.3424 -1.1195 -0.2066
  181MOL0     H23845   3.646  11.729   9.890  2.6078 -0.0624 -2.0309
  181MOL0     H23846   3.387  11.636   9.830  0.5040  0.4999  0.9441
  181MOL0     H23847   3.356  11.472   9.791  1.0090 -1.0441  1.0458
  181MOL0     H23848   3.557  11.478   9.638 -0.4161 -1.1184  3.8664
  181MOL0     H23849   3.552  11.643   9.654  1.9387 -1.4039 -4.4903
  181MOL0     H23850   3.299  11.472   9.584 -0.9237 -1.3128 -2.9556
  181MOL0     H23851   3.308  11.639   9.549 -1.3240 -1.7116 -2.2052
  181MOL0     H23852   3.302  11.502   9.353 -0.6518  0.5975 -0.3185
  181MOL0     H23853   3.470  11.446   9.391 -0.0237  0.6376  0.3321
  181MOL0     H23854   3.685  11.746   9.354  3.0011 -0.2528 -0.5545
  181MOL0     H23855   3.857  11.740   9.179  0.9836 -1.7265  3.4243
  181MOL0     H23856   4.065  11.500   8.902 -4.0653  2.9296  2.6927
  181MOL0     H23857   4.302  11.493   8.789  0.3091  0.9567 -1.0305
  181MOL0     H23858   4.414  11.534   8.532  2.2289 -3.1692  0.2759
  181MOL0     H23859   4.500  11.494   8.671  2.4046 -1.5396 -1.7223
  181MOL0     H23860   4.602  11.722   8.501 -0.0078  0.3624 -2.8715
  181MOL0     H23861   4.614  11.559   8.440 -0.2543 -1.2965  0.9789
  181MOL0     H23862   4.751  11.472   8.613  1.5512  0.1684 -2.4299
  181MOL0     H23863   4.723  11.597   8.728 -0.2217 -1.2967  0.0711
  181MOL0     H23864   4.865  11.662   8.459  0.8653 -3.4962 -0.6147
  181MOL0     H23865   4.860  11.755   8.605  1.8411 -1.1034  0.9492
  181MOL0     H23866   4.976  11.470   8.566  0.0982 -0.9427 -0.4567
  181MOL0     H23867   4.973  11.539   8.720  1.3517  2.0902  0.7460
  181MOL0     H23868   5.182  11.563   8.652 -2.1235 -1.1450 -1.0444
  181MOL0     H23869   5.131  11.728   8.657 -1.6848 -0.3967 -0.5772
  181MOL0     H23870   5.185  11.561   8.400 -2.6404 -0.9944  1.5734
  181MOL0     H23871   5.086  11.702   8.398  0.5891 -1.4808 -0.4405
  181MOL0     H23872   5.273  11.837   8.499  0.1209 -0.6988  1.0535
  181MOL0     H23873   5.319  11.773   8.342 -1.9608  1.8759  0.4282
  181MOL0     H23874   4.311  11.912   8.760  0.2930 -0.0179 -0.6412
  181MOL0     H23875   4.082  11.920   8.821  1.9571  1.1537  1.1045
  181MOL0     H23876   3.573  11.511   8.923  2.6371 -1.2902 -0.4246
  181MOL0     H23877   3.417  11.526   9.115 -0.4796 -1.1767 -1.5372
  181MOL0     H23878   3.499  11.206   9.754 -3.2314  0.3320  0.9443
  181MOL0     H23879   3.278  11.101   9.807  0.8284  2.4842 -2.6260
  181MOL0     H23880   2.857  10.889   9.795  3.2231 -0.1718 -0.4458
  181MOL0     H23881   2.672  10.762   9.916  0.0759  0.0525 -2.3284
  181MOL0     H23882   2.824  10.369  10.134  3.6837 -1.2430 -2.0963
  181MOL0     H23883   2.794  10.343   9.958  1.8814 -0.7867  1.3964
  181MOL0     H23884   2.675  10.189  10.095  0.3537  0.1511  1.7419
  181MOL0     H23885   2.581  10.313  10.176  1.2952  2.8564  0.3191
  181MOL0     H23886   2.500  10.177   9.964  3.6605 -1.2463  3.3115
  181MOL0     H23887   2.566  10.323   9.877 -0.2120  0.4946  0.6003
  181MOL0     H23888   2.425  10.457  10.043 -2.7828  0.2236  4.3082
  181MOL0     H23889   2.323  10.359   9.935  1.5913  1.3497 -2.6946
  181MOL0     H23890   2.245  10.236  10.338 -2.9205 -2.8153 -1.9917
  181MOL0     H23891   2.991  10.497  10.072 -5.3064 -0.5798  4.0048
  181MOL0     H23892   3.155  10.619   9.953  2.3423  4.2884  1.2509
  182MOL0     O23893  10.165   6.087   8.586 -0.2567 -0.1695  0.1054
  182MOL0     C23894  10.137   6.126   8.470  0.1532  0.2596  0.1476
  182MOL0     O23895  10.008   6.150   8.426 -0.3381 -0.3207 -0.2896
  182MOL0     C23896   9.903   6.099   8.498  0.2023  0.2479  0.1269
  182MOL0     C23897   9.860   6.166   8.616 -0.4121  0.1243 -0.5021
  182MOL0     C23898   9.757   6.109   8.700 -0.5021  0.0451  0.4910
  182MOL0     C23899   9.704   5.984   8.648 -0.6003  0.2536 -0.7495
  182MOL0     O23900   9.606   5.904   8.703  0.2224 -0.3383 -0.3517
  182MOL0     C23901   9.553   5.948   8.836  0.2962  0.9591  1.3059
  182MOL0     C23902   9.441   5.844   8.879 -0.1918 -0.0591  0.0523
  182MOL0     C23903   9.335   5.832   8.772 -0.2133  0.5325  0.4469
  182MOL0     C23904   9.205   5.790   8.838  0.0481  0.5172  0.9522
  182MOL0     C23905   9.097   5.754   8.726 -0.2242 -1.5422 -1.1581
  182MOL0     C23906   9.112   5.608   8.667  0.3388  0.9964 -1.7813
  182MOL0     C23907   8.985   5.576   8.595 -0.5659  0.3030  0.1542
  182MOL0     C23908   8.995   5.444   8.529  0.1391  0.0052  0.1136
  182MOL0     N23909   8.882   5.415   8.443  0.1560 -0.2396 -0.1845
  182MOL0     C23910   8.844   5.485   8.329  0.4957  0.0190  0.3102
  182MOL0     C23911   8.724   5.426   8.299  0.5675 -0.2237 -0.0180
  182MOL0     C23912   8.648   5.457   8.183  0.0429  0.1501 -0.4336
  182MOL0     C23913   8.532   5.549   8.202 -1.1116  0.1751  0.1076
  182MOL0     C23914   8.425   5.479   8.279 -0.1418 -0.6138 -0.8623
  182MOL0     C23915   8.319   5.570   8.327  0.1868  0.4765 -1.0261
  182MOL0     O23916   8.297   5.689   8.248  0.1660 -0.6926 -0.0129
  182MOL0     C23917   8.175   5.713   8.202 -0.1833 -0.2228 -0.7342
  182MOL0     C23918   8.119   5.636   8.100 -0.1536 -0.4690 -0.5578
  182MOL0     C23919   7.987   5.665   8.054 -0.9731  0.3608 -0.8295
  182MOL0     C23920   7.910   5.766   8.108 -0.7699  0.8140  0.2122
  182MOL0     C23921   7.769   5.788   8.057 -0.1067  0.2895 -0.4878
  182MOL0     O23922   7.684   5.865   8.136  0.2043  0.4452 -0.0834
  182MOL0     C23923   7.552   5.887   8.118  0.7710  0.7905  0.0144
  182MOL0     C23924   7.476   5.958   8.214 -0.1917 -1.0310 -0.0430
  182MOL0     C23925   7.335   5.967   8.215  0.2746  0.0044  0.5156
  182MOL0     C23926   7.263   5.923   8.105  0.6724  0.4071  0.4604
  182MOL0     O23927   7.130   5.945   8.117  0.9967 -0.5242 -0.1142
  182MOL0     C23928   7.044   5.888   8.019 -0.0509 -1.4453  0.2565
  182MOL0     C23929   6.901   5.950   8.036  0.5680 -0.7037  0.5672
  182MOL0     C23930   6.804   5.913   7.926 -0.0390 -0.9011  0.1666
  182MOL0     C23931   6.651   5.960   7.944 -0.2102  0.1349 -0.2344
  182MOL0     C23932   6.575   5.920   7.826 -0.3565 -0.7436 -0.4722
  182MOL0     C23933   6.435   5.979   7.851  1.3041  0.7950  0.7631
  182MOL0     C23934   6.347   5.986   7.729 -0.5334 -0.3248  0.8444
  182MOL0     C23935   6.205   6.040   7.744  0.3031 -0.1665 -0.1365
  182MOL0    Cl23936   6.137   6.072   7.588  0.4275 -0.0776 -0.2685
  182MOL0     C23937   7.333   5.863   7.999  0.5100 -0.7161 -0.1262
  182MOL0     C23938   7.471   5.843   8.002 -1.0425  0.8437  0.2624
  182MOL0     O23939   7.736   5.715   7.959 -0.0893  0.9557 -0.1751
  182MOL0     C23940   7.969   5.842   8.210  0.5321  0.0501  0.5792
  182MOL0     C23941   8.101   5.821   8.248  0.4206 -0.5291 -0.0954
  182MOL0     N23942   8.699   5.318   8.387 -0.3060  0.4071 -0.9790
  182MOL0     N23943   8.793   5.318   8.476  0.3550  0.1569  0.5762
  182MOL0     C23944   9.748   5.921   8.524  0.4776 -0.5541 -0.9876
  182MOL0     C23945   9.846   5.979   8.456 -0.2838 -0.0532  0.3166
  182MOL0     C23946  10.247   6.120   8.374 -0.4351  0.2635 -0.9908
  182MOL0     C23947  10.382   6.074   8.397 -0.0542 -0.6061  0.3420
  182MOL0     C23948  10.483   6.077   8.295 -0.4754  0.1848  0.1634
  182MOL0     C23949  10.445   6.124   8.162 -0.0458  0.5963 -0.6431
  182MOL0     O23950  10.531   6.109   8.055  0.3139  0.3604 -0.8766
  182MOL0     C23951  10.667   6.092   8.084 -0.4717  0.0532  0.3006
  182MOL0     C23952  10.733   6.108   7.946  0.1647 -0.8426 -0.7503
  182MOL0     C23953  10.879   6.117   7.943  0.0698  0.3777 -0.1005
  182MOL0     C23954  10.955   6.028   8.033  0.0802  1.0122 -0.2651
  182MOL0     C23955  11.101   6.035   8.012  0.3034  0.1861  0.0542
  182MOL0     C23956  11.219   6.042   7.988 -0.4850 -0.5469  0.6541
  182MOL0     C23957  10.315   6.171   8.145 -1.0721  0.2919  0.1756
  182MOL0     C23958  10.220   6.168   8.249  0.8966  0.3792 -0.2084
  182MOL0     H23959   9.922   6.252   8.637  2.1374 -0.9649 -2.9541
  182MOL0     H23960   9.723   6.156   8.792 -2.2921  1.0127 -0.5887
  182MOL0     H23961   9.497   6.041   8.822 -2.9459 -1.1585 -1.4938
  182MOL0     H23962   9.629   5.962   8.914 -1.2107 -4.1984  4.2169
  182MOL0     H23963   9.395   5.882   8.971  0.7293  0.3094  0.3746
  182MOL0     H23964   9.490   5.748   8.896  0.0517  0.4468  2.5767
  182MOL0     H23965   9.364   5.758   8.697  3.6038  1.6322  0.6251
  182MOL0     H23966   9.323   5.926   8.716  1.7379  1.3818  1.3497
  182MOL0     H23967   9.218   5.695   8.891  0.7476  0.7801  1.2678
  182MOL0     H23968   9.166   5.861   8.912 -4.4475 -0.3133 -0.3313
  182MOL0     H23969   9.097   5.831   8.648 -1.5717 -1.8113 -1.4551
  182MOL0     H23970   8.994   5.768   8.761  0.3667  0.0738  0.1207
  182MOL0     H23971   9.125   5.538   8.750 -0.0601  1.8298 -0.9842
  182MOL0     H23972   9.201   5.589   8.607 -0.0361 -1.2441 -1.7114
  182MOL0     H23973   8.900   5.567   8.663 -1.1719 -0.6355 -0.6944
  182MOL0     H23974   8.962   5.659   8.527  1.8505  1.4706  0.6363
  182MOL0     H23975   8.999   5.367   8.607  0.2199  0.6045  0.7140
  182MOL0     H23976   9.087   5.436   8.470  0.7370  0.7421  0.9127
  182MOL0     H23977   8.892   5.558   8.265  3.0775 -2.6722 -1.0399
  182MOL0     H23978   8.614   5.366   8.132 -0.1044  0.7176 -1.3759
  182MOL0     H23979   8.716   5.516   8.121 -0.0347  0.4668 -0.2216
  182MOL0     H23980   8.495   5.568   8.100  2.0081 -1.4955 -1.5056
  182MOL0     H23981   8.565   5.639   8.255  0.4107  1.4744 -2.7379
  182MOL0     H23982   8.378   5.405   8.214 -2.1990  0.8257 -1.1218
  182MOL0     H23983   8.460   5.428   8.369 -0.5572  0.9420  0.2346
  182MOL0     H23984   8.340   5.606   8.429 -3.5340  1.8645 -0.6112
  182MOL0     H23985   8.231   5.506   8.335  1.7409 -1.5971  1.2873
  182MOL0     H23986   8.176   5.554   8.058  2.0286 -2.1498  4.8959
  182MOL0     H23987   7.950   5.593   7.982  1.2475  0.0268 -1.7202
  182MOL0     H23988   7.516   6.007   8.301 -2.2215 -1.8330  1.4179
  182MOL0     H23989   7.289   6.037   8.285  0.2216  2.9756 -2.2540
  182MOL0     H23990   7.047   5.780   8.035  1.1947 -1.3125  1.0904
  182MOL0     H23991   7.081   5.917   7.920 -0.6191 -0.9610  0.1806
  182MOL0     H23992   6.912   6.059   8.035  0.8085 -0.7158 -1.1816
  182MOL0     H23993   6.862   5.926   8.135  0.6063  1.8440  1.2760
  182MOL0     H23994   6.806   5.804   7.911  6.1563 -0.7091 -4.0444
  182MOL0     H23995   6.843   5.954   7.833 -3.4400  0.8515 -0.6706
  182MOL0     H23996   6.607   5.917   8.034  1.1553 -0.4075  0.2131
  182MOL0     H23997   6.680   6.063   7.970  3.3054 -0.9172  0.6602
  182MOL0     H23998   6.564   5.812   7.818 -0.3791 -0.8974  1.2506
  182MOL0     H23999   6.619   5.950   7.730 -0.1892  0.5565 -0.0156
  182MOL0     H24000   6.435   6.080   7.893 -4.4183  0.8657  1.3965
  182MOL0     H24001   6.380   5.921   7.925  1.6106  3.5651  3.3221
  182MOL0     H24002   6.389   6.058   7.657 -2.8609 -0.8409 -1.1696
  182MOL0     H24003   6.354   5.888   7.682  2.5786  0.7057 -1.1311
  182MOL0     H24004   6.207   6.137   7.793  2.5783  0.8346 -2.0219
  182MOL0     H24005   6.153   5.968   7.808  0.3712  1.3284  1.6399
  182MOL0     H24006   7.280   5.840   7.908  1.6001  2.2510 -1.6497
  182MOL0     H24007   7.519   5.794   7.918 -0.7988 -2.0304  1.9302
  182MOL0     H24008   7.906   5.924   8.244  1.1985  1.0872 -0.5973
  182MOL0     H24009   8.148   5.878   8.327 -2.0371 -0.2551  1.2656
  182MOL0     H24010   9.709   5.824   8.494 -0.5914 -0.1752 -0.8249
  182MOL0     H24011   9.882   5.951   8.357 -2.3128  0.3764 -0.5922
  182MOL0     H24012  10.401   6.049   8.501  0.8727  2.2236  0.9554
  182MOL0     H24013  10.579   6.032   8.317 -0.8800 -0.6735  0.2080
  182MOL0     H24014  10.683   5.987   8.109  2.9834  0.0023 -1.4494
  182MOL0     H24015  10.703   6.160   8.162  0.7108 -1.9736  1.6143
  182MOL0     H24016  10.706   6.022   7.884 -1.4270 -0.9704  0.0774
  182MOL0     H24017  10.690   6.194   7.895 -3.8989 -3.6287 -2.5186
  182MOL0     H24018  10.907   6.220   7.968 -2.1249  1.1765 -0.7140
  182MOL0     H24019  10.914   6.101   7.841 -3.5577 -1.1806 -1.2492
  182MOL0     H24020  10.944   6.051   8.140  2.1954 -0.9232  0.4362
  182MOL0     H24021  10.935   5.923   8.011 -0.7618  1.3149 -1.0244
  182MOL0     H24022  11.318   6.081   7.976 -0.4451 -1.0266 -0.7741
  182MOL0     H24023  10.299   6.223   8.051  0.0838  3.8839  1.7636
  182MOL0     H24024  10.136   6.229   8.217  0.3139 -0.2896  0.0384
  183MOL0     O24025  10.135   7.209   5.139 -0.2239 -0.5203 -0.7054
  183MOL0     C24026  10.111   7.216   5.261 -0.3480 -0.3944 -0.0498
  183MOL0     O24027   9.985   7.206   5.308 -0.1879  0.0998 -0.3167
  183MOL0     C24028   9.896   7.152   5.223  0.4664 -0.7634  0.1601
  183MOL0     C24029   9.799   7.230   5.154  1.1462  0.2678 -0.0919
  183MOL0     C24030   9.697   7.167   5.076 -0.6531 -0.3528 -0.1854
  183MOL0     C24031   9.700   7.026   5.069  0.3568 -0.1817 -0.2940
  183MOL0     O24032   9.586   6.975   5.006 -0.4161 -0.3654  0.0652
  183MOL0     C24033   9.549   6.839   5.032 -0.2505 -1.0410 -0.0931
  183MOL0     C24034   9.393   6.821   5.007  0.7015 -0.8719  0.1664
  183MOL0     C24035   9.337   6.836   4.863  1.2809 -0.6570 -0.8223
  183MOL0     C24036   9.424   6.787   4.743  0.1762  0.5143  0.1366
  183MOL0     C24037   9.411   6.631   4.728  0.4042  0.0987  0.3439
  183MOL0     C24038   9.286   6.570   4.668  1.9847 -0.2991  0.3289
  183MOL0     C24039   9.269   6.419   4.661  0.2349 -1.5523 -0.3328
  183MOL0     C24040   9.170   6.361   4.759  0.3198 -0.2308  0.2942
  183MOL0     N24041   9.054   6.323   4.687 -0.9485  0.7107 -0.3303
  183MOL0     C24042   8.943   6.399   4.697  0.8334  0.5745  1.0820
  183MOL0     C24043   8.855   6.344   4.596  0.9038 -0.0150 -0.1408
  183MOL0     C24044   8.715   6.388   4.568  1.2102 -0.9858  0.9513
  183MOL0     C24045   8.618   6.269   4.564 -0.1718 -0.8713  0.7520
  183MOL0     C24046   8.478   6.312   4.510 -0.1577  0.3119 -0.7180
  183MOL0     C24047   8.428   6.450   4.549 -0.6167 -0.3484 -0.1093
  183MOL0     O24048   8.292   6.457   4.525  0.5034 -0.3016 -0.7823
  183MOL0     C24049   8.218   6.572   4.512 -0.1420 -0.4641  0.5722
  183MOL0     C24050   8.259   6.696   4.554  0.8922  0.1282 -0.2289
  183MOL0     C24051   8.168   6.802   4.552 -0.9873 -0.3874 -0.4351
  183MOL0     C24052   8.025   6.788   4.530 -0.9744  0.1646  0.8738
  183MOL0     C24053   7.935   6.904   4.533  0.0296 -0.3471  0.8472
  183MOL0     O24054   7.809   6.878   4.497 -0.3435 -1.0612 -0.3088
  183MOL0     C24055   7.717   6.982   4.511 -0.2524 -0.5442  0.0279
  183MOL0     C24056   7.657   7.034   4.394  0.5072  0.6139 -0.6738
  183MOL0     C24057   7.562   7.134   4.396  0.0753  0.7691 -0.5614
  183MOL0     C24058   7.521   7.178   4.524 -0.4417 -0.2211  0.0660
  183MOL0     O24059   7.417   7.271   4.546 -0.2183  0.3674  0.4250
  183MOL0     C24060   7.339   7.323   4.433 -0.9947  0.1410  0.2435
  183MOL0     C24061   7.222   7.414   4.470  0.2866  0.2608 -0.9186
  183MOL0     C24062   7.136   7.345   4.576  0.0729  0.5857  0.3131
  183MOL0     C24063   7.032   7.442   4.639  0.3966  1.1849 -0.2390
  183MOL0     C24064   6.956   7.537   4.553 -0.4044  0.3957 -0.3313
  183MOL0     C24065   6.825   7.587   4.611 -0.1840  0.1450 -0.7998
  183MOL0     C24066   6.720   7.483   4.566  0.1024 -0.4220 -0.4247
  183MOL0     C24067   6.588   7.505   4.629 -0.7242  0.0897 -0.0649
  183MOL0    Cl24068   6.583   7.429   4.797 -0.3949  0.1015  0.0775
  183MOL0     C24069   7.585   7.140   4.638  0.8005  0.4979 -0.3431
  183MOL0     C24070   7.675   7.031   4.635  0.6728 -0.1705 -0.6949
  183MOL0     O24071   7.982   7.007   4.575  0.3721  0.1892 -0.2951
  183MOL0     C24072   7.992   6.665   4.476 -0.8187 -0.3270  0.4929
  183MOL0     C24073   8.083   6.557   4.467 -0.2171  0.4215 -0.6666
  183MOL0     N24074   8.926   6.237   4.548 -0.0431 -0.6768 -0.5192
  183MOL0     N24075   9.042   6.217   4.600  0.2212  0.3918  0.5099
  183MOL0     C24076   9.804   6.954   5.131 -0.2224 -0.9197  0.1600
  183MOL0     C24077   9.896   7.015   5.200  0.6668  0.5364  0.5228
  183MOL0     C24078  10.219   7.271   5.350  0.0319 -0.9517  0.5005
  183MOL0     C24079  10.353   7.301   5.306  0.5542 -0.4270 -0.2686
  183MOL0     C24080  10.445   7.353   5.402  0.4561 -0.1065  0.4778
  183MOL0     C24081  10.399   7.383   5.528 -0.5153 -0.7900  0.0618
  183MOL0     O24082  10.497   7.437   5.602  0.2916  0.6178 -0.5184
  183MOL0     C24083  10.480   7.470   5.749  0.6374  0.1905  0.3919
  183MOL0     C24084  10.596   7.535   5.794 -0.9284 -0.1792 -0.6308
  183MOL0     C24085  10.632   7.659   5.716 -0.6893  0.2062  0.2387
  183MOL0     C24086  10.546   7.781   5.755 -0.8623 -0.0803  1.4281
  183MOL0     C24087  10.560   7.905   5.680  0.0425  0.6667 -1.0443
  183MOL0     C24088  10.591   7.995   5.615 -0.1274 -0.8858  0.7002
  183MOL0     C24089  10.270   7.363   5.577 -0.2019 -0.4105 -0.5953
  183MOL0     C24090  10.181   7.310   5.480 -0.1933  0.0627 -0.7275
  183MOL0     H24091   9.779   7.330   5.192 -1.2019 -0.3402  0.4196
  183MOL0     H24092   9.615   7.224   5.033 -0.2622 -0.9988 -1.8413
  183MOL0     H24093   9.576   6.812   5.134 -1.7911 -1.6473  0.1830
  183MOL0     H24094   9.611   6.779   4.964  4.2408  3.9407 -1.0435
  183MOL0     H24095   9.335   6.886   5.073 -0.9295 -0.7453 -1.3161
  183MOL0     H24096   9.372   6.718   5.040 -0.2364 -0.1920  1.8455
  183MOL0     H24097   9.327   6.944   4.848 -0.2477 -0.6552  0.0175
  183MOL0     H24098   9.238   6.787   4.860  1.4086 -1.3897  2.8024
  183MOL0     H24099   9.394   6.852   4.660 -0.3278  2.6805  1.9289
  183MOL0     H24100   9.531   6.803   4.756  0.4748 -0.8026 -0.5094
  183MOL0     H24101   9.427   6.581   4.824 -0.1071  2.5268  1.7890
  183MOL0     H24102   9.490   6.593   4.663 -0.9635 -1.2375 -0.6177
  183MOL0     H24103   9.276   6.609   4.566  1.2551  0.9448  0.8592
  183MOL0     H24104   9.204   6.615   4.724 -0.8724 -3.2947 -1.0882
  183MOL0     H24105   9.262   6.392   4.556 -0.4731  0.7262 -0.9400
  183MOL0     H24106   9.367   6.379   4.690  1.1936  0.0897 -1.1744
  183MOL0     H24107   9.157   6.431   4.842 -3.1041 -0.2107 -0.1368
  183MOL0     H24108   9.206   6.265   4.799  0.9894 -1.2661 -2.5659
  183MOL0     H24109   8.933   6.484   4.764 -1.3623  0.4070  1.0532
  183MOL0     H24110   8.720   6.430   4.467 -2.5069 -1.7707  0.3018
  183MOL0     H24111   8.694   6.469   4.639 -0.1981  2.0739 -2.6113
  183MOL0     H24112   8.600   6.224   4.662 -0.8519  1.6633  1.8601
  183MOL0     H24113   8.663   6.191   4.502  0.7786  0.7203 -0.6621
  183MOL0     H24114   8.487   6.311   4.401  0.5572  1.6519 -0.7011
  183MOL0     H24115   8.407   6.238   4.546  0.0143  0.5879  0.2131
  183MOL0     H24116   8.472   6.534   4.493 -1.7615  1.8793  2.1148
  183MOL0     H24117   8.448   6.462   4.655 -3.0095 -4.2212  0.9714
  183MOL0     H24118   8.364   6.718   4.573  1.4771  0.2313 -3.1544
  183MOL0     H24119   8.196   6.896   4.597  0.4533 -1.9640  2.2035
  183MOL0     H24120   7.681   6.990   4.297 -0.9381 -1.6876 -0.0748
  183MOL0     H24121   7.520   7.184   4.310 -0.6227  0.1898 -0.5726
  183MOL0     H24122   7.291   7.245   4.372 -4.1017  0.9946  1.4180
  183MOL0     H24123   7.413   7.375   4.371 -1.8397  3.2412  1.6323
  183MOL0     H24124   7.158   7.450   4.390 -2.7120  3.1263  2.4062
  183MOL0     H24125   7.270   7.495   4.526  1.0493 -0.4688 -0.4855
  183MOL0     H24126   7.196   7.304   4.657 -1.8887 -1.6150  0.7284
  183MOL0     H24127   7.097   7.257   4.524  2.7022 -1.1145  1.0402
  183MOL0     H24128   6.959   7.378   4.690  1.9328 -0.7716 -0.4192
  183MOL0     H24129   7.081   7.498   4.719 -1.1500  0.9559  0.9285
  183MOL0     H24130   6.932   7.488   4.458 -0.8159  2.3276 -1.2895
  183MOL0     H24131   7.017   7.625   4.528  1.4262 -0.1551  1.9314
  183MOL0     H24132   6.804   7.686   4.571 -1.1198  0.7528  1.0668
  183MOL0     H24133   6.828   7.585   4.721 -3.2596 -1.5196 -0.6379
  183MOL0     H24134   6.699   7.470   4.460 -1.1767 -4.0168  0.0919
  183MOL0     H24135   6.753   7.389   4.612 -0.0492 -1.3038 -2.0593
  183MOL0     H24136   6.516   7.457   4.563  0.5581 -0.1227 -1.3684
  183MOL0     H24137   6.578   7.613   4.642  0.6341  0.3516 -1.0399
  183MOL0     H24138   7.559   7.192   4.729 -0.1538  0.4215 -0.5664
  183MOL0     H24139   7.727   6.992   4.722  2.9614  0.1605 -1.8412
  183MOL0     H24140   7.889   6.640   4.452  0.2244 -3.5901 -1.1875
  183MOL0     H24141   8.059   6.454   4.442  0.8736 -0.0200  0.0713
  183MOL0     H24142   9.796   6.846   5.143 -0.9581 -0.7173  1.6379
  183MOL0     H24143   9.977   6.949   5.231  1.6190 -0.0466 -2.7394
  183MOL0     H24144  10.394   7.282   5.208  0.7712 -1.9814  0.0940
  183MOL0     H24145  10.549   7.373   5.378  0.7683 -0.7417  1.2475
  183MOL0     H24146  10.473   7.380   5.811  0.5328 -0.2419 -0.2362
  183MOL0     H24147  10.391   7.530   5.765  1.2770  1.6919 -1.3424
  183MOL0     H24148  10.591   7.571   5.897  0.4775  1.2160 -1.0183
  183MOL0     H24149  10.678   7.462   5.794 -0.4832  0.2862  0.9088
  183MOL0     H24150  10.611   7.645   5.610  0.6467  1.8374 -0.2904
  183MOL0     H24151  10.741   7.674   5.718 -0.6989  2.4218 -4.1861
  183MOL0     H24152  10.441   7.750   5.750 -0.8935 -0.0118  1.6477
  183MOL0     H24153  10.573   7.800   5.859  0.6112 -0.1622  1.0750
  183MOL0     H24154  10.631   8.080   5.564  0.0846 -0.4587  1.5604
  183MOL0     H24155  10.237   7.402   5.673 -1.0674 -1.6193 -0.3791
  183MOL0     H24156  10.080   7.306   5.518  0.1329 -2.5446  0.0865
  184MOL0     O24157   0.003   0.671   7.039  0.0001 -0.5508 -0.7076
  184MOL0     C24158   0.110   0.680   7.089 -1.1894 -0.0057  0.4744
  184MOL0     O24159   0.143   0.737   7.204 -0.2220 -0.9268  0.3838
  184MOL0     C24160   0.035   0.773   7.274  0.5239 -0.0197 -0.5100
  184MOL0     C24161  -0.020   0.901   7.251  0.9582  0.5175 -0.5568
  184MOL0     C24162  -0.148   0.947   7.307 -0.4294  0.8995 -0.1340
  184MOL0     C24163  -0.215   0.857   7.394  0.1770 -0.4418  1.2527
  184MOL0     O24164  -0.344   0.880   7.446  0.5408  0.4550 -0.5695
  184MOL0     C24165  -0.408   1.005   7.426  0.3680 -0.5633  0.0599
  184MOL0     C24166  -0.358   1.118   7.523 -0.5861  0.3717  0.7777
  184MOL0     C24167  -0.476   1.217   7.548  0.3128 -0.0263  0.0625
  184MOL0     C24168  -0.436   1.334   7.642 -0.3705  0.4057 -0.3820
  184MOL0     C24169  -0.558   1.418   7.680 -0.1898  0.3536 -0.7082
  184MOL0     C24170  -0.523   1.530   7.777 -0.2399 -0.6832  0.3834
  184MOL0     C24171  -0.638   1.636   7.782 -1.0141 -0.4933 -0.9441
  184MOL0     C24172  -0.606   1.759   7.858  0.6036 -0.4511  0.0261
  184MOL0     N24173  -0.545   1.721   7.984 -0.8318 -0.4501 -0.5987
  184MOL0     C24174  -0.602   1.660   8.096  0.1872  0.1101  0.0207
  184MOL0     C24175  -0.503   1.642   8.189  0.4362  0.2723 -0.7733
  184MOL0     C24176  -0.513   1.583   8.330 -0.2301  0.4718 -0.5866
  184MOL0     C24177  -0.433   1.666   8.433 -0.1750 -0.0914  0.8844
  184MOL0     C24178  -0.498   1.797   8.466 -0.2542 -1.1713  1.6238
  184MOL0     C24179  -0.420   1.921   8.418  0.2695 -0.3920  0.1791
  184MOL0     O24180  -0.466   2.050   8.455  0.6873  0.5656  0.0426
  184MOL0     C24181  -0.506   2.086   8.580  0.7730 -0.3557 -0.6577
  184MOL0     C24182  -0.463   2.035   8.701  0.3692  0.2304  0.8672
  184MOL0     C24183  -0.523   2.070   8.820 -0.0890 -0.1535  0.0812
  184MOL0     C24184  -0.609   2.176   8.830  1.3442 -0.2705  0.3712
  184MOL0     C24185  -0.665   2.223   8.964  0.5209  0.8553  0.1862
  184MOL0     O24186  -0.767   2.318   8.956  0.4530  0.2727  0.3143
  184MOL0     C24187  -0.814   2.372   9.073 -0.3789  0.6744 -0.4814
  184MOL0     C24188  -0.860   2.499   9.054  1.0974 -0.3324 -0.8128
  184MOL0     C24189  -0.927   2.568   9.159  0.1215 -0.0602  0.8987
  184MOL0     C24190  -0.958   2.503   9.280 -0.1605 -0.1545  0.1457
  184MOL0     O24191  -1.028   2.555   9.389 -0.1897 -0.2691 -1.2283
  184MOL0     C24192  -1.100   2.682   9.374 -0.0854 -0.2115  0.8090
  184MOL0     C24193  -1.205   2.703   9.474  0.1159  0.0363 -0.3248
  184MOL0     C24194  -1.138   2.717   9.615 -0.5547 -0.3741  0.3807
  184MOL0     C24195  -1.240   2.702   9.719  1.0387 -0.9591 -0.4651
  184MOL0     C24196  -1.184   2.691   9.852  0.8085  0.4674  0.6475
  184MOL0     C24197  -1.118   2.817   9.905 -0.1583 -0.7872 -0.1102
  184MOL0     C24198  -1.206   2.948   9.923 -0.8680  0.5473  0.3589
  184MOL0     C24199  -1.131   3.048  10.006 -0.4156  0.2321  0.2177
  184MOL0    Cl24200  -0.960   3.074   9.951  0.2066  0.1494  0.1427
  184MOL0     C24201  -0.910   2.370   9.289  0.5766  0.0469 -0.5387
  184MOL0     C24202  -0.850   2.307   9.185 -0.8149 -0.5278  0.6610
  184MOL0     O24203  -0.619   2.172   9.069 -0.4817  0.3039  0.2484
  184MOL0     C24204  -0.648   2.243   8.707  0.2674 -0.0542  0.1341
  184MOL0     C24205  -0.595   2.194   8.589 -0.1119 -0.3963  0.1721
  184MOL0     N24206  -0.390   1.699   8.139 -0.3948 -0.7409  0.2503
  184MOL0     N24207  -0.420   1.741   8.019 -0.7556  0.0982 -0.3293
  184MOL0     C24208  -0.157   0.729   7.423 -0.4528 -0.9456  0.2075
  184MOL0     C24209  -0.031   0.700   7.370 -0.1391  0.7398  0.0042
  184MOL0     C24210   0.220   0.619   7.009  0.2434  0.7946  0.0655
  184MOL0     C24211   0.214   0.595   6.874  0.1542  0.8100 -0.2037
  184MOL0     C24212   0.301   0.511   6.801 -0.8664  0.3691  0.5668
  184MOL0     C24213   0.416   0.461   6.872  1.3720  0.1614  0.4791
  184MOL0     O24214   0.516   0.388   6.824  0.9287  0.0778  0.3050
  184MOL0     C24215   0.501   0.319   6.700  0.3389  0.8061  0.6113
  184MOL0     C24216   0.573   0.391   6.588 -0.9417  0.0856 -0.6552
  184MOL0     C24217   0.542   0.333   6.451 -0.7168 -0.8852  0.2474
  184MOL0     C24218   0.622   0.390   6.338 -0.2185  0.7139  0.1236
  184MOL0     C24219   0.759   0.343   6.359 -0.1159  0.6168  1.1215
  184MOL0     C24220   0.867   0.289   6.339 -0.5653 -0.1752 -0.2980
  184MOL0     C24221   0.437   0.505   7.001  0.1835  0.6960  0.3302
  184MOL0     C24222   0.338   0.575   7.068 -0.3015 -0.1412 -0.9553
  184MOL0     H24223   0.014   0.964   7.170 -0.4880  1.3569 -0.5524
  184MOL0     H24224  -0.185   1.047   7.291 -1.0456  0.5418 -1.0858
  184MOL0     H24225  -0.515   0.992   7.447 -0.3491  2.1889 -1.4156
  184MOL0     H24226  -0.404   1.044   7.324 -0.0106  0.2667  0.3566
  184MOL0     H24227  -0.271   1.169   7.480 -0.5211 -2.4139 -2.9084
  184MOL0     H24228  -0.329   1.062   7.612  2.4811 -0.9957 -0.9409
  184MOL0     H24229  -0.564   1.162   7.581  0.2478 -1.4220 -2.2775
  184MOL0     H24230  -0.497   1.263   7.451 -0.3360 -2.2267 -0.9048
  184MOL0     H24231  -0.382   1.288   7.725  1.0882 -1.4303 -2.2196
  184MOL0     H24232  -0.364   1.392   7.583 -0.9622 -0.6351 -2.2333
  184MOL0     H24233  -0.640   1.365   7.731 -0.1568  0.3830 -0.6238
  184MOL0     H24234  -0.597   1.446   7.582  2.7766 -1.5234 -2.6028
  184MOL0     H24235  -0.437   1.571   7.723 -2.0287  0.1694 -2.0096
  184MOL0     H24236  -0.483   1.499   7.873  1.5834  1.2055  0.2949
  184MOL0     H24237  -0.656   1.673   7.681  1.8885 -1.0671 -1.7575
  184MOL0     H24238  -0.716   1.580   7.834  0.9733 -1.1708  1.5269
  184MOL0     H24239  -0.703   1.807   7.869  0.9227  0.4957 -1.1234
  184MOL0     H24240  -0.543   1.825   7.797  2.1727 -1.9430 -0.0870
  184MOL0     H24241  -0.705   1.629   8.108 -0.3977  0.9567 -2.2189
  184MOL0     H24242  -0.486   1.477   8.327  2.1758  1.0404 -0.3332
  184MOL0     H24243  -0.620   1.589   8.354 -0.1196  3.3331 -0.5343
  184MOL0     H24244  -0.329   1.694   8.413  0.2372 -0.6596  2.1495
  184MOL0     H24245  -0.421   1.594   8.514  0.5366 -0.8399  0.1388
  184MOL0     H24246  -0.594   1.809   8.415  0.5503 -0.2832  0.2449
  184MOL0     H24247  -0.513   1.810   8.574 -0.7787  1.9098  1.2837
  184MOL0     H24248  -0.418   1.915   8.309 -1.3403 -3.6537  0.2066
  184MOL0     H24249  -0.322   1.913   8.466 -0.7832 -1.8812  2.2274
  184MOL0     H24250  -0.398   1.948   8.702 -1.0181 -0.9055 -0.6010
  184MOL0     H24251  -0.484   2.009   8.901  0.3365  0.0722  0.0540
  184MOL0     H24252  -0.851   2.555   8.961  2.7697 -0.8041 -0.9737
  184MOL0     H24253  -0.954   2.673   9.152 -2.8219 -0.7558  0.1879
  184MOL0     H24254  -1.152   2.672   9.279 -0.7770 -1.1992  1.2676
  184MOL0     H24255  -1.029   2.764   9.368 -2.4469  1.9407  0.8081
  184MOL0     H24256  -1.270   2.615   9.477 -0.6896  0.6505  1.3951
  184MOL0     H24257  -1.269   2.788   9.450 -1.7866 -1.7719 -2.1172
  184MOL0     H24258  -1.085   2.812   9.628 -2.4478  0.8674 -0.4992
  184MOL0     H24259  -1.067   2.635   9.625  0.9558  0.3648 -2.7969
  184MOL0     H24260  -1.313   2.783   9.703  1.5654 -0.9478 -3.6089
  184MOL0     H24261  -1.308   2.620   9.696 -0.7817  0.9041 -2.2181
  184MOL0     H24262  -1.114   2.609   9.869 -0.1641 -0.3200  0.9299
  184MOL0     H24263  -1.268   2.672   9.918 -2.1487 -1.6542 -3.3004
  184MOL0     H24264  -1.022   2.832   9.854  0.4286  0.3204  1.2357
  184MOL0     H24265  -1.083   2.792  10.006 -0.8346 -0.9957  0.0771
  184MOL0     H24266  -1.236   2.990   9.826  0.6100  0.7582 -0.0270
  184MOL0     H24267  -1.297   2.910   9.972 -1.0405 -1.1815 -1.1881
  184MOL0     H24268  -1.140   3.014  10.109  0.2578 -2.1122 -0.4381
  184MOL0     H24269  -1.180   3.146  10.000  2.1187  1.5451 -0.7945
  184MOL0     H24270  -0.944   2.320   9.380 -1.8617  0.2377 -1.2640
  184MOL0     H24271  -0.816   2.205   9.198 -1.1428 -0.5214  1.6901
  184MOL0     H24272  -0.721   2.322   8.721 -0.4428 -0.6525 -0.1348
  184MOL0     H24273  -0.612   2.245   8.495 -3.9817 -2.1655 -0.2656
  184MOL0     H24274  -0.198   0.656   7.492 -2.4438 -2.7307 -2.6663
  184MOL0     H24275   0.011   0.601   7.384 -1.0575  0.1570 -1.1325
  184MOL0     H24276   0.122   0.615   6.820  1.0779  1.4989 -1.5704
  184MOL0     H24277   0.280   0.482   6.699 -1.8612  1.1781  0.5232
  184MOL0     H24278   0.396   0.312   6.670 -0.0966 -2.4221  2.5019
  184MOL0     H24279   0.533   0.215   6.699 -0.2009  0.6043  2.0650
  184MOL0     H24280   0.545   0.496   6.605 -0.7447 -0.0903  0.8604
  184MOL0     H24281   0.682   0.389   6.601 -1.2091 -0.6678  1.9397
  184MOL0     H24282   0.437   0.361   6.433 -1.3195 -1.7833  2.1643
  184MOL0     H24283   0.550   0.224   6.453 -1.1461 -0.9489 -0.7404
  184MOL0     H24284   0.588   0.348   6.242  0.3372 -0.2761  0.3465
  184MOL0     H24285   0.621   0.499   6.329  1.9963  0.6584 -1.9478
  184MOL0     H24286   0.966   0.250   6.326 -0.5192  0.3046 -1.5294
  184MOL0     H24287   0.532   0.464   7.034 -0.4595 -2.6452 -1.5535
  184MOL0     H24288   0.368   0.607   7.167  1.8409 -0.5427 -1.4209
  185MOL0     O24289   0.545  10.212   6.535  0.7670  0.5472  0.2789
  185MOL0     C24290   0.604  10.296   6.464 -0.3250 -0.5082  0.6769
  185MOL0     O24291   0.576  10.431   6.459  0.4358 -0.5884 -0.1343
  185MOL0     C24292   0.458  10.483   6.503  0.2467  0.3768 -0.4583
  185MOL0     C24293   0.461  10.614   6.543 -0.9786 -0.5300  0.8223
  185MOL0     C24294   0.349  10.686   6.574 -0.1428 -0.0737  0.3405
  185MOL0     C24295   0.227  10.622   6.571  1.2916 -0.7128  0.1504
  185MOL0     O24296   0.110  10.698   6.599  0.0019 -0.0882 -0.0467
  185MOL0     C24297  -0.008  10.619   6.637  0.0197 -1.2596  0.1632
  185MOL0     C24298  -0.122  10.718   6.637  0.1437 -0.1623 -0.1442
  185MOL0     C24299  -0.121  10.790   6.775  0.8666  0.9158 -0.6026
  185MOL0     C24300  -0.273  10.819   6.800 -0.0271 -0.2496  0.4006
  185MOL0     C24301  -0.285  10.916   6.918 -1.1575 -0.0265  0.1566
  185MOL0     C24302  -0.426  10.941   6.964 -0.5831 -0.9646 -0.2414
  185MOL0     C24303  -0.512  10.812   7.005 -1.1135 -0.7793  0.2459
  185MOL0     C24304  -0.652  10.854   7.063  0.7634 -0.1611 -0.3164
  185MOL0     N24305  -0.708  10.740   7.139 -0.1005  0.4601 -0.5019
  185MOL0     C24306  -0.736  10.724   7.274  0.1896 -0.1722  0.2956
  185MOL0     C24307  -0.791  10.603   7.279 -0.3414  0.1515 -0.3198
  185MOL0     C24308  -0.818  10.544   7.409  0.3628  0.2145 -0.0065
  185MOL0     C24309  -0.844  10.641   7.527  0.1764  0.8535  0.2379
  185MOL0     C24310  -0.975  10.719   7.508 -0.5733 -0.4064 -0.4846
  185MOL0     C24311  -1.104  10.640   7.524 -0.4560  0.0089  0.2852
  185MOL0     O24312  -1.203  10.727   7.467  0.1733 -1.1292 -0.0153
  185MOL0     C24313  -1.320  10.742   7.531  0.3154  0.3235 -0.2270
  185MOL0     C24314  -1.367  10.870   7.547 -0.3264  0.0627 -0.3551
  185MOL0     C24315  -1.480  10.904   7.620  0.2372 -0.0212 -0.2626
  185MOL0     C24316  -1.554  10.799   7.682  0.1353 -0.1870  0.1035
  185MOL0     C24317  -1.681  10.833   7.758  0.3413  0.0708 -0.5498
  185MOL0     O24318  -1.763  10.735   7.791 -1.0247 -0.7040 -0.0402
  185MOL0     C24319  -1.858  10.766   7.888 -0.0526  0.6038 -0.2782
  185MOL0     C24320  -1.863  10.681   7.993  0.1978  0.0982 -0.0167
  185MOL0     C24321  -1.948  10.709   8.098 -0.2379 -0.2506  0.9105
  185MOL0     C24322  -2.046  10.810   8.097  0.6282  0.0420 -0.0830
  185MOL0     O24323  -2.142  10.835   8.187 -0.5440 -0.6090 -0.0172
  185MOL0     C24324  -2.268  10.774   8.141  0.7961  0.2890 -0.1893
  185MOL0     C24325  -2.392  10.798   8.237 -0.3984 -0.0610  0.2961
  185MOL0     C24326  -2.508  10.710   8.187 -0.1041 -0.2473 -0.6055
  185MOL0     C24327  -2.635  10.748   8.269 -0.1128  0.5248 -0.5917
  185MOL0     C24328  -2.742  10.686   8.195  0.2360 -0.3718 -0.2850
  185MOL0     C24329  -2.737  10.530   8.190 -0.3345 -0.5697 -0.7506
  185MOL0     C24330  -2.870  10.458   8.159 -0.1586 -0.0137 -0.5187
  185MOL0     C24331  -2.975  10.488   8.270  0.4769 -1.1007  0.2297
  185MOL0    Cl24332  -2.934  10.469   8.440 -0.1263 -0.3787 -0.4700
  185MOL0     C24333  -2.041  10.897   7.982 -0.5704  0.0228 -0.0243
  185MOL0     C24334  -1.949  10.876   7.879 -0.0843  0.5596  1.1227
  185MOL0     O24335  -1.697  10.949   7.796  0.0320  0.1903  0.0901
  185MOL0     C24336  -1.510  10.666   7.666 -0.2627  0.4137  0.8036
  185MOL0     C24337  -1.395  10.641   7.592  1.0028  0.3033  0.3098
  185MOL0     N24338  -0.802  10.535   7.160  0.7361 -0.4256 -0.7267
  185MOL0     N24339  -0.761  10.630   7.075  0.2863  0.1926 -0.0192
  185MOL0     C24340   0.221  10.475   6.562 -0.6110 -0.2187  1.3620
  185MOL0     C24341   0.338  10.409   6.514  0.7011  0.6173 -0.2119
  185MOL0     C24342   0.726  10.257   6.383  0.2217  0.2389  0.0576
  185MOL0     C24343   0.816  10.352   6.330 -0.0196  0.2506  0.1500
  185MOL0     C24344   0.927  10.320   6.253 -0.0008 -0.3849  0.0622
  185MOL0     C24345   0.948  10.186   6.223 -0.1080  0.3161  1.2166
  185MOL0     O24346   1.050  10.129   6.157 -0.2283  0.1197 -0.4658
  185MOL0     C24347   1.186  10.174   6.168 -0.2602  0.9515  0.1466
  185MOL0     C24348   1.268  10.077   6.079 -0.8367 -0.4542  0.2124
  185MOL0     C24349   1.403  10.132   6.028  0.5188  0.1976 -0.5003
  185MOL0     C24350   1.497  10.011   6.032  0.2596  0.4981 -0.1954
  185MOL0     C24351   1.643  10.031   5.985  0.9482  0.4460 -0.6488
  185MOL0     C24352   1.759  10.052   5.950 -0.0757  0.2724  0.5957
  185MOL0     C24353   0.856  10.087   6.266 -1.1701 -0.3870  0.0256
  185MOL0     C24354   0.748  10.126   6.345  0.2795  0.3199  0.7563
  185MOL0     H24355   0.558  10.663   6.550 -0.8403 -0.5627 -0.5217
  185MOL0     H24356   0.353  10.789   6.609  2.3932 -0.2334  0.7550
  185MOL0     H24357   0.004  10.566   6.731 -0.8757 -0.2624  0.8658
  185MOL0     H24358  -0.025  10.555   6.550  1.5095 -1.7832  0.2265
  185MOL0     H24359  -0.214  10.661   6.620 -2.6868  3.9352 -0.1194
  185MOL0     H24360  -0.117  10.794   6.559  0.0833 -1.2294 -1.2099
  185MOL0     H24361  -0.049  10.871   6.789 -0.3904  1.8391  0.7391
  185MOL0     H24362  -0.100  10.719   6.856  1.9388 -0.1431 -1.7515
  185MOL0     H24363  -0.310  10.865   6.708  1.1816  2.9102  1.3399
  185MOL0     H24364  -0.316  10.722   6.826  2.2354 -1.6055 -0.6481
  185MOL0     H24365  -0.234  11.009   6.894 -1.5191  0.3137  0.6823
  185MOL0     H24366  -0.232  10.869   7.001 -2.4300 -0.9919  0.4585
  185MOL0     H24367  -0.478  10.983   6.878 -0.3094 -0.8842 -0.3695
  185MOL0     H24368  -0.423  11.004   7.053  2.4388 -0.8894 -0.2993
  185MOL0     H24369  -0.541  10.751   6.919  1.0506 -2.3309  0.5359
  185MOL0     H24370  -0.458  10.750   7.078  0.0285 -1.0841 -0.8212
  185MOL0     H24371  -0.718  10.867   6.976  1.2075 -0.7365 -0.7475
  185MOL0     H24372  -0.650  10.942   7.128 -0.7659 -0.1696 -0.2041
  185MOL0     H24373  -0.690  10.787   7.350  1.9674 -0.0835 -0.7915
  185MOL0     H24374  -0.722  10.499   7.438 -0.1044  0.0744  1.3834
  185MOL0     H24375  -0.896  10.468   7.395 -0.8020  1.1222  1.2693
  185MOL0     H24376  -0.757  10.706   7.536  1.6930 -0.5893 -2.7020
  185MOL0     H24377  -0.846  10.568   7.609  1.0888  1.0320  0.4271
  185MOL0     H24378  -0.969  10.797   7.584  0.9579 -0.9479 -0.0230
  185MOL0     H24379  -0.965  10.778   7.416 -2.6348  0.0373 -0.4822
  185MOL0     H24380  -1.112  10.604   7.627 -0.4057 -3.1326 -0.6930
  185MOL0     H24381  -1.101  10.553   7.459 -4.0062  0.2846 -0.4803
  185MOL0     H24382  -1.303  10.942   7.496  2.4003 -2.3619 -0.5973
  185MOL0     H24383  -1.512  11.007   7.626 -1.9914 -0.6450 -0.7138
  185MOL0     H24384  -1.793  10.599   8.001 -0.3047 -0.2094  1.5265
  185MOL0     H24385  -1.952  10.644   8.186 -0.7489  0.1816  1.2122
  185MOL0     H24386  -2.250  10.667   8.123  0.0055  0.4334 -2.2054
  185MOL0     H24387  -2.302  10.821   8.047 -1.8546 -1.9448 -0.4927
  185MOL0     H24388  -2.406  10.906   8.242 -1.6035 -0.1334 -1.0407
  185MOL0     H24389  -2.359  10.776   8.339 -0.9487 -1.4088  0.2018
  185MOL0     H24390  -2.482  10.605   8.204 -0.9612 -0.8172 -2.5728
  185MOL0     H24391  -2.512  10.734   8.080  1.9014  2.9164 -0.1328
  185MOL0     H24392  -2.620  10.708   8.369  2.6272 -1.1218 -1.5295
  185MOL0     H24393  -2.649  10.856   8.277 -0.1116  0.6836 -2.3219
  185MOL0     H24394  -2.750  10.729   8.095 -0.8083  0.3365  0.0902
  185MOL0     H24395  -2.831  10.717   8.251 -0.8528 -3.7184  0.0592
  185MOL0     H24396  -2.703  10.493   8.288 -0.5969  0.8634 -0.0821
  185MOL0     H24397  -2.668  10.507   8.109 -0.5323  0.8613 -1.3480
  185MOL0     H24398  -2.900  10.486   8.058  0.6869 -2.5275 -1.5385
  185MOL0     H24399  -2.847  10.352   8.170  0.1588 -0.0250 -1.2409
  185MOL0     H24400  -3.058  10.419   8.256  1.2673 -2.1200  0.4060
  185MOL0     H24401  -3.012  10.591   8.266 -0.2600 -1.1537  3.2063
  185MOL0     H24402  -2.104  10.985   7.987 -2.4681 -1.1752 -1.2472
  185MOL0     H24403  -1.955  10.941   7.792 -0.4892  0.0357  0.7455
  185MOL0     H24404  -1.557  10.581   7.714 -2.1328 -1.2183 -3.4903
  185MOL0     H24405  -1.360  10.541   7.572  0.6699 -0.1777  1.9586
  185MOL0     H24406   0.131  10.416   6.576 -1.1809  0.3255  0.1591
  185MOL0     H24407   0.335  10.305   6.483 -0.0796  0.6678 -0.3244
  185MOL0     H24408   0.808  10.451   6.371  0.6340  0.5497 -0.4205
  185MOL0     H24409   0.991  10.404   6.231  0.7001 -0.5050  1.4853
  185MOL0     H24410   1.227  10.168   6.269  0.7355  0.1166 -0.2781
  185MOL0     H24411   1.198  10.278   6.138 -1.5162  1.3177  0.8391
  185MOL0     H24412   1.294   9.990   6.139  1.0412  0.5604  0.9609
  185MOL0     H24413   1.211  10.033   5.997 -2.5493 -0.3358  1.2977
  185MOL0     H24414   1.439  10.216   6.088  1.2324 -1.0498  0.8766
  185MOL0     H24415   1.379  10.165   5.926 -2.0120 -0.0081 -0.0208
  185MOL0     H24416   1.521   9.976   6.133  0.8947  2.8389  0.5355
  185MOL0     H24417   1.460   9.924   5.979  0.4048  0.3398 -0.0402
  185MOL0     H24418   1.861  10.058   5.916 -0.6199  2.1695 -0.8531
  185MOL0     H24419   0.866   9.980   6.256 -1.8032 -0.4242 -0.2644
  185MOL0     H24420   0.683  10.049   6.387 -0.7418  0.9400  0.3327
  186MOL0     O24421   5.756  11.138  10.041 -0.6776  0.5830 -0.2121
  186MOL0     C24422   5.723  11.048   9.965 -0.4329 -0.3642 -0.1770
  186MOL0     O24423   5.623  11.061   9.870  0.1827 -0.5183  1.3015
  186MOL0     C24424   5.544  11.168   9.896  0.1500 -0.4971  1.1726
  186MOL0     C24425   5.405  11.153   9.932  0.3437 -0.4261 -0.5875
  186MOL0     C24426   5.324  11.262   9.961  0.3622  0.4464 -1.1986
  186MOL0     C24427   5.373  11.400   9.941  0.4050 -0.4215 -0.4138
  186MOL0     O24428   5.279  11.498   9.965 -0.4143  0.1454 -0.1885
  186MOL0     C24429   5.319  11.634   9.948 -0.8850  0.2511  1.3568
  186MOL0     C24430   5.191  11.709   9.949  0.0709 -1.0034  0.2893
  186MOL0     C24431   5.105  11.707  10.076 -0.0002 -0.6489  0.6283
  186MOL0     C24432   4.963  11.757  10.059 -0.1388  1.0823  0.4867
  186MOL0     C24433   4.880  11.747  10.181  0.1058  0.5780  0.6488
  186MOL0     C24434   4.739  11.784  10.149  0.3101  0.5790  1.2942
  186MOL0     C24435   4.639  11.761  10.260 -0.5776 -0.5821 -0.3276
  186MOL0     C24436   4.538  11.878  10.269 -0.5502  0.7488  0.9510
  186MOL0     N24437   4.404  11.814  10.300 -1.2997 -0.5687  0.9562
  186MOL0     C24438   4.371  11.740  10.410  0.6284  0.1970 -0.2117
  186MOL0     C24439   4.238  11.714  10.384  1.0829 -0.2707 -0.3652
  186MOL0     C24440   4.140  11.633  10.467  0.5798 -0.6624 -0.5770
  186MOL0     C24441   4.068  11.726  10.567  0.3946  0.4047  0.1495
  186MOL0     C24442   3.971  11.650  10.652  0.4859 -0.0881 -0.5763
  186MOL0     C24443   3.846  11.594  10.588 -1.0818 -0.0942 -0.1580
  186MOL0     O24444   3.798  11.504  10.686 -0.0390 -0.4114 -0.0984
  186MOL0     C24445   3.671  11.466  10.670 -0.0486 -0.3854 -0.4167
  186MOL0     C24446   3.630  11.356  10.599 -0.0430  0.0371 -0.5597
  186MOL0     C24447   3.498  11.308  10.598 -1.3320 -0.2338  0.5421
  186MOL0     C24448   3.402  11.363  10.680  0.1892  0.4174  0.7182
  186MOL0     C24449   3.264  11.302  10.682 -0.0417 -0.1299  0.1273
  186MOL0     O24450   3.154  11.380  10.718 -0.4388 -0.4372  0.6167
  186MOL0     C24451   3.032  11.320  10.711 -0.4169 -1.2516 -0.1034
  186MOL0     C24452   2.970  11.279  10.825  0.4107 -0.1738 -0.0682
  186MOL0     C24453   2.845  11.212  10.829 -0.0867  0.1099 -0.3084
  186MOL0     C24454   2.789  11.175  10.708  0.9294 -0.2357 -0.8108
  186MOL0     O24455   2.679  11.097  10.711  0.4657  0.6362  0.0977
  186MOL0     C24456   2.561  11.153  10.645  0.2765  0.7253 -0.4855
  186MOL0     C24457   2.457  11.047  10.621  0.7110  0.0957  0.1437
  186MOL0     C24458   2.321  11.107  10.582 -0.0893  0.4981 -0.2341
  186MOL0     C24459   2.244  11.167  10.692 -0.1081 -0.2382  0.7417
  186MOL0     C24460   2.211  11.095  10.819 -0.0792  0.6465  0.1927
  186MOL0     C24461   2.152  11.171  10.925  0.0104  0.4250 -0.4517
  186MOL0     C24462   2.179  11.122  11.070 -0.0530 -0.8970  0.8699
  186MOL0     C24463   2.054  11.044  11.128 -0.5891 -0.9413 -0.8363
  186MOL0    Cl24464   2.102  11.015  11.301  0.0782  0.1567  0.0259
  186MOL0     C24465   2.845  11.222  10.588 -0.5383  0.1561 -1.1898
  186MOL0     C24466   2.960  11.299  10.591 -0.8137  0.4817  0.5242
  186MOL0     O24467   3.268  11.179  10.657  0.0012  0.2975 -0.0290
  186MOL0     C24468   3.438  11.476  10.760 -0.0760  0.0425 -0.8193
  186MOL0     C24469   3.571  11.536  10.746 -0.5015  0.3517 -0.3754
  186MOL0     N24470   4.195  11.772  10.270 -0.0179  0.1863  0.0684
  186MOL0     N24471   4.297  11.824  10.213  0.5133 -0.3673 -0.6707
  186MOL0     C24472   5.510  11.411   9.897  0.1567  0.2105 -1.1315
  186MOL0     C24473   5.591  11.303   9.880  0.2485 -0.1292 -0.3249
  186MOL0     C24474   5.794  10.921   9.975 -0.5917  0.3188  0.3938
  186MOL0     C24475   5.718  10.810   9.931  0.3871  0.7563 -1.3192
  186MOL0     C24476   5.769  10.680   9.916  0.4652  0.1975 -0.4218
  186MOL0     C24477   5.901  10.659   9.956 -0.1025 -0.2437  0.4845
  186MOL0     O24478   5.966  10.538   9.975 -0.5943 -0.2537 -0.2676
  186MOL0     C24479   5.911  10.419   9.928  0.1009  0.0154 -1.0567
  186MOL0     C24480   5.999  10.306   9.979 -0.0340 -0.0978 -0.4687
  186MOL0     C24481   6.007  10.182   9.888  0.2228  0.3177  0.5205
  186MOL0     C24482   5.865  10.126   9.851 -0.1915  0.9370  0.3929
  186MOL0     C24483   5.779  10.103   9.970 -0.9504  0.1770 -0.3029
  186MOL0     C24484   5.722  10.095  10.082 -0.2602 -0.5438  0.3214
  186MOL0     C24485   5.982  10.764  10.001  0.4944  0.2308  0.2725
  186MOL0     C24486   5.930  10.895  10.015 -0.9151  0.1560 -0.4758
  186MOL0     H24487   5.375  11.049   9.930  0.2194 -0.4252  0.7456
  186MOL0     H24488   5.218  11.255   9.979  0.5285 -0.2597 -0.4549
  186MOL0     H24489   5.384  11.645   9.861 -1.2527 -2.0354  0.7124
  186MOL0     H24490   5.381  11.669  10.031  0.1687  2.5480 -0.2862
  186MOL0     H24491   5.126  11.670   9.870 -0.8930 -0.4697  0.7928
  186MOL0     H24492   5.217  11.813   9.926  0.5324 -1.4683 -1.3961
  186MOL0     H24493   5.157  11.773  10.147  1.5120  2.4836 -3.0681
  186MOL0     H24494   5.094  11.608  10.121 -0.6363 -1.2082 -0.7247
  186MOL0     H24495   4.970  11.863  10.031  0.3975  0.9480  0.0998
  186MOL0     H24496   4.923  11.696   9.977  1.9725  0.3852 -0.1037
  186MOL0     H24497   4.921  11.804  10.265 -0.2968  1.7016  0.0945
  186MOL0     H24498   4.881  11.644  10.219  1.5024 -0.6268 -2.3569
  186MOL0     H24499   4.701  11.724  10.066 -0.4849  1.0596  1.3001
  186MOL0     H24500   4.737  11.883  10.104 -0.1059 -1.3448 -3.5640
  186MOL0     H24501   4.579  11.672  10.238 -1.0580  0.0723 -1.7974
  186MOL0     H24502   4.688  11.757  10.358 -2.1266 -1.6644  0.4445
  186MOL0     H24503   4.545  11.939  10.178  1.5908 -0.0100  0.5461
  186MOL0     H24504   4.568  11.942  10.353  0.7224  0.4586  0.7485
  186MOL0     H24505   4.417  11.712  10.504  2.5160  2.7301 -0.2694
  186MOL0     H24506   4.194  11.553  10.518 -0.5130 -0.1674  1.4721
  186MOL0     H24507   4.072  11.575  10.403  0.8874 -0.3830 -1.1617
  186MOL0     H24508   4.015  11.799  10.505  0.7977  0.2155 -0.4310
  186MOL0     H24509   4.139  11.778  10.632  1.2154  0.3885 -0.7066
  186MOL0     H24510   4.027  11.569  10.699  1.7706  0.5806 -0.9035
  186MOL0     H24511   3.932  11.714  10.732 -1.3902 -1.4290 -0.3539
  186MOL0     H24512   3.858  11.543  10.491  2.9726 -0.6798  0.4963
  186MOL0     H24513   3.779  11.680  10.578 -2.4208 -1.1672 -0.7697
  186MOL0     H24514   3.706  11.300  10.548  1.7889  0.2752  1.7537
  186MOL0     H24515   3.476  11.221  10.537 -0.2686  0.1728 -0.4519
  186MOL0     H24516   3.028  11.286  10.917 -0.8784  1.8581  0.6447
  186MOL0     H24517   2.793  11.170  10.914  3.8435 -1.8575  1.3682
  186MOL0     H24518   2.577  11.200  10.547  0.9403  1.4759 -0.0279
  186MOL0     H24519   2.526  11.234  10.709 -2.4428  0.7486 -1.8298
  186MOL0     H24520   2.444  10.983  10.709  0.9578 -3.3483 -2.0888
  186MOL0     H24521   2.503  10.984  10.544  1.3036  1.2092 -0.4373
  186MOL0     H24522   2.267  11.021  10.541  2.2864  0.2073 -3.1102
  186MOL0     H24523   2.342  11.177  10.500 -0.8153  1.5915  0.4847
  186MOL0     H24524   2.311  11.249  10.722  3.5851 -3.6249  2.6602
  186MOL0     H24525   2.149  11.198  10.648 -0.2681 -3.6697 -1.6409
  186MOL0     H24526   2.299  11.052  10.869 -0.7393  0.4192  1.1867
  186MOL0     H24527   2.150  11.013  10.781  0.8932  0.7293 -1.6841
  186MOL0     H24528   2.045  11.186  10.912  0.2273  2.7201  0.0928
  186MOL0     H24529   2.180  11.276  10.911 -1.4612  1.4954  3.4238
  186MOL0     H24530   2.268  11.059  11.079  0.3564 -0.3374  0.8406
  186MOL0     H24531   2.190  11.204  11.142  0.7787 -1.9773  2.0270
  186MOL0     H24532   2.030  10.947  11.084 -1.1199 -1.0080 -0.4137
  186MOL0     H24533   1.960  11.099  11.129 -1.3717 -2.2149  0.4304
  186MOL0     H24534   2.789  11.190  10.501  0.3822 -2.8967 -0.7572
  186MOL0     H24535   3.002  11.344  10.502 -3.0182 -0.4581 -1.0963
  186MOL0     H24536   3.375  11.518  10.837  0.3167 -2.3764  0.9219
  186MOL0     H24537   3.592  11.614  10.819  0.1205  0.1683 -0.3540
  186MOL0     H24538   5.548  11.513   9.900  1.3431 -0.2209 -1.0492
  186MOL0     H24539   5.692  11.321   9.845 -0.1935 -0.1007 -1.6361
  186MOL0     H24540   5.615  10.821   9.901  0.1135  2.2775  0.0611
  186MOL0     H24541   5.699  10.607   9.875 -0.9359  0.2210  1.7680
  186MOL0     H24542   5.917  10.407   9.819  3.4149 -5.8362 -0.6601
  186MOL0     H24543   5.806  10.418   9.961  0.0894  3.3096 -0.6789
  186MOL0     H24544   6.100  10.347   9.989  0.6553 -1.7311 -0.3433
  186MOL0     H24545   5.974  10.285  10.084  1.6318  0.7391  0.1422
  186MOL0     H24546   6.071  10.110   9.938  0.3804  1.0727  1.4310
  186MOL0     H24547   6.061  10.209   9.797 -0.2560  0.6539  0.3287
  186MOL0     H24548   5.825  10.191   9.772  1.3717  0.1518 -1.1104
  186MOL0     H24549   5.884  10.030   9.802 -1.9072  0.2336  1.0529
  186MOL0     H24550   5.668  10.093  10.175  0.6342 -0.7679  0.8465
  186MOL0     H24551   6.087  10.747  10.021 -0.1279 -2.8884  1.3911
  186MOL0     H24552   5.994  10.977  10.043 -0.6163 -0.0296 -0.6075
  187MOL0     O24553   7.808   6.320   6.078  0.2524  0.4889 -0.2956
  187MOL0     C24554   7.740   6.242   6.145 -0.4569  0.4570  0.0643
  187MOL0     O24555   7.784   6.135   6.212  0.1009  0.2963  0.0798
  187MOL0     C24556   7.916   6.101   6.239  1.1303  0.3461 -0.3343
  187MOL0     C24557   7.946   5.983   6.306  0.3271  0.2534  0.5774
  187MOL0     C24558   8.078   5.951   6.338  0.0763  1.3705 -0.0510
  187MOL0     C24559   8.183   6.039   6.306  0.4410  0.5041 -0.1716
  187MOL0     O24560   8.313   6.002   6.328  0.0007 -0.1695 -0.4419
  187MOL0     C24561   8.365   5.900   6.249  0.7582  0.2972 -0.1503
  187MOL0     C24562   8.469   5.958   6.154 -0.4364  0.6076 -0.4330
  187MOL0     C24563   8.547   5.838   6.093 -0.6066  0.3345 -0.8046
  187MOL0     C24564   8.661   5.890   6.011 -1.0037 -0.0619 -0.0770
  187MOL0     C24565   8.736   5.776   5.925  0.8711  0.3718  0.1240
  187MOL0     C24566   8.850   5.839   5.852 -0.0151  0.6149 -0.7281
  187MOL0     C24567   8.905   5.735   5.756  0.4062 -0.0198  0.2693
  187MOL0     C24568   8.951   5.609   5.821 -0.0804 -0.3701 -0.4610
  187MOL0     N24569   9.016   5.527   5.720  0.3045 -0.0811 -0.2811
  187MOL0     C24570   8.966   5.414   5.657 -0.0120  0.3748 -0.2321
  187MOL0     C24571   9.068   5.367   5.575 -0.2771  0.1549 -0.2843
  187MOL0     C24572   9.053   5.237   5.495  0.3363  1.0862 -0.3995
  187MOL0     C24573   9.184   5.153   5.487 -0.2520  0.0006  0.5504
  187MOL0     C24574   9.227   5.104   5.619 -0.0854 -0.4157  0.7953
  187MOL0     C24575   9.139   4.999   5.673  0.0121 -0.5492  1.0589
  187MOL0     O24576   9.063   5.039   5.796  0.3223  0.0803  0.2213
  187MOL0     C24577   8.968   4.953   5.847  0.0566 -0.2549 -0.0100
  187MOL0     C24578   8.961   4.819   5.798 -0.7498 -0.6411  0.9067
  187MOL0     C24579   8.850   4.740   5.830 -0.1833  0.6387 -0.5947
  187MOL0     C24580   8.752   4.792   5.910  0.2908 -0.0577  0.0012
  187MOL0     C24581   8.633   4.702   5.934 -1.0751 -0.1376  0.2557
  187MOL0     O24582   8.561   4.760   6.028  0.3300 -0.1939 -0.1537
  187MOL0     C24583   8.422   4.743   6.022  0.0993  0.9937  0.7025
  187MOL0     C24584   8.369   4.743   6.149 -0.4749 -0.2251 -0.7296
  187MOL0     C24585   8.233   4.735   6.173  0.1442  0.1771  0.6267
  187MOL0     C24586   8.142   4.720   6.061 -0.8601 -0.7644 -0.9095
  187MOL0     O24587   8.004   4.700   6.067  0.1191 -0.6400  0.4969
  187MOL0     C24588   7.930   4.650   6.191  0.3247 -0.4230 -0.5692
  187MOL0     C24589   7.807   4.587   6.118  0.8613  0.1749  0.6069
  187MOL0     C24590   7.713   4.696   6.055  0.0973  0.1175  0.5426
  187MOL0     C24591   7.616   4.771   6.157  0.1667  0.5978 -1.1684
  187MOL0     C24592   7.546   4.867   6.073  1.0750 -0.9221 -0.1437
  187MOL0     C24593   7.444   4.940   6.160  1.4479 -0.5571 -0.2887
  187MOL0     C24594   7.326   4.843   6.178  0.0653  0.1951 -0.7546
  187MOL0     C24595   7.205   4.915   6.228  0.4441 -0.5388  0.1670
  187MOL0    Cl24596   7.061   4.824   6.239 -0.2875 -0.3702  0.5158
  187MOL0     C24597   8.199   4.708   5.929  0.4968 -1.3289 -0.0601
  187MOL0     C24598   8.341   4.707   5.909  0.1575  0.1719  0.4120
  187MOL0     O24599   8.624   4.590   5.890 -0.5447 -0.0306 -0.1561
  187MOL0     C24600   8.764   4.930   5.955  1.0581  0.0668 -0.5463
  187MOL0     C24601   8.873   5.011   5.922  0.2443 -0.6286 -0.0359
  187MOL0     N24602   9.187   5.437   5.603  0.1929  0.3426 -0.1235
  187MOL0     N24603   9.150   5.531   5.687 -0.1107 -0.4400 -0.0805
  187MOL0     C24604   8.154   6.150   6.247 -0.6485  0.0139  1.2484
  187MOL0     C24605   8.027   6.180   6.211  0.3801 -0.4051  0.2016
  187MOL0     C24606   7.583   6.253   6.128 -0.0921 -0.3880  0.1197
  187MOL0     C24607   7.495   6.164   6.188 -0.6683 -0.5953  0.3106
  187MOL0     C24608   7.360   6.161   6.152 -0.9550  0.6234 -0.4506
  187MOL0     C24609   7.310   6.262   6.067  0.5500 -0.0895  0.5386
  187MOL0     O24610   7.176   6.265   6.035  0.1582 -0.1859 -0.5955
  187MOL0     C24611   7.078   6.235   6.140  0.0072 -0.4045  1.0363
  187MOL0     C24612   6.999   6.116   6.091  0.8944 -0.7144  0.8014
  187MOL0     C24613   6.889   6.079   6.190 -0.9289 -0.2508 -0.1490
  187MOL0     C24614   6.750   6.109   6.145 -0.2914  0.6160 -0.1761
  187MOL0     C24615   6.651   6.085   6.247  0.2100 -0.1812  0.0971
  187MOL0     C24616   6.556   6.072   6.326 -0.0839  0.2179 -1.0036
  187MOL0     C24617   7.390   6.359   6.006 -0.0757 -0.0728 -0.7224
  187MOL0     C24618   7.531   6.348   6.039 -0.4485  0.4632  0.1148
  187MOL0     H24619   7.860   5.920   6.327 -0.7279  2.5552  4.1544
  187MOL0     H24620   8.092   5.866   6.404  0.1843  2.0450  0.8168
  187MOL0     H24621   8.291   5.855   6.182  1.8474  0.1499 -1.3029
  187MOL0     H24622   8.404   5.821   6.313 -0.0426 -1.2155 -1.4552
  187MOL0     H24623   8.539   6.007   6.222  2.1895 -2.1096 -0.9776
  187MOL0     H24624   8.430   6.021   6.074  0.9567  2.9562  0.6258
  187MOL0     H24625   8.481   5.775   6.032  1.3535 -1.3585 -1.2594
  187MOL0     H24626   8.581   5.770   6.171 -0.9240 -1.9657 -2.5618
  187MOL0     H24627   8.623   5.971   5.948  0.5252  1.3564  0.7496
  187MOL0     H24628   8.735   5.923   6.085 -3.1083  0.4457  1.9103
  187MOL0     H24629   8.667   5.735   5.849 -0.0795  2.7723 -0.3909
  187MOL0     H24630   8.768   5.690   5.984  0.3408 -0.5551 -0.8875
  187MOL0     H24631   8.929   5.851   5.927  1.0099  2.8041 -2.0559
  187MOL0     H24632   8.817   5.939   5.821 -0.4238  0.4682 -0.7614
  187MOL0     H24633   8.829   5.704   5.685 -1.2534 -0.4902  2.1547
  187MOL0     H24634   8.993   5.782   5.711 -0.9321 -1.1730 -4.0056
  187MOL0     H24635   8.876   5.546   5.870 -0.8966  0.0772 -1.1196
  187MOL0     H24636   9.016   5.622   5.908 -1.9579  0.9288  0.8190
  187MOL0     H24637   8.867   5.370   5.665  0.2069 -0.0741  0.0581
  187MOL0     H24638   9.018   5.264   5.395 -1.2272  0.3969 -0.0801
  187MOL0     H24639   8.971   5.182   5.542 -0.4914  1.7862 -0.9847
  187MOL0     H24640   9.266   5.198   5.430  0.6546 -2.3833 -0.1493
  187MOL0     H24641   9.166   5.058   5.435  1.2256 -0.0677  0.1244
  187MOL0     H24642   9.325   5.063   5.594 -0.0781 -0.5081  0.9783
  187MOL0     H24643   9.237   5.192   5.683 -2.5858  0.6316 -0.1067
  187MOL0     H24644   9.215   4.923   5.697  2.5776  1.3112 -0.6913
  187MOL0     H24645   9.071   4.957   5.599  1.5282  0.2689 -0.8903
  187MOL0     H24646   9.040   4.782   5.734 -0.4752  0.8082  0.3816
  187MOL0     H24647   8.845   4.639   5.790 -1.1524  2.5274 -6.0782
  187MOL0     H24648   8.448   4.743   6.223  0.8134 -1.5152 -2.0312
  187MOL0     H24649   8.204   4.737   6.278  0.5316  0.2949  0.7304
  187MOL0     H24650   7.919   4.738   6.255 -0.6434 -2.0978  1.6994
  187MOL0     H24651   7.983   4.578   6.253 -2.3541 -2.0891 -0.0759
  187MOL0     H24652   7.744   4.528   6.185 -2.3806  2.8163  0.1256
  187MOL0     H24653   7.841   4.531   6.030  0.8719  2.2443 -0.7601
  187MOL0     H24654   7.656   4.651   5.972  2.3647 -0.6282 -0.7087
  187MOL0     H24655   7.769   4.772   6.000  1.4127 -4.6239 -5.9680
  187MOL0     H24656   7.555   4.687   6.191  0.4389  0.5218 -0.8638
  187MOL0     H24657   7.661   4.807   6.250  0.2959 -3.3094  0.4876
  187MOL0     H24658   7.491   4.826   5.987  0.9002  1.5822 -1.3065
  187MOL0     H24659   7.624   4.936   6.040 -0.8890  1.0020 -1.0732
  187MOL0     H24660   7.405   5.029   6.109  4.3184  0.8609 -0.2069
  187MOL0     H24661   7.486   4.962   6.258 -0.7413 -3.8283  1.5759
  187MOL0     H24662   7.297   4.790   6.086 -2.4624  0.6038 -0.2787
  187MOL0     H24663   7.360   4.768   6.249  2.1473 -1.6446 -3.4795
  187MOL0     H24664   7.186   4.999   6.161  0.0234 -1.0245 -0.3344
  187MOL0     H24665   7.229   4.962   6.323  1.5576 -0.5946 -0.0793
  187MOL0     H24666   8.136   4.683   5.845 -0.2407  1.5197 -0.4464
  187MOL0     H24667   8.396   4.712   5.816  0.7525  2.1932  0.8230
  187MOL0     H24668   8.690   4.982   6.015  0.9831  1.7987 -2.0497
  187MOL0     H24669   8.877   5.117   5.942  1.4106 -0.1303 -2.4505
  187MOL0     H24670   8.234   6.222   6.234 -0.2640  0.0549  3.4303
  187MOL0     H24671   8.019   6.278   6.163  2.2629 -1.3560 -2.2923
  187MOL0     H24672   7.538   6.095   6.260  1.5145  1.8997  1.6117
  187MOL0     H24673   7.284   6.092   6.187 -1.3935  1.2261 -0.1883
  187MOL0     H24674   7.017   6.325   6.130  2.5927  1.2155 -1.3642
  187MOL0     H24675   7.132   6.221   6.234  2.5469 -1.8352 -0.5431
  187MOL0     H24676   6.965   6.125   5.988 -1.5330 -1.4065  1.4892
  187MOL0     H24677   7.076   6.038   6.091  1.1082 -0.5331 -0.6172
  187MOL0     H24678   6.902   6.135   6.284 -0.5689 -1.6834  0.6813
  187MOL0     H24679   6.899   5.971   6.204  1.7347 -0.3800 -2.1806
  187MOL0     H24680   6.728   6.211   6.113 -1.1143  0.3947 -0.3352
  187MOL0     H24681   6.733   6.053   6.053  0.0200  0.2868 -0.0352
  187MOL0     H24682   6.468   6.074   6.387 -1.4289 -0.7874 -2.8179
  187MOL0     H24683   7.346   6.443   5.952 -0.7717  0.6808  0.9412
  187MOL0     H24684   7.599   6.406   5.978 -0.1801 -2.8344 -3.1082
  188MOL0     O24685  10.092   3.494   0.563 -0.3525 -0.2437  0.1225
  188MOL0     C24686  10.121   3.582   0.486 -0.0918 -0.0786 -0.2066
  188MOL0     O24687  10.033   3.666   0.432 -0.2983 -0.1464  0.2226
  188MOL0     C24688   9.909   3.673   0.500 -0.4882 -1.0546 -0.4142
  188MOL0     C24689   9.790   3.660   0.433 -0.3450  0.2890  0.3093
  188MOL0     C24690   9.678   3.636   0.503 -0.3197 -0.0249 -0.3672
  188MOL0     C24691   9.677   3.659   0.632  0.1884  0.3906 -0.4845
  188MOL0     O24692   9.555   3.635   0.695 -0.5297  0.7177 -0.1058
  188MOL0     C24693   9.537   3.492   0.705 -0.1249  0.0980  0.0584
  188MOL0     C24694   9.422   3.466   0.798 -0.0766  0.1779  0.5988
  188MOL0     C24695   9.431   3.521   0.940 -0.2596  0.1680 -0.7172
  188MOL0     C24696   9.311   3.498   1.020 -0.1712  0.4719  0.0949
  188MOL0     C24697   9.335   3.525   1.174 -0.0827  0.4186  0.6704
  188MOL0     C24698   9.218   3.498   1.259  0.4403  0.3407 -0.2058
  188MOL0     C24699   9.241   3.548   1.399  0.2950 -0.6974  0.0183
  188MOL0     C24700   9.139   3.534   1.510 -0.0497 -0.0221  0.6752
  188MOL0     N24701   9.088   3.399   1.503  1.5499  1.5492  0.7602
  188MOL0     C24702   9.138   3.282   1.555  0.4161  0.7094  0.1978
  188MOL0     C24703   9.038   3.188   1.529 -1.2330  0.4900  0.7498
  188MOL0     C24704   9.056   3.042   1.575  0.2964  0.1156 -0.1705
  188MOL0     C24705   8.933   2.949   1.558  0.0721  0.1273 -0.1980
  188MOL0     C24706   8.970   2.803   1.615 -0.1056  0.4634 -0.0986
  188MOL0     C24707   8.858   2.710   1.584  0.7019 -0.1107 -0.0584
  188MOL0     O24708   8.869   2.672   1.447  0.2034  0.9772  0.3270
  188MOL0     C24709   8.767   2.611   1.382 -0.3824  0.2163  0.9473
  188MOL0     C24710   8.635   2.591   1.428 -0.2095 -0.2637  0.4536
  188MOL0     C24711   8.530   2.555   1.349 -0.0872 -0.5778  1.3654
  188MOL0     C24712   8.567   2.511   1.216  0.5788 -0.2759  1.0872
  188MOL0     C24713   8.465   2.479   1.127  0.5480 -0.6296 -0.1359
  188MOL0     O24714   8.394   2.374   1.170  0.4811 -0.5721  0.0548
  188MOL0     C24715   8.274   2.323   1.122  0.9947 -0.3170 -0.2572
  188MOL0     C24716   8.232   2.200   1.172 -0.4378 -0.9890 -0.2003
  188MOL0     C24717   8.115   2.143   1.138  0.1270  0.3600  0.8639
  188MOL0     C24718   8.030   2.207   1.047  0.4665 -0.7953 -0.4781
  188MOL0     O24719   7.901   2.170   1.018  0.0969  0.2701  0.5389
  188MOL0     C24720   7.819   2.152   1.132  0.0185  0.0957  0.2774
  188MOL0     C24721   7.669   2.157   1.090  0.0664  0.6213 -0.0303
  188MOL0     C24722   7.572   2.115   1.206 -0.1668  0.3693  0.0753
  188MOL0     C24723   7.427   2.123   1.170  0.1966 -0.3484  0.3662
  188MOL0     C24724   7.353   2.138   1.303 -0.4617 -0.0275  0.0908
  188MOL0     C24725   7.206   2.178   1.281  0.1488 -0.2635  0.0114
  188MOL0     C24726   7.145   2.231   1.412 -0.0311  0.1178 -1.2879
  188MOL0     C24727   6.998   2.199   1.431  0.6307 -0.3325 -0.3812
  188MOL0    Cl24728   6.963   2.034   1.428  0.3871  0.6500  0.1685
  188MOL0     C24729   8.069   2.331   0.992  0.0183 -1.1903 -1.8698
  188MOL0     C24730   8.196   2.391   1.031  0.4310 -0.1964  0.6846
  188MOL0     O24731   8.448   2.548   1.022  0.3543  0.0439 -0.0221
  188MOL0     C24732   8.691   2.547   1.164 -0.3952 -0.6446 -0.2447
  188MOL0     C24733   8.791   2.590   1.243  0.1794  0.2149  0.7926
  188MOL0     N24734   8.929   3.257   1.465 -0.4630  1.4387  0.9921
  188MOL0     N24735   8.959   3.387   1.446  0.3294  0.5995 -0.4289
  188MOL0     C24736   9.791   3.690   0.711  0.1854 -0.5586 -0.2698
  188MOL0     C24737   9.906   3.692   0.635  0.2788 -0.4984 -0.5290
  188MOL0     C24738  10.261   3.592   0.446 -0.7014  0.1177  0.0551
  188MOL0     C24739  10.301   3.686   0.351 -0.7533  0.5964 -0.1852
  188MOL0     C24740  10.434   3.703   0.316 -0.0075 -1.2913 -0.2963
  188MOL0     C24741  10.537   3.616   0.359 -0.0817  0.6263 -0.5817
  188MOL0     O24742  10.667   3.637   0.325  0.6836 -0.0608 -0.0969
  188MOL0     C24743  10.768   3.530   0.337  0.0508 -0.4947  0.0540
  188MOL0     C24744  10.904   3.591   0.311 -0.0407 -0.4271 -0.0338
  188MOL0     C24745  10.930   3.598   0.160 -0.5929  0.9858 -0.9773
  188MOL0     C24746  11.054   3.670   0.129  0.7289 -0.2628 -0.4580
  188MOL0     C24747  11.058   3.686  -0.017 -0.4192 -0.4216 -0.2588
  188MOL0     C24748  11.058   3.709  -0.136  0.0392  0.6636 -0.5522
  188MOL0     C24749  10.495   3.517   0.450 -0.7041  0.3310 -0.0302
  188MOL0     C24750  10.357   3.494   0.482 -0.4479  0.4491  0.0119
  188MOL0     H24751   9.778   3.664   0.326 -2.8531  2.0273  0.5629
  188MOL0     H24752   9.582   3.618   0.456 -0.8935  2.0969 -0.1087
  188MOL0     H24753   9.626   3.436   0.736  0.0540  0.4351  0.1645
  188MOL0     H24754   9.531   3.447   0.605  3.3502 -0.4674 -0.0249
  188MOL0     H24755   9.418   3.357   0.803  0.8770  0.1775  2.0507
  188MOL0     H24756   9.326   3.496   0.755 -0.4727 -0.7234  0.8317
  188MOL0     H24757   9.424   3.630   0.934  1.2060  0.3288  0.2517
  188MOL0     H24758   9.524   3.489   0.987  0.3669  3.5485  0.6175
  188MOL0     H24759   9.232   3.563   0.982 -1.0029  0.5972  1.9513
  188MOL0     H24760   9.278   3.396   0.997 -3.0450  1.2927  0.1881
  188MOL0     H24761   9.356   3.632   1.180 -2.2816  1.4335 -4.5604
  188MOL0     H24762   9.415   3.460   1.211 -0.9087 -1.0514 -0.0416
  188MOL0     H24763   9.196   3.392   1.247  1.5639 -0.2839  2.5038
  188MOL0     H24764   9.132   3.548   1.213 -1.0937 -1.8754  0.1348
  188MOL0     H24765   9.336   3.514   1.440  0.9128  1.0139  0.1116
  188MOL0     H24766   9.250   3.655   1.378 -5.0223 -0.0454 -0.4391
  188MOL0     H24767   9.062   3.611   1.500 -0.9375 -1.0335 -0.6761
  188MOL0     H24768   9.178   3.557   1.610 -0.2741  2.1077  0.3338
  188MOL0     H24769   9.238   3.273   1.596 -0.0672 -2.7077  0.9913
  188MOL0     H24770   9.090   3.038   1.679  0.0063 -2.1691 -0.1065
  188MOL0     H24771   9.134   2.990   1.518 -0.7318  0.4716 -1.9580
  188MOL0     H24772   8.917   2.938   1.450 -0.7728  0.9197 -0.1714
  188MOL0     H24773   8.847   2.988   1.613 -0.0071 -0.7926  0.3335
  188MOL0     H24774   9.053   2.765   1.555 -0.8147  0.7039 -1.2639
  188MOL0     H24775   8.990   2.787   1.721  0.9034  0.5043 -0.2722
  188MOL0     H24776   8.772   2.775   1.604 -0.4102 -1.4717 -0.3113
  188MOL0     H24777   8.868   2.616   1.640  0.2900 -0.7889 -1.1034
  188MOL0     H24778   8.612   2.611   1.532 -0.4866 -2.0832  0.7695
  188MOL0     H24779   8.431   2.536   1.390 -0.0401 -2.7146  0.6406
  188MOL0     H24780   8.296   2.151   1.245 -0.3974 -1.6172 -0.6538
  188MOL0     H24781   8.091   2.043   1.172 -0.3863  0.8571  2.0430
  188MOL0     H24782   7.841   2.222   1.213  0.3866  1.6023 -1.0928
  188MOL0     H24783   7.838   2.055   1.179  2.5233 -0.0700 -0.9201
  188MOL0     H24784   7.646   2.093   1.004  1.7178 -0.3919  0.2497
  188MOL0     H24785   7.646   2.260   1.062  0.1484  0.1654 -1.9252
  188MOL0     H24786   7.591   2.171   1.298 -0.8215  2.2680 -0.8852
  188MOL0     H24787   7.595   2.011   1.228 -2.5214  0.1097  1.6898
  188MOL0     H24788   7.407   2.205   1.100 -0.5267  0.2199  1.2315
  188MOL0     H24789   7.395   2.029   1.124 -0.8607  0.3303 -0.3308
  188MOL0     H24790   7.389   2.228   1.354 -2.3480  0.3255  0.8895
  188MOL0     H24791   7.367   2.054   1.372  4.3729  1.1417  0.9170
  188MOL0     H24792   7.148   2.090   1.253 -0.4181 -0.2800  1.1521
  188MOL0     H24793   7.197   2.259   1.208  0.4477 -0.3370 -0.1094
  188MOL0     H24794   7.194   2.195   1.503 -1.3190  1.2291 -0.1097
  188MOL0     H24795   7.163   2.338   1.403 -0.7003  0.2069 -1.6634
  188MOL0     H24796   6.946   2.257   1.355  0.5213  1.4056  0.9475
  188MOL0     H24797   6.977   2.234   1.533  0.2968  0.2463 -0.6473
  188MOL0     H24798   8.003   2.377   0.919  0.2804  0.1140 -1.3111
  188MOL0     H24799   8.222   2.488   0.990  0.4207 -0.0929  0.9186
  188MOL0     H24800   8.709   2.539   1.058 -0.0620  0.1470 -0.2606
  188MOL0     H24801   8.896   2.609   1.220  0.1008  2.7470  2.1104
  188MOL0     H24802   9.780   3.716   0.815 -3.5296 -2.6037  0.0068
  188MOL0     H24803  10.004   3.716   0.674 -0.2351  0.5043  0.1884
  188MOL0     H24804  10.237   3.763   0.310  1.6712  2.2197 -1.1615
  188MOL0     H24805  10.467   3.777   0.244  1.1460  0.1037  1.5779
  188MOL0     H24806  10.747   3.449   0.267 -0.3965  0.3861 -0.8549
  188MOL0     H24807  10.772   3.486   0.437 -0.9090  3.8023  2.2372
  188MOL0     H24808  10.900   3.695   0.345 -2.7055  0.3813 -2.4167
  188MOL0     H24809  10.986   3.537   0.359 -0.3228 -2.2002 -1.4456
  188MOL0     H24810  10.846   3.642   0.105  0.9745  2.2673 -2.4915
  188MOL0     H24811  10.932   3.497   0.117 -1.1218  0.6433 -0.2044
  188MOL0     H24812  11.037   3.770   0.172  1.3804 -0.5364  0.4723
  188MOL0     H24813  11.146   3.629   0.173  0.4276 -2.2089 -1.5782
  188MOL0     H24814  11.060   3.729  -0.241 -1.2502  2.2624 -0.3109
  188MOL0     H24815  10.567   3.447   0.492  0.0114  0.5252 -0.8992
  188MOL0     H24816  10.329   3.401   0.530  0.3881  0.1148 -0.1289
  189MOL0     O24817   8.238  11.273   4.124  0.6027  0.1837 -0.3411
  189MOL0     C24818   8.187  11.380   4.150 -0.1710  0.3516 -0.4438
  189MOL0     O24819   8.111  11.453   4.072 -0.3529 -0.9323 -0.4044
  189MOL0     C24820   8.107  11.437   3.931 -0.4788  0.6751 -0.8509
  189MOL0     C24821   8.075  11.311   3.877  0.5527  0.4266 -0.2347
  189MOL0     C24822   8.082  11.277   3.748  0.2937 -0.0995 -0.0139
  189MOL0     C24823   8.111  11.366   3.653 -0.1201 -0.2559 -0.1234
  189MOL0     O24824   8.117  11.346   3.517  0.5637 -0.9465  0.0479
  189MOL0     C24825   8.117  11.212   3.464  0.5563  0.3978  0.5420
  189MOL0     C24826   8.123  11.218   3.312 -0.0910 -0.7857 -0.0845
  189MOL0     C24827   8.070  11.080   3.258 -0.1434  0.0661 -0.1028
  189MOL0     C24828   8.093  11.081   3.107  0.2217 -0.4285  0.1277
  189MOL0     C24829   8.054  10.966   3.030  0.6085  0.0269  0.4194
  189MOL0     C24830   8.108  10.976   2.883  1.4184  0.8009 -0.2781
  189MOL0     C24831   8.041  10.864   2.797 -0.0016 -0.6202  0.6550
  189MOL0     C24832   8.084  10.727   2.852  0.0979 -0.3811  1.0782
  189MOL0     N24833   8.029  10.623   2.771  0.3115  0.1526 -0.7122
  189MOL0     C24834   7.947  10.531   2.828  0.0091  0.1316  0.4242
  189MOL0     C24835   7.877  10.470   2.729  0.3805  0.5303  0.2099
  189MOL0     C24836   7.774  10.358   2.738 -0.7319 -0.9354 -0.5085
  189MOL0     C24837   7.859  10.230   2.706 -0.1035  0.2215 -0.0885
  189MOL0     C24838   7.777  10.103   2.710 -0.2273 -0.0844  0.5014
  189MOL0     C24839   7.754  10.063   2.855 -0.1159 -0.0369  0.5022
  189MOL0     O24840   7.652   9.966   2.872  0.2721  0.2319  0.0571
  189MOL0     C24841   7.627   9.908   2.994  0.9225 -1.0524  0.4464
  189MOL0     C24842   7.713   9.917   3.097 -1.2599 -0.6882  0.2289
  189MOL0     C24843   7.703   9.825   3.203 -0.0615 -0.3780  0.0194
  189MOL0     C24844   7.605   9.735   3.216  0.8824  0.7514 -0.3653
  189MOL0     C24845   7.590   9.642   3.329  0.2049  1.1243 -0.2246
  189MOL0     O24846   7.662   9.663   3.437  0.5629  0.2778 -0.5025
  189MOL0     C24847   7.685   9.564   3.534 -0.5111 -0.6858 -0.4997
  189MOL0     C24848   7.721   9.436   3.500  0.2685 -0.7495  0.4858
  189MOL0     C24849   7.760   9.352   3.603 -0.2728 -0.2365  0.9679
  189MOL0     C24850   7.731   9.368   3.728 -0.6824 -0.2470  0.4004
  189MOL0     O24851   7.757   9.273   3.831  0.1418 -0.0569  0.1866
  189MOL0     C24852   7.811   9.146   3.806 -0.2015 -0.4384  0.1660
  189MOL0     C24853   7.873   9.074   3.926 -0.3301  0.4005  1.3419
  189MOL0     C24854   7.769   9.028   4.031  0.0495 -1.0602  0.6951
  189MOL0     C24855   7.829   8.935   4.136  0.0496  0.1206 -0.0200
  189MOL0     C24856   7.731   8.845   4.210  0.6435 -0.6701  0.2114
  189MOL0     C24857   7.683   8.901   4.341  0.8214 -0.1781 -0.3592
  189MOL0     C24858   7.569   9.007   4.338 -0.2313  0.1637 -0.0195
  189MOL0     C24859   7.540   9.077   4.477  0.8791  0.0839 -1.2051
  189MOL0    Cl24860   7.657   9.207   4.492  0.1184 -0.1539  0.1224
  189MOL0     C24861   7.682   9.500   3.770 -0.3970  0.1555  0.4981
  189MOL0     C24862   7.655   9.594   3.667 -0.5412  0.1234  0.9661
  189MOL0     O24863   7.510   9.549   3.324  0.3305  0.2383  1.0885
  189MOL0     C24864   7.512   9.723   3.109  0.0478  0.4949  0.1080
  189MOL0     C24865   7.528   9.810   2.998  0.2193  0.5990 -0.3409
  189MOL0     N24866   7.929  10.520   2.616  0.5821  0.2563  0.2482
  189MOL0     N24867   8.019  10.616   2.640  0.2829 -0.2281 -0.0512
  189MOL0     C24868   8.145  11.495   3.694  0.8923  0.3269  0.3251
  189MOL0     C24869   8.139  11.525   3.835 -0.4402 -0.0375  0.8390
  189MOL0     C24870   8.220  11.441   4.280 -0.8586 -0.9098 -0.0595
  189MOL0     C24871   8.225  11.580   4.294  0.1071  0.2774  0.2615
  189MOL0     C24872   8.250  11.637   4.425 -0.1309  1.0214  1.6737
  189MOL0     C24873   8.266  11.546   4.532  0.2006  0.3032  0.3285
  189MOL0     O24874   8.277  11.610   4.656  0.6071 -0.1423  0.1818
  189MOL0     C24875   8.235  11.528   4.770 -0.8631  0.0502  0.5390
  189MOL0     C24876   8.151  11.610   4.858  0.6715  0.3781  0.5341
  189MOL0     C24877   8.062  11.513   4.946 -0.4230  0.3011  0.2506
  189MOL0     C24878   7.992  11.574   5.068 -0.3854 -0.6265 -0.4871
  189MOL0     C24879   7.895  11.681   5.044  0.1553  0.0866 -0.4835
  189MOL0     C24880   7.828  11.783   5.024 -0.4685 -0.4528  0.3079
  189MOL0     C24881   8.272  11.403   4.512  0.6417  0.2259 -0.3422
  189MOL0     C24882   8.245  11.356   4.383  0.4866 -0.1316  0.0230
  189MOL0     H24883   8.039  11.230   3.940 -1.3459  0.7046 -0.9003
  189MOL0     H24884   8.040  11.179   3.729  1.5106 -0.6094 -0.1252
  189MOL0     H24885   8.020  11.172   3.498  0.3367  2.1375  2.1362
  189MOL0     H24886   8.196  11.151   3.508 -0.7630 -0.3836  1.9515
  189MOL0     H24887   8.222  11.243   3.274 -1.1836 -1.0191 -3.4276
  189MOL0     H24888   8.056  11.299   3.282  0.4490  0.6183  2.2057
  189MOL0     H24889   7.962  11.069   3.273 -0.2957 -0.9279 -1.7436
  189MOL0     H24890   8.111  10.994   3.311  2.8926 -0.1623 -2.4930
  189MOL0     H24891   8.039  11.164   3.061  1.5029  0.4964  0.2390
  189MOL0     H24892   8.197  11.094   3.078  0.1236 -0.4413 -0.2293
  189MOL0     H24893   7.945  10.969   3.023  0.5377 -2.2272 -0.2322
  189MOL0     H24894   8.093  10.879   3.082  0.1569  0.2118  1.0783
  189MOL0     H24895   8.212  10.944   2.883  1.0054 -0.7792 -2.2291
  189MOL0     H24896   8.088  11.078   2.848 -3.6005  0.7439  1.5878
  189MOL0     H24897   7.932  10.867   2.793 -0.1522  0.4308  3.4443
  189MOL0     H24898   8.076  10.871   2.693  2.0092 -3.0978  1.0717
  189MOL0     H24899   8.052  10.715   2.956  1.3348 -0.2867  1.4954
  189MOL0     H24900   8.192  10.709   2.851  0.0121 -1.1703 -1.6228
  189MOL0     H24901   7.925  10.526   2.934 -1.6201 -1.6873  0.0645
  189MOL0     H24902   7.707  10.380   2.654 -2.4764 -0.0351  1.0707
  189MOL0     H24903   7.714  10.350   2.828 -1.8241  0.8997 -1.0367
  189MOL0     H24904   7.956  10.220   2.755 -0.1655  0.5941  0.1070
  189MOL0     H24905   7.899  10.234   2.604 -0.0500 -0.4481 -0.0979
  189MOL0     H24906   7.685  10.105   2.652 -0.6588  0.0575  1.1805
  189MOL0     H24907   7.833  10.022   2.664  0.4324  0.8179 -0.3137
  189MOL0     H24908   7.724  10.148   2.917 -3.0141  1.2109 -2.2849
  189MOL0     H24909   7.853  10.025   2.881  0.5627 -1.7883 -3.8012
  189MOL0     H24910   7.788   9.993   3.116 -0.4779 -0.6967 -2.4086
  189MOL0     H24911   7.762   9.842   3.293 -0.1721 -0.1437  0.0513
  189MOL0     H24912   7.738   9.397   3.400 -0.5795 -1.8185  0.7438
  189MOL0     H24913   7.785   9.250   3.578 -3.2746 -0.9976  0.7799
  189MOL0     H24914   7.892   9.161   3.733 -0.9669  0.7980 -0.4597
  189MOL0     H24915   7.726   9.088   3.770 -0.9470  1.0740 -0.5785
  189MOL0     H24916   7.952   9.142   3.959  1.2798 -0.0313 -1.3223
  189MOL0     H24917   7.917   8.981   3.888 -2.7485  0.0996 -1.0290
  189MOL0     H24918   7.693   8.976   3.973 -2.6723  1.8109  1.4739
  189MOL0     H24919   7.709   9.112   4.065 -3.2685 -2.1891 -1.8506
  189MOL0     H24920   7.893   8.872   4.074 -2.8022  0.5145 -3.7418
  189MOL0     H24921   7.890   8.994   4.205 -0.9349  0.7817  0.3093
  189MOL0     H24922   7.796   8.759   4.228  0.3852 -0.9906 -0.3359
  189MOL0     H24923   7.642   8.822   4.150  1.3875 -1.2967 -0.6837
  189MOL0     H24924   7.762   8.963   4.383  0.7821  0.0067 -0.5568
  189MOL0     H24925   7.656   8.824   4.415  0.2507  0.6102  0.2651
  189MOL0     H24926   7.593   9.080   4.260  0.3185 -0.4116 -0.3927
  189MOL0     H24927   7.478   8.958   4.301 -0.4364  2.5646 -3.0727
  189MOL0     H24928   7.549   9.010   4.563  0.1910  2.9961  1.3035
  189MOL0     H24929   7.435   9.108   4.477  0.5495 -0.8563 -2.9659
  189MOL0     H24930   7.700   9.521   3.875 -1.3405 -0.4534  0.7979
  189MOL0     H24931   7.617   9.696   3.677 -0.5279  0.5900 -2.4750
  189MOL0     H24932   7.439   9.644   3.118 -0.7647  1.4815  3.4419
  189MOL0     H24933   7.468   9.796   2.909  1.6714 -2.0831 -0.9911
  189MOL0     H24934   8.172  11.577   3.628  0.6185 -0.4277 -0.7572
  189MOL0     H24935   8.174  11.624   3.864  1.9888 -0.2064 -1.1563
  189MOL0     H24936   8.220  11.648   4.210  0.3075 -0.0246  0.0005
  189MOL0     H24937   8.253  11.745   4.435  2.3895  1.2889 -0.8130
  189MOL0     H24938   8.326  11.495   4.823 -0.4076  2.0762  1.1286
  189MOL0     H24939   8.160  11.454   4.742 -1.0052 -0.1135  1.3139
  189MOL0     H24940   8.215  11.679   4.912  1.3158  0.4051 -0.2437
  189MOL0     H24941   8.084  11.667   4.794  1.4921  0.3399 -0.3819
  189MOL0     H24942   8.125  11.429   4.976  1.0601  1.3227  0.1173
  189MOL0     H24943   7.986  11.467   4.883 -0.2202  1.4572 -0.8908
  189MOL0     H24944   7.954  11.499   5.138  1.2814 -2.0219 -0.9972
  189MOL0     H24945   8.074  11.621   5.123 -0.3791 -0.7096 -0.4251
  189MOL0     H24946   7.771  11.870   4.998 -2.0654 -0.1513  4.1365
  189MOL0     H24947   8.295  11.338   4.596 -0.0681  0.2658 -0.1038
  189MOL0     H24948   8.253  11.249   4.367 -0.6612 -0.3380  0.7011
  190MOL0     O24949  10.472   6.471   6.471 -0.4002 -0.9440  0.2029
  190MOL0     C24950  10.576   6.462   6.540  0.5090 -1.2221 -0.7433
  190MOL0     O24951  10.642   6.570   6.579 -0.6726 -0.6315 -1.0153
  190MOL0     C24952  10.588   6.696   6.580  0.6302  0.2802  0.9104
  190MOL0     C24953  10.662   6.797   6.525  0.3561 -0.5921  0.0847
  190MOL0     C24954  10.627   6.930   6.536  0.7931 -0.3133  0.4260
  190MOL0     C24955  10.500   6.966   6.594  0.6054 -0.0289  1.0737
  190MOL0     O24956  10.459   7.098   6.584 -0.2127  0.6471  0.0737
  190MOL0     C24957  10.363   7.149   6.681 -0.7427  0.3269  0.2987
  190MOL0     C24958  10.352   7.291   6.637 -0.0085  0.6528  0.1629
  190MOL0     C24959  10.249   7.369   6.714  0.1441  0.1711 -0.3795
  190MOL0     C24960  10.261   7.354   6.866 -0.8355  0.5173 -0.2032
  190MOL0     C24961  10.174   7.440   6.942  0.2841 -0.2026 -0.9048
  190MOL0     C24962  10.147   7.379   7.082 -0.2199  0.3823  0.0713
  190MOL0     C24963  10.016   7.304   7.077 -0.5059  0.0490  0.5573
  190MOL0     C24964   9.963   7.270   7.225 -0.0037 -0.0301 -0.2425
  190MOL0     N24965  10.057   7.200   7.316  0.4087  0.2286 -0.2244
  190MOL0     C24966  10.128   7.087   7.281  0.3689  0.7446  0.3938
  190MOL0     C24967  10.168   7.043   7.396 -0.2925 -0.3011  0.4290
  190MOL0     C24968  10.253   6.913   7.405  0.7651  1.0437  0.0857
  190MOL0     C24969  10.407   6.930   7.376 -1.2119 -0.2241 -0.0433
  190MOL0     C24970  10.492   7.035   7.467  0.2002  0.1887 -0.3848
  190MOL0     C24971  10.527   6.982   7.603 -0.5058  0.3635 -0.0354
  190MOL0     O24972  10.592   7.085   7.693  0.1931  0.0454  0.6128
  190MOL0     C24973  10.524   7.106   7.803 -1.0823  0.2661  0.2938
  190MOL0     C24974  10.598   7.124   7.925  0.3816 -0.6669  0.6775
  190MOL0     C24975  10.537   7.174   8.045 -0.4058 -0.2178 -0.5515
  190MOL0     C24976  10.411   7.232   8.029  0.1096  0.9293  0.1273
  190MOL0     C24977  10.335   7.289   8.146 -0.8148  0.1722  0.7136
  190MOL0     O24978  10.362   7.242   8.270  0.0585  0.2496 -0.8515
  190MOL0     C24979  10.301   7.302   8.385 -0.1901  0.6950  0.6228
  190MOL0     C24980  10.383   7.317   8.498 -0.5052  0.5019  0.0270
  190MOL0     C24981  10.340   7.392   8.608  0.6834  0.5887 -0.1510
  190MOL0     C24982  10.207   7.438   8.609  0.3341  0.2376 -0.4948
  190MOL0     O24983  10.154   7.503   8.719 -0.0367 -0.2202 -0.1103
  190MOL0     C24984  10.073   7.413   8.800 -0.3552 -0.7248 -0.0004
  190MOL0     C24985   9.925   7.475   8.822  0.2121  0.5034  0.9082
  190MOL0     C24986   9.836   7.392   8.912 -0.7826  0.0252 -0.1437
  190MOL0     C24987   9.713   7.466   8.956  0.0630  0.2228  0.4356
  190MOL0     C24988   9.632   7.380   9.055  0.6283  0.7733 -0.1226
  190MOL0     C24989   9.495   7.440   9.087 -1.1587 -0.3649  1.0085
  190MOL0     C24990   9.416   7.371   9.198 -0.4727  0.4787 -0.6998
  190MOL0     C24991   9.429   7.457   9.335  0.5036  0.5818  1.1881
  190MOL0    Cl24992   9.602   7.454   9.393 -0.0687  0.1791 -0.3547
  190MOL0     C24993  10.124   7.416   8.498 -0.2453 -1.0217 -0.3543
  190MOL0     C24994  10.170   7.351   8.389  1.0733  0.2167  0.3356
  190MOL0     O24995  10.253   7.380   8.114 -1.1162 -0.0300 -0.4303
  190MOL0     C24996  10.336   7.205   7.912  0.4870 -0.1639  0.3891
  190MOL0     C24997  10.390   7.146   7.802 -0.3509  0.3106  0.3287
  190MOL0     N24998  10.127   7.121   7.501 -0.7125 -0.8134 -0.3079
  190MOL0     N24999  10.065   7.216   7.447 -0.0205 -0.4913 -0.4266
  190MOL0     C25000  10.418   6.860   6.639 -1.1117  0.7494 -0.8100
  190MOL0     C25001  10.462   6.724   6.634 -0.2405 -0.2197  0.8444
  190MOL0     C25002  10.626   6.331   6.578  0.5092 -0.1180 -0.4730
  190MOL0     C25003  10.570   6.209   6.523 -0.4744  0.4657  0.1856
  190MOL0     C25004  10.637   6.084   6.548 -0.0703  0.5911  0.0226
  190MOL0     C25005  10.760   6.083   6.622 -0.0754  0.5418  0.1209
  190MOL0     O25006  10.840   5.971   6.653 -1.0287 -0.2996 -0.6921
  190MOL0     C25007  10.807   5.913   6.785  0.8920 -0.1596  0.4572
  190MOL0     C25008  10.864   5.767   6.809 -0.1950 -0.6978 -0.1825
  190MOL0     C25009  11.011   5.780   6.858 -0.0468  0.2508 -0.2952
  190MOL0     C25010  11.108   5.812   6.750  0.0842  0.0257  0.1028
  190MOL0     C25011  11.244   5.845   6.783  0.3650 -0.2821  0.3541
  190MOL0     C25012  11.358   5.873   6.820  0.0258  0.1955  0.6393
  190MOL0     C25013  10.814   6.205   6.661  0.5819 -0.5841 -0.3847
  190MOL0     C25014  10.749   6.321   6.650  0.7766  0.2890 -0.4341
  190MOL0     H25015  10.753   6.763   6.477  0.3672 -1.2947  0.5897
  190MOL0     H25016  10.691   7.005   6.491 -0.8658  3.4463  3.7634
  190MOL0     H25017  10.418   7.142   6.775 -0.1562 -0.1462 -0.0731
  190MOL0     H25018  10.268   7.096   6.672  1.1517 -3.1525 -0.9757
  190MOL0     H25019  10.315   7.281   6.535  0.5579  1.3742 -0.1234
  190MOL0     H25020  10.449   7.340   6.647  0.7305 -1.1843  3.9414
  190MOL0     H25021  10.145   7.341   6.692  0.6731 -1.1728 -1.3276
  190MOL0     H25022  10.265   7.473   6.687  0.2057  0.0114 -0.9717
  190MOL0     H25023  10.231   7.251   6.887 -1.3883  0.6653 -0.2539
  190MOL0     H25024  10.362   7.377   6.900 -1.1361 -1.4182  2.2640
  190MOL0     H25025  10.079   7.460   6.892 -0.1280 -4.4490 -2.2815
  190MOL0     H25026  10.227   7.533   6.963 -1.7451  0.2001  3.6060
  190MOL0     H25027  10.123   7.457   7.155  5.0969  2.6038 -0.0694
  190MOL0     H25028  10.225   7.306   7.105  0.5776  1.0580 -0.4320
  190MOL0     H25029   9.937   7.367   7.035 -2.4824  0.5345  4.5308
  190MOL0     H25030  10.021   7.215   7.014 -1.1939  0.2005  0.2763
  190MOL0     H25031   9.871   7.210   7.225  0.3596 -0.6162 -1.7109
  190MOL0     H25032   9.923   7.357   7.277 -2.1825 -1.4797  0.7024
  190MOL0     H25033  10.142   7.032   7.189 -0.2204  0.0615  0.7018
  190MOL0     H25034  10.208   6.844   7.333 -0.0576  2.7418 -1.1121
  190MOL0     H25035  10.247   6.879   7.508  2.5438 -0.6711 -0.3081
  190MOL0     H25036  10.422   6.959   7.272  1.7018 -0.2557  0.2920
  190MOL0     H25037  10.457   6.833   7.380 -1.0627 -0.1149  1.7813
  190MOL0     H25038  10.581   7.073   7.416  0.8216 -0.9559 -0.1892
  190MOL0     H25039  10.427   7.123   7.474  0.6309  0.5518 -0.8996
  190MOL0     H25040  10.601   6.901   7.596  0.1079  0.9161 -0.0570
  190MOL0     H25041  10.441   6.933   7.650 -0.0658 -0.4131 -0.0198
  190MOL0     H25042  10.701   7.093   7.941  0.1278 -5.0619 -3.8163
  190MOL0     H25043  10.591   7.190   8.138 -1.7876  1.5100 -0.0007
  190MOL0     H25044  10.479   7.268   8.502 -1.6610 -1.7988  2.5638
  190MOL0     H25045  10.402   7.404   8.697 -3.1566 -1.5116  3.1991
  190MOL0     H25046  10.120   7.387   8.896  3.2551  0.0950 -1.4151
  190MOL0     H25047  10.053   7.324   8.740 -3.7929 -0.0721 -0.0351
  190MOL0     H25048   9.872   7.486   8.727  2.1732 -1.3777 -0.5275
  190MOL0     H25049   9.928   7.575   8.866  0.1065  1.0536 -0.2835
  190MOL0     H25050   9.893   7.361   9.000  3.3461 -0.5366 -2.7381
  190MOL0     H25051   9.787   7.311   8.856 -1.3233  0.9305 -1.0273
  190MOL0     H25052   9.740   7.565   8.993 -0.9286  0.3271  0.9141
  190MOL0     H25053   9.636   7.465   8.878 -0.6376 -0.1707  1.1078
  190MOL0     H25054   9.690   7.367   9.147 -1.2147 -0.3954  0.9199
  190MOL0     H25055   9.623   7.281   9.011  2.4647  1.0259 -1.1673
  190MOL0     H25056   9.437   7.434   8.994  0.2016  0.7643  0.0394
  190MOL0     H25057   9.512   7.544   9.115  0.4961  0.3196 -2.1202
  190MOL0     H25058   9.312   7.372   9.165 -0.0783 -0.1798 -2.0366
  190MOL0     H25059   9.448   7.267   9.212 -1.2070  0.5348  1.7736
  190MOL0     H25060   9.362   7.400   9.401 -0.2606 -3.5236 -2.6876
  190MOL0     H25061   9.403   7.561   9.315 -0.0600  0.9278  3.4691
  190MOL0     H25062  10.022   7.452   8.496  0.4202  1.1176 -4.2502
  190MOL0     H25063  10.098   7.328   8.311 -1.7251  1.0832  2.4756
  190MOL0     H25064  10.231   7.229   7.898  0.4244 -0.1992  0.7758
  190MOL0     H25065  10.329   7.141   7.712  0.5939 -0.9103 -0.2791
  190MOL0     H25066  10.313   6.866   6.668 -1.0784 -2.8658  0.7016
  190MOL0     H25067  10.399   6.646   6.676  1.3696 -1.3298  1.2701
  190MOL0     H25068  10.500   6.208   6.441  1.1472 -0.9224 -1.2804
  190MOL0     H25069  10.606   5.987   6.510  1.1135  0.4975 -0.7667
  190MOL0     H25070  10.699   5.921   6.797  1.0951 -0.2076  2.7192
  190MOL0     H25071  10.853   5.978   6.860  0.4788  1.9171 -1.0275
  190MOL0     H25072  10.803   5.720   6.887 -0.9225  0.9694  0.2890
  190MOL0     H25073  10.863   5.702   6.721  0.7050 -0.5518 -0.3165
  190MOL0     H25074  11.051   5.689   6.904  0.5388  1.2090  1.1274
  190MOL0     H25075  11.001   5.852   6.939 -3.6419  1.8830 -1.9646
  190MOL0     H25076  11.123   5.725   6.686 -2.0359 -1.9411  2.0991
  190MOL0     H25077  11.069   5.897   6.692 -4.9658 -1.6419  0.6045
  190MOL0     H25078  11.453   5.900   6.861 -1.9512  2.6913  3.9765
  190MOL0     H25079  10.917   6.198   6.695  1.6662 -2.7281 -3.5814
  190MOL0     H25080  10.812   6.401   6.688  1.8543 -0.2063 -1.1340
  191MOL0     O25081   3.117   9.641   1.376 -0.3938 -0.2796  0.5631
  191MOL0     C25082   3.113   9.548   1.462  0.6602  0.3391  0.1636
  191MOL0     O25083   3.144   9.562   1.600 -0.2156  0.0123 -0.3854
  191MOL0     C25084   3.235   9.657   1.633 -0.2396  0.2270  0.3049
  191MOL0     C25085   3.217   9.703   1.765 -0.0889  1.3024  0.2679
  191MOL0     C25086   3.307   9.800   1.818  0.0993 -0.3998  0.4621
  191MOL0     C25087   3.409   9.853   1.734 -1.3283 -0.0642  0.6995
  191MOL0     O25088   3.503   9.946   1.771 -0.3938 -0.3289  0.1671
  191MOL0     C25089   3.451  10.076   1.809 -0.3949 -0.4859  1.5900
  191MOL0     C25090   3.514  10.132   1.934  0.1324 -0.5325  0.2245
  191MOL0     C25091   3.446  10.072   2.059 -0.0456  0.3407  0.6324
  191MOL0     C25092   3.538  10.112   2.182  0.8949 -0.7118 -0.6653
  191MOL0     C25093   3.469  10.091   2.319  0.0930  0.7698 -0.0070
  191MOL0     C25094   3.438   9.939   2.338  1.1469  0.7052 -0.1364
  191MOL0     C25095   3.401   9.914   2.489 -1.1066  1.0953  0.4294
  191MOL0     C25096   3.419   9.775   2.552  0.0218 -0.8270 -0.1791
  191MOL0     N25097   3.299   9.688   2.536 -0.3448  0.5772  0.2523
  191MOL0     C25098   3.255   9.640   2.416  0.2532  0.0814 -0.8229
  191MOL0     C25099   3.128   9.599   2.430  0.4036 -0.0935 -0.4163
  191MOL0     C25100   3.027   9.561   2.326  0.4175  0.0714  0.3781
  191MOL0     C25101   2.949   9.443   2.367  0.5041  1.3592  0.6931
  191MOL0     C25102   2.872   9.360   2.261  0.0260 -0.1354  0.2250
  191MOL0     C25103   2.757   9.453   2.189 -0.1966 -0.0050  1.0332
  191MOL0     O25104   2.817   9.541   2.087 -0.0941  0.6445 -0.2673
  191MOL0     C25105   2.730   9.587   1.992 -0.7622  0.7302 -0.3044
  191MOL0     C25106   2.801   9.657   1.893 -1.2792 -0.0929  0.1031
  191MOL0     C25107   2.730   9.726   1.794 -0.0955  0.7735 -0.3558
  191MOL0     C25108   2.592   9.721   1.791  0.0903  0.1463 -0.9370
  191MOL0     C25109   2.526   9.810   1.696  0.2730 -0.0693  1.1384
  191MOL0     O25110   2.391   9.802   1.698 -0.1889  0.4085 -0.2918
  191MOL0     C25111   2.336   9.822   1.576 -0.0693  0.3747  0.9986
  191MOL0     C25112   2.266   9.939   1.558  0.4680 -0.3367  0.3081
  191MOL0     C25113   2.195   9.962   1.440  0.5113 -0.1082  0.2594
  191MOL0     C25114   2.191   9.865   1.337  0.3113  0.4193 -0.4138
  191MOL0     O25115   2.118   9.884   1.221  0.8173  0.0813 -0.0058
  191MOL0     C25116   2.159   9.821   1.103 -1.3840  0.2919  0.4099
  191MOL0     C25117   2.075   9.849   0.975 -0.7009  1.3222 -0.5208
  191MOL0     C25118   1.924   9.823   0.984  0.2048 -0.0129 -0.6433
  191MOL0     C25119   1.867   9.875   0.855  0.0497  0.4017  0.0199
  191MOL0     C25120   1.718   9.829   0.843 -0.8581 -0.2918 -0.2075
  191MOL0     C25121   1.652   9.871   0.711  0.7201  0.1121  0.1286
  191MOL0     C25122   1.511   9.806   0.702  0.6648 -0.2626 -0.3816
  191MOL0     C25123   1.421   9.883   0.600 -0.1476  0.8351  0.0491
  191MOL0    Cl25124   1.463   9.838   0.421 -0.2349 -0.1802  0.2738
  191MOL0     C25125   2.260   9.748   1.357  1.0669 -0.1132 -1.1251
  191MOL0     C25126   2.334   9.723   1.476  0.0012 -0.2894 -0.2027
  191MOL0     O25127   2.593   9.869   1.609  0.4961 -0.2314  0.3733
  191MOL0     C25128   2.521   9.644   1.880 -0.5399 -0.8135  0.4910
  191MOL0     C25129   2.592   9.584   1.984 -0.1285  0.6234  0.4005
  191MOL0     N25130   3.090   9.625   2.565 -0.4039 -0.1923  0.2347
  191MOL0     N25131   3.193   9.683   2.625  0.1714 -0.3901 -0.2047
  191MOL0     C25132   3.415   9.816   1.598 -0.1357  0.1317 -0.0696
  191MOL0     C25133   3.331   9.720   1.554  0.3420 -0.3316  1.4897
  191MOL0     C25134   3.058   9.417   1.407  0.3682 -0.5618 -0.9368
  191MOL0     C25135   3.007   9.323   1.502  0.0239  0.0138 -0.1014
  191MOL0     C25136   2.952   9.206   1.450 -1.7242 -0.1442 -0.3657
  191MOL0     C25137   2.951   9.169   1.312 -0.4459  0.6620 -0.3989
  191MOL0     O25138   2.893   9.052   1.279 -0.0745  0.0926  0.0239
  191MOL0     C25139   2.884   9.011   1.142 -0.3091  0.2001 -0.2291
  191MOL0     C25140   2.790   8.894   1.140 -0.4667 -0.6523  0.2855
  191MOL0     C25141   2.832   8.769   1.211  0.0734  0.1649 -0.2548
  191MOL0     C25142   2.957   8.701   1.157  0.3265  0.1971  0.3371
  191MOL0     C25143   2.925   8.657   1.019 -0.7103  0.1770 -0.2214
  191MOL0     C25144   2.926   8.619   0.901 -0.7666  0.1939  0.1234
  191MOL0     C25145   3.002   9.264   1.226  0.8433 -0.4230  0.2152
  191MOL0     C25146   3.049   9.388   1.274 -0.9656  0.1933  0.1624
  191MOL0     H25147   3.137   9.657   1.824 -1.0831  2.7657  0.1043
  191MOL0     H25148   3.292   9.831   1.921 -0.8091  0.3818  0.1090
  191MOL0     H25149   3.343  10.080   1.827 -0.5599  2.1194  0.4767
  191MOL0     H25150   3.467  10.142   1.723 -1.9781 -1.6383  0.3290
  191MOL0     H25151   3.514  10.241   1.925 -0.8585 -0.6810 -2.6955
  191MOL0     H25152   3.615  10.089   1.936 -0.3711 -1.8781 -1.1425
  191MOL0     H25153   3.444   9.964   2.043  0.4318  0.3814  0.2853
  191MOL0     H25154   3.341  10.103   2.059 -0.9168 -2.3348 -1.1200
  191MOL0     H25155   3.628  10.051   2.186  1.1955 -0.2612  2.7318
  191MOL0     H25156   3.566  10.217   2.169  1.2782 -0.3124  2.5891
  191MOL0     H25157   3.372  10.141   2.334 -1.4455 -1.7150 -0.9745
  191MOL0     H25158   3.535  10.130   2.397  0.0926  1.2791 -0.2559
  191MOL0     H25159   3.522   9.873   2.310  1.9810 -0.1207  3.7137
  191MOL0     H25160   3.346   9.927   2.282 -0.0729  0.8817  1.7339
  191MOL0     H25161   3.452   9.984   2.556 -4.0416  1.5932  2.3096
  191MOL0     H25162   3.293   9.926   2.500 -1.2327 -0.6333  1.5974
  191MOL0     H25163   3.427   9.801   2.658  4.0497  0.0582 -0.5164
  191MOL0     H25164   3.509   9.725   2.512  0.9897  0.8996 -0.2510
  191MOL0     H25165   3.317   9.638   2.327  2.0191  0.4614  0.3418
  191MOL0     H25166   3.082   9.539   2.234  0.2501 -1.7935  0.6929
  191MOL0     H25167   2.956   9.641   2.301  4.1602  2.8775 -2.4521
  191MOL0     H25168   2.890   9.481   2.451  1.7306  4.6047  0.2458
  191MOL0     H25169   3.013   9.363   2.408 -0.8355 -0.2168 -0.1767
  191MOL0     H25170   2.944   9.324   2.188 -0.1166 -2.1074  1.0103
  191MOL0     H25171   2.827   9.272   2.307 -2.4985  1.2249  0.5468
  191MOL0     H25172   2.708   9.514   2.265 -2.0756  1.6841 -1.3725
  191MOL0     H25173   2.689   9.382   2.141 -0.3608 -1.1348  2.8416
  191MOL0     H25174   2.909   9.643   1.894 -1.0588  1.2526 -1.1175
  191MOL0     H25175   2.787   9.776   1.716  1.5108  0.8396  0.8157
  191MOL0     H25176   2.258  10.016   1.634  0.9087  1.8135 -1.7097
  191MOL0     H25177   2.137  10.050   1.416  0.5029 -0.6601 -2.0353
  191MOL0     H25178   2.145   9.713   1.112 -2.0240  0.5247  2.8622
  191MOL0     H25179   2.265   9.844   1.090 -2.3150  3.4106 -3.5722
  191MOL0     H25180   2.111   9.783   0.896 -2.2333  0.2729 -0.3920
  191MOL0     H25181   2.091   9.953   0.946 -2.3142  1.3480 -1.4449
  191MOL0     H25182   1.878   9.881   1.064  0.0655 -1.7278  0.5625
  191MOL0     H25183   1.912   9.715   0.997  0.4269  0.1161  0.6938
  191MOL0     H25184   1.871   9.983   0.843 -2.3453  0.3234 -2.6737
  191MOL0     H25185   1.914   9.828   0.768  3.4484  0.8685  1.4782
  191MOL0     H25186   1.668   9.871   0.931 -0.5940 -1.6626  0.6188
  191MOL0     H25187   1.712   9.720   0.842 -2.7421 -0.2607  1.3892
  191MOL0     H25188   1.707   9.833   0.625  1.1871  0.8605  0.0828
  191MOL0     H25189   1.644   9.978   0.692 -2.9840  0.1301  1.1410
  191MOL0     H25190   1.515   9.698   0.685 -0.2413 -0.4123  0.3246
  191MOL0     H25191   1.474   9.814   0.805  1.4118  2.6661 -0.2326
  191MOL0     H25192   1.436   9.991   0.605 -0.1501  0.9170 -1.2909
  191MOL0     H25193   1.315   9.863   0.618 -0.0209  1.1444  1.2164
  191MOL0     H25194   2.232   9.661   1.298  1.6026 -0.3841 -0.9866
  191MOL0     H25195   2.387   9.633   1.509  3.0450  1.2731 -0.4965
  191MOL0     H25196   2.417   9.622   1.857  0.0956 -3.3242 -0.3177
  191MOL0     H25197   2.542   9.521   2.057 -3.0270  3.3739  1.0139
  191MOL0     H25198   3.492   9.844   1.526 -1.6018  1.0547 -1.3466
  191MOL0     H25199   3.359   9.694   1.453  2.3833  1.5106  1.4955
  191MOL0     H25200   3.011   9.344   1.608  0.9238  2.4822 -0.5626
  191MOL0     H25201   2.912   9.132   1.518 -2.2144  1.8415  1.6389
  191MOL0     H25202   2.978   8.982   1.094  0.3593  0.9671  0.5850
  191MOL0     H25203   2.843   9.094   1.083  1.4082  0.4496 -1.1625
  191MOL0     H25204   2.696   8.931   1.181 -0.6128 -0.3632 -0.2990
  191MOL0     H25205   2.768   8.871   1.035  0.3019  1.2830 -0.3378
  191MOL0     H25206   2.749   8.700   1.227 -0.3757  1.1339  1.8724
  191MOL0     H25207   2.865   8.807   1.308  1.7043  2.1244 -1.5056
  191MOL0     H25208   3.044   8.768   1.157 -0.2972  1.0086  0.1179
  191MOL0     H25209   2.970   8.610   1.217 -2.3573 -0.3861  0.1446
  191MOL0     H25210   2.932   8.598   0.796  0.1113 -0.0364  0.2091
  191MOL0     H25211   2.995   9.243   1.119 -1.5903 -0.1158  0.2667
  191MOL0     H25212   3.090   9.446   1.193 -1.7047 -0.0836 -0.4181
  192MOL0     O25213  10.582   3.775   3.839 -0.2147  0.7920  0.4132
  192MOL0     C25214  10.464   3.797   3.846  0.1506 -0.2056 -0.0253
  192MOL0     O25215  10.391   3.846   3.959 -0.2756  0.5794  0.5811
  192MOL0     C25216  10.462   3.910   4.057 -0.4112  0.4224 -0.7483
  192MOL0     C25217  10.429   4.042   4.085 -0.1666  0.4744  1.0643
  192MOL0     C25218  10.475   4.105   4.205  0.3568 -0.1492 -0.7087
  192MOL0     C25219  10.570   4.044   4.290  0.1127 -0.4529 -0.3570
  192MOL0     O25220  10.626   4.085   4.404  0.1756 -0.2677 -0.5007
  192MOL0     C25221  10.550   4.173   4.483 -0.7652  0.6965  0.2896
  192MOL0     C25222  10.578   4.145   4.626  0.4960 -1.0140 -0.1597
  192MOL0     C25223  10.707   4.185   4.696  0.8501 -0.5168 -0.0003
  192MOL0     C25224  10.845   4.118   4.672  0.1177  0.0348  0.0205
  192MOL0     C25225  10.969   4.220   4.690  0.1903  0.2987 -0.4426
  192MOL0     C25226  11.104   4.164   4.630  1.1366  1.3911  0.9173
  192MOL0     C25227  11.090   4.127   4.476  0.2004  0.0898 -0.0454
  192MOL0     C25228  11.226   4.119   4.409  0.1500  1.2379  0.9713
  192MOL0     N25229  11.219   4.050   4.271 -0.2424 -1.5222 -0.2624
  192MOL0     C25230  11.176   4.092   4.151 -0.0885 -0.0694 -0.4938
  192MOL0     C25231  11.159   3.988   4.074 -0.1819  0.1534  0.0002
  192MOL0     C25232  11.129   3.974   3.927  0.7534  0.3333 -0.6394
  192MOL0     C25233  10.983   3.961   3.916 -0.1019  0.4323  0.5281
  192MOL0     C25234  10.908   4.090   3.961  0.0069  0.6827  0.5706
  192MOL0     C25235  10.777   4.112   3.884  0.7674  0.3713 -0.3128
  192MOL0     O25236  10.794   4.170   3.758  0.1786 -0.3940 -0.1992
  192MOL0     C25237  10.691   4.166   3.672  1.5039  0.2830  0.0223
  192MOL0     C25238  10.719   4.210   3.552  1.1481 -0.4889 -0.2157
  192MOL0     C25239  10.615   4.236   3.461 -0.2788  0.1278  0.2154
  192MOL0     C25240  10.476   4.209   3.489 -0.6941  0.0491 -0.2961
  192MOL0     C25241  10.354   4.232   3.403  0.1394 -0.1625 -1.1741
  192MOL0     O25242  10.236   4.288   3.466  1.4190 -0.4752  0.0665
  192MOL0     C25243  10.123   4.287   3.388 -0.8481 -0.1806  0.0180
  192MOL0     C25244  10.042   4.175   3.371 -0.7983 -0.9034  0.0212
  192MOL0     C25245   9.927   4.167   3.292 -0.3527 -0.5395 -0.2475
  192MOL0     C25246   9.883   4.289   3.223 -0.1884  0.0846  0.2397
  192MOL0     O25247   9.759   4.275   3.158 -0.1213 -0.2011  0.1603
  192MOL0     C25248   9.735   4.360   3.039  1.0898 -0.2882  0.0410
  192MOL0     C25249   9.625   4.295   2.959  0.0842  0.0711 -0.0922
  192MOL0     C25250   9.483   4.281   3.018 -0.2668 -0.8302  0.3466
  192MOL0     C25251   9.393   4.231   2.897 -0.4229 -1.0451  0.1859
  192MOL0     C25252   9.257   4.186   2.940 -1.0936  0.1177 -0.3807
  192MOL0     C25253   9.188   4.292   3.024 -0.2514 -0.3625  0.1603
  192MOL0     C25254   9.051   4.250   3.057 -0.0705  0.3411 -0.2145
  192MOL0     C25255   9.032   4.127   3.137  0.5383 -0.6469  0.4071
  192MOL0    Cl25256   9.074   4.151   3.307  0.0137 -0.2207  0.2621
  192MOL0     C25257   9.968   4.402   3.231 -0.0047  0.4411 -0.3439
  192MOL0     C25258  10.088   4.402   3.312  0.0835 -1.1323 -0.1537
  192MOL0     O25259  10.364   4.213   3.287 -1.0082  0.3211  0.8096
  192MOL0     C25260  10.446   4.162   3.621  0.6071  0.3349  0.1582
  192MOL0     C25261  10.553   4.140   3.712  0.8511  0.7587 -0.7579
  192MOL0     N25262  11.215   3.878   4.147  0.5379  0.1697  0.9469
  192MOL0     N25263  11.239   3.924   4.265 -0.4728  0.5302  0.0784
  192MOL0     C25264  10.606   3.914   4.255 -0.1378  0.1661  0.3042
  192MOL0     C25265  10.546   3.848   4.145  0.2205 -0.4433  0.7883
  192MOL0     C25266  10.391   3.787   3.715 -0.3765  1.6134  1.2424
  192MOL0     C25267  10.262   3.830   3.710  0.2309  0.4083 -0.9590
  192MOL0     C25268  10.189   3.839   3.593 -0.5741  0.5864 -0.2561
  192MOL0     C25269  10.245   3.788   3.478  0.2874 -0.2073  0.6482
  192MOL0     O25270  10.164   3.806   3.373 -0.2239 -0.2173 -0.1800
  192MOL0     C25271  10.179   3.718   3.251  0.1298 -0.1157  0.4434
  192MOL0     C25272  10.034   3.687   3.195  0.9642  0.0638 -0.3469
  192MOL0     C25273   9.931   3.650   3.305  0.0583  0.7320  0.0148
  192MOL0     C25274   9.789   3.634   3.253  0.2560 -0.2054  0.9073
  192MOL0     C25275   9.787   3.537   3.145 -1.2657  0.7818  0.5139
  192MOL0     C25276   9.789   3.432   3.084  0.1991  0.4477  0.0004
  192MOL0     C25277  10.377   3.742   3.483 -0.6689 -0.4342  0.4137
  192MOL0     C25278  10.456   3.751   3.598  0.2951  0.6235  0.1830
  192MOL0     H25279  10.376   4.092   4.005 -0.8048 -1.8585 -0.0420
  192MOL0     H25280  10.431   4.204   4.212  2.8070  0.9271  0.7474
  192MOL0     H25281  10.442   4.165   4.469 -0.9418 -0.7158  2.1107
  192MOL0     H25282  10.578   4.275   4.453 -2.3406  0.8142 -0.9457
  192MOL0     H25283  10.575   4.036   4.639 -1.8272 -1.0176 -0.3730
  192MOL0     H25284  10.496   4.186   4.685  0.0032 -1.3202 -0.6262
  192MOL0     H25285  10.686   4.169   4.802 -0.8410 -0.1876 -0.2543
  192MOL0     H25286  10.723   4.294   4.696 -1.2631 -0.1451  1.1323
  192MOL0     H25287  10.859   4.033   4.738 -1.7688  1.9208  3.0939
  192MOL0     H25288  10.853   4.108   4.563  1.0465  1.5332 -0.0869
  192MOL0     H25289  10.985   4.226   4.798  1.8658  0.0993 -0.6594
  192MOL0     H25290  10.945   4.317   4.647 -0.8679  0.7935  1.1635
  192MOL0     H25291  11.142   4.087   4.698 -2.8710 -2.2138 -0.5365
  192MOL0     H25292  11.160   4.257   4.647 -0.9892  2.9655 -0.1264
  192MOL0     H25293  11.031   4.036   4.467  2.1485 -1.6408  2.9454
  192MOL0     H25294  11.036   4.208   4.425 -2.1679 -0.6411  1.1216
  192MOL0     H25295  11.306   4.066   4.462  1.1099  1.1318 -0.5098
  192MOL0     H25296  11.259   4.222   4.394 -1.5058  1.9241  1.8575
  192MOL0     H25297  11.155   4.195   4.121 -1.3863  0.1326  1.0177
  192MOL0     H25298  11.185   3.890   3.883 -0.0903 -0.8897  0.5312
  192MOL0     H25299  11.161   4.071   3.890  4.0573  0.4119  1.9422
  192MOL0     H25300  10.962   3.878   3.984 -0.7919  1.1321  1.1777
  192MOL0     H25301  10.963   3.923   3.815  0.5162 -0.2222  0.6482
  192MOL0     H25302  10.895   4.101   4.069  1.4988  3.8466  0.5511
  192MOL0     H25303  10.963   4.180   3.932  0.1540 -0.4281 -3.1154
  192MOL0     H25304  10.715   4.188   3.933 -0.1190 -0.1631 -0.5795
  192MOL0     H25305  10.725   4.016   3.881  0.2581  0.6072  0.4819
  192MOL0     H25306  10.823   4.227   3.530  1.2233  3.0754  2.1725
  192MOL0     H25307  10.626   4.277   3.361 -3.9195  1.7392  0.3260
  192MOL0     H25308  10.072   4.084   3.421 -1.0775 -0.0490  1.8090
  192MOL0     H25309   9.878   4.070   3.291  1.7403 -1.6953  1.7576
  192MOL0     H25310   9.826   4.370   2.980  0.6860  1.0178 -0.3975
  192MOL0     H25311   9.694   4.457   3.069 -1.7338 -0.9350 -1.4562
  192MOL0     H25312   9.663   4.193   2.948  1.5414  0.6678 -0.8771
  192MOL0     H25313   9.617   4.345   2.862 -4.2337 -0.8305 -0.3706
  192MOL0     H25314   9.468   4.382   3.059 -2.0299 -0.8237 -0.2204
  192MOL0     H25315   9.488   4.222   3.110 -1.5687 -0.5953  0.5864
  192MOL0     H25316   9.387   4.311   2.823 -0.0644  0.8713  2.0968
  192MOL0     H25317   9.447   4.155   2.840  0.0102 -0.6156  0.0148
  192MOL0     H25318   9.286   4.092   2.990  0.3670 -0.2338 -1.8182
  192MOL0     H25319   9.195   4.165   2.852  0.1418  3.9770 -2.3752
  192MOL0     H25320   9.181   4.380   2.960  0.8257 -0.0362  0.4782
  192MOL0     H25321   9.235   4.310   3.121 -0.7312 -0.5846  0.4432
  192MOL0     H25322   9.002   4.322   3.124 -0.8597  0.0044 -0.4137
  192MOL0     H25323   8.999   4.242   2.962  0.3555  0.2910 -0.4438
  192MOL0     H25324   9.096   4.049   3.095  1.7109 -0.7695  2.2903
  192MOL0     H25325   8.929   4.093   3.126  1.3261 -2.8014 -1.0213
  192MOL0     H25326   9.933   4.483   3.168  1.2580  0.9337 -0.4347
  192MOL0     H25327  10.164   4.480   3.307 -1.7368  0.7109 -4.5580
  192MOL0     H25328  10.346   4.134   3.653  1.4004 -1.7597  0.9632
  192MOL0     H25329  10.522   4.111   3.812  1.1055  1.2407 -0.5357
  192MOL0     H25330  10.675   3.862   4.321 -1.7803 -0.2565  1.7594
  192MOL0     H25331  10.560   3.742   4.129 -0.3863 -0.2114 -1.6160
  192MOL0     H25332  10.207   3.852   3.802 -0.9736 -4.5040 -0.2306
  192MOL0     H25333  10.093   3.887   3.583 -0.7560  0.4650  0.7788
  192MOL0     H25334  10.225   3.620   3.264 -0.0688 -0.1575  0.8320
  192MOL0     H25335  10.231   3.769   3.169  1.0010 -0.2293  0.9151
  192MOL0     H25336   9.994   3.774   3.141 -1.2963  1.5868  3.3917
  192MOL0     H25337  10.044   3.604   3.125 -0.0872  1.1871 -1.8974
  192MOL0     H25338   9.934   3.725   3.385  4.2740  2.6446 -1.5891
  192MOL0     H25339   9.965   3.560   3.356 -0.7478  1.1335  1.3214
  192MOL0     H25340   9.729   3.601   3.338  1.6883  2.1267  2.9709
  192MOL0     H25341   9.763   3.733   3.213 -1.5348 -1.5134 -1.4208
  192MOL0     H25342   9.785   3.341   3.027  2.8117  0.7354 -0.7462
  192MOL0     H25343  10.421   3.704   3.391  0.2314 -0.8197  0.9929
  192MOL0     H25344  10.560   3.721   3.597 -0.7193 -3.4195 -0.7541
  193MOL0     O25345   6.139   3.472   9.719 -1.2817 -0.7434 -0.3293
  193MOL0     C25346   6.199   3.374   9.675  1.0536 -0.3469 -0.4403
  193MOL0     O25347   6.142   3.260   9.651  0.1585  0.9954  0.0027
  193MOL0     C25348   6.004   3.254   9.623 -0.5723  0.0357  0.7597
  193MOL0     C25349   5.950   3.124   9.635  0.2421  0.5520  0.9724
  193MOL0     C25350   5.828   3.090   9.577 -0.6889  0.4884 -0.6349
  193MOL0     C25351   5.757   3.192   9.506 -0.2761  0.6705 -0.5041
  193MOL0     O25352   5.639   3.171   9.445  0.4556  0.3896 -0.6917
  193MOL0     C25353   5.557   3.060   9.468 -0.0753  0.2683  0.1998
  193MOL0     C25354   5.419   3.076   9.400  0.1245  0.1054  0.1216
  193MOL0     C25355   5.305   3.061   9.496 -0.0658 -0.4745 -0.5928
  193MOL0     C25356   5.298   2.933   9.575 -0.1461 -0.3934 -0.1510
  193MOL0     C25357   5.216   2.934   9.704 -0.7317 -0.3069  0.3877
  193MOL0     C25358   5.072   2.980   9.671  0.1575  0.3322  0.0727
  193MOL0     C25359   4.982   2.956   9.793 -0.5233  0.7426  1.5777
  193MOL0     C25360   4.836   2.969   9.741  0.0688  0.5193  1.1336
  193MOL0     N25361   4.751   2.889   9.834  0.4800 -0.1139  0.4476
  193MOL0     C25362   4.623   2.835   9.803  0.0159 -0.0880  0.5001
  193MOL0     C25363   4.569   2.798   9.917  1.1039  0.0411 -0.3299
  193MOL0     C25364   4.435   2.731   9.930 -0.2239 -0.2200 -0.0039
  193MOL0     C25365   4.446   2.606  10.031  0.3575 -0.9966  0.3301
  193MOL0     C25366   4.538   2.486   9.990  0.4039 -0.5366  0.1591
  193MOL0     C25367   4.525   2.359  10.074  0.6538 -1.4923  0.1971
  193MOL0     O25368   4.587   2.252  10.001  0.2732 -0.5296 -0.1374
  193MOL0     C25369   4.543   2.129  10.034 -0.0460  0.9179  0.0778
  193MOL0     C25370   4.542   2.037   9.928  0.3993  0.8920  0.1081
  193MOL0     C25371   4.494   1.911   9.950 -0.4809  0.1588  0.5494
  193MOL0     C25372   4.424   1.883  10.074 -0.2524  0.1220  0.0580
  193MOL0     C25373   4.374   1.744  10.108  0.0918 -0.2090 -0.2589
  193MOL0     O25374   4.319   1.720  10.231 -0.3494 -0.1024 -0.4440
  193MOL0     C25375   4.269   1.591  10.245  0.5778 -0.8223 -0.8405
  193MOL0     C25376   4.139   1.574  10.217 -0.4771 -0.1706 -0.1149
  193MOL0     C25377   4.085   1.443  10.222 -0.6492  0.0101  1.0257
  193MOL0     C25378   4.159   1.321  10.252  0.5040  0.5684  0.6895
  193MOL0     O25379   4.117   1.189  10.237 -0.7738 -0.3156  0.5695
  193MOL0     C25380   3.975   1.172  10.218  0.5983 -0.9172  0.1068
  193MOL0     C25381   3.938   1.024  10.205 -0.1188 -0.1290  1.5857
  193MOL0     C25382   3.974   0.938  10.080  0.3343 -0.2164 -0.9792
  193MOL0     C25383   3.908   0.796  10.107 -0.7548  0.5029 -0.1783
  193MOL0     C25384   3.936   0.700   9.989  0.3787 -0.3405 -0.9454
  193MOL0     C25385   4.085   0.664   9.982 -0.4027 -0.9957  0.4572
  193MOL0     C25386   4.118   0.585   9.853  0.5634 -0.7034 -0.8764
  193MOL0     C25387   4.255   0.523   9.867 -0.0015 -0.2697  0.3439
  193MOL0    Cl25388   4.320   0.498   9.701  0.1001 -0.1681 -0.3829
  193MOL0     C25389   4.293   1.350  10.279  0.1389  0.3932  0.5083
  193MOL0     C25390   4.347   1.479  10.279 -0.2688  0.5680  0.3034
  193MOL0     O25391   4.379   1.661  10.016  0.6385  0.5541 -0.6630
  193MOL0     C25392   4.444   1.973  10.177  0.1291 -0.3918  0.1056
  193MOL0     C25393   4.498   2.095  10.158 -0.6828 -0.3116  0.6158
  193MOL0     N25394   4.656   2.825  10.020 -0.3421 -0.5970  0.4781
  193MOL0     N25395   4.761   2.887   9.975  0.1776 -0.2663 -0.3024
  193MOL0     C25396   5.809   3.321   9.496  0.2469  0.9847  0.2213
  193MOL0     C25397   5.928   3.352   9.554  0.5682  0.0476 -0.1367
  193MOL0     C25398   6.340   3.374   9.665 -0.6552  0.0896 -0.6216
  193MOL0     C25399   6.409   3.498   9.639  0.4114 -0.2316 -0.1857
  193MOL0     C25400   6.555   3.489   9.644  0.0977 -0.1764 -0.5919
  193MOL0     C25401   6.623   3.369   9.670 -0.4612 -0.1060  0.3941
  193MOL0     O25402   6.759   3.349   9.675 -0.6126 -0.0044  0.6648
  193MOL0     C25403   6.847   3.441   9.600 -0.5206 -0.2339 -0.4036
  193MOL0     C25404   6.974   3.362   9.548  0.0894 -0.5530  0.2541
  193MOL0     C25405   7.060   3.305   9.657 -0.8315 -0.0277 -0.5149
  193MOL0     C25406   7.200   3.259   9.615  0.5607  0.0561 -0.8807
  193MOL0     C25407   7.296   3.369   9.585  0.0906  0.2189 -1.0269
  193MOL0     C25408   7.378   3.446   9.574  0.3653 -0.1382  0.3013
  193MOL0     C25409   6.551   3.257   9.696 -1.3989  0.7205 -0.0827
  193MOL0     C25410   6.414   3.264   9.688 -0.5981 -0.2535 -0.2674
  193MOL0     H25411   6.005   3.049   9.691  0.3247 -1.5593 -1.7541
  193MOL0     H25412   5.784   2.992   9.593  2.7451 -0.9982  0.8373
  193MOL0     H25413   5.547   3.033   9.574 -1.8534  1.3736  0.3571
  193MOL0     H25414   5.602   2.974   9.418  1.0746  0.6992  0.4677
  193MOL0     H25415   5.414   2.993   9.328  2.9566 -1.2806  1.3501
  193MOL0     H25416   5.415   3.167   9.339  1.9659  0.1831  0.0381
  193MOL0     H25417   5.208   3.081   9.449 -0.0789  1.6966  0.2699
  193MOL0     H25418   5.313   3.147   9.563  0.8686 -1.4457  0.6130
  193MOL0     H25419   5.240   2.871   9.507  1.4819  0.2935 -2.2709
  193MOL0     H25420   5.395   2.882   9.582 -0.1132 -0.6182 -1.9212
  193MOL0     H25421   5.253   2.991   9.789  1.9764  0.1913 -0.9856
  193MOL0     H25422   5.219   2.828   9.733 -2.0225 -0.8560 -1.3247
  193MOL0     H25423   5.029   2.933   9.583  1.1098 -1.3185  0.4491
  193MOL0     H25424   5.083   3.088   9.656  3.1411 -0.0837 -1.5666
  193MOL0     H25425   4.998   2.859   9.841 -0.1818  1.2418  2.4998
  193MOL0     H25426   5.003   3.024   9.876  1.5722 -1.6573  3.1628
  193MOL0     H25427   4.837   2.920   9.643 -1.9257 -0.9835  1.8011
  193MOL0     H25428   4.798   3.070   9.730 -1.1928 -0.0002  0.5804
  193MOL0     H25429   4.579   2.816   9.706  0.9016 -1.4393  0.3459
  193MOL0     H25430   4.399   2.706   9.830 -0.8103  3.0467 -0.7434
  193MOL0     H25431   4.359   2.803   9.964 -2.4524 -3.2146  1.8982
  193MOL0     H25432   4.344   2.567  10.039  0.0777 -0.1637  1.0335
  193MOL0     H25433   4.464   2.646  10.131  1.4120  1.4922 -0.7664
  193MOL0     H25434   4.503   2.464   9.888  0.6277  1.2396 -0.3303
  193MOL0     H25435   4.639   2.522   9.970  0.0677  0.7044  0.6112
  193MOL0     H25436   4.418   2.344  10.092 -0.1890  1.3732 -1.6687
  193MOL0     H25437   4.585   2.367  10.165 -0.3342  1.0373  0.6956
  193MOL0     H25438   4.593   2.076   9.841  0.3343 -1.8073 -1.2539
  193MOL0     H25439   4.515   1.837   9.874  2.7918  0.7443  0.7405
  193MOL0     H25440   4.095   1.671  10.198 -1.3105 -0.3455  0.8800
  193MOL0     H25441   3.981   1.430  10.194 -0.3281 -2.5577  0.8103
  193MOL0     H25442   3.953   1.226  10.125 -0.3853  1.3630  1.5780
  193MOL0     H25443   3.923   1.213  10.305 -0.4319  0.4065 -1.0657
  193MOL0     H25444   3.829   1.017  10.216 -0.2283 -2.1143 -0.2699
  193MOL0     H25445   3.994   0.981  10.289  1.2343  4.1725  3.1720
  193MOL0     H25446   4.083   0.938  10.066  0.3186 -0.2567 -1.1042
  193MOL0     H25447   3.938   0.986   9.989  3.1536  1.7722 -1.1952
  193MOL0     H25448   3.942   0.752  10.202  0.0562  3.3863  0.9754
  193MOL0     H25449   3.801   0.816  10.115 -0.5296  1.2350  1.7443
  193MOL0     H25450   3.915   0.745   9.891  2.2872  0.2964 -1.1187
  193MOL0     H25451   3.878   0.609  10.002 -1.8334  1.1998  0.7533
  193MOL0     H25452   4.117   0.614  10.074  2.9073  1.9513  1.1243
  193MOL0     H25453   4.145   0.755   9.979 -2.8500  0.6785 -0.3096
  193MOL0     H25454   4.039   0.510   9.845 -0.0840 -0.5790  2.6578
  193MOL0     H25455   4.109   0.663   9.776 -0.7797  1.5228  1.3739
  193MOL0     H25456   4.263   0.432   9.928  1.1225 -1.2467 -1.1930
  193MOL0     H25457   4.320   0.601   9.909 -0.5211 -0.6700  1.9719
  193MOL0     H25458   4.358   1.265  10.300 -1.1117 -0.4795  0.9580
  193MOL0     H25459   4.454   1.492  10.293 -0.2701  0.2968  0.5883
  193MOL0     H25460   4.418   1.954  10.280 -0.1977  0.3432  0.1673
  193MOL0     H25461   4.489   2.173  10.233 -0.7048 -0.5222  0.8343
  193MOL0     H25462   5.743   3.399   9.460  3.0622  2.5488 -1.9867
  193MOL0     H25463   5.961   3.455   9.558 -1.3857  0.7117 -0.0626
  193MOL0     H25464   6.356   3.588   9.611  2.6311  2.3728  3.1010
  193MOL0     H25465   6.614   3.579   9.628  0.3359 -0.4956 -1.6011
  193MOL0     H25466   6.876   3.526   9.662 -1.7225 -0.2274  0.1702
  193MOL0     H25467   6.793   3.487   9.517 -2.5397 -0.3394  0.7891
  193MOL0     H25468   6.941   3.283   9.480 -1.4556 -0.7745  1.1937
  193MOL0     H25469   7.038   3.421   9.483  0.3655  0.3707  1.3359
  193MOL0     H25470   7.011   3.214   9.693 -1.2632  0.3401 -0.1609
  193MOL0     H25471   7.065   3.381   9.736 -1.6629 -1.0925  0.5957
  193MOL0     H25472   7.236   3.192   9.694 -1.4547  1.0188  0.9684
  193MOL0     H25473   7.185   3.203   9.521 -2.2218 -1.8758  0.5624
  193MOL0     H25474   7.459   3.515   9.557  2.0987 -1.9303  0.8300
  193MOL0     H25475   6.604   3.166   9.722  3.6544  3.3709  0.1617
  193MOL0     H25476   6.373   3.163   9.682  0.0086 -0.4540 -1.7603
  194MOL0     O25477   3.738  10.070   4.496  0.4659 -0.2205  0.4004
  194MOL0     C25478   3.773   9.979   4.572 -0.1526  0.4564 -0.7319
  194MOL0     O25479   3.782   9.989   4.705  0.5782 -0.0671  0.0336
  194MOL0     C25480   3.760  10.110   4.765 -0.0845  1.2521 -0.6356
  194MOL0     C25481   3.662  10.121   4.856  0.4505 -0.2025 -0.2006
  194MOL0     C25482   3.630  10.245   4.912  0.3192 -0.1028 -0.5291
  194MOL0     C25483   3.715  10.354   4.893  0.3959 -0.1653 -0.0827
  194MOL0     O25484   3.678  10.476   4.950 -0.7875 -0.9737  0.5325
  194MOL0     C25485   3.758  10.587   4.913  0.7764  0.2390  0.0611
  194MOL0     C25486   3.723  10.640   4.774  0.8864  0.2326  0.7578
  194MOL0     C25487   3.840  10.700   4.712  0.6591 -0.3617 -0.1500
  194MOL0     C25488   3.794  10.787   4.589 -0.0690 -0.8690 -0.5632
  194MOL0     C25489   3.922  10.823   4.508  0.1337  0.6625  0.0583
  194MOL0     C25490   4.042  10.888   4.574 -0.5132  0.1378 -0.5221
  194MOL0     C25491   4.141  10.962   4.486 -0.7614 -0.4808  0.0033
  194MOL0     C25492   4.260  10.868   4.458  0.1031 -0.4569 -0.3317
  194MOL0     N25493   4.362  10.914   4.378  0.2036  0.2023  0.6862
  194MOL0     C25494   4.492  10.935   4.420  0.7130 -0.4026 -0.2309
  194MOL0     C25495   4.559  10.959   4.303  0.7304  0.5878  0.2561
  194MOL0     C25496   4.704  10.992   4.271 -0.0548 -0.1090  0.4936
  194MOL0     C25497   4.719  11.122   4.184 -0.9029 -0.1892 -0.0415
  194MOL0     C25498   4.847  11.204   4.192 -0.5824  0.0005 -0.8920
  194MOL0     C25499   4.847  11.312   4.078 -0.5151  0.1106 -0.3700
  194MOL0     O25500   4.981  11.355   4.064 -0.1796  0.4815 -0.8380
  194MOL0     C25501   5.004  11.458   3.979 -0.7062  0.4486 -0.5367
  194MOL0     C25502   5.127  11.506   3.988  0.5121 -0.1661  0.2489
  194MOL0     C25503   5.172  11.614   3.917 -0.0585  0.7376  0.3997
  194MOL0     C25504   5.089  11.681   3.825  0.8586  1.2035 -0.8079
  194MOL0     C25505   5.151  11.784   3.741 -0.6694 -0.5857  0.1263
  194MOL0     O25506   5.064  11.839   3.656  0.2124  0.5625 -0.0140
  194MOL0     C25507   5.100  11.921   3.553 -0.8521  0.6722  0.9570
  194MOL0     C25508   5.233  11.939   3.509 -1.0814 -0.5741  0.1295
  194MOL0     C25509   5.270  12.017   3.401  0.2885  0.1721 -0.4448
  194MOL0     C25510   5.170  12.097   3.345 -0.2456 -1.5778 -0.9781
  194MOL0     O25511   5.211  12.175   3.244 -0.3635  0.6943  0.1183
  194MOL0     C25512   5.116  12.253   3.165  0.6414  0.3998  0.2944
  194MOL0     C25513   5.185  12.355   3.086  0.7664 -0.1286 -0.4375
  194MOL0     C25514   5.082  12.452   3.033 -0.8109  0.5504  0.5718
  194MOL0     C25515   5.038  12.563   3.130 -0.2841 -0.4966  0.5358
  194MOL0     C25516   4.922  12.644   3.076  0.4149 -0.1093  0.1810
  194MOL0     C25517   4.873  12.739   3.187  0.2855  0.0269  0.0022
  194MOL0     C25518   4.758  12.829   3.137 -0.2127 -0.2844 -0.1950
  194MOL0     C25519   4.722  12.924   3.252 -0.2490 -0.0112  0.9201
  194MOL0    Cl25520   4.654  12.834   3.395 -0.0829 -0.1474  0.3044
  194MOL0     C25521   5.033  12.086   3.391 -0.1120 -0.4293 -0.4483
  194MOL0     C25522   5.004  12.001   3.495  1.0587  0.0697 -0.1219
  194MOL0     O25523   5.263  11.834   3.770  0.1491 -0.1435 -0.7153
  194MOL0     C25524   4.952  11.633   3.809  0.0782 -0.6732 -0.0517
  194MOL0     C25525   4.914  11.524   3.888 -1.3662  0.6864  0.3590
  194MOL0     N25526   4.470  10.943   4.197  0.6999  0.7633 -1.0766
  194MOL0     N25527   4.354  10.926   4.243  0.6244 -0.0718  0.2206
  194MOL0     C25528   3.828  10.333   4.812  0.7126 -0.7022 -1.0992
  194MOL0     C25529   3.846  10.216   4.739  0.4008  0.4522 -0.4622
  194MOL0     C25530   3.818   9.852   4.511  0.9023  0.0666 -0.0819
  194MOL0     C25531   3.872   9.756   4.595  0.5046 -0.5574 -0.1938
  194MOL0     C25532   3.930   9.640   4.544  0.1668  0.0160 -0.9980
  194MOL0     C25533   3.961   9.635   4.407 -0.0001 -0.4679  0.7300
  194MOL0     O25534   4.035   9.531   4.352  0.4778  0.5396 -0.2832
  194MOL0     C25535   4.120   9.463   4.448  0.2632 -0.1602  0.7397
  194MOL0     C25536   4.217   9.369   4.374 -0.5685 -0.2227  0.1289
  194MOL0     C25537   4.310   9.440   4.277 -0.0493 -0.2254 -0.0568
  194MOL0     C25538   4.253   9.475   4.141 -0.4352  0.1186  0.1733
  194MOL0     C25539   4.363   9.475   4.049 -1.2428 -0.3753 -0.3746
  194MOL0     C25540   4.459   9.477   3.975 -0.6370  0.7368  0.8568
  194MOL0     C25541   3.900   9.725   4.325 -0.2211  1.2770  0.4962
  194MOL0     C25542   3.826   9.837   4.373  0.2339  0.5372 -1.3396
  194MOL0     H25543   3.597  10.040   4.886  1.2461 -0.0251  2.2809
  194MOL0     H25544   3.551  10.256   4.985 -1.0126 -0.5038 -1.8636
  194MOL0     H25545   3.860  10.555   4.936  0.7273 -1.1497 -1.5220
  194MOL0     H25546   3.737  10.661   4.991 -0.9310  0.3355 -0.4284
  194MOL0     H25547   3.636  10.705   4.766 -0.5720 -1.8710 -1.9260
  194MOL0     H25548   3.692  10.558   4.708  0.5547 -1.7811  3.2507
  194MOL0     H25549   3.898  10.615   4.676  1.5909  0.2572 -0.1584
  194MOL0     H25550   3.905  10.758   4.778  0.3348  0.3883 -0.4713
  194MOL0     H25551   3.729  10.730   4.521 -3.4427  0.5607  1.1916
  194MOL0     H25552   3.751  10.880   4.628 -2.8222 -3.0408  2.0891
  194MOL0     H25553   3.896  10.898   4.433  2.9737  1.3748 -0.3184
  194MOL0     H25554   3.947  10.735   4.449 -0.6379 -0.0960  0.8298
  194MOL0     H25555   4.090  10.828   4.652 -1.0228  2.0050  1.3185
  194MOL0     H25556   3.999  10.970   4.632  0.8256 -0.4685  1.4583
  194MOL0     H25557   4.084  10.973   4.393 -1.7616 -1.3906  0.4938
  194MOL0     H25558   4.176  11.057   4.526 -2.0220  1.2383 -2.6597
  194MOL0     H25559   4.229  10.769   4.424 -3.9445 -0.4498  2.6758
  194MOL0     H25560   4.289  10.851   4.563  2.2961  0.1590 -0.7914
  194MOL0     H25561   4.524  10.913   4.521  0.6278  0.2547 -0.0575
  194MOL0     H25562   4.751  10.908   4.218 -0.2695  0.0196  0.0944
  194MOL0     H25563   4.751  11.008   4.368 -1.1219  0.7802  0.8788
  194MOL0     H25564   4.633  11.187   4.205 -0.7810  0.9135 -2.6026
  194MOL0     H25565   4.687  11.080   4.089 -3.5610 -0.4114  0.8636
  194MOL0     H25566   4.865  11.239   4.294  0.7750 -0.8679 -0.8016
  194MOL0     H25567   4.925  11.135   4.160 -0.3138 -0.9017  1.5447
  194MOL0     H25568   4.788  11.402   4.100 -1.0616 -1.0767  3.9375
  194MOL0     H25569   4.812  11.255   3.991  3.2370  0.1362 -2.0920
  194MOL0     H25570   5.197  11.450   4.050  0.2682 -1.6011 -0.7036
  194MOL0     H25571   5.278  11.639   3.924 -0.3539  2.3245 -0.4033
  194MOL0     H25572   5.316  11.885   3.555 -0.6758 -1.1189 -1.2043
  194MOL0     H25573   5.369  12.022   3.358 -0.5517  1.7427 -2.3474
  194MOL0     H25574   5.036  12.291   3.229 -3.6357 -2.7749 -2.6240
  194MOL0     H25575   5.056  12.202   3.088  0.3117 -1.0410  1.4582
  194MOL0     H25576   5.255  12.310   3.016  3.7112  0.9563  1.5936
  194MOL0     H25577   5.244  12.412   3.160 -0.0998  2.3503 -1.5476
  194MOL0     H25578   4.996  12.396   2.995  0.3338  0.7184 -2.5583
  194MOL0     H25579   5.127  12.512   2.953 -1.5772  1.1268  0.5653
  194MOL0     H25580   5.023  12.529   3.233  5.2696  2.9301  2.9851
  194MOL0     H25581   5.114  12.642   3.135 -3.3300  2.7031  0.0635
  194MOL0     H25582   4.843  12.574   3.047 -0.2378 -0.2890  2.2342
  194MOL0     H25583   4.939  12.694   2.980  2.1538 -1.5342 -0.3117
  194MOL0     H25584   4.950  12.805   3.227 -2.1323  2.2809  1.2485
  194MOL0     H25585   4.831  12.670   3.262  0.0306  0.4327  0.2363
  194MOL0     H25586   4.777  12.878   3.041 -0.2635  1.1548  0.4995
  194MOL0     H25587   4.665  12.776   3.117 -0.8600  0.3610  0.9989
  194MOL0     H25588   4.649  12.991   3.206 -0.7710 -1.8995 -1.2167
  194MOL0     H25589   4.797  12.996   3.284 -0.6724  0.5289  0.7074
  194MOL0     H25590   4.954  12.147   3.347  0.6057  1.7641  1.0828
  194MOL0     H25591   4.901  11.990   3.526  1.0729  1.4511  0.4855
  194MOL0     H25592   4.886  11.662   3.727  0.3868  1.4673  0.3963
  194MOL0     H25593   4.812  11.489   3.883 -0.4802 -1.9819 -0.9945
  194MOL0     H25594   3.891  10.415   4.778  1.7551 -1.4999 -1.1372
  194MOL0     H25595   3.927  10.204   4.667  0.4405  0.7651 -0.4674
  194MOL0     H25596   3.860   9.766   4.703  0.1599  0.8297 -0.3496
  194MOL0     H25597   3.958   9.556   4.608 -0.3707  1.0951  0.7224
  194MOL0     H25598   4.073   9.402   4.527  2.0051 -3.5247 -0.6251
  194MOL0     H25599   4.187   9.532   4.499 -0.7287  1.3312  0.1141
  194MOL0     H25600   4.284   9.314   4.441  2.5521  1.2394 -1.5951
  194MOL0     H25601   4.178   9.293   4.306  0.6168 -0.6485 -0.1111
  194MOL0     H25602   4.396   9.372   4.278  2.6079  2.8624  2.5914
  194MOL0     H25603   4.355   9.532   4.315  5.1571 -1.3792 -2.5363
  194MOL0     H25604   4.176   9.408   4.103  0.2860  0.0275 -1.1707
  194MOL0     H25605   4.199   9.570   4.137 -0.4556  0.0904 -0.2609
  194MOL0     H25606   4.537   9.476   3.902 -1.5246  0.6520 -0.1093
  194MOL0     H25607   3.914   9.699   4.220 -1.0845 -3.4739  1.3451
  194MOL0     H25608   3.776   9.902   4.301 -0.5415  0.1594 -1.1478
  195MOL0     O25609  10.415   5.982  10.297 -0.0735  0.6263 -0.9408
  195MOL0     C25610  10.323   6.036  10.350 -0.0936  0.6358 -0.1069
  195MOL0     O25611  10.330   6.143  10.434 -0.7016 -0.3437 -0.3977
  195MOL0     C25612  10.452   6.177  10.481  0.7264 -0.1447 -0.0847
  195MOL0     C25613  10.480   6.130  10.604  0.4604 -0.4505  0.4721
  195MOL0     C25614  10.603   6.160  10.670  0.3435 -0.6203  0.6701
  195MOL0     C25615  10.698   6.238  10.601  0.6057 -0.2299 -0.2958
  195MOL0     O25616  10.800   6.286  10.682  0.0523  0.2781  0.2151
  195MOL0     C25617  10.933   6.229  10.652 -0.1879 -0.5505 -0.0048
  195MOL0     C25618  11.032   6.287  10.750 -0.4569  0.0459  0.5586
  195MOL0     C25619  11.078   6.419  10.692  0.4693 -1.0002  0.6738
  195MOL0     C25620  11.192   6.464  10.778  0.3442 -0.9485 -0.7271
  195MOL0     C25621  11.226   6.610  10.744 -0.4194  0.7872  0.0307
  195MOL0     C25622  11.364   6.648  10.810  0.1904 -0.6458  0.1114
  195MOL0     C25623  11.400   6.798  10.767 -0.4575 -0.0985  0.0169
  195MOL0     C25624  11.539   6.837  10.824  0.3406  0.0192  0.4099
  195MOL0     N25625  11.536   6.873  10.965  0.0784 -0.6434  0.1901
  195MOL0     C25626  11.453   6.970  11.023 -0.4148  0.1965  0.3645
  195MOL0     C25627  11.477   6.947  11.153 -0.6744  0.3668 -0.7270
  195MOL0     C25628  11.421   7.006  11.285  0.2701  0.0107  0.9371
  195MOL0     C25629  11.532   7.092  11.344  0.0182 -0.2558 -0.0881
  195MOL0     C25630  11.513   7.244  11.311 -0.6219 -0.9062 -0.2064
  195MOL0     C25631  11.610   7.344  11.382 -0.5646 -0.6731  0.5750
  195MOL0     O25632  11.675   7.444  11.295  0.2196 -0.1034  0.0855
  195MOL0     C25633  11.596   7.528  11.223  0.6410  0.5541 -0.5343
  195MOL0     C25634  11.467   7.559  11.256 -0.7839 -0.7281 -0.2526
  195MOL0     C25635  11.389   7.645  11.172 -0.1194 -0.1000  0.0185
  195MOL0     C25636  11.446   7.693  11.059  0.3930 -1.6312 -1.0082
  195MOL0     C25637  11.367   7.779  10.969 -0.4232 -0.1871  0.3383
  195MOL0     O25638  11.236   7.795  10.997 -0.0087 -0.0987 -0.8281
  195MOL0     C25639  11.151   7.855  10.900 -0.4023  0.8700 -0.7852
  195MOL0     C25640  11.161   7.825  10.757  0.4688  0.4406  0.0538
  195MOL0     C25641  11.051   7.870  10.672 -0.3083 -0.0360 -0.9797
  195MOL0     C25642  10.948   7.939  10.717  0.4144 -0.3112  0.3024
  195MOL0     O25643  10.853   7.985  10.631 -0.0328  0.2890 -0.1405
  195MOL0     C25644  10.764   7.893  10.571  0.7618 -0.7100  0.5123
  195MOL0     C25645  10.686   7.969  10.467  0.3478 -1.2401 -0.4716
  195MOL0     C25646  10.552   7.918  10.441  0.3627 -0.4611 -0.4776
  195MOL0     C25647  10.465   7.965  10.557 -0.1265 -0.0060  1.0625
  195MOL0     C25648  10.322   7.910  10.521  0.2403  0.4452  0.5476
  195MOL0     C25649  10.246   7.879  10.649 -0.2175 -0.2774 -1.3401
  195MOL0     C25650  10.122   7.796  10.629 -0.4085 -0.4848 -0.3710
  195MOL0     C25651  10.040   7.782  10.754 -0.6557 -1.3217 -0.3540
  195MOL0    Cl25652  10.134   7.674  10.862  0.0243  0.1284  0.2255
  195MOL0     C25653  10.936   7.967  10.857 -0.9522 -0.3114 -0.0261
  195MOL0     C25654  11.043   7.928  10.950 -0.0934  0.7395  0.2819
  195MOL0     O25655  11.427   7.815  10.869  0.3256 -0.0291  0.0221
  195MOL0     C25656  11.578   7.660  11.023  0.1262  0.2472 -0.5618
  195MOL0     C25657  11.657   7.588  11.115  0.4277  0.8198  0.5696
  195MOL0     N25658  11.551   6.832  11.176 -0.1468  0.9593 -0.1770
  195MOL0     N25659  11.587   6.790  11.058 -0.0604  0.2037 -0.6829
  195MOL0     C25660  10.673   6.279  10.471 -1.6368 -0.2156 -0.5339
  195MOL0     C25661  10.548   6.253  10.416  0.4387 -0.3497  0.4700
  195MOL0     C25662  10.193   5.985  10.299 -0.3176 -0.2372 -1.2332
  195MOL0     C25663  10.181   5.895  10.197 -0.0649 -0.5645  0.0240
  195MOL0     C25664  10.055   5.850  10.153  0.4958  0.1009  0.2362
  195MOL0     C25665   9.940   5.903  10.208 -0.0848 -0.1749 -0.7382
  195MOL0     O25666   9.821   5.859  10.161  0.0346  0.7022 -0.6180
  195MOL0     C25667   9.729   5.949  10.104  1.2312 -0.1836  0.3645
  195MOL0     C25668   9.664   5.908   9.973 -0.7540 -0.5245  0.1887
  195MOL0     C25669   9.564   5.787   9.975 -0.4444 -0.2761 -0.0487
  195MOL0     C25670   9.424   5.831   9.941 -0.0358 -0.7195  0.3514
  195MOL0     C25671   9.421   5.899   9.811 -0.1011  0.0402 -0.5302
  195MOL0     C25672   9.398   5.946   9.701  0.0094 -0.1789  0.1023
  195MOL0     C25673   9.945   5.994  10.315 -0.5329 -0.5827 -0.1087
  195MOL0     C25674  10.076   6.041  10.344  0.2575 -0.3385 -0.0828
  195MOL0     H25675  10.402   6.070  10.650 -4.7180  4.5684 -0.6596
  195MOL0     H25676  10.633   6.123  10.767  0.1489  0.1451  1.0254
  195MOL0     H25677  10.961   6.245  10.547 -1.3980  1.5358 -0.0540
  195MOL0     H25678  10.934   6.122  10.674  1.1034 -0.4692  0.4294
  195MOL0     H25679  11.123   6.226  10.758 -0.6244 -0.3505 -0.4136
  195MOL0     H25680  10.979   6.295  10.846  0.5148  0.8811  1.0458
  195MOL0     H25681  11.000   6.495  10.690 -1.9844 -3.2981  1.5526
  195MOL0     H25682  11.113   6.409  10.589 -1.1917  2.0029 -0.3006
  195MOL0     H25683  11.167   6.472  10.884 -1.4129 -2.2394 -0.9829
  195MOL0     H25684  11.277   6.398  10.757  1.5145 -0.2936  1.6212
  195MOL0     H25685  11.152   6.679  10.786  1.0158  2.0504  0.5877
  195MOL0     H25686  11.227   6.619  10.635 -3.7022  2.2900 -0.0156
  195MOL0     H25687  11.447   6.578  10.800  3.9326  2.8629  3.1509
  195MOL0     H25688  11.351   6.655  10.919 -1.4040  1.2084 -0.1457
  195MOL0     H25689  11.394   6.806  10.658 -2.1111  5.9119  0.1839
  195MOL0     H25690  11.329   6.874  10.801 -3.7289 -0.7505 -4.4370
  195MOL0     H25691  11.585   6.915  10.763 -0.3112 -0.8680 -1.2880
  195MOL0     H25692  11.611   6.754  10.814 -0.6089 -0.9003  1.0152
  195MOL0     H25693  11.381   7.037  10.977 -1.6007 -0.7155  0.8376
  195MOL0     H25694  11.393   6.922  11.350  3.3137 -1.1473  0.9014
  195MOL0     H25695  11.330   7.063  11.263  1.1101  1.2914  0.6796
  195MOL0     H25696  11.628   7.049  11.315  0.9863  1.7047  0.0247
  195MOL0     H25697  11.508   7.080  11.450 -0.5877  1.3403 -0.0044
  195MOL0     H25698  11.524   7.251  11.202  1.3826  1.3165  0.0569
  195MOL0     H25699  11.410   7.273  11.333 -1.2792 -0.4195 -3.4108
  195MOL0     H25700  11.684   7.278  11.427 -2.0603 -2.4462  0.5653
  195MOL0     H25701  11.567   7.395  11.469 -0.8888 -3.0221  1.8927
  195MOL0     H25702  11.407   7.539  11.345 -1.3154  0.7124 -0.2661
  195MOL0     H25703  11.298   7.685  11.216  2.1107  0.0392  5.1823
  195MOL0     H25704  11.239   7.765  10.712  4.2587  2.5596  3.2360
  195MOL0     H25705  11.055   7.838  10.568 -1.0541 -1.5568 -0.5612
  195MOL0     H25706  10.697   7.862  10.651  0.2699 -2.7561 -0.6269
  195MOL0     H25707  10.809   7.803  10.530  3.3166  0.6213  0.1881
  195MOL0     H25708  10.736   7.957  10.370  0.0424  0.1044 -0.8117
  195MOL0     H25709  10.691   8.076  10.489  0.2995 -1.3392  0.0395
  195MOL0     H25710  10.550   7.809  10.426 -1.1428 -0.5116 -0.0583
  195MOL0     H25711  10.510   7.959  10.349 -0.8454 -1.6056 -0.4705
  195MOL0     H25712  10.500   7.921  10.650 -0.1509  2.2127  2.2001
  195MOL0     H25713  10.473   8.074  10.556  1.4530  0.0299 -2.7670
  195MOL0     H25714  10.324   7.813  10.470 -0.9677  0.7637 -0.1483
  195MOL0     H25715  10.271   7.969  10.444 -0.3707 -3.2557 -2.1651
  195MOL0     H25716  10.222   7.976  10.693  4.1242 -0.3731  1.9528
  195MOL0     H25717  10.309   7.834  10.727 -1.7043 -2.1937 -1.1560
  195MOL0     H25718  10.061   7.855  10.560  0.5942  0.0297 -0.8399
  195MOL0     H25719  10.138   7.692  10.596 -1.3426 -1.6415  2.4804
  195MOL0     H25720   9.939   7.745  10.736 -1.4486  0.3412  0.4545
  195MOL0     H25721  10.032   7.885  10.792  0.3338 -0.9066 -1.2235
  195MOL0     H25722  10.855   8.031  10.890  0.1980  2.4154 -2.0706
  195MOL0     H25723  11.043   7.960  11.053 -1.4398 -0.6967  0.7616
  195MOL0     H25724  11.634   7.706  10.942  1.0833 -0.3781 -0.2694
  195MOL0     H25725  11.764   7.577  11.118  0.3613 -0.3310 -0.5642
  195MOL0     H25726  10.753   6.331  10.419  1.6164 -1.7550  2.5207
  195MOL0     H25727  10.516   6.282  10.316 -0.7869  0.6309  1.1139
  195MOL0     H25728  10.274   5.859  10.153 -1.5097 -3.7553 -0.6299
  195MOL0     H25729  10.039   5.777  10.074  2.8772 -1.4136  1.0227
  195MOL0     H25730   9.776   6.045  10.079 -0.5064  0.1516 -1.9224
  195MOL0     H25731   9.645   5.969  10.170  0.4333  2.6214 -1.3331
  195MOL0     H25732   9.629   5.997   9.921  3.3307  0.8236 -0.6079
  195MOL0     H25733   9.744   5.873   9.907 -0.8372 -0.3012 -0.0304
  195MOL0     H25734   9.545   5.739  10.071 -0.0780  2.4635  1.4701
  195MOL0     H25735   9.605   5.716   9.902  0.6767  2.0588 -1.8560
  195MOL0     H25736   9.361   5.742   9.936  0.8482 -1.2974 -2.4875
  195MOL0     H25737   9.393   5.901  10.019  2.8252 -2.1212  2.9863
  195MOL0     H25738   9.371   6.002   9.613  3.0615  1.2744 -0.0543
  195MOL0     H25739   9.857   6.037  10.362  0.0994  0.8200 -0.1444
  195MOL0     H25740  10.083   6.113  10.425 -1.2879  0.9130 -1.0096
  196MOL0     O25741   1.514   2.815   6.333 -0.3854  0.4716 -0.2850
  196MOL0     C25742   1.566   2.817   6.225  0.1695  0.1379 -0.6457
  196MOL0     O25743   1.495   2.790   6.103  0.2961 -0.3947  0.3212
  196MOL0     C25744   1.374   2.739   6.108 -0.4650  0.4647 -0.3646
  196MOL0     C25745   1.360   2.619   6.178  0.8055 -0.7775 -0.3919
  196MOL0     C25746   1.235   2.562   6.177 -1.4242  0.3847  0.1398
  196MOL0     C25747   1.130   2.615   6.100 -0.0607 -0.3745 -0.4400
  196MOL0     O25748   1.010   2.552   6.100  0.0156 -0.5116 -0.3842
  196MOL0     C25749   0.950   2.504   6.224  0.3108  0.3159  0.6444
  196MOL0     C25750   0.798   2.507   6.220  0.5115 -0.1530  0.0820
  196MOL0     C25751   0.726   2.646   6.228 -0.0350 -0.2309 -0.8429
  196MOL0     C25752   0.583   2.627   6.294 -1.1093 -0.0179 -0.4586
  196MOL0     C25753   0.472   2.695   6.217 -0.5358  0.2617  0.6007
  196MOL0     C25754   0.328   2.667   6.279 -0.3465  0.6372 -0.0696
  196MOL0     C25755   0.223   2.754   6.216  0.2414  1.2724 -0.1683
  196MOL0     C25756   0.085   2.697   6.220  0.7307  0.4863 -0.8820
  196MOL0     N25757  -0.019   2.764   6.138 -0.6194  0.2470  0.1887
  196MOL0     C25758  -0.013   2.812   6.004 -0.4938  0.3439 -0.8512
  196MOL0     C25759  -0.122   2.889   5.985  1.1793  0.4285 -0.0001
  196MOL0     C25760  -0.142   2.965   5.865  0.2188 -0.7144  0.3998
  196MOL0     C25761  -0.292   2.983   5.828  0.0562  0.1323  0.2385
  196MOL0     C25762  -0.297   3.056   5.694  1.2558  0.0649  0.7170
  196MOL0     C25763  -0.441   3.086   5.652 -0.8977  0.3384  0.2040
  196MOL0     O25764  -0.447   3.176   5.542  0.7407 -0.0454 -0.5112
  196MOL0     C25765  -0.566   3.241   5.506 -0.6730 -0.3401 -0.0468
  196MOL0     C25766  -0.688   3.169   5.499  0.0098  0.2708 -0.3015
  196MOL0     C25767  -0.808   3.230   5.453  0.4672 -0.2262  0.1866
  196MOL0     C25768  -0.804   3.364   5.405  0.3004  0.1796  0.0473
  196MOL0     C25769  -0.930   3.419   5.361  0.4217 -0.4508 -0.2049
  196MOL0     O25770  -0.924   3.557   5.346 -0.5350  0.3218 -0.3415
  196MOL0     C25771  -1.038   3.623   5.347 -1.2743 -0.0329 -0.1434
  196MOL0     C25772  -1.080   3.674   5.225 -0.3643 -0.2610  0.6159
  196MOL0     C25773  -1.200   3.751   5.232  0.1039 -0.4246  0.4751
  196MOL0     C25774  -1.269   3.781   5.356 -0.9928  0.2227  0.1122
  196MOL0     O25775  -1.377   3.859   5.347 -0.2282  0.7672 -0.7956
  196MOL0     C25776  -1.381   3.970   5.442 -0.3294 -0.4322 -0.2508
  196MOL0     C25777  -1.411   4.102   5.367 -0.1113  0.7617  0.1885
  196MOL0     C25778  -1.324   4.118   5.249  0.0031 -0.6214  0.7289
  196MOL0     C25779  -1.186   4.150   5.286 -0.0090  0.4046  0.5647
  196MOL0     C25780  -1.111   4.219   5.166 -0.2830 -0.1918  0.0869
  196MOL0     C25781  -1.084   4.140   5.040  0.5426  0.1071 -0.8144
  196MOL0     C25782  -0.996   4.019   5.075  0.0521 -1.5356 -0.3068
  196MOL0     C25783  -0.931   3.964   4.954  0.4420 -0.4157 -0.2969
  196MOL0    Cl25784  -0.806   3.845   5.007  0.0308 -0.1982  0.2107
  196MOL0     C25785  -1.218   3.721   5.475 -0.3197 -0.0321  0.6708
  196MOL0     C25786  -1.103   3.640   5.473 -0.3880  0.5518 -0.0597
  196MOL0     O25787  -1.025   3.343   5.336 -0.9450 -0.3483  0.1821
  196MOL0     C25788  -0.675   3.437   5.403  0.7954 -1.2135  0.9878
  196MOL0     C25789  -0.561   3.377   5.457  0.0048 -0.7196 -0.3519
  196MOL0     N25790  -0.196   2.879   6.098  0.2406  0.0195 -0.1179
  196MOL0     N25791  -0.135   2.812   6.182  0.6889  0.1401 -1.0697
  196MOL0     C25792   1.146   2.735   6.035  0.1133 -0.1910  0.9085
  196MOL0     C25793   1.271   2.798   6.037  0.2917  0.7206 -0.0508
  196MOL0     C25794   1.707   2.847   6.228 -0.1827  0.4379  0.0467
  196MOL0     C25795   1.780   2.813   6.339  0.3575 -0.5776 -0.1081
  196MOL0     C25796   1.911   2.870   6.368  0.9688  0.2326 -0.0199
  196MOL0     C25797   1.958   2.961   6.280 -0.2310 -0.1887  0.0508
  196MOL0     O25798   2.062   3.036   6.323  0.7196  0.1930 -0.0735
  196MOL0     C25799   2.012   3.144   6.420 -0.0731  0.0610  0.5561
  196MOL0     C25800   2.035   3.110   6.566 -0.0153  1.3720  0.2036
  196MOL0     C25801   2.184   3.131   6.607  0.4413  0.1184  0.9880
  196MOL0     C25802   2.190   3.276   6.639 -0.7625 -0.9560 -0.1023
  196MOL0     C25803   2.327   3.299   6.690 -0.0340 -0.1003  0.3660
  196MOL0     C25804   2.445   3.315   6.720  0.6740 -0.2809  0.2104
  196MOL0     C25805   1.893   2.980   6.155  0.1154  0.7743  0.5033
  196MOL0     C25806   1.768   2.924   6.127 -0.8028 -0.0238 -0.7950
  196MOL0     H25807   1.435   2.563   6.232  0.8201 -1.5715 -1.2131
  196MOL0     H25808   1.223   2.460   6.214 -5.0020  0.4115 -0.5489
  196MOL0     H25809   0.981   2.559   6.314 -2.0522 -0.6772  2.1475
  196MOL0     H25810   0.987   2.402   6.230  3.5741  1.3976  1.3212
  196MOL0     H25811   0.765   2.448   6.306  0.3687 -0.2672 -0.0504
  196MOL0     H25812   0.758   2.454   6.133 -0.0127 -0.5574  0.5650
  196MOL0     H25813   0.712   2.687   6.128 -0.9508  1.8112  0.0532
  196MOL0     H25814   0.784   2.718   6.287  1.8056 -0.0973 -2.6879
  196MOL0     H25815   0.549   2.524   6.279 -1.4908  0.2242 -1.2958
  196MOL0     H25816   0.584   2.658   6.399 -0.1844  0.2310 -0.5277
  196MOL0     H25817   0.477   2.656   6.114 -1.1404  1.9214 -0.0832
  196MOL0     H25818   0.502   2.799   6.221 -2.6061  0.9355  0.1097
  196MOL0     H25819   0.333   2.697   6.384  1.0875  1.2528 -0.2900
  196MOL0     H25820   0.305   2.562   6.259 -5.1219  1.6408 -1.0104
  196MOL0     H25821   0.230   2.855   6.258 -1.4515  0.7083  1.6284
  196MOL0     H25822   0.247   2.750   6.110 -4.6237  1.1050 -1.5098
  196MOL0     H25823   0.051   2.681   6.323 -0.9963 -0.8684 -1.6192
  196MOL0     H25824   0.084   2.592   6.188  1.8015 -0.7927  2.7023
  196MOL0     H25825   0.070   2.790   5.937 -0.6618 -3.0928 -0.1334
  196MOL0     H25826  -0.093   2.903   5.789  0.1650 -1.9729  1.3607
  196MOL0     H25827  -0.083   3.057   5.859  1.1218 -1.3630 -1.3324
  196MOL0     H25828  -0.326   3.047   5.910  1.7530  1.8897 -0.3584
  196MOL0     H25829  -0.345   2.888   5.838  1.1047 -0.3424  1.6152
  196MOL0     H25830  -0.267   3.160   5.707 -3.3718  2.4937 -4.1657
  196MOL0     H25831  -0.240   3.003   5.616 -0.5464  0.9624 -1.2922
  196MOL0     H25832  -0.487   3.123   5.744 -1.1524  0.6703 -0.0530
  196MOL0     H25833  -0.496   2.993   5.633  1.2440 -1.4847  2.1828
  196MOL0     H25834  -0.696   3.063   5.523  2.0245  0.3506  0.9227
  196MOL0     H25835  -0.897   3.169   5.445  1.2977 -1.5664  0.8446
  196MOL0     H25836  -1.013   3.660   5.141 -0.3173  0.9905  0.4174
  196MOL0     H25837  -1.246   3.791   5.143  0.8324  2.2642  1.2304
  196MOL0     H25838  -1.283   3.971   5.489  1.5053 -0.3772 -3.7310
  196MOL0     H25839  -1.455   3.960   5.522  0.2447  3.3462  0.9412
  196MOL0     H25840  -1.404   4.194   5.426 -0.4679  1.6971 -1.2022
  196MOL0     H25841  -1.517   4.082   5.347 -0.4049 -1.8714  3.4227
  196MOL0     H25842  -1.376   4.196   5.193 -0.4435 -2.8197 -2.1486
  196MOL0     H25843  -1.334   4.024   5.195  0.1153  0.0086 -0.4130
  196MOL0     H25844  -1.185   4.222   5.368 -0.5608  0.8525  0.1862
  196MOL0     H25845  -1.122   4.067   5.316  0.4142 -0.2183 -1.8043
  196MOL0     H25846  -1.009   4.246   5.196 -0.9421  2.2624  0.3720
  196MOL0     H25847  -1.157   4.316   5.144  2.0120  1.0708  0.5270
  196MOL0     H25848  -1.044   4.204   4.962 -1.7059  2.2077 -0.3709
  196MOL0     H25849  -1.181   4.097   5.009  1.1731 -2.3078  0.3020
  196MOL0     H25850  -0.925   4.052   5.151 -2.8710 -1.2013  2.4794
  196MOL0     H25851  -1.063   3.944   5.119  0.0056 -0.7636  0.9815
  196MOL0     H25852  -0.885   4.040   4.890  4.7241 -1.2070  1.4526
  196MOL0     H25853  -1.007   3.916   4.891 -0.1600  0.1992 -0.0428
  196MOL0     H25854  -1.253   3.745   5.574 -2.6815  1.2882 -0.3945
  196MOL0     H25855  -1.058   3.603   5.564 -1.4492 -2.4106 -0.6303
  196MOL0     H25856  -0.673   3.538   5.364  1.5966 -2.0192 -1.1842
  196MOL0     H25857  -0.465   3.426   5.458 -1.2780  2.1065  2.9132
  196MOL0     H25858   1.066   2.784   5.981 -0.4754 -0.4711  1.5022
  196MOL0     H25859   1.281   2.883   5.970  1.2764  1.4167  0.9329
  196MOL0     H25860   1.743   2.744   6.414  1.5899  1.2718  2.3240
  196MOL0     H25861   1.955   2.857   6.466 -0.0641  3.8346  1.0871
  196MOL0     H25862   1.909   3.171   6.395 -0.5809 -2.3134 -0.1501
  196MOL0     H25863   2.073   3.232   6.395  0.9789 -0.5987  0.7613
  196MOL0     H25864   1.970   3.160   6.638  1.6052  1.2797  1.8120
  196MOL0     H25865   2.014   3.004   6.582 -0.7289  1.7376  1.9136
  196MOL0     H25866   2.237   3.093   6.519 -3.1444 -1.1928 -0.8451
  196MOL0     H25867   2.204   3.083   6.703 -0.0384 -0.6494  0.7144
  196MOL0     H25868   2.188   3.345   6.554 -0.4340 -0.2249  0.4690
  196MOL0     H25869   2.108   3.308   6.703 -1.2374  1.5910 -1.8342
  196MOL0     H25870   2.548   3.336   6.742  0.1815 -0.8952  3.8946
  196MOL0     H25871   1.940   3.051   6.089  2.3980  0.2015  1.4282
  196MOL0     H25872   1.714   2.950   6.037  1.8198  1.9347 -1.9226
  197MOL0     O25873   9.582   8.088   5.759 -0.1700  0.2105 -0.1192
  197MOL0     C25874   9.590   8.200   5.709  0.4924  0.4538  0.6608
  197MOL0     O25875   9.516   8.253   5.605 -0.2659 -0.6296 -0.3640
  197MOL0     C25876   9.407   8.185   5.543 -1.3449  0.2308 -0.4366
  197MOL0     C25877   9.383   8.046   5.553  0.2937 -0.8925 -0.2469
  197MOL0     C25878   9.269   7.989   5.497 -0.7375 -0.3603 -1.0896
  197MOL0     C25879   9.174   8.063   5.431 -0.6562 -0.7770 -1.0713
  197MOL0     O25880   9.047   8.030   5.409  0.1502  0.2541  0.7980
  197MOL0     C25881   9.004   7.897   5.464 -0.5380  0.0955 -0.5921
  197MOL0     C25882   8.855   7.856   5.415 -0.8621  0.2372 -0.3624
  197MOL0     C25883   8.854   7.878   5.260 -0.7689  0.6077 -0.6124
  197MOL0     C25884   8.766   7.775   5.186 -0.3434 -0.2113 -0.7777
  197MOL0     C25885   8.613   7.791   5.212  0.3992  0.4153 -0.0285
  197MOL0     C25886   8.553   7.928   5.199  0.1488 -0.6366 -0.8443
  197MOL0     C25887   8.411   7.920   5.223 -0.8148 -0.1214 -0.1096
  197MOL0     C25888   8.345   8.056   5.188 -0.2645 -0.3836  0.4648
  197MOL0     N25889   8.366   8.149   5.303  0.3824  0.4989 -0.9633
  197MOL0     C25890   8.262   8.212   5.362  0.0490  1.0199 -0.9968
  197MOL0     C25891   8.307   8.306   5.449  0.2629  0.0272 -0.4131
  197MOL0     C25892   8.231   8.414   5.520 -0.3265 -0.1910 -0.5764
  197MOL0     C25893   8.118   8.358   5.611 -0.3440 -0.2956 -0.2277
  197MOL0     C25894   8.133   8.405   5.761  0.2551 -0.0637 -0.0462
  197MOL0     C25895   8.046   8.529   5.806 -0.8199 -0.0451  0.5296
  197MOL0     O25896   8.037   8.632   5.708 -0.7723 -1.1159  0.1065
  197MOL0     C25897   8.137   8.735   5.694 -0.0331  0.5421  1.5538
  197MOL0     C25898   8.247   8.738   5.784 -0.4077 -0.1414 -0.4391
  197MOL0     C25899   8.338   8.838   5.776  0.1774  0.1020 -0.4648
  197MOL0     C25900   8.332   8.938   5.675 -0.9636 -0.1143  0.4968
  197MOL0     C25901   8.434   9.052   5.681 -0.2835 -0.5878  0.8042
  197MOL0     O25902   8.485   9.078   5.809  0.1106  0.3010  0.0404
  197MOL0     C25903   8.535   9.203   5.820  0.7832 -0.1278  0.2453
  197MOL0     C25904   8.462   9.317   5.836 -0.7108  0.6363  0.2594
  197MOL0     C25905   8.530   9.438   5.852  0.5640 -0.6421  0.0410
  197MOL0     C25906   8.669   9.441   5.855 -0.3506  0.2186 -0.2110
  197MOL0     O25907   8.738   9.557   5.896 -0.1474  0.0779  0.2749
  197MOL0     C25908   8.688   9.683   5.847 -0.0774  0.0783 -0.2295
  197MOL0     C25909   8.797   9.792   5.834  0.1972 -0.1914 -0.0791
  197MOL0     C25910   8.941   9.752   5.805 -0.0155  0.3226  0.6517
  197MOL0     C25911   8.952   9.688   5.668 -0.2900  1.1135  0.7398
  197MOL0     C25912   9.107   9.655   5.654  0.7062 -0.5119 -0.2605
  197MOL0     C25913   9.145   9.601   5.516  0.4494  0.2194  0.0893
  197MOL0     C25914   9.087   9.463   5.508  0.4362  0.3553  0.3281
  197MOL0     C25915   9.043   9.431   5.372 -0.2078 -0.1143  0.4917
  197MOL0    Cl25916   8.866   9.401   5.371  0.1282  0.0678 -0.6312
  197MOL0     C25917   8.742   9.321   5.840 -0.6217  0.0942  0.2360
  197MOL0     C25918   8.673   9.199   5.830 -0.4245 -0.2588 -1.0931
  197MOL0     O25919   8.434   9.123   5.583 -0.0215 -0.8108  1.2633
  197MOL0     C25920   8.229   8.937   5.582 -0.8254 -0.0361  0.6904
  197MOL0     C25921   8.133   8.832   5.589  0.7065 -0.0617  0.2310
  197MOL0     N25922   8.443   8.302   5.416  0.1342  0.1389 -0.2706
  197MOL0     N25923   8.474   8.220   5.330 -0.5591 -0.1187 -0.6102
  197MOL0     C25924   9.198   8.198   5.420  0.0083  0.1741 -0.1291
  197MOL0     C25925   9.311   8.258   5.474  0.3411 -0.4374  0.3984
  197MOL0     C25926   9.697   8.271   5.776 -1.0080 -0.1854  0.3991
  197MOL0     C25927   9.767   8.217   5.894  0.1462 -0.5299  0.0946
  197MOL0     C25928   9.864   8.301   5.949 -0.4597  0.6495 -0.2365
  197MOL0     C25929   9.887   8.434   5.913  0.2835  0.6046 -1.4547
  197MOL0     O25930   9.987   8.526   5.966 -0.3101 -0.4302 -0.4103
  197MOL0     C25931  10.064   8.479   6.080 -0.6020 -0.2342 -0.1350
  197MOL0     C25932  10.197   8.553   6.083  0.1861 -0.0055  0.0203
  197MOL0     C25933  10.191   8.704   6.059 -0.6981 -0.4454 -0.2094
  197MOL0     C25934  10.290   8.784   6.136 -0.5445 -0.0924 -0.6369
  197MOL0     C25935  10.436   8.742   6.131  0.5077 -0.9139  0.1573
  197MOL0     C25936  10.559   8.734   6.130 -0.4886 -0.5094  0.7896
  197MOL0     C25937   9.806   8.481   5.807 -0.2315  0.3461 -0.0011
  197MOL0     C25938   9.715   8.402   5.738 -0.0297 -0.2144 -0.2576
  197MOL0     H25939   9.448   7.982   5.611 -0.8642 -1.2477  0.6968
  197MOL0     H25940   9.239   7.885   5.507 -2.2328  0.2772  2.3485
  197MOL0     H25941   9.012   7.902   5.573 -1.4617  2.8234 -0.5759
  197MOL0     H25942   9.065   7.822   5.414 -0.3948  0.1833 -0.5465
  197MOL0     H25943   8.774   7.917   5.456 -0.4292  0.5910 -0.0276
  197MOL0     H25944   8.832   7.755   5.451  1.6218  0.1901  1.2888
  197MOL0     H25945   8.955   7.862   5.223  1.9613  5.0760  3.5986
  197MOL0     H25946   8.831   7.984   5.248 -1.8179  0.1686 -3.0966
  197MOL0     H25947   8.779   7.787   5.078  0.5797 -0.5210 -0.7064
  197MOL0     H25948   8.798   7.674   5.214  0.4316  0.4540  0.8349
  197MOL0     H25949   8.578   7.757   5.310 -2.8187 -0.6022 -1.4073
  197MOL0     H25950   8.566   7.716   5.148  2.7721 -1.6008  0.4492
  197MOL0     H25951   8.569   7.976   5.102 -1.9383  3.0852  0.4363
  197MOL0     H25952   8.604   7.991   5.273 -1.4506  0.7703 -0.8536
  197MOL0     H25953   8.378   7.836   5.162  1.0287 -1.8317  1.1337
  197MOL0     H25954   8.386   7.902   5.329  1.2144 -1.1059  0.2482
  197MOL0     H25955   8.240   8.049   5.157  0.2077 -1.7445 -0.9893
  197MOL0     H25956   8.384   8.095   5.094  0.9268 -2.5634 -0.0287
  197MOL0     H25957   8.158   8.184   5.351  0.4099 -1.2774  0.6708
  197MOL0     H25958   8.200   8.497   5.455 -3.8892  0.8996  2.2397
  197MOL0     H25959   8.298   8.482   5.574  1.0944 -0.7999 -1.4967
  197MOL0     H25960   8.130   8.250   5.616  0.3238 -0.2223 -0.1078
  197MOL0     H25961   8.015   8.377   5.581 -0.4919  2.9405  1.7736
  197MOL0     H25962   8.115   8.317   5.824  2.0373 -0.6643 -0.3116
  197MOL0     H25963   8.237   8.437   5.774 -0.4462  1.7383  1.5673
  197MOL0     H25964   8.092   8.571   5.896 -0.5982  1.3185 -0.1934
  197MOL0     H25965   7.942   8.496   5.821 -0.8393 -1.2944 -1.8305
  197MOL0     H25966   8.261   8.673   5.870  0.8362  1.3773  0.5509
  197MOL0     H25967   8.425   8.830   5.839 -0.8060 -0.3548  0.8784
  197MOL0     H25968   8.355   9.310   5.823 -0.4704 -3.0392 -1.0809
  197MOL0     H25969   8.473   9.530   5.853 -1.2174 -1.7056  0.4757
  197MOL0     H25970   8.616   9.732   5.913 -1.0407 -0.5219 -0.8045
  197MOL0     H25971   8.647   9.667   5.747 -1.3342  0.9091  0.1213
  197MOL0     H25972   8.797   9.837   5.934  1.5137 -1.8095  0.6914
  197MOL0     H25973   8.759   9.861   5.758  0.1144 -2.0566 -1.7917
  197MOL0     H25974   8.986   9.689   5.882  2.3931  0.3119 -0.6612
  197MOL0     H25975   8.999   9.845   5.806  0.8513 -0.2013  0.3592
  197MOL0     H25976   8.888   9.599   5.665  0.4069  0.6152  0.0779
  197MOL0     H25977   8.914   9.760   5.595 -0.9162  0.3401  0.2819
  197MOL0     H25978   9.131   9.588   5.737 -2.3091 -2.8099 -1.0344
  197MOL0     H25979   9.165   9.747   5.667 -0.1788  0.0474 -0.0964
  197MOL0     H25980   9.251   9.614   5.491 -0.4986  3.2104 -3.3012
  197MOL0     H25981   9.095   9.663   5.441 -1.1690 -1.6318 -0.4545
  197MOL0     H25982   9.147   9.374   5.530  1.5233  0.7187 -0.9864
  197MOL0     H25983   9.000   9.447   5.572  0.4071 -0.3463  0.1224
  197MOL0     H25984   9.089   9.336   5.344 -0.6611 -0.1215 -0.2781
  197MOL0     H25985   9.065   9.510   5.300  0.4812 -0.8174 -0.0822
  197MOL0     H25986   8.851   9.316   5.837 -0.6431 -1.8463 -3.4381
  197MOL0     H25987   8.730   9.110   5.807 -1.2527 -1.0208 -0.2681
  197MOL0     H25988   8.224   9.027   5.521 -0.2763 -1.2554 -1.2723
  197MOL0     H25989   8.050   8.834   5.519  1.9221  0.4990 -1.2520
  197MOL0     H25990   9.120   8.262   5.381  0.4987  1.5233  1.0270
  197MOL0     H25991   9.295   8.365   5.476 -3.4602 -0.8078 -1.2703
  197MOL0     H25992   9.754   8.117   5.934  0.7188 -1.7331 -2.4676
  197MOL0     H25993   9.926   8.264   6.030 -0.6177 -0.7270 -0.7056
  197MOL0     H25994  10.090   8.374   6.064  0.5925  0.3798 -2.7246
  197MOL0     H25995  10.010   8.489   6.174 -0.1415  0.8841  0.0362
  197MOL0     H25996  10.236   8.542   6.184  1.5122  3.0617 -0.0300
  197MOL0     H25997  10.254   8.513   5.998  0.7947  2.9589 -1.1021
  197MOL0     H25998  10.091   8.741   6.084  0.1888 -0.4815  3.9673
  197MOL0     H25999  10.205   8.715   5.951  0.8227 -1.8026 -0.1780
  197MOL0     H26000  10.279   8.888   6.105  1.0801 -0.4709 -2.7394
  197MOL0     H26001  10.269   8.781   6.244  4.8478  1.8872  0.7742
  197MOL0     H26002  10.666   8.734   6.124 -0.5006  2.0494 -1.1722
  197MOL0     H26003   9.833   8.583   5.783 -1.2869  1.1438  1.9154
  197MOL0     H26004   9.663   8.447   5.654  1.6267  0.0431 -1.1809
  198MOL0     O26005   0.908   4.993   1.431 -0.0564 -0.5034 -0.3830
  198MOL0     C26006   0.880   4.914   1.521 -0.5303 -0.6500 -0.3030
  198MOL0     O26007   0.791   4.939   1.617 -0.3998 -0.5006 -0.9403
  198MOL0     C26008   0.678   5.017   1.594 -0.7371  0.6726 -0.9074
  198MOL0     C26009   0.676   5.148   1.648 -1.3065  0.2024 -0.3979
  198MOL0     C26010   0.566   5.220   1.623 -1.1799  0.7107  0.1107
  198MOL0     C26011   0.455   5.173   1.540  0.2329 -0.6331 -0.2840
  198MOL0     O26012   0.348   5.247   1.505 -0.0585 -0.3283  0.5323
  198MOL0     C26013   0.336   5.375   1.570  1.0143  1.2649  0.6107
  198MOL0     C26014   0.191   5.422   1.549 -0.1427 -0.1793 -0.0943
  198MOL0     C26015   0.106   5.346   1.644 -0.0635  0.4160 -0.1927
  198MOL0     C26016  -0.036   5.418   1.633 -0.7331  0.8297 -0.2097
  198MOL0     C26017  -0.157   5.351   1.700 -0.4225  0.4274 -0.0576
  198MOL0     C26018  -0.173   5.218   1.634 -0.6823  0.5822  0.1253
  198MOL0     C26019  -0.316   5.169   1.632 -0.0600 -0.4302 -0.1131
  198MOL0     C26020  -0.336   5.039   1.548  0.5072  0.2919 -0.1454
  198MOL0     N26021  -0.486   5.019   1.519 -1.3615  0.7496 -0.2859
  198MOL0     C26022  -0.560   5.095   1.444 -0.3291  0.7504  0.3593
  198MOL0     C26023  -0.687   5.051   1.443 -0.4448  0.1687 -0.7165
  198MOL0     C26024  -0.788   5.118   1.353 -0.0278  0.6298  0.4223
  198MOL0     C26025  -0.940   5.085   1.377 -0.4451  0.0577  0.4983
  198MOL0     C26026  -0.985   5.152   1.502 -0.7495 -0.4854 -0.2876
  198MOL0     C26027  -1.018   5.305   1.496 -0.1972  0.4789  0.3846
  198MOL0     O26028  -1.077   5.338   1.626 -0.0589  0.7550  0.8649
  198MOL0     C26029  -1.201   5.298   1.655  0.0317  1.1983  1.4250
  198MOL0     C26030  -1.301   5.304   1.562 -0.5702  0.6121 -0.6418
  198MOL0     C26031  -1.431   5.268   1.594  0.2606  0.4222 -0.4874
  198MOL0     C26032  -1.462   5.220   1.720 -1.0284  0.4469 -0.2580
  198MOL0     C26033  -1.596   5.195   1.752 -0.1965 -0.3304  0.5657
  198MOL0     O26034  -1.703   5.249   1.680 -0.6095 -0.2530  0.3377
  198MOL0     C26035  -1.833   5.225   1.703 -0.0285 -0.5607  0.8095
  198MOL0     C26036  -1.884   5.102   1.741 -0.4513  0.2788  0.0312
  198MOL0     C26037  -2.022   5.079   1.767  0.0650  0.6886 -1.0778
  198MOL0     C26038  -2.111   5.189   1.746  0.2954  0.0742  0.4271
  198MOL0     O26039  -2.237   5.167   1.785  0.0593 -0.6381 -1.3333
  198MOL0     C26040  -2.311   5.073   1.704 -0.6513 -0.3282 -0.2069
  198MOL0     C26041  -2.457   5.115   1.688 -0.5883  0.1432  0.1331
  198MOL0     C26042  -2.542   5.066   1.813  0.4274 -0.5672 -0.1473
  198MOL0     C26043  -2.673   5.147   1.814  1.5276 -0.1977  0.4971
  198MOL0     C26044  -2.749   5.124   1.939  0.0410 -0.4682 -0.7379
  198MOL0     C26045  -2.766   4.975   1.977  0.1841  0.3018 -0.0371
  198MOL0     C26046  -2.849   4.892   1.879 -0.1472  0.2428 -0.6735
  198MOL0     C26047  -2.858   4.750   1.933 -0.3340  0.4384 -0.0909
  198MOL0    Cl26048  -2.952   4.638   1.811  0.0441 -0.3112  0.1554
  198MOL0     C26049  -2.064   5.306   1.703 -0.5170 -0.1765 -0.1727
  198MOL0     C26050  -1.928   5.327   1.680  0.0890 -0.6112  0.9201
  198MOL0     O26051  -1.604   5.109   1.838  0.0527  0.1113 -0.7480
  198MOL0     C26052  -1.354   5.204   1.815  0.8455  0.4859  1.1067
  198MOL0     C26053  -1.228   5.248   1.779 -0.3132 -0.6208  0.7256
  198MOL0     N26054  -0.701   4.954   1.544 -0.2546 -0.2697  0.1800
  198MOL0     N26055  -0.577   4.936   1.579 -0.8239  0.1551  0.0980
  198MOL0     C26056   0.463   5.048   1.480 -1.0485 -0.2142  0.4601
  198MOL0     C26057   0.578   4.968   1.515  0.7149  0.1333  0.6416
  198MOL0     C26058   0.987   4.813   1.558 -0.3662  0.9820  0.9313
  198MOL0     C26059   0.989   4.739   1.676  0.0672 -0.9649 -0.2137
  198MOL0     C26060   1.093   4.650   1.695 -0.1741  0.7042 -0.5126
  198MOL0     C26061   1.188   4.610   1.592 -0.9052  0.5556 -0.4150
  198MOL0     O26062   1.280   4.509   1.592 -0.9326 -0.0594  0.4583
  198MOL0     C26063   1.395   4.560   1.656 -0.1742 -0.0148  0.2518
  198MOL0     C26064   1.519   4.480   1.614 -0.7903  0.5959 -0.3385
  198MOL0     C26065   1.570   4.536   1.486  0.3053  1.2554  0.2525
  198MOL0     C26066   1.713   4.490   1.461  0.4611  0.7477 -0.2253
  198MOL0     C26067   1.762   4.521   1.324 -0.3342 -0.0062  0.4376
  198MOL0     C26068   1.807   4.541   1.209 -0.4264 -0.0969  0.0698
  198MOL0     C26069   1.183   4.685   1.477  0.3866 -1.3067 -0.4764
  198MOL0     C26070   1.085   4.784   1.459  0.9107 -0.7728  0.1126
  198MOL0     H26071   0.752   5.194   1.711  1.1568  1.6782 -4.1104
  198MOL0     H26072   0.560   5.317   1.671 -0.4143  0.0987  1.4884
  198MOL0     H26073   0.410   5.446   1.531  0.5315 -0.0317 -3.0323
  198MOL0     H26074   0.351   5.366   1.678 -0.3054  2.3946  0.9135
  198MOL0     H26075   0.171   5.405   1.442 -0.0782 -1.3012  0.0619
  198MOL0     H26076   0.187   5.529   1.569 -0.1216 -0.5777  2.3196
  198MOL0     H26077   0.127   5.358   1.751 -0.7096  0.0069 -0.0144
  198MOL0     H26078   0.105   5.242   1.612 -2.4281  1.0409 -2.5794
  198MOL0     H26079  -0.028   5.521   1.670  0.6462 -0.0317  2.0608
  198MOL0     H26080  -0.063   5.417   1.527 -4.0735  3.3550  0.4448
  198MOL0     H26081  -0.246   5.416   1.693 -0.9953  0.0067  2.3360
  198MOL0     H26082  -0.145   5.349   1.809 -0.8533 -4.4362  0.1292
  198MOL0     H26083  -0.114   5.136   1.675 -0.9939  0.8258  1.0933
  198MOL0     H26084  -0.145   5.220   1.528 -0.0107 -1.3790  0.2402
  198MOL0     H26085  -0.326   5.132   1.735  2.0969 -0.9002 -0.0303
  198MOL0     H26086  -0.380   5.251   1.597  1.1267  1.9241  2.7448
  198MOL0     H26087  -0.288   4.957   1.603  2.1201  0.9239 -0.5494
  198MOL0     H26088  -0.280   5.034   1.455  0.4568 -1.0989 -0.1214
  198MOL0     H26089  -0.524   5.166   1.370 -1.3321 -1.2486 -2.1684
  198MOL0     H26090  -0.768   5.076   1.254 -1.7409 -2.5247  1.2776
  198MOL0     H26091  -0.775   5.226   1.348  0.6220  0.5230 -0.3467
  198MOL0     H26092  -0.936   4.979   1.401 -1.0133 -0.0327  0.2142
  198MOL0     H26093  -1.012   5.113   1.299  0.5460  1.7718  0.1545
  198MOL0     H26094  -1.072   5.099   1.541 -0.3136 -0.3550  0.9070
  198MOL0     H26095  -0.904   5.137   1.574 -1.3710 -2.2620  0.0806
  198MOL0     H26096  -1.079   5.316   1.405 -0.2019 -1.7561  0.0596
  198MOL0     H26097  -0.930   5.370   1.498  0.5920 -0.5439 -0.4400
  198MOL0     H26098  -1.282   5.339   1.461  1.2769  1.0397 -0.1866
  198MOL0     H26099  -1.505   5.290   1.517 -0.3406  0.7178  0.1701
  198MOL0     H26100  -1.823   5.017   1.770 -1.2632 -1.5035 -3.0065
  198MOL0     H26101  -2.049   4.983   1.811  2.3482  0.5962  0.3206
  198MOL0     H26102  -2.303   4.974   1.749 -4.3737 -0.6730 -0.0156
  198MOL0     H26103  -2.261   5.068   1.606  0.9310 -0.7474  0.5850
  198MOL0     H26104  -2.508   5.077   1.599 -0.4282  4.3486 -2.0043
  198MOL0     H26105  -2.461   5.224   1.693 -0.9486  0.2253 -1.5469
  198MOL0     H26106  -2.488   5.097   1.903 -0.6294 -3.1934  1.5417
  198MOL0     H26107  -2.562   4.959   1.822 -0.1232 -0.4906 -0.4252
  198MOL0     H26108  -2.652   5.254   1.809 -0.8487  0.2603 -1.2130
  198MOL0     H26109  -2.736   5.132   1.725 -0.7532 -1.0457  2.1595
  198MOL0     H26110  -2.845   5.177   1.939 -0.4937 -1.4076  0.3401
  198MOL0     H26111  -2.686   5.177   2.011 -1.8068  1.5061 -0.4676
  198MOL0     H26112  -2.809   4.971   2.078  1.4985 -2.7725  0.5252
  198MOL0     H26113  -2.672   4.922   1.995  0.2250 -0.1815 -1.5057
  198MOL0     H26114  -2.951   4.929   1.885 -0.5220 -0.7250 -1.0095
  198MOL0     H26115  -2.809   4.903   1.778 -0.5699  0.3152 -0.8337
  198MOL0     H26116  -2.913   4.751   2.027 -1.3615 -3.4918 -0.4738
  198MOL0     H26117  -2.761   4.703   1.951  0.8834  3.3156  1.5668
  198MOL0     H26118  -2.134   5.385   1.680 -3.0496 -2.7828 -2.1361
  198MOL0     H26119  -1.889   5.419   1.639 -0.1589  0.0680  2.1476
  198MOL0     H26120  -1.375   5.161   1.913 -0.1075 -0.6722  0.4223
  198MOL0     H26121  -1.151   5.245   1.856  1.7265 -1.0057 -1.2269
  198MOL0     H26122   0.390   5.014   1.407 -0.8574 -0.3347  0.3250
  198MOL0     H26123   0.585   4.874   1.461 -0.2185  0.5162 -0.1694
  198MOL0     H26124   0.915   4.745   1.755 -0.6173 -1.1112 -0.8290
  198MOL0     H26125   1.117   4.606   1.792 -0.3976 -0.9431 -1.1665
  198MOL0     H26126   1.379   4.554   1.764  1.7252 -0.7856  0.5351
  198MOL0     H26127   1.405   4.668   1.638 -0.1322 -0.0157  0.2696
  198MOL0     H26128   1.597   4.488   1.691 -0.3385  0.0391 -0.7349
  198MOL0     H26129   1.496   4.375   1.596  1.7154 -0.3294  1.2524
  198MOL0     H26130   1.583   4.645   1.494 -0.5852  1.2762  1.8932
  198MOL0     H26131   1.506   4.514   1.400 -0.4528  2.1821  0.5576
  198MOL0     H26132   1.774   4.543   1.535  0.6334 -0.2424  0.3450
  198MOL0     H26133   1.724   4.383   1.478 -0.6315  0.8970  1.6862
  198MOL0     H26134   1.845   4.553   1.110 -0.1329  2.3031  0.4163
  198MOL0     H26135   1.256   4.670   1.398  0.4455  0.0325 -0.6994
  198MOL0     H26136   1.082   4.835   1.363 -3.2803 -0.7095  0.1152
  199MOL0     O26137   3.988  10.467   7.229  0.4191  0.2887 -0.4784
  199MOL0     C26138   4.048  10.482   7.332 -0.0837 -0.1645 -0.1744
  199MOL0     O26139   4.181  10.461   7.344  0.6708 -0.0814 -0.2734
  199MOL0     C26140   4.253  10.414   7.236  1.4288 -0.5607 -0.3381
  199MOL0     C26141   4.283  10.279   7.216 -0.1954  0.2235  0.0336
  199MOL0     C26142   4.375  10.235   7.119 -0.8228  0.2167 -1.0320
  199MOL0     C26143   4.442  10.326   7.043 -0.4265 -1.5145  0.8903
  199MOL0     O26144   4.536  10.291   6.949 -0.3317  1.1606  0.9280
  199MOL0     C26145   4.626  10.394   6.898  0.7903 -0.0937  0.1475
  199MOL0     C26146   4.745  10.328   6.821  0.3059 -0.2824  0.2248
  199MOL0     C26147   4.841  10.435   6.756  0.8329  1.1195 -0.4147
  199MOL0     C26148   4.899  10.521   6.869  0.3516 -0.4997  0.3125
  199MOL0     C26149   5.039  10.570   6.834  0.8221 -0.0646 -0.1027
  199MOL0     C26150   5.076  10.608   6.682  1.0416  0.6982 -0.4194
  199MOL0     C26151   5.214  10.551   6.627 -0.2895 -0.0688  0.1343
  199MOL0     C26152   5.323  10.590   6.719  0.2724 -0.9065 -0.4629
  199MOL0     N26153   5.445  10.582   6.645 -1.0323 -0.3219 -0.3082
  199MOL0     C26154   5.516  10.462   6.647 -0.1024 -0.1713  0.0620
  199MOL0     C26155   5.635  10.488   6.582 -0.1198  0.3391 -0.2207
  199MOL0     C26156   5.750  10.401   6.568 -0.1197 -0.2068 -0.9803
  199MOL0     C26157   5.883  10.479   6.588  1.7743 -0.3039 -0.1837
  199MOL0     C26158   5.905  10.544   6.722 -0.7338  0.0664 -0.0487
  199MOL0     C26159   5.896  10.454   6.843  1.4355 -1.2495  1.0644
  199MOL0     O26160   5.987  10.347   6.833  0.3869 -0.3120 -0.5571
  199MOL0     C26161   6.119  10.369   6.845  0.4070  0.1278  0.4106
  199MOL0     C26162   6.207  10.291   6.764 -0.9127 -0.4684 -0.5200
  199MOL0     C26163   6.343  10.317   6.764 -0.3116  0.1942 -1.1390
  199MOL0     C26164   6.395  10.417   6.856  0.1210 -0.4243  0.1954
  199MOL0     C26165   6.538  10.424   6.863 -0.7272  0.0889 -0.0271
  199MOL0     O26166   6.621  10.354   6.777  0.1845 -0.4399  0.7782
  199MOL0     C26167   6.749  10.348   6.797 -1.4410 -0.0613 -0.8195
  199MOL0     C26168   6.797  10.233   6.859 -0.0779  0.2781 -0.8534
  199MOL0     C26169   6.927  10.223   6.886 -0.1943 -0.2745 -0.1313
  199MOL0     C26170   7.025  10.317   6.837  0.2819  0.3359  0.2741
  199MOL0     O26171   7.165  10.284   6.866 -0.8357  0.1480  0.3034
  199MOL0     C26172   7.262  10.382   6.840 -0.6489 -0.1690  0.8335
  199MOL0     C26173   7.404  10.341   6.892  0.1831 -0.5251  0.1831
  199MOL0     C26174   7.457  10.217   6.825  1.1772  0.1157  0.4195
  199MOL0     C26175   7.563  10.145   6.912 -0.3167  0.5162 -0.1950
  199MOL0     C26176   7.695  10.226   6.919 -0.6373 -0.7110  0.1208
  199MOL0     C26177   7.782  10.170   7.025  0.1886  0.0738  0.6558
  199MOL0     C26178   7.860  10.286   7.084  0.2221  0.3177 -0.8729
  199MOL0     C26179   7.954  10.229   7.196 -0.4729 -1.0876 -0.5485
  199MOL0    Cl26180   8.009  10.377   7.282  0.1897  0.0170 -0.0565
  199MOL0     C26181   6.986  10.424   6.762  0.2452  0.3084 -0.2189
  199MOL0     C26182   6.843  10.443   6.752 -0.6204 -0.9103  0.1067
  199MOL0     O26183   6.577  10.508   6.947 -0.0094  0.8195 -0.2129
  199MOL0     C26184   6.309  10.482   6.937  0.2485  0.0255  0.0594
  199MOL0     C26185   6.173  10.464   6.933  0.7819 -0.8066  0.3895
  199MOL0     N26186   5.629  10.626   6.539  0.3642  0.0843  0.2620
  199MOL0     N26187   5.519  10.676   6.577 -0.0611  0.7244  0.3397
  199MOL0     C26188   4.416  10.468   7.073 -0.4095 -0.1345  0.2293
  199MOL0     C26189   4.315  10.503   7.163  0.1873 -0.5437  0.1495
  199MOL0     C26190   3.981  10.538   7.446  0.0022 -1.3283  0.8513
  199MOL0     C26191   4.024  10.507   7.579  0.1856  0.1217  0.1654
  199MOL0     C26192   3.962  10.569   7.691 -0.1608 -0.3557 -0.2523
  199MOL0     C26193   3.862  10.671   7.664 -0.5229 -0.3168 -0.3732
  199MOL0     O26194   3.790  10.747   7.759  0.1852 -0.2150  0.3757
  199MOL0     C26195   3.798  10.710   7.893 -0.9828 -0.2444 -0.4503
  199MOL0     C26196   3.701  10.595   7.935  0.0089 -0.4847 -0.5384
  199MOL0     C26197   3.719  10.460   7.873  0.7190 -0.4315 -0.1367
  199MOL0     C26198   3.611  10.368   7.928 -0.2274 -0.1524  0.1977
  199MOL0     C26199   3.634  10.227   7.896  0.4738 -0.3742  1.1461
  199MOL0     C26200   3.663  10.111   7.864  0.9239  0.4976 -0.3738
  199MOL0     C26201   3.831  10.702   7.535 -0.5874 -0.0366 -0.2536
  199MOL0     C26202   3.885  10.640   7.422  0.4299  0.6381 -0.1061
  199MOL0     H26203   4.235  10.208   7.283  0.2900  0.1759  0.3360
  199MOL0     H26204   4.390  10.136   7.076 -0.5766  1.5428 -4.2982
  199MOL0     H26205   4.674  10.449   6.979  0.5880 -0.4502  0.5152
  199MOL0     H26206   4.575  10.465   6.832 -0.6214 -1.3846 -0.2083
  199MOL0     H26207   4.702  10.272   6.737  0.9687  0.0888 -0.3722
  199MOL0     H26208   4.812  10.264   6.879  0.7632 -1.3217 -1.3720
  199MOL0     H26209   4.796  10.496   6.677  0.7408  1.0061 -0.4503
  199MOL0     H26210   4.922  10.381   6.707  1.7608 -0.4326  2.5357
  199MOL0     H26211   4.840  10.610   6.895  0.8376 -0.9710  3.4018
  199MOL0     H26212   4.901  10.464   6.962  0.1429  0.6849  1.0600
  199MOL0     H26213   5.110  10.493   6.866 -0.2827  0.1687  3.2271
  199MOL0     H26214   5.062  10.655   6.899 -0.0532  0.9570 -1.0805
  199MOL0     H26215   5.062  10.716   6.674  1.4077  0.6757 -1.3898
  199MOL0     H26216   4.999  10.563   6.618  0.3695  1.2534 -0.0210
  199MOL0     H26217   5.220  10.441   6.627 -3.3077 -0.3383 -1.2532
  199MOL0     H26218   5.235  10.598   6.531 -0.1818  1.2794  0.7954
  199MOL0     H26219   5.320  10.521   6.804  2.0301 -0.2961  0.1428
  199MOL0     H26220   5.315  10.689   6.766 -3.9358 -1.2382 -0.0952
  199MOL0     H26221   5.484  10.367   6.687  0.3561  0.0830  1.0695
  199MOL0     H26222   5.756  10.358   6.468  0.9583  0.0649 -1.0403
  199MOL0     H26223   5.741  10.315   6.636  3.7548  0.9452  1.3405
  199MOL0     H26224   5.883  10.549   6.504  0.4303 -0.4129 -0.2865
  199MOL0     H26225   5.964  10.409   6.565 -0.2726 -2.6912 -0.5539
  199MOL0     H26226   6.002  10.596   6.717 -0.4072 -0.4065  1.0492
  199MOL0     H26227   5.830  10.623   6.731 -0.0092  0.7592  0.0575
  199MOL0     H26228   5.793  10.417   6.852  0.6719  0.3303 -0.7275
  199MOL0     H26229   5.900  10.514   6.935 -1.8239 -0.3688  0.7584
  199MOL0     H26230   6.175  10.217   6.691 -2.0502  0.0495 -0.5761
  199MOL0     H26231   6.402  10.263   6.691 -3.1707 -1.0501 -2.6952
  199MOL0     H26232   6.723  10.156   6.881 -0.5215  1.1528  0.8594
  199MOL0     H26233   6.970  10.140   6.941  1.3065 -1.4446 -2.8594
  199MOL0     H26234   7.234  10.470   6.899 -0.9145 -0.5876  1.3359
  199MOL0     H26235   7.266  10.408   6.734 -1.9757 -0.6757  0.6374
  199MOL0     H26236   7.395  10.312   6.997  0.6644 -3.6818 -0.5268
  199MOL0     H26237   7.473  10.425   6.897 -1.0938  0.8088 -2.2769
  199MOL0     H26238   7.499  10.242   6.728  0.5183 -3.3230 -0.9057
  199MOL0     H26239   7.377  10.145   6.807 -1.8030  3.0766  0.7429
  199MOL0     H26240   7.530  10.131   7.015  0.7700 -1.4081 -0.0729
  199MOL0     H26241   7.598  10.051   6.869 -0.5676 -2.6036  5.5095
  199MOL0     H26242   7.664  10.325   6.955  1.3090 -0.3977  1.0566
  199MOL0     H26243   7.753  10.225   6.827 -1.1799 -0.4545 -0.2276
  199MOL0     H26244   7.856  10.104   6.978 -0.8855 -0.5218 -0.2348
  199MOL0     H26245   7.728  10.111   7.099  0.0912  1.4972  1.7727
  199MOL0     H26246   7.932  10.335   7.018  0.0969 -1.0947 -2.1396
  199MOL0     H26247   7.790  10.353   7.134 -0.5822  0.6713 -2.4092
  199MOL0     H26248   8.030  10.164   7.152 -2.1810 -2.6550 -1.3204
  199MOL0     H26249   7.907  10.175   7.280 -0.8741  0.6992  0.4256
  199MOL0     H26250   7.062  10.486   6.717  0.6249  0.2677  0.3470
  199MOL0     H26251   6.802  10.531   6.703  1.8862  0.3892  0.1870
  199MOL0     H26252   6.357  10.549   7.008  1.2222 -1.7333  1.1219
  199MOL0     H26253   6.107  10.520   6.998  0.9593 -0.9749  0.7124
  199MOL0     H26254   4.464  10.541   7.009 -1.6361 -2.9190 -4.3075
  199MOL0     H26255   4.286  10.606   7.184  1.1976  0.1363 -1.5559
  199MOL0     H26256   4.107  10.444   7.607  2.6263  0.9847 -4.2156
  199MOL0     H26257   3.975  10.539   7.795 -2.4341  0.1264  0.2235
  199MOL0     H26258   3.761  10.799   7.944  2.1313  0.0828  1.4719
  199MOL0     H26259   3.902  10.693   7.919 -0.6944 -0.7458 -1.8192
  199MOL0     H26260   3.702  10.578   8.043 -1.9621  0.7012 -0.2672
  199MOL0     H26261   3.602  10.634   7.909 -0.4821 -0.1976  1.5700
  199MOL0     H26262   3.818  10.415   7.886 -0.0548 -2.1642  0.0377
  199MOL0     H26263   3.702  10.464   7.765  1.2022 -0.3222 -0.2104
  199MOL0     H26264   3.605  10.364   8.037 -0.3628 -1.8642  0.1542
  199MOL0     H26265   3.523  10.397   7.870 -1.1582  0.4872  1.8693
  199MOL0     H26266   3.674  10.007   7.840 -0.8533 -0.2690  1.7861
  199MOL0     H26267   3.759  10.782   7.524 -1.6534 -0.6650  1.6153
  199MOL0     H26268   3.852  10.662   7.321 -1.0251  1.5771  0.5530
  200MOL0     O26269  11.213   9.422   3.202 -0.0976 -0.6788  0.4407
  200MOL0     C26270  11.198   9.392   3.317 -0.6519 -0.3695  0.0884
  200MOL0     O26271  11.286   9.328   3.394 -0.4242 -0.5451 -0.0818
  200MOL0     C26272  11.409   9.281   3.357 -0.2513  0.0705  0.3976
  200MOL0     C26273  11.479   9.286   3.226  1.1744  0.1488 -0.8788
  200MOL0     C26274  11.609   9.222   3.216  0.0839 -0.8806  0.4632
  200MOL0     C26275  11.675   9.171   3.328 -0.7273  0.7053 -0.1281
  200MOL0     O26276  11.792   9.105   3.313 -0.0673 -0.4213 -0.1427
  200MOL0     C26277  11.885   9.058   3.425  0.1415 -0.5850 -0.4033
  200MOL0     C26278  12.009   8.992   3.365 -0.3181 -0.2019 -0.4276
  200MOL0     C26279  12.086   9.101   3.276 -0.0569  0.0365 -0.2582
  200MOL0     C26280  12.208   9.034   3.210 -0.3643 -0.6218 -0.3699
  200MOL0     C26281  12.177   8.916   3.111  0.6692 -0.4054  0.1071
  200MOL0     C26282  12.299   8.883   3.017  0.9269  0.4589 -0.2624
  200MOL0     C26283  12.315   8.990   2.901  0.2168  0.0617 -0.2864
  200MOL0     C26284  12.266   8.930   2.770 -0.6706 -0.5395 -0.1009
  200MOL0     N26285  12.286   9.028   2.661  0.5958  0.1904  0.2472
  200MOL0     C26286  12.265   9.164   2.665 -0.1067 -0.4378 -0.0710
  200MOL0     C26287  12.273   9.202   2.531  0.5381  0.7883  0.2283
  200MOL0     C26288  12.252   9.339   2.480 -0.4096  0.2679 -0.5621
  200MOL0     C26289  12.115   9.398   2.469 -0.6963  0.1753 -0.8050
  200MOL0     C26290  12.016   9.306   2.411 -0.2131  0.2963 -0.0780
  200MOL0     C26291  12.053   9.272   2.269  1.6409 -0.1954  0.3774
  200MOL0     O26292  12.057   9.392   2.192  0.7455  0.2710  0.3575
  200MOL0     C26293  11.951   9.465   2.151 -0.0020  0.8329 -0.7572
  200MOL0     C26294  11.983   9.585   2.082 -0.6639  0.7701  0.0030
  200MOL0     C26295  11.883   9.664   2.025 -0.7012 -0.2517  0.0012
  200MOL0     C26296  11.747   9.639   2.035  0.1002 -0.2669 -0.0659
  200MOL0     C26297  11.643   9.728   1.982  0.2746  0.2485 -0.4451
  200MOL0     O26298  11.525   9.679   1.985  0.4021 -0.2649 -0.9527
  200MOL0     C26299  11.426   9.771   1.937 -0.8387 -0.2603 -0.3628
  200MOL0     C26300  11.366   9.862   2.020  0.0766  0.6414  0.3879
  200MOL0     C26301  11.283   9.960   1.968  0.0603 -0.4378  0.0668
  200MOL0     C26302  11.242   9.953   1.837  0.5088  0.3139  0.3087
  200MOL0     O26303  11.160  10.054   1.788 -0.4843  0.3231  0.1190
  200MOL0     C26304  11.064  10.024   1.689  0.8980 -0.5042  0.2143
  200MOL0     C26305  10.982  10.147   1.636  0.2178 -0.3877  0.2709
  200MOL0     C26306  10.891  10.118   1.514 -0.6914 -0.1970  0.1783
  200MOL0     C26307  10.965  10.111   1.383 -0.3740  0.0056  1.5306
  200MOL0     C26308  10.873  10.116   1.256  0.3329 -0.6654 -0.5322
  200MOL0     C26309  10.948  10.114   1.121  0.6129 -0.8569  0.1604
  200MOL0     C26310  10.862  10.110   0.989 -0.2346 -0.0457 -0.7556
  200MOL0     C26311  10.923  10.158   0.860  0.0296  0.5874  0.7433
  200MOL0    Cl26312  10.817  10.137   0.723 -0.0340 -0.1309  0.1550
  200MOL0     C26313  11.288   9.853   1.752  0.2656  0.7686 -0.0253
  200MOL0     C26314  11.390   9.760   1.804  0.7845  0.1616  0.4952
  200MOL0     O26315  11.665   9.852   1.971  0.0373  0.2898 -0.4518
  200MOL0     C26316  11.717   9.529   2.123  0.6077  0.3856  0.3516
  200MOL0     C26317  11.813   9.441   2.177 -0.6360 -0.3729 -0.9838
  200MOL0     N26318  12.283   9.093   2.449 -0.4013  0.3676  0.0530
  200MOL0     N26319  12.289   8.991   2.530  0.5740 -0.5879  0.0560
  200MOL0     C26320  11.616   9.178   3.453  0.3032 -0.5427  0.4955
  200MOL0     C26321  11.477   9.222   3.458  0.5316 -0.1660 -0.3445
  200MOL0     C26322  11.067   9.421   3.370 -0.9335  0.5080 -0.1759
  200MOL0     C26323  11.041   9.398   3.508  0.1779 -0.0354 -0.0491
  200MOL0     C26324  10.911   9.437   3.562 -0.5462 -0.1699 -0.1415
  200MOL0     C26325  10.812   9.478   3.482 -0.2240 -0.2794  0.0878
  200MOL0     O26326  10.691   9.515   3.537 -0.6064 -0.1761  0.2383
  200MOL0     C26327  10.620   9.620   3.473 -0.4503 -0.2521  0.4402
  200MOL0     C26328  10.506   9.626   3.567  0.2671 -0.7328 -0.0032
  200MOL0     C26329  10.402   9.726   3.524  0.2828 -0.1899 -0.0078
  200MOL0     C26330  10.289   9.744   3.625  0.0910  0.0559  0.2109
  200MOL0     C26331  10.207   9.628   3.640 -0.0004  0.2116  0.5855
  200MOL0     C26332  10.151   9.519   3.646  0.4198  0.2882  1.6401
  200MOL0     C26333  10.846   9.505   3.348 -0.1791  0.0109  1.1072
  200MOL0     C26334  10.973   9.486   3.292 -0.3127  0.4759 -0.0122
  200MOL0     H26335  11.442   9.334   3.136 -0.9467 -0.7579 -0.5710
  200MOL0     H26336  11.665   9.221   3.123  1.5124 -0.6430  1.2929
  200MOL0     H26337  11.841   8.985   3.494 -0.4110  1.1142  1.1379
  200MOL0     H26338  11.913   9.137   3.495 -2.9228 -0.5988  1.0090
  200MOL0     H26339  11.973   8.908   3.304 -3.1364  1.4500 -1.2227
  200MOL0     H26340  12.057   8.954   3.456 -0.7029  1.3126  0.4403
  200MOL0     H26341  12.119   9.183   3.340  0.5016  0.7987 -1.4744
  200MOL0     H26342  12.032   9.148   3.193 -0.1661  3.3809  1.5522
  200MOL0     H26343  12.258   9.119   3.162 -0.7709  0.0559  0.3739
  200MOL0     H26344  12.277   8.995   3.286  2.2734  1.8735 -1.2959
  200MOL0     H26345  12.096   8.951   3.047  1.2232  0.5768 -0.0842
  200MOL0     H26346  12.146   8.824   3.161 -3.7196  0.2040 -1.0375
  200MOL0     H26347  12.284   8.789   2.963 -2.0290  1.1302 -0.7870
  200MOL0     H26348  12.392   8.884   3.075  0.7071  1.4686  0.0896
  200MOL0     H26349  12.254   9.075   2.933 -2.0177 -0.7803 -2.0873
  200MOL0     H26350  12.422   9.013   2.899  0.1967  0.1227 -0.6190
  200MOL0     H26351  12.165   8.889   2.776 -1.9861  2.1655 -2.0335
  200MOL0     H26352  12.322   8.843   2.735 -1.7962 -0.3938 -2.4606
  200MOL0     H26353  12.268   9.242   2.740  0.3175  1.7256 -2.2319
  200MOL0     H26354  12.303   9.345   2.383 -2.0365 -2.5194 -1.7013
  200MOL0     H26355  12.317   9.396   2.548  0.3144 -1.6811  0.4530
  200MOL0     H26356  12.130   9.494   2.418  2.4007 -0.7926 -1.9329
  200MOL0     H26357  12.084   9.410   2.574  0.5349  0.6293 -0.4789
  200MOL0     H26358  12.014   9.224   2.484 -1.5770  1.9255  1.8252
  200MOL0     H26359  11.917   9.353   2.410 -1.2702 -1.7852 -1.4267
  200MOL0     H26360  11.976   9.203   2.232  1.6889 -0.1173  0.1284
  200MOL0     H26361  12.149   9.220   2.260  2.1187  0.7370  0.0556
  200MOL0     H26362  12.088   9.603   2.063 -0.4787  0.0979  0.3715
  200MOL0     H26363  11.913   9.752   1.970 -2.2453  1.3741  1.6255
  200MOL0     H26364  11.394   9.857   2.125 -0.2172  0.6236  0.4667
  200MOL0     H26365  11.248  10.041   2.032 -0.9274 -0.4117 -0.4921
  200MOL0     H26366  10.988   9.961   1.736 -2.1054  1.5339 -1.5904
  200MOL0     H26367  11.102   9.969   1.602  0.3198  2.3576 -2.0129
  200MOL0     H26368  11.058  10.221   1.609 -0.0770  0.6860  2.2206
  200MOL0     H26369  10.918  10.196   1.711  2.0062  0.1512  1.4976
  200MOL0     H26370  10.821  10.200   1.497  0.2153  0.1972 -1.8838
  200MOL0     H26371  10.846  10.021   1.538  1.0347 -0.6929  1.6856
  200MOL0     H26372  11.038  10.192   1.392  2.9186 -2.7226  1.6870
  200MOL0     H26373  11.023  10.019   1.369  1.1974  0.8304  2.4079
  200MOL0     H26374  10.812  10.206   1.261  1.5015  0.0922  1.3498
  200MOL0     H26375  10.799  10.036   1.265 -0.2059 -0.4439 -2.5753
  200MOL0     H26376  11.023  10.034   1.123 -0.3234 -1.8931 -2.1356
  200MOL0     H26377  11.007  10.206   1.112  0.2384 -0.8049 -2.4282
  200MOL0     H26378  10.845  10.003   0.975  2.6240 -0.3566 -2.9514
  200MOL0     H26379  10.766  10.159   1.007  1.1227  2.5712 -0.0614
  200MOL0     H26380  11.013  10.096   0.847 -1.8676 -3.0797  3.1645
  200MOL0     H26381  10.959  10.259   0.878 -3.1465  2.3967 -1.8793
  200MOL0     H26382  11.263   9.854   1.646  0.2144 -1.5479 -0.0816
  200MOL0     H26383  11.427   9.679   1.742 -2.6079  0.4114 -2.1313
  200MOL0     H26384  11.614   9.498   2.132 -0.2991  3.3496  1.1450
  200MOL0     H26385  11.782   9.349   2.225  1.8022  0.3334  2.3316
  200MOL0     H26386  11.667   9.152   3.545  0.7885  0.4226  0.5026
  200MOL0     H26387  11.441   9.236   3.559  2.1607 -1.3165  0.4593
  200MOL0     H26388  11.120   9.366   3.575  1.9999 -2.5140 -3.1211
  200MOL0     H26389  10.898   9.420   3.668  0.3173 -0.6387 -0.1060
  200MOL0     H26390  10.606   9.606   3.366  2.6862 -0.7248  0.0014
  200MOL0     H26391  10.677   9.713   3.483 -0.9923  0.1933 -0.4358
  200MOL0     H26392  10.445   9.535   3.572 -1.7403  0.5797  0.4432
  200MOL0     H26393  10.534   9.650   3.670  1.4265  0.3602 -0.5557
  200MOL0     H26394  10.363   9.702   3.424  0.0084  1.1344 -0.2373
  200MOL0     H26395  10.447   9.825   3.521  1.9805 -0.8671  1.6327
  200MOL0     H26396  10.340   9.760   3.720 -1.0162 -0.1549  0.8562
  200MOL0     H26397  10.233   9.837   3.608  0.5874  0.2549 -0.3593
  200MOL0     H26398  10.113   9.419   3.642 -1.4462  0.9406 -2.5198
  200MOL0     H26399  10.765   9.534   3.282  0.7919  1.8022  0.6314
  200MOL0     H26400  10.986   9.512   3.188 -2.6819 -1.5534 -0.9112
  201MOL0     O26401   6.046   7.326   4.528  0.0390  0.9610  0.4821
  201MOL0     C26402   6.170   7.294   4.510  0.7931  0.1382 -0.4861
  201MOL0     O26403   6.274   7.327   4.595 -0.3412  0.2430  0.3404
  201MOL0     C26404   6.242   7.396   4.708 -0.0231  0.1257  0.8440
  201MOL0     C26405   6.270   7.351   4.837 -0.1226 -0.6870  0.1466
  201MOL0     C26406   6.264   7.445   4.941  0.4303  0.0861 -0.0600
  201MOL0     C26407   6.218   7.579   4.922 -0.7309 -0.6259 -0.8142
  201MOL0     O26408   6.237   7.664   5.038 -0.1530 -0.1158 -0.5054
  201MOL0     C26409   6.126   7.656   5.114  0.2946  0.0653 -0.1349
  201MOL0     C26410   6.089   7.800   5.149 -1.3783  0.0148  0.0491
  201MOL0     C26411   5.966   7.800   5.244 -0.8239  0.3011  0.5393
  201MOL0     C26412   5.933   7.938   5.296  1.2300  0.3138 -0.7027
  201MOL0     C26413   5.786   7.952   5.342 -0.4699  0.2532 -0.8773
  201MOL0     C26414   5.747   8.096   5.371  0.4952 -1.1709 -0.1292
  201MOL0     C26415   5.792   8.208   5.276 -0.1556 -0.5633 -0.0904
  201MOL0     C26416   5.759   8.196   5.127  0.9950 -0.5939  0.8371
  201MOL0     N26417   5.788   8.322   5.071 -0.1469 -0.2258 -0.2957
  201MOL0     C26418   5.913   8.374   5.063  0.1930 -0.0027  0.4374
  201MOL0     C26419   5.892   8.503   5.031  0.3401  0.3838 -0.3083
  201MOL0     C26420   6.001   8.589   4.970 -0.3972  0.2017  0.1315
  201MOL0     C26421   6.104   8.652   5.067  0.4532  0.5358  0.2220
  201MOL0     C26422   6.183   8.537   5.139 -0.3880 -0.2307 -0.5962
  201MOL0     C26423   6.275   8.593   5.255  1.0443  0.3451  0.6467
  201MOL0     O26424   6.194   8.667   5.352 -0.6934  0.4604 -0.1062
  201MOL0     C26425   6.093   8.602   5.421 -0.3549 -0.6529 -0.0803
  201MOL0     C26426   5.984   8.690   5.454  0.2391 -0.2902  0.5467
  201MOL0     C26427   5.866   8.630   5.503 -0.4022  0.6994 -1.3384
  201MOL0     C26428   5.861   8.489   5.528 -0.0180  0.1488  0.0585
  201MOL0     C26429   5.748   8.427   5.590 -0.2214  0.4484 -0.2277
  201MOL0     O26430   5.635   8.500   5.599 -0.0266  0.8566  0.1499
  201MOL0     C26431   5.535   8.465   5.687  0.1716  0.1191 -0.0790
  201MOL0     C26432   5.408   8.529   5.664  0.1260 -0.0238  0.1565
  201MOL0     C26433   5.311   8.536   5.761  0.3904 -0.6780 -0.2432
  201MOL0     C26434   5.330   8.470   5.887 -0.2634 -0.1148  0.0392
  201MOL0     O26435   5.246   8.477   6.000 -0.6090 -0.3585  0.0276
  201MOL0     C26436   5.141   8.557   5.989  0.5644 -0.3854 -0.1803
  201MOL0     C26437   5.043   8.560   6.111 -0.4606  0.1024 -0.1094
  201MOL0     C26438   4.960   8.688   6.105  0.3356  0.2057  1.1699
  201MOL0     C26439   4.861   8.680   5.986  0.1308 -0.4219 -0.2728
  201MOL0     C26440   4.769   8.807   5.981  0.4861  0.0355  0.0765
  201MOL0     C26441   4.644   8.811   5.883 -0.2493 -0.3874 -0.1963
  201MOL0     C26442   4.529   8.708   5.892 -0.6686 -1.2814 -0.2685
  201MOL0     C26443   4.446   8.730   6.006 -0.6184  0.2565  0.0136
  201MOL0    Cl26444   4.358   8.894   5.987 -0.1904 -0.0761  0.3242
  201MOL0     C26445   5.448   8.397   5.902 -0.5534  1.8986  0.0678
  201MOL0     C26446   5.552   8.398   5.810 -0.5492  0.1794  0.1719
  201MOL0     O26447   5.760   8.309   5.625  0.1567 -0.5419  0.4595
  201MOL0     C26448   5.980   8.415   5.517  0.5288 -1.3063  0.0226
  201MOL0     C26449   6.092   8.468   5.452  0.8238  0.0825  0.0234
  201MOL0     N26450   5.755   8.527   5.035  0.8051  0.0534 -0.6596
  201MOL0     N26451   5.690   8.420   5.057 -0.8636 -0.2316 -0.9588
  201MOL0     C26452   6.183   7.620   4.797  0.7783 -0.2168 -0.3273
  201MOL0     C26453   6.191   7.529   4.689  0.6208 -0.0712  0.6057
  201MOL0     C26454   6.195   7.208   4.389  0.7756  0.0922 -0.5521
  201MOL0     C26455   6.106   7.118   4.327 -0.5192  0.6712  0.6133
  201MOL0     C26456   6.140   7.065   4.200  0.3524  0.0669 -0.0242
  201MOL0     C26457   6.262   7.094   4.141  0.4497 -0.1498  0.6736
  201MOL0     O26458   6.296   7.053   4.013  0.1957  0.1274 -1.0138
  201MOL0     C26459   6.304   6.909   3.999  0.5099 -1.2182 -0.3140
  201MOL0     C26460   6.441   6.866   3.930 -0.1862 -0.5806  0.1600
  201MOL0     C26461   6.561   6.868   4.033  0.4484 -0.2522 -0.7220
  201MOL0     C26462   6.657   6.977   3.998  0.2426 -0.3174 -0.4250
  201MOL0     C26463   6.762   6.992   4.103  0.3293 -0.0332  0.6327
  201MOL0     C26464   6.848   6.993   4.186 -1.1114 -0.5543  0.1340
  201MOL0     C26465   6.351   7.180   4.209  0.1923 -0.1043  0.3953
  201MOL0     C26466   6.317   7.223   4.332  0.3715 -0.8085  0.3067
  201MOL0     H26467   6.307   7.252   4.862 -3.2374 -1.3926  2.6151
  201MOL0     H26468   6.298   7.418   5.041 -3.3068  1.7692  1.8755
  201MOL0     H26469   6.154   7.604   5.206  1.8542  3.0012  1.1923
  201MOL0     H26470   6.039   7.605   5.072 -0.3790  0.3843  0.8389
  201MOL0     H26471   6.059   7.854   5.059 -0.3275  1.3120  0.4275
  201MOL0     H26472   6.182   7.844   5.186 -0.4369 -3.0277  1.5962
  201MOL0     H26473   5.991   7.733   5.327 -1.9842  1.8177  2.1796
  201MOL0     H26474   5.880   7.758   5.190  0.3331 -2.8384  0.8811
  201MOL0     H26475   5.997   7.967   5.380 -1.0847 -1.1943  1.7486
  201MOL0     H26476   5.944   8.011   5.215 -1.1837  1.2439 -0.2800
  201MOL0     H26477   5.763   7.898   5.435  2.1271  0.8709  0.2071
  201MOL0     H26478   5.725   7.914   5.260  1.2658 -2.1759 -1.1258
  201MOL0     H26479   5.784   8.124   5.470 -0.9551 -0.0991  0.1386
  201MOL0     H26480   5.639   8.104   5.380  0.4717  0.4830 -1.3612
  201MOL0     H26481   5.744   8.297   5.316 -1.4497 -2.3576  2.6813
  201MOL0     H26482   5.901   8.217   5.286 -0.0063  0.1833 -2.0566
  201MOL0     H26483   5.652   8.176   5.116  0.4374  0.7849  3.1233
  201MOL0     H26484   5.826   8.129   5.072  0.4463 -0.9349  0.5783
  201MOL0     H26485   6.009   8.323   5.057  1.4865  2.3880 -0.5510
  201MOL0     H26486   5.955   8.678   4.927 -1.5039  0.2721  1.3911
  201MOL0     H26487   6.049   8.538   4.886 -0.8290 -0.9508  0.5613
  201MOL0     H26488   6.068   8.722   5.143  0.5901 -1.1440  1.9180
  201MOL0     H26489   6.174   8.710   5.007 -0.1717 -0.3330 -1.4064
  201MOL0     H26490   6.118   8.458   5.179  0.0151  0.9552  2.7663
  201MOL0     H26491   6.256   8.494   5.071 -0.5479 -3.0385  0.8427
  201MOL0     H26492   6.345   8.661   5.205 -0.4466  0.4285 -1.4688
  201MOL0     H26493   6.338   8.510   5.287  1.5603 -0.3227 -1.8785
  201MOL0     H26494   5.993   8.788   5.407  1.4338 -1.3942 -1.7336
  201MOL0     H26495   5.772   8.683   5.505 -0.0257  1.4544  1.9262
  201MOL0     H26496   5.389   8.589   5.576 -0.6121  1.2652  1.1529
  201MOL0     H26497   5.221   8.592   5.740 -0.3957 -1.6928  0.2954
  201MOL0     H26498   5.087   8.540   5.896  1.5040  3.4512 -1.6320
  201MOL0     H26499   5.185   8.657   5.986 -2.2548  0.9628 -0.6447
  201MOL0     H26500   5.100   8.574   6.203  2.0315  1.0380 -1.7178
  201MOL0     H26501   4.992   8.463   6.121  1.3753 -0.7257  1.8244
  201MOL0     H26502   5.025   8.775   6.097  2.4801 -1.4677 -2.0094
  201MOL0     H26503   4.912   8.694   6.203  1.3563  0.4977  1.6647
  201MOL0     H26504   4.920   8.681   5.894 -0.5232 -0.8916 -0.7070
  201MOL0     H26505   4.807   8.585   5.990  1.8035 -1.3679  1.9637
  201MOL0     H26506   4.822   8.897   5.949 -1.8078  1.7153  0.7280
  201MOL0     H26507   4.741   8.814   6.087 -2.2487 -1.5721 -0.4441
  201MOL0     H26508   4.689   8.817   5.783  1.8311 -2.1283  0.5553
  201MOL0     H26509   4.593   8.906   5.901  0.5832  0.0346  0.0329
  201MOL0     H26510   4.457   8.726   5.812 -1.5283 -0.7906  0.5920
  201MOL0     H26511   4.567   8.605   5.899 -2.0006 -1.6958  1.5684
  201MOL0     H26512   4.507   8.717   6.096  2.8391  1.9271 -1.9096
  201MOL0     H26513   4.379   8.643   6.002 -0.7250  0.1419  2.7066
  201MOL0     H26514   5.449   8.344   5.996 -1.3556  2.0776  0.1804
  201MOL0     H26515   5.641   8.339   5.829 -1.8737 -2.1139 -0.4363
  201MOL0     H26516   5.986   8.313   5.552  0.9726 -0.5363  2.4451
  201MOL0     H26517   6.178   8.406   5.425  0.6224 -0.6651  1.0451
  201MOL0     H26518   6.152   7.723   4.784 -0.3109 -0.1935  2.0187
  201MOL0     H26519   6.158   7.548   4.587 -1.0516  1.7979  1.4292
  201MOL0     H26520   6.006   7.102   4.367 -0.4909  1.5485  1.0572
  201MOL0     H26521   6.060   7.019   4.142 -1.7921  0.6311  2.3153
  201MOL0     H26522   6.215   6.863   3.956 -2.3286  1.9625  1.6550
  201MOL0     H26523   6.298   6.861   4.097  0.5628 -1.9886 -0.6822
  201MOL0     H26524   6.432   6.761   3.903  2.5390 -1.1016  1.0082
  201MOL0     H26525   6.461   6.921   3.837  0.8253 -0.4107  0.4628
  201MOL0     H26526   6.626   6.780   4.027  0.4555 -0.2543 -0.6146
  201MOL0     H26527   6.517   6.879   4.132 -0.9138  0.9801 -1.4234
  201MOL0     H26528   6.715   6.963   3.907  1.2037  1.8401 -0.2049
  201MOL0     H26529   6.599   7.070   4.005 -0.7931 -0.9109 -0.8344
  201MOL0     H26530   6.927   7.035   4.244  0.1435 -0.0574 -1.8362
  201MOL0     H26531   6.449   7.218   4.182 -1.0223  1.5627 -2.0282
  201MOL0     H26532   6.385   7.289   4.386 -1.3234  1.5219 -0.2421
  202MOL0     O26533   9.106  10.756   6.486 -0.0125 -0.3063  0.9173
  202MOL0     C26534   9.164  10.852   6.436  0.5877  0.3475 -1.0108
  202MOL0     O26535   9.295  10.862   6.391  0.0389  0.3015 -0.0556
  202MOL0     C26536   9.376  10.751   6.376  0.8692  0.1859 -1.2197
  202MOL0     C26537   9.338  10.621   6.343  0.3671 -0.3763 -0.1471
  202MOL0     C26538   9.434  10.522   6.316  0.3097 -0.0330  0.0205
  202MOL0     C26539   9.567  10.551   6.334  0.2033  0.1774  0.0273
  202MOL0     O26540   9.656  10.454   6.299 -0.1245  0.4302  0.1589
  202MOL0     C26541   9.724  10.473   6.174 -0.6298 -1.0660  1.1513
  202MOL0     C26542   9.832  10.369   6.156  0.7468  0.1842  0.0073
  202MOL0     C26543   9.918  10.362   6.286 -0.3050  0.0336 -0.4005
  202MOL0     C26544  10.020  10.248   6.276  0.0752 -0.0111  0.2411
  202MOL0     C26545  10.123  10.262   6.163 -0.4846 -0.4247 -0.6772
  202MOL0     C26546  10.202  10.131   6.118  0.8290  0.2873  0.3271
  202MOL0     C26547  10.104  10.010   6.083 -0.4357  0.3957  0.0570
  202MOL0     C26548  10.104   9.903   6.197  1.1200  0.8262 -0.5164
  202MOL0     N26549  10.021   9.786   6.165 -0.3297 -0.7651 -0.2087
  202MOL0     C26550  10.054   9.654   6.150 -0.2035  0.1667  0.1702
  202MOL0     C26551   9.938   9.589   6.137  0.3489 -0.1732 -0.0898
  202MOL0     C26552   9.911   9.436   6.122 -0.0658  0.3985 -0.1364
  202MOL0     C26553   9.773   9.402   6.190  1.3256  0.1858 -0.1958
  202MOL0     C26554   9.741   9.256   6.187 -0.7249  0.2220 -0.2500
  202MOL0     C26555   9.590   9.236   6.179  0.2655  0.0496  0.8730
  202MOL0     O26556   9.534   9.282   6.297 -0.0728 -0.0169 -0.0690
  202MOL0     C26557   9.422   9.234   6.343 -0.6950  0.1653  0.3720
  202MOL0     C26558   9.382   9.261   6.471  0.8250 -0.1938 -0.7650
  202MOL0     C26559   9.257   9.227   6.516 -0.1440  1.1427  0.4491
  202MOL0     C26560   9.168   9.148   6.437 -0.7345 -0.0156  0.8059
  202MOL0     C26561   9.045   9.106   6.508 -0.1192 -0.0372  0.0586
  202MOL0     O26562   9.013   9.146   6.634 -0.8124 -0.2850  0.4491
  202MOL0     C26563   8.912   9.078   6.695 -0.3061  0.9812  0.5309
  202MOL0     C26564   8.936   8.956   6.756  0.1949 -0.0680 -0.1826
  202MOL0     C26565   8.830   8.888   6.814  0.2271 -0.5188  0.2221
  202MOL0     C26566   8.710   8.943   6.814 -0.0298  0.7667 -0.1719
  202MOL0     O26567   8.613   8.864   6.868  0.0023  0.5488  0.0452
  202MOL0     C26568   8.582   8.893   7.002 -0.5785  0.1069  0.4355
  202MOL0     C26569   8.428   8.866   7.011 -0.0864  0.4374 -0.5997
  202MOL0     C26570   8.317   8.950   6.927  0.7452  0.5010  0.1736
  202MOL0     C26571   8.188   8.867   6.925 -0.3978 -0.0155 -0.0457
  202MOL0     C26572   8.063   8.933   6.860  0.0024  0.4064  0.1283
  202MOL0     C26573   7.927   8.868   6.894 -0.0346  0.1985  0.2339
  202MOL0     C26574   7.805   8.927   6.816 -0.2371  0.5601  0.5354
  202MOL0     C26575   7.704   8.814   6.767 -0.6379 -0.3395 -0.5662
  202MOL0    Cl26576   7.603   8.778   6.904  0.3071  0.3380 -0.0869
  202MOL0     C26577   8.682   9.073   6.766 -0.4505 -0.0143 -0.6227
  202MOL0     C26578   8.783   9.137   6.698  0.0700  0.7498  0.1371
  202MOL0     O26579   8.976   9.032   6.439 -0.2281  0.9295 -0.0672
  202MOL0     C26580   9.211   9.106   6.313 -0.1533  0.5323 -0.1381
  202MOL0     C26581   9.336   9.146   6.267  1.0250  0.6015 -0.2281
  202MOL0     N26582   9.836   9.681   6.151  0.0552 -0.4573 -0.2725
  202MOL0     N26583   9.886   9.797   6.156 -0.4996 -0.0444 -0.1767
  202MOL0     C26584   9.607  10.677   6.377  0.6577 -0.5702  0.0616
  202MOL0     C26585   9.507  10.779   6.385 -0.7770 -0.7416  1.0202
  202MOL0     C26586   9.089  10.975   6.435 -0.0733  0.1259 -0.0651
  202MOL0     C26587   9.142  11.083   6.372 -0.1140  0.5768  0.1291
  202MOL0     C26588   9.098  11.208   6.363 -0.0088  0.3550  0.4127
  202MOL0     C26589   8.976  11.236   6.426 -0.4121 -0.2989 -0.6974
  202MOL0     O26590   8.925  11.365   6.437 -0.4631  0.1414 -0.2028
  202MOL0     C26591   8.890  11.436   6.309 -0.4957 -0.0054 -0.3614
  202MOL0     C26592   8.758  11.386   6.244 -0.3363  0.0017  0.9559
  202MOL0     C26593   8.627  11.440   6.309 -0.5968 -0.2768  0.4268
  202MOL0     C26594   8.523  11.449   6.204  0.3061  0.1210 -0.9450
  202MOL0     C26595   8.482  11.308   6.177 -0.5359 -0.1191  0.0093
  202MOL0     C26596   8.449  11.200   6.138  0.2435 -0.5372 -0.7796
  202MOL0     C26597   8.910  11.130   6.496  0.0157 -0.3008  0.2050
  202MOL0     C26598   8.971  10.997   6.503 -0.4005 -0.2138  0.9426
  202MOL0     H26599   9.233  10.597   6.331 -0.0817  1.6235 -0.7123
  202MOL0     H26600   9.410  10.417   6.304 -1.1692  0.0367  1.8373
  202MOL0     H26601   9.782  10.566   6.169 -0.1995 -1.3993 -1.5748
  202MOL0     H26602   9.652  10.483   6.091  0.6879  2.2678  0.2424
  202MOL0     H26603   9.891  10.395   6.068  2.0156 -2.2127  0.0591
  202MOL0     H26604   9.775  10.281   6.124 -0.0004  0.0962  1.4972
  202MOL0     H26605   9.849  10.344   6.369  0.1861  1.9627  0.4849
  202MOL0     H26606   9.967  10.453   6.322  0.0879 -1.1818  2.4029
  202MOL0     H26607  10.068  10.240   6.374  0.7716 -1.2944 -0.1894
  202MOL0     H26608   9.973  10.153   6.251  4.7827 -1.8229 -3.0452
  202MOL0     H26609  10.197  10.340   6.184 -2.4029  1.7400 -1.5363
  202MOL0     H26610  10.068  10.289   6.072  0.8166 -1.4048 -1.8164
  202MOL0     H26611  10.278  10.111   6.194  0.4991  0.2731  0.6553
  202MOL0     H26612  10.258  10.154   6.027 -1.0876 -0.4022 -1.0898
  202MOL0     H26613  10.005  10.044   6.051  0.3741  1.4695 -1.4681
  202MOL0     H26614  10.148   9.960   5.996  0.1034  1.8097 -0.5173
  202MOL0     H26615  10.062   9.948   6.288 -3.1099 -7.7329  2.9017
  202MOL0     H26616  10.203   9.876   6.236  0.4915 -1.2377 -0.2486
  202MOL0     H26617  10.152   9.608   6.159 -1.5307 -2.4997  3.0107
  202MOL0     H26618  10.002   9.384   6.154 -1.9214 -2.1751  1.3337
  202MOL0     H26619   9.893   9.418   6.016  2.2826  6.9917 -2.1701
  202MOL0     H26620   9.695   9.468   6.150 -0.0992 -1.7739 -0.8283
  202MOL0     H26621   9.775   9.411   6.299  0.5436 -0.7244 -0.0894
  202MOL0     H26622   9.795   9.211   6.104  1.3160  1.9558  0.0497
  202MOL0     H26623   9.783   9.210   6.277  3.4891  1.8719 -1.1360
  202MOL0     H26624   9.583   9.129   6.158  1.4789  0.4734 -2.1969
  202MOL0     H26625   9.555   9.290   6.091  4.6203  0.8885 -0.6347
  202MOL0     H26626   9.433   9.340   6.526 -0.1454  1.0451 -1.5754
  202MOL0     H26627   9.226   9.261   6.614  0.4141 -0.7689  1.3284
  202MOL0     H26628   9.032   8.906   6.758 -0.0818 -0.6343 -0.7213
  202MOL0     H26629   8.844   8.787   6.852 -0.2759 -0.8302 -0.3913
  202MOL0     H26630   8.601   8.994   7.038  0.4874 -0.2537  0.9365
  202MOL0     H26631   8.632   8.826   7.073 -3.1121 -1.8198  0.5612
  202MOL0     H26632   8.401   8.850   7.116 -1.9465 -2.0842 -1.3732
  202MOL0     H26633   8.418   8.762   6.982  2.2612  0.0606 -0.2752
  202MOL0     H26634   8.346   8.976   6.825 -2.0196  1.9723 -0.3227
  202MOL0     H26635   8.298   9.048   6.972  0.3508  0.4340  0.1580
  202MOL0     H26636   8.202   8.765   6.886 -1.6239 -0.1660 -0.1467
  202MOL0     H26637   8.155   8.849   7.028 -4.2351  2.1893 -0.7093
  202MOL0     H26638   8.072   8.927   6.751 -0.3929 -0.1556  0.1210
  202MOL0     H26639   8.067   9.036   6.897  3.9657  0.7375 -0.7929
  202MOL0     H26640   7.915   8.876   7.002 -2.2224  1.8854 -0.0697
  202MOL0     H26641   7.951   8.768   6.858  1.8631  0.0770  1.6909
  202MOL0     H26642   7.758   9.012   6.866 -2.3232  0.0386 -0.4629
  202MOL0     H26643   7.850   8.979   6.731  0.0925 -1.6360 -0.7026
  202MOL0     H26644   7.768   8.728   6.745 -0.0986  0.0454 -0.5144
  202MOL0     H26645   7.654   8.854   6.679  0.7128  0.8888 -0.8145
  202MOL0     H26646   8.580   9.110   6.762 -0.7250 -0.5395  0.7823
  202MOL0     H26647   8.772   9.239   6.664 -2.8609  1.3732  2.5576
  202MOL0     H26648   9.148   9.041   6.253  1.8870 -0.3852 -1.3797
  202MOL0     H26649   9.369   9.098   6.176 -0.3082 -2.8576  0.9477
  202MOL0     H26650   9.712  10.701   6.391 -0.0267  1.7036  1.9429
  202MOL0     H26651   9.531  10.883   6.406 -2.0985 -0.6978  2.5699
  202MOL0     H26652   9.242  11.075   6.330 -0.8411 -1.3049 -1.3838
  202MOL0     H26653   9.160  11.287   6.321  0.3640  1.2507  2.5393
  202MOL0     H26654   8.959  11.418   6.227  0.0178 -4.1420  0.7111
  202MOL0     H26655   8.890  11.539   6.345 -1.2172 -0.3126  0.5796
  202MOL0     H26656   8.761  11.440   6.149  0.3542  2.3915  2.2438
  202MOL0     H26657   8.757  11.282   6.210  0.7522  0.8050 -1.8597
  202MOL0     H26658   8.648  11.535   6.358  1.1033 -0.0220 -0.7193
  202MOL0     H26659   8.602  11.372   6.392 -2.6889  1.0045  0.9153
  202MOL0     H26660   8.438  11.507   6.239  0.2790 -0.4004 -0.1184
  202MOL0     H26661   8.564  11.503   6.118 -0.5516 -0.9458 -2.0493
  202MOL0     H26662   8.422  11.106   6.095  0.6507 -0.5568 -1.0044
  202MOL0     H26663   8.819  11.139   6.554 -1.0258  0.2600 -1.4791
  202MOL0     H26664   8.922  10.923   6.565 -1.0147  0.4927  1.3108
  203MOL0     O26665   3.110  10.894   5.352 -0.2817 -0.2891  0.6363
  203MOL0     C26666   3.214  10.849   5.324 -0.2713  0.3535  0.7847
  203MOL0     O26667   3.326  10.883   5.383 -1.0679 -0.7482  0.7064
  203MOL0     C26668   3.317  10.976   5.494  0.2756  0.7739  0.2532
  203MOL0     C26669   3.242  10.967   5.614  1.0260 -0.8051  0.0483
  203MOL0     C26670   3.242  11.054   5.719  0.1998 -0.1217 -0.0389
  203MOL0     C26671   3.336  11.155   5.718 -1.2077 -0.3816  0.0781
  203MOL0     O26672   3.367  11.229   5.827 -0.4427 -0.0469 -0.0303
  203MOL0     C26673   3.261  11.327   5.862 -1.3081  1.2448  0.2431
  203MOL0     C26674   3.315  11.469   5.829  0.8342 -0.7272 -0.1389
  203MOL0     C26675   3.400  11.536   5.941 -1.1776  0.2528  0.3057
  203MOL0     C26676   3.330  11.563   6.065  0.0977 -0.0977  0.1085
  203MOL0     C26677   3.373  11.686   6.139 -0.0792  0.3232 -0.2630
  203MOL0     C26678   3.499  11.654   6.216 -0.1046  0.4726  0.0350
  203MOL0     C26679   3.550  11.772   6.299 -0.3795  0.1155 -0.6139
  203MOL0     C26680   3.468  11.811   6.422  0.0111 -0.6129 -0.0588
  203MOL0     N26681   3.525  11.915   6.508 -0.8000 -0.7882  0.0693
  203MOL0     C26682   3.527  11.909   6.644  0.2997  0.0709  0.3775
  203MOL0     C26683   3.527  12.035   6.689  0.2720 -0.5856 -0.1355
  203MOL0     C26684   3.544  12.081   6.832 -0.1402 -0.6877 -1.1109
  203MOL0     C26685   3.476  11.985   6.941  0.1001 -0.1075 -0.4638
  203MOL0     C26686   3.441  12.041   7.074 -0.0873  1.1191  1.2623
  203MOL0     C26687   3.547  12.124   7.142  0.3237  0.3321  0.5109
  203MOL0     O26688   3.484  12.162   7.264  0.0480  0.0189  0.0186
  203MOL0     C26689   3.447  12.289   7.296 -0.1210 -0.1076 -0.2311
  203MOL0     C26690   3.460  12.400   7.220 -1.2771 -0.0388 -0.4197
  203MOL0     C26691   3.416  12.525   7.264  1.4092  0.0707 -0.2663
  203MOL0     C26692   3.362  12.542   7.401  0.1507  0.2438 -0.1776
  203MOL0     C26693   3.320  12.676   7.447  0.2485 -0.2716 -0.2038
  203MOL0     O26694   3.336  12.779   7.362 -0.1610 -0.3141 -0.9852
  203MOL0     C26695   3.343  12.907   7.408  1.2927  0.6316 -0.8953
  203MOL0     C26696   3.278  13.014   7.349  0.7524  0.9462  0.4787
  203MOL0     C26697   3.284  13.141   7.403 -0.8261 -0.7207  0.6683
  203MOL0     C26698   3.361  13.170   7.521 -0.2537  0.4574  0.2387
  203MOL0     O26699   3.384  13.294   7.571 -0.1679  0.5053  0.2601
  203MOL0     C26700   3.382  13.408   7.491  0.5963  0.9436 -0.0340
  203MOL0     C26701   3.408  13.538   7.573 -0.1448  0.7623 -0.3231
  203MOL0     C26702   3.384  13.658   7.488  0.1761 -0.4654 -0.1426
  203MOL0     C26703   3.437  13.794   7.538  0.5459 -0.6926  1.1583
  203MOL0     C26704   3.416  13.809   7.697 -0.1526  0.0072  0.3943
  203MOL0     C26705   3.441  13.951   7.739 -0.5624  0.3798 -0.4834
  203MOL0     C26706   3.573  14.010   7.700 -0.5704 -0.3707  0.3002
  203MOL0     C26707   3.576  14.164   7.707  1.0352 -0.7119 -0.1737
  203MOL0    Cl26708   3.600  14.236   7.868 -0.2729  0.0840  0.1833
  203MOL0     C26709   3.428  13.061   7.586  1.1206  0.3420 -0.5048
  203MOL0     C26710   3.420  12.932   7.530 -0.5578  0.8336 -0.2935
  203MOL0     O26711   3.278  12.682   7.560 -0.3504  0.7105 -0.6265
  203MOL0     C26712   3.354  12.420   7.476 -0.6331 -0.2825 -0.7327
  203MOL0     C26713   3.399  12.297   7.428  0.8667 -0.2267 -0.0158
  203MOL0     N26714   3.526  12.116   6.575 -0.2470 -0.6680 -0.5357
  203MOL0     N26715   3.529  12.044   6.470 -0.1990 -0.1438  0.2697
  203MOL0     C26716   3.429  11.160   5.608  0.1716  0.5558  0.5276
  203MOL0     C26717   3.414  11.072   5.498 -0.3440 -0.0748 -0.0932
  203MOL0     C26718   3.229  10.763   5.203  0.1186 -0.1218 -0.3856
  203MOL0     C26719   3.131  10.677   5.168 -0.0839  0.5869  1.2031
  203MOL0     C26720   3.141  10.594   5.055  0.8433 -0.1291 -0.1379
  203MOL0     C26721   3.256  10.592   4.984 -0.6459 -0.6029 -0.1431
  203MOL0     O26722   3.266  10.500   4.880 -0.1930 -0.3100  0.1411
  203MOL0     C26723   3.329  10.543   4.760 -0.7038  0.3241  0.6885
  203MOL0     C26724   3.244  10.645   4.669 -0.3972 -0.8225 -0.2139
  203MOL0     C26725   3.333  10.750   4.599 -0.2048  0.2282  0.5223
  203MOL0     C26726   3.251  10.863   4.536  0.5008 -0.4449 -0.1235
  203MOL0     C26727   3.339  10.986   4.495  0.8969  0.2232 -0.1923
  203MOL0     C26728   3.426  11.068   4.477 -0.5928 -1.0265  0.2901
  203MOL0     C26729   3.365  10.674   5.025 -0.3081  0.7454  0.8565
  203MOL0     C26730   3.350  10.750   5.142  0.6752  0.0360 -0.1698
  203MOL0     H26731   3.168  10.893   5.640  1.6057 -0.6935  2.2178
  203MOL0     H26732   3.175  11.047   5.803  0.1297 -2.4358 -0.2252
  203MOL0     H26733   3.242  11.320   5.970 -3.3176  1.1379 -0.0644
  203MOL0     H26734   3.168  11.310   5.806 -0.4128 -0.5523 -0.7870
  203MOL0     H26735   3.238  11.537   5.792  2.4254 -0.2700 -2.8779
  203MOL0     H26736   3.365  11.458   5.732 -0.5303  5.1300 -1.9295
  203MOL0     H26737   3.432  11.632   5.901  0.0142 -0.1229  0.3110
  203MOL0     H26738   3.491  11.476   5.957 -1.0557  0.1204 -0.8222
  203MOL0     H26739   3.228  11.592   6.037 -0.3581  0.3670  2.0453
  203MOL0     H26740   3.316  11.480   6.135  0.2125  1.0917  1.5928
  203MOL0     H26741   3.289  11.715   6.204 -0.8863  3.1350 -2.3299
  203MOL0     H26742   3.395  11.769   6.071 -0.6727  0.9992  0.3300
  203MOL0     H26743   3.570  11.645   6.134 -1.3287  4.9288 -1.8233
  203MOL0     H26744   3.492  11.563   6.277  1.9382  0.8261  0.8955
  203MOL0     H26745   3.648  11.738   6.334  0.8458  1.4110 -2.5797
  203MOL0     H26746   3.558  11.857   6.231 -2.0451  0.7065 -0.1291
  203MOL0     H26747   3.431  11.721   6.473 -1.6241 -0.8980 -1.6448
  203MOL0     H26748   3.384  11.871   6.388  2.1191  3.3441  1.1224
  203MOL0     H26749   3.506  11.821   6.704 -0.7215  0.4852  0.6484
  203MOL0     H26750   3.485  12.171   6.849 -2.1273 -1.8511 -1.5579
  203MOL0     H26751   3.649  12.104   6.850 -0.9245  0.2135  3.9209
  203MOL0     H26752   3.546  11.902   6.957 -2.0498 -1.8526  0.3415
  203MOL0     H26753   3.391  11.934   6.895 -0.1667  1.4584 -1.8040
  203MOL0     H26754   3.343  12.085   7.058 -1.2004 -1.8824 -0.9914
  203MOL0     H26755   3.425  11.955   7.141 -1.3782 -0.9624 -1.5377
  203MOL0     H26756   3.570  12.214   7.084 -0.1123  0.1198 -0.0039
  203MOL0     H26757   3.643  12.072   7.140 -0.2333 -0.7285  0.5626
  203MOL0     H26758   3.515  12.400   7.127  0.0640 -0.4802  0.3398
  203MOL0     H26759   3.431  12.614   7.205 -0.8523 -0.4593 -1.7735
  203MOL0     H26760   3.215  12.988   7.264 -1.5719  1.9279  1.8219
  203MOL0     H26761   3.227  13.215   7.348 -0.9912 -3.4984 -3.3359
  203MOL0     H26762   3.289  13.422   7.435 -0.8862 -0.8432  1.8490
  203MOL0     H26763   3.456  13.395   7.410  0.7586  3.4944 -0.3815
  203MOL0     H26764   3.500  13.552   7.629 -0.2756 -0.7079  0.2974
  203MOL0     H26765   3.329  13.545   7.648 -1.5639 -2.6198 -1.3220
  203MOL0     H26766   3.276  13.672   7.479  0.0739  0.5786  2.0702
  203MOL0     H26767   3.428  13.637   7.390 -0.9762 -1.7109 -0.4129
  203MOL0     H26768   3.543  13.798   7.509  1.2556  0.1571  3.5784
  203MOL0     H26769   3.391  13.877   7.483 -0.2801 -2.3841 -0.8315
  203MOL0     H26770   3.474  13.735   7.752  0.3366  1.2463  1.5897
  203MOL0     H26771   3.312  13.781   7.717  0.4469 -1.0408  2.3138
  203MOL0     H26772   3.432  13.952   7.848 -2.4735 -1.6978 -0.5337
  203MOL0     H26773   3.369  14.012   7.685  0.7252  1.5421 -0.9307
  203MOL0     H26774   3.655  13.964   7.756  1.7132  2.3344 -0.6057
  203MOL0     H26775   3.594  13.986   7.595 -0.9281  0.2458  0.0808
  203MOL0     H26776   3.487  14.208   7.663  0.2641 -3.3678 -1.4520
  203MOL0     H26777   3.649  14.200   7.634  0.3217  1.1305 -0.0368
  203MOL0     H26778   3.481  13.071   7.680 -0.6762  0.8104  0.5119
  203MOL0     H26779   3.480  12.857   7.580 -1.6682 -1.1575 -1.7956
  203MOL0     H26780   3.310  12.427   7.575  0.7512  1.2525 -0.1663
  203MOL0     H26781   3.387  12.212   7.494 -0.2362 -0.3615 -0.3711
  203MOL0     H26782   3.492  11.249   5.608 -1.2563  1.6399  2.2056
  203MOL0     H26783   3.463  11.078   5.402  1.6315  2.7929  0.9420
  203MOL0     H26784   3.038  10.677   5.224  0.1685  0.2837  1.6279
  203MOL0     H26785   3.068  10.520   5.024  1.8562 -1.5307  0.6921
  203MOL0     H26786   3.342  10.461   4.689 -0.4185 -0.2409  1.3799
  203MOL0     H26787   3.427  10.585   4.788 -2.0260  3.0358  1.6411
  203MOL0     H26788   3.194  10.579   4.599  1.5929  0.0860 -2.6395
  203MOL0     H26789   3.171  10.692   4.735  1.3759  0.6580  0.8187
  203MOL0     H26790   3.394  10.702   4.523  1.6995 -0.2757  2.2775
  203MOL0     H26791   3.402  10.793   4.672  0.2941  1.1919 -0.4949
  203MOL0     H26792   3.192  10.832   4.449 -1.3535 -2.9929  1.8742
  203MOL0     H26793   3.185  10.905   4.612 -0.3125 -1.7323 -0.0739
  203MOL0     H26794   3.495  11.147   4.455 -2.0384 -0.7727 -4.7662
  203MOL0     H26795   3.468  10.671   4.991  0.3682 -0.3009  2.8158
  203MOL0     H26796   3.428  10.809   5.190 -0.6652  2.1260 -0.4451
  204MOL0     O26797   1.332   4.075   3.117  0.8119 -0.5284 -0.7444
  204MOL0     C26798   1.405   4.157   3.060 -0.2210  0.4924  0.1808
  204MOL0     O26799   1.533   4.132   3.023 -0.1706 -0.4742  0.4112
  204MOL0     C26800   1.618   4.035   3.062 -0.5088 -0.8344 -0.1296
  204MOL0     C26801   1.603   3.951   3.167 -0.3351  0.4548  0.3591
  204MOL0     C26802   1.711   3.872   3.208  0.8581 -0.3362  0.4272
  204MOL0     C26803   1.832   3.863   3.134  0.0775 -0.4102 -0.8196
  204MOL0     O26804   1.930   3.784   3.180 -0.2910  0.5390 -0.0215
  204MOL0     C26805   1.903   3.663   3.253 -0.5124  0.0869 -0.0549
  204MOL0     C26806   1.833   3.569   3.164 -0.0125 -0.4524  0.1871
  204MOL0     C26807   1.916   3.520   3.036  0.8827 -0.0441  0.4682
  204MOL0     C26808   1.873   3.383   2.988  0.6634 -0.1754  0.7644
  204MOL0     C26809   1.961   3.341   2.869  0.1892  0.6176 -0.1585
  204MOL0     C26810   1.978   3.186   2.848 -0.8104  0.2929 -0.2178
  204MOL0     C26811   1.841   3.119   2.839  0.3526 -0.0280  0.3010
  204MOL0     C26812   1.849   2.974   2.788  0.6286 -0.8137  0.3738
  204MOL0     N26813   1.925   2.974   2.662 -0.7462  0.1762  0.6417
  204MOL0     C26814   1.894   3.040   2.546  0.3454 -0.3304  0.2981
  204MOL0     C26815   1.991   3.007   2.458  0.1840  0.2330  0.5161
  204MOL0     C26816   2.035   3.063   2.320 -0.3227 -1.0200  0.9700
  204MOL0     C26817   2.182   3.119   2.304  0.3701  0.6633  0.9968
  204MOL0     C26818   2.195   3.265   2.265 -0.2253 -0.7724 -0.5257
  204MOL0     C26819   2.155   3.357   2.377  0.4442  0.1015 -0.2123
  204MOL0     O26820   2.254   3.354   2.483 -0.2497 -0.0275  0.7932
  204MOL0     C26821   2.252   3.478   2.537  0.4727  0.4938  0.1514
  204MOL0     C26822   2.363   3.558   2.525 -0.1692  0.3207 -0.2207
  204MOL0     C26823   2.359   3.684   2.590  0.4897  1.3207 -0.2017
  204MOL0     C26824   2.247   3.737   2.656 -0.0379 -0.2966  0.0821
  204MOL0     C26825   2.240   3.881   2.710 -0.5450 -0.9398  0.4375
  204MOL0     O26826   2.112   3.933   2.716 -0.8332  0.1127  0.6295
  204MOL0     C26827   2.088   4.057   2.781 -0.4791 -0.0164  0.2710
  204MOL0     C26828   1.994   4.143   2.718 -0.2714  1.2839  1.4548
  204MOL0     C26829   1.963   4.268   2.776 -0.0134 -0.3853 -0.4154
  204MOL0     C26830   2.010   4.299   2.905 -0.1885  0.0380 -0.3441
  204MOL0     O26831   1.978   4.393   2.997  0.3858  0.2461  0.0025
  204MOL0     C26832   1.890   4.493   2.957  0.2950  0.1927  1.0332
  204MOL0     C26833   1.963   4.601   2.869  0.1581  0.2430  0.1759
  204MOL0     C26834   1.848   4.711   2.828 -0.2246  0.2956 -0.2910
  204MOL0     C26835   1.827   4.803   2.944  0.6226 -0.0283 -0.7135
  204MOL0     C26836   1.720   4.905   2.924 -0.1844  0.5536  0.3747
  204MOL0     C26837   1.693   4.976   3.062 -0.1539 -0.4710  0.0512
  204MOL0     C26838   1.560   5.056   3.042 -1.1553 -0.1299 -0.1423
  204MOL0     C26839   1.533   5.150   3.162 -0.4183  0.4013  0.3973
  204MOL0    Cl26840   1.358   5.181   3.170  0.1734 -0.3738 -0.0514
  204MOL0     C26841   2.097   4.209   2.970 -0.1102 -0.9702 -0.4647
  204MOL0     C26842   2.139   4.098   2.901  0.5355  0.1717 -0.9377
  204MOL0     O26843   2.347   3.939   2.734  0.2655 -0.2300  0.2275
  204MOL0     C26844   2.127   3.649   2.672  0.3183  0.0969  0.7858
  204MOL0     C26845   2.136   3.522   2.615 -0.1171  0.4529 -0.0238
  204MOL0     N26846   2.064   2.900   2.519  0.3105 -0.8583  0.3398
  204MOL0     N26847   2.009   2.876   2.629  0.3493 -0.0236 -0.4593
  204MOL0     C26848   1.850   3.940   3.020 -0.2373 -0.2477 -0.2421
  204MOL0     C26849   1.741   4.030   2.998 -0.6672 -0.8076  0.7587
  204MOL0     C26850   1.364   4.294   3.038  0.0385  0.2319  1.0948
  204MOL0     C26851   1.448   4.401   3.002 -0.4118 -0.4353  0.6109
  204MOL0     C26852   1.394   4.531   2.979  0.0278 -0.1226 -0.4979
  204MOL0     C26853   1.260   4.563   2.989  0.5879 -0.6650 -0.2984
  204MOL0     O26854   1.225   4.694   2.965 -0.8298  0.1173 -0.4337
  204MOL0     C26855   1.087   4.722   2.939  0.1936  0.2411  0.1987
  204MOL0     C26856   1.078   4.873   2.891  0.1561 -0.4810 -0.0051
  204MOL0     C26857   1.191   4.925   2.802  0.3437  0.5117  0.3583
  204MOL0     C26858   1.175   5.079   2.807 -0.7131  0.3262  0.6011
  204MOL0     C26859   1.266   5.135   2.705 -0.4791  0.6659 -0.1242
  204MOL0     C26860   1.349   5.184   2.637 -0.2132  0.9974  0.5494
  204MOL0     C26861   1.168   4.459   3.023 -0.0710  0.2925 -0.4940
  204MOL0     C26862   1.223   4.330   3.042 -0.0442  0.4343  0.3028
  204MOL0     H26863   1.509   3.955   3.222 -2.6277 -1.1442 -3.1089
  204MOL0     H26864   1.698   3.808   3.295 -2.2956 -0.6749 -0.1450
  204MOL0     H26865   1.842   3.674   3.343 -1.6868 -2.4671 -0.4589
  204MOL0     H26866   1.997   3.612   3.279  0.2418  2.2171  1.6729
  204MOL0     H26867   1.741   3.616   3.128 -0.4624 -3.0181 -2.3986
  204MOL0     H26868   1.802   3.478   3.216 -1.7465  0.5432  0.9779
  204MOL0     H26869   2.024   3.527   3.048  1.6544 -3.0472 -2.9369
  204MOL0     H26870   1.902   3.591   2.954 -1.8099 -2.1867 -1.1016
  204MOL0     H26871   1.872   3.317   3.074 -1.2136 -1.0000  0.1569
  204MOL0     H26872   1.768   3.391   2.959  0.3437 -1.4188  1.5380
  204MOL0     H26873   2.057   3.392   2.867  1.8085 -2.2391 -0.1040
  204MOL0     H26874   1.915   3.371   2.774 -0.2568  2.0580  0.4860
  204MOL0     H26875   2.039   3.141   2.926  0.0401  2.6074  0.5455
  204MOL0     H26876   2.039   3.179   2.757 -1.5003  1.2773 -0.7728
  204MOL0     H26877   1.797   3.122   2.940 -0.2838 -0.3005  0.0387
  204MOL0     H26878   1.782   3.179   2.769  3.3622  0.8993 -1.6292
  204MOL0     H26879   1.748   2.936   2.774  0.0150  1.2678 -1.5847
  204MOL0     H26880   1.896   2.910   2.862 -1.2099 -4.2870 -1.2081
  204MOL0     H26881   1.822   3.119   2.528 -0.1051 -1.4324 -3.7105
  204MOL0     H26882   1.965   3.141   2.289  3.8811  1.6964 -2.8698
  204MOL0     H26883   2.022   2.983   2.247  3.3990 -0.4093 -0.5761
  204MOL0     H26884   2.245   3.065   2.232 -0.0878 -0.6061  1.5231
  204MOL0     H26885   2.226   3.107   2.403 -1.7942  0.4269  1.9746
  204MOL0     H26886   2.301   3.277   2.241 -0.6030  1.3121 -1.3651
  204MOL0     H26887   2.143   3.284   2.170  0.8645 -0.1563 -1.0220
  204MOL0     H26888   2.058   3.329   2.419  2.6104 -4.6849  2.4135
  204MOL0     H26889   2.150   3.455   2.327  1.1221  0.4337  0.3545
  204MOL0     H26890   2.437   3.538   2.448 -0.5519  0.1033 -0.5409
  204MOL0     H26891   2.456   3.733   2.584  2.5575 -2.6235 -2.8004
  204MOL0     H26892   1.949   4.118   2.622  1.0573  1.3391  0.7845
  204MOL0     H26893   1.889   4.333   2.729 -1.5227 -0.4402  1.7458
  204MOL0     H26894   1.872   4.548   3.050 -0.6555  1.5409  0.0860
  204MOL0     H26895   1.805   4.450   2.904 -0.6319  1.6549  1.3027
  204MOL0     H26896   1.997   4.553   2.778 -0.5407 -0.6542  0.3746
  204MOL0     H26897   2.041   4.653   2.926  0.0888 -0.6000  1.0827
  204MOL0     H26898   1.754   4.657   2.813 -0.5537  1.4186 -2.7718
  204MOL0     H26899   1.878   4.762   2.736 -3.5538  1.8069 -0.6697
  204MOL0     H26900   1.799   4.757   3.039 -0.9479  3.9981  0.9735
  204MOL0     H26901   1.921   4.852   2.970  0.2735  1.3247 -1.8809
  204MOL0     H26902   1.625   4.865   2.887  1.6550 -1.0835 -3.0606
  204MOL0     H26903   1.753   4.985   2.857 -0.1230  1.8021  1.8343
  204MOL0     H26904   1.783   5.037   3.072  1.5355 -2.9672  0.8559
  204MOL0     H26905   1.680   4.904   3.143 -0.2555 -0.8449 -0.2931
  204MOL0     H26906   1.577   5.108   2.948  5.4564 -1.3145 -0.0575
  204MOL0     H26907   1.483   4.979   3.031 -1.0359 -0.5642  1.7298
  204MOL0     H26908   1.597   5.239   3.158  1.9980 -1.2845 -0.5745
  204MOL0     H26909   1.561   5.090   3.249 -0.2579 -3.1743 -1.9138
  204MOL0     H26910   2.140   4.228   3.068  0.2605  0.3157 -0.8638
  204MOL0     H26911   2.210   4.040   2.960 -1.1153  0.5257  1.5577
  204MOL0     H26912   2.039   3.679   2.728 -2.1094 -1.9501 -1.6886
  204MOL0     H26913   2.053   3.455   2.596  0.3419  0.4780 -2.5743
  204MOL0     H26914   1.939   3.919   2.961 -0.7193 -2.8744 -0.1588
  204MOL0     H26915   1.750   4.099   2.915  0.9760 -0.6485  1.0323
  204MOL0     H26916   1.555   4.387   2.991 -0.3929 -1.8518  2.1738
  204MOL0     H26917   1.465   4.603   2.939 -0.0996 -1.5331 -3.5094
  204MOL0     H26918   1.033   4.711   3.033 -1.0554  0.2920 -0.4844
  204MOL0     H26919   1.038   4.655   2.868  0.5892 -0.2860  0.4139
  204MOL0     H26920   0.982   4.889   2.840 -1.4233 -1.5538  2.4015
  204MOL0     H26921   1.076   4.926   2.987  1.6593 -2.7825  1.3889
  204MOL0     H26922   1.175   4.883   2.702  1.9133 -1.3934  0.8632
  204MOL0     H26923   1.291   4.885   2.822  0.1713 -1.7798 -2.6672
  204MOL0     H26924   1.071   5.107   2.787 -2.0181 -1.9783  3.3985
  204MOL0     H26925   1.193   5.130   2.902 -3.2805  2.7487 -0.0651
  204MOL0     H26926   1.427   5.213   2.568 -2.9000  0.9965 -2.7517
  204MOL0     H26927   1.063   4.485   3.015  0.8319  4.1985 -2.4680
  204MOL0     H26928   1.155   4.256   3.082  2.6905 -2.2262  0.3745
  205MOL0     O26929   6.938   6.064   8.338  0.0567  0.1300  0.3191
  205MOL0     C26930   7.020   6.157   8.345 -0.3194 -0.4962  0.3081
  205MOL0     O26931   7.016   6.269   8.272 -0.2397 -0.5692 -0.1577
  205MOL0     C26932   6.914   6.291   8.172  0.2967  0.2914  0.4281
  205MOL0     C26933   6.961   6.316   8.044  0.0749  0.5623  0.4170
  205MOL0     C26934   6.867   6.340   7.943 -0.3164 -0.7433 -0.2015
  205MOL0     C26935   6.732   6.343   7.965 -0.0080 -0.3528  0.1025
  205MOL0     O26936   6.643   6.369   7.858 -0.3328 -0.0794  0.2444
  205MOL0     C26937   6.517   6.430   7.870 -0.4910  0.8270  0.9122
  205MOL0     C26938   6.461   6.428   7.731 -1.4881  0.5335 -0.1441
  205MOL0     C26939   6.324   6.489   7.726 -0.6684  0.0666 -0.1639
  205MOL0     C26940   6.223   6.432   7.632 -1.1692 -0.8978 -0.0345
  205MOL0     C26941   6.278   6.435   7.490  0.1846  0.0242 -0.2593
  205MOL0     C26942   6.180   6.381   7.396 -0.1035  0.2327  0.2408
  205MOL0     C26943   6.211   6.404   7.246 -0.0292  0.8863  0.3448
  205MOL0     C26944   6.358   6.344   7.210 -0.4777 -0.7416 -1.0619
  205MOL0     N26945   6.389   6.412   7.087 -0.0590  0.0588 -1.0251
  205MOL0     C26946   6.320   6.414   6.970  0.1787 -0.3117  0.5828
  205MOL0     C26947   6.366   6.525   6.909  0.2256  0.0861  0.5387
  205MOL0     C26948   6.310   6.567   6.781 -0.3167 -0.0275  0.0400
  205MOL0     C26949   6.203   6.682   6.804  0.2017  0.1611  0.4954
  205MOL0     C26950   6.215   6.797   6.706 -0.5205  0.6088 -0.5851
  205MOL0     C26951   6.123   6.911   6.736 -0.1104 -0.0830 -0.2289
  205MOL0     O26952   5.983   6.869   6.761 -0.6923 -0.5382  0.0155
  205MOL0     C26953   5.891   6.963   6.770 -0.8975  1.1408  0.6687
  205MOL0     C26954   5.895   7.102   6.817 -0.0543  0.1077 -0.5835
  205MOL0     C26955   5.785   7.183   6.783 -0.0524 -0.2202  0.1487
  205MOL0     C26956   5.670   7.126   6.724  0.2888 -0.8592  0.6717
  205MOL0     C26957   5.557   7.220   6.687 -0.4540 -0.1482 -0.3836
  205MOL0     O26958   5.578   7.356   6.683 -0.0945  0.1843 -0.0444
  205MOL0     C26959   5.497   7.455   6.637 -0.2861  0.4595 -0.2607
  205MOL0     C26960   5.406   7.446   6.526 -0.4280 -0.4168 -0.8232
  205MOL0     C26961   5.334   7.550   6.476 -0.0628  0.2177  0.3808
  205MOL0     C26962   5.331   7.669   6.552  0.4942  0.2394 -0.1568
  205MOL0     O26963   5.233   7.760   6.516 -0.4960 -0.4519  0.0874
  205MOL0     C26964   5.274   7.895   6.525 -0.0873  0.1923 -1.0734
  205MOL0     C26965   5.152   7.985   6.479 -0.6627 -1.1070 -0.4029
  205MOL0     C26966   5.203   8.126   6.510  0.1345  0.9767 -0.0102
  205MOL0     C26967   5.099   8.223   6.477  1.2275 -0.0882  0.2622
  205MOL0     C26968   5.153   8.373   6.486 -0.1297  0.3909 -0.6544
  205MOL0     C26969   5.048   8.482   6.488  0.2553 -0.4064  0.8752
  205MOL0     C26970   5.106   8.629   6.483 -1.0580 -0.0731 -0.8399
  205MOL0     C26971   5.133   8.665   6.629  0.3245  0.0890  1.0124
  205MOL0    Cl26972   5.287   8.593   6.685  0.2069 -0.2340 -0.1684
  205MOL0     C26973   5.418   7.690   6.663  0.9122 -0.1625  0.0239
  205MOL0     C26974   5.499   7.585   6.701 -0.2950 -0.2621  0.5224
  205MOL0     O26975   5.446   7.163   6.677  0.0164  0.0086 -0.4177
  205MOL0     C26976   5.658   6.980   6.715 -0.2887 -1.2825  0.1997
  205MOL0     C26977   5.778   6.903   6.723 -0.8312  0.4571  0.0671
  205MOL0     N26978   6.478   6.588   6.974  0.4089 -0.0152 -0.1794
  205MOL0     N26979   6.472   6.517   7.085 -0.7443  0.0976 -0.2358
  205MOL0     C26980   6.685   6.319   8.095  0.7489 -0.1406  0.2325
  205MOL0     C26981   6.775   6.293   8.200 -0.5657 -0.5389  0.4102
  205MOL0     C26982   7.129   6.139   8.435  0.9892 -0.7908  0.0420
  205MOL0     C26983   7.218   6.254   8.448  0.6164  0.5496 -0.2707
  205MOL0     C26984   7.329   6.233   8.525 -0.7107  0.2678  0.3981
  205MOL0     C26985   7.354   6.118   8.604  0.7315  0.0041 -0.1481
  205MOL0     O26986   7.482   6.101   8.658  0.3924  0.0033  0.4950
  205MOL0     C26987   7.544   5.971   8.617  0.5837 -0.2562  0.8981
  205MOL0     C26988   7.704   5.981   8.616 -0.0088 -0.1682  0.2534
  205MOL0     C26989   7.780   5.857   8.571  0.4258  0.1383 -0.2468
  205MOL0     C26990   7.935   5.866   8.585  0.2351  0.7174 -0.6232
  205MOL0     C26991   7.972   5.864   8.729 -0.7048 -0.4486  0.1422
  205MOL0     C26992   8.008   5.855   8.852  0.7727  0.0217  0.9849
  205MOL0     C26993   7.254   6.015   8.604  0.2503  0.5944  0.2170
  205MOL0     C26994   7.154   6.032   8.511 -0.3148  0.0575 -0.1460
  205MOL0     H26995   7.064   6.304   8.013 -0.1417 -1.8133  0.3986
  205MOL0     H26996   6.903   6.371   7.845 -2.6121  2.2886 -0.2161
  205MOL0     H26997   6.536   6.530   7.911  2.8464  0.6611  0.0560
  205MOL0     H26998   6.457   6.375   7.943  0.0350  0.7852  1.3249
  205MOL0     H26999   6.448   6.323   7.703 -2.7918  0.9953 -1.4066
  205MOL0     H27000   6.526   6.477   7.659 -2.7670  1.3362 -0.7982
  205MOL0     H27001   6.329   6.598   7.717 -1.3100  0.1714  0.6137
  205MOL0     H27002   6.282   6.473   7.826 -0.6140 -0.1400 -0.1738
  205MOL0     H27003   6.211   6.327   7.659 -0.9092  0.0882  4.7415
  205MOL0     H27004   6.128   6.487   7.636  0.2498  1.8532 -1.4684
  205MOL0     H27005   6.374   6.384   7.484  1.2266  1.8650 -0.0806
  205MOL0     H27006   6.295   6.539   7.459 -1.6758  1.3787  2.7994
  205MOL0     H27007   6.080   6.423   7.416 -0.7015 -0.9942 -0.0886
  205MOL0     H27008   6.176   6.277   7.426 -1.1195 -0.6393 -2.5366
  205MOL0     H27009   6.138   6.355   7.180  0.6166  0.9442 -0.4159
  205MOL0     H27010   6.203   6.512   7.232 -5.3151  1.3539  3.8969
  205MOL0     H27011   6.348   6.237   7.189 -1.8886 -0.5551 -1.4615
  205MOL0     H27012   6.439   6.356   7.282 -0.0327 -1.8496 -1.3555
  205MOL0     H27013   6.239   6.354   6.931  0.3741  0.4698 -1.1280
  205MOL0     H27014   6.262   6.478   6.740  1.6898 -0.3840 -1.7316
  205MOL0     H27015   6.384   6.608   6.711 -1.9501 -0.1061 -1.8193
  205MOL0     H27016   6.221   6.728   6.902  3.0432  1.3594 -0.4848
  205MOL0     H27017   6.103   6.641   6.792  1.1056 -1.8155 -0.8139
  205MOL0     H27018   6.314   6.843   6.701 -0.4381  0.6737  1.1081
  205MOL0     H27019   6.177   6.756   6.612 -0.7316  2.4014 -1.3212
  205MOL0     H27020   6.112   6.967   6.643  0.1116  3.3468  1.6466
  205MOL0     H27021   6.155   6.972   6.821 -1.4742 -0.3538  0.4897
  205MOL0     H27022   5.981   7.145   6.867 -1.0209  1.6262 -0.1633
  205MOL0     H27023   5.810   7.288   6.799 -0.0187 -0.1642 -0.2602
  205MOL0     H27024   5.431   7.362   6.462 -2.6390 -0.9670 -1.0349
  205MOL0     H27025   5.281   7.545   6.381  1.7854 -1.4376 -0.6290
  205MOL0     H27026   5.364   7.907   6.465 -0.2649 -1.3697 -1.6942
  205MOL0     H27027   5.284   7.912   6.633 -0.8116  0.8423 -1.1036
  205MOL0     H27028   5.064   7.975   6.543 -1.6608  0.0212 -1.5533
  205MOL0     H27029   5.130   7.976   6.372 -0.5795  0.6876 -0.5995
  205MOL0     H27030   5.280   8.159   6.440 -0.7751  3.4636  0.0633
  205MOL0     H27031   5.236   8.137   6.614  1.9900  2.6949 -0.7019
  205MOL0     H27032   5.067   8.204   6.375 -1.9255  0.6055  1.0145
  205MOL0     H27033   5.017   8.205   6.548 -0.2489  1.6823 -0.9156
  205MOL0     H27034   5.222   8.394   6.404  1.2507  0.2448  0.4301
  205MOL0     H27035   5.213   8.375   6.577  0.0596  1.0954 -0.7916
  205MOL0     H27036   4.982   8.471   6.574  1.5341 -1.5567  1.7482
  205MOL0     H27037   4.996   8.481   6.391  1.3852  0.3326  0.2455
  205MOL0     H27038   5.205   8.630   6.435  0.4884  3.0783  2.0317
  205MOL0     H27039   5.034   8.708   6.459 -2.6180 -1.1708  0.0354
  205MOL0     H27040   5.048   8.628   6.688 -0.9281  1.9077  0.4093
  205MOL0     H27041   5.134   8.774   6.628  1.3505  0.2049  4.0384
  205MOL0     H27042   5.430   7.777   6.727  3.0409  0.6022 -1.3370
  205MOL0     H27043   5.566   7.598   6.786  1.6522  2.9147 -1.2880
  205MOL0     H27044   5.562   6.937   6.688 -1.5499  1.0138  0.6940
  205MOL0     H27045   5.770   6.797   6.701  1.2563 -0.1368  1.8675
  205MOL0     H27046   6.579   6.307   8.115  0.3435 -1.2971 -2.2382
  205MOL0     H27047   6.742   6.272   8.301  0.7282 -0.1522  0.9326
  205MOL0     H27048   7.198   6.346   8.395 -1.0166  1.9793  2.5991
  205MOL0     H27049   7.401   6.313   8.536 -0.9441  0.1457  6.1842
  205MOL0     H27050   7.511   5.960   8.513  0.7424 -0.0287  0.8245
  205MOL0     H27051   7.524   5.883   8.679 -0.6115 -1.1947 -0.7512
  205MOL0     H27052   7.736   6.063   8.550 -2.7275  0.5157 -0.3413
  205MOL0     H27053   7.736   6.004   8.718  0.5177  0.9650 -0.1445
  205MOL0     H27054   7.746   5.838   8.469  0.4416 -1.3875  0.0087
  205MOL0     H27055   7.737   5.778   8.633  0.7897  2.3120  3.0104
  205MOL0     H27056   7.983   5.777   8.543 -0.2551 -1.4202  2.9777
  205MOL0     H27057   7.982   5.958   8.548  3.3337 -1.3694 -2.3043
  205MOL0     H27058   8.022   5.845   8.958  0.1443 -1.4124  0.9550
  205MOL0     H27059   7.259   5.934   8.676 -1.5711  0.8900  0.7280
  205MOL0     H27060   7.068   5.966   8.515 -1.0028  0.9354 -0.1303
  206MOL0     O27061   3.112   2.493   2.217  1.0186 -0.3449  0.1925
  206MOL0     C27062   3.033   2.568   2.161  0.9397  0.0156 -0.8862
  206MOL0     O27063   3.044   2.612   2.031 -1.1741 -0.4518  0.7770
  206MOL0     C27064   3.169   2.583   1.978 -0.0564 -0.1581  0.5951
  206MOL0     C27065   3.202   2.460   1.934 -0.7377  0.7529  1.1153
  206MOL0     C27066   3.334   2.423   1.888  0.6686  0.4011 -0.3412
  206MOL0     C27067   3.435   2.514   1.908 -0.5400  0.2424  1.6049
  206MOL0     O27068   3.571   2.467   1.890 -0.4280 -0.5200  0.9115
  206MOL0     C27069   3.647   2.542   1.806 -0.1284  0.2387  0.5945
  206MOL0     C27070   3.790   2.475   1.808 -0.0984  0.3969  0.1149
  206MOL0     C27071   3.920   2.562   1.770 -0.2453  0.7893  0.3857
  206MOL0     C27072   4.035   2.470   1.720  1.0146 -0.9013  1.1725
  206MOL0     C27073   4.162   2.552   1.682 -0.6585 -0.6228  0.4769
  206MOL0     C27074   4.133   2.664   1.581 -0.4761  0.2233 -0.2607
  206MOL0     C27075   4.264   2.721   1.531  0.5535  0.2494  0.5794
  206MOL0     C27076   4.247   2.795   1.395  0.0968 -0.2913 -0.0227
  206MOL0     N27077   4.202   2.928   1.405  0.6859 -0.3712  0.2688
  206MOL0     C27078   4.277   3.042   1.450  0.2246 -0.2143  0.4293
  206MOL0     C27079   4.187   3.139   1.448  0.6164  0.3852  0.1801
  206MOL0     C27080   4.223   3.286   1.471 -0.0596 -0.0379  0.3125
  206MOL0     C27081   4.329   3.349   1.376  0.2857 -0.5120 -0.3516
  206MOL0     C27082   4.342   3.499   1.408  0.8520 -1.0422 -0.9905
  206MOL0     C27083   4.412   3.558   1.286 -0.4922  0.8006  1.0413
  206MOL0     O27084   4.537   3.489   1.250 -1.0822 -0.2325  0.4904
  206MOL0     C27085   4.630   3.552   1.161 -0.4172 -0.4522  0.4440
  206MOL0     C27086   4.733   3.473   1.117 -0.4146 -0.1608  0.0098
  206MOL0     C27087   4.826   3.517   1.022 -0.7598  0.6363 -0.1404
  206MOL0     C27088   4.808   3.644   0.961  0.4497  0.0693 -0.0387
  206MOL0     C27089   4.908   3.685   0.859  0.1421  1.1147 -0.0251
  206MOL0     O27090   4.873   3.797   0.786 -1.4342  1.0173 -0.6032
  206MOL0     C27091   4.962   3.820   0.684 -1.0942 -0.5326  0.4275
  206MOL0     C27092   4.948   3.759   0.553  0.6927  0.4630  1.1074
  206MOL0     C27093   5.036   3.794   0.454 -1.1078  0.1873  0.6401
  206MOL0     C27094   5.144   3.878   0.470  0.2925  0.1657 -0.5688
  206MOL0     O27095   5.225   3.902   0.362 -0.2440  0.2134 -0.2809
  206MOL0     C27096   5.170   3.971   0.249  0.7475 -0.4008  0.5825
  206MOL0     C27097   5.159   3.876   0.124 -0.4753 -0.4079  0.3555
  206MOL0     C27098   5.064   3.926   0.021 -0.3237  0.0694  0.4109
  206MOL0     C27099   5.097   4.067  -0.034  0.0175  0.5642  0.4641
  206MOL0     C27100   4.975   4.133  -0.103 -0.4500 -0.1445 -0.2807
  206MOL0     C27101   4.901   4.038  -0.199  0.3223 -0.5068 -0.3452
  206MOL0     C27102   4.772   4.103  -0.239  0.9528  0.0082  0.1802
  206MOL0     C27103   4.686   3.997  -0.298 -0.2784 -0.1649 -0.2741
  206MOL0    Cl27104   4.538   4.075  -0.369 -0.4045 -0.5661 -0.5082
  206MOL0     C27105   5.164   3.939   0.596  0.6572 -0.2603  0.5011
  206MOL0     C27106   5.061   3.915   0.699 -0.7711  0.1726  0.3765
  206MOL0     O27107   5.013   3.611   0.840 -0.3194 -0.4791 -0.2782
  206MOL0     C27108   4.707   3.721   1.013 -0.0040  0.4282 -0.3870
  206MOL0     C27109   4.618   3.686   1.114 -0.2314 -0.4164 -0.3489
  206MOL0     N27110   4.062   3.089   1.419  0.4829 -0.1851 -0.3874
  206MOL0     N27111   4.075   2.959   1.396  1.0040 -0.2371 -0.7390
  206MOL0     C27112   3.402   2.642   1.952  0.1178 -0.9522 -0.8946
  206MOL0     C27113   3.268   2.682   1.985 -0.0695 -0.9421 -0.4783
  206MOL0     C27114   2.906   2.604   2.238  0.8704 -1.1328  0.1838
  206MOL0     C27115   2.800   2.680   2.177  0.1736  0.8402  0.4532
  206MOL0     C27116   2.697   2.723   2.256  0.1039  0.4692 -0.0615
  206MOL0     C27117   2.689   2.716   2.388 -0.8849 -0.7590 -0.9237
  206MOL0     O27118   2.577   2.757   2.451 -0.2959  0.1470  0.1691
  206MOL0     C27119   2.547   2.777   2.592 -0.0011  0.2822  0.0812
  206MOL0     C27120   2.553   2.924   2.626 -0.4464  1.0261 -0.3553
  206MOL0     C27121   2.506   2.925   2.772  0.2099 -0.0848  0.7863
  206MOL0     C27122   2.544   3.046   2.842 -0.5708 -0.0526 -0.3299
  206MOL0     C27123   2.481   3.164   2.785  0.5463 -0.0853 -0.3929
  206MOL0     C27124   2.443   3.272   2.744  0.2210 -0.1567 -0.7213
  206MOL0     C27125   2.799   2.654   2.458  0.3629 -0.1418 -0.2668
  206MOL0     C27126   2.895   2.593   2.377  0.0759 -0.3166 -1.3115
  206MOL0     H27127   3.117   2.393   1.924 -1.6391  2.0154  0.0514
  206MOL0     H27128   3.348   2.318   1.861  3.1836 -0.2398  2.8659
  206MOL0     H27129   3.663   2.649   1.819  1.8783  0.2480 -1.3607
  206MOL0     H27130   3.613   2.534   1.702 -0.8701 -3.5504  0.9831
  206MOL0     H27131   3.787   2.388   1.741  0.5903  0.5245 -0.0886
  206MOL0     H27132   3.813   2.446   1.910 -0.3655  2.0300  0.6708
  206MOL0     H27133   3.946   2.632   1.850 -1.3412  0.6647  0.8798
  206MOL0     H27134   3.887   2.625   1.687  1.6308  1.4625  0.1137
  206MOL0     H27135   4.066   2.401   1.799  0.1145 -0.0474  2.2951
  206MOL0     H27136   4.012   2.423   1.624  2.9067 -0.2135  0.3315
  206MOL0     H27137   4.223   2.470   1.643 -0.3447 -1.1622  2.0301
  206MOL0     H27138   4.211   2.576   1.777 -0.6032 -1.3642  0.6360
  206MOL0     H27139   4.073   2.748   1.619 -1.0082 -0.0724 -0.4352
  206MOL0     H27140   4.066   2.624   1.504 -2.1411 -0.9394  1.6746
  206MOL0     H27141   4.312   2.778   1.610  0.8448  1.8695 -0.7125
  206MOL0     H27142   4.334   2.639   1.508  1.4957  1.1607  0.1288
  206MOL0     H27143   4.164   2.739   1.350 -0.2552  0.0349  0.2168
  206MOL0     H27144   4.333   2.790   1.327  0.2402 -0.7512  0.1890
  206MOL0     H27145   4.382   3.050   1.477  0.5393 -1.3474 -0.3727
  206MOL0     H27146   4.237   3.298   1.579 -2.2863 -1.8239  0.8730
  206MOL0     H27147   4.135   3.349   1.455  1.3227  2.0518  0.4752
  206MOL0     H27148   4.319   3.325   1.270  0.4114 -1.6856 -0.1174
  206MOL0     H27149   4.417   3.316   1.433 -0.7635  1.6497  2.8178
  206MOL0     H27150   4.247   3.548   1.427 -0.0049 -2.7897 -0.5623
  206MOL0     H27151   4.407   3.524   1.492 -1.1391  0.8862  0.0777
  206MOL0     H27152   4.429   3.664   1.305  2.8265  0.5733 -0.1264
  206MOL0     H27153   4.347   3.541   1.199 -2.3413 -0.2582  2.5627
  206MOL0     H27154   4.734   3.370   1.151  0.9525  0.4132  1.8553
  206MOL0     H27155   4.917   3.463   0.999  0.7106  1.1309  3.7595
  206MOL0     H27156   4.863   3.692   0.545  1.2639 -0.5853  3.0125
  206MOL0     H27157   5.033   3.745   0.358  0.5286  1.6790 -0.2372
  206MOL0     H27158   5.248   4.040   0.214 -0.5561  0.6592 -0.3303
  206MOL0     H27159   5.077   4.023   0.271  1.7934  1.4693  0.8190
  206MOL0     H27160   5.128   3.776   0.157 -2.0803  0.5135  1.7747
  206MOL0     H27161   5.260   3.871   0.082  0.0995  2.1326  1.2422
  206MOL0     H27162   4.971   3.932   0.078 -1.3913 -1.1569 -1.1287
  206MOL0     H27163   5.045   3.856  -0.060 -1.3755 -1.1149  1.6306
  206MOL0     H27164   5.122   4.131   0.051  0.1931  0.6097  0.3778
  206MOL0     H27165   5.184   4.061  -0.100 -1.2313  0.2178 -1.2328
  206MOL0     H27166   5.014   4.222  -0.153  1.3704  0.3526  1.8739
  206MOL0     H27167   4.917   4.163  -0.015 -0.8812  1.6299 -1.1340
  206MOL0     H27168   4.882   3.940  -0.154 -2.6038 -0.0395 -0.3451
  206MOL0     H27169   4.969   4.040  -0.285  0.0398  0.5603 -0.5559
  206MOL0     H27170   4.720   4.150  -0.155  0.8076 -0.1106  0.1571
  206MOL0     H27171   4.783   4.178  -0.318  1.5381 -2.4291 -2.2062
  206MOL0     H27172   4.660   3.932  -0.214 -0.0679  2.1031  1.6601
  206MOL0     H27173   4.741   3.943  -0.375 -0.4856 -0.4687 -0.2104
  206MOL0     H27174   5.249   4.005   0.609  0.8261 -0.4497  0.3672
  206MOL0     H27175   5.065   3.975   0.790 -1.0115  2.6715 -1.1548
  206MOL0     H27176   4.688   3.820   0.973  2.4671  1.5368  0.9396
  206MOL0     H27177   4.533   3.749   1.138  0.6598  0.6066  0.1941
  206MOL0     H27178   3.486   2.709   1.969  0.4459 -1.3643 -0.8711
  206MOL0     H27179   3.240   2.773   2.038  1.4144 -1.6424  1.6328
  206MOL0     H27180   2.794   2.699   2.070 -0.6989 -0.1758  0.3066
  206MOL0     H27181   2.611   2.773   2.213 -0.0780  0.6627  0.5232
  206MOL0     H27182   2.627   2.728   2.648  0.9507  1.2685 -0.3630
  206MOL0     H27183   2.451   2.732   2.616  0.7095 -0.3268  1.9309
  206MOL0     H27184   2.652   2.970   2.616  0.2801 -0.6432 -1.2195
  206MOL0     H27185   2.474   2.971   2.566 -1.4108  0.9415  0.8198
  206MOL0     H27186   2.550   2.838   2.822 -1.3452 -1.9890 -0.9615
  206MOL0     H27187   2.401   2.899   2.785  0.3126 -0.2707  1.2797
  206MOL0     H27188   2.510   3.036   2.946  0.5338  1.4887  0.2214
  206MOL0     H27189   2.653   3.052   2.855 -0.8405 -0.6068  3.2459
  206MOL0     H27190   2.412   3.361   2.695  2.7308  3.5125  3.5084
  206MOL0     H27191   2.791   2.630   2.564 -2.8001  1.1546 -0.0874
  206MOL0     H27192   2.963   2.528   2.433  0.1041  2.0529  1.6656
  207MOL0     O27193   1.598  10.239   3.535 -0.7024 -0.8810 -0.5193
  207MOL0     C27194   1.506  10.194   3.464  0.0798  0.4878  0.4488
  207MOL0     O27195   1.520  10.071   3.397  0.7617  0.3109  0.1081
  207MOL0     C27196   1.643  10.008   3.380  0.1229  0.1331 -1.0507
  207MOL0     C27197   1.756  10.075   3.334  0.2089 -0.0917 -1.6111
  207MOL0     C27198   1.877  10.010   3.331  0.2583 -0.6036 -0.8069
  207MOL0     C27199   1.897   9.886   3.387  0.9223 -0.1276  0.4549
  207MOL0     O27200   2.020   9.816   3.385 -0.3875  0.0311  0.1407
  207MOL0     C27201   2.144   9.891   3.403 -0.0771  0.4388 -1.0259
  207MOL0     C27202   2.261   9.787   3.387  0.4142 -0.5747 -0.7309
  207MOL0     C27203   2.396   9.869   3.372 -0.3260  0.4068 -0.6022
  207MOL0     C27204   2.409   9.938   3.235  0.3643  0.4921  0.4457
  207MOL0     C27205   2.505  10.062   3.246  0.7395  0.1003  0.6460
  207MOL0     C27206   2.462  10.183   3.327 -0.6145 -0.1502  0.3233
  207MOL0     C27207   2.326  10.244   3.284 -0.3401  0.2251 -0.6865
  207MOL0     C27208   2.317  10.285   3.135  0.1735  0.2930  0.2460
  207MOL0     N27209   2.173  10.301   3.100  0.3538  0.0252 -0.0190
  207MOL0     C27210   2.085  10.380   3.168 -0.1221 -0.4404  0.1151
  207MOL0     C27211   1.970  10.378   3.090 -0.0212 -0.4608 -0.3455
  207MOL0     C27212   1.859  10.481   3.088  0.3212  0.5848 -0.4868
  207MOL0     C27213   1.756  10.475   3.208 -0.1491 -0.5101 -0.2872
  207MOL0     C27214   1.725  10.626   3.254 -0.4508  0.2942  0.1207
  207MOL0     C27215   1.669  10.714   3.140  0.2766 -0.0806 -0.0657
  207MOL0     O27216   1.563  10.632   3.090 -0.4723  0.1842  0.1751
  207MOL0     C27217   1.467  10.674   2.998  0.5284  0.2975  0.9001
  207MOL0     C27218   1.379  10.583   2.931  0.2307 -0.2858 -0.4895
  207MOL0     C27219   1.264  10.615   2.862  0.3040 -0.4097 -0.6048
  207MOL0     C27220   1.249  10.750   2.837 -0.2602 -0.3400  0.6560
  207MOL0     C27221   1.121  10.799   2.776 -1.1136  0.2283 -0.7623
  207MOL0     O27222   1.043  10.703   2.727  0.3107  0.2287 -0.6714
  207MOL0     C27223   0.913  10.732   2.708  0.4273  0.3626 -0.2511
  207MOL0     C27224   0.825  10.828   2.764 -0.2477 -0.4749  0.5963
  207MOL0     C27225   0.698  10.853   2.714  0.7285 -0.2587  0.3692
  207MOL0     C27226   0.641  10.765   2.620 -0.0388  0.1159  0.7038
  207MOL0     O27227   0.509  10.788   2.581  0.0192 -0.4239  0.5982
  207MOL0     C27228   0.453  10.711   2.472  0.3002 -0.3140  0.0521
  207MOL0     C27229   0.300  10.737   2.471  0.2503 -0.4444 -0.2189
  207MOL0     C27230   0.215  10.644   2.400  0.1583  1.6708  0.1670
  207MOL0     C27231   0.084  10.708   2.346 -0.2749  0.3623  0.1707
  207MOL0     C27232  -0.001  10.778   2.450 -0.5618  0.6114  0.5285
  207MOL0     C27233  -0.081  10.681   2.540  0.3727  0.3194 -0.4518
  207MOL0     C27234  -0.235  10.716   2.554 -0.4387  0.7301  0.3357
  207MOL0     C27235  -0.270  10.862   2.577  0.8827  0.3539  0.5995
  207MOL0    Cl27236  -0.443  10.879   2.597 -0.7301  0.5606  0.2229
  207MOL0     C27237   0.730  10.669   2.563  0.7806  0.2693  0.6944
  207MOL0     C27238   0.861  10.650   2.608 -0.1071  0.1682 -0.1531
  207MOL0     O27239   1.106  10.920   2.760 -0.4552  0.8527 -0.7225
  207MOL0     C27240   1.339  10.845   2.898 -0.0032 -0.3770  0.1170
  207MOL0     C27241   1.433  10.805   2.983 -0.9033  0.2410  0.1972
  207MOL0     N27242   2.000  10.292   2.981 -0.2507  0.3439 -0.4622
  207MOL0     N27243   2.115  10.236   2.994  1.4096 -1.5750  0.2360
  207MOL0     C27244   1.785   9.825   3.439  0.3444  0.3191  0.0813
  207MOL0     C27245   1.656   9.879   3.438  0.1600 -0.4774  1.0613
  207MOL0     C27246   1.394  10.276   3.430 -2.0102 -0.6980 -0.7860
  207MOL0     C27247   1.309  10.253   3.321  0.1926  0.0121  0.5011
  207MOL0     C27248   1.196  10.342   3.297  0.7683  0.5363  0.5783
  207MOL0     C27249   1.166  10.447   3.373  0.1632 -0.6067 -0.3417
  207MOL0     O27250   1.054  10.516   3.356 -0.5766  0.0118  0.4106
  207MOL0     C27251   0.987  10.526   3.232  0.5426 -0.2926  0.3450
  207MOL0     C27252   0.911  10.662   3.245  0.1080 -0.4704 -0.0742
  207MOL0     C27253   0.793  10.654   3.348  0.3972 -0.5653 -0.0677
  207MOL0     C27254   0.724  10.778   3.391 -0.0441 -0.4710 -0.2525
  207MOL0     C27255   0.661  10.834   3.278  0.4503 -0.2735 -0.6235
  207MOL0     C27256   0.597  10.898   3.198 -0.3765 -0.2788 -0.3867
  207MOL0     C27257   1.250  10.474   3.479  0.0552  0.8145 -0.0384
  207MOL0     C27258   1.370  10.398   3.509  0.6461  0.5745 -0.1065
  207MOL0     H27259   1.733  10.171   3.289 -0.6088 -0.1336 -1.3098
  207MOL0     H27260   1.963  10.061   3.289  3.2426 -1.5302  3.5107
  207MOL0     H27261   2.163   9.928   3.504 -0.0470  2.4066 -1.7092
  207MOL0     H27262   2.159   9.977   3.337 -1.2559  0.7300 -0.9336
  207MOL0     H27263   2.241   9.725   3.299 -1.2640 -0.0266 -0.7744
  207MOL0     H27264   2.273   9.712   3.466  0.9767 -1.3706 -1.5453
  207MOL0     H27265   2.478   9.796   3.376  0.7299  1.5535 -0.4765
  207MOL0     H27266   2.408   9.945   3.449  1.6801 -1.3988  1.0039
  207MOL0     H27267   2.461   9.866   3.170  0.5878  1.3774 -0.3765
  207MOL0     H27268   2.312   9.974   3.199 -1.2453 -2.3312  1.5988
  207MOL0     H27269   2.520  10.097   3.144  1.8394 -2.2544 -0.0832
  207MOL0     H27270   2.599  10.023   3.286 -0.6684 -3.9934  0.4581
  207MOL0     H27271   2.541  10.256   3.307 -0.7110  0.1264  0.9285
  207MOL0     H27272   2.466  10.162   3.434 -2.2553 -0.0908  0.4171
  207MOL0     H27273   2.251  10.173   3.317  1.3184 -1.3102 -0.0411
  207MOL0     H27274   2.304  10.333   3.344 -0.0316  1.0429 -1.7482
  207MOL0     H27275   2.352  10.211   3.063  2.0975  0.7062  0.7002
  207MOL0     H27276   2.364  10.383   3.126  1.4440 -0.4642 -2.5083
  207MOL0     H27277   2.113  10.447   3.248  0.2083  0.3534 -0.6489
  207MOL0     H27278   1.788  10.456   3.009 -0.6246 -0.4301  0.6288
  207MOL0     H27279   1.897  10.581   3.067  1.9229  0.0639 -0.2285
  207MOL0     H27280   1.801  10.422   3.293  1.0341  1.9896  0.7364
  207MOL0     H27281   1.657  10.430   3.197  0.3085 -1.1813 -2.2019
  207MOL0     H27282   1.655  10.621   3.338 -0.0867 -1.3201  0.3549
  207MOL0     H27283   1.826  10.649   3.288 -1.2770  1.6911  1.7785
  207MOL0     H27284   1.738  10.726   3.056 -1.9937 -1.5225 -2.3026
  207MOL0     H27285   1.631  10.811   3.171  0.8362  0.6201 -1.4776
  207MOL0     H27286   1.415  10.484   2.954 -2.4719 -0.9021  1.5957
  207MOL0     H27287   1.214  10.534   2.811  1.0142 -0.6062 -0.9898
  207MOL0     H27288   0.859  10.898   2.840 -0.9383 -0.7721  1.2045
  207MOL0     H27289   0.641  10.935   2.755  0.8693  1.1893 -2.1462
  207MOL0     H27290   0.471  10.603   2.474 -4.3522 -1.3376 -1.9704
  207MOL0     H27291   0.495  10.742   2.376 -1.3276 -1.4019 -1.0490
  207MOL0     H27292   0.291  10.841   2.438  0.4511  0.3324  1.9599
  207MOL0     H27293   0.265  10.737   2.575 -1.6336  1.1604 -0.7833
  207MOL0     H27294   0.184  10.565   2.469  1.4376 -1.5980 -2.7185
  207MOL0     H27295   0.262  10.594   2.315  0.1940 -3.0850  2.6465
  207MOL0     H27296   0.114  10.778   2.268 -0.0325 -1.7298 -1.6918
  207MOL0     H27297   0.017  10.635   2.301 -1.7659  1.5918  0.3221
  207MOL0     H27298  -0.071  10.837   2.390 -1.8857 -0.9614  0.4444
  207MOL0     H27299   0.057  10.855   2.502  0.9684 -0.0517 -0.1300
  207MOL0     H27300  -0.029  10.698   2.634  1.7730  1.6235 -1.4200
  207MOL0     H27301  -0.062  10.578   2.509  1.5950  0.8156 -1.4276
  207MOL0     H27302  -0.305  10.689   2.474 -1.9041 -2.5439  2.4808
  207MOL0     H27303  -0.264  10.645   2.633  0.1162 -1.9335 -1.6948
  207MOL0     H27304  -0.247  10.924   2.490 -2.2196 -0.3318 -0.8845
  207MOL0     H27305  -0.215  10.909   2.658  0.4240  0.6218  0.7574
  207MOL0     H27306   0.699  10.608   2.479 -1.6675  0.7987  1.1520
  207MOL0     H27307   0.924  10.579   2.555 -2.9722 -2.2214 -0.5949
  207MOL0     H27308   1.324  10.950   2.874  5.1488  1.0552  2.0640
  207MOL0     H27309   1.481  10.885   3.039 -0.8149  0.0959  0.3268
  207MOL0     H27310   1.788   9.722   3.472 -1.0642  0.4400  0.6531
  207MOL0     H27311   1.578   9.811   3.470 -0.1414  0.1264  1.6327
  207MOL0     H27312   1.316  10.155   3.275 -2.8764 -0.9581  1.8944
  207MOL0     H27313   1.136  10.296   3.219 -0.4223  0.0431  1.7433
  207MOL0     H27314   0.910  10.449   3.226 -0.1272 -0.0719  3.7244
  207MOL0     H27315   1.045  10.529   3.139 -2.9984  0.6432 -2.0224
  207MOL0     H27316   0.977  10.745   3.273 -0.5517  0.3741 -0.9820
  207MOL0     H27317   0.869  10.687   3.148  0.4055  0.1966 -0.0372
  207MOL0     H27318   0.825  10.594   3.434 -1.2477 -2.1987 -0.5438
  207MOL0     H27319   0.708  10.597   3.309 -0.5290  1.0893 -0.5554
  207MOL0     H27320   0.650  10.756   3.469 -1.2769 -0.2556 -1.3131
  207MOL0     H27321   0.800  10.843   3.434 -1.9062  0.8662  1.2210
  207MOL0     H27322   0.539  10.956   3.129 -0.1536  0.8577  0.3505
  207MOL0     H27323   1.223  10.563   3.535 -2.9673  1.8864 -2.8432
  207MOL0     H27324   1.426  10.417   3.600 -0.0917  1.0184  0.2667
  208MOL0     O27325   7.451   3.757  10.686 -0.4004 -0.5814 -0.6112
  208MOL0     C27326   7.391   3.853  10.739  0.0982  0.0802  1.0649
  208MOL0     O27327   7.276   3.843  10.822  0.3033 -0.5373  0.1976
  208MOL0     C27328   7.242   3.717  10.870  0.3027 -0.2641  0.7376
  208MOL0     C27329   7.332   3.617  10.918 -0.4820 -0.2379 -0.7162
  208MOL0     C27330   7.277   3.493  10.967 -0.5293 -0.8926  0.2308
  208MOL0     C27331   7.143   3.454  10.940 -0.2149 -0.2897 -0.0105
  208MOL0     O27332   7.117   3.322  10.981  0.5372  0.3770  0.1504
  208MOL0     C27333   6.999   3.247  10.945  1.0269 -0.3842 -0.4298
  208MOL0     C27334   6.975   3.108  11.021 -0.0830  0.1608  0.2630
  208MOL0     C27335   6.880   3.013  10.948 -0.0371 -0.5077  1.5449
  208MOL0     C27336   6.848   2.875  11.010 -0.6498  0.3423  0.5544
  208MOL0     C27337   6.797   2.883  11.154 -0.8575 -0.0408  0.2850
  208MOL0     C27338   6.655   2.935  11.161  0.8521  0.0940  0.0041
  208MOL0     C27339   6.636   2.987  11.303  0.1950 -0.0689  0.3803
  208MOL0     C27340   6.691   3.122  11.327  0.5098  0.4582 -0.0539
  208MOL0     N27341   6.625   3.225  11.243  0.6411 -0.1976 -0.9396
  208MOL0     C27342   6.504   3.279  11.276  0.2027  0.8450  0.6096
  208MOL0     C27343   6.483   3.371  11.177 -0.2098 -0.0154 -0.2867
  208MOL0     C27344   6.363   3.470  11.165 -0.1986 -0.0088 -0.5172
  208MOL0     C27345   6.282   3.433  11.043 -0.2006  0.6304 -0.9387
  208MOL0     C27346   6.133   3.453  11.077  0.4811 -0.1560 -0.2247
  208MOL0     C27347   6.096   3.598  11.096 -0.1716 -0.0311  0.7531
  208MOL0     O27348   5.954   3.623  11.061 -1.0587 -0.0457  0.3982
  208MOL0     C27349   5.845   3.597  11.141  0.5450  0.6830  0.1406
  208MOL0     C27350   5.851   3.521  11.263 -0.2163  0.2814 -0.4938
  208MOL0     C27351   5.744   3.488  11.347 -1.0098  0.8823  1.3255
  208MOL0     C27352   5.619   3.544  11.315 -0.1722  0.1653  0.3496
  208MOL0     C27353   5.505   3.540  11.406 -0.0349  0.1804 -1.0488
  208MOL0     O27354   5.498   3.426  11.483 -0.4026  0.1073  0.7384
  208MOL0     C27355   5.409   3.412  11.596 -0.2432 -0.5214  0.3644
  208MOL0     C27356   5.280   3.469  11.599 -0.1178 -0.0790  0.1527
  208MOL0     C27357   5.191   3.455  11.707  0.0129 -0.1539  0.6559
  208MOL0     C27358   5.229   3.369  11.817  0.2980  1.0782  0.1277
  208MOL0     O27359   5.159   3.334  11.927  0.0156  0.4072 -0.1940
  208MOL0     C27360   5.020   3.364  11.929  0.2709  0.0638 -0.7940
  208MOL0     C27361   4.965   3.316  12.066  0.3421 -0.1976  0.0175
  208MOL0     C27362   4.921   3.169  12.041 -0.3748  0.2539  0.3947
  208MOL0     C27363   4.848   3.080  12.154 -0.3205 -0.9457 -0.1999
  208MOL0     C27364   4.762   3.154  12.247  0.6808 -0.3646  0.0526
  208MOL0     C27365   4.722   3.082  12.367  0.4224 -0.3787  0.2716
  208MOL0     C27366   4.648   2.953  12.342 -0.1806  0.4118  0.3846
  208MOL0     C27367   4.609   2.891  12.473  0.5744  0.3767 -0.0639
  208MOL0    Cl27368   4.544   2.739  12.422 -0.7122  0.3731  0.0323
  208MOL0     C27369   5.358   3.303  11.796  0.3231  0.4412 -0.9625
  208MOL0     C27370   5.441   3.318  11.690  0.5206 -0.6524  0.6385
  208MOL0     O27371   5.415   3.627  11.400 -0.2000 -1.0462 -0.1682
  208MOL0     C27372   5.609   3.624  11.198 -0.3223  0.6535 -0.4840
  208MOL0     C27373   5.720   3.641  11.105 -0.2308 -0.4412  0.4172
  208MOL0     N27374   6.596   3.380  11.100 -0.0648 -0.7365 -0.9279
  208MOL0     N27375   6.681   3.285  11.136  0.0262 -1.2312 -0.4111
  208MOL0     C27376   7.062   3.550  10.880 -1.0377  0.2040 -0.2079
  208MOL0     C27377   7.108   3.672  10.843 -0.2677  0.0879 -0.5761
  208MOL0     C27378   7.447   3.992  10.710  0.4181  0.2737  0.5300
  208MOL0     C27379   7.360   4.107  10.705 -1.0764 -1.1594  0.6780
  208MOL0     C27380   7.400   4.224  10.642 -0.3321 -0.7233 -0.0281
  208MOL0     C27381   7.539   4.241  10.607 -0.2315  0.8790 -0.6217
  208MOL0     O27382   7.597   4.352  10.554 -0.1573 -0.3582 -0.5904
  208MOL0     C27383   7.569   4.469  10.620  0.8385 -0.4581 -0.5050
  208MOL0     C27384   7.668   4.581  10.568 -0.3482  0.2874 -0.3427
  208MOL0     C27385   7.814   4.539  10.570  0.8450 -0.1898  0.4303
  208MOL0     C27386   7.885   4.542  10.701  0.1301 -0.6897  0.8024
  208MOL0     C27387   8.028   4.526  10.695  0.5187  0.1809  0.0064
  208MOL0     C27388   8.148   4.509  10.703 -0.3442  0.2627 -0.3319
  208MOL0     C27389   7.629   4.140  10.644 -0.4907 -0.3464  0.0487
  208MOL0     C27390   7.588   4.008  10.675 -0.0677 -0.6244 -0.0933
  208MOL0     H27391   7.439   3.633  10.925 -0.5409 -0.6763  3.0607
  208MOL0     H27392   7.351   3.432  11.017 -1.0514 -1.2660  0.5555
  208MOL0     H27393   6.975   3.243  10.839 -1.6754  1.6291 -0.0138
  208MOL0     H27394   6.918   3.313  10.980  0.2928 -1.4333 -0.0882
  208MOL0     H27395   6.944   3.131  11.124 -0.6731 -0.5525  0.2463
  208MOL0     H27396   7.073   3.058  11.029 -1.0362 -2.0982 -1.2075
  208MOL0     H27397   6.910   3.002  10.844 -0.4300  0.1948  1.3577
  208MOL0     H27398   6.784   3.062  10.932 -0.7211 -2.4525 -0.8766
  208MOL0     H27399   6.778   2.810  10.956  2.5680 -3.4696  0.4950
  208MOL0     H27400   6.930   2.802  11.010 -0.8871 -0.0610 -2.4486
  208MOL0     H27401   6.873   2.930  11.217  1.0468 -1.4268 -0.8476
  208MOL0     H27402   6.791   2.784  11.199  0.4809  1.0475  3.0835
  208MOL0     H27403   6.583   2.853  11.158  1.4506 -0.4405 -0.0154
  208MOL0     H27404   6.641   3.005  11.079  1.0785  2.3175  1.7687
  208MOL0     H27405   6.530   2.973  11.327 -0.5209 -3.0226 -3.5689
  208MOL0     H27406   6.689   2.914  11.365  0.1979 -0.4545 -0.0703
  208MOL0     H27407   6.798   3.119  11.303  0.8994  1.6216  1.3918
  208MOL0     H27408   6.675   3.141  11.433 -1.2567  0.1303 -0.2347
  208MOL0     H27409   6.440   3.258  11.360  0.6479  0.9906  0.9889
  208MOL0     H27410   6.401   3.573  11.164  2.1977 -0.7966  1.1057
  208MOL0     H27411   6.301   3.469  11.255  0.7687  5.1427  0.5184
  208MOL0     H27412   6.288   3.329  11.011 -1.4582  0.8425 -1.9630
  208MOL0     H27413   6.321   3.483  10.954  2.0820  0.1100 -0.2750
  208MOL0     H27414   6.071   3.411  10.997  0.0493 -0.4583  0.2679
  208MOL0     H27415   6.107   3.392  11.164 -3.3129 -0.5193 -1.4549
  208MOL0     H27416   6.165   3.654  11.032 -2.2069 -0.3770 -1.9489
  208MOL0     H27417   6.116   3.626  11.199  2.7020  2.9975 -0.4656
  208MOL0     H27418   5.947   3.495  11.306  0.1737  1.8235 -0.3791
  208MOL0     H27419   5.740   3.428  11.438 -4.0130 -0.0943  0.6424
  208MOL0     H27420   5.240   3.519  11.511 -2.2809 -1.0574  0.4882
  208MOL0     H27421   5.092   3.498  11.717  0.3758  0.5481  1.3454
  208MOL0     H27422   4.966   3.324  11.842  0.7566  0.3538 -1.2388
  208MOL0     H27423   5.014   3.473  11.935  0.4415 -0.0244  1.5491
  208MOL0     H27424   4.873   3.373  12.082  0.5011 -0.4767  2.2281
  208MOL0     H27425   5.019   3.326  12.161  1.3363  1.1921 -0.6669
  208MOL0     H27426   5.008   3.112  12.007 -0.2734 -0.0943  1.2175
  208MOL0     H27427   4.846   3.173  11.962 -1.5500 -1.5518  1.3512
  208MOL0     H27428   4.790   3.009  12.094 -0.2250 -0.4395 -0.9061
  208MOL0     H27429   4.922   3.029  12.215  0.7550 -1.2244 -1.6828
  208MOL0     H27430   4.671   3.193  12.201  0.8585 -0.8376 -0.7243
  208MOL0     H27431   4.822   3.239  12.282  1.8470 -1.1009 -0.0781
  208MOL0     H27432   4.655   3.155  12.413 -0.6967  0.7081 -2.8429
  208MOL0     H27433   4.814   3.070  12.425 -0.5227  0.6055  2.0717
  208MOL0     H27434   4.557   2.971  12.284 -0.3353 -1.7921 -0.1264
  208MOL0     H27435   4.713   2.892  12.279  2.1649  1.8012  1.3085
  208MOL0     H27436   4.529   2.955  12.512  0.7061  1.7773 -1.9389
  208MOL0     H27437   4.693   2.888  12.544 -1.1024  1.0920  2.0567
  208MOL0     H27438   5.395   3.230  11.867 -1.2726 -0.6662 -1.2172
  208MOL0     H27439   5.533   3.260  11.687  1.9345  1.2869  2.7059
  208MOL0     H27440   5.520   3.682  11.174 -0.3428  0.3042 -1.2599
  208MOL0     H27441   5.698   3.698  11.016 -0.6126 -1.2559 -0.0237
  208MOL0     H27442   6.961   3.517  10.858 -2.3011  1.9454  2.4874
  208MOL0     H27443   7.036   3.736  10.792 -0.0153  0.6645 -0.2154
  208MOL0     H27444   7.259   4.086  10.737 -0.8094 -2.0755  0.9513
  208MOL0     H27445   7.327   4.303  10.631 -0.7383 -1.3504 -2.4730
  208MOL0     H27446   7.587   4.460  10.728 -1.5144 -2.0988 -0.1633
  208MOL0     H27447   7.468   4.510  10.621  0.5382 -1.1514  1.2339
  208MOL0     H27448   7.643   4.594  10.462 -0.1753  0.5214 -0.3549
  208MOL0     H27449   7.650   4.677  10.618  0.7176 -0.8220  2.3421
  208MOL0     H27450   7.861   4.609  10.500 -0.1695 -0.6946 -0.7926
  208MOL0     H27451   7.833   4.438  10.533 -0.2633 -0.2031 -0.1417
  208MOL0     H27452   7.859   4.639  10.744  0.9095 -0.4799  0.8016
  208MOL0     H27453   7.832   4.466  10.760 -0.7934 -0.6704  0.0302
  208MOL0     H27454   8.253   4.488  10.699 -0.0203  1.2000  1.8002
  208MOL0     H27455   7.734   4.163  10.628 -0.6043 -2.2726 -5.6490
  208MOL0     H27456   7.658   3.927  10.695 -1.7638 -1.7446  1.7013
  209MOL0     O27457   5.597   5.481   4.498  0.5186 -0.7207  0.3582
  209MOL0     C27458   5.699   5.419   4.459 -0.3911  0.3440  0.0452
  209MOL0     O27459   5.701   5.283   4.434 -0.4102  0.0782 -0.3964
  209MOL0     C27460   5.596   5.194   4.460 -0.4076 -0.4664 -1.0227
  209MOL0     C27461   5.564   5.185   4.593 -0.5564 -0.2856 -0.1637
  209MOL0     C27462   5.474   5.088   4.639  0.6759  0.2272 -0.0036
  209MOL0     C27463   5.398   5.008   4.546 -0.3367 -0.9426  0.0447
  209MOL0     O27464   5.305   4.920   4.608  0.0380  0.0089 -0.1587
  209MOL0     C27465   5.216   4.841   4.523 -0.2350 -0.3593  0.5985
  209MOL0     C27466   5.103   4.766   4.600 -0.3120  0.0448 -0.2306
  209MOL0     C27467   5.024   4.872   4.683 -0.9935 -0.3691 -0.6261
  209MOL0     C27468   4.901   4.814   4.736 -0.2248  0.5507  0.5410
  209MOL0     C27469   4.811   4.918   4.799  0.7048 -0.7541  0.5644
  209MOL0     C27470   4.699   4.848   4.873 -0.5987 -1.0175  0.0775
  209MOL0     C27471   4.621   4.934   4.984  0.1056  0.3215 -0.2598
  209MOL0     C27472   4.533   5.055   4.931 -0.4106  0.5361 -0.4369
  209MOL0     N27473   4.389   5.012   4.921  0.2521 -0.5377  0.4703
  209MOL0     C27474   4.296   5.043   5.019 -0.1283  1.5837 -0.5114
  209MOL0     C27475   4.193   4.959   4.994  0.2785 -0.2471  0.1466
  209MOL0     C27476   4.072   4.944   5.069 -0.2027 -0.0656 -0.1935
  209MOL0     C27477   4.051   4.803   5.134  0.2811  0.0384 -0.6206
  209MOL0     C27478   3.933   4.806   5.223 -0.5989 -0.2798 -0.4325
  209MOL0     C27479   3.917   4.677   5.301 -0.0019  0.3034  0.7838
  209MOL0     O27480   3.802   4.669   5.369  0.2105  0.4561  0.3804
  209MOL0     C27481   3.760   4.555   5.423 -0.1140  0.4182  0.7621
  209MOL0     C27482   3.704   4.556   5.546 -0.9811  0.2915 -0.0786
  209MOL0     C27483   3.659   4.441   5.602 -0.3764 -0.0750 -1.0023
  209MOL0     C27484   3.653   4.316   5.541 -0.0682 -1.1312  0.1755
  209MOL0     C27485   3.589   4.201   5.607  0.2159  0.9710 -0.0606
  209MOL0     O27486   3.494   4.223   5.699  0.0377  0.0006  0.4186
  209MOL0     C27487   3.416   4.126   5.754  0.2506 -0.3972  0.7821
  209MOL0     C27488   3.280   4.107   5.713  0.5865  0.2911  0.2684
  209MOL0     C27489   3.204   4.009   5.772 -1.0668 -0.2019 -1.0326
  209MOL0     C27490   3.258   3.923   5.870  0.2875  0.3081 -0.6592
  209MOL0     O27491   3.167   3.823   5.905 -0.6225 -0.4692 -0.7142
  209MOL0     C27492   3.201   3.711   5.989 -0.7179 -0.0986 -0.4238
  209MOL0     C27493   3.115   3.587   5.969  0.8865  0.4681  1.1205
  209MOL0     C27494   2.992   3.587   6.068  0.0215  0.1983  0.2686
  209MOL0     C27495   2.915   3.462   6.055 -0.0983  0.3895  0.1568
  209MOL0     C27496   2.771   3.479   6.121  0.2469 -0.1800  0.0215
  209MOL0     C27497   2.783   3.489   6.262 -0.2540  0.7908  0.7873
  209MOL0     C27498   2.646   3.486   6.325  0.2726 -0.2945 -0.1523
  209MOL0     C27499   2.658   3.483   6.476  0.3184  0.0195  0.1492
  209MOL0    Cl27500   2.725   3.332   6.523 -0.1221  0.0752  0.3470
  209MOL0     C27501   3.389   3.936   5.903 -0.1994 -0.1628  0.8510
  209MOL0     C27502   3.473   4.036   5.852  0.9291  0.0388  0.7262
  209MOL0     O27503   3.626   4.094   5.561 -0.0800  0.6413 -0.8413
  209MOL0     C27504   3.719   4.307   5.416 -0.7135  0.0340  0.1598
  209MOL0     C27505   3.778   4.428   5.362  0.2101  0.3530 -0.0925
  209MOL0     N27506   4.233   4.887   4.876  0.5969 -0.2851 -0.2516
  209MOL0     N27507   4.353   4.915   4.839  1.3081  0.4301  0.8917
  209MOL0     C27508   5.432   5.025   4.412  0.2657 -1.0544  0.2061
  209MOL0     C27509   5.524   5.123   4.369  0.1312  0.3582 -0.4697
  209MOL0     C27510   5.827   5.489   4.436  0.4242 -0.0650  0.5406
  209MOL0     C27511   5.942   5.427   4.374  0.0939  0.6740 -0.5094
  209MOL0     C27512   6.057   5.489   4.342  0.9030  0.5293 -0.9974
  209MOL0     C27513   6.076   5.627   4.356 -0.6307 -0.3792 -0.2904
  209MOL0     O27514   6.180   5.690   4.304 -0.5940 -0.1845 -0.4608
  209MOL0     C27515   6.178   5.830   4.275 -0.5655  0.3096  0.6001
  209MOL0     C27516   6.262   5.859   4.148  0.0896  0.0677  0.7986
  209MOL0     C27517   6.405   5.808   4.149 -0.6567  0.1748 -0.1042
  209MOL0     C27518   6.483   5.863   4.040 -1.0370  0.2569  0.9158
  209MOL0     C27519   6.457   5.804   3.911 -0.2928  0.0381  0.1091
  209MOL0     C27520   6.438   5.755   3.803 -0.7483 -0.3672  0.2853
  209MOL0     C27521   5.971   5.694   4.433  0.3590  0.3512 -0.3565
  209MOL0     C27522   5.845   5.627   4.464 -1.0652 -0.0696 -0.1624
  209MOL0     H27523   5.620   5.254   4.656  1.9614 -3.1751  1.0023
  209MOL0     H27524   5.443   5.082   4.743 -3.6121 -0.5717 -1.1354
  209MOL0     H27525   5.283   4.772   4.472  0.0320 -0.1397  0.6481
  209MOL0     H27526   5.181   4.909   4.444  0.2830 -1.4365 -0.5844
  209MOL0     H27527   5.143   4.687   4.665 -2.6844 -0.2442  0.9804
  209MOL0     H27528   5.039   4.711   4.530  0.5455  0.0033 -1.0026
  209MOL0     H27529   4.999   4.956   4.618  2.1642 -1.9900 -4.3473
  209MOL0     H27530   5.085   4.896   4.770  0.4593  1.7028 -2.1226
  209MOL0     H27531   4.844   4.754   4.665  0.4935 -1.5497  1.6625
  209MOL0     H27532   4.939   4.734   4.800 -0.2615 -2.3877 -2.7926
  209MOL0     H27533   4.774   4.982   4.719  2.1210 -1.5518 -0.8042
  209MOL0     H27534   4.873   4.980   4.864  0.0499  0.2337  0.2615
  209MOL0     H27535   4.751   4.768   4.925  2.6417 -1.1524 -2.9815
  209MOL0     H27536   4.630   4.801   4.803  0.5069 -0.6629 -1.3134
  209MOL0     H27537   4.562   4.863   5.044 -0.2574 -1.9588 -3.0905
  209MOL0     H27538   4.700   4.968   5.052  0.0197  0.9519 -0.4664
  209MOL0     H27539   4.561   5.086   4.830 -0.8078  3.0540  0.1631
  209MOL0     H27540   4.546   5.141   4.997  1.3633  0.3849 -0.5622
  209MOL0     H27541   4.318   5.100   5.108  1.7539 -2.2362  1.7478
  209MOL0     H27542   3.994   4.960   4.994  1.3225 -1.1110 -2.0905
  209MOL0     H27543   4.080   5.016   5.151  2.5858  0.4010 -0.7812
  209MOL0     H27544   4.132   4.769   5.199  0.1666  4.3854  2.2063
  209MOL0     H27545   4.031   4.719   5.066 -0.6592 -1.0195  0.9095
  209MOL0     H27546   3.939   4.887   5.296 -3.3708  0.0292 -0.4419
  209MOL0     H27547   3.847   4.813   5.155 -0.7281 -1.1467 -0.3738
  209MOL0     H27548   3.998   4.662   5.373 -1.8868  2.6675  3.6167
  209MOL0     H27549   3.918   4.600   5.223 -0.7412 -0.8743  1.9028
  209MOL0     H27550   3.698   4.647   5.604 -3.5643  0.6161 -0.7654
  209MOL0     H27551   3.629   4.448   5.706  1.7532  3.6488 -0.4778
  209MOL0     H27552   3.241   4.165   5.630  1.1273 -0.1008 -0.2642
  209MOL0     H27553   3.101   3.993   5.743 -2.3709 -2.7988  3.9784
  209MOL0     H27554   3.175   3.728   6.093 -4.3248 -0.4813 -1.1373
  209MOL0     H27555   3.306   3.679   5.984 -1.0224 -1.6668  1.7313
  209MOL0     H27556   3.174   3.496   5.971 -0.5696 -0.5704 -0.3347
  209MOL0     H27557   3.070   3.586   5.869  0.3194  0.7440  1.3669
  209MOL0     H27558   2.932   3.672   6.036 -0.3071  0.7123  2.1106
  209MOL0     H27559   3.031   3.596   6.170  3.0421 -1.5713 -0.5789
  209MOL0     H27560   2.892   3.429   5.953 -1.0221  2.1827 -0.2613
  209MOL0     H27561   2.981   3.389   6.102  0.2882  2.3635  2.9377
  209MOL0     H27562   2.709   3.396   6.087 -0.4576  0.3198  0.0665
  209MOL0     H27563   2.726   3.567   6.075  1.4339  1.0831  1.1971
  209MOL0     H27564   2.838   3.582   6.276 -1.5929  2.1788 -2.2546
  209MOL0     H27565   2.838   3.398   6.288 -1.2088 -1.1072 -3.0781
  209MOL0     H27566   2.593   3.573   6.284  1.0871 -0.9393 -2.7415
  209MOL0     H27567   2.596   3.398   6.285 -0.3708 -0.1818  0.3830
  209MOL0     H27568   2.556   3.495   6.515  0.3906  2.2769 -0.2026
  209MOL0     H27569   2.723   3.567   6.503  0.9198 -0.5112  0.3894
  209MOL0     H27570   3.425   3.858   5.970 -0.6237 -1.6328 -0.5595
  209MOL0     H27571   3.576   4.050   5.881  1.0629  1.0083 -0.1734
  209MOL0     H27572   3.726   4.213   5.361  3.1007  1.0222 -1.3630
  209MOL0     H27573   3.824   4.412   5.266  0.9610  2.3612 -0.1140
  209MOL0     H27574   5.387   4.977   4.326 -0.4277  0.2449 -0.1907
  209MOL0     H27575   5.535   5.151   4.265  3.9912  0.5767 -0.1478
  209MOL0     H27576   5.939   5.324   4.341 -0.0698  1.2769 -2.5144
  209MOL0     H27577   6.135   5.439   4.285  1.8785 -3.4991  3.2497
  209MOL0     H27578   6.210   5.887   4.363 -0.4888  1.3401 -0.0800
  209MOL0     H27579   6.079   5.873   4.261 -0.0661  1.9487  1.7829
  209MOL0     H27580   6.204   5.826   4.061 -1.5822 -1.1218  2.2840
  209MOL0     H27581   6.259   5.967   4.132  0.8509 -0.1597 -1.2498
  209MOL0     H27582   6.410   5.699   4.147  4.3384  0.1972 -0.3080
  209MOL0     H27583   6.445   5.841   4.246 -0.0298  1.0224 -0.6421
  209MOL0     H27584   6.464   5.971   4.047 -2.2565 -0.0163  4.8127
  209MOL0     H27585   6.591   5.848   4.050 -0.9461 -1.1621 -1.4691
  209MOL0     H27586   6.422   5.724   3.702  0.3935  2.5131 -0.8892
  209MOL0     H27587   5.979   5.798   4.460 -0.6778 -0.2819  2.7872
  209MOL0     H27588   5.759   5.686   4.493 -1.2376 -0.4598  0.1362
  210MOL0     O27589   7.395   9.652   2.265  0.0580  0.1251  0.4714
  210MOL0     C27590   7.365   9.757   2.316  0.4390  0.0039  0.6580
  210MOL0     O27591   7.386   9.788   2.443 -0.3931 -0.7590 -0.2501
  210MOL0     C27592   7.445   9.697   2.532  0.1938 -1.1287 -0.1038
  210MOL0     C27593   7.384   9.582   2.572  0.0407  0.3475  0.0316
  210MOL0     C27594   7.441   9.502   2.672  0.7097  0.7343  0.1183
  210MOL0     C27595   7.561   9.544   2.734 -0.8881  0.2701 -0.8318
  210MOL0     O27596   7.632   9.458   2.824  0.0052 -0.1409 -0.1787
  210MOL0     C27597   7.573   9.396   2.937 -0.2200  0.2563  0.1190
  210MOL0     C27598   7.629   9.256   2.956 -0.0812  0.4496 -0.1974
  210MOL0     C27599   7.528   9.164   3.015 -0.1004  0.1798 -0.6463
  210MOL0     C27600   7.596   9.027   3.034 -0.0643  0.7046  0.6989
  210MOL0     C27601   7.495   8.922   3.086  0.1794  0.5917  0.9180
  210MOL0     C27602   7.517   8.891   3.240 -0.1405 -0.1564  0.0791
  210MOL0     C27603   7.405   8.807   3.299  0.4152 -0.0675 -0.0321
  210MOL0     C27604   7.373   8.669   3.231  0.2971  1.3601  0.2336
  210MOL0     N27605   7.278   8.688   3.114  0.8253 -0.2812  0.6084
  210MOL0     C27606   7.159   8.772   3.108 -0.2794 -0.7724 -0.0685
  210MOL0     C27607   7.091   8.734   2.999 -1.3084  0.1434  0.7804
  210MOL0     C27608   6.964   8.795   2.947 -0.1510 -0.5730  0.3504
  210MOL0     C27609   6.903   8.754   2.811 -0.4556 -0.5308  0.4573
  210MOL0     C27610   6.787   8.848   2.770 -0.0553  0.9470  0.5868
  210MOL0     C27611   6.804   9.001   2.767 -0.0350 -1.0397  0.1956
  210MOL0     O27612   6.683   9.056   2.713 -0.3193  0.1396 -0.5743
  210MOL0     C27613   6.565   9.033   2.775 -0.5442  0.1076  0.2872
  210MOL0     C27614   6.545   9.036   2.917  0.5728 -0.2092 -0.0623
  210MOL0     C27615   6.413   9.030   2.971 -0.3743 -0.0548  0.3158
  210MOL0     C27616   6.302   9.001   2.884 -0.1439  0.8428 -0.4694
  210MOL0     C27617   6.165   8.989   2.951  0.2588 -0.4009  0.3995
  210MOL0     O27618   6.168   8.990   3.089  0.8658  0.1405  0.9676
  210MOL0     C27619   6.054   9.019   3.161  0.0819 -0.8249  0.2059
  210MOL0     C27620   5.957   8.915   3.179 -0.7482 -0.1189  0.3717
  210MOL0     C27621   5.846   8.950   3.253  0.3452  0.1266  0.0873
  210MOL0     C27622   5.824   9.077   3.300  0.1268 -0.2690 -0.0527
  210MOL0     O27623   5.706   9.122   3.360 -0.3305 -0.5781  0.0093
  210MOL0     C27624   5.709   9.145   3.504  1.1025  0.7903 -0.7620
  210MOL0     C27625   5.581   9.234   3.526 -1.0670  1.5611 -0.3319
  210MOL0     C27626   5.445   9.170   3.497  0.1017  0.3437 -0.4451
  210MOL0     C27627   5.418   9.048   3.580 -0.0955  0.4223  0.1234
  210MOL0     C27628   5.266   9.043   3.594 -0.1359  0.1049 -0.0608
  210MOL0     C27629   5.229   8.904   3.655 -0.3191 -0.6356  0.1871
  210MOL0     C27630   5.078   8.880   3.632  0.3676 -0.3692  0.0489
  210MOL0     C27631   5.025   8.759   3.708  0.2963 -0.8549  0.1459
  210MOL0    Cl27632   5.096   8.746   3.873  0.1729 -0.4802 -0.1076
  210MOL0     C27633   5.921   9.182   3.270 -0.3802  0.0543  0.4946
  210MOL0     C27634   6.038   9.150   3.215 -0.0350 -0.8464  0.4867
  210MOL0     O27635   6.058   8.986   2.879 -0.0378 -0.0202 -0.0912
  210MOL0     C27636   6.324   8.979   2.749 -0.1720  0.6173 -0.5020
  210MOL0     C27637   6.454   9.002   2.702  0.5494 -0.6656 -0.5617
  210MOL0     N27638   7.159   8.626   2.945  0.3392  0.4467 -0.3743
  210MOL0     N27639   7.268   8.597   3.008 -0.0126 -0.4092 -0.9430
  210MOL0     C27640   7.626   9.652   2.690 -0.1621 -1.2521  0.6623
  210MOL0     C27641   7.561   9.732   2.594  0.4594  0.0604 -0.4673
  210MOL0     C27642   7.327   9.872   2.221 -0.7821 -0.1006 -0.6996
  210MOL0     C27643   7.320   9.847   2.084  0.1482 -0.1315 -0.1567
  210MOL0     C27644   7.274   9.948   1.998  0.6118 -0.1491 -0.3386
  210MOL0     C27645   7.248  10.074   2.041 -0.6345  0.2068 -0.2681
  210MOL0     O27646   7.189  10.171   1.967 -0.4129  0.1798 -0.1209
  210MOL0     C27647   7.198  10.163   1.820  0.5445  0.2614 -0.2506
  210MOL0     C27648   7.167  10.304   1.775 -0.2006  0.0134 -0.0261
  210MOL0     C27649   7.192  10.322   1.626 -0.2854  0.8830 -0.1550
  210MOL0     C27650   7.216  10.471   1.605  0.1237 -0.3237 -0.2096
  210MOL0     C27651   7.254  10.504   1.460 -0.0768 -0.0282  0.3318
  210MOL0     C27652   7.265  10.534   1.343  0.1626 -0.6833  0.0462
  210MOL0     C27653   7.261  10.099   2.182 -0.3725 -0.2044 -0.2910
  210MOL0     C27654   7.314  10.001   2.272 -0.3858  0.1641 -0.2340
  210MOL0     H27655   7.288   9.558   2.526  0.4657 -1.0609 -0.1568
  210MOL0     H27656   7.395   9.411   2.708  3.3097 -1.9902 -2.7410
  210MOL0     H27657   7.464   9.398   2.926 -0.2814 -0.1932  0.6148
  210MOL0     H27658   7.590   9.457   3.026  0.4845  3.1416 -1.8233
  210MOL0     H27659   7.711   9.258   3.029 -2.4685  1.2379  2.6299
  210MOL0     H27660   7.664   9.222   2.858  5.1769  0.1170  1.4722
  210MOL0     H27661   7.454   9.146   2.936  2.1680  2.9270 -3.6852
  210MOL0     H27662   7.493   9.215   3.106  1.0873  2.5148 -1.4053
  210MOL0     H27663   7.626   8.993   2.935 -1.3541  2.6181 -0.4237
  210MOL0     H27664   7.684   9.029   3.098  0.3318 -0.7985  0.2335
  210MOL0     H27665   7.504   8.838   3.017 -0.4268  0.5534  0.8816
  210MOL0     H27666   7.398   8.968   3.062  0.0217  0.4202  1.2338
  210MOL0     H27667   7.528   8.983   3.298  0.3958  0.2428 -0.6439
  210MOL0     H27668   7.606   8.828   3.252  1.9498  2.5238 -0.2781
  210MOL0     H27669   7.434   8.774   3.399  0.3536  0.2288  0.0837
  210MOL0     H27670   7.322   8.875   3.321  3.1676  2.4068  4.0947
  210MOL0     H27671   7.322   8.606   3.305 -0.6858 -0.5953 -1.9656
  210MOL0     H27672   7.463   8.618   3.198  0.3333  0.0824  2.1580
  210MOL0     H27673   7.133   8.838   3.190 -1.4473 -1.6250  0.2789
  210MOL0     H27674   6.997   8.899   2.943  2.3034 -1.0459  3.5041
  210MOL0     H27675   6.888   8.781   3.024  0.1373  2.2927  1.2857
  210MOL0     H27676   6.879   8.647   2.811  0.4244 -0.7497  1.7462
  210MOL0     H27677   6.981   8.776   2.738  1.6096 -0.9026  2.3975
  210MOL0     H27678   6.762   8.818   2.668  0.5894  0.8224  0.4582
  210MOL0     H27679   6.697   8.832   2.830 -1.2289  1.6870 -0.8907
  210MOL0     H27680   6.891   9.025   2.707  1.9463  1.9123  3.8159
  210MOL0     H27681   6.825   9.039   2.868 -1.2917 -0.4683  0.2553
  210MOL0     H27682   6.623   9.071   2.984  0.0257  2.3068 -0.6341
  210MOL0     H27683   6.399   9.042   3.078  0.9210  0.7348  0.4192
  210MOL0     H27684   5.954   8.813   3.142 -0.4950  0.6405 -1.8830
  210MOL0     H27685   5.769   8.875   3.267 -0.9853  1.2286 -1.0065
  210MOL0     H27686   5.795   9.205   3.535  1.3864  1.1565 -2.1822
  210MOL0     H27687   5.701   9.048   3.554  0.2908  0.1505 -2.0901
  210MOL0     H27688   5.602   9.328   3.475 -2.8744  3.4353  2.1136
  210MOL0     H27689   5.581   9.261   3.632  0.3356 -0.1714  0.1582
  210MOL0     H27690   5.435   9.147   3.391  1.7252  0.4328 -0.6364
  210MOL0     H27691   5.377   9.254   3.516  0.1914  0.4827 -0.7422
  210MOL0     H27692   5.462   8.954   3.544 -0.7403 -0.1264  0.7259
  210MOL0     H27693   5.473   9.055   3.674  1.1073  1.0150 -0.6151
  210MOL0     H27694   5.220   9.053   3.495  2.2368 -0.5459 -1.3074
  210MOL0     H27695   5.220   9.115   3.663 -1.6210 -2.6670  2.0587
  210MOL0     H27696   5.259   8.918   3.759 -0.2070 -2.2138  0.3969
  210MOL0     H27697   5.300   8.828   3.622  0.7530  0.3225  0.2243
  210MOL0     H27698   5.019   8.968   3.661  2.8740  2.0599 -1.6402
  210MOL0     H27699   5.061   8.854   3.528 -1.3975  1.0095 -0.0473
  210MOL0     H27700   5.042   8.669   3.649  2.9175 -1.9034  2.3137
  210MOL0     H27701   4.916   8.767   3.713  0.3229  0.9376 -1.1531
  210MOL0     H27702   5.899   9.281   3.309  1.2021  1.0119 -0.9118
  210MOL0     H27703   6.124   9.212   3.190 -0.1697 -0.4481  1.0047
  210MOL0     H27704   6.244   8.943   2.684  1.2429  1.5651 -2.9206
  210MOL0     H27705   6.461   8.988   2.594 -2.4938 -1.5257 -0.7367
  210MOL0     H27706   7.725   9.687   2.717 -0.6280  2.1206 -1.3484
  210MOL0     H27707   7.602   9.826   2.561  0.5447  0.2616  0.2072
  210MOL0     H27708   7.350   9.746   2.056 -0.2197 -0.6662  1.2817
  210MOL0     H27709   7.268   9.930   1.891  0.6120 -1.5196 -0.1270
  210MOL0     H27710   7.118  10.097   1.784  0.8569  0.5764 -1.5957
  210MOL0     H27711   7.296  10.131   1.786  0.9434  1.5943 -0.4223
  210MOL0     H27712   7.064  10.335   1.795  0.3730  1.7449  0.3691
  210MOL0     H27713   7.237  10.367   1.831 -1.4339  2.8003 -1.4126
  210MOL0     H27714   7.112  10.285   1.561  0.6159 -2.9050  0.6461
  210MOL0     H27715   7.286  10.270   1.604 -0.7486 -0.1770  0.3108
  210MOL0     H27716   7.124  10.525   1.630  2.0456  5.1812 -3.3251
  210MOL0     H27717   7.293  10.514   1.670  0.8410 -0.7794 -0.7464
  210MOL0     H27718   7.264  10.548   1.236  0.9768  1.4659  0.2819
  210MOL0     H27719   7.246  10.202   2.213  0.6969 -0.5317  1.4530
  210MOL0     H27720   7.328  10.026   2.376  1.0953 -0.3944 -0.2781
  211MOL0     O27721   8.608   0.203   8.966  1.1710  0.0436  0.5736
  211MOL0     C27722   8.671   0.135   8.875  0.6496 -0.0101 -0.5556
  211MOL0     O27723   8.616   0.036   8.799  0.4818 -0.5853 -0.3920
  211MOL0     C27724   8.480   0.023   8.795 -0.0704 -1.0204 -0.5295
  211MOL0     C27725   8.389   0.014   8.907  0.5993  1.3176 -0.5660
  211MOL0     C27726   8.248   0.018   8.881  0.1040  0.0169  0.5937
  211MOL0     C27727   8.197   0.031   8.749 -0.3429  0.4346 -0.1915
  211MOL0     O27728   8.060   0.040   8.715 -0.3965 -0.3148  0.0572
  211MOL0     C27729   7.957   0.010   8.801  0.6524  0.2353  0.4545
  211MOL0     C27730   7.927  -0.146   8.794  0.1727 -0.5146 -1.0872
  211MOL0     C27731   7.850  -0.208   8.912 -0.2418 -0.0978 -0.8955
  211MOL0     C27732   7.710  -0.153   8.915 -0.4450 -0.0234  0.0661
  211MOL0     C27733   7.636  -0.230   9.024  0.0552 -0.0899  0.1167
  211MOL0     C27734   7.490  -0.201   9.029 -0.3480  0.8256  0.2391
  211MOL0     C27735   7.431  -0.285   9.147  0.2078  0.1226  0.7926
  211MOL0     C27736   7.300  -0.215   9.178 -0.0644  0.9165  0.9908
  211MOL0     N27737   7.205  -0.206   9.063  0.3707 -0.0915 -0.6690
  211MOL0     C27738   7.169  -0.093   8.992  0.1715 -0.2991  0.9223
  211MOL0     C27739   7.062  -0.132   8.917  0.3833 -0.8289 -0.0080
  211MOL0     C27740   6.993  -0.039   8.809  0.3269  0.4039 -0.3916
  211MOL0     C27741   6.844   0.005   8.843 -1.6209  0.0156 -0.0560
  211MOL0     C27742   6.793   0.108   8.735  0.2047 -0.9004  1.3351
  211MOL0     C27743   6.740   0.026   8.608 -0.7239  0.0511  0.3275
  211MOL0     O27744   6.747   0.124   8.499 -0.3021  0.3496  0.0783
  211MOL0     C27745   6.861   0.146   8.424 -0.4128 -0.6609 -0.3629
  211MOL0     C27746   6.843   0.221   8.301  0.2584  0.4481 -0.0054
  211MOL0     C27747   6.950   0.253   8.220 -0.5830  0.4440  0.0935
  211MOL0     C27748   7.083   0.220   8.259 -0.1291 -0.1760 -0.6738
  211MOL0     C27749   7.193   0.254   8.173  0.2473  0.2997 -0.3502
  211MOL0     O27750   7.164   0.297   8.049  1.1754  0.9734 -0.4134
  211MOL0     C27751   7.245   0.341   7.953 -0.7848 -0.1807  1.3194
  211MOL0     C27752   7.187   0.423   7.850  0.0896  0.5853 -0.4979
  211MOL0     C27753   7.258   0.472   7.741  0.0746 -0.1818  0.6490
  211MOL0     C27754   7.383   0.427   7.720 -0.7513  0.6918  0.7588
  211MOL0     O27755   7.450   0.468   7.604 -0.4255  0.7910  0.5344
  211MOL0     C27756   7.510   0.599   7.598  0.3288  0.1604 -0.6392
  211MOL0     C27757   7.638   0.584   7.532  0.4998  0.9814  1.4030
  211MOL0     C27758   7.645   0.620   7.380  0.8561 -0.2733 -0.2392
  211MOL0     C27759   7.780   0.647   7.318 -0.7552  0.1850  0.2573
  211MOL0     C27760   7.770   0.676   7.167 -0.2770 -0.5195  0.2559
  211MOL0     C27761   7.914   0.717   7.121 -0.1879 -0.3669  0.3533
  211MOL0     C27762   7.911   0.757   6.970 -0.4573  0.4759  0.0119
  211MOL0     C27763   8.045   0.803   6.910 -1.0084 -0.0373  0.5156
  211MOL0    Cl27764   8.021   0.820   6.742 -0.4643 -0.2011  0.4448
  211MOL0     C27765   7.445   0.350   7.815  0.0250  0.4624 -0.3879
  211MOL0     C27766   7.380   0.312   7.937  0.1185  0.0412 -0.0049
  211MOL0     O27767   7.307   0.256   8.216 -0.5585  1.1428 -0.3301
  211MOL0     C27768   7.098   0.139   8.371 -0.3087 -0.3718  0.1417
  211MOL0     C27769   6.993   0.105   8.447  0.0700 -0.1781 -1.2743
  211MOL0     N27770   7.035  -0.263   8.949  0.1218 -0.7032 -0.3072
  211MOL0     N27771   7.120  -0.302   9.043 -0.2978  0.2902  0.2002
  211MOL0     C27772   8.288   0.030   8.646 -0.1571 -0.1104  0.7926
  211MOL0     C27773   8.427   0.034   8.666 -0.1831 -0.9285 -0.0308
  211MOL0     C27774   8.810   0.154   8.854  0.3047 -0.3382  0.5867
  211MOL0     C27775   8.889   0.061   8.777  0.6679  0.0105  1.0558
  211MOL0     C27776   9.024   0.069   8.759  0.2710  0.4328 -0.4647
  211MOL0     C27777   9.089   0.182   8.810  0.5377  0.0310  0.1876
  211MOL0     O27778   9.223   0.182   8.793  0.5112 -0.5451 -0.2134
  211MOL0     C27779   9.299   0.281   8.857  0.5608 -0.4154  0.3805
  211MOL0     C27780   9.449   0.269   8.863  0.6918  0.2402 -0.2478
  211MOL0     C27781   9.499   0.185   8.748  0.2686 -0.3714 -0.2494
  211MOL0     C27782   9.650   0.224   8.714  0.7301  0.2231  0.9652
  211MOL0     C27783   9.746   0.172   8.818  0.0608 -0.4946 -0.9201
  211MOL0     C27784   9.821   0.103   8.886  0.1879 -0.6623 -0.3849
  211MOL0     C27785   9.016   0.280   8.872  0.4262 -0.3644 -0.3784
  211MOL0     C27786   8.881   0.272   8.886  0.2647  0.6858  0.2544
  211MOL0     H27787   8.425   0.019   9.009 -2.8569  0.1858  0.8505
  211MOL0     H27788   8.178   0.011   8.963  0.0648 -2.9000  0.4143
  211MOL0     H27789   7.861   0.050   8.768  0.7746  0.5633  0.4877
  211MOL0     H27790   7.968   0.042   8.905 -1.2166 -1.7969  1.3421
  211MOL0     H27791   8.018  -0.207   8.800  1.0824  0.8073 -0.9217
  211MOL0     H27792   7.872  -0.160   8.701 -0.7062 -2.8908 -0.2876
  211MOL0     H27793   7.895  -0.177   9.007 -0.1103  0.7222 -1.2174
  211MOL0     H27794   7.850  -0.318   8.909 -2.9885 -0.3887  2.5764
  211MOL0     H27795   7.702  -0.046   8.936 -0.4436 -0.1819  0.8902
  211MOL0     H27796   7.659  -0.169   8.819 -0.0887  0.9570 -0.3045
  211MOL0     H27797   7.683  -0.206   9.119 -1.7229 -1.4435  1.3952
  211MOL0     H27798   7.661  -0.336   9.014  2.4958  0.4528 -0.0388
  211MOL0     H27799   7.445  -0.232   8.934  1.5154 -1.5385  0.0270
  211MOL0     H27800   7.485  -0.093   9.046  0.9919  1.2533 -1.6920
  211MOL0     H27801   7.402  -0.389   9.126 -1.8523  0.9245 -0.6192
  211MOL0     H27802   7.493  -0.278   9.237 -0.8105  1.0741  1.4342
  211MOL0     H27803   7.308  -0.113   9.217 -1.0962  0.7663  1.6196
  211MOL0     H27804   7.259  -0.277   9.258  2.2864  0.4660  1.9299
  211MOL0     H27805   7.210   0.007   8.986 -2.3052  0.7440  0.3735
  211MOL0     H27806   6.997  -0.085   8.709 -1.0157  1.6233 -1.0475
  211MOL0     H27807   7.051   0.054   8.808 -2.3478  2.2095 -2.2225
  211MOL0     H27808   6.840   0.048   8.943  0.7943 -0.3413  0.2304
  211MOL0     H27809   6.778  -0.083   8.842 -1.3306 -0.2097  0.5089
  211MOL0     H27810   6.716   0.172   8.778 -0.9710 -0.0261 -1.8047
  211MOL0     H27811   6.869   0.184   8.712 -0.6433 -0.1196  1.0726
  211MOL0     H27812   6.635   0.004   8.627 -1.3082  1.5261 -0.9789
  211MOL0     H27813   6.796  -0.065   8.587 -0.7296  0.6765 -2.8596
  211MOL0     H27814   6.751   0.249   8.251 -0.6192 -1.4969  0.4322
  211MOL0     H27815   6.927   0.299   8.124 -1.2595  1.2953  0.6611
  211MOL0     H27816   7.093   0.472   7.872  1.2981  2.1532  1.6203
  211MOL0     H27817   7.223   0.542   7.666  1.7105 -1.9616 -1.9820
  211MOL0     H27818   7.512   0.637   7.700 -2.3210 -1.3324  0.0783
  211MOL0     H27819   7.444   0.668   7.544  0.4351  2.2725  1.7726
  211MOL0     H27820   7.686   0.488   7.550 -1.2284  0.0735  1.3560
  211MOL0     H27821   7.702   0.657   7.583  3.7891  0.1891 -1.2377
  211MOL0     H27822   7.578   0.704   7.363 -0.3035 -0.9826  0.6762
  211MOL0     H27823   7.595   0.539   7.325  0.2410 -0.3830  0.4708
  211MOL0     H27824   7.824   0.734   7.367  2.7980 -2.0323  1.4012
  211MOL0     H27825   7.847   0.561   7.333 -2.4490 -1.0362  1.0855
  211MOL0     H27826   7.703   0.757   7.137 -0.1325 -0.0172  1.2382
  211MOL0     H27827   7.735   0.584   7.120 -0.2106 -0.3169 -0.1881
  211MOL0     H27828   7.990   0.641   7.144  1.8755  1.5836  0.3000
  211MOL0     H27829   7.958   0.808   7.163  1.2786 -0.6803 -0.4014
  211MOL0     H27830   7.882   0.677   6.901 -0.2356  3.5274 -3.9584
  211MOL0     H27831   7.833   0.832   6.964  0.3418  1.2046 -2.0249
  211MOL0     H27832   8.130   0.736   6.931 -1.1840 -1.0816 -1.8327
  211MOL0     H27833   8.068   0.903   6.946  1.0030  0.7890 -2.6605
  211MOL0     H27834   7.545   0.310   7.804  0.0388 -0.5023  2.3930
  211MOL0     H27835   7.418   0.240   8.009 -1.5678 -0.2790  0.6225
  211MOL0     H27836   7.194   0.112   8.415 -0.1342  3.8117  2.8838
  211MOL0     H27837   7.010   0.042   8.534 -4.9257  0.8398  0.7680
  211MOL0     H27838   8.250   0.041   8.545  0.1206  0.7857  0.7775
  211MOL0     H27839   8.505   0.054   8.593 -0.4170  0.1518  0.0036
  211MOL0     H27840   8.842  -0.030   8.741  1.4999  0.1160 -0.4253
  211MOL0     H27841   9.082  -0.009   8.711  2.1947  1.6000 -0.1505
  211MOL0     H27842   9.254   0.293   8.955  1.9882  1.0158  0.9099
  211MOL0     H27843   9.281   0.378   8.811  2.0799  0.1922  1.0185
  211MOL0     H27844   9.499   0.366   8.867 -1.8612  1.6342 -0.1591
  211MOL0     H27845   9.471   0.210   8.953 -1.3185 -0.2233 -0.0143
  211MOL0     H27846   9.434   0.203   8.662  2.1987  1.2644 -1.4573
  211MOL0     H27847   9.505   0.082   8.784  2.1782  0.1265  1.0137
  211MOL0     H27848   9.670   0.169   8.622  3.6062 -2.5368  2.9840
  211MOL0     H27849   9.664   0.331   8.698 -1.5819  0.7078  1.8503
  211MOL0     H27850   9.889   0.046   8.945  0.4531 -2.4133 -2.2410
  211MOL0     H27851   9.060   0.369   8.916 -0.6715 -1.1515  2.5209
  211MOL0     H27852   8.827   0.345   8.946 -1.5241  0.9289 -1.5356
  212MOL0     O27853   5.524   5.535   2.556 -0.6677  0.0968  0.0065
  212MOL0     C27854   5.453   5.436   2.524 -0.6665  0.8390 -0.5668
  212MOL0     O27855   5.493   5.312   2.499  0.1526  0.6250 -0.0126
  212MOL0     C27856   5.621   5.276   2.533 -0.3285  0.0504 -1.1239
  212MOL0     C27857   5.671   5.277   2.664  0.2865 -0.4421 -0.5206
  212MOL0     C27858   5.801   5.226   2.700  0.7509 -0.3774  0.7072
  212MOL0     C27859   5.883   5.173   2.593  0.1803 -0.6810  0.5626
  212MOL0     O27860   6.007   5.115   2.613  0.6198 -0.4003  0.0103
  212MOL0     C27861   6.066   5.153   2.737  0.2729  0.0955 -0.2035
  212MOL0     C27862   6.221   5.103   2.738 -0.1304  0.1578  1.2034
  212MOL0     C27863   6.300   5.146   2.607  0.0993 -0.4670 -0.5558
  212MOL0     C27864   6.459   5.128   2.617 -1.0080 -0.3760 -0.1480
  212MOL0     C27865   6.539   5.249   2.547  0.2041  1.2381 -0.3165
  212MOL0     C27866   6.686   5.212   2.525 -0.1417 -0.3097 -0.0099
  212MOL0     C27867   6.780   5.331   2.529  0.0218 -0.2836 -0.7576
  212MOL0     C27868   6.925   5.315   2.517  0.2230 -0.0202 -0.0174
  212MOL0     N27869   6.986   5.254   2.632  0.5653  0.1706  0.7984
  212MOL0     C27870   7.123   5.248   2.639 -0.0088  0.1547 -0.8933
  212MOL0     C27871   7.143   5.155   2.739 -0.8479 -0.2638  0.0215
  212MOL0     C27872   7.269   5.098   2.791 -0.4393 -0.4209 -0.2284
  212MOL0     C27873   7.323   4.989   2.701 -0.0572  0.2425  0.3422
  212MOL0     C27874   7.467   4.952   2.729 -0.7365 -0.1656  0.5260
  212MOL0     C27875   7.476   4.866   2.857 -0.2411 -0.5526 -0.0686
  212MOL0     O27876   7.609   4.874   2.904 -0.4825 -0.1356 -0.6027
  212MOL0     C27877   7.680   4.754   2.926  0.1583  0.0633 -0.2725
  212MOL0     C27878   7.756   4.691   2.834  0.6642  0.0538  0.0788
  212MOL0     C27879   7.840   4.583   2.870 -0.2605 -1.0838  0.6528
  212MOL0     C27880   7.868   4.553   3.007 -0.4389 -0.2813 -0.4196
  212MOL0     C27881   7.976   4.463   3.046  0.3952 -0.1314 -0.3776
  212MOL0     O27882   7.991   4.459   3.179 -0.3037  0.0857 -0.6385
  212MOL0     C27883   8.112   4.393   3.214  0.6437 -0.0837 -0.5340
  212MOL0     C27884   8.144   4.261   3.181  0.1173 -0.8085  0.4221
  212MOL0     C27885   8.248   4.196   3.240  0.3857 -0.5983  1.0624
  212MOL0     C27886   8.342   4.269   3.323  0.9078  0.7511 -0.2432
  212MOL0     O27887   8.448   4.197   3.360  0.1655  0.4294  1.2304
  212MOL0     C27888   8.533   4.254   3.463 -0.1373 -0.7034 -0.6749
  212MOL0     C27889   8.622   4.161   3.543  0.1959 -0.3946  0.4875
  212MOL0     C27890   8.723   4.081   3.464 -0.5859 -0.0163 -0.2505
  212MOL0     C27891   8.795   3.971   3.546  0.5127  0.6041  0.2622
  212MOL0     C27892   8.894   4.010   3.658  1.1080  0.0095  0.5228
  212MOL0     C27893   8.948   3.895   3.737  0.1065  0.3101  0.4416
  212MOL0     C27894   9.026   3.951   3.852 -0.1479 -0.5627  0.0383
  212MOL0     C27895   9.095   3.841   3.940 -1.0901 -0.0829  0.4175
  212MOL0    Cl27896   9.124   3.917   4.109 -0.2055  0.5086  0.0650
  212MOL0     C27897   8.305   4.404   3.362  0.8127  0.9661  0.7013
  212MOL0     C27898   8.186   4.461   3.311  0.2986 -0.3465 -0.2190
  212MOL0     O27899   8.052   4.411   2.967  0.0074 -0.2247 -0.0236
  212MOL0     C27900   7.791   4.633   3.098  0.4875  0.0696  0.1195
  212MOL0     C27901   7.699   4.722   3.058 -0.4514 -1.1839 -0.4114
  212MOL0     N27902   7.019   5.128   2.797  0.8736 -0.3565  0.8366
  212MOL0     N27903   6.931   5.202   2.742  0.8412 -0.1965  0.0140
  212MOL0     C27904   5.837   5.192   2.462 -0.0716 -0.0319  0.4937
  212MOL0     C27905   5.707   5.228   2.437  0.5289 -0.6640  0.6943
  212MOL0     C27906   5.306   5.460   2.517  0.2624 -0.0812  0.2816
  212MOL0     C27907   5.206   5.377   2.452 -0.2600 -0.0431  0.3574
  212MOL0     C27908   5.073   5.406   2.453  0.6146  0.1643 -0.4854
  212MOL0     C27909   5.026   5.525   2.513  0.3247 -0.0102  0.2139
  212MOL0     O27910   4.887   5.545   2.508 -0.4855 -0.3350  0.0797
  212MOL0     C27911   4.826   5.596   2.635 -0.5913 -0.3173  0.3223
  212MOL0     C27912   4.818   5.751   2.644  0.2699 -0.2860 -1.0703
  212MOL0     C27913   4.801   5.817   2.779 -0.6275  0.1215  0.3955
  212MOL0     C27914   4.807   5.970   2.760 -0.7209  0.0931  0.4784
  212MOL0     C27915   4.757   6.034   2.884 -0.4600  1.4609 -0.6537
  212MOL0     C27916   4.715   6.092   2.977 -0.1557  0.7243 -1.1573
  212MOL0     C27917   5.121   5.616   2.580 -0.4930  1.2726  0.0834
  212MOL0     C27918   5.257   5.577   2.584 -0.2917  0.3757 -0.3988
  212MOL0     H27919   5.596   5.298   2.740 -1.0470  0.4960 -2.0494
  212MOL0     H27920   5.809   5.218   2.808 -0.9620 -3.0659  0.7506
  212MOL0     H27921   6.018   5.123   2.830 -1.5469  5.0034  0.6914
  212MOL0     H27922   6.062   5.261   2.753  0.6234  0.2955 -1.3688
  212MOL0     H27923   6.223   4.994   2.746  1.6874 -0.0105 -0.7475
  212MOL0     H27924   6.268   5.152   2.824  1.3722  1.8931 -0.5124
  212MOL0     H27925   6.278   5.249   2.578 -0.3900 -0.9053 -1.7922
  212MOL0     H27926   6.272   5.091   2.517 -0.8657  1.4933 -1.5072
  212MOL0     H27927   6.500   5.117   2.717  1.6934  2.4600 -0.7992
  212MOL0     H27928   6.484   5.031   2.571  4.6813 -0.1551  1.7870
  212MOL0     H27929   6.535   5.334   2.616 -0.3334  1.1793 -0.2662
  212MOL0     H27930   6.490   5.277   2.453 -2.7459 -1.1276  0.3369
  212MOL0     H27931   6.704   5.157   2.432  0.0535  1.2757 -0.9404
  212MOL0     H27932   6.724   5.145   2.603 -1.1280  0.9042  1.5770
  212MOL0     H27933   6.750   5.401   2.450 -1.1980  0.8817  0.6698
  212MOL0     H27934   6.764   5.376   2.628 -0.9793 -0.0440 -1.0137
  212MOL0     H27935   6.982   5.403   2.485 -0.7597  0.7284  0.2510
  212MOL0     H27936   6.943   5.243   2.436 -0.5310 -1.2565  0.8623
  212MOL0     H27937   7.188   5.288   2.562  1.2490  0.3850  0.2573
  212MOL0     H27938   7.268   5.061   2.893  0.5918 -0.7399 -0.3266
  212MOL0     H27939   7.337   5.183   2.775  0.7200 -1.4377 -0.8769
  212MOL0     H27940   7.299   5.020   2.598 -1.0459  0.8679  0.7479
  212MOL0     H27941   7.257   4.903   2.709 -1.0319  1.0993  2.0479
  212MOL0     H27942   7.514   4.887   2.655  0.1882 -2.5211  3.0107
  212MOL0     H27943   7.530   5.040   2.747 -0.8139 -0.0667  0.3182
  212MOL0     H27944   7.444   4.763   2.838  0.2194 -1.8562  4.7444
  212MOL0     H27945   7.412   4.903   2.938 -1.1267  2.5014 -1.9932
  212MOL0     H27946   7.728   4.710   2.732 -2.5198 -1.0094  0.6444
  212MOL0     H27947   7.885   4.519   2.795  1.1429 -1.1983  1.5563
  212MOL0     H27948   8.089   4.212   3.101 -1.4560 -0.1247  1.0519
  212MOL0     H27949   8.285   4.095   3.225  2.6959  0.0383  1.9668
  212MOL0     H27950   8.474   4.298   3.544  0.2835  0.2054 -0.8477
  212MOL0     H27951   8.599   4.326   3.413  0.5974 -1.5338 -0.9197
  212MOL0     H27952   8.553   4.096   3.598 -2.4818  2.1542  0.3757
  212MOL0     H27953   8.691   4.223   3.600  4.0464  0.0565 -4.0262
  212MOL0     H27954   8.803   4.143   3.423  0.8734 -2.7801 -1.9206
  212MOL0     H27955   8.670   4.027   3.385 -2.0832 -1.2990  1.5337
  212MOL0     H27956   8.719   3.908   3.593  1.9630 -1.0278  0.5498
  212MOL0     H27957   8.846   3.904   3.475  1.1684  1.5057 -0.1356
  212MOL0     H27958   8.847   4.063   3.741  0.7939 -1.6207  1.4226
  212MOL0     H27959   8.968   4.083   3.621  1.0847  1.5030  3.1943
  212MOL0     H27960   9.015   3.848   3.665 -1.7303  2.8054 -3.2370
  212MOL0     H27961   8.874   3.827   3.779 -1.9942  1.8911 -0.5383
  212MOL0     H27962   9.106   4.021   3.826  1.1176 -2.5529 -1.7903
  212MOL0     H27963   8.946   4.008   3.899 -0.1053  2.0475 -2.7718
  212MOL0     H27964   9.197   3.821   3.906 -0.0199  5.5461 -0.7189
  212MOL0     H27965   9.042   3.746   3.941 -0.6425 -0.3453  1.5366
  212MOL0     H27966   8.371   4.461   3.426 -0.3503  0.9224  1.9846
  212MOL0     H27967   8.156   4.562   3.337  0.4538 -0.6663  1.2648
  212MOL0     H27968   7.808   4.616   3.204 -1.8193 -1.7342  0.2648
  212MOL0     H27969   7.648   4.771   3.140  0.3456 -0.8036 -0.1342
  212MOL0     H27970   5.908   5.153   2.390  1.2284  0.6138  1.3933
  212MOL0     H27971   5.676   5.218   2.333  1.7474  0.2096  0.2315
  212MOL0     H27972   5.247   5.293   2.397  1.1617 -1.0710  2.8459
  212MOL0     H27973   4.994   5.351   2.403  1.3476 -0.7063 -0.7148
  212MOL0     H27974   4.899   5.562   2.709  0.2978 -2.2385 -1.3410
  212MOL0     H27975   4.729   5.547   2.649  0.0253 -1.9917 -0.9839
  212MOL0     H27976   4.912   5.794   2.609  0.7454  0.1355  0.6801
  212MOL0     H27977   4.737   5.791   2.582 -1.7959  1.6501  2.5785
  212MOL0     H27978   4.865   5.776   2.857  0.5602  3.3216  1.2532
  212MOL0     H27979   4.701   5.787   2.813  0.5804 -0.3559  3.8471
  212MOL0     H27980   4.910   6.002   2.747 -0.3236 -1.8264 -1.8779
  212MOL0     H27981   4.752   6.003   2.671  0.9772 -1.5610 -1.2875
  212MOL0     H27982   4.679   6.131   3.070  2.1887 -0.1388  0.2056
  212MOL0     H27983   5.095   5.715   2.617  0.3908  1.5982 -0.1387
  212MOL0     H27984   5.323   5.642   2.640  0.0900  0.4901 -0.9797
  213MOL0     O27985   0.997   8.813   4.965  0.2807  0.5511 -0.2571
  213MOL0     C27986   0.987   8.892   4.875  0.0253 -0.1723  0.2580
  213MOL0     O27987   1.090   8.926   4.786  0.2655 -0.2262 -0.1050
  213MOL0     C27988   1.202   8.846   4.794 -0.0403  0.2056 -0.3541
  213MOL0     C27989   1.318   8.873   4.883  0.5528  0.1834 -0.1405
  213MOL0     C27990   1.426   8.780   4.876 -0.3414  0.3183 -0.2082
  213MOL0     C27991   1.420   8.673   4.796 -1.0359  0.3944 -0.5810
  213MOL0     O27992   1.524   8.587   4.809  0.3347 -0.1797 -0.5127
  213MOL0     C27993   1.493   8.449   4.809  0.5477  0.3030 -0.5991
  213MOL0     C27994   1.622   8.371   4.859 -0.9034  0.5246 -0.7394
  213MOL0     C27995   1.655   8.397   5.014  0.2055 -0.5417  0.2631
  213MOL0     C27996   1.762   8.312   5.059 -0.1084  0.4160  1.1634
  213MOL0     C27997   1.795   8.331   5.217 -0.2031  0.3714  0.3359
  213MOL0     C27998   1.902   8.242   5.266  0.3821  0.3472  0.6502
  213MOL0     C27999   1.947   8.270   5.409 -0.7394 -0.2959  0.6809
  213MOL0     C28000   2.073   8.199   5.445  0.4612 -0.7622 -0.3025
  213MOL0     N28001   2.130   8.249   5.575  0.4196  1.1306  0.2433
  213MOL0     C28002   2.133   8.374   5.617 -0.2326 -0.6868  0.3695
  213MOL0     C28003   2.196   8.375   5.728 -0.2481  0.8433  1.0219
  213MOL0     C28004   2.223   8.497   5.805 -0.7797  0.0842 -0.3179
  213MOL0     C28005   2.381   8.517   5.803  0.8497 -0.1424 -0.3667
  213MOL0     C28006   2.428   8.640   5.893 -0.7740 -0.2399  0.8936
  213MOL0     C28007   2.575   8.685   5.852 -0.1934 -0.0991  0.7885
  213MOL0     O28008   2.589   8.718   5.715 -0.2212 -0.3141  1.0228
  213MOL0     C28009   2.714   8.733   5.663 -0.3722 -0.1381  0.9689
  213MOL0     C28010   2.832   8.732   5.733  0.0258 -0.5157 -0.1616
  213MOL0     C28011   2.954   8.732   5.662  0.6072 -0.1108 -0.4740
  213MOL0     C28012   2.960   8.731   5.522  1.2701  0.2717 -0.9437
  213MOL0     C28013   3.082   8.719   5.446 -0.1123  0.0882  0.4147
  213MOL0     O28014   3.078   8.750   5.307  0.3282  0.3031  0.0955
  213MOL0     C28015   3.196   8.793   5.259 -0.1866  0.3920 -0.4411
  213MOL0     C28016   3.278   8.696   5.189 -0.7917  0.0308 -0.7808
  213MOL0     C28017   3.398   8.732   5.142 -0.9344  0.2399 -0.2531
  213MOL0     C28018   3.443   8.864   5.141  0.8384  0.1390  0.4477
  213MOL0     O28019   3.567   8.906   5.091  0.6257  0.4553  0.6121
  213MOL0     C28020   3.627   8.819   4.995 -0.2065  0.4647 -0.0010
  213MOL0     C28021   3.726   8.894   4.907  0.5583 -0.7689  0.4504
  213MOL0     C28022   3.799   8.815   4.795  1.3301 -0.2159 -0.3349
  213MOL0     C28023   3.891   8.907   4.718 -0.3836 -0.2889 -0.1327
  213MOL0     C28024   4.011   8.947   4.804  0.8513 -0.0235 -0.1794
  213MOL0     C28025   4.089   9.058   4.738 -0.0480 -0.2762  0.9796
  213MOL0     C28026   4.184   9.105   4.850 -0.5507 -0.0014 -1.0926
  213MOL0     C28027   4.285   9.211   4.797 -0.1585  0.2020  0.0817
  213MOL0    Cl28028   4.346   9.146   4.642 -0.2873 -0.5317  0.1172
  213MOL0     C28029   3.369   8.953   5.222 -0.2359 -0.3987 -0.4290
  213MOL0     C28030   3.252   8.917   5.289  0.6195 -0.1153 -0.3719
  213MOL0     O28031   3.182   8.690   5.510  0.1820  0.3284 -0.9776
  213MOL0     C28032   2.838   8.736   5.454  0.2471 -0.0583 -0.2221
  213MOL0     C28033   2.720   8.729   5.521 -0.1394  0.1553 -0.0935
  213MOL0     N28034   2.228   8.247   5.761  0.1405 -1.0443  0.5308
  213MOL0     N28035   2.192   8.165   5.669 -0.0517 -0.3334  0.5944
  213MOL0     C28036   1.316   8.649   4.713 -0.4796 -0.0511 -0.3072
  213MOL0     C28037   1.206   8.730   4.724 -0.2756  0.2216 -0.0080
  213MOL0     C28038   0.858   8.957   4.875 -0.5103  0.1408  0.4860
  213MOL0     C28039   0.780   8.958   4.988  0.1899 -0.2819 -0.8944
  213MOL0     C28040   0.663   9.030   4.989  0.4281  0.1973  0.0385
  213MOL0     C28041   0.624   9.103   4.879 -0.6280 -0.5913  0.2373
  213MOL0     O28042   0.496   9.140   4.866 -0.1910 -0.2807 -0.2948
  213MOL0     C28043   0.396   9.042   4.847  0.0623 -0.7982  0.1094
  213MOL0     C28044   0.267   9.089   4.919 -0.5940  1.1678  0.0303
  213MOL0     C28045   0.214   9.216   4.836 -0.6646 -0.2266  0.8358
  213MOL0     C28046   0.088   9.285   4.892  0.2234 -1.0753 -0.3254
  213MOL0     C28047  -0.025   9.194   4.886  0.9942 -0.5241 -0.5860
  213MOL0     C28048  -0.127   9.124   4.890  0.1474  0.1990  0.4261
  213MOL0     C28049   0.710   9.113   4.766  0.2295  0.5223  0.1450
  213MOL0     C28050   0.823   9.040   4.762 -0.1952  0.5746  0.2664
  213MOL0     H28051   1.330   8.958   4.950  0.6937 -0.3037  0.4528
  213MOL0     H28052   1.522   8.783   4.927  0.5723  1.1100 -1.8807
  213MOL0     H28053   1.472   8.417   4.707  0.5950 -0.5143 -0.3605
  213MOL0     H28054   1.407   8.440   4.875 -1.7838  1.7901 -3.2563
  213MOL0     H28055   1.703   8.403   4.793 -3.2186  0.3425 -3.8928
  213MOL0     H28056   1.617   8.265   4.833 -1.4396  0.0026  1.3033
  213MOL0     H28057   1.563   8.387   5.072  1.1003 -2.6029  1.4255
  213MOL0     H28058   1.681   8.503   5.027  2.0321 -0.7968 -0.8820
  213MOL0     H28059   1.739   8.206   5.042  0.8193  0.7092 -2.6726
  213MOL0     H28060   1.857   8.342   5.014 -0.3932  1.0253  0.9580
  213MOL0     H28061   1.709   8.308   5.280 -1.9279  1.7377 -1.3883
  213MOL0     H28062   1.824   8.435   5.236 -1.6490  1.0775 -1.1187
  213MOL0     H28063   1.988   8.260   5.201  0.1450 -0.7012  0.0141
  213MOL0     H28064   1.869   8.138   5.264 -2.6246  1.2100  1.3572
  213MOL0     H28065   1.970   8.377   5.410 -0.1388 -0.2868 -2.7105
  213MOL0     H28066   1.882   8.252   5.495  1.4470 -0.5723  2.3843
  213MOL0     H28067   2.152   8.200   5.369  1.3590 -0.7265  0.6088
  213MOL0     H28068   2.050   8.095   5.473  1.0268 -1.1059 -1.0897
  213MOL0     H28069   2.092   8.463   5.570 -0.2538 -1.5785 -1.3731
  213MOL0     H28070   2.206   8.470   5.910  1.2672  0.3270  0.1003
  213MOL0     H28071   2.161   8.579   5.767 -0.8065 -0.2644 -1.0508
  213MOL0     H28072   2.404   8.533   5.697 -2.6474 -1.4184 -1.4712
  213MOL0     H28073   2.429   8.430   5.848 -3.0452 -2.6765 -0.6076
  213MOL0     H28074   2.356   8.722   5.883  1.0202  1.4382  1.1217
  213MOL0     H28075   2.436   8.616   5.999 -1.4560  1.3075  1.3353
  213MOL0     H28076   2.647   8.606   5.872 -1.1806 -1.8695 -2.0300
  213MOL0     H28077   2.609   8.768   5.915  1.1541  1.0454 -1.3065
  213MOL0     H28078   2.844   8.727   5.841 -2.8041  2.6408  0.4862
  213MOL0     H28079   3.045   8.715   5.718 -1.0061  0.5420  2.5255
  213MOL0     H28080   3.249   8.592   5.193  0.6001 -0.3675  2.2196
  213MOL0     H28081   3.457   8.656   5.091 -2.7039 -1.1734 -0.2883
  213MOL0     H28082   3.554   8.764   4.935 -0.1391 -0.3821  0.6615
  213MOL0     H28083   3.672   8.745   5.063 -0.0609  0.0189 -0.5694
  213MOL0     H28084   3.795   8.955   4.966  2.3002  1.2467 -3.3431
  213MOL0     H28085   3.673   8.971   4.851  2.1237 -2.4624 -3.7291
  213MOL0     H28086   3.732   8.761   4.727 -0.3961 -1.4335  2.1680
  213MOL0     H28087   3.865   8.742   4.842  0.5448  0.7814  2.4764
  213MOL0     H28088   3.927   8.867   4.623  0.4408  2.7438 -1.2018
  213MOL0     H28089   3.828   8.992   4.692  1.1854  1.4342  1.4170
  213MOL0     H28090   4.077   8.861   4.816 -0.4851 -0.8916  1.3824
  213MOL0     H28091   3.984   8.966   4.908  2.6027 -1.9853  0.6960
  213MOL0     H28092   4.024   9.141   4.709  0.5408  0.5255  1.9037
  213MOL0     H28093   4.140   9.026   4.646 -0.8605  1.2210 -0.0501
  213MOL0     H28094   4.122   9.163   4.919  0.1379  2.7862 -2.6615
  213MOL0     H28095   4.239   9.026   4.902 -0.6321 -0.2453 -1.3763
  213MOL0     H28096   4.362   9.220   4.875  1.6460 -3.2316 -1.1165
  213MOL0     H28097   4.228   9.301   4.771 -3.6390 -2.0193 -0.6521
  213MOL0     H28098   3.417   9.048   5.245  0.0259 -0.8239  0.8808
  213MOL0     H28099   3.197   8.982   5.357 -3.9024 -0.3538 -3.3455
  213MOL0     H28100   2.832   8.734   5.346 -0.0965  1.3220 -0.2403
  213MOL0     H28101   2.621   8.732   5.477 -1.1917 -0.9418  2.0446
  213MOL0     H28102   1.326   8.562   4.648  2.4081  0.1831 -0.2840
  213MOL0     H28103   1.126   8.713   4.652  1.2794 -1.5355 -1.4566
  213MOL0     H28104   0.799   8.919   5.087 -4.3372 -0.9103 -0.0843
  213MOL0     H28105   0.605   9.046   5.079 -0.5163  3.1387 -0.9804
  213MOL0     H28106   0.421   8.939   4.873 -1.7850 -1.2138  0.4180
  213MOL0     H28107   0.380   9.039   4.738 -0.1667 -2.8089  0.1552
  213MOL0     H28108   0.196   9.006   4.915  1.0207 -0.3950  1.7252
  213MOL0     H28109   0.279   9.120   5.023  3.3174 -1.1486  0.4659
  213MOL0     H28110   0.191   9.192   4.731 -0.1318  1.1990  0.3730
  213MOL0     H28111   0.292   9.293   4.829  2.7649 -3.5192 -2.3709
  213MOL0     H28112   0.107   9.313   4.996 -0.1330 -1.0574 -0.2627
  213MOL0     H28113   0.080   9.379   4.837  0.4002 -0.5486  0.5352
  213MOL0     H28114  -0.212   9.060   4.901 -0.0170  0.5810  1.5430
  213MOL0     H28115   0.674   9.167   4.679 -0.0658  0.5212  0.2651
  213MOL0     H28116   0.892   9.047   4.678 -0.8182  4.1447 -0.1228
  214MOL0     O28117   7.861   1.795   1.295  0.7274 -0.2774 -0.8579
  214MOL0     C28118   7.901   1.738   1.191  1.1392 -0.2352 -0.7359
  214MOL0     O28119   7.990   1.637   1.183 -0.9646 -0.5342  0.3472
  214MOL0     C28120   8.056   1.592   1.298 -0.1862  0.5131 -0.7529
  214MOL0     C28121   8.195   1.599   1.318  0.1846  0.9066  0.0674
  214MOL0     C28122   8.249   1.572   1.443 -0.0633 -1.4509  0.4213
  214MOL0     C28123   8.178   1.541   1.548  0.7793 -0.3144 -0.1035
  214MOL0     O28124   8.243   1.514   1.662 -0.7391 -0.6201 -0.1095
  214MOL0     C28125   8.181   1.523   1.788  0.0460 -0.2692 -0.4481
  214MOL0     C28126   8.289   1.542   1.898  0.0291 -0.6774  0.8027
  214MOL0     C28127   8.253   1.568   2.046 -0.6253 -0.8884  0.4787
  214MOL0     C28128   8.373   1.563   2.136  0.2494 -0.0178  0.3574
  214MOL0     C28129   8.457   1.688   2.109  0.3092  0.0184  0.7105
  214MOL0     C28130   8.538   1.707   2.249  0.7199 -0.2127  0.1996
  214MOL0     C28131   8.628   1.825   2.250 -0.0226 -0.0995 -0.3782
  214MOL0     C28132   8.677   1.869   2.384  0.2199  0.3490  0.1215
  214MOL0     N28133   8.763   1.771   2.450 -0.5125 -0.6044  0.4294
  214MOL0     C28134   8.716   1.666   2.528  0.1949 -0.5748 -0.0456
  214MOL0     C28135   8.821   1.587   2.554 -0.1485 -0.5233 -0.8325
  214MOL0     C28136   8.825   1.451   2.616 -0.0445 -0.2384 -0.4309
  214MOL0     C28137   8.921   1.455   2.738 -0.0083 -0.3204  0.3593
  214MOL0     C28138   8.939   1.314   2.799  0.2681  0.0608  0.6377
  214MOL0     C28139   9.065   1.313   2.881 -0.1725  0.6881 -0.0154
  214MOL0     O28140   9.074   1.178   2.944  0.2067  0.1589  0.0711
  214MOL0     C28141   9.199   1.131   2.988 -0.1073 -0.2648  0.0129
  214MOL0     C28142   9.197   1.005   3.038 -0.1867 -0.0862  0.1701
  214MOL0     C28143   9.311   0.948   3.113  0.4568 -0.2764 -0.2539
  214MOL0     C28144   9.429   1.027   3.130 -0.2933 -0.0199  0.3160
  214MOL0     C28145   9.541   0.970   3.214  0.1453 -0.1186 -0.0958
  214MOL0     O28146   9.638   1.057   3.255  0.2103 -0.1030  0.0000
  214MOL0     C28147   9.750   1.007   3.331 -0.0733  0.0539 -0.5445
  214MOL0     C28148   9.814   1.095   3.420 -0.0457 -0.3337 -0.5364
  214MOL0     C28149   9.919   1.061   3.497 -0.3523  0.3950 -0.1839
  214MOL0     C28150   9.987   0.934   3.477  0.0455 -1.6547  0.3927
  214MOL0     O28151  10.110   0.898   3.532  0.5905  0.7656 -0.3320
  214MOL0     C28152  10.112   0.902   3.676 -0.1366  0.0491  1.4355
  214MOL0     C28153  10.230   0.997   3.732  0.0420 -0.4028  0.8237
  214MOL0     C28154  10.356   0.972   3.650 -0.7984 -0.3930 -0.4384
  214MOL0     C28155  10.363   1.043   3.521  0.1112 -0.3789 -0.5917
  214MOL0     C28156  10.402   0.948   3.405 -0.8616  0.7186 -0.2501
  214MOL0     C28157  10.550   0.909   3.416 -0.1990  0.3703  0.8421
  214MOL0     C28158  10.599   0.819   3.294 -0.3499  0.3128 -0.0347
  214MOL0     C28159  10.568   0.672   3.304  0.0231 -0.0191 -0.2916
  214MOL0    Cl28160  10.674   0.581   3.182  0.0227  0.1672  0.1630
  214MOL0     C28161   9.931   0.856   3.374  0.4118  0.0029  0.5864
  214MOL0     C28162   9.821   0.886   3.308 -0.0871  0.1974  0.7059
  214MOL0     O28163   9.527   0.858   3.258 -0.1456 -0.1069 -0.5487
  214MOL0     C28164   9.434   1.145   3.058  0.0194 -0.4880 -0.0362
  214MOL0     C28165   9.316   1.199   2.990  0.2668 -0.2650  0.1406
  214MOL0     N28166   8.939   1.658   2.504 -0.7568  0.2924 -0.4290
  214MOL0     N28167   8.896   1.765   2.429 -0.0097 -0.1056 -0.5184
  214MOL0     C28168   8.040   1.525   1.540  0.2392  0.3431  0.5263
  214MOL0     C28169   7.977   1.551   1.413 -0.2953 -0.5123  0.1232
  214MOL0     C28170   7.844   1.782   1.072 -0.1027  0.7246  0.6487
  214MOL0     C28171   7.915   1.796   0.954  1.1259  0.1798  0.6852
  214MOL0     C28172   7.842   1.827   0.834 -0.6379  0.7882 -0.1099
  214MOL0     C28173   7.702   1.851   0.829 -0.8987  1.2498  0.7439
  214MOL0     O28174   7.641   1.887   0.712  0.5698 -0.4650 -0.1719
  214MOL0     C28175   7.550   1.793   0.660 -0.3729  0.3061  0.3292
  214MOL0     C28176   7.620   1.660   0.620  0.2200  0.0775  0.0123
  214MOL0     C28177   7.697   1.669   0.491 -0.2961  0.9345 -0.6697
  214MOL0     C28178   7.718   1.529   0.434 -0.3753  0.7029  0.0896
  214MOL0     C28179   7.807   1.535   0.317 -0.2466 -0.3403  0.2142
  214MOL0     C28180   7.885   1.538   0.219  0.6806  0.3352 -0.4178
  214MOL0     C28181   7.631   1.845   0.942  0.2197  0.3047  0.2332
  214MOL0     C28182   7.702   1.821   1.070  0.2179 -1.8875 -0.8183
  214MOL0     H28183   8.270   1.637   1.249  0.4584 -0.0937 -0.2028
  214MOL0     H28184   8.352   1.596   1.471 -0.8309  0.6316  1.7179
  214MOL0     H28185   8.113   1.442   1.818 -1.5836  1.5850  1.1186
  214MOL0     H28186   8.116   1.611   1.793  2.0975  1.2736  0.2860
  214MOL0     H28187   8.359   1.621   1.869 -0.4757  1.0400  3.8667
  214MOL0     H28188   8.350   1.451   1.901  1.5930  0.3542  2.3691
  214MOL0     H28189   8.181   1.488   2.064 -1.1126 -0.5032  0.2562
  214MOL0     H28190   8.209   1.668   2.056  2.2880  0.5731 -0.1407
  214MOL0     H28191   8.337   1.558   2.239 -3.3428 -1.5353 -0.7823
  214MOL0     H28192   8.424   1.470   2.111  2.1268  0.8000  0.9781
  214MOL0     H28193   8.410   1.785   2.088  2.5810  0.8002 -1.2017
  214MOL0     H28194   8.518   1.686   2.018 -2.1246  0.8760 -1.0659
  214MOL0     H28195   8.602   1.620   2.269  1.2402  0.1956  0.3128
  214MOL0     H28196   8.470   1.719   2.334  0.6803  2.6422 -0.1402
  214MOL0     H28197   8.708   1.811   2.176  1.2968  2.9254  0.2883
  214MOL0     H28198   8.566   1.901   2.201 -0.1712  0.5161  0.7259
  214MOL0     H28199   8.589   1.899   2.441 -1.3597 -4.4814  0.6343
  214MOL0     H28200   8.742   1.957   2.374  0.5468  0.2479  1.1514
  214MOL0     H28201   8.618   1.642   2.568 -0.4654 -0.3564 -1.4929
  214MOL0     H28202   8.854   1.383   2.536  0.2851 -0.3836 -0.1897
  214MOL0     H28203   8.730   1.411   2.652 -0.3374 -1.5683 -2.5384
  214MOL0     H28204   8.869   1.513   2.814 -1.7007  0.8742 -1.6326
  214MOL0     H28205   9.015   1.504   2.711 -1.4771  2.7292  0.3573
  214MOL0     H28206   8.843   1.294   2.848  0.1550 -2.4774 -0.4542
  214MOL0     H28207   8.939   1.231   2.728  0.5564  2.0667 -1.8679
  214MOL0     H28208   9.069   1.394   2.955 -0.6332  2.2372 -1.6076
  214MOL0     H28209   9.146   1.330   2.810  2.1254  1.4256  2.5940
  214MOL0     H28210   9.111   0.939   3.027  0.2213 -0.6508  0.3618
  214MOL0     H28211   9.299   0.856   3.169 -0.6003 -0.7424 -1.2034
  214MOL0     H28212   9.778   1.197   3.433 -0.0377 -0.2702 -0.9849
  214MOL0     H28213   9.966   1.129   3.567  3.0702 -1.6954 -0.2087
  214MOL0     H28214  10.132   0.801   3.711 -0.6514 -0.6255 -0.1266
  214MOL0     H28215  10.014   0.934   3.715 -1.0578  0.2407 -0.8778
  214MOL0     H28216  10.255   0.980   3.837 -0.4133 -0.8509  0.8652
  214MOL0     H28217  10.210   1.104   3.729  0.9855 -0.2181 -2.3965
  214MOL0     H28218  10.383   0.867   3.640  2.1546  0.2804 -0.3917
  214MOL0     H28219  10.433   1.015   3.715 -0.6797  1.4277 -1.6902
  214MOL0     H28220  10.259   1.077   3.511 -0.9971 -2.4882  2.3433
  214MOL0     H28221  10.434   1.127   3.518  0.0877 -0.1916  1.8801
  214MOL0     H28222  10.369   0.986   3.307 -1.6519  1.4815  0.2988
  214MOL0     H28223  10.336   0.861   3.408 -1.4500  1.0201 -2.4319
  214MOL0     H28224  10.583   0.864   3.510 -1.8919 -2.4467  0.2225
  214MOL0     H28225  10.605   1.003   3.414 -0.5641  0.8045  4.3804
  214MOL0     H28226  10.563   0.867   3.202 -0.9029 -0.0568 -0.0157
  214MOL0     H28227  10.707   0.832   3.286  0.1111 -3.4133 -2.4388
  214MOL0     H28228  10.461   0.662   3.285  0.3268 -2.7003 -1.0965
  214MOL0     H28229  10.592   0.629   3.402  2.2737 -0.6511 -1.0353
  214MOL0     H28230   9.963   0.754   3.357 -0.0106  0.2280 -1.8231
  214MOL0     H28231   9.782   0.819   3.232 -2.0491  1.8119  0.1968
  214MOL0     H28232   9.521   1.209   3.048 -1.2950  1.1569 -2.2578
  214MOL0     H28233   9.322   1.291   2.933  0.1155 -1.0696 -1.2290
  214MOL0     H28234   7.981   1.512   1.630  1.4671 -1.7127  1.0878
  214MOL0     H28235   7.871   1.549   1.389  0.4550 -0.9114 -3.8107
  214MOL0     H28236   8.017   1.764   0.938  1.9807  1.8485  2.3616
  214MOL0     H28237   7.899   1.810   0.744  1.0882  1.5834  0.8007
  214MOL0     H28238   7.506   1.832   0.568 -0.2061 -2.7344 -1.1589
  214MOL0     H28239   7.467   1.770   0.729 -0.0465 -1.1031  0.2945
  214MOL0     H28240   7.695   1.623   0.691  2.0898 -0.6998 -2.2280
  214MOL0     H28241   7.541   1.586   0.605  1.3873 -0.6976 -3.0737
  214MOL0     H28242   7.795   1.714   0.508 -0.8934  2.0359 -0.0405
  214MOL0     H28243   7.636   1.725   0.420 -2.6566 -0.7163 -0.0557
  214MOL0     H28244   7.754   1.460   0.511  0.9479  0.5623 -0.6335
  214MOL0     H28245   7.624   1.480   0.410  0.1618  0.2653 -1.2005
  214MOL0     H28246   7.940   1.551   0.128 -0.2633 -0.6669 -1.1470
  214MOL0     H28247   7.525   1.866   0.955  0.4692  0.6912  1.8642
  214MOL0     H28248   7.657   1.813   1.168  0.4184  0.3294 -0.5029
  215MOL0     O28249  10.505   4.029   8.826  0.7818  0.1480  0.0834
  215MOL0     C28250  10.571   4.110   8.756 -0.6617  0.8597 -0.1222
  215MOL0     O28251  10.706   4.115   8.758 -0.3040 -0.4777 -0.8103
  215MOL0     C28252  10.786   4.038   8.836 -0.7616 -0.5290  0.1874
  215MOL0     C28253  10.777   3.996   8.968  0.6280  0.5071 -0.3919
  215MOL0     C28254  10.875   3.916   9.028 -0.1235  0.2556  0.0127
  215MOL0     C28255  10.989   3.876   8.958 -0.0059 -0.4985 -0.1387
  215MOL0     O28256  11.071   3.784   9.021 -0.7903 -0.5291  0.1706
  215MOL0     C28257  11.186   3.727   8.959 -0.1724 -0.0081 -0.8581
  215MOL0     C28258  11.199   3.575   9.006 -0.2076 -1.1774  0.6455
  215MOL0     C28259  11.073   3.496   8.988  0.2147  0.5341 -0.0150
  215MOL0     C28260  11.057   3.470   8.841  0.2742 -0.7483  0.8086
  215MOL0     C28261  11.003   3.329   8.830  0.1576 -0.0916 -0.1077
  215MOL0     C28262  11.021   3.281   8.690  0.0528 -0.4108  0.9554
  215MOL0     C28263  10.960   3.147   8.647  1.0437 -0.2016  0.5396
  215MOL0     C28264  10.804   3.161   8.615  0.7674 -0.1026  0.3166
  215MOL0     N28265  10.772   3.221   8.486  0.3889 -0.3323 -0.1749
  215MOL0     C28266  10.733   3.157   8.372  0.1272 -0.0686  0.2425
  215MOL0     C28267  10.704   3.252   8.278  0.0376  0.0939  0.1806
  215MOL0     C28268  10.683   3.227   8.133  0.1065  0.5357  0.8555
  215MOL0     C28269  10.535   3.233   8.084 -0.3991  0.2411  0.8869
  215MOL0     C28270  10.473   3.368   8.117  0.5781 -0.3088 -0.1274
  215MOL0     C28271  10.349   3.391   8.026 -0.2394  0.7215  0.0174
  215MOL0     O28272  10.315   3.529   8.034  1.2363  0.2265  0.1024
  215MOL0     C28273  10.201   3.584   7.975 -0.1454  0.0560 -0.4144
  215MOL0     C28274  10.157   3.708   8.018 -0.0180 -0.3536  0.0334
  215MOL0     C28275  10.037   3.757   7.961 -0.5216  0.8677 -0.6400
  215MOL0     C28276   9.960   3.677   7.874 -0.6397 -0.2685 -0.1868
  215MOL0     C28277   9.831   3.723   7.809  0.5951 -0.3419  0.8108
  215MOL0     O28278   9.734   3.626   7.770 -0.3705 -0.2447  0.6475
  215MOL0     C28279   9.613   3.660   7.710  0.1142 -0.0770  0.2137
  215MOL0     C28280   9.493   3.615   7.768 -0.3895 -0.1491 -0.5948
  215MOL0     C28281   9.366   3.656   7.724 -0.1115  1.1605  0.7693
  215MOL0     C28282   9.358   3.727   7.607  0.9291 -0.2767 -0.4267
  215MOL0     O28283   9.235   3.742   7.560 -0.0646  0.0277 -0.1368
  215MOL0     C28284   9.178   3.619   7.501 -0.3433  0.1919  0.7689
  215MOL0     C28285   9.026   3.614   7.499 -0.3026  0.8489  0.0347
  215MOL0     C28286   8.965   3.709   7.394 -0.5444  0.0775  0.1577
  215MOL0     C28287   8.816   3.679   7.398  0.4705 -0.1452  0.1936
  215MOL0     C28288   8.734   3.754   7.307  0.4099  1.0902  0.7768
  215MOL0     C28289   8.592   3.698   7.321  0.9445  0.8233 -0.2422
  215MOL0     C28290   8.523   3.754   7.193 -0.0813 -0.1179  0.2295
  215MOL0     C28291   8.443   3.644   7.122 -1.0612  0.5023 -0.9451
  215MOL0    Cl28292   8.348   3.715   6.995  0.1638 -0.3271 -0.2925
  215MOL0     C28293   9.474   3.774   7.542  0.1694 -0.0254 -0.3257
  215MOL0     C28294   9.603   3.742   7.598 -0.5534 -0.1804 -0.5835
  215MOL0     O28295   9.804   3.843   7.813 -0.7452 -0.0973  0.1266
  215MOL0     C28296   9.998   3.548   7.837 -0.1660 -0.9716  0.0301
  215MOL0     C28297  10.123   3.501   7.880 -0.9949 -0.8461 -0.1916
  215MOL0     N28298  10.731   3.366   8.336 -0.2211  0.9513 -0.9616
  215MOL0     N28299  10.766   3.353   8.461 -0.0073  1.1063 -0.0699
  215MOL0     C28300  11.014   3.941   8.833  0.4269 -1.1339  0.7498
  215MOL0     C28301  10.913   4.023   8.780 -0.2195 -0.1171 -0.7094
  215MOL0     C28302  10.493   4.202   8.683  0.3226  0.3435 -0.8025
  215MOL0     C28303  10.352   4.200   8.693  0.4638  0.8856  0.3189
  215MOL0     C28304  10.283   4.299   8.626  0.5666  0.0101 -0.1916
  215MOL0     C28305  10.353   4.395   8.550  1.2546  0.1198  0.7525
  215MOL0     O28306  10.293   4.492   8.470  0.7444 -0.6325 -0.7538
  215MOL0     C28307  10.169   4.544   8.516  0.7735  0.5794  0.0780
  215MOL0     C28308  10.068   4.462   8.438  0.1772 -0.5704  1.1862
  215MOL0     C28309  10.070   4.486   8.281  0.2389  0.5294 -0.2274
  215MOL0     C28310   9.940   4.435   8.220 -0.1115  0.1568  0.2325
  215MOL0     C28311   9.847   4.546   8.214  0.2423 -0.1949 -0.4847
  215MOL0     C28312   9.767   4.640   8.210  0.6120 -0.4093  0.0997
  215MOL0     C28313  10.489   4.395   8.530 -0.4447  0.3931 -0.1849
  215MOL0     C28314  10.561   4.297   8.608  0.1782 -0.8741  0.4956
  215MOL0     H28315  10.683   4.022   9.015 -1.4117  0.5401 -4.0818
  215MOL0     H28316  10.849   3.896   9.132  1.6306  2.9327  1.0664
  215MOL0     H28317  11.275   3.779   8.994 -1.6251  1.0554  1.5007
  215MOL0     H28318  11.185   3.727   8.850 -0.9887 -1.8579 -0.8933
  215MOL0     H28319  11.226   3.580   9.112  0.6449  0.4194  0.3908
  215MOL0     H28320  11.283   3.535   8.948  1.4566  0.2696  1.9332
  215MOL0     H28321  10.984   3.537   9.036  0.4899  0.1049  0.8857
  215MOL0     H28322  11.096   3.405   9.044 -1.3845 -0.4882 -0.9606
  215MOL0     H28323  10.993   3.540   8.787  1.6885 -0.6368 -0.7921
  215MOL0     H28324  11.150   3.469   8.783 -0.2650 -1.4707 -0.0459
  215MOL0     H28325  10.895   3.332   8.849 -0.2189 -1.1252 -1.8298
  215MOL0     H28326  11.053   3.259   8.897  1.6322  0.4611 -0.5942
  215MOL0     H28327  11.129   3.267   8.674 -0.0454  0.0774 -0.3142
  215MOL0     H28328  10.996   3.361   8.619 -2.0919 -0.2355  1.8622
  215MOL0     H28329  11.011   3.106   8.559 -2.1479 -1.3260 -0.9477
  215MOL0     H28330  10.969   3.075   8.729  0.7710 -1.2738 -0.3382
  215MOL0     H28331  10.761   3.214   8.701  4.0605  1.3950  1.1948
  215MOL0     H28332  10.771   3.057   8.607  1.7920 -0.4935  0.9653
  215MOL0     H28333  10.736   3.052   8.345 -1.3234 -0.0693 -0.0023
  215MOL0     H28334  10.719   3.126   8.109 -0.2094  0.7017 -0.3608
  215MOL0     H28335  10.741   3.300   8.076  0.0398  0.4186  0.6349
  215MOL0     H28336  10.481   3.148   8.129 -0.6990 -0.2044 -0.2906
  215MOL0     H28337  10.546   3.224   7.976  1.1203  2.3235  0.8045
  215MOL0     H28338  10.426   3.359   8.215  1.8319 -5.5500  0.2868
  215MOL0     H28339  10.545   3.451   8.118 -1.4282  1.5329 -0.5713
  215MOL0     H28340  10.268   3.319   8.047  0.9298 -0.5863  0.2266
  215MOL0     H28341  10.390   3.368   7.927 -0.9098  0.8728 -0.2978
  215MOL0     H28342  10.212   3.759   8.098 -0.2926  0.4136 -0.2533
  215MOL0     H28343  10.022   3.857   7.999 -1.2284  0.0421  1.4069
  215MOL0     H28344   9.508   3.548   7.852  3.7326 -0.0415 -1.0663
  215MOL0     H28345   9.276   3.636   7.781 -0.9817  0.7699 -0.6795
  215MOL0     H28346   9.211   3.529   7.552  2.2549  1.3759  1.3385
  215MOL0     H28347   9.212   3.612   7.397  0.4478 -0.3225  1.0536
  215MOL0     H28348   8.980   3.639   7.595 -3.7768  0.1878 -1.3188
  215MOL0     H28349   8.988   3.512   7.491 -2.3139  1.3986  1.7131
  215MOL0     H28350   8.998   3.695   7.291  1.8434  3.0690  0.3794
  215MOL0     H28351   8.982   3.812   7.428 -0.9007  0.0692  0.3672
  215MOL0     H28352   8.800   3.571   7.390  0.8426 -0.1107 -1.5525
  215MOL0     H28353   8.776   3.710   7.494 -1.4397  0.8866 -0.8809
  215MOL0     H28354   8.767   3.738   7.204 -0.3127 -1.1475  0.8304
  215MOL0     H28355   8.746   3.861   7.327  0.0343  1.9956 -3.1263
  215MOL0     H28356   8.559   3.747   7.413  1.2250  0.4476  0.0615
  215MOL0     H28357   8.584   3.589   7.320  2.4275  0.6960 -0.1840
  215MOL0     H28358   8.453   3.829   7.230 -1.1846 -0.6823 -0.6462
  215MOL0     H28359   8.597   3.800   7.126 -1.6109  1.3843 -0.5135
  215MOL0     H28360   8.372   3.597   7.192 -0.8252  2.7312  0.9127
  215MOL0     H28361   8.511   3.566   7.087 -1.2465  0.5962 -1.5206
  215MOL0     H28362   9.466   3.834   7.452  0.5872 -0.0424 -0.3788
  215MOL0     H28363   9.687   3.783   7.543 -2.6002  0.3390 -3.5057
  215MOL0     H28364   9.940   3.490   7.766 -0.2812  0.1142 -0.7903
  215MOL0     H28365  10.157   3.403   7.850 -1.3747 -1.0238 -0.0452
  215MOL0     H28366  11.109   3.949   8.782  1.2740  2.5580  2.5221
  215MOL0     H28367  10.932   4.067   8.682  1.7784 -0.2811 -0.4200
  215MOL0     H28368  10.300   4.119   8.742  1.7561  0.9657  1.9492
  215MOL0     H28369  10.179   4.299   8.655  0.4783 -1.5401 -0.3985
  215MOL0     H28370  10.149   4.650   8.494 -0.1879  0.3158 -0.4011
  215MOL0     H28371  10.156   4.519   8.621  5.0955 -2.1014  0.2275
  215MOL0     H28372  10.076   4.357   8.467 -2.9827 -0.5886  2.4329
  215MOL0     H28373   9.968   4.495   8.466  0.7141  0.0896  2.3692
  215MOL0     H28374  10.148   4.418   8.243  0.5764  1.3456 -1.0214
  215MOL0     H28375  10.095   4.589   8.255 -1.6253  0.6834 -1.5941
  215MOL0     H28376   9.965   4.382   8.128  0.0418  0.3225  0.1769
  215MOL0     H28377   9.885   4.365   8.283 -0.3432  0.3952  0.2986
  215MOL0     H28378   9.706   4.724   8.184  3.5216  1.5363 -0.9862
  215MOL0     H28379  10.538   4.470   8.469 -1.2241  1.0858  0.0312
  215MOL0     H28380  10.669   4.296   8.602  0.2327 -2.9097  0.9588
  216MOL0     O28381   6.026   0.921   3.416 -0.8153  0.0988 -0.0636
  216MOL0     C28382   5.911   0.892   3.367 -1.2273 -0.6264 -0.0956
  216MOL0     O28383   5.892   0.832   3.240 -0.0039  0.2955 -0.5612
  216MOL0     C28384   6.007   0.791   3.184  0.2126 -0.5145  0.5040
  216MOL0     C28385   6.060   0.675   3.224  0.2745 -0.5330 -0.2539
  216MOL0     C28386   6.174   0.632   3.161 -0.5056 -0.5830 -0.6489
  216MOL0     C28387   6.233   0.698   3.051  0.3845  0.4032 -0.0792
  216MOL0     O28388   6.349   0.643   3.006 -0.0924  0.5319  0.0616
  216MOL0     C28389   6.444   0.723   2.920  0.0787  0.1094  0.2650
  216MOL0     C28390   6.404   0.733   2.772  0.2249  0.7768  0.5415
  216MOL0     C28391   6.481   0.831   2.685  0.8716  0.3381 -0.2428
  216MOL0     C28392   6.412   0.872   2.553  0.5795  0.9663 -0.8073
  216MOL0     C28393   6.520   0.963   2.482  0.4847 -0.7355  1.1536
  216MOL0     C28394   6.470   1.007   2.333 -0.2722  0.1418 -0.1488
  216MOL0     C28395   6.553   1.119   2.268  1.1939 -0.6534  0.4608
  216MOL0     C28396   6.492   1.256   2.303 -0.2997  0.0413  1.2020
  216MOL0     N28397   6.570   1.360   2.233  0.6388 -0.2158  0.1010
  216MOL0     C28398   6.562   1.384   2.096 -0.2111  0.5847 -0.1184
  216MOL0     C28399   6.656   1.478   2.073 -0.2894  0.7066  0.6448
  216MOL0     C28400   6.729   1.531   1.951 -0.5456 -0.5836  0.1757
  216MOL0     C28401   6.882   1.506   1.946  0.1177  0.2617  0.2213
  216MOL0     C28402   6.914   1.367   1.894  0.4519  0.1656  0.2727
  216MOL0     C28403   7.067   1.341   1.879  0.5994  0.6073  0.1031
  216MOL0     O28404   7.093   1.250   1.771  0.9982  0.5778 -0.6320
  216MOL0     C28405   7.107   1.316   1.655  0.1713  0.7636 -0.5772
  216MOL0     C28406   7.078   1.455   1.626 -0.8412 -0.3091  0.1118
  216MOL0     C28407   7.064   1.511   1.502 -0.0338  0.4249 -0.0018
  216MOL0     C28408   7.088   1.430   1.386 -0.3302 -0.3908  0.2731
  216MOL0     C28409   7.052   1.477   1.247  0.6220 -0.5631  0.4415
  216MOL0     O28410   6.993   1.604   1.250  0.6054  1.0977  1.4530
  216MOL0     C28411   6.923   1.657   1.148  0.1009 -0.4947  0.4614
  216MOL0     C28412   6.883   1.594   1.022 -0.2622 -0.2852 -0.2850
  216MOL0     C28413   6.809   1.664   0.929 -0.6080  0.2673 -0.1971
  216MOL0     C28414   6.771   1.796   0.956 -0.2634  0.4034 -0.2620
  216MOL0     O28415   6.684   1.852   0.867 -0.1385  0.4004 -0.3784
  216MOL0     C28416   6.745   1.921   0.753 -0.7480  0.6069 -0.3374
  216MOL0     C28417   6.639   1.971   0.659 -0.4121  0.0372 -0.3056
  216MOL0     C28418   6.566   2.095   0.702  0.4070  0.2408 -0.1449
  216MOL0     C28419   6.462   2.141   0.601 -0.1295  0.8022  0.2732
  216MOL0     C28420   6.507   2.262   0.525 -0.1558 -0.0783  0.8639
  216MOL0     C28421   6.632   2.249   0.438  0.0505 -0.3729  0.3161
  216MOL0     C28422   6.637   2.350   0.326 -0.1242  0.3927  0.0282
  216MOL0     C28423   6.777   2.338   0.263  0.0617  0.2923 -0.0093
  216MOL0    Cl28424   6.783   2.193   0.154 -0.1532 -0.0760  0.2074
  216MOL0     C28425   6.828   1.866   1.066 -0.2697 -1.0056  0.2079
  216MOL0     C28426   6.907   1.791   1.161 -0.3077  0.1892  0.4469
  216MOL0     O28427   7.058   1.401   1.145  0.6163  0.1371  0.1000
  216MOL0     C28428   7.105   1.289   1.410  0.0661 -0.4743  0.0718
  216MOL0     C28429   7.124   1.240   1.542  0.1560  0.6604  0.3946
  216MOL0     N28430   6.717   1.508   2.194  0.3966 -0.3002 -0.2321
  216MOL0     N28431   6.653   1.442   2.290 -0.4871 -0.0313 -0.5674
  216MOL0     C28432   6.179   0.824   3.015 -0.0048 -0.7492  0.9104
  216MOL0     C28433   6.061   0.859   3.073 -0.5187  0.7022 -0.1477
  216MOL0     C28434   5.795   0.922   3.462  0.1620 -1.1183  1.1622
  216MOL0     C28435   5.810   0.980   3.587 -0.1648  0.1473  0.7920
  216MOL0     C28436   5.699   0.989   3.665  0.9501 -0.0087  0.2191
  216MOL0     C28437   5.573   0.954   3.629  1.2160  0.7743  0.3121
  216MOL0     O28438   5.478   0.958   3.728  0.9853 -0.4564 -0.8061
  216MOL0     C28439   5.408   0.837   3.775  0.0281  0.3333 -0.7278
  216MOL0     C28440   5.272   0.860   3.836 -0.3418 -0.1755 -0.5301
  216MOL0     C28441   5.182   0.938   3.741 -0.2882 -0.4331 -0.5587
  216MOL0     C28442   5.039   0.938   3.803 -1.2569  0.6093 -0.1464
  216MOL0     C28443   4.966   1.024   3.701 -0.0772  0.2125 -0.1824
  216MOL0     C28444   4.894   1.078   3.623 -0.0861  0.8062  0.2882
  216MOL0     C28445   5.551   0.910   3.497  0.3126 -0.1409  0.8938
  216MOL0     C28446   5.665   0.890   3.410  0.2744  0.3090 -0.7578
  216MOL0     H28447   6.009   0.618   3.300 -2.0556  3.8304  1.8594
  216MOL0     H28448   6.225   0.544   3.199 -0.5504 -0.7366 -0.9406
  216MOL0     H28449   6.540   0.672   2.913 -0.7871 -2.0545  2.6083
  216MOL0     H28450   6.475   0.820   2.959 -0.8303  0.6250 -0.2485
  216MOL0     H28451   6.298   0.760   2.762 -0.9284 -3.2695 -0.0083
  216MOL0     H28452   6.399   0.635   2.724 -1.2467  0.9591  0.2736
  216MOL0     H28453   6.580   0.788   2.668  0.7885 -1.2049  2.5471
  216MOL0     H28454   6.492   0.919   2.750  5.0494  0.0578 -0.3021
  216MOL0     H28455   6.386   0.782   2.495  0.8209  1.6389 -1.9844
  216MOL0     H28456   6.317   0.925   2.563 -0.2184 -0.0723 -2.4501
  216MOL0     H28457   6.620   0.920   2.471  0.1550 -1.2676  0.1242
  216MOL0     H28458   6.533   1.051   2.546  1.7601 -0.3998  0.4616
  216MOL0     H28459   6.366   1.039   2.342  0.3099  1.7197  1.5253
  216MOL0     H28460   6.483   0.924   2.263 -1.2305  2.5838 -3.4892
  216MOL0     H28461   6.658   1.108   2.297  1.5605  0.1094 -0.5020
  216MOL0     H28462   6.558   1.112   2.159  1.6147  1.2547  0.3098
  216MOL0     H28463   6.500   1.288   2.407 -1.5367 -0.2709  1.4072
  216MOL0     H28464   6.387   1.246   2.274 -0.0549 -2.1404  0.8753
  216MOL0     H28465   6.516   1.322   2.019  1.3561 -0.0698 -0.5705
  216MOL0     H28466   6.725   1.640   1.947  1.0655 -0.4126  1.8641
  216MOL0     H28467   6.695   1.481   1.859  0.6789  0.4055 -0.8555
  216MOL0     H28468   6.923   1.512   2.047 -2.4726 -3.0122  1.6462
  216MOL0     H28469   6.927   1.586   1.886  0.8315 -0.8559 -0.7797
  216MOL0     H28470   6.858   1.290   1.948 -1.9463  0.9022 -1.0108
  216MOL0     H28471   6.873   1.368   1.793 -0.2476  0.3762  0.5532
  216MOL0     H28472   7.100   1.304   1.976  2.5023  0.1172 -0.6960
  216MOL0     H28473   7.119   1.437   1.880 -0.3017  1.1092 -0.1402
  216MOL0     H28474   7.051   1.523   1.706  0.1273 -0.3508  0.4781
  216MOL0     H28475   7.045   1.618   1.499 -0.0996  0.4304  0.5916
  216MOL0     H28476   6.898   1.491   0.989  0.1430 -0.8483  1.5760
  216MOL0     H28477   6.782   1.620   0.833  3.5841  0.8994 -1.9044
  216MOL0     H28478   6.809   1.853   0.695  1.3107  1.1205  1.2160
  216MOL0     H28479   6.812   1.996   0.796 -0.9966 -0.4647  2.0897
  216MOL0     H28480   6.568   1.894   0.625  0.8465 -0.8854 -0.9266
  216MOL0     H28481   6.704   1.988   0.573  0.6388 -1.5890  0.1288
  216MOL0     H28482   6.638   2.177   0.716 -1.6630  1.9265  1.2138
  216MOL0     H28483   6.528   2.093   0.805  0.4905  1.1884 -0.0810
  216MOL0     H28484   6.433   2.057   0.538  0.0751 -0.5336  1.8715
  216MOL0     H28485   6.374   2.181   0.651 -2.0577  1.8655 -3.5869
  216MOL0     H28486   6.531   2.340   0.598  1.3637 -1.7291  2.2481
  216MOL0     H28487   6.422   2.281   0.460 -0.1694  2.6992  1.5642
  216MOL0     H28488   6.646   2.149   0.394 -2.4772 -1.3707  1.6056
  216MOL0     H28489   6.718   2.260   0.504 -0.3130  3.3492  0.3483
  216MOL0     H28490   6.564   2.333   0.246  2.0572 -1.0892 -1.7493
  216MOL0     H28491   6.623   2.448   0.373  2.6859  1.8553 -1.8821
  216MOL0     H28492   6.848   2.320   0.345  0.6897  0.9747 -0.3984
  216MOL0     H28493   6.801   2.426   0.204 -2.6708  0.6263 -0.7701
  216MOL0     H28494   6.793   1.968   1.081  0.8142 -1.0158  4.1436
  216MOL0     H28495   6.931   1.846   1.252  0.1790 -0.5771  0.7891
  216MOL0     H28496   7.104   1.211   1.334  2.8356 -0.1018 -0.4415
  216MOL0     H28497   7.124   1.132   1.551 -2.0789  0.7194  2.0244
  216MOL0     H28498   6.223   0.876   2.931 -3.0916 -0.5891 -0.7326
  216MOL0     H28499   6.014   0.950   3.038 -1.3183 -0.5377 -2.5865
  216MOL0     H28500   5.911   1.006   3.618 -0.3952  1.9716  0.1552
  216MOL0     H28501   5.695   1.028   3.766 -3.2712 -3.3518  1.6737
  216MOL0     H28502   5.468   0.796   3.857 -2.7267 -2.8163 -0.0734
  216MOL0     H28503   5.382   0.760   3.703 -3.1700 -0.2209  0.8627
  216MOL0     H28504   5.235   0.766   3.877 -0.3540  1.1231  2.7342
  216MOL0     H28505   5.277   0.924   3.924 -1.9377 -1.6640  0.7110
  216MOL0     H28506   5.175   0.899   3.640 -2.5887  2.8360 -1.8363
  216MOL0     H28507   5.213   1.043   3.732  0.3169 -0.5434  0.0727
  216MOL0     H28508   5.004   0.834   3.810 -0.8431  0.6024  4.5645
  216MOL0     H28509   5.034   0.992   3.898  1.5150 -0.1849  0.5303
  216MOL0     H28510   4.826   1.118   3.550 -0.6382 -2.1365 -0.9348
  216MOL0     H28511   5.449   0.900   3.462  0.7037  2.0070 -1.1245
  216MOL0     H28512   5.640   0.851   3.312 -5.9251  1.5274 -0.1077
  217MOL0     O28513   9.996   5.031   4.939 -0.2811  0.0502  0.4889
  217MOL0     C28514  10.030   5.149   4.928  0.2895 -0.7023 -0.3077
  217MOL0     O28515   9.939   5.251   4.904  0.4979 -0.2341  0.6317
  217MOL0     C28516   9.802   5.226   4.905  0.2470  0.0588 -0.2914
  217MOL0     C28517   9.724   5.275   5.000  0.4063 -0.3641  0.4098
  217MOL0     C28518   9.585   5.255   4.998  0.5195 -0.4394 -0.5123
  217MOL0     C28519   9.531   5.169   4.905  0.2270 -0.6014 -0.6818
  217MOL0     O28520   9.391   5.155   4.883 -0.0497  0.2222 -0.0658
  217MOL0     C28521   9.303   5.094   4.987 -0.6993  0.4089 -0.5236
  217MOL0     C28522   9.150   5.128   4.968  0.7649 -0.3996 -0.0045
  217MOL0     C28523   9.135   5.283   4.969 -0.2632 -0.0525  0.5692
  217MOL0     C28524   9.144   5.330   5.108 -1.0301  0.1152 -0.5237
  217MOL0     C28525   9.227   5.461   5.134  0.8401  0.1635 -0.7781
  217MOL0     C28526   9.208   5.503   5.282 -1.0079  0.6166  0.3506
  217MOL0     C28527   9.280   5.633   5.315 -0.1550 -0.4682 -0.8615
  217MOL0     C28528   9.416   5.646   5.283 -1.1840 -1.1024  1.0966
  217MOL0     N28529   9.500   5.539   5.349  0.6157  0.3936  0.3497
  217MOL0     C28530   9.514   5.511   5.484 -0.5744  0.6471 -0.9689
  217MOL0     C28531   9.614   5.418   5.492  0.2347 -0.5301 -0.4323
  217MOL0     C28532   9.641   5.336   5.617  0.2297  0.0947  0.3549
  217MOL0     C28533   9.551   5.358   5.731 -0.7492 -0.5750  0.0976
  217MOL0     C28534   9.578   5.252   5.837 -0.1664  0.3749 -0.2939
  217MOL0     C28535   9.500   5.281   5.969 -0.1914 -1.2091 -0.5240
  217MOL0     O28536   9.366   5.263   5.939  0.9119  0.6036  0.0701
  217MOL0     C28537   9.262   5.307   6.021  0.7064 -1.0339 -0.9976
  217MOL0     C28538   9.279   5.388   6.133  0.0957 -0.2172 -0.0671
  217MOL0     C28539   9.172   5.447   6.203  0.4525 -0.5295 -0.4231
  217MOL0     C28540   9.042   5.431   6.162  0.2363  0.1108 -0.3456
  217MOL0     C28541   8.919   5.487   6.237  0.3604  0.1865 -0.0163
  217MOL0     O28542   8.945   5.578   6.323 -0.3264  0.5461  0.6597
  217MOL0     C28543   8.831   5.627   6.393 -0.5655 -0.0841 -0.5229
  217MOL0     C28544   8.775   5.750   6.368 -0.0132 -0.3072  0.4562
  217MOL0     C28545   8.669   5.797   6.447 -0.0422 -0.9205 -0.9648
  217MOL0     C28546   8.611   5.723   6.551  0.9692  0.3670 -0.5686
  217MOL0     O28547   8.484   5.762   6.592  0.8089  0.3074  0.2487
  217MOL0     C28548   8.398   5.661   6.653  0.4226 -0.1045 -0.5566
  217MOL0     C28549   8.325   5.569   6.542 -0.0203 -0.6142 -0.0853
  217MOL0     C28550   8.198   5.495   6.592  0.4112 -0.0417 -1.2045
  217MOL0     C28551   8.092   5.602   6.628  0.3574  0.2364  0.8352
  217MOL0     C28552   7.947   5.547   6.610  0.7016  0.2831 -0.3681
  217MOL0     C28553   7.871   5.547   6.479  0.2843 -0.4738 -0.1637
  217MOL0     C28554   7.722   5.549   6.501 -0.0285  0.0892 -0.1693
  217MOL0     C28555   7.664   5.686   6.522 -0.2191 -0.2132  0.0359
  217MOL0    Cl28556   7.485   5.688   6.498  0.6040  0.1498  0.0760
  217MOL0     C28557   8.679   5.609   6.588 -0.1748  0.6005 -0.2097
  217MOL0     C28558   8.791   5.561   6.515  0.7076 -0.2041  0.4414
  217MOL0     O28559   8.819   5.415   6.229 -0.2293 -0.0789  0.0392
  217MOL0     C28560   9.017   5.358   6.045 -0.2646 -0.2397 -1.0847
  217MOL0     C28561   9.127   5.296   5.974 -0.9117 -0.1899  0.1680
  217MOL0     N28562   9.654   5.392   5.361  1.2086 -0.6517 -0.0562
  217MOL0     N28563   9.585   5.456   5.279  0.1625 -0.7608  0.8508
  217MOL0     C28564   9.617   5.095   4.824 -0.6774 -0.1208  0.4610
  217MOL0     C28565   9.748   5.130   4.816 -0.7693 -0.0144 -0.2886
  217MOL0     C28566  10.170   5.182   4.937  0.4601  0.0232  0.8303
  217MOL0     C28567  10.265   5.079   4.963  0.4962 -0.1419  0.1201
  217MOL0     C28568  10.400   5.118   4.970 -0.8628 -0.0828  0.3619
  217MOL0     C28569  10.448   5.246   4.960  0.7638  0.0330 -0.5345
  217MOL0     O28570  10.587   5.259   4.974  0.0516  0.3084  0.0428
  217MOL0     C28571  10.644   5.391   4.930 -0.7428  0.1504 -0.2913
  217MOL0     C28572  10.779   5.428   4.979  0.2062  0.5876 -1.2467
  217MOL0     C28573  10.879   5.309   4.975  0.1697  0.4328 -0.3765
  217MOL0     C28574  10.970   5.299   4.859 -0.8160  0.4328  0.7786
  217MOL0     C28575  10.910   5.318   4.722 -0.2553  0.2550 -0.0902
  217MOL0     C28576  10.859   5.332   4.615  0.4412 -0.0477  0.7483
  217MOL0     C28577  10.352   5.351   4.931  0.6405 -0.1586 -0.3060
  217MOL0     C28578  10.217   5.312   4.918  0.7651 -0.0184 -0.0255
  217MOL0     H28579   9.764   5.343   5.075 -0.9197 -1.3163  2.0479
  217MOL0     H28580   9.508   5.301   5.058 -2.0349 -1.2134 -3.0102
  217MOL0     H28581   9.342   5.129   5.083  1.6301  0.1857 -1.3401
  217MOL0     H28582   9.321   4.987   4.969  3.3299  0.8391  0.0628
  217MOL0     H28583   9.087   5.078   5.042  1.1215  1.8151  1.8967
  217MOL0     H28584   9.113   5.103   4.868 -2.1677 -2.3891  1.4586
  217MOL0     H28585   9.031   5.309   4.947 -0.3341  1.6185  2.5483
  217MOL0     H28586   9.196   5.347   4.905 -1.7061  0.9954  0.1818
  217MOL0     H28587   9.040   5.335   5.141 -2.5255 -1.4764 -4.4533
  217MOL0     H28588   9.208   5.262   5.166 -1.9325 -1.7133 -1.6020
  217MOL0     H28589   9.179   5.533   5.068 -1.7896 -1.2984 -0.5964
  217MOL0     H28590   9.334   5.442   5.118  1.3684  0.5640  1.7686
  217MOL0     H28591   9.258   5.425   5.339 -1.5516 -0.2110 -0.2710
  217MOL0     H28592   9.104   5.512   5.316 -1.8377 -1.4574 -1.3438
  217MOL0     H28593   9.219   5.713   5.271 -2.1532 -1.3569  0.1501
  217MOL0     H28594   9.272   5.636   5.424 -0.7817 -1.9610 -0.8512
  217MOL0     H28595   9.457   5.744   5.308 -1.9041 -0.6713  0.6398
  217MOL0     H28596   9.425   5.627   5.175 -2.0387  0.8449  0.6233
  217MOL0     H28597   9.467   5.552   5.572  1.6832 -2.0907  1.7446
  217MOL0     H28598   9.748   5.337   5.639  0.9636 -1.8554 -2.5009
  217MOL0     H28599   9.616   5.233   5.591 -2.1247  0.1845  2.0062
  217MOL0     H28600   9.445   5.357   5.703 -1.2853  5.7447  0.4447
  217MOL0     H28601   9.565   5.451   5.787 -3.9579 -1.1031  2.1093
  217MOL0     H28602   9.531   5.162   5.795 -1.2907  0.9498 -0.2861
  217MOL0     H28603   9.679   5.233   5.875 -0.5947  2.9760  2.5076
  217MOL0     H28604   9.511   5.385   6.000  3.4348 -0.3905 -3.8303
  217MOL0     H28605   9.521   5.209   6.049 -1.8930 -0.3716  0.7517
  217MOL0     H28606   9.376   5.398   6.179  0.1877  0.0441 -0.3135
  217MOL0     H28607   9.197   5.509   6.288  5.2359 -2.0244 -0.4540
  217MOL0     H28608   8.808   5.800   6.278 -3.4011 -0.2071 -0.9054
  217MOL0     H28609   8.617   5.889   6.420 -3.8555 -2.9315 -1.1448
  217MOL0     H28610   8.321   5.719   6.704  0.6214 -0.1748 -0.1751
  217MOL0     H28611   8.458   5.610   6.729 -1.2978  2.2763  2.6637
  217MOL0     H28612   8.399   5.497   6.505  1.5459  0.5288  0.7023
  217MOL0     H28613   8.305   5.634   6.457  0.2555 -0.1923  0.1667
  217MOL0     H28614   8.208   5.431   6.680  1.4665 -0.7543 -1.8070
  217MOL0     H28615   8.165   5.428   6.512  0.4273 -0.6353 -0.7239
  217MOL0     H28616   8.112   5.648   6.725 -0.6145  1.8684  0.2935
  217MOL0     H28617   8.092   5.680   6.551 -0.3207  0.7115  1.3106
  217MOL0     H28618   7.884   5.614   6.668 -2.5255  0.9878 -4.2386
  217MOL0     H28619   7.926   5.447   6.648 -1.8482 -1.0368 -4.5285
  217MOL0     H28620   7.910   5.462   6.422  0.7387 -1.1892  1.1606
  217MOL0     H28621   7.905   5.635   6.424  0.8508  0.1027  1.0612
  217MOL0     H28622   7.674   5.522   6.406 -1.8231  2.6303 -0.0947
  217MOL0     H28623   7.702   5.482   6.584  3.8714 -1.2865 -0.1255
  217MOL0     H28624   7.711   5.753   6.450  1.9405 -1.8888 -0.2272
  217MOL0     H28625   7.690   5.722   6.622 -1.3949 -1.7412  0.9276
  217MOL0     H28626   8.651   5.553   6.676  1.0800  1.3335  0.6925
  217MOL0     H28627   8.839   5.470   6.549 -1.5485 -2.2393 -1.5118
  217MOL0     H28628   8.912   5.350   6.017 -0.5387  3.7310 -1.8239
  217MOL0     H28629   9.120   5.246   5.877  0.6649 -0.5324  0.2129
  217MOL0     H28630   9.584   5.008   4.768  1.0735  0.1186 -1.0494
  217MOL0     H28631   9.814   5.081   4.744  0.1198  2.8187 -1.5452
  217MOL0     H28632  10.231   4.979   4.989 -1.1422  0.6264  1.1377
  217MOL0     H28633  10.482   5.051   4.995 -1.4796 -0.8141  0.4798
  217MOL0     H28634  10.577   5.475   4.951  0.8862  1.3385  0.3378
  217MOL0     H28635  10.643   5.395   4.821 -1.7443 -0.9973 -0.3498
  217MOL0     H28636  10.822   5.519   4.936  2.6734 -1.2043 -2.7895
  217MOL0     H28637  10.765   5.451   5.085  1.1612 -3.7054  0.0178
  217MOL0     H28638  10.824   5.216   4.988 -0.6845  0.9997  0.1519
  217MOL0     H28639  10.943   5.313   5.063 -1.4068  2.3192  0.7526
  217MOL0     H28640  11.051   5.370   4.878 -0.6239 -0.2308  2.6667
  217MOL0     H28641  11.017   5.201   4.847 -1.3252  0.5077 -4.2075
  217MOL0     H28642  10.848   5.331   4.508  0.6853 -2.9778  0.6532
  217MOL0     H28643  10.378   5.454   4.906 -1.8960  1.3244  2.4174
  217MOL0     H28644  10.143   5.389   4.901  0.6740  0.2241  1.3503
  218MOL0     O28645   0.489   3.913   1.434  0.2858  0.1190  0.2738
  218MOL0     C28646   0.477   3.999   1.347  0.4536 -0.3191 -0.7682
  218MOL0     O28647   0.389   4.102   1.357 -0.6969 -0.5376 -0.2325
  218MOL0     C28648   0.338   4.120   1.482  0.3693  0.2289 -0.0725
  218MOL0     C28649   0.205   4.109   1.489 -0.3247  0.0691 -0.3735
  218MOL0     C28650   0.139   4.154   1.604 -0.1251  0.1234 -0.4182
  218MOL0     C28651   0.208   4.190   1.721 -0.5071  0.9361 -0.2060
  218MOL0     O28652   0.149   4.223   1.842 -0.4174  0.3532  0.1222
  218MOL0     C28653   0.007   4.239   1.843  1.1072  0.3617 -0.1892
  218MOL0     C28654  -0.029   4.297   1.987 -0.4512 -0.8124  1.2233
  218MOL0     C28655   0.053   4.432   2.001  1.1445  0.2402 -0.0098
  218MOL0     C28656   0.020   4.524   2.124 -0.4151  0.1873 -0.4541
  218MOL0     C28657   0.114   4.643   2.152  0.3709  0.9247  0.1884
  218MOL0     C28658   0.085   4.699   2.289  0.5514  0.0578 -0.5575
  218MOL0     C28659   0.166   4.831   2.300  0.6935 -0.1416  0.2176
  218MOL0     C28660   0.317   4.797   2.315  0.4588  0.9611  0.0723
  218MOL0     N28661   0.379   4.927   2.336 -0.2684  0.7593  0.7883
  218MOL0     C28662   0.433   5.010   2.239  0.2547 -1.4768 -1.2187
  218MOL0     C28663   0.444   5.127   2.306  0.6216 -0.5180 -0.0493
  218MOL0     C28664   0.460   5.273   2.246 -0.4432 -0.4054  0.9025
  218MOL0     C28665   0.335   5.328   2.174  0.0856  0.3112 -0.1013
  218MOL0     C28666   0.238   5.396   2.274 -0.7821 -0.6197  0.0533
  218MOL0     C28667   0.169   5.310   2.381  0.7399  0.1578  0.9388
  218MOL0     O28668   0.091   5.203   2.340 -0.4718 -0.3884  0.2947
  218MOL0     C28669  -0.026   5.224   2.269 -0.4415 -0.5603 -1.4645
  218MOL0     C28670  -0.101   5.343   2.256 -0.0346  0.7642 -0.5354
  218MOL0     C28671  -0.211   5.352   2.173 -0.4243 -1.0731  0.3206
  218MOL0     C28672  -0.264   5.240   2.117 -0.5270 -0.5404  0.5488
  218MOL0     C28673  -0.393   5.264   2.033 -0.8694 -0.4864  0.1380
  218MOL0     O28674  -0.447   5.383   2.030 -0.1670  0.3639 -0.0286
  218MOL0     C28675  -0.582   5.397   2.006 -0.6603  0.1264 -0.0897
  218MOL0     C28676  -0.658   5.338   1.904  0.1373  0.8111  0.3083
  218MOL0     C28677  -0.793   5.369   1.878  0.0906  0.3779 -0.1855
  218MOL0     C28678  -0.857   5.451   1.964 -0.0175 -0.5883  0.4942
  218MOL0     O28679  -0.990   5.478   1.945 -0.6900 -0.0366 -0.0133
  218MOL0     C28680  -1.055   5.597   1.983  0.3790  0.3583 -0.0409
  218MOL0     C28681  -1.181   5.637   1.918  0.9047 -0.4283  0.1940
  218MOL0     C28682  -1.186   5.658   1.760 -0.3594 -0.5461  0.2426
  218MOL0     C28683  -1.326   5.693   1.724  0.4418 -0.3910  1.1218
  218MOL0     C28684  -1.325   5.745   1.570 -1.2873 -0.6524  0.0143
  218MOL0     C28685  -1.462   5.740   1.498 -0.6948 -0.1355 -0.0451
  218MOL0     C28686  -1.573   5.817   1.575 -0.2765  0.9217 -0.4896
  218MOL0     C28687  -1.707   5.817   1.499  0.1385 -0.3653  0.6685
  218MOL0    Cl28688  -1.789   5.671   1.543  0.3771  0.0838 -0.0273
  218MOL0     C28689  -0.801   5.503   2.079  0.1493 -0.2607  0.7299
  218MOL0     C28690  -0.660   5.481   2.094 -0.5477  0.0143 -0.6746
  218MOL0     O28691  -0.447   5.161   1.987  0.2252 -0.2926  1.3095
  218MOL0     C28692  -0.206   5.114   2.137 -0.7669  0.0722 -0.2909
  218MOL0     C28693  -0.086   5.109   2.208  0.5009  0.3991  0.1889
  218MOL0     N28694   0.404   5.113   2.434 -0.8932  0.3252  0.5153
  218MOL0     N28695   0.364   4.996   2.452 -0.1991  0.0963 -0.2076
  218MOL0     C28696   0.347   4.193   1.714 -0.0492 -0.0411  0.0962
  218MOL0     C28697   0.413   4.161   1.588  0.0956  0.1071 -0.2651
  218MOL0     C28698   0.556   3.987   1.222  0.1938  0.2178 -0.2722
  218MOL0     C28699   0.615   3.863   1.188  1.0745 -0.0831 -0.4206
  218MOL0     C28700   0.697   3.852   1.077 -0.6995  0.4662 -0.1047
  218MOL0     C28701   0.703   3.955   0.987 -0.3560 -0.2308  0.0533
  218MOL0     O28702   0.758   3.948   0.862 -0.1787  0.9134  0.1316
  218MOL0     C28703   0.819   3.827   0.828 -0.2157 -0.0349 -0.4024
  218MOL0     C28704   0.842   3.815   0.680 -0.9851 -0.7302 -0.5034
  218MOL0     C28705   0.929   3.938   0.634 -0.5456 -0.1630 -0.3782
  218MOL0     C28706   0.988   3.910   0.490  0.0711 -0.0753 -0.1771
  218MOL0     C28707   1.078   4.019   0.456 -0.6770  0.5457  0.4103
  218MOL0     C28708   1.127   4.130   0.433  0.8319  0.9165  0.2811
  218MOL0     C28709   0.624   4.068   1.015 -0.1516  0.2083  0.2684
  218MOL0     C28710   0.556   4.087   1.127  1.1719  0.4191 -0.6967
  218MOL0     H28711   0.149   4.090   1.398 -0.6502  2.5051 -0.7448
  218MOL0     H28712   0.031   4.161   1.600 -0.0259  1.9490 -0.5600
  218MOL0     H28713  -0.052   4.148   1.830  1.6201 -0.0794  0.4632
  218MOL0     H28714  -0.025   4.310   1.767  2.0310  0.9193 -0.0693
  218MOL0     H28715   0.006   4.227   2.063  0.6197 -2.5945 -0.7873
  218MOL0     H28716  -0.134   4.330   1.985  0.3983  2.3592 -1.5194
  218MOL0     H28717   0.044   4.491   1.909 -0.4692  1.0405  0.6223
  218MOL0     H28718   0.159   4.406   2.016  0.8610 -0.6665  0.4686
  218MOL0     H28719  -0.077   4.573   2.108 -0.9652 -1.5804 -3.0535
  218MOL0     H28720   0.016   4.455   2.209  3.4736 -0.8175 -0.9291
  218MOL0     H28721   0.126   4.715   2.070  0.3002 -0.3772 -1.0203
  218MOL0     H28722   0.212   4.596   2.158 -0.6167 -1.0133  2.9654
  218MOL0     H28723   0.102   4.625   2.368 -1.2308 -0.6542 -0.7808
  218MOL0     H28724  -0.024   4.715   2.293  0.8133  2.4813 -1.4512
  218MOL0     H28725   0.157   4.906   2.220  1.6910 -0.2188  0.0257
  218MOL0     H28726   0.133   4.870   2.396 -1.5320 -1.4818  0.0649
  218MOL0     H28727   0.355   4.755   2.221  1.3529  1.4264  0.2184
  218MOL0     H28728   0.333   4.729   2.399 -1.3242  1.8223  1.1750
  218MOL0     H28729   0.466   4.990   2.137 -1.6121 -0.6180 -2.0480
  218MOL0     H28730   0.538   5.261   2.171 -1.2140 -0.3368  0.0675
  218MOL0     H28731   0.486   5.343   2.325 -1.8645 -0.6437  1.6179
  218MOL0     H28732   0.283   5.257   2.109 -3.0835  1.6951  0.7106
  218MOL0     H28733   0.368   5.399   2.097 -2.8299  1.3705 -0.5165
  218MOL0     H28734   0.283   5.483   2.322  2.5780 -0.7136 -2.6028
  218MOL0     H28735   0.150   5.434   2.221 -0.1884  1.0076  0.2013
  218MOL0     H28736   0.109   5.371   2.449  3.2737  1.4687  2.1477
  218MOL0     H28737   0.236   5.262   2.453  0.3412 -1.5064  0.2271
  218MOL0     H28738  -0.058   5.434   2.296  0.6614  0.0725  0.3221
  218MOL0     H28739  -0.254   5.451   2.161  2.5888  0.4276  0.7588
  218MOL0     H28740  -0.595   5.277   1.840  1.0207 -0.0780  1.9477
  218MOL0     H28741  -0.855   5.320   1.803  0.9938  2.1289 -2.1840
  218MOL0     H28742  -0.983   5.679   1.969  1.8136 -1.0639 -1.3572
  218MOL0     H28743  -1.084   5.596   2.089  0.1945  2.2206 -0.0375
  218MOL0     H28744  -1.217   5.726   1.970  0.1202 -1.3735  1.3549
  218MOL0     H28745  -1.253   5.564   1.957 -1.0215  0.8771 -0.8047
  218MOL0     H28746  -1.158   5.565   1.710 -2.0896 -2.4370  2.5259
  218MOL0     H28747  -1.120   5.742   1.736 -1.7987  0.4773 -0.3107
  218MOL0     H28748  -1.388   5.603   1.730 -2.6187  1.6318  2.0279
  218MOL0     H28749  -1.365   5.782   1.774 -5.0191 -1.7153 -0.0984
  218MOL0     H28750  -1.266   5.679   1.507  0.2654  0.0824  0.6516
  218MOL0     H28751  -1.284   5.846   1.560 -0.3956  0.3250  7.6323
  218MOL0     H28752  -1.486   5.634   1.493  0.1370 -0.4517  1.7641
  218MOL0     H28753  -1.457   5.771   1.393 -1.1251 -0.5033 -0.1796
  218MOL0     H28754  -1.590   5.776   1.674  1.5560 -1.3131 -1.0185
  218MOL0     H28755  -1.543   5.922   1.586 -0.7746  1.0785 -0.5795
  218MOL0     H28756  -1.676   5.830   1.395 -0.5742 -1.0572  0.3572
  218MOL0     H28757  -1.756   5.913   1.521 -0.1674 -0.1153 -0.9329
  218MOL0     H28758  -0.859   5.570   2.141  1.2156  0.8190  0.5756
  218MOL0     H28759  -0.621   5.531   2.182 -0.6590  0.3996 -0.8418
  218MOL0     H28760  -0.255   5.025   2.099 -0.9369 -1.5190  3.2043
  218MOL0     H28761  -0.029   5.017   2.219 -2.5431 -2.0950 -2.7405
  218MOL0     H28762   0.407   4.230   1.796 -0.2957  3.3825 -1.0921
  218MOL0     H28763   0.521   4.170   1.575  0.1790 -0.0202  0.3004
  218MOL0     H28764   0.593   3.781   1.255 -0.3074 -0.4588 -1.3060
  218MOL0     H28765   0.733   3.750   1.069 -1.8897 -0.1774  2.0479
  218MOL0     H28766   0.755   3.740   0.841 -2.2828  1.7270  2.2754
  218MOL0     H28767   0.915   3.813   0.880 -0.8320 -0.9665  0.5224
  218MOL0     H28768   0.905   3.726   0.679 -0.6394 -0.5921  2.2655
  218MOL0     H28769   0.752   3.796   0.620 -1.9493 -1.8981  1.2272
  218MOL0     H28770   1.006   3.966   0.706 -1.7969  0.5987  0.7276
  218MOL0     H28771   0.874   4.032   0.632  1.5404  1.2310  1.9338
  218MOL0     H28772   1.036   3.812   0.487 -1.0289 -0.6691  0.6858
  218MOL0     H28773   0.904   3.918   0.421  0.5716 -3.3737 -1.3333
  218MOL0     H28774   1.174   4.224   0.411 -0.0701  1.6671  1.3862
  218MOL0     H28775   0.619   4.142   0.935 -1.1169  0.0179  0.1388
  218MOL0     H28776   0.507   4.184   1.139 -0.3329 -0.6608  3.7291
  219MOL0     O28777   5.764   8.158  10.064 -0.4223  0.4431  0.0337
  219MOL0     C28778   5.731   8.104  10.169 -0.1267  0.4577 -0.3225
  219MOL0     O28779   5.650   8.153  10.260 -0.7818  0.5860  0.2717
  219MOL0     C28780   5.578   8.269  10.244  0.8117 -0.5368  0.4997
  219MOL0     C28781   5.465   8.273  10.167  0.4072  0.5245  1.1236
  219MOL0     C28782   5.394   8.396  10.154 -0.0308  0.6611 -0.0704
  219MOL0     C28783   5.438   8.508  10.229  0.4275 -0.0165  0.3610
  219MOL0     O28784   5.390   8.636  10.207  0.1230 -0.1764  0.1693
  219MOL0     C28785   5.325   8.673  10.082  0.7437  0.1152  0.0871
  219MOL0     C28786   5.333   8.820  10.058 -0.3933 -0.2246  0.3105
  219MOL0     C28787   5.307   8.862   9.912 -0.7887  0.7371 -0.0669
  219MOL0     C28788   5.432   8.833   9.824  1.2656 -0.0284  0.2755
  219MOL0     C28789   5.432   8.923   9.707  0.5808 -0.5797 -0.0138
  219MOL0     C28790   5.506   9.064   9.726 -0.0363  0.7139  0.2406
  219MOL0     C28791   5.406   9.172   9.774  0.4815 -0.3346 -0.9244
  219MOL0     C28792   5.434   9.310   9.723 -0.1892 -0.0883 -0.3018
  219MOL0     N28793   5.357   9.419   9.792 -0.0911 -0.4893 -0.0580
  219MOL0     C28794   5.231   9.468   9.755  0.1244  0.1384 -0.0672
  219MOL0     C28795   5.190   9.537   9.859  0.5741 -0.7208  0.4742
  219MOL0     C28796   5.060   9.610   9.872  0.2377  0.2116 -0.7020
  219MOL0     C28797   5.065   9.724   9.972  0.3705  0.1843 -0.1594
  219MOL0     C28798   5.040   9.680  10.119 -0.3807  0.0870  0.2949
  219MOL0     C28799   4.890   9.686  10.126  0.2571  0.2139  0.1554
  219MOL0     O28800   4.839   9.816  10.154  0.1871 -0.0578  0.5219
  219MOL0     C28801   4.721   9.821  10.224 -0.1198 -0.4358 -0.0412
  219MOL0     C28802   4.691   9.935  10.296  0.0629 -0.2822 -0.1789
  219MOL0     C28803   4.568   9.957  10.363 -0.0471 -0.3816 -0.0463
  219MOL0     C28804   4.479   9.840  10.375 -0.4673 -0.5532 -0.5594
  219MOL0     C28805   4.354   9.853  10.445  0.5715  0.1031  0.3270
  219MOL0     O28806   4.345   9.965  10.525  0.0068 -0.9034 -0.7609
  219MOL0     C28807   4.230   9.973  10.588  0.7458  0.6661 -1.1066
  219MOL0     C28808   4.233   9.929  10.723 -0.5118 -0.2874  0.1194
  219MOL0     C28809   4.115   9.927  10.800  0.8101  0.8941 -0.7880
  219MOL0     C28810   3.999   9.982  10.745  0.1424  0.5807  0.9529
  219MOL0     O28811   3.889  10.004  10.822  0.8309 -0.8408  0.5162
  219MOL0     C28812   3.873   9.936  10.951  0.8839 -0.2970 -1.1248
  219MOL0     C28813   3.724   9.898  10.968  0.0107 -0.1380  0.2400
  219MOL0     C28814   3.648  10.015  11.033 -0.1888  0.6725  0.7381
  219MOL0     C28815   3.504  10.009  10.999  0.8211 -0.1109 -0.3877
  219MOL0     C28816   3.400  10.072  11.087  1.9226 -0.0586 -0.0357
  219MOL0     C28817   3.260  10.050  11.009 -0.2832 -0.5076 -0.6143
  219MOL0     C28818   3.166  10.158  11.052 -0.2636  0.4259  0.1288
  219MOL0     C28819   3.138  10.128  11.203 -0.3092 -0.4511 -0.2960
  219MOL0    Cl28820   3.058   9.971  11.244 -0.2650  0.0747  0.0801
  219MOL0     C28821   4.007  10.044  10.617  0.0771 -0.7195  0.2547
  219MOL0     C28822   4.119  10.037  10.544  0.6724 -0.3435  0.5439
  219MOL0     O28823   4.269   9.761  10.441  0.7634  0.3082 -0.1649
  219MOL0     C28824   4.512   9.720  10.308 -0.2179 -0.2278 -0.1135
  219MOL0     C28825   4.636   9.711  10.234 -0.4038  0.6358  0.9789
  219MOL0     N28826   5.287   9.540   9.953  0.1336 -0.0634 -0.5360
  219MOL0     N28827   5.391   9.465   9.917  0.1338 -0.0326 -0.4489
  219MOL0     C28828   5.542   8.500  10.311 -0.1631  0.6411 -0.6604
  219MOL0     C28829   5.614   8.382  10.317  0.1628 -1.0927 -0.6819
  219MOL0     C28830   5.811   7.990  10.224 -0.1442  0.1486  0.7394
  219MOL0     C28831   5.871   7.903  10.134  0.0751  0.4871 -0.2531
  219MOL0     C28832   5.935   7.792  10.191 -0.3273 -0.4853  0.3952
  219MOL0     C28833   5.953   7.787  10.330 -0.1380 -0.2026  0.0207
  219MOL0     O28834   6.025   7.680  10.373  0.5825 -0.4392  0.4378
  219MOL0     C28835   6.166   7.712  10.382 -0.8118 -1.1195 -0.1451
  219MOL0     C28836   6.208   7.783  10.512  0.4901  0.5202 -0.7420
  219MOL0     C28837   6.178   7.693  10.620 -0.2082 -0.3011 -0.2563
  219MOL0     C28838   6.218   7.740  10.759  0.3782  0.3128 -0.6225
  219MOL0     C28839   6.369   7.725  10.786  0.2656 -0.5543 -0.2050
  219MOL0     C28840   6.484   7.695  10.809  0.2897 -0.5101  0.5280
  219MOL0     C28841   5.897   7.874  10.414  0.1526  0.1864 -0.7551
  219MOL0     C28842   5.825   7.978  10.363  0.1664 -0.1402  0.4687
  219MOL0     H28843   5.436   8.186  10.109  4.2734  0.1666 -0.5531
  219MOL0     H28844   5.306   8.397  10.092  0.9026 -0.9274 -1.4692
  219MOL0     H28845   5.222   8.634  10.086  0.1418  1.6723  0.4271
  219MOL0     H28846   5.366   8.633   9.989  1.1291 -0.3486  0.4500
  219MOL0     H28847   5.436   8.848  10.080 -0.5729  0.4461  0.3132
  219MOL0     H28848   5.264   8.870  10.126 -0.0844 -2.6029  2.5157
  219MOL0     H28849   5.293   8.970   9.916  0.8094  1.0121 -1.1510
  219MOL0     H28850   5.218   8.812   9.872  1.4760 -0.3510 -4.3367
  219MOL0     H28851   5.524   8.853   9.881 -0.1477  0.8263  2.3974
  219MOL0     H28852   5.446   8.731   9.788  2.2825 -0.1012  0.8323
  219MOL0     H28853   5.330   8.943   9.673 -1.2713 -0.4271  4.7786
  219MOL0     H28854   5.484   8.876   9.623  1.3928  1.9902 -1.0510
  219MOL0     H28855   5.553   9.092   9.632  0.1508  1.1713  0.4654
  219MOL0     H28856   5.574   9.038   9.808 -1.4581 -1.2362  0.8737
  219MOL0     H28857   5.302   9.146   9.756  0.8285 -0.0835 -3.7155
  219MOL0     H28858   5.415   9.188   9.882 -2.0121  1.4742 -0.8911
  219MOL0     H28859   5.420   9.307   9.614 -0.7304  0.8836 -0.2731
  219MOL0     H28860   5.540   9.335   9.736 -0.3183  0.4696 -0.2758
  219MOL0     H28861   5.157   9.445   9.679  0.9971 -2.0852 -0.3370
  219MOL0     H28862   4.978   9.541   9.891 -1.5146  2.3070 -0.2652
  219MOL0     H28863   5.038   9.656   9.775 -1.9364  1.3225  0.2469
  219MOL0     H28864   5.001   9.807   9.940  0.6542  0.2753 -0.4989
  219MOL0     H28865   5.167   9.761   9.955  0.2917  0.3366 -0.3068
  219MOL0     H28866   5.090   9.585  10.140  1.1714  1.0961  1.4927
  219MOL0     H28867   5.083   9.755  10.186 -1.4572  3.0783 -2.1394
  219MOL0     H28868   4.863   9.610  10.199 -0.2151  0.4220  0.1993
  219MOL0     H28869   4.855   9.651  10.028  0.3521  0.7136 -0.0597
  219MOL0     H28870   4.767  10.012  10.282  1.7939 -1.8264  0.3396
  219MOL0     H28871   4.538  10.046  10.417 -0.6128 -2.6351  3.6837
  219MOL0     H28872   4.323   9.883  10.762 -1.5327 -0.9562  1.7800
  219MOL0     H28873   4.118   9.896  10.904  1.1380  0.4120 -0.9351
  219MOL0     H28874   3.893   9.999  11.038 -2.5567  3.3930 -2.7394
  219MOL0     H28875   3.924   9.839  10.963 -2.6008 -1.9826  2.9719
  219MOL0     H28876   3.712   9.808  11.029  0.2662 -0.4139 -0.1150
  219MOL0     H28877   3.679   9.875  10.871  1.5136 -0.2005 -0.4571
  219MOL0     H28878   3.680  10.108  10.984 -0.7942  1.0610  1.0759
  219MOL0     H28879   3.666  10.020  11.141  0.4923  0.0732  0.6564
  219MOL0     H28880   3.497  10.034  10.892 -0.5347 -1.8769 -0.7514
  219MOL0     H28881   3.474   9.904  11.005 -0.2735  0.2478  0.6466
  219MOL0     H28882   3.421  10.179  11.101  0.7486  0.2298 -0.3469
  219MOL0     H28883   3.391  10.018  11.182 -0.8618  0.9352  0.3744
  219MOL0     H28884   3.221   9.949  11.024 -0.0412 -0.5542 -0.2687
  219MOL0     H28885   3.277  10.059  10.902 -0.0067  0.0825 -0.5270
  219MOL0     H28886   3.207  10.254  11.022 -0.2842  0.5806  0.5761
  219MOL0     H28887   3.069  10.155  11.003  0.1407  1.1061 -0.7267
  219MOL0     H28888   3.086  10.217  11.240  2.5407  0.5222  1.6397
  219MOL0     H28889   3.226  10.141  11.267 -2.8051 -2.2351  3.9510
  219MOL0     H28890   3.916  10.089  10.578  0.4098 -2.1620 -2.3938
  219MOL0     H28891   4.132  10.070  10.441  0.8113  0.0824  0.6940
  219MOL0     H28892   4.448   9.634  10.325  0.3592 -0.7556 -0.5713
  219MOL0     H28893   4.664   9.620  10.182  1.2682  2.2573 -1.1304
  219MOL0     H28894   5.569   8.578  10.382 -2.1743 -0.0440  0.9600
  219MOL0     H28895   5.713   8.377  10.360  0.9078  2.1276 -1.7688
  219MOL0     H28896   5.848   7.925  10.030 -3.0853 -0.0435  0.2610
  219MOL0     H28897   5.971   7.715  10.124 -1.6019 -3.1736  2.6120
  219MOL0     H28898   6.191   7.784  10.303 -2.4917 -0.4465 -0.0953
  219MOL0     H28899   6.221   7.619  10.364 -0.7207 -1.1217  0.1429
  219MOL0     H28900   6.316   7.804  10.511  0.6269  0.4208  2.0472
  219MOL0     H28901   6.152   7.877  10.521 -0.1044 -0.0199  2.3526
  219MOL0     H28902   6.229   7.598  10.605  0.3482  0.2941 -2.3896
  219MOL0     H28903   6.069   7.685  10.630 -0.2417 -1.1766 -1.2230
  219MOL0     H28904   6.196   7.845  10.780  0.5335  0.6387 -1.9477
  219MOL0     H28905   6.154   7.679  10.824 -4.1468  1.0402 -3.8525
  219MOL0     H28906   6.578   7.644  10.819 -0.2273 -2.0021 -1.4676
  219MOL0     H28907   5.901   7.867  10.522 -0.6892  0.6229 -0.6860
  219MOL0     H28908   5.779   8.050  10.430 -3.0834 -0.0163 -1.6995
  220MOL0     O28909   7.095   2.925   4.334  0.1612 -0.6582  0.1499
  220MOL0     C28910   6.986   2.906   4.284 -0.6162 -0.0664 -0.4168
  220MOL0     O28911   6.961   2.875   4.159 -0.4646 -0.1872  0.1625
  220MOL0     C28912   7.049   2.878   4.051  0.1817 -0.2881 -0.8227
  220MOL0     C28913   7.163   2.957   4.043  0.3973  0.7335  0.5981
  220MOL0     C28914   7.223   2.978   3.916  0.6153  0.9199  0.2955
  220MOL0     C28915   7.180   2.896   3.807  0.1173  0.8417  0.2178
  220MOL0     O28916   7.238   2.899   3.687 -0.2296  0.4096  0.6259
  220MOL0     C28917   7.270   3.033   3.645 -0.1906  0.2600 -0.0174
  220MOL0     C28918   7.310   3.022   3.493  0.2554  0.2233  0.1403
  220MOL0     C28919   7.182   3.004   3.404 -0.4408 -0.1376  0.2094
  220MOL0     C28920   7.100   3.139   3.376 -0.5035  0.5783  0.1391
  220MOL0     C28921   7.043   3.111   3.238  0.2632  0.4759  0.5183
  220MOL0     C28922   6.919   3.018   3.246  0.3634 -0.9530 -0.1458
  220MOL0     C28923   6.857   3.014   3.104 -0.9514 -0.6722 -0.3885
  220MOL0     C28924   6.706   3.029   3.118  0.4517 -0.2341 -0.5993
  220MOL0     N28925   6.625   3.000   2.996  0.1997 -0.4285  0.1428
  220MOL0     C28926   6.577   2.880   2.965 -0.3360  0.4344  0.1625
  220MOL0     C28927   6.498   2.890   2.851 -0.9351 -0.2490 -0.8354
  220MOL0     C28928   6.442   2.776   2.771 -0.0547 -0.2626 -0.2351
  220MOL0     C28929   6.317   2.835   2.698  0.6816  0.3989  0.6183
  220MOL0     C28930   6.256   2.738   2.596  0.2770  0.0795  0.3273
  220MOL0     C28931   6.125   2.794   2.558  0.4223  0.2920 -0.2564
  220MOL0     O28932   6.009   2.715   2.598 -0.1639  0.3461  0.0928
  220MOL0     C28933   5.981   2.603   2.523  0.1262 -0.5304 -0.4051
  220MOL0     C28934   5.881   2.522   2.576  0.0956  0.3744 -0.0275
  220MOL0     C28935   5.832   2.404   2.516  0.1919 -0.1319  0.6298
  220MOL0     C28936   5.903   2.353   2.408 -0.0658  0.6889 -0.2631
  220MOL0     C28937   5.847   2.235   2.349 -0.2188  0.0887  0.5372
  220MOL0     O28938   5.860   2.221   2.211  0.1471  0.3636  0.1826
  220MOL0     C28939   5.791   2.115   2.159  0.5905 -0.2817  0.6385
  220MOL0     C28940   5.655   2.091   2.195  0.5514  0.9011 -0.0730
  220MOL0     C28941   5.580   1.992   2.128  0.0497  0.2217 -0.7938
  220MOL0     C28942   5.634   1.915   2.022  0.4983  0.6156  0.1485
  220MOL0     O28943   5.555   1.809   1.988 -0.5470 -0.4771  0.3225
  220MOL0     C28944   5.609   1.699   1.912  0.0178  0.5690  0.8024
  220MOL0     C28945   5.517   1.582   1.907  0.6078  0.7735  0.2934
  220MOL0     C28946   5.559   1.483   1.811 -0.6363  0.5089  0.0026
  220MOL0     C28947   5.504   1.342   1.824  0.0595 -0.0170  0.2140
  220MOL0     C28948   5.550   1.245   1.722 -0.0727 -0.1077  0.8343
  220MOL0     C28949   5.543   1.097   1.766 -0.7311  0.2028  0.2649
  220MOL0     C28950   5.614   0.996   1.676 -0.1291 -0.1408 -0.1023
  220MOL0     C28951   5.549   0.981   1.538 -1.1903 -0.4344  0.1099
  220MOL0    Cl28952   5.640   0.850   1.476 -0.3537  0.6401  0.3053
  220MOL0     C28953   5.767   1.940   1.983  0.5511  0.1902  0.6994
  220MOL0     C28954   5.843   2.033   2.056 -0.1306  0.1463 -1.2371
  220MOL0     O28955   5.811   2.141   2.426  0.5763 -0.3208  0.0325
  220MOL0     C28956   5.989   2.449   2.337  0.3959 -0.1866 -0.3187
  220MOL0     C28957   6.033   2.564   2.400 -0.4058 -0.6423 -0.1021
  220MOL0     N28958   6.511   3.019   2.816  0.0185  0.2513  0.1501
  220MOL0     N28959   6.584   3.086   2.904  0.0027  0.3689 -0.1494
  220MOL0     C28960   7.082   2.802   3.822  0.5820  0.4417  0.8268
  220MOL0     C28961   7.020   2.788   3.950 -0.4112  0.2843 -0.8393
  220MOL0     C28962   6.871   2.911   4.374  0.9994 -1.0420  0.7602
  220MOL0     C28963   6.887   2.949   4.507 -0.4203 -0.7848 -0.8911
  220MOL0     C28964   6.785   2.945   4.599 -0.4632 -0.7649  0.3788
  220MOL0     C28965   6.658   2.905   4.546  0.2522 -0.1467 -0.4162
  220MOL0     O28966   6.537   2.882   4.605  0.0973  0.0884  0.2279
  220MOL0     C28967   6.519   2.889   4.741  1.2999 -0.5989 -0.5494
  220MOL0     C28968   6.380   2.840   4.768  0.6183 -0.4974 -0.1785
  220MOL0     C28969   6.345   2.863   4.917  0.8780  0.7086 -0.4838
  220MOL0     C28970   6.195   2.859   4.930  0.1528  0.3921  0.9685
  220MOL0     C28971   6.169   2.810   5.064  0.0027 -0.7687  0.8831
  220MOL0     C28972   6.138   2.793   5.183  1.2268  0.2850  0.2446
  220MOL0     C28973   6.641   2.879   4.413 -0.7652  0.5685  0.0275
  220MOL0     C28974   6.744   2.884   4.328 -0.2613 -0.4040 -0.5081
  220MOL0     H28975   7.203   3.008   4.130  0.9688 -1.9938  2.0505
  220MOL0     H28976   7.308   3.046   3.918  1.0274  0.4044  1.2937
  220MOL0     H28977   7.352   3.077   3.703 -1.0563  1.7481  0.1421
  220MOL0     H28978   7.185   3.099   3.663 -1.8358 -2.3448  2.6233
  220MOL0     H28979   7.375   2.935   3.483 -1.2343 -1.1899  1.9382
  220MOL0     H28980   7.363   3.116   3.473  1.1636 -0.4308 -0.6398
  220MOL0     H28981   7.121   2.926   3.451  0.4031 -0.7132  0.3642
  220MOL0     H28982   7.208   2.955   3.310  0.7099 -3.0127  1.8999
  220MOL0     H28983   7.022   3.148   3.452 -0.8259 -0.1689 -0.0893
  220MOL0     H28984   7.170   3.222   3.365  0.5571 -0.5754 -3.6297
  220MOL0     H28985   7.109   3.058   3.168 -0.5868  1.3443 -0.9823
  220MOL0     H28986   7.010   3.206   3.197 -0.7177 -0.4550 -0.9185
  220MOL0     H28987   6.845   3.075   3.303 -1.6742 -3.6268  0.0965
  220MOL0     H28988   6.939   2.920   3.289  0.4219 -1.7235 -1.8568
  220MOL0     H28989   6.892   3.090   3.033  3.0439 -1.1933  0.7834
  220MOL0     H28990   6.893   2.921   3.059  0.5975 -0.2384 -0.1117
  220MOL0     H28991   6.671   3.127   3.151  0.3331 -0.5874  0.3427
  220MOL0     H28992   6.685   2.961   3.201  2.3999 -0.9896 -0.6651
  220MOL0     H28993   6.604   2.789   3.018  0.7282  1.6775  1.8392
  220MOL0     H28994   6.414   2.686   2.825 -1.1881 -0.6967 -1.4841
  220MOL0     H28995   6.516   2.747   2.695 -0.2173 -1.7495  0.1527
  220MOL0     H28996   6.332   2.930   2.645 -3.5238  1.5342  1.1069
  220MOL0     H28997   6.247   2.868   2.775  1.1098 -1.4212  1.8774
  220MOL0     H28998   6.329   2.735   2.515  2.3098  0.1799  2.0560
  220MOL0     H28999   6.246   2.636   2.633  0.2407 -0.5918 -1.4666
  220MOL0     H29000   6.123   2.801   2.449  1.5725 -0.8638 -0.3835
  220MOL0     H29001   6.111   2.896   2.592  2.9189  0.7384 -0.3982
  220MOL0     H29002   5.832   2.570   2.661  0.9270  2.0224 -0.4254
  220MOL0     H29003   5.750   2.353   2.565 -0.3995 -0.7214 -0.9189
  220MOL0     H29004   5.606   2.128   2.284  1.3106 -1.9122  1.6359
  220MOL0     H29005   5.481   1.969   2.166  0.2053  0.6420 -0.1165
  220MOL0     H29006   5.700   1.660   1.960  2.5232  4.0889 -0.7093
  220MOL0     H29007   5.619   1.739   1.811 -0.5282  0.9051  0.8797
  220MOL0     H29008   5.419   1.619   1.876  0.9536  1.3562 -0.1218
  220MOL0     H29009   5.518   1.532   2.004 -3.0883  1.0157  0.6140
  220MOL0     H29010   5.667   1.471   1.810 -0.2373  3.4270 -1.1361
  220MOL0     H29011   5.543   1.523   1.710  0.9328  1.4472  0.0946
  220MOL0     H29012   5.523   1.300   1.924 -0.0438 -4.5645 -1.4330
  220MOL0     H29013   5.395   1.349   1.821  0.0962  2.2658  1.8394
  220MOL0     H29014   5.645   1.271   1.675  0.1276  0.9380  1.7718
  220MOL0     H29015   5.476   1.252   1.642  0.6638  2.5110  0.3113
  220MOL0     H29016   5.441   1.062   1.781 -0.3014 -2.5917 -2.4532
  220MOL0     H29017   5.593   1.079   1.862 -0.1641 -0.5912 -0.1631
  220MOL0     H29018   5.718   1.029   1.672  0.5815 -1.9814  1.4632
  220MOL0     H29019   5.615   0.896   1.721  2.1312 -0.1381 -0.0520
  220MOL0     H29020   5.564   1.069   1.474  2.2032  0.6552  2.1445
  220MOL0     H29021   5.442   0.958   1.537 -1.3246  0.1536  0.2809
  220MOL0     H29022   5.815   1.870   1.915  0.0671  1.0000 -0.4973
  220MOL0     H29023   5.948   2.046   2.029 -0.1717  0.5486 -1.2116
  220MOL0     H29024   6.021   2.416   2.239 -2.8822 -2.4413 -0.8196
  220MOL0     H29025   6.110   2.625   2.355  0.1567 -1.5577 -0.4147
  220MOL0     H29026   7.048   2.724   3.755  1.9131 -0.4440  1.1271
  220MOL0     H29027   6.941   2.716   3.970 -0.9632  1.3140  0.8500
  220MOL0     H29028   6.985   2.985   4.539 -0.4177 -0.0099 -1.7220
  220MOL0     H29029   6.801   2.970   4.703 -0.6515 -1.2029  0.5154
  220MOL0     H29030   6.534   2.991   4.779  0.3711 -0.3558 -0.8029
  220MOL0     H29031   6.582   2.823   4.802  0.6313 -1.6383 -0.9582
  220MOL0     H29032   6.310   2.893   4.703 -0.3103 -3.0743 -1.3994
  220MOL0     H29033   6.375   2.734   4.743 -0.9114 -1.4607  3.5528
  220MOL0     H29034   6.374   2.963   4.950  1.2797  0.1082  1.0779
  220MOL0     H29035   6.403   2.796   4.980  0.7249  0.8949 -0.1457
  220MOL0     H29036   6.150   2.956   4.909  1.2843  0.9014  0.8350
  220MOL0     H29037   6.153   2.786   4.860  4.2172 -1.0175 -0.2945
  220MOL0     H29038   6.093   2.767   5.276 -1.0359 -0.9683 -1.1165
  220MOL0     H29039   6.547   2.844   4.371 -2.3886  5.4141 -1.0638
  220MOL0     H29040   6.722   2.862   4.224  1.2194 -5.2449 -0.0039
  221MOL0     O29041  11.316   9.295   5.957  0.1061 -0.3675 -0.0016
  221MOL0     C29042  11.434   9.258   5.989  0.5485 -0.1139 -0.2662
  221MOL0     O29043  11.483   9.134   5.986  0.4543  1.0956  0.2773
  221MOL0     C29044  11.399   9.033   5.965 -0.2441  1.0060 -0.1648
  221MOL0     C29045  11.331   9.012   5.842 -0.3133  0.4751  0.2360
  221MOL0     C29046  11.248   8.894   5.821 -0.1979 -0.8738  0.4666
  221MOL0     C29047  11.225   8.804   5.927 -0.2971 -0.5220 -0.7017
  221MOL0     O29048  11.150   8.687   5.928  0.8113 -0.6861 -0.5928
  221MOL0     C29049  11.081   8.665   5.803  0.4436  0.1496 -0.3486
  221MOL0     C29050  11.016   8.527   5.823  0.0579 -0.5419  0.6770
  221MOL0     C29051  10.887   8.528   5.890  0.5918 -0.2089 -0.0713
  221MOL0     C29052  10.832   8.383   5.896  0.3672  0.9562  0.3580
  221MOL0     C29053  10.690   8.358   5.932 -0.3543  0.6427 -0.3677
  221MOL0     C29054  10.645   8.207   5.954 -0.3395 -0.3609  0.1160
  221MOL0     C29055  10.493   8.205   5.998 -0.1831  0.3165  0.4501
  221MOL0     C29056  10.494   8.188   6.148  0.2343 -0.0900  0.5838
  221MOL0     N29057  10.362   8.169   6.202  0.5499  0.2364  0.0741
  221MOL0     C29058  10.278   8.059   6.184  0.3746  0.0907 -0.0635
  221MOL0     C29059  10.155   8.102   6.230 -0.3450  0.1242  0.0505
  221MOL0     C29060  10.027   8.031   6.230 -0.1283  0.6688  0.3870
  221MOL0     C29061   9.958   8.057   6.368 -0.3018 -0.3880  0.0977
  221MOL0     C29062   9.870   7.938   6.409  0.3758 -1.3978 -0.3313
  221MOL0     C29063   9.736   7.941   6.343 -0.2033 -1.1498 -0.0407
  221MOL0     O29064   9.669   7.832   6.396 -0.2368  0.7692 -0.2739
  221MOL0     C29065   9.534   7.828   6.371 -0.1110  0.7039  0.1426
  221MOL0     C29066   9.467   7.888   6.267 -0.0326 -0.2577 -0.6604
  221MOL0     C29067   9.333   7.854   6.249 -0.2733 -1.0338  0.7712
  221MOL0     C29068   9.272   7.762   6.335  0.1443  0.2134 -0.3645
  221MOL0     C29069   9.134   7.700   6.302  0.6216 -0.8273 -0.5433
  221MOL0     O29070   9.055   7.779   6.219 -0.1046 -0.2121  0.7595
  221MOL0     C29071   8.922   7.752   6.215  0.0621 -0.1514 -0.2794
  221MOL0     C29072   8.883   7.688   6.092  0.3807  0.2087 -0.5635
  221MOL0     C29073   8.746   7.673   6.066  0.2457  0.3471  0.1673
  221MOL0     C29074   8.656   7.719   6.164  0.5953 -0.2837  0.1465
  221MOL0     O29075   8.520   7.695   6.168 -0.0559  0.3634 -0.4170
  221MOL0     C29076   8.447   7.610   6.070 -0.0014 -0.0791  1.1762
  221MOL0     C29077   8.490   7.466   6.067 -0.1958 -0.4767 -0.4863
  221MOL0     C29078   8.422   7.399   5.948  0.0746  0.1340 -0.9908
  221MOL0     C29079   8.477   7.255   5.942 -0.0708  0.1336 -0.0519
  221MOL0     C29080   8.451   7.153   6.065 -0.1195 -0.3385 -0.0743
  221MOL0     C29081   8.510   7.008   6.048 -0.3968 -0.5954 -0.0599
  221MOL0     C29082   8.666   7.019   6.041 -0.2792  0.4939  0.2574
  221MOL0     C29083   8.746   7.059   6.173 -0.1562  0.5904 -0.5121
  221MOL0    Cl29084   8.708   6.961   6.321  0.0907  0.0411 -0.3226
  221MOL0     C29085   8.696   7.799   6.269  1.7111  0.3359  0.3377
  221MOL0     C29086   8.833   7.806   6.299 -0.2093  0.4856 -0.7831
  221MOL0     O29087   9.094   7.613   6.372  0.4014  0.4221 -0.3544
  221MOL0     C29088   9.344   7.706   6.440  0.5567  0.4184  0.5674
  221MOL0     C29089   9.476   7.733   6.447 -0.2260 -0.3469  0.2814
  221MOL0     N29090  10.173   8.236   6.279  0.3747  0.4346  0.0029
  221MOL0     N29091  10.294   8.274   6.254  0.2046  0.2965  0.0045
  221MOL0     C29092  11.303   8.816   6.049  0.3172 -0.3078 -0.3119
  221MOL0     C29093  11.381   8.929   6.067 -0.6175  0.3914 -0.3002
  221MOL0     C29094  11.524   9.357   6.051  0.0915 -0.1758 -0.1338
  221MOL0     C29095  11.477   9.457   6.140  0.7386 -0.1268  0.4849
  221MOL0     C29096  11.570   9.547   6.185 -0.2246 -0.0408 -0.2242
  221MOL0     C29097  11.706   9.548   6.153 -0.2488  0.2580 -0.4087
  221MOL0     O29098  11.798   9.651   6.177 -0.6202 -0.0058 -0.0832
  221MOL0     C29099  11.758   9.775   6.107 -1.2511 -0.5797 -0.0751
  221MOL0     C29100  11.878   9.868   6.089 -0.7325 -0.5907 -0.5806
  221MOL0     C29101  11.982   9.822   5.978 -0.1455 -0.6543  0.1300
  221MOL0     C29102  12.083   9.922   5.911 -0.0456  0.2271 -0.1801
  221MOL0     C29103  12.195   9.860   5.840 -0.1307  0.9759 -0.2625
  221MOL0     C29104  12.294   9.808   5.780 -0.9267 -0.4810 -0.0178
  221MOL0     C29105  11.745   9.446   6.078 -0.1596  0.4367  0.5233
  221MOL0     C29106  11.659   9.351   6.025  0.4913  0.0096 -0.4385
  221MOL0     H29107  11.341   9.083   5.760 -2.1306 -1.5471 -1.9126
  221MOL0     H29108  11.201   8.886   5.723  1.0019 -0.2002 -0.1864
  221MOL0     H29109  11.148   8.666   5.717 -0.6647  1.5515 -1.2534
  221MOL0     H29110  11.002   8.739   5.784  2.0631  2.2564  0.7499
  221MOL0     H29111  11.086   8.472   5.885  1.2726  0.0374 -0.1488
  221MOL0     H29112  11.011   8.483   5.722  0.3240  1.2661 -0.1685
  221MOL0     H29113  10.820   8.593   5.832 -1.5648 -3.4360 -1.5493
  221MOL0     H29114  10.888   8.579   5.986  0.1577 -2.4865  1.2142
  221MOL0     H29115  10.850   8.346   5.794 -1.8220  2.2062 -0.5463
  221MOL0     H29116  10.904   8.337   5.964  0.7857 -0.2963 -0.8773
  221MOL0     H29117  10.626   8.402   5.855 -0.9224  0.8494  0.2102
  221MOL0     H29118  10.674   8.405   6.030 -0.6390 -0.5655  0.1900
  221MOL0     H29119  10.716   8.159   6.022  1.2500 -0.7026 -1.7007
  221MOL0     H29120  10.661   8.156   5.859  0.2786  2.1230 -1.2119
  221MOL0     H29121  10.443   8.298   5.970 -1.0210 -0.3063 -0.1762
  221MOL0     H29122  10.443   8.123   5.947 -3.7946  2.1823  0.6660
  221MOL0     H29123  10.521   8.273   6.211 -3.3838 -0.7089  3.3345
  221MOL0     H29124  10.560   8.106   6.178 -0.3901 -0.8598 -0.0769
  221MOL0     H29125  10.310   7.964   6.143 -0.5914 -0.1348 -0.3237
  221MOL0     H29126  10.041   7.927   6.201 -2.2970  0.5497 -0.4202
  221MOL0     H29127   9.966   8.073   6.150  1.7449 -0.4182 -1.7495
  221MOL0     H29128   9.909   8.154   6.377  3.0960  1.3041  2.9981
  221MOL0     H29129  10.040   8.057   6.440  2.2054 -2.1421 -2.5214
  221MOL0     H29130   9.926   7.846   6.399  2.5438 -0.1614 -0.1576
  221MOL0     H29131   9.850   7.957   6.515  2.5370  1.6139 -0.3437
  221MOL0     H29132   9.746   7.945   6.234  2.3254  2.8286  0.1108
  221MOL0     H29133   9.694   8.037   6.374  3.7242  1.0633 -0.7773
  221MOL0     H29134   9.522   7.959   6.207  2.3737  1.0582  2.7898
  221MOL0     H29135   9.269   7.911   6.183  0.9638 -2.1435 -1.5071
  221MOL0     H29136   8.950   7.645   6.019 -0.8985 -2.4668 -0.2844
  221MOL0     H29137   8.715   7.609   5.984  1.2334  0.7539 -0.5410
  221MOL0     H29138   8.461   7.647   5.968 -1.0739  1.2798  1.4891
  221MOL0     H29139   8.340   7.616   6.095  0.3678 -0.3370  2.9015
  221MOL0     H29140   8.459   7.419   6.161  1.1034  1.0031  0.7347
  221MOL0     H29141   8.597   7.448   6.053  0.1284  0.3656  0.7224
  221MOL0     H29142   8.444   7.444   5.851  4.4261  0.3674 -0.1114
  221MOL0     H29143   8.314   7.387   5.956 -0.1786  2.3399 -0.6717
  221MOL0     H29144   8.436   7.204   5.854  1.0168 -1.5546  0.3712
  221MOL0     H29145   8.574   7.283   5.899 -1.0508  1.3431 -1.5727
  221MOL0     H29146   8.346   7.151   6.094 -0.2247 -0.9383 -0.4892
  221MOL0     H29147   8.483   7.208   6.154 -2.6003  1.4182 -0.1619
  221MOL0     H29148   8.476   6.962   5.955 -0.8670  0.2208 -0.3039
  221MOL0     H29149   8.480   6.937   6.126  1.7380 -0.3047  1.0998
  221MOL0     H29150   8.714   6.925   6.015 -1.5470  0.4268 -2.0898
  221MOL0     H29151   8.692   7.084   5.957  0.0625 -2.5656 -2.1760
  221MOL0     H29152   8.725   7.165   6.193  1.2569  0.6602  0.7246
  221MOL0     H29153   8.853   7.044   6.156 -0.6257 -0.1539 -3.3419
  221MOL0     H29154   8.623   7.850   6.331  2.9627 -0.1331  2.3020
  221MOL0     H29155   8.879   7.846   6.388  2.3818 -0.5521 -1.5756
  221MOL0     H29156   9.303   7.623   6.498 -4.5015  3.0239  1.3570
  221MOL0     H29157   9.534   7.702   6.534  0.7784  2.0361  0.5504
  221MOL0     H29158  11.302   8.748   6.133 -1.8805  0.5504  0.4381
  221MOL0     H29159  11.434   8.938   6.161  0.5473  3.0816 -1.0981
  221MOL0     H29160  11.374   9.482   6.162  1.6428  2.9232  1.8038
  221MOL0     H29161  11.538   9.634   6.241 -2.0328  0.4906 -1.9733
  221MOL0     H29162  11.684   9.831   6.165  0.6352  1.3674  0.5974
  221MOL0     H29163  11.715   9.745   6.011  1.0680 -1.1574 -1.0123
  221MOL0     H29164  11.838   9.966   6.065 -0.6026 -0.4384 -0.1903
  221MOL0     H29165  11.937   9.881   6.181  0.3873  5.1652 -1.7821
  221MOL0     H29166  11.920   9.770   5.904 -1.1151 -1.9204  1.7380
  221MOL0     H29167  12.052   9.756   6.030  0.0417 -0.1046  0.5881
  221MOL0     H29168  12.023   9.979   5.839 -0.3990  4.1010  2.8798
  221MOL0     H29169  12.129   9.990   5.983 -1.3402 -1.0487  1.9497
  221MOL0     H29170  12.371   9.754   5.731 -1.5693 -1.4685  0.0231
  221MOL0     H29171  11.852   9.453   6.061  0.1722  0.5811  2.3941
  221MOL0     H29172  11.687   9.287   5.942 -0.4380  0.1828 -0.9041
  222MOL0     O29173   0.237   6.839   5.080 -0.8528  0.0608 -1.2057
  222MOL0     C29174   0.231   6.934   4.996  0.2032 -0.8234 -0.0717
  222MOL0     O29175   0.234   6.919   4.858 -1.1347  0.1224 -0.3888
  222MOL0     C29176   0.235   6.792   4.812 -0.4843  0.2854  0.5179
  222MOL0     C29177   0.136   6.697   4.838  1.0813 -0.6357 -0.4389
  222MOL0     C29178   0.151   6.569   4.794  0.1376 -0.0594  0.7090
  222MOL0     C29179   0.252   6.533   4.706 -0.0728 -0.2252 -0.4004
  222MOL0     O29180   0.262   6.392   4.677  0.0621 -0.3106 -0.9251
  222MOL0     C29181   0.156   6.312   4.625 -0.4890  0.4767 -0.2257
  222MOL0     C29182   0.187   6.159   4.631 -0.4460  0.4844  0.2525
  222MOL0     C29183   0.193   6.124   4.775  0.4291  0.0342 -0.2525
  222MOL0     C29184   0.150   5.973   4.790  0.5772 -0.5313 -0.8548
  222MOL0     C29185   0.158   5.921   4.928  0.2614 -0.8350 -0.1318
  222MOL0     C29186   0.097   5.780   4.948 -0.2337 -0.3007 -1.6336
  222MOL0     C29187   0.120   5.685   4.834  0.1479 -0.7163  0.0671
  222MOL0     C29188   0.027   5.563   4.842 -0.1429 -0.6599 -0.6232
  222MOL0     N29189  -0.116   5.594   4.819  0.4733  0.4217  0.3143
  222MOL0     C29190  -0.169   5.659   4.714  1.0800 -0.4431 -0.7699
  222MOL0     C29191  -0.289   5.698   4.748 -0.4067  0.5372 -0.2376
  222MOL0     C29192  -0.394   5.774   4.677  0.5796  0.8856  0.1787
  222MOL0     C29193  -0.485   5.665   4.602  0.2184 -0.1536 -0.2532
  222MOL0     C29194  -0.593   5.744   4.518 -0.8174  0.3247  1.4775
  222MOL0     C29195  -0.677   5.647   4.440  0.2116 -0.6860 -0.3593
  222MOL0     O29196  -0.625   5.538   4.360 -0.3553 -0.1185  0.3328
  222MOL0     C29197  -0.717   5.456   4.300  0.2792 -1.0272  0.2973
  222MOL0     C29198  -0.656   5.342   4.236  0.1145 -0.6760 -0.8485
  222MOL0     C29199  -0.718   5.253   4.158 -0.6528  0.0456 -0.0454
  222MOL0     C29200  -0.855   5.262   4.148  0.9114 -0.5711 -0.7119
  222MOL0     C29201  -0.937   5.166   4.066  0.1764 -0.9201  0.3033
  222MOL0     O29202  -1.081   5.184   4.065  0.5458  1.1166 -0.5536
  222MOL0     C29203  -1.161   5.120   3.970 -0.0002 -0.3094 -0.4673
  222MOL0     C29204  -1.303   5.130   3.987 -0.3522  0.1963 -0.3547
  222MOL0     C29205  -1.393   5.103   3.892  0.4629 -0.9530  0.5163
  222MOL0     C29206  -1.348   5.063   3.768 -0.3411  0.2798  0.2667
  222MOL0     O29207  -1.429   5.013   3.664 -0.1564 -0.6520  0.4655
  222MOL0     C29208  -1.577   5.016   3.691  0.1740  0.5369  0.2924
  222MOL0     C29209  -1.659   4.978   3.562  0.6785 -0.0589  0.2535
  222MOL0     C29210  -1.793   4.932   3.599 -0.8772 -0.7262 -1.2229
  222MOL0     C29211  -1.866   4.893   3.480  0.3910  0.3258  0.4030
  222MOL0     C29212  -2.009   4.857   3.509 -0.7348 -0.7595 -0.2761
  222MOL0     C29213  -2.085   4.821   3.378 -0.7326 -0.9149 -0.5041
  222MOL0     C29214  -2.236   4.778   3.398  0.6340  0.8248 -0.8319
  222MOL0     C29215  -2.295   4.732   3.268  0.0506 -0.0392 -0.6717
  222MOL0    Cl29216  -2.246   4.559   3.248 -0.5836  0.1736 -0.7319
  222MOL0     C29217  -1.210   5.053   3.752  0.0250  0.3971  0.0100
  222MOL0     C29218  -1.118   5.086   3.845  1.1758 -0.0043 -0.4775
  222MOL0     O29219  -0.873   5.087   3.999 -0.4790  0.2189  0.1022
  222MOL0     C29220  -0.920   5.369   4.221  0.2719  0.0441 -0.2810
  222MOL0     C29221  -0.850   5.472   4.287  0.6915 -0.1253 -0.9701
  222MOL0     N29222  -0.311   5.656   4.880 -0.0540  0.1056 -0.2589
  222MOL0     N29223  -0.210   5.586   4.920 -0.2370 -1.0533  0.1355
  222MOL0     C29224   0.354   6.624   4.699 -0.5609 -0.3184 -0.1133
  222MOL0     C29225   0.354   6.752   4.746  0.5316 -0.5469  0.6115
  222MOL0     C29226   0.250   7.070   5.044 -0.7416 -0.8138 -0.5835
  222MOL0     C29227   0.237   7.188   4.969  1.1701 -0.3136 -0.3726
  222MOL0     C29228   0.270   7.311   5.008 -0.5060 -1.1265 -0.5219
  222MOL0     C29229   0.317   7.320   5.146 -0.8473  0.1545 -0.8738
  222MOL0     O29230   0.383   7.432   5.201 -0.6430 -0.3384 -0.7214
  222MOL0     C29231   0.388   7.548   5.118 -0.3960 -0.3879  0.3397
  222MOL0     C29232   0.446   7.659   5.209 -0.5264  0.7094  0.1089
  222MOL0     C29233   0.357   7.699   5.328 -0.4132  0.2351  0.5380
  222MOL0     C29234   0.418   7.806   5.426 -0.2280  0.9408 -0.0672
  222MOL0     C29235   0.312   7.834   5.525  1.3961 -0.4168  0.0697
  222MOL0     C29236   0.206   7.843   5.581 -0.1722 -0.2100 -0.0378
  222MOL0     C29237   0.317   7.214   5.226 -0.2265 -0.9803  0.5173
  222MOL0     C29238   0.296   7.094   5.178  0.7921  1.1684 -0.0538
  222MOL0     H29239   0.054   6.722   4.904  0.5088 -0.7388 -1.1099
  222MOL0     H29240   0.082   6.493   4.829  0.1191  0.1762  1.2013
  222MOL0     H29241   0.127   6.345   4.525  2.8992  3.4067 -0.4131
  222MOL0     H29242   0.068   6.324   4.690 -2.7518  0.6244 -3.1194
  222MOL0     H29243   0.285   6.139   4.588  0.3881  1.7992  1.4656
  222MOL0     H29244   0.106   6.108   4.579 -1.1385  1.6216  0.1699
  222MOL0     H29245   0.129   6.193   4.831  1.3809  1.9279 -1.3588
  222MOL0     H29246   0.292   6.156   4.810  0.5811  0.0288 -0.6660
  222MOL0     H29247   0.046   5.954   4.762  0.0194 -0.8526  1.2286
  222MOL0     H29248   0.214   5.919   4.720 -0.9073 -2.6698 -0.6342
  222MOL0     H29249   0.102   5.996   4.984  0.2788  2.0641 -3.5813
  222MOL0     H29250   0.262   5.918   4.962 -0.6256  1.8896  3.4437
  222MOL0     H29251  -0.010   5.789   4.971 -0.5916  1.1479 -3.5204
  222MOL0     H29252   0.148   5.735   5.033 -0.0132  3.8341  0.6812
  222MOL0     H29253   0.098   5.723   4.734 -1.5146 -2.6904 -0.3986
  222MOL0     H29254   0.226   5.658   4.837  0.3215 -0.0269  0.1994
  222MOL0     H29255   0.049   5.501   4.929 -0.6572  0.8199  0.6003
  222MOL0     H29256   0.062   5.516   4.750  0.3924  1.4550 -1.5477
  222MOL0     H29257  -0.118   5.676   4.620  1.8794  1.9399  0.0371
  222MOL0     H29258  -0.351   5.839   4.600 -0.8994  0.0247 -1.4351
  222MOL0     H29259  -0.445   5.833   4.752 -0.4021  0.7940 -0.4049
  222MOL0     H29260  -0.531   5.597   4.675  0.5026  0.9304  0.9614
  222MOL0     H29261  -0.417   5.614   4.533  2.2212  0.2305  1.3373
  222MOL0     H29262  -0.659   5.816   4.568 -2.9486 -0.8071  0.4417
  222MOL0     H29263  -0.541   5.811   4.450 -0.9357 -0.9560  0.0769
  222MOL0     H29264  -0.727   5.711   4.366  1.7326 -1.5376 -2.2205
  222MOL0     H29265  -0.744   5.608   4.516  0.1144 -0.4580 -0.3266
  222MOL0     H29266  -0.549   5.326   4.236  0.3176  0.2694  1.5663
  222MOL0     H29267  -0.671   5.175   4.100 -1.0199 -1.8917  2.1161
  222MOL0     H29268  -1.325   5.172   4.085  2.4910 -0.5392  0.7029
  222MOL0     H29269  -1.497   5.124   3.915  0.6771  0.3920  0.3196
  222MOL0     H29270  -1.598   5.118   3.726 -1.6617  0.5671 -0.7714
  222MOL0     H29271  -1.594   4.944   3.772  0.7941 -1.2184 -1.0789
  222MOL0     H29272  -1.607   4.906   3.499  4.0894 -0.4771  3.2235
  222MOL0     H29273  -1.676   5.075   3.514 -1.8318 -0.2405  0.6504
  222MOL0     H29274  -1.835   5.022   3.645 -0.3711 -0.6157 -0.9658
  222MOL0     H29275  -1.792   4.853   3.675 -0.1545  0.8316  0.4500
  222MOL0     H29276  -1.878   4.985   3.423 -0.9128  0.1496  0.3516
  222MOL0     H29277  -1.828   4.815   3.413  1.2878  1.6465 -0.6823
  222MOL0     H29278  -2.064   4.936   3.560  0.6711  2.1604 -2.9145
  222MOL0     H29279  -2.001   4.769   3.574  3.2127  1.3168  2.4723
  222MOL0     H29280  -2.038   4.737   3.326 -1.8263 -1.3313 -0.8433
  222MOL0     H29281  -2.080   4.910   3.315 -2.6618 -2.4272 -2.9858
  222MOL0     H29282  -2.253   4.695   3.467 -0.6236  1.0743 -0.8231
  222MOL0     H29283  -2.298   4.862   3.430  1.4362  0.2141  2.6898
  222MOL0     H29284  -2.268   4.804   3.189  0.2185 -0.1756 -0.7389
  222MOL0     H29285  -2.404   4.726   3.253  0.0206  1.7411 -1.4469
  222MOL0     H29286  -1.183   5.011   3.656  1.1545  0.8187  0.1351
  222MOL0     H29287  -1.013   5.086   3.819  0.9262 -1.7459 -1.6639
  222MOL0     H29288  -1.027   5.383   4.229  0.3902  0.1205  1.7852
  222MOL0     H29289  -0.904   5.556   4.330  0.9490 -0.4536  0.0164
  222MOL0     H29290   0.443   6.603   4.640 -1.8730 -3.6028 -1.1435
  222MOL0     H29291   0.437   6.819   4.730 -0.2688  0.4044  0.3191
  222MOL0     H29292   0.203   7.183   4.866 -0.8084 -0.5499  0.2623
  222MOL0     H29293   0.269   7.395   4.940 -1.6628 -1.4474 -0.9239
  222MOL0     H29294   0.290   7.569   5.073  0.0447  2.8455  0.6317
  222MOL0     H29295   0.469   7.542   5.045 -0.2370  1.6046  0.2939
  222MOL0     H29296   0.537   7.617   5.253 -1.0047  0.5549  0.9804
  222MOL0     H29297   0.487   7.747   5.161  2.1865  1.5414  3.5027
  222MOL0     H29298   0.332   7.604   5.376 -1.7436  1.1879  1.8350
  222MOL0     H29299   0.264   7.741   5.287 -0.8232 -0.4873  0.7081
  222MOL0     H29300   0.510   7.773   5.473  0.1991  3.6141  1.1525
  222MOL0     H29301   0.443   7.901   5.377  1.6686  1.2570  1.4185
  222MOL0     H29302   0.108   7.860   5.621 -1.5555 -3.1678 -1.8175
  222MOL0     H29303   0.347   7.241   5.327 -0.0130 -0.2611  0.2709
  222MOL0     H29304   0.292   7.008   5.245  0.1690  1.7526  0.6698
  223MOL0     O29305   2.194   9.034  10.527 -0.2190 -0.8090  0.0533
  223MOL0     C29306   2.196   9.103  10.423 -1.1528  0.6997  0.2327
  223MOL0     O29307   2.267   9.076  10.311 -0.4930  1.3918 -0.3736
  223MOL0     C29308   2.349   8.972  10.287 -0.3520  0.1254 -0.2900
  223MOL0     C29309   2.485   8.993  10.259  1.0292 -1.0043  0.2132
  223MOL0     C29310   2.567   8.885  10.239  0.4924  0.2708  0.8163
  223MOL0     C29311   2.535   8.755  10.259  0.8778  0.5305  0.2738
  223MOL0     O29312   2.636   8.665  10.245  0.7522  1.0965 -0.0253
  223MOL0     C29313   2.609   8.520  10.266  0.1046 -0.5961  0.8323
  223MOL0     C29314   2.734   8.439  10.240 -0.5650  0.2502 -0.4749
  223MOL0     C29315   2.717   8.291  10.266 -0.6350 -0.3980 -0.4559
  223MOL0     C29316   2.841   8.217  10.228  0.2009  0.0705 -0.4351
  223MOL0     C29317   2.836   8.063  10.245 -0.0623 -0.4229 -1.3908
  223MOL0     C29318   2.754   7.977  10.153  0.2478 -0.1109  1.0776
  223MOL0     C29319   2.793   7.830  10.147 -0.2393 -0.0799  0.0144
  223MOL0     C29320   2.679   7.750  10.081 -0.9613 -0.0236 -0.3267
  223MOL0     N29321   2.716   7.600  10.091  0.5029 -0.6247 -0.0925
  223MOL0     C29322   2.804   7.538  10.170  0.9642 -0.3302 -0.1630
  223MOL0     C29323   2.796   7.405  10.150  0.8021  0.3046  0.0449
  223MOL0     C29324   2.881   7.308  10.222 -0.2688 -0.3538 -0.9173
  223MOL0     C29325   2.860   7.174  10.182 -0.7847  0.3408 -1.1850
  223MOL0     C29326   2.914   7.135  10.046  0.2906 -0.5825  0.3870
  223MOL0     C29327   2.859   7.002   9.998  0.2403  1.1812  0.8937
  223MOL0     O29328   2.819   6.911  10.100  0.5683 -0.2554  0.6278
  223MOL0     C29329   2.826   6.780  10.063  0.2025 -0.2720  0.7179
  223MOL0     C29330   2.900   6.720   9.958 -0.6390 -0.9333 -1.0056
  223MOL0     C29331   2.912   6.577   9.951 -0.0894  0.6533 -0.0450
  223MOL0     C29332   2.815   6.505  10.021 -0.2475 -0.9577  0.3448
  223MOL0     C29333   2.799   6.357   9.990 -0.4334  0.4489  0.3823
  223MOL0     O29334   2.672   6.307  10.020 -0.2062 -0.1389  0.4845
  223MOL0     C29335   2.669   6.175  10.033  0.5570  0.1758 -0.5604
  223MOL0     C29336   2.560   6.095   9.981  0.3307 -0.1578 -0.4347
  223MOL0     C29337   2.536   5.957  10.008  0.1205  0.0800 -0.0063
  223MOL0     C29338   2.626   5.898  10.099 -0.9754 -0.0191 -0.5470
  223MOL0     O29339   2.634   5.759  10.133  0.0142  0.9312 -0.5592
  223MOL0     C29340   2.562   5.655  10.065  0.6989 -0.4094  0.1029
  223MOL0     C29341   2.585   5.519  10.133 -1.1028  0.0530 -0.1651
  223MOL0     C29342   2.485   5.406  10.080  0.4177  0.7185  0.3923
  223MOL0     C29343   2.481   5.293  10.183 -0.0581  1.1387 -0.5127
  223MOL0     C29344   2.384   5.184  10.142  0.9263  0.0711  0.7029
  223MOL0     C29345   2.406   5.134   9.998 -0.1481 -0.2813 -0.0024
  223MOL0     C29346   2.319   5.010   9.978 -0.1749 -0.5503 -0.8359
  223MOL0     C29347   2.392   4.888  10.029 -0.3751 -0.1896 -0.2359
  223MOL0    Cl29348   2.288   4.749  10.040  0.0608 -0.3191  0.6100
  223MOL0     C29349   2.739   5.971  10.146  1.2087 -0.9132 -0.2429
  223MOL0     C29350   2.746   6.110  10.133  0.4121  0.3008  0.4115
  223MOL0     O29351   2.893   6.296   9.939 -0.0462 -0.6410 -0.1533
  223MOL0     C29352   2.739   6.565  10.129  0.4988  0.0793  0.3831
  223MOL0     C29353   2.746   6.701  10.144 -0.0321 -0.3095 -0.3801
  223MOL0     N29354   2.700   7.381  10.055 -0.2462 -0.3531 -0.1149
  223MOL0     N29355   2.656   7.503  10.020 -0.5150 -0.3541  0.2164
  223MOL0     C29356   2.396   8.733  10.293 -0.6010  0.3734 -0.6249
  223MOL0     C29357   2.305   8.839  10.296  0.2971 -0.3994 -0.2560
  223MOL0     C29358   2.131   9.235  10.428  1.0147 -0.4278  0.1073
  223MOL0     C29359   2.050   9.286  10.533  1.0616  0.2902  0.5764
  223MOL0     C29360   2.011   9.423  10.542 -0.3124 -0.1828 -0.4616
  223MOL0     C29361   2.043   9.518  10.452 -0.2518  0.5691 -0.0982
  223MOL0     O29362   2.008   9.646  10.479  0.2009  0.3393 -0.2885
  223MOL0     C29363   2.064   9.759  10.403 -1.0640  0.1583 -0.2155
  223MOL0     C29364   2.038   9.897  10.470 -0.4661 -0.9083  0.3083
  223MOL0     C29365   1.896   9.922  10.518  0.7308  0.3017  0.0182
  223MOL0     C29366   1.887  10.066  10.587  0.6030  0.6938  0.2398
  223MOL0     C29367   1.749  10.104  10.584  0.8032 -0.8444 -0.4360
  223MOL0     C29368   1.635  10.138  10.584 -0.1452 -0.0747 -0.2788
  223MOL0     C29369   2.113   9.479  10.337 -0.0709  0.6193  0.5465
  223MOL0     C29370   2.142   9.336  10.327 -0.1588  0.5957 -0.3307
  223MOL0     H29371   2.523   9.094  10.267  1.9281 -1.4180  1.5780
  223MOL0     H29372   2.669   8.904  10.206  0.2051 -0.7730 -0.7565
  223MOL0     H29373   2.527   8.482  10.204  0.8104 -2.4592  0.9721
  223MOL0     H29374   2.578   8.504  10.370 -4.9225 -2.6552 -0.6677
  223MOL0     H29375   2.818   8.476  10.300 -1.1033  0.3065  0.2545
  223MOL0     H29376   2.753   8.460  10.135  0.7499  0.8780 -0.1353
  223MOL0     H29377   2.632   8.259  10.205 -1.8807 -0.6622  1.3354
  223MOL0     H29378   2.691   8.273  10.371 -0.0367 -0.8100 -0.3725
  223MOL0     H29379   2.858   8.227  10.120 -0.8530 -1.2020 -0.7605
  223MOL0     H29380   2.928   8.260  10.279  1.7782 -2.2072 -1.0519
  223MOL0     H29381   2.814   8.028  10.347 -0.5443 -1.7617 -1.9246
  223MOL0     H29382   2.943   8.042  10.237  0.4693  1.1995  0.6461
  223MOL0     H29383   2.774   8.011  10.050 -0.6424 -0.3724  0.8095
  223MOL0     H29384   2.652   7.996  10.189  1.0773  1.8959  2.5477
  223MOL0     H29385   2.884   7.809  10.091 -0.6576 -0.9957 -0.3497
  223MOL0     H29386   2.801   7.806  10.253  0.6196  1.5890  0.3541
  223MOL0     H29387   2.660   7.776   9.976  0.0604  1.9359 -0.0660
  223MOL0     H29388   2.584   7.773  10.131 -0.4733 -0.4678  0.8372
  223MOL0     H29389   2.863   7.579  10.251  0.9105 -1.0650  0.2534
  223MOL0     H29390   2.872   7.319  10.330  0.3738 -2.2569 -0.6273
  223MOL0     H29391   2.983   7.334  10.191 -0.7422  1.6434 -0.9305
  223MOL0     H29392   2.755   7.147  10.196 -0.1642 -0.8901  1.8348
  223MOL0     H29393   2.924   7.114  10.248 -1.7941 -0.1184 -0.6011
  223MOL0     H29394   2.900   7.218   9.975 -0.7412  0.2154  1.4805
  223MOL0     H29395   3.022   7.117  10.049  0.6222  0.3974 -2.4895
  223MOL0     H29396   2.940   6.973   9.931 -0.9904 -0.2891 -0.0358
  223MOL0     H29397   2.775   7.031   9.934  2.4280 -1.7765 -3.8634
  223MOL0     H29398   2.965   6.776   9.892 -1.4514 -2.7969 -3.5295
  223MOL0     H29399   2.978   6.544   9.871 -0.2617  0.8799 -0.2791
  223MOL0     H29400   2.492   6.158   9.925 -1.3953 -1.4734  0.0874
  223MOL0     H29401   2.446   5.905   9.977  0.8845  0.5365 -3.3268
  223MOL0     H29402   2.595   5.646   9.961 -0.5485 -2.0620 -0.1991
  223MOL0     H29403   2.459   5.687  10.082  1.2364  0.3824  2.2253
  223MOL0     H29404   2.567   5.532  10.240  1.1261  0.9817  0.1562
  223MOL0     H29405   2.687   5.483  10.114 -0.5923  1.0148  0.5937
  223MOL0     H29406   2.523   5.379   9.981 -2.4095 -3.0147  0.1214
  223MOL0     H29407   2.384   5.444  10.062  1.0447  3.8932  2.5920
  223MOL0     H29408   2.581   5.250  10.184 -0.4424  0.2043 -1.0123
  223MOL0     H29409   2.455   5.335  10.281  1.5983 -0.6217  0.7509
  223MOL0     H29410   2.280   5.215  10.152  0.9159 -0.3123  2.0175
  223MOL0     H29411   2.397   5.101  10.212 -0.7716 -2.2533 -1.5459
  223MOL0     H29412   2.514   5.120   9.989  1.4824  7.2595  1.0384
  223MOL0     H29413   2.385   5.218   9.931 -0.1392  1.8068  2.4493
  223MOL0     H29414   2.228   5.025  10.038  1.4528  0.8722  1.4780
  223MOL0     H29415   2.300   4.984   9.874  0.9741  0.3576 -1.2989
  223MOL0     H29416   2.447   4.908  10.122  0.9377  0.0523 -1.0414
  223MOL0     H29417   2.479   4.877   9.963 -0.5142 -3.7701 -0.0389
  223MOL0     H29418   2.806   5.927  10.219 -1.5558 -2.2315  1.6678
  223MOL0     H29419   2.833   6.156  10.180  3.1826 -3.3987 -0.5615
  223MOL0     H29420   2.680   6.500  10.193  0.6751  0.0047  0.4711
  223MOL0     H29421   2.685   6.748  10.220  3.2745  0.0625  2.3118
  223MOL0     H29422   2.359   8.632  10.307 -0.7280 -0.1259 -3.7291
  223MOL0     H29423   2.198   8.824  10.300 -0.1495  2.1555 -0.7960
  223MOL0     H29424   2.001   9.220  10.605  0.6133 -1.9361 -1.6325
  223MOL0     H29425   1.943   9.457  10.620  1.7243  2.2661  0.3775
  223MOL0     H29426   2.033   9.763  10.298  2.1700  1.9578 -1.2575
  223MOL0     H29427   2.173   9.757  10.398 -0.9424  0.6114  1.5870
  223MOL0     H29428   2.106   9.923  10.552  0.5472  1.8899 -1.2797
  223MOL0     H29429   2.068   9.981  10.407  1.0155 -0.4246  1.5921
  223MOL0     H29430   1.878   9.845  10.594  0.2715 -0.6752 -1.0594
  223MOL0     H29431   1.833   9.926  10.430 -0.5501 -0.9409  0.8369
  223MOL0     H29432   1.915  10.045  10.691  2.2331 -1.3508 -0.5661
  223MOL0     H29433   1.947  10.150  10.550 -1.0937  2.4008  1.1164
  223MOL0     H29434   1.528  10.150  10.578  0.0251  4.3030  1.5464
  223MOL0     H29435   2.140   9.538  10.250  0.8884  1.4295  1.3690
  223MOL0     H29436   2.189   9.297  10.237 -0.6410  0.7079 -0.6309
  224MOL0     O29437   9.594   6.105   3.510 -0.4194  0.6378  0.4824
  224MOL0     C29438   9.677   6.029   3.556  0.2783  0.1882 -0.5166
  224MOL0     O29439   9.649   5.893   3.582  0.4933 -0.1848  0.5660
  224MOL0     C29440   9.526   5.839   3.551 -0.0682  0.1855  0.8969
  224MOL0     C29441   9.467   5.747   3.640 -1.0261  0.0962 -0.2351
  224MOL0     C29442   9.345   5.682   3.616  0.4771  0.0360  0.3837
  224MOL0     C29443   9.268   5.699   3.500 -0.4045 -0.0682 -0.4820
  224MOL0     O29444   9.171   5.615   3.472  0.2394  0.1062  0.9821
  224MOL0     C29445   9.066   5.643   3.376 -0.0704  0.5212 -0.2980
  224MOL0     C29446   8.967   5.530   3.400 -0.3346 -0.5851  0.2897
  224MOL0     C29447   8.870   5.532   3.278 -0.6457 -0.4201  0.5152
  224MOL0     C29448   8.776   5.416   3.265 -0.1351 -0.2535 -0.0177
  224MOL0     C29449   8.679   5.436   3.148  0.2411  0.2957  0.5934
  224MOL0     C29450   8.547   5.496   3.189 -1.0429 -0.2924  0.2343
  224MOL0     C29451   8.458   5.472   3.069  0.1756  0.0611 -0.0925
  224MOL0     C29452   8.315   5.534   3.094  0.4931  0.0086  0.2078
  224MOL0     N29453   8.226   5.494   2.980 -0.0505 -0.0846  0.5847
  224MOL0     C29454   8.112   5.568   2.943 -0.0840  0.8926  0.0752
  224MOL0     C29455   8.065   5.502   2.828 -0.1775 -0.5149 -0.6696
  224MOL0     C29456   7.938   5.548   2.763  0.1303  0.4550 -0.1920
  224MOL0     C29457   7.814   5.512   2.836 -0.3051  0.5016  0.2873
  224MOL0     C29458   7.694   5.555   2.755  1.3250  0.4701 -0.6374
  224MOL0     C29459   7.559   5.542   2.829  0.1939 -0.0785  0.6933
  224MOL0     O29460   7.451   5.592   2.747  0.2012 -0.1419  0.7076
  224MOL0     C29461   7.330   5.546   2.789 -0.1237  0.4366  0.1124
  224MOL0     C29462   7.219   5.566   2.693  0.8261 -0.3006 -0.1578
  224MOL0     C29463   7.081   5.555   2.732 -0.2563 -0.5578 -0.8285
  224MOL0     C29464   7.055   5.512   2.865 -0.3565  0.5096 -0.2924
  224MOL0     C29465   6.917   5.513   2.904 -0.3679  0.1746 -0.3280
  224MOL0     O29466   6.823   5.548   2.814 -0.2369  1.1849  0.4715
  224MOL0     C29467   6.688   5.540   2.848 -0.6961  0.6378 -0.3822
  224MOL0     C29468   6.628   5.428   2.904  0.0882  0.5026  0.2508
  224MOL0     C29469   6.491   5.437   2.941 -0.0755 -0.0542  0.5029
  224MOL0     C29470   6.412   5.553   2.914  0.3016  0.4707  0.2261
  224MOL0     O29471   6.278   5.557   2.956 -0.2155  0.8784 -0.5127
  224MOL0     C29472   6.195   5.635   2.872  0.5212 -0.1702  0.7251
  224MOL0     C29473   6.158   5.568   2.739 -0.8826 -0.6467 -0.2134
  224MOL0     C29474   6.052   5.656   2.667 -0.6176  0.1093  0.7505
  224MOL0     C29475   5.994   5.574   2.549  0.2079  0.3294 -0.7122
  224MOL0     C29476   5.916   5.665   2.450  0.5075  0.3879 -1.6924
  224MOL0     C29477   5.885   5.594   2.322  0.3184  0.4306 -0.1944
  224MOL0     C29478   6.005   5.609   2.218  0.6011 -0.3151 -0.3504
  224MOL0     C29479   5.974   5.725   2.125  0.2961  0.5881 -0.2425
  224MOL0    Cl29480   5.984   5.875   2.211  0.1964  0.2652  0.2409
  224MOL0     C29481   6.478   5.665   2.848  0.6859  0.1188 -0.4229
  224MOL0     C29482   6.612   5.658   2.828 -0.3922 -0.0350 -0.9742
  224MOL0     O29483   6.898   5.465   3.015  0.0424  0.8038 -0.2451
  224MOL0     C29484   7.161   5.480   2.955  0.1506 -0.5605  0.2407
  224MOL0     C29485   7.294   5.495   2.913 -0.1546  0.2466  0.6873
  224MOL0     N29486   8.165   5.410   2.792  0.0363 -0.3780  0.1680
  224MOL0     N29487   8.252   5.400   2.879 -0.6515 -1.0122  0.1736
  224MOL0     C29488   9.333   5.791   3.407 -1.4367 -1.1569  0.0347
  224MOL0     C29489   9.450   5.865   3.440  0.0131 -0.8443 -0.0320
  224MOL0     C29490   9.808   6.073   3.594 -0.1831  0.2309  0.8645
  224MOL0     C29491   9.843   6.203   3.588  0.0326 -0.8017  0.3926
  224MOL0     C29492   9.965   6.251   3.633  0.2943  0.1817 -0.0844
  224MOL0     C29493  10.060   6.159   3.686 -0.2696  0.6204  0.1957
  224MOL0     O29494  10.187   6.198   3.734  0.1137 -0.3924 -0.5994
  224MOL0     C29495  10.279   6.104   3.799  0.7092 -0.0328 -0.2105
  224MOL0     C29496  10.406   6.162   3.843 -0.5512  0.2675  0.1809
  224MOL0     C29497  10.483   6.060   3.928  0.1299  0.8712  0.8303
  224MOL0     C29498  10.628   6.105   3.970  0.3972  0.4377 -0.6141
  224MOL0     C29499  10.697   6.015   4.060 -0.3349  1.1460  1.0245
  224MOL0     C29500  10.741   5.934   4.136  0.0400  0.4259 -0.8681
  224MOL0     C29501  10.022   6.023   3.705 -0.6959 -0.4454  0.6461
  224MOL0     C29502   9.904   5.979   3.643 -1.4373  0.1332 -0.1690
  224MOL0     H29503   9.524   5.720   3.729 -2.1763  0.3331  0.5986
  224MOL0     H29504   9.312   5.615   3.695 -0.2278  0.7344  0.7025
  224MOL0     H29505   9.112   5.646   3.276 -0.2247  3.3228 -0.3677
  224MOL0     H29506   9.031   5.746   3.392  2.3629  1.7514 -2.1794
  224MOL0     H29507   8.924   5.544   3.500  1.5710  1.8985  0.8726
  224MOL0     H29508   9.027   5.439   3.391  0.8424  0.2971 -1.1804
  224MOL0     H29509   8.932   5.537   3.188 -0.7468 -0.1287  0.4588
  224MOL0     H29510   8.802   5.618   3.275 -0.3070 -0.1204  1.3773
  224MOL0     H29511   8.841   5.331   3.241 -1.7980 -0.9503 -2.4505
  224MOL0     H29512   8.743   5.383   3.365 -1.9206  2.0931  0.2595
  224MOL0     H29513   8.661   5.345   3.090  4.5222 -0.6151  0.3584
  224MOL0     H29514   8.723   5.493   3.066  1.2849 -2.5657 -0.9732
  224MOL0     H29515   8.560   5.602   3.211  1.2606 -0.4166 -0.3721
  224MOL0     H29516   8.509   5.446   3.279  0.4455  0.4223  1.2909
  224MOL0     H29517   8.496   5.525   2.982  2.4846 -3.8677 -1.7746
  224MOL0     H29518   8.452   5.365   3.044 -1.3405  0.0990 -0.0065
  224MOL0     H29519   8.308   5.643   3.101 -2.1102 -0.0859  0.0256
  224MOL0     H29520   8.279   5.506   3.194 -0.7213  1.5377  0.2342
  224MOL0     H29521   8.074   5.655   2.997 -0.0570  0.3989  0.9074
  224MOL0     H29522   7.933   5.516   2.659  0.2309 -2.3028  0.5758
  224MOL0     H29523   7.944   5.657   2.752 -1.5584  0.6473  0.3752
  224MOL0     H29524   7.800   5.576   2.923 -1.7694 -1.1828  1.3675
  224MOL0     H29525   7.811   5.406   2.862 -0.7403  0.7876  1.4755
  224MOL0     H29526   7.710   5.662   2.741  2.4951  0.8359  2.6951
  224MOL0     H29527   7.697   5.504   2.658  0.2049  0.5461 -0.7274
  224MOL0     H29528   7.561   5.601   2.920 -1.8796  1.2943 -0.0829
  224MOL0     H29529   7.558   5.433   2.845  1.4637  0.1791  2.7784
  224MOL0     H29530   7.248   5.604   2.595  1.6451  1.3174  0.6680
  224MOL0     H29531   7.003   5.580   2.662 -1.6186  0.5679  0.9963
  224MOL0     H29532   6.694   5.343   2.920 -0.2171  0.6194  2.5389
  224MOL0     H29533   6.436   5.353   2.983 -0.8532 -0.1601 -0.6813
  224MOL0     H29534   6.224   5.738   2.850 -1.7125  0.5136  0.6454
  224MOL0     H29535   6.096   5.653   2.915  1.0415  3.5080  0.6746
  224MOL0     H29536   6.120   5.466   2.750  0.0604 -1.1537 -1.4833
  224MOL0     H29537   6.243   5.554   2.672 -0.0774 -1.8164  1.0064
  224MOL0     H29538   6.101   5.744   2.625  0.1139 -0.5243  0.2392
  224MOL0     H29539   5.962   5.671   2.728 -1.3084  1.1134 -0.4600
  224MOL0     H29540   6.073   5.522   2.493  0.2721 -1.8557  1.2206
  224MOL0     H29541   5.927   5.496   2.586  0.6471 -0.2475 -1.0934
  224MOL0     H29542   5.984   5.744   2.419  5.4018 -2.6652 -0.0742
  224MOL0     H29543   5.824   5.699   2.499  0.4630 -1.2998 -0.4881
  224MOL0     H29544   5.795   5.646   2.289 -2.5059 -1.7200  3.3937
  224MOL0     H29545   5.855   5.490   2.336  0.0181  0.0486 -2.9908
  224MOL0     H29546   6.097   5.635   2.272  1.0189 -1.6220 -0.4052
  224MOL0     H29547   6.014   5.516   2.162 -3.3196 -0.2555 -1.3551
  224MOL0     H29548   5.876   5.708   2.080 -0.3182  1.7632  0.5995
  224MOL0     H29549   6.043   5.733   2.041  0.7755 -0.5078  0.0317
  224MOL0     H29550   6.417   5.752   2.826  1.0955 -0.3891 -4.1176
  224MOL0     H29551   6.671   5.732   2.774  0.8581 -1.0293 -1.0236
  224MOL0     H29552   7.141   5.472   3.061  3.6803  4.4008  1.6720
  224MOL0     H29553   7.376   5.489   2.983  2.3149 -0.5697 -2.0485
  224MOL0     H29554   9.291   5.812   3.310 -0.0156  0.2937 -0.3139
  224MOL0     H29555   9.473   5.937   3.363 -0.3035 -0.1614  0.4927
  224MOL0     H29556   9.778   6.283   3.553 -0.8603 -1.3901  0.6840
  224MOL0     H29557   9.975   6.359   3.641 -1.2085  0.2104  2.9915
  224MOL0     H29558  10.301   6.016   3.738  0.0934 -1.2267  1.2408
  224MOL0     H29559  10.225   6.070   3.887 -0.3065  0.6666 -0.5359
  224MOL0     H29560  10.470   6.186   3.758  1.5554 -1.3860  1.2158
  224MOL0     H29561  10.390   6.246   3.913 -0.0661  0.5659 -0.0616
  224MOL0     H29562  10.482   5.965   3.873 -5.5571  0.7471  0.5286
  224MOL0     H29563  10.420   6.039   4.015  1.4546  1.6013  2.0050
  224MOL0     H29564  10.680   6.128   3.876 -0.5505 -1.7887 -1.7733
  224MOL0     H29565  10.615   6.200   4.022 -3.1098 -0.8900  1.2603
  224MOL0     H29566  10.785   5.864   4.204 -0.1463  1.0881 -0.0545
  224MOL0     H29567  10.080   5.950   3.761  1.5316 -0.3046 -1.3189
  224MOL0     H29568   9.881   5.873   3.637  0.0412 -0.1729 -4.4187
  225MOL0     O29569   3.601   0.195   2.031  0.2271  0.1194 -0.9098
  225MOL0     C29570   3.517   0.117   2.080  0.5222  0.1724  1.6510
  225MOL0     O29571   3.539  -0.006   2.120 -0.6343  0.1325  0.0843
  225MOL0     C29572   3.654  -0.080   2.086 -0.3145 -0.5287  0.6459
  225MOL0     C29573   3.740  -0.049   1.978  0.0840 -0.7813 -0.1377
  225MOL0     C29574   3.848  -0.134   1.937 -0.3641  0.5134 -0.0240
  225MOL0     C29575   3.870  -0.246   2.020  0.5886  0.0272  0.6221
  225MOL0     O29576   3.974  -0.321   1.965 -0.4123 -0.7173 -0.8807
  225MOL0     C29577   4.034  -0.413   2.060 -0.1647 -0.0707 -0.3420
  225MOL0     C29578   4.172  -0.465   2.006  0.1484  0.4561 -0.0474
  225MOL0     C29579   4.179  -0.622   2.013  0.3957  0.4605  0.2073
  225MOL0     C29580   4.204  -0.680   2.150 -0.0882  0.4694 -0.0897
  225MOL0     C29581   4.214  -0.834   2.160  0.4662 -0.4937 -0.2392
  225MOL0     C29582   4.334  -0.892   2.093 -0.0165 -0.2633  0.1996
  225MOL0     C29583   4.354  -1.034   2.144  0.0942  0.3019  0.1094
  225MOL0     C29584   4.441  -1.120   2.042  0.4835  0.9373 -0.4270
  225MOL0     N29585   4.427  -1.269   2.055 -0.2271 -0.6536 -0.2993
  225MOL0     C29586   4.422  -1.346   1.939 -0.5255  0.8027 -0.4924
  225MOL0     C29587   4.459  -1.469   1.984  0.4946 -0.1120 -0.1054
  225MOL0     C29588   4.451  -1.592   1.902  0.7242  0.5001  0.3222
  225MOL0     C29589   4.304  -1.639   1.903  0.0567  0.3224  0.0792
  225MOL0     C29590   4.280  -1.762   1.984  1.2855  0.4825 -0.5876
  225MOL0     C29591   4.133  -1.771   1.988  0.5792 -0.3817 -0.2265
  225MOL0     O29592   4.064  -1.768   1.856 -0.0257  0.2687 -0.0602
  225MOL0     C29593   4.070  -1.873   1.771 -0.7414 -0.6561  0.5656
  225MOL0     C29594   4.044  -1.846   1.636  1.0004 -0.8264 -0.7736
  225MOL0     C29595   4.040  -1.951   1.540  0.7631 -0.6466 -0.0676
  225MOL0     C29596   4.068  -2.079   1.581  0.3239  0.9409  0.2221
  225MOL0     C29597   4.057  -2.203   1.498  0.0692  0.2156  0.0941
  225MOL0     O29598   4.147  -2.302   1.522  0.6247 -0.0268 -0.3618
  225MOL0     C29599   4.156  -2.426   1.465  0.3312  0.3592 -0.4817
  225MOL0     C29600   4.284  -2.481   1.477 -0.1201  0.6329  0.2230
  225MOL0     C29601   4.311  -2.606   1.422  0.0873 -0.1912  0.1122
  225MOL0     C29602   4.215  -2.674   1.346  0.0556  0.0159 -0.5165
  225MOL0     O29603   4.256  -2.789   1.276 -0.7803 -0.5371 -0.2744
  225MOL0     C29604   4.167  -2.878   1.204 -0.2204  0.0825  0.2047
  225MOL0     C29605   4.102  -2.977   1.310  0.1895  0.3267  0.0379
  225MOL0     C29606   4.031  -3.107   1.263 -0.8341  0.3215 -0.2155
  225MOL0     C29607   4.127  -3.222   1.217  0.5957 -0.1826  0.1157
  225MOL0     C29608   4.057  -3.347   1.166  0.1201  0.6150 -1.2941
  225MOL0     C29609   4.030  -3.450   1.286 -1.0219 -0.2235  0.1187
  225MOL0     C29610   3.994  -3.607   1.265  0.6115  0.4529  0.4845
  225MOL0     C29611   3.864  -3.633   1.206  0.5988  0.5867  0.9221
  225MOL0    Cl29612   3.857  -3.805   1.161  0.0032 -0.3089  0.4501
  225MOL0     C29613   4.086  -2.621   1.343  0.2192 -0.1317  0.7182
  225MOL0     C29614   4.053  -2.504   1.411  0.3493  0.0297 -0.4606
  225MOL0     O29615   3.990  -2.191   1.401  0.4083 -0.5579  0.8644
  225MOL0     C29616   4.111  -2.102   1.722 -0.1423  0.2157  0.2626
  225MOL0     C29617   4.110  -2.001   1.811  0.9259 -0.1593 -0.6082
  225MOL0     N29618   4.463  -1.467   2.122 -0.6851 -0.2705 -0.2875
  225MOL0     N29619   4.459  -1.345   2.163 -0.7081  0.3530  1.0356
  225MOL0     C29620   3.787  -0.271   2.140  0.0543 -0.0794  0.2777
  225MOL0     C29621   3.672  -0.194   2.161  0.5337 -0.1296  0.4175
  225MOL0     C29622   3.375   0.163   2.085  0.0964 -0.5718 -0.3029
  225MOL0     C29623   3.346   0.303   2.081  0.9173  0.8087 -0.2185
  225MOL0     C29624   3.212   0.343   2.104  0.2061  0.3469  0.0694
  225MOL0     C29625   3.110   0.252   2.124  0.3249 -0.6333 -0.3800
  225MOL0     O29626   2.986   0.293   2.149 -0.3222  1.1303  0.7017
  225MOL0     C29627   2.897   0.288   2.035  0.3270  0.1527 -1.2643
  225MOL0     C29628   2.755   0.230   2.077 -0.9225 -0.9331 -0.3758
  225MOL0     C29629   2.680   0.308   2.169 -0.1160 -0.1516 -0.2085
  225MOL0     C29630   2.536   0.254   2.185 -0.3148  0.4119  0.4921
  225MOL0     C29631   2.432   0.354   2.233 -0.0189  0.3623  0.0636
  225MOL0     C29632   2.339   0.416   2.284 -0.2994 -0.6445  0.5585
  225MOL0     C29633   3.141   0.114   2.115 -0.0525 -0.5867  0.7284
  225MOL0     C29634   3.273   0.069   2.097  0.5328 -0.5840  0.7876
  225MOL0     H29635   3.725   0.032   1.907 -1.1714 -0.0248  0.9550
  225MOL0     H29636   3.911  -0.115   1.851  0.6987 -0.4576  0.5103
  225MOL0     H29637   3.967  -0.500   2.068 -0.5074  0.3596  2.2498
  225MOL0     H29638   4.054  -0.368   2.157  0.3576  1.7219 -1.2287
  225MOL0     H29639   4.258  -0.423   2.059 -0.6730  0.1951  1.5786
  225MOL0     H29640   4.189  -0.436   1.902 -1.5207  0.7098 -0.2762
  225MOL0     H29641   4.263  -0.650   1.949  0.2651  1.0270 -0.2323
  225MOL0     H29642   4.085  -0.664   1.976  0.1926  2.3131 -1.6032
  225MOL0     H29643   4.298  -0.634   2.181 -0.5174  0.6995  0.8833
  225MOL0     H29644   4.121  -0.640   2.208  0.6331 -0.2055  1.4433
  225MOL0     H29645   4.115  -0.878   2.147 -0.1028  0.3771  0.9734
  225MOL0     H29646   4.229  -0.849   2.268 -0.7149 -2.9589 -0.3586
  225MOL0     H29647   4.418  -0.826   2.118 -1.0322  1.1116  0.1154
  225MOL0     H29648   4.326  -0.892   1.984  2.9799 -0.6477 -0.1008
  225MOL0     H29649   4.405  -1.031   2.241 -1.5794 -0.0236  1.0205
  225MOL0     H29650   4.256  -1.079   2.161 -1.5497  4.2068  2.2824
  225MOL0     H29651   4.544  -1.099   2.070 -0.5955  1.6753  3.7306
  225MOL0     H29652   4.406  -1.090   1.942 -0.4848  0.0174 -0.3847
  225MOL0     H29653   4.390  -1.316   1.840 -1.7866  0.0960 -0.3242
  225MOL0     H29654   4.517  -1.674   1.930  2.4529  0.4744 -3.3657
  225MOL0     H29655   4.479  -1.569   1.799 -1.0008 -1.6011 -0.7045
  225MOL0     H29656   4.280  -1.665   1.799  1.8339 -0.6309 -0.1345
  225MOL0     H29657   4.246  -1.552   1.935 -0.1249 -0.6284  2.5898
  225MOL0     H29658   4.335  -1.845   1.938  0.7017  1.2881 -2.8741
  225MOL0     H29659   4.325  -1.746   2.082 -0.7442  1.4840  0.2410
  225MOL0     H29660   4.096  -1.688   2.048 -3.6129 -2.6328  0.7030
  225MOL0     H29661   4.103  -1.866   2.034  1.1124 -1.1435 -1.4001
  225MOL0     H29662   4.015  -1.743   1.618 -2.6171 -1.5543  0.0454
  225MOL0     H29663   4.006  -1.927   1.440  2.8368 -2.2488 -1.2502
  225MOL0     H29664   4.359  -2.426   1.532  0.1343  0.3908  0.1164
  225MOL0     H29665   4.412  -2.642   1.438  0.1700  0.0682  0.1799
  225MOL0     H29666   4.210  -2.942   1.126  0.1547 -2.4197  2.3488
  225MOL0     H29667   4.095  -2.813   1.154  0.9730  1.0459 -0.3164
  225MOL0     H29668   4.039  -2.910   1.369  1.2338  0.8348  0.6173
  225MOL0     H29669   4.182  -3.007   1.379  4.1507  2.5864 -3.1238
  225MOL0     H29670   3.967  -3.069   1.183 -0.2467  0.0540 -0.8306
  225MOL0     H29671   3.972  -3.140   1.348  0.2487  1.7852  1.1759
  225MOL0     H29672   4.173  -3.187   1.124 -0.1229  0.1485 -0.1179
  225MOL0     H29673   4.198  -3.256   1.293  0.2000 -0.9370  0.1462
  225MOL0     H29674   4.126  -3.400   1.100  2.0258 -1.1008  1.8355
  225MOL0     H29675   3.970  -3.329   1.102  1.2555  2.8434 -2.3087
  225MOL0     H29676   3.952  -3.408   1.350 -0.1575  2.7083 -0.5764
  225MOL0     H29677   4.124  -3.452   1.343 -0.0994 -1.8735 -1.3578
  225MOL0     H29678   4.064  -3.657   1.197  1.8170  0.0638  1.9699
  225MOL0     H29679   4.015  -3.655   1.361  3.1980  0.9066  0.2116
  225MOL0     H29680   3.841  -3.580   1.113 -1.0280 -0.7087  0.5258
  225MOL0     H29681   3.789  -3.610   1.282  0.1233  0.5031  0.4860
  225MOL0     H29682   4.006  -2.671   1.289  0.1172 -0.6510  1.3392
  225MOL0     H29683   3.959  -2.450   1.410  1.2263  1.5994 -0.7640
  225MOL0     H29684   4.132  -2.204   1.751  0.6542 -1.2002 -4.4341
  225MOL0     H29685   4.126  -2.021   1.916  0.7598  2.6702  0.0468
  225MOL0     H29686   3.796  -0.370   2.184  2.7675  0.4314  1.0689
  225MOL0     H29687   3.606  -0.216   2.245 -1.5071  0.9073 -0.8601
  225MOL0     H29688   3.423   0.379   2.073  0.9149  0.7190 -1.3363
  225MOL0     H29689   3.196   0.450   2.096 -3.7439 -0.1550 -0.2920
  225MOL0     H29690   2.936   0.219   1.959  2.7731 -0.9521  0.8292
  225MOL0     H29691   2.890   0.390   1.996  2.7612  1.2619  0.8316
  225MOL0     H29692   2.700   0.222   1.983 -0.2957  1.6859 -1.0254
  225MOL0     H29693   2.785   0.129   2.107  0.7984 -1.2463 -2.7520
  225MOL0     H29694   2.680   0.412   2.135  1.6740  0.5425  1.6808
  225MOL0     H29695   2.737   0.312   2.262 -1.9920  1.1192  0.9451
  225MOL0     H29696   2.493   0.232   2.087  2.2914 -0.8058 -0.4558
  225MOL0     H29697   2.536   0.161   2.243 -1.6919 -1.3751 -2.1922
  225MOL0     H29698   2.261   0.472   2.332 -0.0676  3.7373 -3.4231
  225MOL0     H29699   3.064   0.038   2.117 -1.5792  0.6271 -3.0230
  225MOL0     H29700   3.281  -0.038   2.085 -1.6302 -0.6673 -0.3531
  226MOL0     O29701   3.174   1.097   3.818 -1.0248 -0.4605  0.9645
  226MOL0     C29702   3.295   1.108   3.799  0.6541 -0.3134  0.2834
  226MOL0     O29703   3.380   1.185   3.862  0.3223  0.0686 -0.2234
  226MOL0     C29704   3.344   1.272   3.957 -0.4770 -0.9721 -0.0935
  226MOL0     C29705   3.259   1.371   3.922 -0.2219 -0.2277  0.2336
  226MOL0     C29706   3.216   1.471   4.003  0.3201  1.3385 -0.1194
  226MOL0     C29707   3.267   1.465   4.132  0.5470 -0.2299 -0.4999
  226MOL0     O29708   3.240   1.569   4.221  0.0182  0.2988 -0.0145
  226MOL0     C29709   3.250   1.528   4.363 -0.3193  0.0127  0.6750
  226MOL0     C29710   3.185   1.629   4.461  0.0021 -0.9809 -0.0651
  226MOL0     C29711   3.028   1.620   4.490  0.8558 -0.5280 -0.6851
  226MOL0     C29712   2.948   1.644   4.358 -0.3575  1.3646  0.7701
  226MOL0     C29713   2.794   1.625   4.370  0.2871  0.0619 -0.0136
  226MOL0     C29714   2.719   1.701   4.265 -0.2103 -0.2847 -0.6912
  226MOL0     C29715   2.561   1.721   4.302 -0.6320 -0.0090  0.2913
  226MOL0     C29716   2.486   1.597   4.281  0.5693  0.6008  0.0087
  226MOL0     N29717   2.341   1.611   4.294  0.2403  0.5620 -1.1054
  226MOL0     C29718   2.271   1.709   4.223 -0.2104 -0.3286 -0.0350
  226MOL0     C29719   2.144   1.688   4.277 -0.5973 -0.5249  1.3284
  226MOL0     C29720   2.041   1.788   4.246 -0.2926 -0.3105  0.2013
  226MOL0     C29721   1.918   1.728   4.191 -0.2512 -0.5199  0.7743
  226MOL0     C29722   1.796   1.822   4.173 -0.0098 -0.5017  0.2157
  226MOL0     C29723   1.807   1.921   4.055 -1.1997  0.1034 -0.1423
  226MOL0     O29724   1.723   2.034   4.075 -0.2458 -0.2676  0.4452
  226MOL0     C29725   1.590   2.022   4.072 -0.5049 -0.7637 -0.4083
  226MOL0     C29726   1.519   1.998   3.952 -0.4630 -0.1397 -0.7042
  226MOL0     C29727   1.374   1.996   3.961  0.5854 -0.4395 -0.7972
  226MOL0     C29728   1.307   2.003   4.093 -0.9392 -0.0675 -0.0969
  226MOL0     C29729   1.159   2.013   4.095 -1.5619  0.5819  0.6380
  226MOL0     O29730   1.082   2.023   3.984 -0.1784 -0.1030  0.4847
  226MOL0     C29731   0.956   2.043   3.994  1.2198  0.4873  0.3222
  226MOL0     C29732   0.873   1.953   4.053 -0.6962 -0.4376 -0.1114
  226MOL0     C29733   0.738   1.975   4.068  0.5573 -0.0210  0.0652
  226MOL0     C29734   0.686   2.106   4.029 -0.3640  0.1772  0.6420
  226MOL0     O29735   0.550   2.129   4.026 -0.7643 -0.7506  0.3855
  226MOL0     C29736   0.489   2.226   4.102 -0.2743  0.1145 -0.0823
  226MOL0     C29737   0.341   2.194   4.127  0.2442 -0.5698  0.1712
  226MOL0     C29738   0.254   2.119   4.008 -0.8411 -0.4054 -0.4731
  226MOL0     C29739   0.272   2.186   3.867  0.1417  0.5049  0.4082
  226MOL0     C29740   0.154   2.149   3.784 -0.0654 -0.0579  0.8024
  226MOL0     C29741   0.142   2.007   3.742 -1.3254  0.8505 -0.0553
  226MOL0     C29742   0.017   1.972   3.658  0.5904 -0.2965  0.3664
  226MOL0     C29743  -0.097   1.925   3.756 -0.1867 -0.3182 -0.1254
  226MOL0    Cl29744  -0.194   1.804   3.663 -0.1464  0.4288  0.2163
  226MOL0     C29745   0.775   2.191   3.965 -0.1614 -0.8091 -0.4339
  226MOL0     C29746   0.908   2.163   3.948  1.0892  1.0786 -0.3056
  226MOL0     O29747   1.119   2.006   4.203 -0.5319 -0.7753 -0.3932
  226MOL0     C29748   1.392   2.009   4.212 -0.5488  0.2384  0.1506
  226MOL0     C29749   1.529   2.031   4.200  0.0517  0.6243 -0.0928
  226MOL0     N29750   2.141   1.574   4.362 -0.2812 -1.0445  1.1706
  226MOL0     N29751   2.262   1.528   4.361 -0.9527  0.3636 -0.3365
  226MOL0     C29752   3.356   1.363   4.162 -0.3258  0.7585 -0.0160
  226MOL0     C29753   3.405   1.267   4.072  0.2080 -0.8600 -0.1216
  226MOL0     C29754   3.351   1.022   3.697 -0.1526 -0.4767 -0.1874
  226MOL0     C29755   3.283   0.903   3.658 -0.4579 -0.0392 -0.0757
  226MOL0     C29756   3.340   0.815   3.563 -0.9158 -0.6936  0.3483
  226MOL0     C29757   3.460   0.857   3.493 -0.2853  0.2100  0.1033
  226MOL0     O29758   3.515   0.780   3.398  0.2869  0.6642 -0.9947
  226MOL0     C29759   3.626   0.830   3.319  0.4532  0.0050  0.6328
  226MOL0     C29760   3.642   0.749   3.197 -0.1099  0.6817 -0.0501
  226MOL0     C29761   3.760   0.804   3.109 -0.3888  0.1891 -0.4402
  226MOL0     C29762   3.805   0.682   3.016  0.6354  0.0219 -0.4872
  226MOL0     C29763   3.922   0.727   2.934  0.1968  0.2341  0.2778
  226MOL0     C29764   4.016   0.771   2.873  0.5731 -0.6317  0.1898
  226MOL0     C29765   3.523   0.969   3.544 -0.3248  0.1447  0.0059
  226MOL0     C29766   3.468   1.051   3.636 -0.0953  0.0271 -1.0721
  226MOL0     H29767   3.209   1.374   3.825 -0.6599  0.2594  0.4695
  226MOL0     H29768   3.149   1.546   3.961 -2.0050  0.0650  1.0779
  226MOL0     H29769   3.355   1.521   4.391 -0.6527 -1.4675  1.6367
  226MOL0     H29770   3.199   1.433   4.380  1.5897 -1.4460 -1.1822
  226MOL0     H29771   3.221   1.726   4.427 -0.0191 -1.1114 -0.4676
  226MOL0     H29772   3.231   1.610   4.558  2.6607  1.1244 -0.7784
  226MOL0     H29773   3.003   1.706   4.554 -1.2627  2.2028 -4.7360
  226MOL0     H29774   2.997   1.532   4.547 -1.4826  0.5469 -0.1560
  226MOL0     H29775   2.975   1.746   4.331  1.8591  0.2265 -1.8144
  226MOL0     H29776   2.981   1.575   4.280 -1.8166  0.4144  0.9532
  226MOL0     H29777   2.763   1.656   4.470 -0.0535  1.1356 -0.4362
  226MOL0     H29778   2.769   1.518   4.369  1.1635 -0.1679 -1.9609
  226MOL0     H29779   2.728   1.642   4.173 -0.5095 -2.0375  0.3432
  226MOL0     H29780   2.763   1.799   4.251  1.4704 -0.8027  0.6016
  226MOL0     H29781   2.549   1.758   4.405  0.7304  4.1191 -0.8178
  226MOL0     H29782   2.525   1.804   4.240  3.6992  2.8286  1.0936
  226MOL0     H29783   2.522   1.513   4.341 -0.7780 -1.5157 -1.9784
  226MOL0     H29784   2.514   1.565   4.180  3.6649  2.0004  0.3165
  226MOL0     H29785   2.305   1.784   4.152 -0.4966 -1.4835 -1.4399
  226MOL0     H29786   2.072   1.870   4.180 -0.8689 -2.0239 -2.3658
  226MOL0     H29787   2.008   1.836   4.338 -0.5046 -1.9695  1.0238
  226MOL0     H29788   1.885   1.644   4.252 -1.8540  0.5000  1.3819
  226MOL0     H29789   1.934   1.695   4.088 -3.1021  0.5437 -0.1025
  226MOL0     H29790   1.707   1.759   4.174  1.8529 -3.3379  0.2420
  226MOL0     H29791   1.797   1.883   4.263 -1.2700  0.3756 -0.3380
  226MOL0     H29792   1.791   1.864   3.962  0.7878  0.1662 -0.5684
  226MOL0     H29793   1.914   1.940   4.051 -0.4534 -2.9825  1.7364
  226MOL0     H29794   1.568   2.013   3.857 -1.8814  0.7881 -1.3223
  226MOL0     H29795   1.299   1.998   3.882  1.3343 -1.5919 -1.5660
  226MOL0     H29796   0.923   1.860   4.082  1.5155 -0.0150 -2.2810
  226MOL0     H29797   0.664   1.899   4.091  0.3600  0.7002  2.0189
  226MOL0     H29798   0.491   2.324   4.055  2.5539  0.4785  0.6413
  226MOL0     H29799   0.540   2.239   4.197 -0.7089  0.1712  0.1450
  226MOL0     H29800   0.294   2.292   4.137  2.8253  1.1401 -2.7009
  226MOL0     H29801   0.338   2.136   4.220 -0.9690  0.2584  0.6730
  226MOL0     H29802   0.150   2.128   4.041 -0.5362  0.8449  0.1824
  226MOL0     H29803   0.287   2.015   4.008  2.8059  0.5506  2.0649
  226MOL0     H29804   0.273   2.294   3.879 -0.6359  0.4144  1.3666
  226MOL0     H29805   0.363   2.153   3.816  0.4598 -2.7703  2.7438
  226MOL0     H29806   0.170   2.210   3.695 -2.1765  2.3810  1.9581
  226MOL0     H29807   0.061   2.167   3.839  0.9305  2.0459  1.9312
  226MOL0     H29808   0.148   1.945   3.832 -0.8990  1.6376  0.4697
  226MOL0     H29809   0.224   1.980   3.675  0.2679  3.9586  0.4290
  226MOL0     H29810  -0.011   2.048   3.585  2.8435  0.4500  0.2181
  226MOL0     H29811   0.043   1.880   3.604 -0.1653 -0.1168 -0.3180
  226MOL0     H29812  -0.160   2.010   3.784  1.0909  0.0757  1.7448
  226MOL0     H29813  -0.062   1.886   3.852 -3.8170 -2.4580  0.5424
  226MOL0     H29814   0.728   2.275   3.915  2.7862  0.3622 -1.4170
  226MOL0     H29815   0.974   2.239   3.907  3.3887 -0.5512  0.1615
  226MOL0     H29816   1.356   2.010   4.314  2.2047 -3.4595  1.3835
  226MOL0     H29817   1.593   2.055   4.285  0.3353  1.4567 -0.5318
  226MOL0     H29818   3.405   1.353   4.258  0.2017  0.3732 -0.3219
  226MOL0     H29819   3.488   1.201   4.095 -0.9965 -3.0910 -1.8791
  226MOL0     H29820   3.184   0.873   3.691 -1.0398  2.8482  1.1381
  226MOL0     H29821   3.298   0.719   3.534  1.9649 -2.3743  1.2578
  226MOL0     H29822   3.713   0.803   3.381 -0.2042 -1.4280  0.9870
  226MOL0     H29823   3.630   0.935   3.290 -0.0660  0.1845  1.2026
  226MOL0     H29824   3.665   0.645   3.221 -0.9036  1.1839  3.3414
  226MOL0     H29825   3.563   0.742   3.121  0.7972 -1.0652 -0.8872
  226MOL0     H29826   3.837   0.851   3.171 -1.6055  1.7702 -0.0515
  226MOL0     H29827   3.732   0.892   3.050  2.2323  1.7293  0.4328
  226MOL0     H29828   3.838   0.601   3.083 -1.0519  0.1954  0.5997
  226MOL0     H29829   3.713   0.657   2.964 -1.2207  0.3824  2.3822
  226MOL0     H29830   4.098   0.809   2.814  0.7051  2.5800  2.1777
  226MOL0     H29831   3.620   0.998   3.505 -0.5940  1.5133  0.3072
  226MOL0     H29832   3.532   1.130   3.673 -0.2453  0.0969 -0.9610
  227MOL0     O29833   7.664   4.534   6.453 -0.4977 -0.3618 -0.5709
  227MOL0     C29834   7.732   4.616   6.515 -0.2599  0.2227  0.5451
  227MOL0     O29835   7.856   4.602   6.554  0.4372  0.0977 -0.2562
  227MOL0     C29836   7.909   4.472   6.540  0.2268 -0.5744  0.0662
  227MOL0     C29837   7.849   4.353   6.580  0.0560 -0.1432 -0.0774
  227MOL0     C29838   7.923   4.231   6.573  0.0841  0.0464  0.5367
  227MOL0     C29839   8.054   4.222   6.519 -0.5085  0.7908 -0.1893
  227MOL0     O29840   8.124   4.102   6.515  0.3893 -0.6182 -0.4195
  227MOL0     C29841   8.078   4.019   6.407 -0.0571  0.2698 -0.3937
  227MOL0     C29842   8.190   3.925   6.354  0.1906  0.5829 -0.3078
  227MOL0     C29843   8.219   3.821   6.459 -0.7536 -0.2905  0.0453
  227MOL0     C29844   8.244   3.682   6.382 -0.4224 -0.6386  0.4066
  227MOL0     C29845   8.277   3.571   6.480  0.9881  0.6410 -0.2247
  227MOL0     C29846   8.371   3.608   6.605  0.4692 -0.5931  0.4312
  227MOL0     C29847   8.407   3.473   6.671  0.3090  0.2004  0.1628
  227MOL0     C29848   8.508   3.392   6.595 -0.1543 -0.2777  1.1695
  227MOL0     N29849   8.570   3.294   6.687  0.3419 -0.6958  0.0218
  227MOL0     C29850   8.503   3.177   6.716 -0.6122  0.2254  0.9568
  227MOL0     C29851   8.596   3.106   6.789 -0.2363 -0.6464  1.1881
  227MOL0     C29852   8.583   2.963   6.841 -0.3105  0.2996  0.2434
  227MOL0     C29853   8.703   2.916   6.925  0.3464 -0.3157  0.2168
  227MOL0     C29854   8.825   2.905   6.838 -0.6213 -0.4761 -0.6507
  227MOL0     C29855   8.958   2.916   6.914  0.5998 -0.1803  0.0471
  227MOL0     O29856   9.064   2.947   6.829  0.7998  0.3319 -0.0302
  227MOL0     C29857   9.175   2.868   6.845  0.6402  0.1099  0.5466
  227MOL0     C29858   9.246   2.853   6.963  0.5272  0.8409 -0.9711
  227MOL0     C29859   9.375   2.804   6.964  0.1438 -0.6967 -0.3632
  227MOL0     C29860   9.428   2.751   6.844  0.7102  0.2000  0.5711
  227MOL0     C29861   9.562   2.688   6.848  1.2572  0.0168  0.2656
  227MOL0     O29862   9.601   2.633   6.970  0.4028  0.1795  0.2511
  227MOL0     C29863   9.730   2.601   6.978 -0.3345 -1.7062 -0.5922
  227MOL0     C29864   9.828   2.702   6.987 -0.3791  0.9542 -0.3408
  227MOL0     C29865   9.965   2.665   7.008 -0.0087  0.5578 -0.1803
  227MOL0     C29866   9.992   2.532   7.043 -0.6533 -0.2122 -0.0007
  227MOL0     O29867  10.113   2.483   7.081 -0.2332  0.1586  0.1550
  227MOL0     C29868  10.228   2.565   7.091  1.0506 -0.1664 -0.1021
  227MOL0     C29869  10.350   2.481   7.101 -0.4789 -0.1537 -0.6010
  227MOL0     C29870  10.365   2.409   7.242 -0.1989  0.6304  0.4612
  227MOL0     C29871  10.369   2.499   7.366  0.5479  0.1777  0.1011
  227MOL0     C29872  10.298   2.422   7.480 -0.7296  0.3456 -1.1167
  227MOL0     C29873  10.367   2.287   7.520 -0.7414 -0.0604  0.0862
  227MOL0     C29874  10.516   2.310   7.567 -0.3567 -0.8234 -0.0469
  227MOL0     C29875  10.571   2.192   7.628  0.2586 -0.5939  0.3254
  227MOL0    Cl29876  10.533   2.043   7.538 -0.3359 -0.2014 -0.3403
  227MOL0     C29877   9.885   2.437   7.039  0.0233 -0.3143 -0.8123
  227MOL0     C29878   9.756   2.470   6.999 -1.3798 -0.1102 -0.5590
  227MOL0     O29879   9.626   2.693   6.745  0.7531  0.2123 -0.1449
  227MOL0     C29880   9.356   2.758   6.724 -0.5097  0.3724 -0.4008
  227MOL0     C29881   9.231   2.819   6.724  0.0819  0.4113 -0.1348
  227MOL0     N29882   8.713   3.196   6.800 -0.0011 -0.4907 -0.1966
  227MOL0     N29883   8.685   3.309   6.750 -0.6595  0.3498  0.5779
  227MOL0     C29884   8.108   4.343   6.476 -0.3129  0.4306 -0.4493
  227MOL0     C29885   8.035   4.460   6.485  0.3356  0.7454  0.3681
  227MOL0     C29886   7.664   4.725   6.574  0.3740 -0.8850 -0.3640
  227MOL0     C29887   7.715   4.807   6.679 -0.2659 -0.2452 -0.2417
  227MOL0     C29888   7.653   4.930   6.704 -0.4380  0.1455 -0.2410
  227MOL0     C29889   7.540   4.974   6.634 -0.9120 -0.2738 -0.7402
  227MOL0     O29890   7.486   5.095   6.688 -0.1224 -0.7978 -0.2396
  227MOL0     C29891   7.371   5.153   6.614 -0.4380  0.3966 -0.6980
  227MOL0     C29892   7.309   5.281   6.682 -0.5924  0.3810  0.6511
  227MOL0     C29893   7.419   5.385   6.694  0.8737 -0.3641 -0.7497
  227MOL0     C29894   7.364   5.514   6.759  0.2881 -0.0580  0.1963
  227MOL0     C29895   7.323   5.496   6.899  0.5844 -0.1203  0.6970
  227MOL0     C29896   7.301   5.477   7.012  0.1918 -0.1801 -0.6393
  227MOL0     C29897   7.492   4.884   6.542 -0.6699 -0.5537  0.2680
  227MOL0     C29898   7.551   4.767   6.501  0.2169 -0.2803 -0.4240
  227MOL0     H29899   7.753   4.345   6.630  0.5184 -2.5213  0.5856
  227MOL0     H29900   7.868   4.141   6.596  1.9619 -0.4307  3.5743
  227MOL0     H29901   8.029   4.078   6.329 -4.8226 -0.8734  1.3796
  227MOL0     H29902   7.999   3.951   6.438 -0.1824  0.7914  0.4602
  227MOL0     H29903   8.284   3.975   6.330  1.3572  0.9636  4.1046
  227MOL0     H29904   8.151   3.881   6.262  0.2714  1.0869 -0.5799
  227MOL0     H29905   8.142   3.804   6.534 -1.3540 -2.3504 -0.9601
  227MOL0     H29906   8.308   3.856   6.511  0.3295  0.2795 -2.0588
  227MOL0     H29907   8.167   3.658   6.308  1.2037 -2.8241 -0.6748
  227MOL0     H29908   8.336   3.690   6.325 -1.0302  0.1271 -0.4917
  227MOL0     H29909   8.332   3.494   6.425  2.1804  1.7233 -0.6109
  227MOL0     H29910   8.183   3.538   6.523  0.8115  0.4405 -0.7621
  227MOL0     H29911   8.326   3.664   6.687 -0.7416 -1.1909  0.2054
  227MOL0     H29912   8.461   3.664   6.579 -0.4191  0.5913 -0.2018
  227MOL0     H29913   8.442   3.504   6.770 -3.4418 -1.6871  2.3141
  227MOL0     H29914   8.318   3.412   6.692 -0.2274  0.2149 -1.8352
  227MOL0     H29915   8.582   3.461   6.554 -2.0663  2.1164  1.5254
  227MOL0     H29916   8.472   3.340   6.506  1.4396 -0.1763  0.4360
  227MOL0     H29917   8.401   3.153   6.687  0.4394  0.6949 -4.0066
  227MOL0     H29918   8.607   2.897   6.756  2.5158  2.1820 -0.5758
  227MOL0     H29919   8.496   2.936   6.901  1.1064 -0.8072  1.8871
  227MOL0     H29920   8.670   2.817   6.959 -1.7545 -0.6564 -2.5477
  227MOL0     H29921   8.718   2.983   7.011  3.5241  0.6161 -0.9334
  227MOL0     H29922   8.819   2.807   6.791 -0.8146 -2.6825  3.4863
  227MOL0     H29923   8.832   2.994   6.774  0.1935  1.4297  1.9154
  227MOL0     H29924   8.971   2.825   6.973  2.2766 -0.9644 -1.4218
  227MOL0     H29925   8.956   3.009   6.973 -0.6217  4.0109 -5.6925
  227MOL0     H29926   9.205   2.878   7.060 -1.4097 -1.5162 -1.0600
  227MOL0     H29927   9.424   2.788   7.059 -2.3854  0.5100  1.2335
  227MOL0     H29928   9.804   2.807   6.981 -1.4202  0.8157  1.0201
  227MOL0     H29929  10.042   2.741   7.009  0.4465  0.1518  2.4775
  227MOL0     H29930  10.219   2.629   7.179 -2.3878  0.7884 -1.0031
  227MOL0     H29931  10.236   2.629   7.002 -1.5999  1.8525  0.9865
  227MOL0     H29932  10.442   2.537   7.081 -0.1304 -1.2961 -2.4914
  227MOL0     H29933  10.343   2.410   7.018 -1.0672 -0.8232  0.0055
  227MOL0     H29934  10.454   2.345   7.245  0.0677  1.0261  1.3145
  227MOL0     H29935  10.281   2.340   7.228  0.2474  0.6806 -3.5706
  227MOL0     H29936  10.468   2.537   7.395  0.3952 -1.2029  2.7474
  227MOL0     H29937  10.307   2.587   7.350  0.0645 -0.4169 -1.4767
  227MOL0     H29938  10.194   2.408   7.452 -1.4321 -0.5320  1.5825
  227MOL0     H29939  10.300   2.493   7.564 -0.1312  0.8009 -1.5061
  227MOL0     H29940  10.381   2.229   7.428 -0.5486 -1.2242  0.8354
  227MOL0     H29941  10.311   2.218   7.584  0.1517 -1.6000 -0.7334
  227MOL0     H29942  10.578   2.336   7.481  0.8860 -3.4457 -0.0336
  227MOL0     H29943  10.521   2.396   7.634 -2.4565  0.4480 -1.3956
  227MOL0     H29944  10.534   2.187   7.731  0.4640 -0.7436  0.3933
  227MOL0     H29945  10.678   2.208   7.639  0.5513 -2.2109  0.1679
  227MOL0     H29946   9.905   2.330   7.049 -1.2340 -0.7594 -2.4928
  227MOL0     H29947   9.684   2.389   7.007 -1.4291  0.0979  1.3682
  227MOL0     H29948   9.391   2.723   6.627 -3.4240 -3.9082 -0.1968
  227MOL0     H29949   9.181   2.823   6.628 -1.5736 -0.3182  0.6624
  227MOL0     H29950   8.205   4.352   6.427  0.3459  1.4688  0.9722
  227MOL0     H29951   8.076   4.558   6.464  0.0211  1.7431  3.8218
  227MOL0     H29952   7.811   4.793   6.728  0.5060 -2.1054 -2.1225
  227MOL0     H29953   7.698   4.999   6.775  0.4475  1.0981 -1.6837
  227MOL0     H29954   7.297   5.074   6.598 -0.1802  0.0132 -0.0379
  227MOL0     H29955   7.410   5.169   6.513  2.1244 -1.1624 -0.0408
  227MOL0     H29956   7.223   5.318   6.627 -0.7582 -0.6428  0.2015
  227MOL0     H29957   7.280   5.241   6.780  1.5105 -0.4086  1.0239
  227MOL0     H29958   7.455   5.410   6.593 -0.6332  0.4780 -1.0980
  227MOL0     H29959   7.503   5.340   6.748  0.8030 -0.2881 -0.5760
  227MOL0     H29960   7.435   5.597   6.747  0.2299 -0.1718 -1.1716
  227MOL0     H29961   7.273   5.541   6.705  0.2059 -2.4129 -0.9434
  227MOL0     H29962   7.289   5.460   7.117 -1.2855  2.8530 -0.2067
  227MOL0     H29963   7.399   4.915   6.494  0.6150  4.3686  0.4663
  227MOL0     H29964   7.513   4.710   6.416  1.7472 -0.8246 -0.7813
  228MOL0     O29965   7.307   3.607   2.405  0.3584 -0.5760 -0.1060
  228MOL0     C29966   7.354   3.576   2.297 -1.0121  0.1080  0.0465
  228MOL0     O29967   7.283   3.528   2.185 -0.0274  0.8587 -0.6233
  228MOL0     C29968   7.141   3.524   2.197 -0.4182  0.4455 -0.5144
  228MOL0     C29969   7.065   3.483   2.306  0.1895  0.5062  0.8454
  228MOL0     C29970   6.929   3.477   2.289  0.1040 -0.4854 -0.3526
  228MOL0     C29971   6.853   3.518   2.170 -0.2403 -1.1279 -0.7829
  228MOL0     O29972   6.718   3.500   2.182  0.5799  0.0395 -0.0708
  228MOL0     C29973   6.638   3.528   2.066 -0.3177 -0.7901 -0.0951
  228MOL0     C29974   6.501   3.470   2.100 -0.8833 -0.0915 -1.1319
  228MOL0     C29975   6.398   3.520   2.000 -0.4725 -0.6554  0.3912
  228MOL0     C29976   6.260   3.464   2.039 -0.3990 -0.0932  0.4417
  228MOL0     C29977   6.157   3.540   1.960  0.0702 -0.5326 -0.1251
  228MOL0     C29978   6.021   3.470   1.965  0.6235  0.1799  0.3836
  228MOL0     C29979   5.966   3.465   2.113  0.4298 -0.4055  0.5756
  228MOL0     C29980   5.850   3.364   2.114 -0.2728 -0.3452 -0.2960
  228MOL0     N29981   5.734   3.390   2.034 -1.0681 -0.1195 -0.9342
  228MOL0     C29982   5.682   3.518   2.019 -1.0441 -0.6409 -0.3591
  228MOL0     C29983   5.565   3.493   1.955  0.1320  0.1247 -0.4752
  228MOL0     C29984   5.456   3.598   1.933 -0.7966  0.1454  0.1564
  228MOL0     C29985   5.493   3.684   1.815  0.5490 -0.2517 -0.0900
  228MOL0     C29986   5.371   3.770   1.765  0.6565 -0.4469 -0.0150
  228MOL0     C29987   5.413   3.834   1.633 -0.1892 -0.1221  0.3989
  228MOL0     O29988   5.291   3.847   1.545  0.0041 -0.3537  0.1762
  228MOL0     C29989   5.203   3.953   1.583 -0.5285  0.4422 -0.0243
  228MOL0     C29990   5.069   3.922   1.594 -0.5199  0.2958  1.7675
  228MOL0     C29991   4.976   4.017   1.623  0.2027 -0.6277  0.3320
  228MOL0     C29992   5.011   4.152   1.636  0.0454 -0.3685 -0.3127
  228MOL0     C29993   4.902   4.250   1.647 -0.6140 -0.7282 -0.6778
  228MOL0     O29994   4.928   4.388   1.610  0.4793 -0.4873 -0.3338
  228MOL0     C29995   4.820   4.474   1.637  0.9823 -0.1435 -0.1674
  228MOL0     C29996   4.807   4.531   1.760 -0.0702 -0.1302  0.2518
  228MOL0     C29997   4.698   4.627   1.777  1.1446  0.5022  0.5528
  228MOL0     C29998   4.596   4.641   1.683  0.1054 -0.5777  0.3033
  228MOL0     O29999   4.496   4.731   1.716 -0.3295 -1.1566  0.3297
  228MOL0     C30000   4.358   4.681   1.695 -0.6087 -0.2951 -0.2006
  228MOL0     C30001   4.267   4.798   1.722 -0.2890  0.0642  0.3883
  228MOL0     C30002   4.130   4.780   1.647 -0.1922 -0.4220  0.1592
  228MOL0     C30003   4.003   4.845   1.702 -1.2049  0.3434  0.4878
  228MOL0     C30004   4.032   4.990   1.762 -0.7284  0.2130 -0.1096
  228MOL0     C30005   3.913   5.054   1.829  0.5512 -0.6885 -0.6805
  228MOL0     C30006   3.939   5.211   1.855  0.4704  0.5047 -0.2776
  228MOL0     C30007   4.018   5.233   1.984  0.1940 -0.4112  0.3367
  228MOL0    Cl30008   3.972   5.131   2.124 -0.3685 -0.2075 -0.4738
  228MOL0     C30009   4.614   4.576   1.559  1.2193 -0.3929  0.2400
  228MOL0     C30010   4.720   4.491   1.538  0.3227  0.3200  0.0139
  228MOL0     O30011   4.788   4.205   1.673  0.8296  0.4177  0.5715
  228MOL0     C30012   5.145   4.179   1.620  0.1993 -0.1750  0.1632
  228MOL0     C30013   5.243   4.082   1.595  0.2272 -0.4034  0.0496
  228MOL0     N30014   5.560   3.358   1.921  0.2022 -0.7169  0.2425
  228MOL0     N30015   5.667   3.302   1.966  0.2337  0.1295 -0.2399
  228MOL0     C30016   6.933   3.566   2.063  0.5463  0.4155 -0.6101
  228MOL0     C30017   7.069   3.563   2.083 -0.9102  0.3494  0.2023
  228MOL0     C30018   7.497   3.588   2.293  0.0175  0.0637  0.2924
  228MOL0     C30019   7.574   3.618   2.406 -0.6432 -0.1547 -0.6542
  228MOL0     C30020   7.708   3.644   2.389 -0.3839  0.5718 -0.2386
  228MOL0     C30021   7.784   3.625   2.273  0.4130  0.7451  0.1657
  228MOL0     O30022   7.912   3.608   2.262 -0.4324 -0.1833  0.7162
  228MOL0     C30023   7.997   3.590   2.377 -0.4191  0.3651 -0.0792
  228MOL0     C30024   8.089   3.470   2.339  1.0872  0.1403  0.0533
  228MOL0     C30025   8.213   3.456   2.443  0.1529 -0.6099  1.0280
  228MOL0     C30026   8.156   3.463   2.590  0.4058 -0.4795  0.1190
  228MOL0     C30027   8.260   3.433   2.687 -0.1420 -0.0758  0.2675
  228MOL0     C30028   8.342   3.398   2.777  0.7211  0.3025  0.4124
  228MOL0     C30029   7.710   3.605   2.160  0.9510 -0.2710 -0.4089
  228MOL0     C30030   7.566   3.599   2.169 -0.0345 -0.2490  0.2194
  228MOL0     H30031   7.118   3.439   2.390 -1.9207 -0.0702  1.9712
  228MOL0     H30032   6.884   3.447   2.383 -0.6240  3.5491  0.7799
  228MOL0     H30033   6.687   3.475   1.984  2.3993 -2.5887  2.4972
  228MOL0     H30034   6.648   3.634   2.042  4.1587 -0.6188  1.6249
  228MOL0     H30035   6.476   3.491   2.205  0.3416 -0.5331 -0.7290
  228MOL0     H30036   6.513   3.362   2.104 -0.9687 -0.0784  0.6688
  228MOL0     H30037   6.429   3.472   1.906 -0.0332 -1.6919  1.0544
  228MOL0     H30038   6.391   3.630   1.997  0.3246 -0.4018  3.7551
  228MOL0     H30039   6.264   3.355   2.025  0.3733 -0.6525  3.9632
  228MOL0     H30040   6.254   3.469   2.148  0.4334 -2.2020  0.6332
  228MOL0     H30041   6.189   3.551   1.856 -0.0856  1.6171  0.0262
  228MOL0     H30042   6.147   3.640   2.003 -0.6956  0.7242 -2.9874
  228MOL0     H30043   6.025   3.374   1.913  1.1572  1.0395 -1.2204
  228MOL0     H30044   5.955   3.531   1.903  1.6000  0.8875  0.0128
  228MOL0     H30045   6.037   3.427   2.187 -0.2429  2.6355  3.0367
  228MOL0     H30046   5.931   3.560   2.155 -1.3365 -0.2724 -1.0721
  228MOL0     H30047   5.827   3.365   2.221 -0.7040  4.6181 -0.1899
  228MOL0     H30048   5.884   3.262   2.097  0.7399  0.0094 -0.4471
  228MOL0     H30049   5.721   3.610   2.061  2.3705 -1.9454 -0.3607
  228MOL0     H30050   5.442   3.661   2.022 -2.5174 -0.3954  0.2991
  228MOL0     H30051   5.362   3.557   1.897 -0.5366  1.3228 -2.0339
  228MOL0     H30052   5.519   3.608   1.740 -3.5702 -0.0956 -1.9689
  228MOL0     H30053   5.571   3.758   1.831 -1.8059  3.6025 -4.0771
  228MOL0     H30054   5.290   3.698   1.749 -0.2557  0.7218 -0.8102
  228MOL0     H30055   5.337   3.842   1.840 -1.9466 -1.8361  0.2593
  228MOL0     H30056   5.494   3.771   1.596  0.6054  1.3401 -0.3821
  228MOL0     H30057   5.453   3.935   1.632  0.4582 -0.3684 -1.2856
  228MOL0     H30058   5.031   3.822   1.575  1.9358 -0.7052  1.7932
  228MOL0     H30059   4.874   3.983   1.638  0.2789 -0.8586  0.3349
  228MOL0     H30060   4.870   4.512   1.846 -0.5086  2.7441  1.3371
  228MOL0     H30061   4.696   4.669   1.877 -0.8232 -2.1225  1.7027
  228MOL0     H30062   4.354   4.601   1.770  1.3631  0.0076  0.3128
  228MOL0     H30063   4.334   4.657   1.592 -2.4894 -0.4617  0.2482
  228MOL0     H30064   4.322   4.885   1.684 -0.9973  0.6242  0.6372
  228MOL0     H30065   4.252   4.803   1.830  0.8033 -0.7242  0.5925
  228MOL0     H30066   4.103   4.674   1.647  1.8527 -0.9918  0.2878
  228MOL0     H30067   4.141   4.806   1.541  1.5992 -0.5604  0.2821
  228MOL0     H30068   3.923   4.847   1.627  1.0115  1.9925 -2.0291
  228MOL0     H30069   3.967   4.786   1.787 -0.3232  0.7804  1.1794
  228MOL0     H30070   4.064   5.057   1.682  0.5873  1.2120  1.2024
  228MOL0     H30071   4.119   4.981   1.827 -0.5013  0.0750 -0.4292
  228MOL0     H30072   3.880   5.004   1.920  2.0469 -0.0742  0.2280
  228MOL0     H30073   3.826   5.043   1.763 -0.3342 -0.9742  0.4963
  228MOL0     H30074   4.004   5.250   1.776  0.9574 -1.2465 -0.7709
  228MOL0     H30075   3.846   5.270   1.862  0.4424  0.4040  0.1949
  228MOL0     H30076   4.017   5.336   2.019 -1.4311  0.1333 -1.1707
  228MOL0     H30077   4.124   5.216   1.967  0.9111 -2.0738  5.0179
  228MOL0     H30078   4.541   4.579   1.479  1.0041 -0.3662  0.4368
  228MOL0     H30079   4.723   4.465   1.432  1.8350  2.2686 -0.4800
  228MOL0     H30080   5.171   4.284   1.627 -4.3433  1.4822 -3.3039
  228MOL0     H30081   5.343   4.121   1.577  1.1988 -2.0568  1.5673
  228MOL0     H30082   6.889   3.597   1.968  1.3797 -0.6532 -1.3682
  228MOL0     H30083   7.138   3.615   2.016 -0.2794  1.5069  1.7045
  228MOL0     H30084   7.526   3.630   2.503 -0.3729  1.1712 -0.6593
  228MOL0     H30085   7.760   3.664   2.481 -0.9330 -4.8680  1.6176
  228MOL0     H30086   7.944   3.587   2.473  2.3944  2.8506  1.7389
  228MOL0     H30087   8.070   3.671   2.379 -0.7397  0.6948 -1.0176
  228MOL0     H30088   8.038   3.379   2.306  1.7453 -0.3578  0.3741
  228MOL0     H30089   8.130   3.510   2.245  0.3048  0.8738  0.0198
  228MOL0     H30090   8.283   3.539   2.429 -1.4685  0.3532 -2.5687
  228MOL0     H30091   8.262   3.359   2.433 -0.6344 -0.9554  0.3828
  228MOL0     H30092   8.114   3.562   2.611  2.8200  0.7540 -0.5275
  228MOL0     H30093   8.079   3.387   2.605 -0.0719  0.0683  0.5122
  228MOL0     H30094   8.396   3.379   2.868  0.3356 -0.1738  0.5455
  228MOL0     H30095   7.759   3.608   2.063  1.6812  0.3167 -0.0234
  228MOL0     H30096   7.528   3.590   2.067  1.2087 -2.0223 -0.1420
  229MOL0     O30097   8.584   7.480  10.090  0.2254 -0.2589 -0.1694
  229MOL0     C30098   8.662   7.453   9.994 -0.2223 -0.7150  0.0092
  229MOL0     O30099   8.609   7.411   9.871 -0.3197 -0.5987 -0.2605
  229MOL0     C30100   8.480   7.433   9.847  0.1196 -0.1599 -0.5246
  229MOL0     C30101   8.389   7.325   9.818 -0.5434 -0.2632 -0.3531
  229MOL0     C30102   8.252   7.355   9.799  0.2665  0.5955 -0.1075
  229MOL0     C30103   8.199   7.481   9.788 -0.1872 -0.4028 -0.3574
  229MOL0     O30104   8.060   7.502   9.794 -0.9100  0.2154 -0.5543
  229MOL0     C30105   8.011   7.642   9.796  0.6042  0.7991  0.4183
  229MOL0     C30106   7.870   7.645   9.836  1.0356 -0.1201  0.1233
  229MOL0     C30107   7.853   7.668   9.988  0.4858 -0.7138 -0.2986
  229MOL0     C30108   7.704   7.654  10.024  0.0280  0.0226 -0.0673
  229MOL0     C30109   7.618   7.779   9.968  0.0160 -0.2282 -0.8700
  229MOL0     C30110   7.469   7.735   9.988 -0.3893  0.6408  0.7933
  229MOL0     C30111   7.433   7.660   9.858  0.5644 -1.1073  0.2804
  229MOL0     C30112   7.389   7.759   9.740 -0.4027  1.6717 -0.3139
  229MOL0     N30113   7.451   7.739   9.619  0.7662 -0.5420  0.6669
  229MOL0     C30114   7.559   7.795   9.588 -0.5959 -0.4729 -0.2453
  229MOL0     C30115   7.578   7.761   9.462 -0.1385 -0.3930 -0.1059
  229MOL0     C30116   7.690   7.825   9.382  0.6549 -0.0025 -0.2063
  229MOL0     C30117   7.823   7.757   9.425  0.5021  0.0973 -0.1095
  229MOL0     C30118   7.943   7.816   9.343 -0.1824 -0.2774 -0.1548
  229MOL0     C30119   8.082   7.769   9.390  0.6736  0.7888 -0.1741
  229MOL0     O30120   8.112   7.642   9.319 -0.2440 -0.3820 -0.2602
  229MOL0     C30121   8.247   7.607   9.316  0.0088 -0.5869  0.2869
  229MOL0     C30122   8.310   7.623   9.198 -0.4430  0.4568  0.5612
  229MOL0     C30123   8.454   7.611   9.186 -0.3051  0.8321  0.1468
  229MOL0     C30124   8.526   7.573   9.304 -0.9785  0.1735  0.3557
  229MOL0     C30125   8.668   7.553   9.306 -0.5528  0.2916  0.6770
  229MOL0     O30126   8.727   7.545   9.183 -0.2450  0.7391  0.3934
  229MOL0     C30127   8.864   7.553   9.166 -0.1356 -1.0402  0.7550
  229MOL0     C30128   8.970   7.541   9.262  0.1928 -0.3577  0.7562
  229MOL0     C30129   9.101   7.585   9.225  0.8884  0.0635 -1.7535
  229MOL0     C30130   9.131   7.636   9.104 -0.9239 -0.6833 -1.1236
  229MOL0     O30131   9.263   7.681   9.090  0.5350  0.3958 -0.5732
  229MOL0     C30132   9.287   7.763   8.972 -0.1840  0.3880  0.0427
  229MOL0     C30133   9.431   7.819   8.975  0.2670  0.4269  0.7543
  229MOL0     C30134   9.491   7.867   9.112  0.4247  0.5768  0.0010
  229MOL0     C30135   9.569   8.000   9.093 -0.7998 -1.7485 -0.0110
  229MOL0     C30136   9.680   7.987   8.985  0.1856  0.2763  0.3120
  229MOL0     C30137   9.793   7.896   9.051  0.6823 -0.0485 -0.0008
  229MOL0     C30138   9.920   7.907   8.967  0.7849 -1.0094  0.4730
  229MOL0     C30139  10.024   7.803   9.006  0.1887 -0.6829 -0.7984
  229MOL0    Cl30140  10.140   7.903   9.094 -0.8453  0.2918 -0.3632
  229MOL0     C30141   9.035   7.638   9.000 -0.1840 -0.2022 -0.0733
  229MOL0     C30142   8.901   7.611   9.041  0.5510  0.1635  0.2887
  229MOL0     O30143   8.733   7.563   9.410  0.3038  1.1376  0.1460
  229MOL0     C30144   8.452   7.549   9.421 -0.9106 -0.2773  0.2876
  229MOL0     C30145   8.313   7.578   9.432 -0.6182  0.2110 -0.2571
  229MOL0     N30146   7.466   7.696   9.419 -0.3456 -0.6452  0.3284
  229MOL0     N30147   7.395   7.676   9.516  0.8503  0.1867 -0.8297
  229MOL0     C30148   8.293   7.584   9.811 -0.1530 -0.1788  0.0334
  229MOL0     C30149   8.429   7.561   9.841 -0.6873 -0.2901 -0.0664
  229MOL0     C30150   8.805   7.445  10.037 -0.4258  0.4488  0.2343
  229MOL0     C30151   8.865   7.511  10.142  0.4356 -0.2905 -0.0829
  229MOL0     C30152   9.003   7.501  10.167  0.0234  0.2824 -1.0676
  229MOL0     C30153   9.074   7.419  10.088  0.2653 -1.3955  1.1035
  229MOL0     O30154   9.205   7.409  10.081 -0.4685 -0.5379  0.9387
  229MOL0     C30155   9.293   7.491  10.160  1.1654  0.1207 -0.1658
  229MOL0     C30156   9.444   7.458  10.144  0.2355  0.3437  0.3345
  229MOL0     C30157   9.481   7.424   9.997  0.2268  0.1272  0.3636
  229MOL0     C30158   9.451   7.534   9.898  0.9584 -0.3234 -0.4453
  229MOL0     C30159   9.482   7.672   9.951 -0.3579  0.6492  0.0968
  229MOL0     C30160   9.506   7.785  10.000  0.7055  0.6897  0.0669
  229MOL0     C30161   9.015   7.354   9.980 -0.5994 -0.3463  0.5381
  229MOL0     C30162   8.886   7.370   9.949  0.7273  0.7452  1.1114
  229MOL0     H30163   8.431   7.225   9.812  0.2878  0.0886 -0.5999
  229MOL0     H30164   8.191   7.265   9.790  1.0534 -0.1312  1.3367
  229MOL0     H30165   8.037   7.677   9.696 -2.7953  1.0931 -0.4713
  229MOL0     H30166   8.059   7.713   9.864  1.3973 -0.8187  1.6417
  229MOL0     H30167   7.821   7.551   9.809 -0.8061  0.1399  2.3087
  229MOL0     H30168   7.818   7.725   9.782  0.9649 -0.2391  0.0143
  229MOL0     H30169   7.886   7.765  10.028  0.7034 -1.4879  1.5163
  229MOL0     H30170   7.914   7.593  10.038  4.0841 -0.3657 -3.6667
  229MOL0     H30171   7.655   7.567   9.978  2.8158 -1.2186 -0.8846
  229MOL0     H30172   7.696   7.631  10.131 -1.3098 -0.8624 -0.3265
  229MOL0     H30173   7.639   7.800   9.863  1.9556 -1.8298 -0.8427
  229MOL0     H30174   7.649   7.870  10.021  2.1617 -0.3846 -1.7628
  229MOL0     H30175   7.405   7.823   9.998 -0.9155  0.6088 -1.6716
  229MOL0     H30176   7.451   7.676  10.079  0.1920 -0.7006  0.0782
  229MOL0     H30177   7.522   7.613   9.816  0.6266  0.8829 -2.0344
  229MOL0     H30178   7.356   7.584   9.872  1.9328 -2.4330  0.8879
  229MOL0     H30179   7.400   7.864   9.770  2.3703  2.5889 -3.9017
  229MOL0     H30180   7.282   7.752   9.718 -0.0224 -2.0078 -1.6262
  229MOL0     H30181   7.622   7.860   9.648 -0.3849 -1.4345  0.5984
  229MOL0     H30182   7.702   7.929   9.415  1.1909 -0.7572  2.1900
  229MOL0     H30183   7.676   7.824   9.274  0.9719  1.3189 -0.2755
  229MOL0     H30184   7.821   7.649   9.404  0.4539  0.5089 -2.5361
  229MOL0     H30185   7.844   7.776   9.530  4.7231  2.8893 -1.2145
  229MOL0     H30186   7.927   7.776   9.242  0.4289 -1.9763  0.3857
  229MOL0     H30187   7.946   7.925   9.341  3.7498  0.0583  4.9914
  229MOL0     H30188   8.088   7.755   9.499 -2.8630 -0.4263  0.0002
  229MOL0     H30189   8.154   7.845   9.361  0.5979  0.2301 -1.9534
  229MOL0     H30190   8.250   7.641   9.110 -1.2216  1.1858  1.2232
  229MOL0     H30191   8.492   7.625   9.085  0.7060 -1.7085  0.1150
  229MOL0     H30192   8.953   7.499   9.360  1.1328 -0.3536  0.9234
  229MOL0     H30193   9.188   7.561   9.286  0.5953  1.9905 -0.4877
  229MOL0     H30194   9.217   7.847   8.977 -0.3071  0.2281  1.0701
  229MOL0     H30195   9.270   7.702   8.882 -0.3688 -2.0979  1.6531
  229MOL0     H30196   9.426   7.904   8.906 -2.4136  0.2515  0.6478
  229MOL0     H30197   9.497   7.742   8.933  1.0588  2.6501 -2.4946
  229MOL0     H30198   9.545   7.784   9.159 -1.9126  0.4478  2.7097
  229MOL0     H30199   9.418   7.877   9.193  1.9419 -1.7206  1.8100
  229MOL0     H30200   9.503   8.076   9.050  0.9157 -1.5113 -2.4545
  229MOL0     H30201   9.610   8.040   9.185  1.1138  1.5241 -2.0883
  229MOL0     H30202   9.732   8.080   8.960  0.6470  0.0712  0.4792
  229MOL0     H30203   9.647   7.945   8.890 -0.1138 -0.5760  0.7803
  229MOL0     H30204   9.768   7.790   9.063  0.2702  0.0581  0.1040
  229MOL0     H30205   9.827   7.935   9.147  3.7274 -0.8314 -0.6414
  229MOL0     H30206   9.901   7.894   8.860  0.8443  2.6863 -0.1195
  229MOL0     H30207   9.944   8.014   8.978 -1.2129 -0.5850  1.2345
  229MOL0     H30208  10.071   7.774   8.912  3.0539  2.4920 -0.5185
  229MOL0     H30209   9.993   7.718   9.069  0.4316 -0.4232 -0.3258
  229MOL0     H30210   9.050   7.682   8.902 -2.4172 -1.8282 -1.2212
  229MOL0     H30211   8.826   7.619   8.963  1.7211  0.8280 -0.7872
  229MOL0     H30212   8.508   7.513   9.507  4.4918  4.8439 -0.3891
  229MOL0     H30213   8.254   7.561   9.522 -2.1258 -1.4831 -1.4894
  229MOL0     H30214   8.270   7.689   9.820 -1.3869 -0.4641  0.3003
  229MOL0     H30215   8.496   7.637   9.880 -1.0020 -0.3509  0.6064
  229MOL0     H30216   8.805   7.569  10.211 -1.7146 -1.0443 -1.2549
  229MOL0     H30217   9.055   7.562  10.241  0.3479  0.4045 -1.3888
  229MOL0     H30218   9.270   7.473  10.265 -1.0813 -1.5658 -0.8480
  229MOL0     H30219   9.283   7.598  10.140 -2.2801  0.4435  2.2713
  229MOL0     H30220   9.511   7.530  10.192 -2.0366  2.9580 -0.1213
  229MOL0     H30221   9.463   7.365  10.198 -2.1812 -0.9473 -0.9046
  229MOL0     H30222   9.425   7.333   9.973 -2.0246  2.1841 -2.8916
  229MOL0     H30223   9.589   7.406  10.006  0.6494  1.9359 -0.6659
  229MOL0     H30224   9.504   7.516   9.804  0.6377  0.9351 -0.8915
  229MOL0     H30225   9.345   7.525   9.872  0.3448  0.8004  1.4493
  229MOL0     H30226   9.548   7.872  10.047  5.9462 -0.7939 -1.1178
  229MOL0     H30227   9.064   7.283   9.915 -1.5304  2.1263 -3.1907
  229MOL0     H30228   8.844   7.324   9.861  1.0401  1.5308  0.5444
  230MOL0     O30229   8.948   7.215   5.141  0.8000  0.3450 -0.3728
  230MOL0     C30230   8.976   7.244   5.258  0.5468 -0.7991  0.0249
  230MOL0     O30231   8.888   7.257   5.356  0.1895  0.3216 -0.7553
  230MOL0     C30232   8.755   7.268   5.327 -0.8319  0.5184  0.2132
  230MOL0     C30233   8.726   7.372   5.250 -0.5767 -0.5813  0.4628
  230MOL0     C30234   8.593   7.380   5.208  0.4480  0.3481 -0.3231
  230MOL0     C30235   8.497   7.281   5.230 -0.5163  0.6854 -0.6929
  230MOL0     O30236   8.374   7.284   5.173 -0.4896 -0.2318 -0.2965
  230MOL0     C30237   8.370   7.363   5.052  0.6871 -0.4965  0.2289
  230MOL0     C30238   8.305   7.508   5.084  0.2830  0.7498 -0.7839
  230MOL0     C30239   8.173   7.509   5.174 -1.5209  1.1189 -0.1265
  230MOL0     C30240   8.138   7.657   5.218  0.0560  0.9907  0.6285
  230MOL0     C30241   7.993   7.674   5.272  1.0302  0.0436  0.3574
  230MOL0     C30242   7.973   7.824   5.295 -1.3608  0.1003  0.9938
  230MOL0     C30243   7.834   7.876   5.334  0.2302  0.3596 -0.5416
  230MOL0     C30244   7.763   7.819   5.459 -0.5659  0.9750  0.4085
  230MOL0     N30245   7.852   7.821   5.577 -0.1428 -0.3009 -0.2699
  230MOL0     C30246   7.901   7.706   5.639  0.5295 -0.5596  0.4639
  230MOL0     C30247   8.015   7.748   5.706 -0.1793 -0.2961  0.0648
  230MOL0     C30248   8.106   7.656   5.776 -1.1451  0.2232  0.1109
  230MOL0     C30249   8.185   7.567   5.678  0.0736 -0.1921  0.8514
  230MOL0     C30250   8.265   7.634   5.566  0.2057  0.0996  0.6073
  230MOL0     C30251   8.412   7.678   5.600  0.3948 -0.3713  0.6000
  230MOL0     O30252   8.491   7.557   5.622  0.6463 -0.5125  0.0581
  230MOL0     C30253   8.626   7.572   5.659 -0.0532 -0.5108 -0.9840
  230MOL0     C30254   8.699   7.460   5.648  0.9058  0.1145  0.5146
  230MOL0     C30255   8.839   7.462   5.665 -0.1960 -0.1808 -0.0741
  230MOL0     C30256   8.903   7.573   5.701 -0.0774  0.1801 -0.1830
  230MOL0     C30257   9.053   7.568   5.719 -0.0170  0.6207 -0.2584
  230MOL0     O30258   9.127   7.687   5.700  0.6166 -0.0674 -0.3833
  230MOL0     C30259   9.261   7.683   5.710 -0.6326 -0.2930 -0.7097
  230MOL0     C30260   9.347   7.626   5.607  0.8206 -0.0793 -1.5438
  230MOL0     C30261   9.483   7.627   5.622 -0.7604  0.2853 -0.0640
  230MOL0     C30262   9.550   7.678   5.734 -0.9268  0.3367  0.4265
  230MOL0     O30263   9.684   7.659   5.739  0.6786  0.3682  1.1058
  230MOL0     C30264   9.761   7.776   5.759 -0.0727  0.0502  0.5500
  230MOL0     C30265   9.900   7.723   5.747  0.0250  0.4410 -0.0959
  230MOL0     C30266  10.005   7.820   5.804 -0.6184 -0.5698  1.1553
  230MOL0     C30267  10.051   7.938   5.713  0.0630 -0.8305  0.2917
  230MOL0     C30268  10.158   8.027   5.783 -0.0708 -0.0809  0.1631
  230MOL0     C30269  10.194   8.160   5.706  0.1443  0.2255  0.0635
  230MOL0     C30270  10.206   8.147   5.548  0.4769  0.4432  1.0522
  230MOL0     C30271  10.274   8.257   5.472 -0.1037  0.3395  0.2636
  230MOL0    Cl30272  10.183   8.405   5.488  0.0944  0.1528  0.1385
  230MOL0     C30273   9.475   7.748   5.825 -0.5065 -0.6076  0.1408
  230MOL0     C30274   9.330   7.749   5.811  0.0293 -0.5553 -0.8476
  230MOL0     O30275   9.106   7.459   5.736  0.2102  0.1190 -1.0511
  230MOL0     C30276   8.833   7.695   5.708  0.0068 -0.6787  1.0133
  230MOL0     C30277   8.693   7.694   5.684  0.3480  0.2141  0.0709
  230MOL0     N30278   8.031   7.881   5.671 -0.0482  0.6101 -0.0712
  230MOL0     N30279   7.930   7.931   5.599 -0.1035  0.1983 -0.1777
  230MOL0     C30280   8.539   7.175   5.319  0.1729  0.0330 -0.6499
  230MOL0     C30281   8.666   7.170   5.366  0.2369 -0.5924 -0.7687
  230MOL0     C30282   9.121   7.242   5.298 -0.2636  0.4046 -0.8617
  230MOL0     C30283   9.170   7.280   5.428  0.5331  0.0375  0.7302
  230MOL0     C30284   9.303   7.275   5.467 -0.7834  0.3210  0.8496
  230MOL0     C30285   9.402   7.248   5.377 -0.2603 -0.1057  0.1450
  230MOL0     O30286   9.541   7.255   5.399 -0.1035  0.7497 -0.8417
  230MOL0     C30287   9.586   7.241   5.544  0.5685 -0.0607  0.1921
  230MOL0     C30288   9.739   7.229   5.569  0.4527 -0.1858  0.5283
  230MOL0     C30289   9.762   7.271   5.714 -0.2544 -0.3385  0.0480
  230MOL0     C30290   9.887   7.205   5.781 -0.8034  0.0094 -0.1976
  230MOL0     C30291   9.864   7.217   5.929  0.7195 -0.4600  0.5452
  230MOL0     C30292   9.860   7.213   6.049  0.3069  0.4253  0.2244
  230MOL0     C30293   9.362   7.202   5.247  0.6796  0.1841 -0.0733
  230MOL0     C30294   9.229   7.206   5.210  1.1511 -0.3327  0.8757
  230MOL0     H30295   8.799   7.447   5.218 -0.8125  0.4193  2.1038
  230MOL0     H30296   8.574   7.472   5.155  1.9340  2.0141  1.8540
  230MOL0     H30297   8.305   7.306   4.986  2.1158 -2.9859  0.8500
  230MOL0     H30298   8.463   7.375   4.996 -0.3571  0.2574 -1.4429
  230MOL0     H30299   8.266   7.545   4.989  0.6095  2.7229 -0.1967
  230MOL0     H30300   8.380   7.573   5.131  1.2584 -0.4927 -0.5989
  230MOL0     H30301   8.192   7.433   5.250  3.7188  0.5618 -1.5621
  230MOL0     H30302   8.086   7.478   5.117 -2.1960  0.9472  0.9618
  230MOL0     H30303   8.215   7.697   5.285  1.2116 -0.0798 -0.0151
  230MOL0     H30304   8.138   7.712   5.123 -1.3296  0.2311  0.1662
  230MOL0     H30305   7.987   7.618   5.366  0.3784 -1.5461 -0.5884
  230MOL0     H30306   7.921   7.637   5.198  3.5782 -1.2328 -1.6780
  230MOL0     H30307   7.995   7.876   5.201  0.7454 -2.9620 -0.4077
  230MOL0     H30308   8.049   7.855   5.367 -0.6795  0.8563 -0.0276
  230MOL0     H30309   7.835   7.985   5.348 -2.8811  0.1821  2.1670
  230MOL0     H30310   7.767   7.868   5.248  1.0920  1.3465 -1.3352
  230MOL0     H30311   7.753   7.714   5.429  0.1135  0.1565  2.8334
  230MOL0     H30312   7.672   7.874   5.484 -2.1518 -2.3706  2.7912
  230MOL0     H30313   7.882   7.604   5.609 -0.1170 -0.8044  1.6266
  230MOL0     H30314   8.055   7.584   5.840 -1.4827 -0.7106 -1.1490
  230MOL0     H30315   8.171   7.713   5.842 -3.9191  1.0206  2.3098
  230MOL0     H30316   8.111   7.510   5.620  1.3221 -2.8078  1.6628
  230MOL0     H30317   8.253   7.490   5.715 -0.3709 -1.0591 -0.0626
  230MOL0     H30318   8.278   7.564   5.483  0.2012  2.6293 -1.6572
  230MOL0     H30319   8.207   7.717   5.525  2.2555  0.6587 -1.3915
  230MOL0     H30320   8.401   7.731   5.695  0.2997 -2.1955  1.6656
  230MOL0     H30321   8.456   7.740   5.522 -1.1783 -0.1552 -0.1458
  230MOL0     H30322   8.653   7.364   5.626  1.0990  0.1921 -0.2344
  230MOL0     H30323   8.899   7.372   5.663  1.7174  0.7402  4.3026
  230MOL0     H30324   9.301   7.567   5.529  0.7902 -3.3467  0.7457
  230MOL0     H30325   9.538   7.574   5.545  0.7188  2.9015 -0.9236
  230MOL0     H30326   9.744   7.808   5.863 -0.6097  1.4330  0.0691
  230MOL0     H30327   9.732   7.856   5.690  0.6486  0.0853  0.2817
  230MOL0     H30328   9.925   7.687   5.647  2.0751  1.2443  0.0723
  230MOL0     H30329   9.895   7.636   5.814  1.4959  0.6844  0.3674
  230MOL0     H30330  10.100   7.768   5.823  0.2937 -0.8649 -3.1605
  230MOL0     H30331   9.966   7.861   5.898 -2.5559  2.9875 -0.9945
  230MOL0     H30332  10.088   7.902   5.617  1.5317 -1.1385  0.9450
  230MOL0     H30333   9.965   8.004   5.694  1.0317  0.5272  0.4677
  230MOL0     H30334  10.253   7.972   5.785  0.4359  0.7784  0.3554
  230MOL0     H30335  10.118   8.056   5.880  1.1008 -1.6998  1.1852
  230MOL0     H30336  10.287   8.194   5.752  0.2523 -0.7938  0.6167
  230MOL0     H30337  10.115   8.233   5.724 -0.5421  0.2212 -2.5154
  230MOL0     H30338  10.262   8.056   5.526  0.2944  0.1605  1.7281
  230MOL0     H30339  10.102   8.135   5.519  0.0914  1.7888  1.7824
  230MOL0     H30340  10.289   8.228   5.367  1.0427 -1.5589  0.8991
  230MOL0     H30341  10.378   8.271   5.505 -0.4699  0.9635  1.1932
  230MOL0     H30342   9.521   7.801   5.908 -1.0633  0.5456 -0.2639
  230MOL0     H30343   9.267   7.787   5.891 -3.2993 -3.7738 -1.6438
  230MOL0     H30344   8.886   7.788   5.726 -0.8364 -0.1433  0.7503
  230MOL0     H30345   8.637   7.787   5.671  3.0856  1.8594 -0.8667
  230MOL0     H30346   8.457   7.105   5.334  1.8517 -2.9589 -3.9422
  230MOL0     H30347   8.686   7.083   5.428 -1.3185 -0.3275  0.1610
  230MOL0     H30348   9.095   7.314   5.499  1.4565  0.9073  1.3085
  230MOL0     H30349   9.335   7.305   5.567  1.6454  1.1068 -0.0924
  230MOL0     H30350   9.538   7.153   5.586  0.9807 -0.7302 -0.6896
  230MOL0     H30351   9.553   7.328   5.601  1.5129 -1.0752  2.4064
  230MOL0     H30352   9.769   7.125   5.552  0.1573 -0.2179  0.1950
  230MOL0     H30353   9.799   7.301   5.512  0.8268  2.4095  3.8728
  230MOL0     H30354   9.666   7.234   5.749 -0.9761 -0.3415 -1.8262
  230MOL0     H30355   9.783   7.378   5.723  1.2164 -0.5605 -0.3892
  230MOL0     H30356   9.900   7.102   5.747  2.2195 -0.4254  1.9136
  230MOL0     H30357   9.982   7.251   5.754 -1.5381  0.2907 -2.6009
  230MOL0     H30358   9.865   7.214   6.156  0.2287 -0.5568  0.2439
  230MOL0     H30359   9.447   7.178   5.184  1.2276  0.8485  0.3941
  230MOL0     H30360   9.207   7.181   5.107  0.0986  1.2080  0.6977
  231MOL0     O30361  11.226   3.290   0.342  0.5884  0.5119  0.2130
  231MOL0     C30362  11.134   3.261   0.262 -0.1586 -0.3644 -0.6726
  231MOL0     O30363  11.138   3.259   0.122 -0.1124 -0.6255  0.6845
  231MOL0     C30364  11.255   3.283   0.063  0.5442 -0.7014 -0.1968
  231MOL0     C30365  11.254   3.366  -0.055  0.6853  0.1602 -0.1818
  231MOL0     C30366  11.368   3.365  -0.136 -0.1078 -0.1509  0.5953
  231MOL0     C30367  11.490   3.300  -0.106 -0.4303  0.0162 -0.0320
  231MOL0     O30368  11.607   3.335  -0.174  0.1761 -0.3110 -0.8992
  231MOL0     C30369  11.728   3.268  -0.135  0.0918 -0.5625  0.1583
  231MOL0     C30370  11.836   3.284  -0.244 -0.2986  0.0479 -0.3087
  231MOL0     C30371  11.795   3.251  -0.392  0.2846 -0.6493 -0.0953
  231MOL0     C30372  11.901   3.312  -0.493 -0.1029 -0.0567 -0.1922
  231MOL0     C30373  11.869   3.299  -0.636  0.1234 -0.7024  0.9474
  231MOL0     C30374  11.737   3.376  -0.682 -0.0607 -0.3901 -0.5187
  231MOL0     C30375  11.736   3.532  -0.654  0.6940  0.2688 -0.5956
  231MOL0     C30376  11.609   3.596  -0.704  0.6126  0.3779  0.1732
  231MOL0     N30377  11.481   3.549  -0.651  0.3195 -0.4629  0.7304
  231MOL0     C30378  11.369   3.536  -0.727  0.6396 -0.1023 -0.3780
  231MOL0     C30379  11.272   3.499  -0.638 -0.4884  0.4288 -0.2915
  231MOL0     C30380  11.126   3.483  -0.669 -0.3842  0.1225 -0.3390
  231MOL0     C30381  11.028   3.540  -0.572 -0.8480  0.4200 -0.0143
  231MOL0     C30382  10.886   3.517  -0.620  0.2484  0.4257  0.4863
  231MOL0     C30383  10.795   3.514  -0.498 -0.3353 -0.0434 -1.0441
  231MOL0     O30384  10.666   3.472  -0.533  0.3477 -0.6090  0.3832
  231MOL0     C30385  10.581   3.405  -0.445  1.1655  0.2211 -0.0526
  231MOL0     C30386  10.443   3.431  -0.462 -0.1292  1.0033  0.4396
  231MOL0     C30387  10.358   3.390  -0.365  0.2930 -0.8481 -0.5260
  231MOL0     C30388  10.396   3.293  -0.270 -0.3451 -0.3374  0.2602
  231MOL0     C30389  10.311   3.252  -0.157  0.8495  0.5913 -0.2585
  231MOL0     O30390  10.215   3.341  -0.123 -0.1179  0.4101 -0.5059
  231MOL0     C30391  10.136   3.305  -0.017  0.5552 -0.7341  0.1617
  231MOL0     C30392  10.163   3.367   0.105  1.5131  0.6844 -0.4553
  231MOL0     C30393  10.114   3.311   0.230 -0.5745 -0.0897  1.0237
  231MOL0     C30394  10.017   3.206   0.220 -0.9617  0.2771 -0.1599
  231MOL0     O30395   9.946   3.155   0.331 -0.7981 -0.2955 -0.2218
  231MOL0     C30396   9.915   3.245   0.432  0.9056 -0.3696 -0.3619
  231MOL0     C30397   9.771   3.232   0.477  1.2297 -0.5487 -0.8425
  231MOL0     C30398   9.750   3.086   0.526 -0.0982 -0.0428 -0.0253
  231MOL0     C30399   9.605   3.088   0.582 -0.3439  0.2143 -0.6603
  231MOL0     C30400   9.552   2.945   0.608  0.1733  0.5139  0.4298
  231MOL0     C30401   9.590   2.918   0.745 -1.0620 -0.5303 -0.5941
  231MOL0     C30402   9.526   2.789   0.799 -1.0185  0.8051  1.1562
  231MOL0     C30403   9.376   2.783   0.823  0.4015 -1.0536 -0.1144
  231MOL0    Cl30404   9.336   2.614   0.875  0.1279  0.9003 -0.2499
  231MOL0     C30405   9.986   3.153   0.091  1.3404 -0.0201 -1.0089
  231MOL0     C30406  10.042   3.199  -0.025 -0.7330 -0.8141 -0.2918
  231MOL0     O30407  10.336   3.151  -0.094 -0.0158  0.7064 -0.8399
  231MOL0     C30408  10.530   3.248  -0.271  0.5312 -0.1992  0.3608
  231MOL0     C30409  10.624   3.301  -0.361  0.0573 -0.6234 -0.0298
  231MOL0     N30410  11.328   3.480  -0.509  0.6116 -0.8118  1.0856
  231MOL0     N30411  11.455   3.503  -0.521 -0.0471  0.0012  0.0313
  231MOL0     C30412  11.487   3.223   0.011  0.1115 -0.5257 -0.8476
  231MOL0     C30413  11.369   3.208   0.095 -0.6348 -1.4826 -0.4997
  231MOL0     C30414  11.003   3.226   0.320 -0.0670  0.3123 -1.4799
  231MOL0     C30415  10.891   3.204   0.241 -0.0300 -0.7077 -0.2373
  231MOL0     C30416  10.762   3.181   0.300  0.1105  0.6649  0.2876
  231MOL0     C30417  10.746   3.182   0.441 -0.7907 -0.3725  0.9054
  231MOL0     O30418  10.627   3.148   0.503 -0.6301 -0.0323  0.0860
  231MOL0     C30419  10.505   3.146   0.425 -0.5495 -0.0517 -0.0436
  231MOL0     C30420  10.488   3.010   0.347  0.4683 -0.6359  0.5300
  231MOL0     C30421  10.358   3.029   0.254 -0.1879  0.1715 -0.3488
  231MOL0     C30422  10.281   2.895   0.241 -0.4190  0.0112 -0.2239
  231MOL0     C30423  10.218   2.881   0.364  0.1979  0.8170 -0.3788
  231MOL0     C30424  10.162   2.886   0.466 -0.5417 -0.4401 -1.1514
  231MOL0     C30425  10.861   3.199   0.521  0.6811 -0.9945  0.9558
  231MOL0     C30426  10.985   3.226   0.457  1.2263  0.0659 -0.9287
  231MOL0     H30427  11.160   3.411  -0.085 -1.0545 -4.2200 -2.1811
  231MOL0     H30428  11.368   3.431  -0.222  0.6524 -0.9737 -0.0458
  231MOL0     H30429  11.705   3.161  -0.133 -5.3003  0.3448  0.6442
  231MOL0     H30430  11.766   3.309  -0.042 -3.5195  1.4027  0.9393
  231MOL0     H30431  11.913   3.211  -0.218 -1.8253 -1.9674 -1.1022
  231MOL0     H30432  11.879   3.384  -0.243 -0.0500 -0.0550  1.6680
  231MOL0     H30433  11.695   3.290  -0.410  0.1962 -0.5036  0.7144
  231MOL0     H30434  11.798   3.142  -0.406  1.5845 -0.3786 -2.5878
  231MOL0     H30435  11.908   3.420  -0.480 -0.4004 -0.0718  0.0988
  231MOL0     H30436  12.002   3.275  -0.475 -0.1015  0.2975  0.5633
  231MOL0     H30437  11.848   3.192  -0.643  1.9690 -1.1742  2.1149
  231MOL0     H30438  11.942   3.342  -0.705 -1.5233 -1.8389 -1.6563
  231MOL0     H30439  11.647   3.331  -0.640 -1.9401  0.8941 -2.9264
  231MOL0     H30440  11.741   3.353  -0.789  2.7502 -2.3390 -0.1089
  231MOL0     H30441  11.742   3.554  -0.547 -2.7920 -2.7426  0.4467
  231MOL0     H30442  11.820   3.582  -0.702  0.6506  0.0253 -0.9272
  231MOL0     H30443  11.611   3.590  -0.813  0.6522 -2.0007  0.2607
  231MOL0     H30444  11.616   3.704  -0.686 -1.9605  1.2192 -2.8925
  231MOL0     H30445  11.348   3.570  -0.828 -1.6493  0.6636  0.3000
  231MOL0     H30446  11.110   3.375  -0.676 -0.7487  0.1206  0.4561
  231MOL0     H30447  11.101   3.532  -0.763 -1.3611  0.7238  0.2261
  231MOL0     H30448  11.051   3.644  -0.544  0.9601  0.3921 -1.2415
  231MOL0     H30449  11.036   3.489  -0.476 -1.7504  1.4542  0.6379
  231MOL0     H30450  10.851   3.584  -0.698 -1.4565  0.5612  1.3208
  231MOL0     H30451  10.886   3.414  -0.659 -2.2253 -0.0902  1.6265
  231MOL0     H30452  10.789   3.611  -0.447  0.7987  0.5841 -2.0522
  231MOL0     H30453  10.841   3.443  -0.429 -0.1535 -1.9708 -3.0372
  231MOL0     H30454  10.403   3.485  -0.548 -2.2776  2.5051  2.2678
  231MOL0     H30455  10.256   3.428  -0.358  1.5668  3.0408 -0.3748
  231MOL0     H30456  10.224   3.454   0.124  2.6877  0.3041 -2.2843
  231MOL0     H30457  10.151   3.353   0.323  0.1880  0.9260  0.2872
  231MOL0     H30458   9.937   3.349   0.407  4.5450 -1.0195 -0.4949
  231MOL0     H30459   9.981   3.224   0.517  1.4277 -0.7190 -0.8409
  231MOL0     H30460   9.696   3.264   0.404  2.4215 -0.2610 -1.9753
  231MOL0     H30461   9.760   3.291   0.569 -0.8815 -0.2462 -1.2474
  231MOL0     H30462   9.824   3.070   0.605  0.3022  0.5615 -0.2742
  231MOL0     H30463   9.767   3.019   0.442  1.6147  2.1965 -1.5747
  231MOL0     H30464   9.600   3.149   0.673  1.5555  2.5041 -1.9425
  231MOL0     H30465   9.545   3.134   0.503  1.2098 -0.4446 -2.2861
  231MOL0     H30466   9.597   2.875   0.536  1.6023  1.8915 -0.0700
  231MOL0     H30467   9.442   2.942   0.601  0.2035 -1.0926  0.1324
  231MOL0     H30468   9.571   2.996   0.820  3.1645  0.1669  0.0097
  231MOL0     H30469   9.699   2.907   0.748 -0.9214  0.8842  0.8473
  231MOL0     H30470   9.540   2.714   0.720  0.2206  1.5699  0.6163
  231MOL0     H30471   9.584   2.760   0.886 -0.1187  1.0927  0.6660
  231MOL0     H30472   9.309   2.803   0.739  1.4288 -0.5109 -0.8312
  231MOL0     H30473   9.341   2.846   0.905  2.6668 -1.4414  1.2450
  231MOL0     H30474   9.928   3.061   0.094  3.9820 -1.7850  0.6881
  231MOL0     H30475  10.022   3.158  -0.124 -0.2704  3.7635 -2.5643
  231MOL0     H30476  10.571   3.173  -0.204  0.9583 -0.4122 -0.1334
  231MOL0     H30477  10.726   3.267  -0.343 -1.4328 -4.3584  2.5448
  231MOL0     H30478  11.574   3.166   0.044 -0.5369  0.0752  2.1839
  231MOL0     H30479  11.378   3.151   0.187  2.5244  2.0364  1.6540
  231MOL0     H30480  10.897   3.218   0.133  2.4939  0.4395 -0.0275
  231MOL0     H30481  10.671   3.170   0.241  1.5725  0.3087 -2.0439
  231MOL0     H30482  10.498   3.245   0.380  1.0527  3.0412  5.5478
  231MOL0     H30483  10.422   3.154   0.495 -0.6047 -1.0202  0.0208
  231MOL0     H30484  10.571   2.967   0.292  1.2223  1.0724  0.2708
  231MOL0     H30485  10.464   2.937   0.426  0.8465  0.2590  1.5004
  231MOL0     H30486  10.396   3.061   0.157  0.9777 -0.6290 -0.1676
  231MOL0     H30487  10.306   3.114   0.301  0.7810 -0.9597  3.0827
  231MOL0     H30488  10.214   2.885   0.156 -1.9008  0.9843  0.7898
  231MOL0     H30489  10.360   2.819   0.235 -2.0797 -1.8597  0.6886
  231MOL0     H30490  10.099   2.899   0.551  1.1604  2.3011 -0.1630
  231MOL0     H30491  10.851   3.177   0.627 -0.8419 -0.4173  0.9545
  231MOL0     H30492  11.074   3.232   0.518  2.9045 -1.9691 -3.0337
  232MOL0     O30493   1.039   3.304   7.111 -0.2164  0.6532 -0.4292
  232MOL0     C30494   1.122   3.274   7.029 -0.0705 -0.6974 -1.0491
  232MOL0     O30495   1.246   3.212   7.056  0.7260  0.0630 -0.3294
  232MOL0     C30496   1.258   3.142   7.169  0.2795  0.5851 -0.5984
  232MOL0     C30497   1.366   3.173   7.256  1.2682 -0.4857  0.3351
  232MOL0     C30498   1.360   3.116   7.383 -0.0642  1.2191 -0.1409
  232MOL0     C30499   1.261   3.020   7.416 -0.5201  0.1955  0.7658
  232MOL0     O30500   1.262   2.949   7.538 -0.7313 -0.1385  0.4129
  232MOL0     C30501   1.377   2.947   7.622 -0.5944 -0.1015  0.7167
  232MOL0     C30502   1.333   2.883   7.762 -0.7362 -0.2897 -0.6183
  232MOL0     C30503   1.447   2.875   7.870  0.0808 -0.1515 -0.4439
  232MOL0     C30504   1.386   2.866   8.012 -0.1569  0.8577  0.7433
  232MOL0     C30505   1.475   2.907   8.127  0.3131 -0.0991  0.7028
  232MOL0     C30506   1.402   2.887   8.263 -0.0675  0.3855  0.1435
  232MOL0     C30507   1.482   2.952   8.376 -0.3307  0.0042  0.1007
  232MOL0     C30508   1.431   2.927   8.516  0.0797  1.6761  0.5238
  232MOL0     N30509   1.288   2.962   8.533  0.2745  0.5559 -0.6894
  232MOL0     C30510   1.249   3.066   8.614  0.3181  1.0431  0.4489
  232MOL0     C30511   1.117   3.075   8.606  0.0255 -0.7166  1.3758
  232MOL0     C30512   1.034   3.183   8.671 -0.2728 -0.4033  0.0261
  232MOL0     C30513   1.009   3.144   8.815 -0.5424  0.3827 -0.0686
  232MOL0     C30514   0.920   3.241   8.885 -0.1423  0.0934  0.0014
  232MOL0     C30515   1.001   3.349   8.960 -0.3237 -0.1010  0.3915
  232MOL0     O30516   1.117   3.403   8.902 -0.3140  0.2883 -0.1101
  232MOL0     C30517   1.193   3.485   8.984 -0.1455  0.3960  0.2421
  232MOL0     C30518   1.305   3.544   8.915  0.3498  0.5193 -0.3650
  232MOL0     C30519   1.382   3.638   8.977  0.2776 -0.2247 -1.5876
  232MOL0     C30520   1.367   3.671   9.119 -0.3086 -0.3337  1.1510
  232MOL0     C30521   1.465   3.764   9.182  0.9943 -0.1921  0.9694
  232MOL0     O30522   1.438   3.819   9.302 -0.0520 -0.6781 -0.6819
  232MOL0     C30523   1.526   3.902   9.370 -0.4991 -1.0412 -0.4990
  232MOL0     C30524   1.654   3.950   9.331 -0.4328  0.1410 -0.1953
  232MOL0     C30525   1.747   4.013   9.412  0.5697 -0.4653 -0.5937
  232MOL0     C30526   1.704   4.064   9.536 -0.4228 -0.2180  0.5383
  232MOL0     O30527   1.786   4.145   9.620 -0.5224  0.0949  0.3649
  232MOL0     C30528   1.882   4.237   9.567 -0.0146  0.8815 -0.4173
  232MOL0     C30529   1.965   4.275   9.691 -0.3216 -0.5452 -0.0245
  232MOL0     C30530   2.061   4.403   9.677 -0.1788  1.0654  0.4339
  232MOL0     C30531   2.199   4.385   9.728  0.3270  0.2952 -0.8655
  232MOL0     C30532   2.278   4.527   9.746  0.8201  0.3297  0.2044
  232MOL0     C30533   2.291   4.596   9.608  0.5297 -0.3615  0.0115
  232MOL0     C30534   2.390   4.721   9.629  0.3225  0.6015  0.0780
  232MOL0     C30535   2.368   4.822   9.514 -1.0836  0.8286  0.0995
  232MOL0    Cl30536   2.424   4.984   9.579 -0.0860 -0.1911  0.0067
  232MOL0     C30537   1.581   4.023   9.581 -0.3531  0.5902 -0.2257
  232MOL0     C30538   1.494   3.935   9.510  0.4352 -0.3977 -0.4395
  232MOL0     O30539   1.574   3.775   9.125 -0.2504 -0.0515  0.4754
  232MOL0     C30540   1.251   3.624   9.178  0.6618  1.2241  0.5521
  232MOL0     C30541   1.165   3.531   9.114 -1.2223 -0.0071  1.0056
  232MOL0     N30542   1.071   2.984   8.512  0.4575  0.3989  0.8402
  232MOL0     N30543   1.176   2.910   8.473  0.3348 -0.3702 -0.5960
  232MOL0     C30544   1.160   2.979   7.324 -1.5483 -1.1349 -0.0455
  232MOL0     C30545   1.160   3.050   7.204  0.0948  0.1991  0.3310
  232MOL0     C30546   1.089   3.299   6.886 -0.3121  0.9350  0.6228
  232MOL0     C30547   1.183   3.268   6.784  0.3793  0.2209  0.1464
  232MOL0     C30548   1.161   3.297   6.650  0.2703 -0.4973  0.9010
  232MOL0     C30549   1.038   3.367   6.609  0.2719  0.0535  0.0781
  232MOL0     O30550   1.018   3.414   6.474 -0.1327 -0.5697  0.2457
  232MOL0     C30551   1.101   3.373   6.371 -0.6991  0.7606  0.4673
  232MOL0     C30552   1.100   3.479   6.256  0.7909  1.3887 -0.4803
  232MOL0     C30553   0.981   3.478   6.160  0.3978  0.5090 -0.1351
  232MOL0     C30554   0.854   3.519   6.237  0.1811  0.2772  0.0289
  232MOL0     C30555   0.736   3.527   6.147 -0.4156 -0.6760  0.9910
  232MOL0     C30556   0.631   3.552   6.082 -0.3248  0.1734  0.9098
  232MOL0     C30557   0.950   3.412   6.717 -1.0100 -1.4572 -0.3653
  232MOL0     C30558   0.971   3.374   6.851 -0.1055  0.0523 -0.0670
  232MOL0     H30559   1.434   3.253   7.231 -0.3652  1.0644  0.6486
  232MOL0     H30560   1.440   3.142   7.452 -0.5451  1.5032  0.3172
  232MOL0     H30561   1.430   3.040   7.643 -1.8523  0.9572 -0.5849
  232MOL0     H30562   1.441   2.874   7.572 -2.8361 -0.4460 -1.8849
  232MOL0     H30563   1.289   2.784   7.754  1.2624 -1.1505 -1.6985
  232MOL0     H30564   1.259   2.952   7.803 -3.2866 -2.7481 -0.8423
  232MOL0     H30565   1.510   2.964   7.863  0.8190 -0.5935  0.4191
  232MOL0     H30566   1.503   2.788   7.837 -0.8924 -0.1937 -2.1129
  232MOL0     H30567   1.298   2.930   8.009 -0.4354  0.4607  0.3198
  232MOL0     H30568   1.350   2.764   8.031 -0.4127  0.9554  0.7806
  232MOL0     H30569   1.502   3.011   8.107 -0.9042  0.1210  0.1270
  232MOL0     H30570   1.570   2.852   8.123  1.2187  1.4725 -1.1560
  232MOL0     H30571   1.367   2.786   8.285 -4.4521  1.8735  1.0178
  232MOL0     H30572   1.309   2.942   8.246  0.9323  1.2401 -3.3747
  232MOL0     H30573   1.590   2.937   8.374 -0.4857 -1.1157 -0.0172
  232MOL0     H30574   1.484   3.061   8.361  2.3948 -0.0469 -0.4588
  232MOL0     H30575   1.485   2.986   8.591 -2.2458  1.7071  2.3195
  232MOL0     H30576   1.458   2.824   8.538  1.2875  1.8891  0.1064
  232MOL0     H30577   1.312   3.127   8.678  0.9467  2.5166 -1.4877
  232MOL0     H30578   0.941   3.199   8.617  0.0920 -1.5782 -1.0084
  232MOL0     H30579   1.095   3.274   8.672  0.7541 -1.0737 -0.0945
  232MOL0     H30580   1.105   3.151   8.868 -0.2184  0.1944 -0.6284
  232MOL0     H30581   0.961   3.046   8.823 -2.1197  1.2103  1.2932
  232MOL0     H30582   0.851   3.287   8.813 -0.8585 -2.4957 -1.0853
  232MOL0     H30583   0.851   3.194   8.956  0.5774  1.0545  1.3892
  232MOL0     H30584   1.033   3.311   9.057  0.6639  2.8889  1.3661
  232MOL0     H30585   0.918   3.415   8.988 -4.8638 -5.8117  2.3024
  232MOL0     H30586   1.325   3.528   8.809  3.5102  1.5630 -0.0179
  232MOL0     H30587   1.462   3.685   8.921 -1.3698  2.7218 -1.6659
  232MOL0     H30588   1.697   3.936   9.232  3.7212  1.1095  1.2895
  232MOL0     H30589   1.842   4.052   9.377  0.6393  0.5233  0.6310
  232MOL0     H30590   1.836   4.326   9.523 -1.2530  0.5876  0.2251
  232MOL0     H30591   1.949   4.192   9.493  1.9884  1.4382  0.9835
  232MOL0     H30592   2.036   4.193   9.707 -0.3577 -0.3865  0.9923
  232MOL0     H30593   1.896   4.288   9.774 -0.6941  0.5548 -0.4907
  232MOL0     H30594   2.016   4.483   9.736  0.6716  2.8392 -1.2317
  232MOL0     H30595   2.052   4.436   9.573 -2.7024 -1.7674 -0.4073
  232MOL0     H30596   2.189   4.330   9.823 -2.7276  3.2545  0.7406
  232MOL0     H30597   2.260   4.327   9.659  1.3186 -1.6642  1.4864
  232MOL0     H30598   2.372   4.511   9.799 -0.0668 -0.9128  1.4423
  232MOL0     H30599   2.219   4.592   9.811 -1.2723 -1.1823 -0.0939
  232MOL0     H30600   2.191   4.631   9.584  0.0123 -1.8136 -0.0762
  232MOL0     H30601   2.333   4.530   9.532 -1.5293  1.0280 -2.4590
  232MOL0     H30602   2.380   4.768   9.728 -1.3308  0.9176 -0.2014
  232MOL0     H30603   2.493   4.686   9.620  1.9128  4.3872  1.5852
  232MOL0     H30604   2.266   4.822   9.475 -0.4318 -2.0975 -1.9256
  232MOL0     H30605   2.429   4.794   9.428 -0.7352  0.7712  0.3615
  232MOL0     H30606   1.533   4.044   9.676  0.1424 -1.9690  0.6899
  232MOL0     H30607   1.401   3.909   9.560 -0.2394  1.5186 -0.6163
  232MOL0     H30608   1.243   3.652   9.282 -0.2563  1.7321  0.3575
  232MOL0     H30609   1.094   3.479   9.178 -0.4889  2.4795  4.0708
  232MOL0     H30610   1.078   2.919   7.363 -2.2482 -0.1643  0.0264
  232MOL0     H30611   1.079   3.034   7.133  1.6220  1.4276 -1.7828
  232MOL0     H30612   1.277   3.220   6.809  0.2888 -0.0806 -0.0886
  232MOL0     H30613   1.249   3.279   6.589  0.5367 -1.1414  1.4633
  232MOL0     H30614   1.066   3.273   6.345 -2.5506  0.8735  2.2202
  232MOL0     H30615   1.205   3.366   6.403 -0.4747  1.1200 -0.1720
  232MOL0     H30616   1.114   3.579   6.298  2.3466  0.4237  1.4617
  232MOL0     H30617   1.180   3.471   6.181 -1.6941  0.0871 -3.2131
  232MOL0     H30618   0.972   3.371   6.138  4.0811 -0.0542  0.4662
  232MOL0     H30619   1.004   3.541   6.073 -0.2184  2.0517  0.7686
  232MOL0     H30620   0.823   3.444   6.310  0.1413  1.1783  0.9624
  232MOL0     H30621   0.866   3.615   6.289  0.4731 -0.4542  1.3469
  232MOL0     H30622   0.545   3.599   6.038  1.3541  0.8477 -1.9047
  232MOL0     H30623   0.869   3.475   6.681  0.7225  1.0186 -0.1841
  232MOL0     H30624   0.897   3.395   6.928 -1.1530  1.0586 -1.2901
  233MOL0     O30625  10.947   3.124   2.815 -0.1493 -0.0810 -0.4966
  233MOL0     C30626  10.855   3.179   2.876 -0.6577  0.0068  0.1787
  233MOL0     O30627  10.778   3.270   2.824 -0.4930 -0.0071  0.4008
  233MOL0     C30628  10.779   3.290   2.687 -1.1020 -0.0988 -0.6741
  233MOL0     C30629  10.716   3.203   2.607 -0.5517  0.3938  0.1992
  233MOL0     C30630  10.705   3.234   2.467 -0.1387  0.8962  0.6710
  233MOL0     C30631  10.773   3.341   2.417 -0.1801 -0.4507 -0.5626
  233MOL0     O30632  10.774   3.378   2.287  0.4771  0.1807  0.3239
  233MOL0     C30633  10.854   3.291   2.210  0.6219  0.4409  0.7340
  233MOL0     C30634  10.828   3.334   2.072  0.7525  1.0740  0.8241
  233MOL0     C30635  10.901   3.456   2.022 -0.2932  1.2701 -0.8533
  233MOL0     C30636  10.909   3.444   1.863  0.0501  0.3907  0.3429
  233MOL0     C30637  10.948   3.576   1.789 -0.8764 -0.4214  0.1362
  233MOL0     C30638  11.103   3.596   1.797  0.5412  0.8659  0.1757
  233MOL0     C30639  11.154   3.705   1.700  0.0207 -0.1450 -0.1111
  233MOL0     C30640  11.302   3.691   1.675  0.1539  0.0699  1.0875
  233MOL0     N30641  11.336   3.568   1.600  0.4158  0.1085 -0.0087
  233MOL0     C30642  11.444   3.489   1.633 -1.0281  0.1694  0.1744
  233MOL0     C30643  11.462   3.409   1.526  0.3170 -0.5213 -0.0927
  233MOL0     C30644  11.564   3.302   1.511  0.4087  0.3639  0.8949
  233MOL0     C30645  11.603   3.271   1.363  0.1628  0.5979 -0.3577
  233MOL0     C30646  11.723   3.178   1.344 -0.2356 -0.6400 -0.3207
  233MOL0     C30647  11.711   3.035   1.419  0.4328 -0.1895 -0.0149
  233MOL0     O30648  11.832   2.958   1.395 -0.3613 -0.0231 -0.1516
  233MOL0     C30649  11.852   2.827   1.457  0.0721 -0.8525 -0.5250
  233MOL0     C30650  11.963   2.760   1.413 -0.5437  0.1378 -0.4501
  233MOL0     C30651  11.978   2.625   1.459  0.1267  0.4704  0.0667
  233MOL0     C30652  11.897   2.564   1.556  0.4746 -0.0258  0.7038
  233MOL0     C30653  11.904   2.425   1.596 -0.7656 -0.6866  0.3833
  233MOL0     O30654  11.836   2.384   1.702  0.5856 -0.0309 -0.6796
  233MOL0     C30655  11.883   2.253   1.748  0.0858 -0.4971  0.1763
  233MOL0     C30656  11.785   2.150   1.755  1.1087  0.8715 -0.3431
  233MOL0     C30657  11.816   2.023   1.802 -0.5998  0.4983 -0.0789
  233MOL0     C30658  11.951   1.994   1.858  0.1954 -0.2137  0.4651
  233MOL0     O30659  12.004   1.874   1.888  0.4413  0.3185 -0.3695
  233MOL0     C30660  11.948   1.757   1.825 -0.1786  0.3513  0.7602
  233MOL0     C30661  12.037   1.641   1.861 -0.1260  0.7418  0.2027
  233MOL0     C30662  11.974   1.516   1.790 -0.3557  0.0678 -0.0389
  233MOL0     C30663  12.056   1.391   1.822  0.7521  0.1156  0.0113
  233MOL0     C30664  12.022   1.327   1.960  0.1185 -0.7634 -0.4488
  233MOL0     C30665  11.888   1.274   1.988  0.0386  0.0498  0.1249
  233MOL0     C30666  11.864   1.147   1.910  1.8603  0.7848 -0.5685
  233MOL0     C30667  11.842   1.019   1.993 -0.8771 -0.1100  0.2635
  233MOL0    Cl30668  11.977   0.995   2.096 -0.1065  0.0311 -0.4196
  233MOL0     C30669  12.038   2.103   1.877 -0.4762 -0.3670  0.6762
  233MOL0     C30670  12.004   2.226   1.821  0.9895  0.0129  0.1787
  233MOL0     O30671  11.978   2.355   1.529  0.0519 -0.0335 -0.0959
  233MOL0     C30672  11.793   2.640   1.604 -0.4070 -0.0756  0.4518
  233MOL0     C30673  11.768   2.777   1.552  0.7428  0.8276 -1.3427
  233MOL0     N30674  11.363   3.440   1.429  0.0505  0.4361  0.1866
  233MOL0     N30675  11.296   3.545   1.469  0.7176  0.3439 -0.0641
  233MOL0     C30676  10.816   3.437   2.501  0.3628 -0.1040  0.5551
  233MOL0     C30677  10.822   3.417   2.637 -0.2561  1.1525 -1.0748
  233MOL0     C30678  10.831   3.128   3.009  0.2651 -0.6241 -0.2031
  233MOL0     C30679  10.874   3.000   3.056  0.4069  0.5508 -0.4820
  233MOL0     C30680  10.860   2.963   3.190  0.0263  0.9777  0.5528
  233MOL0     C30681  10.774   3.032   3.264 -0.0611  0.2737 -0.2922
  233MOL0     O30682  10.763   2.994   3.395  0.0064  0.2719 -0.6079
  233MOL0     C30683  10.752   3.102   3.488 -0.6333 -0.6251 -0.0429
  233MOL0     C30684  10.778   3.046   3.637 -0.2756 -0.0307 -0.4181
  233MOL0     C30685  10.655   2.991   3.690  0.2650  0.1337  0.7412
  233MOL0     C30686  10.681   2.938   3.827  0.1631 -0.6355 -0.1237
  233MOL0     C30687  10.778   2.824   3.829 -0.1067 -0.2242  0.1572
  233MOL0     C30688  10.844   2.722   3.837 -0.8333  0.1168 -1.1141
  233MOL0     C30689  10.708   3.147   3.215  0.4112  0.3403 -0.0276
  233MOL0     C30690  10.736   3.195   3.091 -0.7961  0.3906  0.5020
  233MOL0     H30691  10.679   3.110   2.649  2.0509 -0.2488  1.2323
  233MOL0     H30692  10.647   3.166   2.406 -0.8173 -0.0774  2.3431
  233MOL0     H30693  10.827   3.185   2.223 -1.4602  0.5030 -2.1568
  233MOL0     H30694  10.961   3.308   2.229  1.6749 -0.3219 -3.5660
  233MOL0     H30695  10.720   3.337   2.058  0.9162  0.2527 -0.9771
  233MOL0     H30696  10.860   3.251   2.008 -2.1141 -0.3635  1.0920
  233MOL0     H30697  11.006   3.454   2.054  0.3144  0.6576 -2.7351
  233MOL0     H30698  10.856   3.545   2.067  0.3314  0.3695  1.7097
  233MOL0     H30699  10.971   3.358   1.835  1.2140  2.0117 -2.5051
  233MOL0     H30700  10.803   3.436   1.838 -0.2502 -2.9173  2.0313
  233MOL0     H30701  10.899   3.659   1.840  0.4536  0.9806 -0.7928
  233MOL0     H30702  10.909   3.567   1.687 -1.9793 -1.9944  0.6463
  233MOL0     H30703  11.145   3.503   1.759 -0.6575  0.3264  0.1358
  233MOL0     H30704  11.127   3.612   1.903  0.0966 -1.1010  0.6072
  233MOL0     H30705  11.112   3.686   1.601  0.1667 -0.7151 -0.0665
  233MOL0     H30706  11.117   3.804   1.728 -3.8162 -1.1635 -0.9349
  233MOL0     H30707  11.355   3.700   1.771  0.4444 -2.9509  1.2869
  233MOL0     H30708  11.329   3.781   1.619  1.9192  1.3209  3.7087
  233MOL0     H30709  11.505   3.506   1.721  0.4634  0.0595 -0.7998
  233MOL0     H30710  11.513   3.213   1.549 -2.4568  1.6893  0.4176
  233MOL0     H30711  11.648   3.329   1.576  0.6826 -2.3249  1.7758
  233MOL0     H30712  11.634   3.356   1.301  1.1686  0.9788  0.6341
  233MOL0     H30713  11.527   3.204   1.321 -3.1207  2.4291  2.2093
  233MOL0     H30714  11.734   3.168   1.236  1.1820 -0.8191 -0.1897
  233MOL0     H30715  11.800   3.233   1.399  0.5383 -1.4074 -0.5981
  233MOL0     H30716  11.625   2.989   1.371  0.4987  1.9397 -2.4173
  233MOL0     H30717  11.693   3.047   1.526 -3.0779  1.4609 -0.6675
  233MOL0     H30718  12.033   2.804   1.343 -0.9145  0.8727 -0.3806
  233MOL0     H30719  12.052   2.564   1.408  0.5293  0.6860  0.3882
  233MOL0     H30720  11.687   2.175   1.717 -0.3128 -0.1542  2.3879
  233MOL0     H30721  11.743   1.945   1.785 -1.1620  1.1395 -0.6927
  233MOL0     H30722  11.943   1.772   1.716 -0.1891  1.0216  0.8438
  233MOL0     H30723  11.848   1.735   1.863 -0.0915 -0.1165  0.7194
  233MOL0     H30724  12.039   1.629   1.970 -0.2946  0.8060  0.2138
  233MOL0     H30725  12.136   1.651   1.816 -1.1483 -1.3523 -2.8296
  233MOL0     H30726  11.972   1.548   1.686  1.2497 -0.6078 -0.3096
  233MOL0     H30727  11.871   1.501   1.824 -0.2870 -1.6666 -0.5056
  233MOL0     H30728  12.030   1.311   1.752  2.8722 -0.7707  0.1781
  233MOL0     H30729  12.164   1.401   1.816  0.7845  1.7232  2.1751
  233MOL0     H30730  12.037   1.409   2.030 -0.6142 -1.1549  0.1825
  233MOL0     H30731  12.082   1.244   1.999 -0.0802  0.1448  1.9766
  233MOL0     H30732  11.813   1.351   1.971 -0.1027 -0.5528 -2.4198
  233MOL0     H30733  11.882   1.252   2.095 -1.7012  1.7788  0.4282
  233MOL0     H30734  11.768   1.159   1.859  0.6568  1.4424  1.7206
  233MOL0     H30735  11.946   1.128   1.840  1.8314 -0.7789 -0.2214
  233MOL0     H30736  11.833   0.937   1.920  0.4501  0.0157 -0.0706
  233MOL0     H30737  11.749   1.014   2.051  0.1548 -0.7753  1.9419
  233MOL0     H30738  12.135   2.096   1.925  2.0714  0.9371 -3.7845
  233MOL0     H30739  12.074   2.306   1.839  4.1753 -2.8703  1.6869
  233MOL0     H30740  11.726   2.605   1.682  0.9933 -0.9441  1.3041
  233MOL0     H30741  11.682   2.835   1.584 -0.3417 -1.0195 -0.7356
  233MOL0     H30742  10.854   3.522   2.446 -0.3121  0.6938  1.2974
  233MOL0     H30743  10.869   3.488   2.705 -0.3034 -2.8897  3.7546
  233MOL0     H30744  10.944   2.936   3.004  0.1090 -4.2769  4.2153
  233MOL0     H30745  10.888   2.867   3.232  2.3587  1.5348  0.3824
  233MOL0     H30746  10.657   3.156   3.485  0.0631  0.5944 -1.0472
  233MOL0     H30747  10.825   3.182   3.477  0.5913 -1.8596 -1.2079
  233MOL0     H30748  10.869   2.984   3.643 -1.7592 -2.4675 -1.5917
  233MOL0     H30749  10.801   3.134   3.698  2.1298 -0.3050 -0.8117
  233MOL0     H30750  10.625   2.914   3.619 -1.4954  0.3523  1.1852
  233MOL0     H30751  10.585   3.075   3.694  0.1500  0.0103  1.5110
  233MOL0     H30752  10.710   3.009   3.906  0.2793 -1.3778  0.5158
  233MOL0     H30753  10.590   2.887   3.860 -0.0873  0.8194  1.5914
  233MOL0     H30754  10.902   2.632   3.838  1.9985  1.8014  1.4810
  233MOL0     H30755  10.643   3.210   3.274 -1.1749 -2.8675  1.9750
  233MOL0     H30756  10.686   3.280   3.046 -1.3439  0.4611  1.2310
  234MOL0     O30757   1.926   5.722   1.301  0.7200 -0.5167  0.0575
  234MOL0     C30758   1.953   5.811   1.378  1.3350 -1.3049 -0.2757
  234MOL0     O30759   1.854   5.877   1.452 -0.3906 -0.8616  0.0874
  234MOL0     C30760   1.721   5.848   1.422  0.0631  0.5026 -1.0542
  234MOL0     C30761   1.658   5.904   1.304  0.2969 -0.1376 -0.7422
  234MOL0     C30762   1.525   5.870   1.281  0.1533 -0.4899  0.4416
  234MOL0     C30763   1.448   5.794   1.368  0.0407 -1.3898 -0.4833
  234MOL0     O30764   1.317   5.785   1.324 -0.1087 -0.1251  0.8282
  234MOL0     C30765   1.210   5.716   1.401  0.1038  0.5776  0.2220
  234MOL0     C30766   1.111   5.642   1.305  0.0776 -0.5995 -0.5578
  234MOL0     C30767   1.158   5.498   1.277 -1.2053  0.0292  0.8364
  234MOL0     C30768   1.052   5.430   1.186  0.8617  0.1237  0.7652
  234MOL0     C30769   1.073   5.279   1.176 -0.9269  0.1655  1.0708
  234MOL0     C30770   0.966   5.223   1.085  0.9741 -0.5211 -0.0958
  234MOL0     C30771   0.992   5.078   1.063  0.5854  0.3729 -1.1229
  234MOL0     C30772   1.086   5.054   0.944  0.8455 -0.2643  0.7253
  234MOL0     N30773   1.030   5.028   0.809 -0.3734 -0.1072  0.4452
  234MOL0     C30774   0.900   5.070   0.763 -0.2321 -1.2014 -0.2665
  234MOL0     C30775   0.910   5.047   0.629  0.0462  1.0158 -0.1590
  234MOL0     C30776   0.826   5.085   0.517  0.0628 -0.0651  0.1801
  234MOL0     C30777   0.750   4.958   0.453  0.2386  0.0777 -0.5391
  234MOL0     C30778   0.647   4.903   0.549  1.0797 -0.5988 -0.5077
  234MOL0     C30779   0.539   4.805   0.483  0.0207  0.5514 -0.2670
  234MOL0     O30780   0.449   4.888   0.413  0.1750 -0.5611 -0.6796
  234MOL0     C30781   0.340   4.829   0.365  0.6970 -0.5536  0.1508
  234MOL0     C30782   0.249   4.917   0.290  0.0589  0.3964  0.1480
  234MOL0     C30783   0.127   4.864   0.248 -0.3876  0.5360 -0.5021
  234MOL0     C30784   0.092   4.732   0.270  0.6472 -0.9933  0.2782
  234MOL0     C30785  -0.036   4.685   0.226 -0.2925  0.0830 -0.3953
  234MOL0     O30786  -0.068   4.555   0.260 -0.2005  0.5891 -0.7495
  234MOL0     C30787  -0.202   4.520   0.281  0.3922  0.2141 -0.1614
  234MOL0     C30788  -0.241   4.519   0.419  0.0989 -0.0630 -0.0196
  234MOL0     C30789  -0.369   4.478   0.448  0.3885 -1.1179 -0.9383
  234MOL0     C30790  -0.460   4.441   0.355  1.1377  0.3773  0.1144
  234MOL0     O30791  -0.589   4.417   0.399  1.1359 -0.1043  0.2762
  234MOL0     C30792  -0.696   4.374   0.317 -0.0424  0.2405  0.4430
  234MOL0     C30793  -0.824   4.369   0.396 -0.0475  0.3793 -0.2147
  234MOL0     C30794  -0.831   4.253   0.495  0.3142 -0.0810 -0.5501
  234MOL0     C30795  -0.972   4.240   0.545  0.2585  0.1075  0.2599
  234MOL0     C30796  -1.013   4.102   0.609  0.3153 -0.1741  0.3368
  234MOL0     C30797  -0.937   3.982   0.574 -0.7166 -0.5822 -0.5522
  234MOL0     C30798  -0.950   3.864   0.665  0.5585  0.6531  0.0423
  234MOL0     C30799  -0.879   3.869   0.795 -0.1940  0.2954 -0.7424
  234MOL0    Cl30800  -0.696   3.847   0.781  0.1080  0.4637 -0.2409
  234MOL0     C30801  -0.427   4.433   0.222 -0.8277 -0.2208  1.1350
  234MOL0     C30802  -0.298   4.488   0.184  0.2810  0.8547 -0.0931
  234MOL0     O30803  -0.112   4.764   0.166 -0.2332  0.2493  0.2502
  234MOL0     C30804   0.172   4.648   0.342 -0.6351  0.1395  1.4628
  234MOL0     C30805   0.300   4.692   0.381 -0.3345  0.1628  0.5808
  234MOL0     N30806   1.035   4.978   0.607 -0.8572 -0.5176  0.3568
  234MOL0     N30807   1.105   4.962   0.711 -1.0092 -0.2699 -0.5813
  234MOL0     C30808   1.505   5.748   1.488  0.3872  0.2148  0.1978
  234MOL0     C30809   1.645   5.766   1.509 -0.1239 -0.8233  0.0808
  234MOL0     C30810   2.086   5.861   1.381  0.0213 -0.0826 -0.0252
  234MOL0     C30811   2.159   5.841   1.262 -0.2623  0.0894  0.4926
  234MOL0     C30812   2.290   5.879   1.257 -0.9492 -0.8472 -0.0193
  234MOL0     C30813   2.341   5.954   1.365 -0.3136  0.2913  0.6941
  234MOL0     O30814   2.469   6.012   1.357  1.1044 -0.3605  0.3583
  234MOL0     C30815   2.472   6.131   1.275  0.0838 -0.4262  0.8305
  234MOL0     C30816   2.570   6.100   1.153 -1.0390  0.0154 -1.3162
  234MOL0     C30817   2.560   6.222   1.057  0.2327 -0.4428 -0.6364
  234MOL0     C30818   2.501   6.184   0.918  0.2903  0.4751  0.5412
  234MOL0     C30819   2.485   6.304   0.836  0.5170 -0.2474 -0.1884
  234MOL0     C30820   2.475   6.416   0.770 -0.7123  0.1309  0.2897
  234MOL0     C30821   2.263   5.986   1.480  1.0240  0.4454 -0.4846
  234MOL0     C30822   2.135   5.938   1.486 -0.1204  0.9886 -0.1294
  234MOL0     H30823   1.709   5.973   1.238  3.3788 -0.2386  1.3529
  234MOL0     H30824   1.476   5.913   1.195  0.2786 -0.8901  0.1675
  234MOL0     H30825   1.145   5.783   1.458  0.9012  0.7911  0.9063
  234MOL0     H30826   1.254   5.644   1.471  1.6688  3.5394  2.4666
  234MOL0     H30827   1.113   5.712   1.221  1.0718  1.1445  0.8263
  234MOL0     H30828   1.006   5.640   1.337  0.6446 -2.8099  1.4264
  234MOL0     H30829   1.173   5.438   1.367 -1.7714 -2.5040 -0.6584
  234MOL0     H30830   1.252   5.508   1.222 -1.3085  2.4645  0.9855
  234MOL0     H30831   0.956   5.453   1.233  1.3975  2.4037  0.8827
  234MOL0     H30832   1.044   5.465   1.083 -0.7478 -1.8385  0.1620
  234MOL0     H30833   1.059   5.227   1.271 -0.6997 -0.5651  0.7191
  234MOL0     H30834   1.176   5.256   1.146 -1.0975 -1.4053  1.5855
  234MOL0     H30835   0.964   5.286   0.996 -0.1015  0.4467  0.5738
  234MOL0     H30836   0.878   5.237   1.149  2.3246 -0.8107  1.9325
  234MOL0     H30837   1.037   5.034   1.153 -0.5611  2.1063  0.3706
  234MOL0     H30838   0.898   5.027   1.045  0.2348  1.2071 -1.7459
  234MOL0     H30839   1.147   4.965   0.966  1.4910 -1.4760 -4.6757
  234MOL0     H30840   1.152   5.140   0.943 -1.1679  1.3527 -1.0642
  234MOL0     H30841   0.820   5.125   0.811 -1.0062 -2.8160  0.3843
  234MOL0     H30842   0.895   5.132   0.447  2.0961 -1.2022  1.3201
  234MOL0     H30843   0.754   5.161   0.550 -0.8695 -0.7350 -0.2744
  234MOL0     H30844   0.820   4.877   0.426  1.7647  1.3486 -0.5239
  234MOL0     H30845   0.698   4.991   0.363 -0.2015 -0.9478 -0.6832
  234MOL0     H30846   0.687   4.850   0.636 -0.1701 -2.2300 -0.8682
  234MOL0     H30847   0.594   4.990   0.589  2.1419 -0.4889  0.7030
  234MOL0     H30848   0.483   4.772   0.571  1.4415  2.5816  1.4833
  234MOL0     H30849   0.589   4.740   0.410 -0.6898  3.7307 -3.8996
  234MOL0     H30850   0.258   5.017   0.248 -1.7197  0.6226  0.2437
  234MOL0     H30851   0.056   4.930   0.200  1.5372  2.5612 -0.6982
  234MOL0     H30852  -0.177   4.550   0.501  1.1692 -3.1127  0.4337
  234MOL0     H30853  -0.405   4.494   0.549 -0.0088  0.6407 -1.3157
  234MOL0     H30854  -0.681   4.269   0.294  0.9380  0.7777 -1.5284
  234MOL0     H30855  -0.709   4.431   0.224  0.2024 -0.5415 -0.0715
  234MOL0     H30856  -0.909   4.365   0.327  0.4326  0.2773 -0.8039
  234MOL0     H30857  -0.830   4.466   0.446 -1.1823  0.3325 -0.2380
  234MOL0     H30858  -0.760   4.263   0.578  0.0314 -1.3953 -0.1353
  234MOL0     H30859  -0.804   4.159   0.447  0.2732  0.4697 -1.6836
  234MOL0     H30860  -1.001   4.323   0.610 -0.9751 -0.1917  0.1107
  234MOL0     H30861  -1.026   4.261   0.452 -0.6694  1.4636  1.0924
  234MOL0     H30862  -1.113   4.078   0.571 -0.5285  2.5632  0.5711
  234MOL0     H30863  -1.021   4.125   0.716 -1.8789  0.0165  0.1849
  234MOL0     H30864  -0.829   3.999   0.577 -1.0088  1.5803 -0.8094
  234MOL0     H30865  -0.967   3.958   0.471 -3.2883  2.3013 -0.6343
  234MOL0     H30866  -1.057   3.853   0.685  0.8471  0.3756  1.5335
  234MOL0     H30867  -0.917   3.775   0.610  0.0799  0.0388  0.7462
  234MOL0     H30868  -0.928   3.794   0.858 -0.6739 -0.2071 -1.6931
  234MOL0     H30869  -0.896   3.966   0.843 -1.8548 -0.9279  1.2813
  234MOL0     H30870  -0.487   4.390   0.142 -1.9880 -1.5553  2.6751
  234MOL0     H30871  -0.273   4.498   0.079  2.0956  2.5905  0.4488
  234MOL0     H30872   0.149   4.546   0.370  1.4505 -1.2092 -1.2973
  234MOL0     H30873   0.374   4.631   0.432 -0.5452  1.0239  1.9554
  234MOL0     H30874   1.442   5.711   1.568  0.8632 -0.7159  0.1657
  234MOL0     H30875   1.690   5.728   1.600 -1.1920 -1.1032  0.5011
  234MOL0     H30876   2.102   5.798   1.181 -0.7364 -1.9144  1.8071
  234MOL0     H30877   2.357   5.868   1.172 -0.7126 -1.6097  0.2555
  234MOL0     H30878   2.506   6.219   1.329  1.6632 -0.8617  0.6098
  234MOL0     H30879   2.377   6.150   1.224  1.1763  2.1231 -0.4188
  234MOL0     H30880   2.673   6.074   1.181 -1.0194  0.4171 -0.9928
  234MOL0     H30881   2.529   6.010   1.108  1.1203 -3.9217  3.6552
  234MOL0     H30882   2.664   6.256   1.053 -0.2966  1.3151 -0.0806
  234MOL0     H30883   2.503   6.306   1.097  1.2399 -0.7446  1.5482
  234MOL0     H30884   2.564   6.105   0.875  0.1380  0.6253  0.0412
  234MOL0     H30885   2.400   6.146   0.935  0.1360  0.9746  0.7513
  234MOL0     H30886   2.489   6.511   0.723  0.3581 -0.9499 -1.7153
  234MOL0     H30887   2.310   6.032   1.566  0.1668 -2.0233  1.4557
  234MOL0     H30888   2.075   5.955   1.575 -1.1762  1.0472 -0.8297
  235MOL0     O30889   5.824  10.799   1.782  0.2567 -0.3089  1.1910
  235MOL0     C30890   5.753  10.840   1.876  0.0279  0.0324 -0.0415
  235MOL0     O30891   5.618  10.860   1.877  0.0703 -0.5130 -0.8357
  235MOL0     C30892   5.544  10.849   1.756  0.0124 -1.1524 -0.2278
  235MOL0     C30893   5.427  10.779   1.765  0.7634  0.2781  0.2770
  235MOL0     C30894   5.367  10.748   1.647 -0.2574 -0.1801 -0.4008
  235MOL0     C30895   5.389  10.817   1.530  0.4602 -0.3833  0.4962
  235MOL0     O30896   5.298  10.802   1.432 -0.7165 -0.2471 -0.6749
  235MOL0     C30897   5.337  10.704   1.339  1.1278 -0.6631  0.7227
  235MOL0     C30898   5.200  10.653   1.274 -0.5912 -0.0776 -0.2466
  235MOL0     C30899   5.171  10.716   1.140  0.6825  0.3289 -0.0567
  235MOL0     C30900   5.289  10.708   1.041  0.0969 -0.2574  0.0780
  235MOL0     C30901   5.247  10.697   0.895 -0.4733 -0.1913  0.0579
  235MOL0     C30902   5.365  10.703   0.789  0.4079  0.3493 -0.7908
  235MOL0     C30903   5.447  10.569   0.795  0.9698  0.4939 -0.2796
  235MOL0     C30904   5.535  10.552   0.678  0.2251 -0.1906  0.2362
  235MOL0     N30905   5.533  10.409   0.630  0.3642 -0.7681 -0.6532
  235MOL0     C30906   5.577  10.307   0.708 -0.9747 -0.0621 -0.2833
  235MOL0     C30907   5.595  10.202   0.624 -0.2108 -0.8606 -0.8310
  235MOL0     C30908   5.648  10.069   0.658  0.1516  0.4903 -0.1931
  235MOL0     C30909   5.598  10.020   0.792 -0.1000  0.2640  0.1732
  235MOL0     C30910   5.680   9.916   0.877 -0.6784 -0.1676  0.6096
  235MOL0     C30911   5.815   9.962   0.916 -0.4856  0.0528 -0.1911
  235MOL0     O30912   5.799  10.089   0.977  0.6514 -0.0745  0.2046
  235MOL0     C30913   5.771  10.101   1.116  0.4052 -0.9884  0.1678
  235MOL0     C30914   5.772   9.990   1.203 -0.7019 -0.5841  0.4864
  235MOL0     C30915   5.750  10.014   1.337 -0.8375 -0.1519 -0.8477
  235MOL0     C30916   5.743  10.145   1.389  0.4837 -0.3495 -0.3217
  235MOL0     C30917   5.738  10.182   1.534 -0.0869 -0.0286  0.0376
  235MOL0     O30918   5.716  10.302   1.586  0.2388  0.4202 -0.3299
  235MOL0     C30919   5.732  10.331   1.720 -0.5028 -0.9657  0.6567
  235MOL0     C30920   5.776  10.461   1.754 -0.1868 -0.4827  0.3391
  235MOL0     C30921   5.795  10.498   1.884 -0.5986  0.8609 -0.0758
  235MOL0     C30922   5.751  10.420   1.995  0.2603  0.7858 -0.5140
  235MOL0     O30923   5.753  10.460   2.127 -0.6641 -0.3562 -0.7045
  235MOL0     C30924   5.788  10.599   2.156 -1.0832 -0.1680 -0.2526
  235MOL0     C30925   5.756  10.624   2.303 -0.5877  0.5845  0.2636
  235MOL0     C30926   5.845  10.536   2.393 -1.0945 -0.1281 -0.8617
  235MOL0     C30927   5.839  10.574   2.538  0.8646  0.0427 -0.4748
  235MOL0     C30928   5.897  10.459   2.631 -0.2311 -0.0467  0.5506
  235MOL0     C30929   5.811  10.336   2.638  1.7849  0.2485 -0.0194
  235MOL0     C30930   5.877  10.213   2.709  0.1417  1.0072 -0.3112
  235MOL0     C30931   5.780  10.098   2.710 -0.0992  0.4003 -0.2444
  235MOL0    Cl30932   5.811   9.972   2.830  0.0797  0.4934  0.1982
  235MOL0     C30933   5.704  10.297   1.961 -0.8057 -0.3481 -0.4448
  235MOL0     C30934   5.699  10.255   1.829 -0.2939 -0.3666 -0.7363
  235MOL0     O30935   5.758  10.078   1.603 -0.6643 -0.4504  0.1343
  235MOL0     C30936   5.748  10.256   1.304  0.5990  1.4957 -0.2099
  235MOL0     C30937   5.746  10.232   1.163 -0.1461 -0.1878 -0.7680
  235MOL0     N30938   5.550  10.238   0.506  1.0511 -0.1251  0.3069
  235MOL0     N30939   5.517  10.362   0.506 -0.5234 -0.6937  0.1830
  235MOL0     C30940   5.504  10.885   1.519 -0.3364 -0.6951 -0.2417
  235MOL0     C30941   5.590  10.897   1.630  0.8200 -0.0476 -0.6431
  235MOL0     C30942   5.819  10.896   1.995 -0.7149 -0.1614  0.0700
  235MOL0     C30943   5.951  10.860   2.028 -0.4835 -0.2096  0.0321
  235MOL0     C30944   6.009  10.911   2.137  0.0146 -0.1714  0.2489
  235MOL0     C30945   5.941  10.995   2.234 -1.3790 -0.3762  1.1906
  235MOL0     O30946   6.011  11.057   2.332 -0.2769  0.9144 -0.6787
  235MOL0     C30947   6.024  10.973   2.448  0.5514 -0.5947 -0.1825
  235MOL0     C30948   6.133  11.037   2.540  1.0590 -0.0168  0.1804
  235MOL0     C30949   6.261  11.066   2.466  0.5279  0.7379 -0.7052
  235MOL0     C30950   6.371  10.977   2.521  0.3989 -0.2615  0.5931
  235MOL0     C30951   6.373  10.838   2.486 -0.4174  0.6146  0.8130
  235MOL0     C30952   6.362  10.727   2.433 -0.2720 -0.6785 -0.4307
  235MOL0     C30953   5.815  11.040   2.197 -0.1699  0.1223 -0.8756
  235MOL0     C30954   5.761  10.999   2.081 -0.0067 -0.0255  0.6148
  235MOL0     H30955   5.386  10.724   1.849 -0.0175 -1.3590 -1.1078
  235MOL0     H30956   5.300  10.663   1.639  0.4577 -0.9961  1.7603
  235MOL0     H30957   5.368  10.610   1.387 -2.2875 -2.4164 -0.1605
  235MOL0     H30958   5.412  10.738   1.267  0.9604  0.5654  1.1079
  235MOL0     H30959   5.115  10.673   1.340 -0.5746 -2.3491  0.5852
  235MOL0     H30960   5.204  10.546   1.250 -1.0377  0.3909 -2.6494
  235MOL0     H30961   5.133  10.818   1.153 -1.4426 -0.4648  0.4563
  235MOL0     H30962   5.088  10.659   1.096  2.0034 -0.4228 -1.6707
  235MOL0     H30963   5.357  10.793   1.051  2.0718 -1.7520 -0.0978
  235MOL0     H30964   5.351  10.624   1.072 -1.0981 -0.9280  0.7263
  235MOL0     H30965   5.180  10.779   0.868 -1.2157 -1.2905 -1.5847
  235MOL0     H30966   5.187  10.607   0.882 -0.0750 -0.3224 -0.9882
  235MOL0     H30967   5.430  10.790   0.805 -0.1604  0.3973  1.6674
  235MOL0     H30968   5.322  10.711   0.689  0.5576  0.7346 -0.8272
  235MOL0     H30969   5.493  10.559   0.894  0.0970 -1.2078 -0.0068
  235MOL0     H30970   5.371  10.491   0.801 -0.0240  1.5476  2.3479
  235MOL0     H30971   5.637  10.583   0.704  0.4127  0.3034 -1.0355
  235MOL0     H30972   5.494  10.607   0.593  0.2726  0.5699  0.6960
  235MOL0     H30973   5.601  10.308   0.814 -2.2378 -0.5473  0.0221
  235MOL0     H30974   5.757  10.071   0.663  0.0949  0.8484  1.3061
  235MOL0     H30975   5.634  10.001   0.573  1.6852 -0.8885  0.5921
  235MOL0     H30976   5.501   9.973   0.777 -1.6280  2.3209  2.8563
  235MOL0     H30977   5.575  10.105   0.856  4.3822  1.3202  0.7255
  235MOL0     H30978   5.626   9.898   0.971  0.5262  1.6793  1.7236
  235MOL0     H30979   5.692   9.827   0.815 -1.6537  1.3420 -1.9078
  235MOL0     H30980   5.876   9.980   0.826 -1.3536 -0.7818 -0.9699
  235MOL0     H30981   5.870   9.889   0.975 -1.1642  1.3953  2.2115
  235MOL0     H30982   5.794   9.889   1.168 -0.3502 -0.2725 -0.2290
  235MOL0     H30983   5.754   9.936   1.412 -0.6141  1.3289  0.7367
  235MOL0     H30984   5.800  10.535   1.679  1.6660 -1.9971 -0.6620
  235MOL0     H30985   5.837  10.596   1.905 -0.1686  1.0759 -1.7875
  235MOL0     H30986   5.737  10.683   2.109 -0.7943  2.2996  3.4307
  235MOL0     H30987   5.893  10.612   2.130 -1.0130  1.0477  0.5688
  235MOL0     H30988   5.651  10.596   2.315 -0.8036 -0.3190 -2.8889
  235MOL0     H30989   5.766  10.730   2.325 -1.6734  0.0196  4.1939
  235MOL0     H30990   5.947  10.558   2.363 -0.9390  1.9222  0.9637
  235MOL0     H30991   5.829  10.429   2.379 -0.1227 -0.8557  2.7120
  235MOL0     H30992   5.899  10.663   2.559 -2.3742  2.1048  0.7204
  235MOL0     H30993   5.740  10.605   2.572  0.5513 -0.8822 -0.4952
  235MOL0     H30994   5.918  10.494   2.733  1.5652  3.4417 -0.8259
  235MOL0     H30995   5.997  10.433   2.595  0.8661  0.0327  3.2938
  235MOL0     H30996   5.795  10.301   2.536  4.0588 -0.1727 -0.2820
  235MOL0     H30997   5.712  10.365   2.674  1.7131  1.4944 -1.1538
  235MOL0     H30998   5.965  10.193   2.647 -1.0328  3.5665 -3.0769
  235MOL0     H30999   5.910  10.247   2.808 -0.3883 -0.2206  0.3049
  235MOL0     H31000   5.769  10.060   2.608  4.0290  1.7073 -1.3901
  235MOL0     H31001   5.682  10.133   2.742  0.3008  1.5910 -0.2721
  235MOL0     H31002   5.672  10.222   2.033  1.9802 -0.1515  1.1398
  235MOL0     H31003   5.652  10.160   1.806  1.7913 -1.3296 -1.2180
  235MOL0     H31004   5.753  10.360   1.335  0.2722  0.6414  3.1459
  235MOL0     H31005   5.738  10.321   1.101  0.6054  2.1218  2.2075
  235MOL0     H31006   5.539  10.919   1.423  2.8876  1.1594  1.4245
  235MOL0     H31007   5.693  10.931   1.631  0.9071 -0.1807  2.4893
  235MOL0     H31008   6.006  10.794   1.961  1.7223  0.4243  1.1165
  235MOL0     H31009   6.112  10.887   2.163  0.4927  3.9344  3.0094
  235MOL0     H31010   6.062  10.874   2.423 -0.3220 -1.2824  1.1073
  235MOL0     H31011   5.933  10.954   2.505  0.3592  2.3009  0.6359
  235MOL0     H31012   6.094  11.116   2.605 -0.4194 -2.6265  2.7270
  235MOL0     H31013   6.143  10.964   2.621 -2.1069 -0.6462  0.1355
  235MOL0     H31014   6.279  11.168   2.503  1.1974  0.8275 -1.2658
  235MOL0     H31015   6.261  11.067   2.357  1.1387 -1.8880 -0.7808
  235MOL0     H31016   6.463  11.029   2.495 -0.4502  0.1984 -1.6727
  235MOL0     H31017   6.365  10.969   2.630  1.9755 -3.0069  0.5746
  235MOL0     H31018   6.367  10.628   2.393  0.2626 -1.9479  2.4695
  235MOL0     H31019   5.779  11.120   2.262 -0.8308  0.0687 -1.1765
  235MOL0     H31020   5.666  11.046   2.057  1.0446  0.5263 -3.1173
  236MOL0     O31021   3.943   1.167   4.352 -0.2167  0.0225  0.2597
  236MOL0     C31022   3.847   1.163   4.275 -0.1624  0.0566  0.1180
  236MOL0     O31023   3.756   1.260   4.255  0.4514 -0.1074  0.6307
  236MOL0     C31024   3.729   1.361   4.345  0.0750 -0.1811  0.2042
  236MOL0     C31025   3.643   1.337   4.456 -0.4812  0.7728  0.6307
  236MOL0     C31026   3.600   1.443   4.536 -1.1557 -0.5354  0.0439
  236MOL0     C31027   3.638   1.572   4.492  0.1926  0.9959 -0.2160
  236MOL0     O31028   3.612   1.690   4.546  0.2771  0.5858 -0.4744
  236MOL0     C31029   3.520   1.697   4.658 -0.8255  0.3451  0.6261
  236MOL0     C31030   3.448   1.835   4.656 -0.6986 -0.2005 -0.1203
  236MOL0     C31031   3.557   1.946   4.678  0.2818  0.5105 -0.6564
  236MOL0     C31032   3.630   1.931   4.813  1.1799 -0.6309  0.1777
  236MOL0     C31033   3.746   2.035   4.828 -0.7309  0.4954  0.5014
  236MOL0     C31034   3.731   2.176   4.799 -0.0878  0.1920  0.5743
  236MOL0     C31035   3.629   2.236   4.902 -1.0868  0.4294  0.6569
  236MOL0     C31036   3.601   2.386   4.870 -0.4113  1.2043  0.5978
  236MOL0     N31037   3.726   2.462   4.879 -0.0497 -0.3154 -0.2365
  236MOL0     C31038   3.798   2.493   4.769 -0.9588 -0.2948 -0.5060
  236MOL0     C31039   3.909   2.560   4.817  0.4043 -0.1720  0.0721
  236MOL0     C31040   4.007   2.603   4.710  0.7229  0.6040  0.0821
  236MOL0     C31041   4.142   2.530   4.736 -0.0476  0.2788 -0.2347
  236MOL0     C31042   4.148   2.374   4.705 -0.2349 -1.7227  0.3879
  236MOL0     C31043   4.134   2.336   4.560 -0.0674 -0.0231 -0.0064
  236MOL0     O31044   4.239   2.386   4.477 -0.1746  0.2858  0.3103
  236MOL0     C31045   4.260   2.322   4.356  0.2469 -0.5678  0.9688
  236MOL0     C31046   4.298   2.184   4.355  0.2565 -0.3218  0.8170
  236MOL0     C31047   4.301   2.106   4.238 -0.3935 -0.7003 -0.7891
  236MOL0     C31048   4.299   2.181   4.119  0.1724 -1.1347 -0.2274
  236MOL0     C31049   4.274   2.106   3.991  0.1384 -0.2258  0.6279
  236MOL0     O31050   4.243   1.976   4.009 -0.2939  0.1042 -0.4535
  236MOL0     C31051   4.262   1.903   3.887 -0.8994 -0.1128  0.1145
  236MOL0     C31052   4.154   1.823   3.844  0.7944  0.5991  0.5733
  236MOL0     C31053   4.168   1.719   3.742  0.4789  0.3750  0.4365
  236MOL0     C31054   4.295   1.700   3.694 -0.6680  0.5666 -0.8987
  236MOL0     O31055   4.328   1.590   3.613 -0.1400  0.3176  0.4712
  236MOL0     C31056   4.241   1.477   3.605 -0.5203 -0.5653  0.0194
  236MOL0     C31057   4.323   1.354   3.558  0.7274  0.0564 -0.6787
  236MOL0     C31058   4.247   1.225   3.514 -0.5999 -0.4819 -0.3098
  236MOL0     C31059   4.332   1.109   3.484 -0.9019  0.0983  0.4216
  236MOL0     C31060   4.430   1.120   3.368  0.0560 -0.3638  0.6014
  236MOL0     C31061   4.542   1.024   3.388  0.1930  0.1630 -0.1022
  236MOL0     C31062   4.623   1.030   3.255 -0.4583  0.0098  0.0817
  236MOL0     C31063   4.729   0.930   3.243 -0.4546  0.3662  0.4385
  236MOL0    Cl31064   4.685   0.754   3.267  0.3360  0.2674  0.2585
  236MOL0     C31065   4.410   1.772   3.741  0.3794 -0.2010  0.2519
  236MOL0     C31066   4.394   1.879   3.829 -0.4662 -0.0471  0.1715
  236MOL0     O31067   4.260   2.173   3.885 -0.2083 -0.7837 -0.7711
  236MOL0     C31068   4.280   2.325   4.120  0.3271 -0.4107 -0.4063
  236MOL0     C31069   4.264   2.392   4.235 -0.3647 -0.1524  0.9387
  236MOL0     N31070   3.910   2.552   4.956  0.4906  0.8200  1.1521
  236MOL0     N31071   3.788   2.508   4.990 -0.0239  0.1718 -0.0361
  236MOL0     C31072   3.724   1.597   4.388 -0.1828  0.5471  0.4727
  236MOL0     C31073   3.775   1.489   4.321 -0.6522  0.3222  0.3187
  236MOL0     C31074   3.858   1.061   4.174 -0.9729  1.1961  0.2717
  236MOL0     C31075   3.926   0.935   4.188  0.2012 -0.0194 -0.2455
  236MOL0     C31076   3.903   0.816   4.101 -0.7662 -0.4478 -0.7330
  236MOL0     C31077   3.827   0.837   3.996  0.3216 -0.7952  0.0404
  236MOL0     O31078   3.803   0.728   3.912  0.0326 -0.2817 -0.0836
  236MOL0     C31079   3.687   0.724   3.829  0.7948  0.7207  0.4393
  236MOL0     C31080   3.663   0.585   3.773  0.3067  0.5752 -0.2318
  236MOL0     C31081   3.747   0.557   3.649 -0.9340 -1.2818 -0.3802
  236MOL0     C31082   3.900   0.553   3.678 -0.0643  0.1293 -0.8119
  236MOL0     C31083   3.992   0.513   3.569  0.2819 -1.4459  0.0966
  236MOL0     C31084   4.068   0.456   3.494  0.1755  0.6559  0.2842
  236MOL0     C31085   3.774   0.961   3.964  0.6801  0.1129 -0.3279
  236MOL0     C31086   3.778   1.066   4.055 -0.5224 -0.3368 -0.7659
  236MOL0     H31087   3.609   1.238   4.483  3.1647 -0.3550  1.6570
  236MOL0     H31088   3.539   1.427   4.625 -1.4221  1.9012  0.3511
  236MOL0     H31089   3.583   1.677   4.745 -0.5337 -0.5822  0.2176
  236MOL0     H31090   3.438   1.625   4.666  1.3461 -2.1990  1.3626
  236MOL0     H31091   3.382   1.845   4.743 -0.3491 -3.3149  0.6332
  236MOL0     H31092   3.395   1.851   4.562 -0.2593 -0.1387 -0.3602
  236MOL0     H31093   3.515   2.045   4.660 -1.5952 -0.6164 -2.9030
  236MOL0     H31094   3.639   1.941   4.605  0.4118  2.5448 -0.7311
  236MOL0     H31095   3.562   1.940   4.898  3.3146  0.8620  1.8403
  236MOL0     H31096   3.682   1.835   4.820  2.4550  0.0815  0.8462
  236MOL0     H31097   3.832   1.998   4.771 -0.2851  0.3545  1.2604
  236MOL0     H31098   3.762   2.043   4.936 -1.1007  1.9674  0.4621
  236MOL0     H31099   3.698   2.180   4.694  1.0393  1.2232  0.2448
  236MOL0     H31100   3.827   2.228   4.802  0.3763 -0.5614 -0.3607
  236MOL0     H31101   3.535   2.179   4.904 -0.3481 -1.4163 -4.3489
  236MOL0     H31102   3.666   2.240   5.005 -0.3841 -0.3926  0.4460
  236MOL0     H31103   3.529   2.427   4.941 -1.8503  0.0349 -0.1400
  236MOL0     H31104   3.555   2.407   4.773  1.0526  1.4071 -0.0789
  236MOL0     H31105   3.787   2.462   4.666  0.8190 -0.2785 -0.7232
  236MOL0     H31106   4.030   2.709   4.726 -1.4013  1.4291 -1.8487
  236MOL0     H31107   3.961   2.589   4.612 -1.2037  1.8204  0.7588
  236MOL0     H31108   4.182   2.558   4.834 -1.3718  1.2254  0.0787
  236MOL0     H31109   4.211   2.564   4.658  1.1805  0.6500  0.9851
  236MOL0     H31110   4.246   2.341   4.739  2.2509  5.0107  1.4316
  236MOL0     H31111   4.063   2.324   4.753 -0.2108 -0.9194  1.2994
  236MOL0     H31112   4.041   2.382   4.525 -0.7407  2.0586  3.9271
  236MOL0     H31113   4.139   2.227   4.552  0.8063  0.0621 -0.6651
  236MOL0     H31114   4.304   2.138   4.453 -1.4292  0.0388  1.1104
  236MOL0     H31115   4.306   1.998   4.247  2.5610 -0.9079 -3.3658
  236MOL0     H31116   4.057   1.814   3.893 -0.2900 -0.6780 -1.6606
  236MOL0     H31117   4.092   1.652   3.704  0.1925  0.8094  0.2290
  236MOL0     H31118   4.158   1.503   3.539  0.4823 -0.1081 -1.0845
  236MOL0     H31119   4.210   1.446   3.706  0.6503 -0.4899  0.4176
  236MOL0     H31120   4.396   1.322   3.633 -3.8906 -2.3271  3.3119
  236MOL0     H31121   4.370   1.385   3.463  0.9777 -0.8519 -0.8638
  236MOL0     H31122   4.184   1.236   3.424 -1.2173 -5.4003 -0.7760
  236MOL0     H31123   4.189   1.193   3.601  0.5855  1.7086  1.3909
  236MOL0     H31124   4.384   1.088   3.578 -2.6139 -2.3837  0.9126
  236MOL0     H31125   4.274   1.020   3.459  3.6177 -1.8996 -4.8215
  236MOL0     H31126   4.472   1.220   3.359 -1.6072  0.2982 -0.1269
  236MOL0     H31127   4.365   1.107   3.280  0.8813 -0.5117 -0.0022
  236MOL0     H31128   4.509   0.922   3.409  3.1404 -0.4392  2.4655
  236MOL0     H31129   4.597   1.056   3.477 -2.6673 -2.1688  2.7460
  236MOL0     H31130   4.552   1.020   3.172 -1.4416 -0.1557  0.9235
  236MOL0     H31131   4.669   1.126   3.231  1.5303 -0.4445  1.7876
  236MOL0     H31132   4.800   0.946   3.325 -0.6548 -4.2700  1.7949
  236MOL0     H31133   4.790   0.939   3.152 -2.9212 -0.1285 -1.3623
  236MOL0     H31134   4.501   1.744   3.689 -0.7531 -1.0927 -1.3530
  236MOL0     H31135   4.478   1.936   3.869 -1.4094 -0.2519  2.6033
  236MOL0     H31136   4.255   2.375   4.027 -3.0297  2.0575  1.5800
  236MOL0     H31137   4.242   2.499   4.230  0.3841 -0.0404 -0.7695
  236MOL0     H31138   3.767   1.691   4.356  3.2169 -1.6171 -1.9715
  236MOL0     H31139   3.829   1.493   4.227 -0.4495  1.1197  0.4627
  236MOL0     H31140   3.976   0.916   4.283 -1.3739  0.4097  0.6990
  236MOL0     H31141   3.960   0.729   4.130  1.3555  0.1465 -2.7508
  236MOL0     H31142   3.692   0.794   3.744 -2.4911  2.3395  1.4428
  236MOL0     H31143   3.601   0.754   3.889  3.3627  6.0353  2.1405
  236MOL0     H31144   3.702   0.513   3.845 -0.6840 -2.2707 -2.3339
  236MOL0     H31145   3.555   0.571   3.764  0.2437 -0.8954  2.1403
  236MOL0     H31146   3.707   0.619   3.568  1.5426  1.2272  0.1383
  236MOL0     H31147   3.724   0.456   3.613  0.5777 -3.1782  3.4834
  236MOL0     H31148   3.924   0.653   3.716 -1.4479 -0.1623  1.0049
  236MOL0     H31149   3.928   0.495   3.766  0.9950  4.5734  2.1452
  236MOL0     H31150   4.141   0.400   3.439 -0.4795  0.2295 -0.1606
  236MOL0     H31151   3.706   0.967   3.879  1.0545  0.6188 -0.6002
  236MOL0     H31152   3.727   1.161   4.044 -0.8812 -0.5874 -1.3114
  237MOL0     O31153  11.041   7.985   4.228  0.3086 -0.0401 -0.1647
  237MOL0     C31154  11.118   8.048   4.156 -0.3457  0.0631 -0.0173
  237MOL0     O31155  11.101   8.090   4.033  1.2859  0.6351  0.1886
  237MOL0     C31156  10.992   8.052   3.957 -0.2891 -0.2050 -0.3799
  237MOL0     C31157  10.999   8.010   3.828  0.7045  0.8678  0.0709
  237MOL0     C31158  10.880   7.979   3.756  0.3510  0.3835 -0.4942
  237MOL0     C31159  10.754   8.007   3.795  0.6738  0.0573 -0.5603
  237MOL0     O31160  10.646   7.962   3.721  0.1343  0.1304  0.9500
  237MOL0     C31161  10.503   7.978   3.753 -0.4511  0.2639 -1.4964
  237MOL0     C31162  10.420   7.913   3.643 -0.2875 -0.4630 -0.8901
  237MOL0     C31163  10.417   8.010   3.529  1.0794  0.7693 -0.0793
  237MOL0     C31164  10.374   7.952   3.396  0.9619 -0.7472 -0.0036
  237MOL0     C31165  10.457   8.001   3.284 -0.6031 -0.4841  1.0224
  237MOL0     C31166  10.419   7.944   3.147  0.1366  0.4308 -0.0825
  237MOL0     C31167  10.520   7.986   3.032  0.5856  0.4928  0.2786
  237MOL0     C31168  10.492   8.122   2.980  0.5484  0.2841 -0.4947
  237MOL0     N31169  10.597   8.144   2.878 -0.6773  0.4401 -0.0899
  237MOL0     C31170  10.591   8.096   2.754 -0.1179 -0.0970  0.2447
  237MOL0     C31171  10.710   8.128   2.707 -0.0224 -1.0614  0.3177
  237MOL0     C31172  10.767   8.091   2.576 -0.2205  1.0008  0.6410
  237MOL0     C31173  10.698   8.143   2.460  0.2669  0.5452 -0.4161
  237MOL0     C31174  10.696   8.298   2.454 -0.1712 -0.8780 -0.6578
  237MOL0     C31175  10.590   8.356   2.364 -0.9468 -0.8356 -0.2324
  237MOL0     O31176  10.453   8.317   2.399 -0.8161 -0.1613 -0.6672
  237MOL0     C31177  10.414   8.339   2.528 -0.4001  0.2455  0.3803
  237MOL0     C31178  10.340   8.234   2.578  0.7918 -0.3287  0.1596
  237MOL0     C31179  10.282   8.246   2.703  0.2792 -0.0067 -0.2019
  237MOL0     C31180  10.312   8.353   2.791 -0.2183  0.3406  1.3885
  237MOL0     C31181  10.248   8.374   2.918 -0.1148  0.9831 -0.4585
  237MOL0     O31182  10.153   8.279   2.946 -0.0279  1.1506  0.1279
  237MOL0     C31183  10.073   8.264   3.056  0.8278  0.2329  0.5351
  237MOL0     C31184  10.098   8.338   3.178 -0.2844 -0.3851 -1.3520
  237MOL0     C31185  10.013   8.329   3.290 -0.1331  0.6804  0.2641
  237MOL0     C31186   9.901   8.241   3.285  0.2671  1.0274 -0.1388
  237MOL0     O31187   9.826   8.219   3.395 -0.5562 -0.1067  0.9601
  237MOL0     C31188   9.715   8.132   3.388 -0.9074 -0.5925  0.2944
  237MOL0     C31189   9.648   8.130   3.527 -0.7859 -0.4801  0.2159
  237MOL0     C31190   9.541   8.028   3.565  0.5482  0.2454 -0.6240
  237MOL0     C31191   9.407   8.061   3.499  0.3050 -0.1498  0.8988
  237MOL0     C31192   9.345   7.944   3.438  1.1221  1.1261 -1.0120
  237MOL0     C31193   9.193   7.949   3.423  0.8400  0.0533 -0.8171
  237MOL0     C31194   9.140   7.803   3.397 -0.0131 -0.2555 -0.1700
  237MOL0     C31195   8.992   7.772   3.451 -0.5101  0.5379  0.3982
  237MOL0    Cl31196   8.962   7.605   3.413 -0.5427  0.0815  0.3153
  237MOL0     C31197   9.864   8.176   3.159  0.0215 -0.1448 -0.1156
  237MOL0     C31198   9.959   8.182   3.052  0.0094  0.4357  0.0145
  237MOL0     O31199  10.278   8.466   2.984 -0.3138 -0.2191  0.0757
  237MOL0     C31200  10.395   8.455   2.736 -0.3523 -0.3815  0.7052
  237MOL0     C31201  10.449   8.445   2.608 -0.4914 -0.4953  0.0651
  237MOL0     N31202  10.790   8.195   2.793 -0.1164  0.7413  0.2009
  237MOL0     N31203  10.715   8.210   2.901 -0.5281  0.4244  1.0278
  237MOL0     C31204  10.747   8.053   3.924  0.5035 -0.0099  0.4942
  237MOL0     C31205  10.860   8.079   4.007  1.1646 -0.2345  1.0945
  237MOL0     C31206  11.255   8.088   4.219  0.2765 -1.7731 -0.9028
  237MOL0     C31207  11.287   8.040   4.351  0.1239 -0.3366  0.5673
  237MOL0     C31208  11.400   8.080   4.418  0.2898  0.1510  0.8156
  237MOL0     C31209  11.485   8.179   4.370 -0.3108  0.2492  0.0158
  237MOL0     O31210  11.576   8.215   4.458 -0.3648 -0.4641  0.5966
  237MOL0     C31211  11.690   8.283   4.399  0.7560  0.1736  0.1869
  237MOL0     C31212  11.804   8.231   4.481 -0.7792 -1.1194 -1.5951
  237MOL0     C31213  11.934   8.254   4.409 -1.2031 -0.9633  0.2073
  237MOL0     C31214  12.068   8.242   4.494  1.0777  1.1756  0.0653
  237MOL0     C31215  12.081   8.112   4.556 -0.5396 -0.4380 -0.7771
  237MOL0     C31216  12.091   8.007   4.615 -1.1662 -0.7017 -0.1045
  237MOL0     C31217  11.444   8.242   4.241  0.2744  0.3270 -0.6948
  237MOL0     C31218  11.339   8.189   4.164 -1.4592  0.8239  0.1325
  237MOL0     H31219  11.090   8.006   3.770 -2.7310 -0.1473 -6.1264
  237MOL0     H31220  10.890   7.927   3.661 -0.3652  2.2929 -1.6783
  237MOL0     H31221  10.474   8.083   3.768 -3.2932 -0.5387 -0.8213
  237MOL0     H31222  10.477   7.933   3.849 -2.4978 -0.7616 -2.4698
  237MOL0     H31223  10.319   7.909   3.684  0.1013  2.3382  0.6010
  237MOL0     H31224  10.465   7.815   3.621  1.8627  0.3988 -0.5972
  237MOL0     H31225  10.520   8.041   3.513  2.5857 -2.3950  2.2981
  237MOL0     H31226  10.366   8.105   3.546  2.4238  1.0360  3.1837
  237MOL0     H31227  10.376   7.843   3.403 -2.7456 -1.0390 -1.2401
  237MOL0     H31228  10.270   7.986   3.383  0.8903 -0.2756  1.5125
  237MOL0     H31229  10.558   7.961   3.300  1.6225  4.0812  0.0443
  237MOL0     H31230  10.460   8.110   3.292  1.2791 -0.3444 -0.6799
  237MOL0     H31231  10.315   7.969   3.124  0.3526  0.5799 -0.9367
  237MOL0     H31232  10.412   7.836   3.159  1.1568  0.2802 -0.7194
  237MOL0     H31233  10.621   7.982   3.075  0.9972 -1.7598 -0.7557
  237MOL0     H31234  10.524   7.906   2.957 -0.1755  0.9671 -0.2846
  237MOL0     H31235  10.510   8.186   3.067  1.2471 -3.7985  2.6559
  237MOL0     H31236  10.390   8.137   2.944 -0.1799 -0.2970  1.2284
  237MOL0     H31237  10.515   8.041   2.699 -0.2025 -2.4385  2.5124
  237MOL0     H31238  10.787   7.985   2.558  0.4406  1.3643 -0.9326
  237MOL0     H31239  10.869   8.127   2.562  0.9114 -2.3048 -0.3919
  237MOL0     H31240  10.603   8.091   2.451  0.4563 -0.0513  0.8460
  237MOL0     H31241  10.750   8.113   2.368  3.1685  0.6423  1.0551
  237MOL0     H31242  10.674   8.341   2.553 -3.6440  1.4332 -2.2490
  237MOL0     H31243  10.797   8.336   2.434 -0.4168  0.5403  0.5592
  237MOL0     H31244  10.603   8.323   2.261 -2.1020 -0.9105 -0.3701
  237MOL0     H31245  10.609   8.463   2.355  2.3466 -1.2332  0.5374
  237MOL0     H31246  10.328   8.143   2.521 -0.5917 -1.8549  2.6654
  237MOL0     H31247  10.215   8.166   2.730 -1.0129  1.3132  0.6922
  237MOL0     H31248  10.190   8.394   3.190 -0.1201 -0.9950  0.7797
  237MOL0     H31249  10.026   8.396   3.375  0.5775  2.0839 -0.9123
  237MOL0     H31250   9.743   8.027   3.376 -0.2307 -0.3193 -0.6244
  237MOL0     H31251   9.642   8.162   3.312  0.0709 -1.9258 -1.2508
  237MOL0     H31252   9.613   8.230   3.555 -0.4530 -0.4763  0.6235
  237MOL0     H31253   9.731   8.107   3.594 -0.8962  1.9729  1.3143
  237MOL0     H31254   9.529   8.017   3.673  3.0339  0.3053 -0.2822
  237MOL0     H31255   9.585   7.931   3.540 -0.0763 -0.8041  2.0556
  237MOL0     H31256   9.339   8.108   3.571 -2.4164  0.1939 -1.7171
  237MOL0     H31257   9.426   8.133   3.418  0.8792  1.9881  2.8139
  237MOL0     H31258   9.365   7.862   3.507 -0.3058 -1.0740 -3.0636
  237MOL0     H31259   9.386   7.933   3.337  1.3129 -0.8743 -0.7515
  237MOL0     H31260   9.172   8.009   3.334  0.3256  1.2986  0.1185
  237MOL0     H31261   9.141   7.992   3.509  0.4849 -0.8084 -0.5857
  237MOL0     H31262   9.153   7.784   3.290  1.8745  0.9002 -0.1900
  237MOL0     H31263   9.205   7.731   3.447  2.1051  0.7767 -1.2953
  237MOL0     H31264   8.921   7.840   3.404 -1.7540 -0.6012  0.5822
  237MOL0     H31265   8.987   7.784   3.560  0.4279 -0.5943  0.5853
  237MOL0     H31266   9.766   8.136   3.137 -0.7929  2.4130 -1.5430
  237MOL0     H31267   9.936   8.140   2.954  0.4678  1.2813 -0.4623
  237MOL0     H31268  10.424   8.536   2.802 -1.3714  1.6571 -1.1842
  237MOL0     H31269  10.516   8.528   2.588 -0.1005 -0.6048  0.8458
  237MOL0     H31270  10.647   8.072   3.961 -1.0670 -0.4617 -3.1036
  237MOL0     H31271  10.842   8.128   4.102 -1.1063 -2.2284  1.7906
  237MOL0     H31272  11.223   7.961   4.390 -1.5575  0.2320 -0.9299
  237MOL0     H31273  11.427   8.034   4.513 -0.5561 -0.1847  0.8950
  237MOL0     H31274  11.691   8.391   4.419  1.6576 -0.1699  2.3052
  237MOL0     H31275  11.705   8.263   4.293  1.1656 -1.8432  0.5858
  237MOL0     H31276  11.791   8.278   4.579  1.4636 -3.4775 -0.0248
  237MOL0     H31277  11.811   8.126   4.513  1.4150 -0.0809  1.9600
  237MOL0     H31278  11.943   8.360   4.383 -0.7444 -0.4042  2.4247
  237MOL0     H31279  11.954   8.192   4.321  1.1255  1.2490 -0.9706
  237MOL0     H31280  12.152   8.267   4.427 -0.7018 -1.4662 -3.4793
  237MOL0     H31281  12.072   8.315   4.575 -3.2628  0.2903  1.3085
  237MOL0     H31282  12.089   7.910   4.658  3.0129 -1.2858 -0.8599
  237MOL0     H31283  11.495   8.329   4.201  0.1045  0.1777 -1.2492
  237MOL0     H31284  11.333   8.221   4.060  3.1179 -1.9698 -1.2900
  238MOL0     O31285   2.438   2.828  10.504 -0.6032 -0.3155  0.5176
  238MOL0     C31286   2.525   2.912  10.479  0.4158  0.4139 -1.0628
  238MOL0     O31287   2.553   3.024  10.550 -0.0090  0.5563 -0.7595
  238MOL0     C31288   2.494   3.055  10.670  0.8079 -0.5545 -0.0697
  238MOL0     C31289   2.399   3.159  10.681 -0.6022 -0.6957 -0.0119
  238MOL0     C31290   2.355   3.211  10.809  0.2067  0.4826  1.0536
  238MOL0     C31291   2.387   3.138  10.918 -0.1918 -0.3897  0.3386
  238MOL0     O31292   2.331   3.194  11.029 -0.6630  0.8801  0.1297
  238MOL0     C31293   2.379   3.151  11.157 -0.0439  0.2173 -0.4040
  238MOL0     C31294   2.291   3.192  11.274 -0.8170 -0.0847 -0.8253
  238MOL0     C31295   2.249   3.345  11.274  0.4008 -0.1791 -0.4820
  238MOL0     C31296   2.202   3.404  11.414 -0.2016 -1.1183  0.3724
  238MOL0     C31297   2.112   3.530  11.398  1.0140  0.4246 -0.3049
  238MOL0     C31298   2.058   3.581  11.537  0.5424  0.4123  0.2724
  238MOL0     C31299   1.949   3.692  11.543 -1.0703  0.3673 -0.1125
  238MOL0     C31300   1.884   3.707  11.683 -0.7676  0.3462 -0.4525
  238MOL0     N31301   1.964   3.764  11.791 -0.1582 -0.3145 -0.2285
  238MOL0     C31302   1.979   3.715  11.920  0.4429  0.9013 -0.6565
  238MOL0     C31303   2.057   3.807  11.978 -0.2658 -1.0546 -0.3879
  238MOL0     C31304   2.076   3.800  12.127  0.3802 -0.2103  0.2456
  238MOL0     C31305   1.967   3.872  12.199  0.9444 -0.4008 -0.1491
  238MOL0     C31306   1.962   3.868  12.352 -0.7841  0.5073 -0.8230
  238MOL0     C31307   2.103   3.877  12.422 -1.1564 -0.4360 -0.8137
  238MOL0     O31308   2.100   3.883  12.571  0.4370  0.3253  0.2858
  238MOL0     C31309   2.217   3.884  12.639  0.1764  0.5850 -0.1081
  238MOL0     C31310   2.244   3.801  12.750  0.1052 -0.7092 -0.3643
  238MOL0     C31311   2.376   3.806  12.803  0.5337 -0.0236 -0.0946
  238MOL0     C31312   2.472   3.900  12.762  0.5107 -0.4916  0.7605
  238MOL0     C31313   2.607   3.900  12.822 -0.3413  0.3956  0.0151
  238MOL0     O31314   2.712   3.933  12.738  0.1197 -0.1820 -0.6988
  238MOL0     C31315   2.832   3.928  12.788 -0.7317 -0.0631  0.1686
  238MOL0     C31316   2.885   3.827  12.869  0.8556 -0.1107  1.0229
  238MOL0     C31317   3.016   3.823  12.891  0.2256  0.7075  0.3252
  238MOL0     C31318   3.109   3.918  12.854  1.0786  0.1316  0.3666
  238MOL0     O31319   3.230   3.908  12.919  0.8789  0.5735  0.1507
  238MOL0     C31320   3.321   4.015  12.894 -0.7084 -0.5167 -0.8846
  238MOL0     C31321   3.459   3.945  12.913 -0.1225  0.3696 -0.5908
  238MOL0     C31322   3.509   3.837  12.823  0.2683 -0.4151  0.1474
  238MOL0     C31323   3.411   3.721  12.804  0.5777 -0.2543 -0.3086
  238MOL0     C31324   3.459   3.617  12.709  0.4207  0.5505  0.8566
  238MOL0     C31325   3.426   3.637  12.561  0.2475  0.2584 -1.2885
  238MOL0     C31326   3.457   3.509  12.478  0.1802 -0.0555 -0.1532
  238MOL0     C31327   3.437   3.518  12.327 -1.0287 -0.1635  0.2761
  238MOL0    Cl31328   3.534   3.647  12.245 -0.2607 -0.1687  0.0889
  238MOL0     C31329   3.064   4.026  12.768  0.0988 -0.6218 -0.4702
  238MOL0     C31330   2.925   4.024  12.735  0.0059  0.9942 -0.7157
  238MOL0     O31331   2.612   3.864  12.940  0.7042 -0.5917 -0.2614
  238MOL0     C31332   2.444   3.989  12.663 -0.4641 -0.4415  0.2770
  238MOL0     C31333   2.316   3.974  12.600 -0.8788 -0.2091  0.2402
  238MOL0     N31334   2.089   3.911  11.899  0.0248 -0.3601 -0.4703
  238MOL0     N31335   2.026   3.888  11.787  0.1774  0.2529  0.5748
  238MOL0     C31336   2.467   3.024  10.908 -0.4339 -0.3509 -0.1151
  238MOL0     C31337   2.528   2.988  10.787 -0.4949 -0.1104  0.5176
  238MOL0     C31338   2.603   2.903  10.355 -0.2171  0.5999 -0.0495
  238MOL0     C31339   2.592   2.795  10.265 -0.5885  0.1303 -0.2747
  238MOL0     C31340   2.661   2.801  10.141 -0.0222 -0.2322  0.4841
  238MOL0     C31341   2.743   2.910  10.110  0.3526 -0.3275 -0.0053
  238MOL0     O31342   2.793   2.898   9.985  0.7177 -0.4033  0.1919
  238MOL0     C31343   2.909   2.979   9.951  0.3584 -0.2409 -0.2798
  238MOL0     C31344   2.866   3.117   9.895 -0.2292  0.4832  0.4318
  238MOL0     C31345   2.855   3.112   9.741  0.0434  0.6828  0.1870
  238MOL0     C31346   2.761   2.995   9.689 -0.1761  0.1880 -0.2473
  238MOL0     C31347   2.749   3.024   9.542 -1.0438  0.2271  0.7208
  238MOL0     C31348   2.735   3.046   9.422 -0.6652  0.1126  0.1191
  238MOL0     C31349   2.762   3.014  10.196 -0.7727 -0.5273 -1.4606
  238MOL0     C31350   2.685   3.015  10.315  0.1413 -0.4505 -0.1546
  238MOL0     H31351   2.376   3.196  10.581  0.4906 -0.0919 -0.0462
  238MOL0     H31352   2.282   3.291  10.811  0.8917  1.2043 -0.8176
  238MOL0     H31353   2.477   3.201  11.159  0.6261 -1.0616  0.3245
  238MOL0     H31354   2.391   3.043  11.167 -2.8052 -0.2322 -1.3474
  238MOL0     H31355   2.350   3.175  11.364 -3.0275  0.2309  0.7712
  238MOL0     H31356   2.200   3.133  11.280 -0.6670 -0.4594 -1.9394
  238MOL0     H31357   2.169   3.369  11.204 -1.4255  0.6960  1.7775
  238MOL0     H31358   2.326   3.419  11.247  1.0148 -0.9201 -0.7839
  238MOL0     H31359   2.146   3.324  11.461  0.1230 -3.8270 -3.3843
  238MOL0     H31360   2.298   3.428  11.462 -0.0980 -0.0474 -0.3390
  238MOL0     H31361   2.018   3.505  11.348 -0.6438  2.1756  1.7218
  238MOL0     H31362   2.164   3.610  11.346  0.8621  0.4367 -0.4366
  238MOL0     H31363   2.149   3.619  11.585  0.2602  1.0733  0.2977
  238MOL0     H31364   2.019   3.493  11.588  1.3708  0.4206  0.9348
  238MOL0     H31365   1.988   3.787  11.506  1.7719  0.5546  2.9269
  238MOL0     H31366   1.861   3.675  11.480 -1.7462  0.1900  0.8690
  238MOL0     H31367   1.864   3.601  11.700  1.1441  0.2799  2.1432
  238MOL0     H31368   1.789   3.758  11.667 -1.3530 -0.3053  0.7993
  238MOL0     H31369   1.928   3.633  11.970  1.4310  1.3715  1.2119
  238MOL0     H31370   2.175   3.841  12.153  0.8105 -2.3764  2.4295
  238MOL0     H31371   2.085   3.698  12.165  0.0940 -0.2881  0.1045
  238MOL0     H31372   1.872   3.844  12.154  0.5500  1.9913 -0.9436
  238MOL0     H31373   1.955   3.978  12.172  0.5596 -0.0712  1.1962
  238MOL0     H31374   1.902   3.951  12.389  0.6767  1.4319 -0.4182
  238MOL0     H31375   1.917   3.771  12.375  2.6356 -1.3888 -1.4379
  238MOL0     H31376   2.156   3.969  12.395  1.6024 -1.5828  0.2230
  238MOL0     H31377   2.158   3.792  12.381  2.3475  1.4952 -0.6057
  238MOL0     H31378   2.162   3.734  12.773  0.6076 -2.2018 -2.5743
  238MOL0     H31379   2.393   3.734  12.883 -0.9956 -0.4904 -0.1605
  238MOL0     H31380   2.820   3.756  12.920  0.0953  0.4070  0.7798
  238MOL0     H31381   3.063   3.745  12.951 -4.1597 -1.4929  1.3076
  238MOL0     H31382   3.316   4.111  12.947  1.1022 -1.4491  1.1354
  238MOL0     H31383   3.322   4.042  12.788 -0.1044 -1.5006 -1.1448
  238MOL0     H31384   3.456   3.905  13.014 -0.1900  0.1828 -0.6667
  238MOL0     H31385   3.536   4.022  12.912 -0.1148  0.4526 -3.7824
  238MOL0     H31386   3.604   3.798  12.861 -0.0343 -1.6015 -0.2442
  238MOL0     H31387   3.527   3.867  12.720  2.1348 -0.8491  0.3072
  238MOL0     H31388   3.397   3.679  12.904 -1.0184 -1.6723 -1.0832
  238MOL0     H31389   3.314   3.752  12.763 -1.7022 -3.3033  2.2583
  238MOL0     H31390   3.403   3.527  12.736 -1.1222  1.3903  0.5807
  238MOL0     H31391   3.566   3.606  12.731  0.4798  2.9797  2.0727
  238MOL0     H31392   3.479   3.726  12.527  2.0025  0.0970  0.8042
  238MOL0     H31393   3.317   3.652  12.562  0.2395  0.3466 -2.2625
  238MOL0     H31394   3.560   3.475  12.491  0.2253  0.7106  2.0019
  238MOL0     H31395   3.401   3.420  12.509 -0.9559  1.7336  3.5117
  238MOL0     H31396   3.330   3.535  12.311 -1.2934 -1.2896  0.7621
  238MOL0     H31397   3.459   3.420  12.282 -1.1614 -0.0361 -0.0717
  238MOL0     H31398   3.126   4.114  12.757  0.9278 -0.6560  2.8432
  238MOL0     H31399   2.873   4.090  12.666 -0.5380  0.8845 -0.4185
  238MOL0     H31400   2.523   4.060  12.641  0.0799 -0.8599  0.8378
  238MOL0     H31401   2.283   4.051  12.531 -2.5004  2.2530  3.4804
  238MOL0     H31402   2.491   2.976  11.002 -2.2087  1.9380  1.6264
  238MOL0     H31403   2.601   2.908  10.794  1.2317  1.1907 -1.5758
  238MOL0     H31404   2.528   2.714  10.300  2.8665 -2.7781 -0.1548
  238MOL0     H31405   2.652   2.721  10.069 -0.6238 -0.4505  0.7975
  238MOL0     H31406   2.978   2.943   9.874 -0.7193 -1.3257 -0.7696
  238MOL0     H31407   2.963   2.997  10.045  0.5824  1.5458 -0.7240
  238MOL0     H31408   2.770   3.150   9.934 -0.9299 -0.0165 -0.7938
  238MOL0     H31409   2.931   3.202   9.919 -1.6239  1.8055 -0.2907
  238MOL0     H31410   2.955   3.105   9.697  0.3050 -0.3578  0.9208
  238MOL0     H31411   2.804   3.205   9.714 -1.2756  1.1513  3.7477
  238MOL0     H31412   2.796   2.893   9.710 -2.1136  0.1846  4.0426
  238MOL0     H31413   2.663   3.013   9.733  0.5447  0.7113  1.1935
  238MOL0     H31414   2.710   3.050   9.318 -1.8541 -0.0990  0.3824
  238MOL0     H31415   2.835   3.090  10.172  1.1242 -1.0455  2.0705
  238MOL0     H31416   2.694   3.098  10.385 -1.3718 -0.7413  0.4256
  239MOL0     O31417   4.918   6.340   2.245 -0.1009 -0.3289  0.0204
  239MOL0     C31418   4.890   6.239   2.309 -0.1942  0.6091  0.0237
  239MOL0     O31419   4.837   6.232   2.434 -0.2975 -0.1797 -0.1854
  239MOL0     C31420   4.847   6.340   2.524  1.1942  0.4529  0.3702
  239MOL0     C31421   4.785   6.312   2.646  0.2493  0.9020  0.0474
  239MOL0     C31422   4.788   6.405   2.757  0.2043  0.2724  0.9538
  239MOL0     C31423   4.837   6.537   2.734  0.5941  0.0514 -0.8892
  239MOL0     O31424   4.835   6.622   2.838  0.6594  0.1006 -0.8359
  239MOL0     C31425   4.943   6.590   2.930 -0.1310 -0.7851 -0.4453
  239MOL0     C31426   4.953   6.667   3.062  1.0179 -0.2174 -0.0084
  239MOL0     C31427   4.863   6.623   3.170  0.5688  0.1659  0.0556
  239MOL0     C31428   4.718   6.607   3.136  0.4352 -1.0254  0.1498
  239MOL0     C31429   4.629   6.566   3.251 -0.6529 -0.3977  0.3039
  239MOL0     C31430   4.661   6.426   3.296 -0.5746  0.8725 -0.2525
  239MOL0     C31431   4.571   6.387   3.415  0.7050 -0.3257 -0.0699
  239MOL0     C31432   4.594   6.235   3.420  0.1296 -0.1293  0.7388
  239MOL0     N31433   4.732   6.200   3.477  0.7219 -0.6106 -0.0940
  239MOL0     C31434   4.789   6.239   3.592  1.0989  0.9880 -0.1486
  239MOL0     C31435   4.895   6.163   3.604  0.0680 -0.2840 -0.9006
  239MOL0     C31436   5.001   6.166   3.707 -0.3704 -0.0006 -0.0009
  239MOL0     C31437   4.943   6.205   3.844 -0.1461  1.4463  0.2828
  239MOL0     C31438   5.061   6.202   3.949 -0.0483 -0.0824 -0.7235
  239MOL0     C31439   5.013   6.235   4.090  0.7207 -0.2418  0.0191
  239MOL0     O31440   5.134   6.247   4.166 -0.6614  0.2129  0.4078
  239MOL0     C31441   5.160   6.361   4.238 -0.4601  0.5075 -0.6491
  239MOL0     C31442   5.074   6.473   4.247  0.3049 -0.5477 -0.1273
  239MOL0     C31443   5.095   6.571   4.351 -0.5257 -0.3439 -0.3031
  239MOL0     C31444   5.203   6.559   4.440  0.1093  0.2850 -0.0849
  239MOL0     C31445   5.226   6.665   4.534 -0.8685 -0.4512 -0.3146
  239MOL0     O31446   5.344   6.651   4.611 -0.0412  0.3550 -0.1587
  239MOL0     C31447   5.379   6.750   4.698  0.1269  0.3477  1.0680
  239MOL0     C31448   5.304   6.804   4.802  0.8196  0.6493 -0.6566
  239MOL0     C31449   5.346   6.912   4.882 -0.5721  0.0064 -0.1847
  239MOL0     C31450   5.456   6.982   4.851 -0.4295 -0.1952  0.0991
  239MOL0     O31451   5.499   7.098   4.912  0.6759  0.8030  0.2775
  239MOL0     C31452   5.397   7.179   4.970 -0.1402  0.0825 -0.9857
  239MOL0     C31453   5.385   7.170   5.131 -0.4083 -1.0863  0.6738
  239MOL0     C31454   5.253   7.245   5.166  0.0998  0.8828  0.5989
  239MOL0     C31455   5.221   7.252   5.322 -0.4297  0.3117 -0.1009
  239MOL0     C31456   5.265   7.390   5.387 -0.1100  0.1071  0.0337
  239MOL0     C31457   5.421   7.389   5.415  0.8056  0.2815  0.1427
  239MOL0     C31458   5.468   7.506   5.493  0.0366 -0.3497 -0.1093
  239MOL0     C31459   5.439   7.632   5.416 -0.2026  0.0334  0.7958
  239MOL0    Cl31460   5.494   7.777   5.502 -0.1534 -0.3261  0.2650
  239MOL0     C31461   5.539   6.928   4.745  1.1794 -0.3600  0.5332
  239MOL0     C31462   5.502   6.818   4.670  0.1893  0.2567  0.1781
  239MOL0     O31463   5.167   6.774   4.527 -0.3434 -0.4465  0.9781
  239MOL0     C31464   5.297   6.452   4.429 -0.4420  0.6736 -0.1246
  239MOL0     C31465   5.272   6.350   4.325  0.4213 -0.2964  0.2022
  239MOL0     N31466   4.903   6.081   3.494  0.0712 -0.5742 -0.1292
  239MOL0     N31467   4.812   6.105   3.418  0.7352 -1.3184  0.7046
  239MOL0     C31468   4.877   6.568   2.609  0.2396 -0.1201 -0.3817
  239MOL0     C31469   4.888   6.465   2.507  0.0939  0.2680  0.5805
  239MOL0     C31470   4.901   6.117   2.226  0.4134  0.6688 -0.4555
  239MOL0     C31471   4.959   6.123   2.098  0.6395  0.0137  0.0638
  239MOL0     C31472   4.972   6.005   2.030  1.3710 -0.3983 -0.1347
  239MOL0     C31473   4.951   5.881   2.088 -0.8347 -0.3186  0.1945
  239MOL0     O31474   4.965   5.771   1.998 -0.2521 -0.7369 -0.0082
  239MOL0     C31475   4.937   5.643   2.054  0.1023 -0.2241 -0.1236
  239MOL0     C31476   4.922   5.542   1.944 -0.7695 -0.1351 -0.5372
  239MOL0     C31477   4.926   5.393   2.003  0.0293  0.6290  0.0894
  239MOL0     C31478   5.072   5.331   2.019 -0.9596 -0.2048  0.2915
  239MOL0     C31479   5.086   5.191   2.047  0.7432 -0.6660  1.1345
  239MOL0     C31480   5.112   5.075   2.058  0.9283 -0.6584  0.0713
  239MOL0     C31481   4.904   5.876   2.215  0.9469 -0.5711 -1.5449
  239MOL0     C31482   4.876   5.994   2.283 -0.5107  0.0698 -0.6106
  239MOL0     H31483   4.753   6.208   2.648  2.0802  0.2905 -0.1031
  239MOL0     H31484   4.749   6.382   2.856 -1.0904 -0.5072  0.2997
  239MOL0     H31485   5.031   6.625   2.876 -0.0994 -0.5282 -0.2255
  239MOL0     H31486   4.949   6.484   2.957 -0.0390 -0.8065 -0.5489
  239MOL0     H31487   4.932   6.774   3.048  0.5787 -0.4123 -0.8804
  239MOL0     H31488   5.055   6.652   3.099  0.4145 -0.2788  1.6967
  239MOL0     H31489   4.865   6.688   3.259 -0.4659 -1.1528  1.0852
  239MOL0     H31490   4.895   6.520   3.187 -2.3458 -0.5873  1.6529
  239MOL0     H31491   4.684   6.709   3.118  1.5642 -0.1006  2.8942
  239MOL0     H31492   4.693   6.544   3.049 -5.1322  0.1128  0.5423
  239MOL0     H31493   4.525   6.577   3.218  0.3395 -0.3549 -3.2697
  239MOL0     H31494   4.642   6.637   3.333  1.6199 -0.0045 -0.3378
  239MOL0     H31495   4.763   6.421   3.334 -0.4189 -2.5179 -0.7800
  239MOL0     H31496   4.664   6.355   3.213 -2.0907  0.2174  0.2212
  239MOL0     H31497   4.600   6.441   3.505 -0.8012 -0.2344  0.3950
  239MOL0     H31498   4.466   6.403   3.388  0.7386 -0.0396 -0.0367
  239MOL0     H31499   4.584   6.186   3.322 -1.0282 -0.0843  0.8201
  239MOL0     H31500   4.517   6.195   3.488  2.7697 -3.6151  2.0004
  239MOL0     H31501   4.752   6.321   3.654 -2.3236 -0.7861  0.3741
  239MOL0     H31502   5.083   6.234   3.681  1.3526 -1.1964  1.9926
  239MOL0     H31503   5.037   6.063   3.712  0.3341  0.0142 -2.7840
  239MOL0     H31504   4.863   6.139   3.879  1.8671 -1.2805  0.0861
  239MOL0     H31505   4.900   6.305   3.832  0.3999  2.0145  2.7059
  239MOL0     H31506   5.112   6.105   3.948  3.0554  1.4345 -1.7991
  239MOL0     H31507   5.143   6.270   3.921  0.9159 -0.6233  0.6695
  239MOL0     H31508   4.960   6.143   4.116  0.3645 -0.4481 -1.3443
  239MOL0     H31509   4.946   6.322   4.088  2.3076  1.0194 -0.5223
  239MOL0     H31510   4.982   6.478   4.190  1.4775 -2.4770 -2.3191
  239MOL0     H31511   5.020   6.649   4.356  2.0253  2.4104 -1.5885
  239MOL0     H31512   5.207   6.761   4.822  1.2490 -0.7657 -1.4614
  239MOL0     H31513   5.269   6.929   4.957 -1.0689 -0.2165 -0.6291
  239MOL0     H31514   5.298   7.150   4.934 -0.1327 -2.6532  0.8456
  239MOL0     H31515   5.418   7.284   4.949  0.5530  0.1766  0.1017
  239MOL0     H31516   5.473   7.212   5.181 -1.5247 -1.3125  2.9054
  239MOL0     H31517   5.371   7.066   5.160  2.4026 -1.7503  0.0222
  239MOL0     H31518   5.177   7.176   5.127  0.2829  0.8172  0.3586
  239MOL0     H31519   5.234   7.345   5.124 -4.9246 -0.6052 -1.4682
  239MOL0     H31520   5.113   7.250   5.336 -0.4990 -0.5094 -0.6683
  239MOL0     H31521   5.266   7.172   5.382  0.6645  3.0993  3.0984
  239MOL0     H31522   5.201   7.412   5.473  0.8568  2.1637  0.2825
  239MOL0     H31523   5.252   7.463   5.307  0.9222  0.3678  0.0876
  239MOL0     H31524   5.472   7.379   5.319  0.9166 -0.9363  0.3139
  239MOL0     H31525   5.433   7.308   5.487 -1.0315  0.0042  0.1666
  239MOL0     H31526   5.415   7.510   5.588  2.5133 -1.7348  1.4459
  239MOL0     H31527   5.574   7.494   5.520  0.0379  0.1257  0.1077
  239MOL0     H31528   5.331   7.639   5.400  0.1031  3.6437 -0.6061
  239MOL0     H31529   5.490   7.618   5.320  2.8408 -0.6013  2.3819
  239MOL0     H31530   5.637   6.975   4.739  2.3857 -2.9281 -2.4201
  239MOL0     H31531   5.558   6.797   4.579 -0.2726 -1.8890  0.3366
  239MOL0     H31532   5.382   6.437   4.496 -0.5326 -4.2513 -0.7680
  239MOL0     H31533   5.328   6.258   4.316 -2.1526 -1.8382 -1.0608
  239MOL0     H31534   4.911   6.670   2.589  1.4510 -0.3737  0.3091
  239MOL0     H31535   4.912   6.497   2.406  1.3969 -0.8079  0.5296
  239MOL0     H31536   4.968   6.217   2.046 -0.4719  0.5816  0.8657
  239MOL0     H31537   4.994   6.009   1.923 -3.2593  0.6342 -1.2695
  239MOL0     H31538   4.840   5.657   2.103  0.4403 -0.9241  0.7680
  239MOL0     H31539   5.015   5.600   2.117  0.8828 -2.3001 -2.3937
  239MOL0     H31540   4.829   5.573   1.895 -1.4727  1.3170  1.5930
  239MOL0     H31541   5.007   5.557   1.878  1.1790  1.6887  2.1921
  239MOL0     H31542   4.873   5.326   1.934 -0.3696 -0.2882  1.2476
  239MOL0     H31543   4.874   5.400   2.099  0.5301 -0.3437  0.4496
  239MOL0     H31544   5.136   5.348   1.932  0.1834  1.6762  1.4416
  239MOL0     H31545   5.122   5.394   2.093 -0.4066 -1.8463  1.3621
  239MOL0     H31546   5.130   4.971   2.042  5.3546  0.2914 -2.9816
  239MOL0     H31547   4.874   5.783   2.264 -0.9506  0.5545 -0.4535
  239MOL0     H31548   4.820   6.001   2.376  1.0810 -0.9908  0.4834
  240MOL0     O31549   3.605   2.954   5.865  0.2753  0.1688  0.2622
  240MOL0     C31550   3.660   2.934   5.972 -0.3043 -0.5359  0.4226
  240MOL0     O31551   3.612   2.849   6.064 -0.1320 -0.2340  0.1245
  240MOL0     C31552   3.499   2.771   6.035  0.0943  0.1468 -0.5561
  240MOL0     C31553   3.374   2.818   5.994  0.1917 -0.2340  0.2545
  240MOL0     C31554   3.273   2.713   5.957 -0.4388 -0.5735 -0.8055
  240MOL0     C31555   3.292   2.580   5.976  0.0825 -0.3933 -1.0039
  240MOL0     O31556   3.199   2.488   5.940  0.1842 -0.4670  0.5440
  240MOL0     C31557   3.069   2.509   5.996  0.0374  0.3957  0.6976
  240MOL0     C31558   2.992   2.378   6.001 -0.4431  0.2246 -0.2304
  240MOL0     C31559   2.873   2.374   6.099 -0.3301 -0.3455 -0.9233
  240MOL0     C31560   2.762   2.275   6.056 -0.3256 -0.7319 -0.0446
  240MOL0     C31561   2.624   2.297   6.123  0.3967 -0.1968  0.8385
  240MOL0     C31562   2.622   2.247   6.269  0.5934  0.7575  0.0420
  240MOL0     C31563   2.496   2.286   6.341  0.9955 -0.7410  0.4980
  240MOL0     C31564   2.393   2.175   6.307  0.2585  1.2721  0.0886
  240MOL0     N31565   2.311   2.161   6.413 -0.2408  0.5178 -0.2411
  240MOL0     C31566   2.317   2.073   6.517  0.6249  0.6517 -0.2703
  240MOL0     C31567   2.217   2.119   6.599  0.0948  0.6887  0.2249
  240MOL0     C31568   2.176   2.064   6.728  0.8686 -0.6812  0.3701
  240MOL0     C31569   2.170   1.914   6.737  0.2138 -0.2107 -1.0889
  240MOL0     C31570   2.094   1.870   6.861  0.4086 -0.8768 -0.4050
  240MOL0     C31571   2.077   1.726   6.886  0.2260 -0.3804 -0.2918
  240MOL0     O31572   1.983   1.678   6.788 -0.1967  1.0048 -0.1652
  240MOL0     C31573   1.889   1.588   6.847 -0.0910 -0.2876  0.0001
  240MOL0     C31574   1.757   1.625   6.871 -0.7116 -0.5293 -0.6314
  240MOL0     C31575   1.671   1.534   6.929  0.2806 -0.5844 -0.3645
  240MOL0     C31576   1.708   1.403   6.948  0.8826  1.2306 -0.8701
  240MOL0     C31577   1.616   1.293   7.003 -1.2730 -0.6163 -0.6279
  240MOL0     O31578   1.675   1.188   7.065 -0.2461  0.1520  0.3372
  240MOL0     C31579   1.594   1.081   7.103 -0.4398 -0.2876  0.4821
  240MOL0     C31580   1.623   1.026   7.232 -0.2287  0.1093  0.6567
  240MOL0     C31581   1.553   0.910   7.279  0.1139  0.2542 -0.7414
  240MOL0     C31582   1.444   0.864   7.205 -0.1339  0.0303  0.4786
  240MOL0     O31583   1.368   0.772   7.269 -1.1258  0.6364 -0.1098
  240MOL0     C31584   1.243   0.741   7.220 -0.1529 -0.2865 -0.2768
  240MOL0     C31585   1.195   0.620   7.297 -0.7328  0.5160  0.0268
  240MOL0     C31586   1.220   0.632   7.450  0.5855 -0.6583  0.6951
  240MOL0     C31587   1.149   0.515   7.530  0.2070 -0.6649 -0.5725
  240MOL0     C31588   1.200   0.503   7.678 -0.2998  0.4727 -0.2032
  240MOL0     C31589   1.187   0.352   7.717  0.3241 -0.6742 -0.5446
  240MOL0     C31590   1.207   0.326   7.859  0.8824 -0.5076 -1.1195
  240MOL0     C31591   1.350   0.337   7.899 -1.9018  0.2124 -0.3816
  240MOL0    Cl31592   1.453   0.202   7.821 -0.0163  0.0372 -0.0653
  240MOL0     C31593   1.431   0.916   7.075  0.0473 -0.1639 -0.1769
  240MOL0     C31594   1.498   1.027   7.026  0.2238  1.0259  0.1946
  240MOL0     O31595   1.495   1.312   6.988 -0.4854 -0.1539 -0.6974
  240MOL0     C31596   1.833   1.360   6.910 -0.4986  0.4732  0.1136
  240MOL0     C31597   1.924   1.457   6.863  0.4327 -0.2019 -0.6618
  240MOL0     N31598   2.139   2.213   6.541 -0.3495 -0.2764 -0.8289
  240MOL0     N31599   2.203   2.242   6.431  0.0472  0.4464 -0.1288
  240MOL0     C31600   3.422   2.535   6.012  0.3560 -0.4580 -0.1258
  240MOL0     C31601   3.511   2.625   6.058  0.1287 -0.2544  0.5940
  240MOL0     C31602   3.785   3.015   6.008  0.7136  0.0880 -0.5440
  240MOL0     C31603   3.842   2.988   6.133  0.6078  0.8470  0.8205
  240MOL0     C31604   3.932   3.082   6.193 -0.2911  0.1731 -0.5064
  240MOL0     C31605   3.976   3.193   6.125 -0.6538 -0.0617 -0.2660
  240MOL0     O31606   4.060   3.283   6.191  0.1975 -0.2011  0.6610
  240MOL0     C31607   4.020   3.330   6.318 -0.3409 -0.0719 -0.4184
  240MOL0     C31608   4.085   3.466   6.351  0.0973  0.8679  0.3091
  240MOL0     C31609   4.041   3.582   6.248  0.6816  0.4143  0.4521
  240MOL0     C31610   4.106   3.712   6.298  0.7805 -0.3449  0.3151
  240MOL0     C31611   4.041   3.761   6.414 -0.5368 -0.9523  0.5388
  240MOL0     C31612   3.972   3.800   6.505 -0.2075 -0.0999 -0.1205
  240MOL0     C31613   3.920   3.226   5.997  0.2765 -0.6517 -1.0669
  240MOL0     C31614   3.818   3.139   5.955 -0.1080 -0.0323  0.3812
  240MOL0     H31615   3.349   2.921   5.973 -3.1301 -1.0798 -0.6364
  240MOL0     H31616   3.170   2.731   5.931 -0.4598 -1.1916 -1.1443
  240MOL0     H31617   3.010   2.586   5.946 -1.3819 -0.4266  1.0704
  240MOL0     H31618   3.089   2.546   6.097 -0.0872  1.6868  0.2731
  240MOL0     H31619   3.051   2.287   6.018 -0.2048  0.7661  2.2368
  240MOL0     H31620   2.953   2.370   5.899  0.0229  1.1130 -0.4940
  240MOL0     H31621   2.839   2.478   6.107 -1.0026 -0.6895  1.4899
  240MOL0     H31622   2.897   2.332   6.197 -0.4880 -1.2789 -1.2730
  240MOL0     H31623   2.752   2.287   5.948 -5.3561 -3.3348 -0.1854
  240MOL0     H31624   2.801   2.175   6.080  0.3236  0.2493  3.7336
  240MOL0     H31625   2.552   2.241   6.062 -1.2984  0.9208  1.7419
  240MOL0     H31626   2.585   2.399   6.118 -3.3841 -1.5733 -2.0135
  240MOL0     H31627   2.708   2.282   6.327  1.2747 -1.0404  0.1961
  240MOL0     H31628   2.634   2.138   6.275 -0.2078  0.6927  0.5983
  240MOL0     H31629   2.523   2.272   6.446  1.5834 -0.3336  0.4062
  240MOL0     H31630   2.460   2.389   6.333 -1.0733 -1.4769 -0.3077
  240MOL0     H31631   2.431   2.079   6.272 -3.3176  0.2344 -1.3790
  240MOL0     H31632   2.336   2.211   6.221  0.6617 -0.3103 -0.8667
  240MOL0     H31633   2.383   1.988   6.534 -0.1245  0.1737  0.2654
  240MOL0     H31634   2.069   2.088   6.729  0.3453 -2.5257 -2.3228
  240MOL0     H31635   2.219   2.123   6.810 -1.5477  1.2608  0.3805
  240MOL0     H31636   2.275   1.885   6.721  1.4637  2.0128  2.0480
  240MOL0     H31637   2.116   1.874   6.651 -1.1934  1.5482 -1.0945
  240MOL0     H31638   2.142   1.919   6.946  2.3134 -2.1167 -0.7027
  240MOL0     H31639   1.992   1.909   6.851  0.4075 -1.3076 -2.7418
  240MOL0     H31640   2.037   1.733   6.988  0.3270  1.9860 -0.3728
  240MOL0     H31641   2.168   1.666   6.879  0.2879 -0.2207 -0.9433
  240MOL0     H31642   1.735   1.730   6.856  0.5522 -0.3138 -1.0796
  240MOL0     H31643   1.578   1.571   6.972  1.1623  0.0689  1.0369
  240MOL0     H31644   1.704   1.062   7.294 -0.3144  0.2749  0.6737
  240MOL0     H31645   1.569   0.855   7.371  0.1115  0.1258 -0.8184
  240MOL0     H31646   1.254   0.711   7.115  0.9468 -0.1994 -0.2001
  240MOL0     H31647   1.175   0.825   7.231 -2.1747 -2.0187  1.2407
  240MOL0     H31648   1.255   0.533   7.270 -1.8925 -2.2024  4.8988
  240MOL0     H31649   1.089   0.606   7.275 -0.8862 -2.6041  1.9617
  240MOL0     H31650   1.189   0.734   7.474  0.1110 -0.5599 -0.2612
  240MOL0     H31651   1.326   0.634   7.476  0.5275  1.8402  1.0061
  240MOL0     H31652   1.041   0.523   7.511 -0.0761  1.2856  1.4798
  240MOL0     H31653   1.177   0.418   7.489  1.0383  0.3441 -2.5111
  240MOL0     H31654   1.144   0.567   7.747 -1.2267 -1.9464  1.3937
  240MOL0     H31655   1.303   0.535   7.695 -0.5077  0.0750  2.0514
  240MOL0     H31656   1.260   0.293   7.660  0.6081 -0.1535 -0.7295
  240MOL0     H31657   1.088   0.310   7.700 -1.7073  2.1976  2.8762
  240MOL0     H31658   1.145   0.396   7.914  2.5390  1.4502 -1.6071
  240MOL0     H31659   1.174   0.227   7.892 -2.1840  0.4211 -1.0898
  240MOL0     H31660   1.345   0.315   8.006  0.7161 -1.1742 -0.4637
  240MOL0     H31661   1.394   0.434   7.877  0.4522 -0.9839 -1.3617
  240MOL0     H31662   1.339   0.886   7.025 -3.1212 -1.1455  5.4434
  240MOL0     H31663   1.459   1.052   6.928  0.0760 -1.7196 -0.5482
  240MOL0     H31664   1.859   1.255   6.922  1.0196  0.7738 -0.3651
  240MOL0     H31665   2.020   1.413   6.838  0.2456 -0.1555 -1.4901
  240MOL0     H31666   3.463   2.435   6.013  0.3263 -0.4978 -1.5358
  240MOL0     H31667   3.611   2.601   6.095  0.1522  0.6492  1.1529
  240MOL0     H31668   3.811   2.895   6.181  1.0574 -0.0092 -0.5053
  240MOL0     H31669   3.970   3.055   6.291  1.5813  2.3923 -0.5338
  240MOL0     H31670   4.044   3.258   6.397 -0.0058  0.2509 -0.2220
  240MOL0     H31671   3.911   3.331   6.326 -0.2937 -0.4640  0.4306
  240MOL0     H31672   4.077   3.496   6.455  3.2524  1.5497  0.4696
  240MOL0     H31673   4.192   3.448   6.332 -0.1101 -0.2237  0.0596
  240MOL0     H31674   3.933   3.597   6.241  0.8042  0.5539 -1.9302
  240MOL0     H31675   4.076   3.562   6.146 -0.9935 -0.1276 -0.0440
  240MOL0     H31676   4.211   3.692   6.322  0.7153  0.7590  1.6207
  240MOL0     H31677   4.106   3.786   6.217  1.9397  1.6599  2.0454
  240MOL0     H31678   3.919   3.828   6.594  2.3272  2.2397  0.8031
  240MOL0     H31679   3.956   3.305   5.932 -0.3724 -1.6896 -2.7534
  240MOL0     H31680   3.772   3.160   5.860  1.5183  2.0764 -0.0103
  241MOL0     O31681   5.232   3.810   3.856 -0.7561  0.6994 -0.4432
  241MOL0     C31682   5.230   3.686   3.865  0.1774  0.7328  0.0664
  241MOL0     O31683   5.138   3.601   3.804  0.3525 -0.1958  0.4372
  241MOL0     C31684   5.051   3.641   3.707 -0.5194 -0.4719 -0.5950
  241MOL0     C31685   5.093   3.687   3.584  0.4207  0.5830 -0.0328
  241MOL0     C31686   5.005   3.704   3.479  0.2140 -0.4458 -0.4655
  241MOL0     C31687   4.869   3.698   3.497 -0.9300  0.5265  0.0730
  241MOL0     O31688   4.802   3.719   3.379  0.4489  0.8875 -0.5114
  241MOL0     C31689   4.734   3.596   3.336  0.0468 -0.1640  0.4478
  241MOL0     C31690   4.775   3.549   3.189  0.1115  0.4590 -0.1910
  241MOL0     C31691   4.754   3.669   3.096 -1.2056  1.0127 -0.4791
  241MOL0     C31692   4.757   3.634   2.944 -0.0724  0.5011  0.5031
  241MOL0     C31693   4.739   3.745   2.841  0.2103  0.2243 -0.3531
  241MOL0     C31694   4.608   3.825   2.855  0.6788  0.0864 -0.3981
  241MOL0     C31695   4.600   3.918   2.739  0.0235 -0.5921  0.3744
  241MOL0     C31696   4.538   3.870   2.603  0.5602 -0.2913  0.0069
  241MOL0     N31697   4.602   3.951   2.496  0.1563 -0.2005  0.3308
  241MOL0     C31698   4.734   3.946   2.456  0.0491 -0.0966  0.8026
  241MOL0     C31699   4.750   4.057   2.378  0.1412 -0.4254  0.0645
  241MOL0     C31700   4.882   4.116   2.330  1.2971  0.1429 -0.2406
  241MOL0     C31701   4.912   4.069   2.188  0.6900  0.7524 -0.6173
  241MOL0     C31702   4.795   4.078   2.095 -0.0832  0.3774 -0.1321
  241MOL0     C31703   4.839   4.067   1.948 -0.2051  0.9689 -0.3250
  241MOL0     O31704   4.948   3.973   1.923 -0.6814  0.0746 -0.3981
  241MOL0     C31705   4.921   3.839   1.921  0.2466 -0.4627  0.0503
  241MOL0     C31706   4.801   3.770   1.931  0.3056  0.4538  0.3862
  241MOL0     C31707   4.794   3.632   1.925  0.9836 -0.0154  0.1222
  241MOL0     C31708   4.913   3.560   1.907  0.4904 -0.6572  0.1549
  241MOL0     C31709   4.894   3.410   1.910 -0.1727 -0.6405  0.3893
  241MOL0     O31710   4.821   3.362   2.005  0.1614 -0.1483 -0.1944
  241MOL0     C31711   4.786   3.225   2.009 -0.6114 -0.1217  0.5498
  241MOL0     C31712   4.896   3.129   2.031  0.1685 -0.0391  0.2493
  241MOL0     C31713   4.882   2.990   2.009  0.3749 -0.3804 -0.6260
  241MOL0     C31714   4.759   2.945   1.958  0.2001  0.2945 -0.3420
  241MOL0     O31715   4.737   2.812   1.926  0.2722  0.2149  0.4714
  241MOL0     C31716   4.848   2.720   1.902  0.0247  0.1643  0.8170
  241MOL0     C31717   4.797   2.602   1.814 -0.3710  0.2741 -0.0720
  241MOL0     C31718   4.910   2.536   1.730  0.6129  0.4493  0.2807
  241MOL0     C31719   4.863   2.410   1.652 -0.9230 -0.0326  0.3802
  241MOL0     C31720   4.746   2.428   1.560  0.0103  0.5545  1.3305
  241MOL0     C31721   4.777   2.463   1.406  0.7036 -0.0100  1.1461
  241MOL0     C31722   4.661   2.516   1.323 -0.2718  0.8198 -0.0852
  241MOL0     C31723   4.574   2.399   1.294 -0.2612 -0.0953 -0.0091
  241MOL0    Cl31724   4.425   2.457   1.216  0.0468 -0.1786 -0.1441
  241MOL0     C31725   4.654   3.036   1.928  0.6020 -0.3349 -0.5582
  241MOL0     C31726   4.665   3.174   1.957  0.2422  0.9392 -0.6373
  241MOL0     O31727   4.955   3.348   1.824  0.1439 -0.3548 -0.1674
  241MOL0     C31728   5.041   3.622   1.890 -0.2332  0.1476 -0.4601
  241MOL0     C31729   5.034   3.758   1.903  0.1587  0.0492  0.0478
  241MOL0     N31730   4.629   4.134   2.389  0.0548 -0.0747  0.3286
  241MOL0     N31731   4.538   4.064   2.438  0.3724 -0.4107 -0.3611
  241MOL0     C31732   4.818   3.674   3.623  0.3290  0.4642 -1.0565
  241MOL0     C31733   4.907   3.641   3.725 -0.2281  0.5187 -0.1285
  241MOL0     C31734   5.334   3.619   3.942  0.2469  1.1999  0.5336
  241MOL0     C31735   5.347   3.473   3.940 -0.2063 -0.6544 -0.1661
  241MOL0     C31736   5.437   3.405   4.025  0.8273  0.5829  0.0083
  241MOL0     C31737   5.530   3.474   4.089 -0.2999  0.5948 -1.0575
  241MOL0     O31738   5.605   3.397   4.166 -0.5271 -0.6159  0.6125
  241MOL0     C31739   5.721   3.464   4.228  0.3951  0.4057 -0.6279
  241MOL0     C31740   5.824   3.358   4.274  0.1138  0.4847 -0.7980
  241MOL0     C31741   5.944   3.353   4.178 -1.2160 -0.8777 -0.6341
  241MOL0     C31742   5.998   3.212   4.173 -0.3362  0.4020 -0.2020
  241MOL0     C31743   6.071   3.167   4.290 -0.7389 -1.0845  0.3953
  241MOL0     C31744   6.125   3.136   4.399 -0.5330 -0.3365  0.5097
  241MOL0     C31745   5.527   3.612   4.097  0.7270 -0.5128 -0.2763
  241MOL0     C31746   5.427   3.688   4.024  0.2281  0.2924 -0.4643
  241MOL0     H31747   5.198   3.698   3.563  1.0282 -0.8156  1.9404
  241MOL0     H31748   5.054   3.693   3.383  1.3523  0.1136  0.0267
  241MOL0     H31749   4.625   3.612   3.332  0.4591  3.0972 -0.8757
  241MOL0     H31750   4.750   3.521   3.414 -2.3701  0.4288  1.6183
  241MOL0     H31751   4.704   3.467   3.172  0.4230  0.4020 -1.2322
  241MOL0     H31752   4.877   3.510   3.187  0.5511  1.6039 -1.1936
  241MOL0     H31753   4.833   3.744   3.110 -1.8118  1.2534  2.1082
  241MOL0     H31754   4.664   3.730   3.111 -2.4590 -0.4391 -1.7511
  241MOL0     H31755   4.844   3.575   2.915 -0.9787 -1.1115  0.9433
  241MOL0     H31756   4.667   3.574   2.923 -1.0429  0.3664  4.2674
  241MOL0     H31757   4.725   3.684   2.752  0.1432 -3.2286  1.8443
  241MOL0     H31758   4.831   3.805   2.844 -0.4053  1.2014  2.5480
  241MOL0     H31759   4.615   3.876   2.952 -1.1137 -2.2044  1.0362
  241MOL0     H31760   4.510   3.776   2.862 -0.3572  1.8891 -1.2860
  241MOL0     H31761   4.520   3.989   2.761 -2.2611 -2.0700 -2.3054
  241MOL0     H31762   4.690   3.977   2.725  0.0883 -1.3479 -3.8050
  241MOL0     H31763   4.429   3.865   2.596  0.4611 -1.8191  1.9256
  241MOL0     H31764   4.570   3.767   2.585  1.8765  0.6500 -4.2251
  241MOL0     H31765   4.815   3.883   2.491 -1.5949 -1.7914  1.7247
  241MOL0     H31766   4.963   4.080   2.394  0.6111  0.6388  0.9445
  241MOL0     H31767   4.877   4.225   2.319  2.0718  0.1650 -0.4324
  241MOL0     H31768   4.958   3.970   2.186 -4.2854 -1.8614 -0.7197
  241MOL0     H31769   4.978   4.136   2.132  3.0804 -1.2943 -0.4207
  241MOL0     H31770   4.716   4.005   2.113  0.4493 -0.7174 -2.0046
  241MOL0     H31771   4.756   4.179   2.111 -0.6770  0.2728 -0.8404
  241MOL0     H31772   4.866   4.172   1.938  2.3073  0.3467 -0.7965
  241MOL0     H31773   4.758   4.048   1.878  0.2543  1.3539 -0.9659
  241MOL0     H31774   4.705   3.819   1.948  1.1442  2.3936 -0.1936
  241MOL0     H31775   4.697   3.583   1.929  0.3865  1.0038 -1.0323
  241MOL0     H31776   4.998   3.151   2.059  0.9104 -0.4685 -1.9565
  241MOL0     H31777   4.955   2.910   2.021  0.3010 -0.5757 -1.4587
  241MOL0     H31778   4.878   2.690   2.003 -2.9985 -1.2877  1.4033
  241MOL0     H31779   4.934   2.765   1.852 -0.5667 -0.9965 -1.3458
  241MOL0     H31780   4.710   2.628   1.753  0.6394 -1.2016 -2.2752
  241MOL0     H31781   4.759   2.531   1.888 -2.9548  1.2814 -0.3038
  241MOL0     H31782   4.981   2.487   1.799  1.8862  0.2737 -1.1054
  241MOL0     H31783   4.952   2.604   1.656  2.3362  0.3605  1.1170
  241MOL0     H31784   4.952   2.371   1.602  0.0519  1.5037  0.8486
  241MOL0     H31785   4.828   2.340   1.728  0.5001 -0.9831  0.2041
  241MOL0     H31786   4.686   2.512   1.595  0.0125  0.3132  1.9175
  241MOL0     H31787   4.685   2.338   1.552  2.0768 -0.7630 -2.5919
  241MOL0     H31788   4.822   2.374   1.363 -1.5222 -0.4609 -0.4000
  241MOL0     H31789   4.854   2.541   1.401  0.0623  0.6560  1.3987
  241MOL0     H31790   4.603   2.591   1.377  1.4753  1.1370  1.4515
  241MOL0     H31791   4.709   2.556   1.232  0.7138  0.5062  0.2894
  241MOL0     H31792   4.538   2.348   1.384 -1.2256 -0.5834 -0.6506
  241MOL0     H31793   4.633   2.324   1.241  3.2010  1.9859  0.5774
  241MOL0     H31794   4.562   2.994   1.889 -1.2841  2.3308  0.6915
  241MOL0     H31795   4.590   3.251   1.939 -2.7282 -1.9699 -1.7297
  241MOL0     H31796   5.132   3.567   1.871 -0.2763 -0.7099  1.5794
  241MOL0     H31797   5.130   3.807   1.904  0.2066 -0.0423  1.1532
  241MOL0     H31798   4.710   3.675   3.636  0.4410 -3.3384  2.2737
  241MOL0     H31799   4.863   3.610   3.819 -1.4103 -0.6637 -1.0330
  241MOL0     H31800   5.292   3.406   3.875  0.5135 -0.6325 -0.8152
  241MOL0     H31801   5.429   3.296   4.027  1.2006  0.5456 -0.6353
  241MOL0     H31802   5.687   3.525   4.313 -1.0504 -0.7521 -0.3342
  241MOL0     H31803   5.777   3.526   4.158 -0.4246 -1.0600 -2.6691
  241MOL0     H31804   5.855   3.380   4.376  0.8086 -5.7074  0.7200
  241MOL0     H31805   5.776   3.260   4.273  0.1891  0.4306  0.2366
  241MOL0     H31806   6.021   3.419   4.218 -3.6071  2.2240 -0.7274
  241MOL0     H31807   5.906   3.390   4.082 -0.2853  1.6070 -0.1225
  241MOL0     H31808   5.917   3.139   4.165  1.0179 -1.3601  1.1826
  241MOL0     H31809   6.070   3.218   4.091  2.2078 -1.3361  1.7326
  241MOL0     H31810   6.169   3.094   4.487 -0.7034 -1.5368  0.0337
  241MOL0     H31811   5.590   3.680   4.155 -1.5745  2.6316 -1.1780
  241MOL0     H31812   5.424   3.795   4.042 -2.5038  0.0443  1.3001
  242MOL0     O31813   5.915   1.316   9.289 -0.1796 -0.4267  0.1357
  242MOL0     C31814   5.942   1.375   9.395 -0.6026 -0.7418 -0.6005
  242MOL0     O31815   5.848   1.401   9.489  0.0533 -0.9193  0.1530
  242MOL0     C31816   5.721   1.363   9.471 -0.4759  0.3605 -0.0179
  242MOL0     C31817   5.684   1.231   9.463 -0.3404 -2.2391  0.5970
  242MOL0     C31818   5.554   1.191   9.439 -0.0007  0.2381  0.3586
  242MOL0     C31819   5.460   1.294   9.427  0.4470 -0.6661 -0.8251
  242MOL0     O31820   5.330   1.258   9.396  0.3703  0.3783 -0.0646
  242MOL0     C31821   5.267   1.342   9.293  0.4158 -0.2458  0.6315
  242MOL0     C31822   5.144   1.265   9.236 -0.2946  0.7188 -0.5086
  242MOL0     C31823   5.108   1.300   9.088 -0.6714  0.0336  0.2619
  242MOL0     C31824   4.979   1.241   9.048 -0.0702 -0.4313 -0.4164
  242MOL0     C31825   4.931   1.304   8.914  0.7931 -0.2675  0.0902
  242MOL0     C31826   4.809   1.237   8.851 -0.0624 -0.1131  1.2186
  242MOL0     C31827   4.829   1.084   8.795 -0.8354 -0.6550 -0.1573
  242MOL0     C31828   4.741   1.051   8.679 -0.3358 -0.9519  0.0847
  242MOL0     N31829   4.590   1.044   8.704 -0.5361 -0.5158  0.1330
  242MOL0     C31830   4.547   0.945   8.783  0.1627 -0.1888 -0.3814
  242MOL0     C31831   4.408   0.950   8.786  0.2809 -0.6774 -0.2037
  242MOL0     C31832   4.326   0.835   8.836  0.0652 -0.0068 -0.5467
  242MOL0     C31833   4.316   0.839   8.994  0.4428  0.0939  0.9753
  242MOL0     C31834   4.240   0.723   9.047  0.6928  0.0224 -0.6499
  242MOL0     C31835   4.202   0.740   9.195  0.1027 -0.7429 -0.4319
  242MOL0     O31836   4.145   0.617   9.243  0.9314  0.0047 -0.6735
  242MOL0     C31837   4.026   0.612   9.320  0.3473  0.7914 -0.7221
  242MOL0     C31838   3.924   0.701   9.323 -0.3030 -0.5726  0.5115
  242MOL0     C31839   3.819   0.685   9.419 -0.7310  0.3223  1.0391
  242MOL0     C31840   3.817   0.563   9.509 -0.1450  0.0812  1.0751
  242MOL0     C31841   3.715   0.547   9.620 -0.2361 -0.3041 -0.1174
  242MOL0     O31842   3.591   0.591   9.585  0.6377 -0.0485 -0.1861
  242MOL0     C31843   3.486   0.583   9.673 -0.0273 -0.9273  0.0166
  242MOL0     C31844   3.368   0.533   9.618  0.6701  0.5150 -0.0734
  242MOL0     C31845   3.252   0.516   9.697 -0.3016 -0.4430 -0.4369
  242MOL0     C31846   3.267   0.539   9.840 -0.5224 -0.3165 -0.4607
  242MOL0     O31847   3.163   0.522   9.930  1.2083  0.2242 -0.1454
  242MOL0     C31848   3.046   0.437   9.894  0.4216  0.0668 -0.3376
  242MOL0     C31849   2.947   0.424  10.007 -0.5982 -0.8096 -0.8397
  242MOL0     C31850   2.806   0.371   9.980 -0.8342  0.7934  1.0093
  242MOL0     C31851   2.732   0.395  10.103  0.3894 -0.4337  0.3447
  242MOL0     C31852   2.593   0.340  10.120 -0.8122 -0.6877 -0.1188
  242MOL0     C31853   2.503   0.408  10.018  0.2309  0.0809 -0.3436
  242MOL0     C31854   2.359   0.371  10.025 -0.7440  0.3679  0.2386
  242MOL0     C31855   2.277   0.418   9.906  0.7097 -0.4337 -0.2309
  242MOL0    Cl31856   2.304   0.320   9.760 -0.2021  0.3934 -0.1284
  242MOL0     C31857   3.384   0.580   9.895 -0.4950  0.3593  0.2317
  242MOL0     C31858   3.492   0.600   9.810 -0.3841 -0.3094  0.0695
  242MOL0     O31859   3.743   0.485   9.727 -0.3434  0.4382  0.1576
  242MOL0     C31860   3.921   0.473   9.502  1.3888  0.3836 -0.3552
  242MOL0     C31861   4.021   0.491   9.405  0.5428 -0.4447  0.3650
  242MOL0     N31862   4.374   1.064   8.714  0.1987  0.0028 -0.0461
  242MOL0     N31863   4.483   1.113   8.658  0.4884  0.3541 -0.4049
  242MOL0     C31864   5.494   1.435   9.461 -0.7190  0.4181 -0.1556
  242MOL0     C31865   5.627   1.465   9.477  0.1909 -0.2524 -1.1259
  242MOL0     C31866   6.075   1.440   9.413 -0.0958 -0.3298 -0.2368
  242MOL0     C31867   6.163   1.446   9.308  0.7329  0.2406 -0.1060
  242MOL0     C31868   6.290   1.493   9.325 -0.3110 -0.0414  0.5255
  242MOL0     C31869   6.342   1.528   9.454 -0.3601 -0.1022 -0.3765
  242MOL0     O31870   6.472   1.569   9.473  0.0277 -0.6514  0.4372
  242MOL0     C31871   6.562   1.587   9.360  0.4913 -0.3387  1.0675
  242MOL0     C31872   6.639   1.458   9.329 -0.2520  0.4536  0.1543
  242MOL0     C31873   6.708   1.392   9.445  0.6470  0.6405  0.1863
  242MOL0     C31874   6.794   1.275   9.412  0.4023  0.2750 -0.5583
  242MOL0     C31875   6.920   1.308   9.334  0.8671  0.1377  0.0159
  242MOL0     C31876   7.028   1.335   9.289  0.3861 -0.4184  0.2190
  242MOL0     C31877   6.247   1.528   9.561  0.7221 -0.0816  0.0776
  242MOL0     C31878   6.116   1.477   9.539  1.2462  0.0810 -0.3966
  242MOL0     H31879   5.772   1.167   9.457  1.5482  0.2607 -0.1602
  242MOL0     H31880   5.531   1.085   9.431  0.7085  0.0229  0.9973
  242MOL0     H31881   5.340   1.373   9.217  0.2991  0.0081  0.6219
  242MOL0     H31882   5.236   1.440   9.330  0.7099  1.2244 -2.6402
  242MOL0     H31883   5.054   1.283   9.295  0.7078 -2.3260  2.2905
  242MOL0     H31884   5.176   1.160   9.235 -1.6437  0.2903 -1.0913
  242MOL0     H31885   5.181   1.249   9.024  0.0397  0.4450  0.7249
  242MOL0     H31886   5.111   1.406   9.060  0.9639 -0.0073  0.1774
  242MOL0     H31887   4.997   1.133   9.039  3.4972 -0.2765  2.3258
  242MOL0     H31888   4.908   1.262   9.129  1.7989 -1.4086  1.6047
  242MOL0     H31889   5.014   1.301   8.844  0.0830 -2.1297 -0.7224
  242MOL0     H31890   4.904   1.410   8.926 -1.9722 -0.9890  1.2129
  242MOL0     H31891   4.778   1.309   8.774 -0.4487 -1.8038 -0.2614
  242MOL0     H31892   4.725   1.242   8.921 -0.5405 -0.3186  0.6731
  242MOL0     H31893   4.931   1.064   8.763 -0.8660  0.7445 -1.1884
  242MOL0     H31894   4.803   1.020   8.880  1.8681 -0.9486  0.5335
  242MOL0     H31895   4.781   0.963   8.628  2.7696  1.2559 -1.5652
  242MOL0     H31896   4.768   1.128   8.607 -0.1120  0.0979  1.2674
  242MOL0     H31897   4.608   0.862   8.817  0.7634  1.0821  1.8017
  242MOL0     H31898   4.371   0.738   8.814 -1.6670 -3.0076  6.4638
  242MOL0     H31899   4.230   0.849   8.785 -0.0904  1.3597  0.0533
  242MOL0     H31900   4.278   0.938   9.021 -0.0116 -0.3504  2.0259
  242MOL0     H31901   4.416   0.832   9.038  1.0380  0.1886 -0.3103
  242MOL0     H31902   4.141   0.712   9.002 -0.7424  0.2153  2.2151
  242MOL0     H31903   4.293   0.629   9.030  2.2089  0.2118  2.2942
  242MOL0     H31904   4.128   0.819   9.214  0.0061 -1.2279  1.4679
  242MOL0     H31905   4.294   0.755   9.251  0.7315 -0.4190 -1.5331
  242MOL0     H31906   3.911   0.779   9.248 -0.8168 -2.6039 -1.6408
  242MOL0     H31907   3.740   0.759   9.428 -0.7506  0.1001  3.3461
  242MOL0     H31908   3.377   0.516   9.511  2.1025  2.8798 -0.3836
  242MOL0     H31909   3.166   0.460   9.661  0.3607 -3.9854  2.8519
  242MOL0     H31910   3.084   0.337   9.869  0.1537 -0.4231  1.0790
  242MOL0     H31911   2.993   0.485   9.811  0.0641  0.5925  0.1848
  242MOL0     H31912   2.925   0.528  10.031 -1.2482 -1.0351 -0.4193
  242MOL0     H31913   2.989   0.375  10.096 -3.3563 -0.7698  0.6165
  242MOL0     H31914   2.814   0.263   9.963  3.1053  1.0755  0.0106
  242MOL0     H31915   2.763   0.417   9.892  1.1592  0.3208 -0.2874
  242MOL0     H31916   2.784   0.356  10.192 -1.4308 -1.8325  0.8566
  242MOL0     H31917   2.716   0.502  10.122  0.9324 -0.1123 -0.9212
  242MOL0     H31918   2.564   0.378  10.218 -0.5242  2.8293 -1.2763
  242MOL0     H31919   2.597   0.231  10.124  2.0428 -0.6649  0.1058
  242MOL0     H31920   2.526   0.391   9.912 -1.3777  1.5182 -0.9705
  242MOL0     H31921   2.511   0.513  10.045 -0.8671 -0.2411  1.4003
  242MOL0     H31922   2.341   0.263  10.029  0.1698  0.2474  1.9320
  242MOL0     H31923   2.315   0.411  10.118 -0.2143  2.3315 -0.3122
  242MOL0     H31924   2.291   0.526   9.902 -2.4195  0.2203  2.2170
  242MOL0     H31925   2.174   0.403   9.940  1.2078 -0.8421  1.1758
  242MOL0     H31926   3.405   0.604   9.999  1.8713 -1.1006  0.1782
  242MOL0     H31927   3.588   0.635   9.846 -1.3685 -0.2976  2.9470
  242MOL0     H31928   3.914   0.383   9.561  0.0225 -0.7295 -2.1071
  242MOL0     H31929   4.089   0.408   9.389  1.4002  0.4899 -1.0773
  242MOL0     H31930   5.418   1.512   9.470  0.0698  1.2505 -0.4292
  242MOL0     H31931   5.662   1.567   9.490  1.2631 -0.6480 -0.8147
  242MOL0     H31932   6.117   1.439   9.210 -0.4753  0.1289  0.4497
  242MOL0     H31933   6.352   1.487   9.236  0.8561 -1.9089  1.3968
  242MOL0     H31934   6.634   1.661   9.396  0.4518  0.0778  0.3167
  242MOL0     H31935   6.513   1.631   9.273 -1.5817 -0.6928  1.9896
  242MOL0     H31936   6.577   1.385   9.277  0.9574 -1.0182  0.7006
  242MOL0     H31937   6.717   1.478   9.255  2.1348 -0.7039  2.1932
  242MOL0     H31938   6.635   1.367   9.522 -2.3890  0.5840 -2.4945
  242MOL0     H31939   6.767   1.468   9.497  1.5320 -0.6572  1.1364
  242MOL0     H31940   6.822   1.219   9.501  1.0305  3.2874  1.2617
  242MOL0     H31941   6.729   1.211   9.352  1.3312 -1.0042 -0.2523
  242MOL0     H31942   7.121   1.356   9.240  0.6673 -2.9530 -0.4871
  242MOL0     H31943   6.272   1.563   9.661 -2.4121 -2.2046  1.7813
  242MOL0     H31944   6.054   1.475   9.628  1.6480 -1.4966 -0.1222
  243MOL0     O31945   2.277   1.777   2.023  0.7124 -0.1800 -0.1423
  243MOL0     C31946   2.246   1.809   1.903  0.4298  0.0903  0.2125
  243MOL0     O31947   2.150   1.744   1.823 -0.0498 -0.8141  0.6768
  243MOL0     C31948   2.070   1.647   1.886  1.1956 -0.2809  0.5931
  243MOL0     C31949   2.125   1.545   1.973  0.4398 -0.1020  0.0200
  243MOL0     C31950   2.053   1.435   2.013  0.1184 -0.6847  0.1219
  243MOL0     C31951   1.917   1.426   1.977 -0.6779 -0.2290  0.2814
  243MOL0     O31952   1.850   1.321   2.032  0.0495 -0.0253 -0.3053
  243MOL0     C31953   1.802   1.238   1.923  0.2163 -0.3819 -0.1299
  243MOL0     C31954   1.718   1.122   1.979  0.1508  0.2798 -1.0617
  243MOL0     C31955   1.662   1.042   1.866  0.0969 -0.5068  0.1207
  243MOL0     C31956   1.749   1.002   1.748 -0.0834  0.3243  0.0427
  243MOL0     C31957   1.681   0.901   1.648  1.7330 -0.3251  0.3847
  243MOL0     C31958   1.795   0.845   1.550  0.0549  0.3734  0.0437
  243MOL0     C31959   1.914   0.781   1.606  0.0593 -0.2543 -0.4737
  243MOL0     C31960   1.882   0.663   1.699  0.0205 -0.3942  0.3523
  243MOL0     N31961   2.006   0.616   1.759  0.9960  0.2837 -0.1810
  243MOL0     C31962   2.116   0.596   1.691  0.1375 -0.3197 -0.4070
  243MOL0     C31963   2.208   0.543   1.773 -0.2281 -0.6841  0.0933
  243MOL0     C31964   2.341   0.483   1.722  0.6602  0.4166  0.1945
  243MOL0     C31965   2.453   0.485   1.830  0.5353  0.7033  0.9184
  243MOL0     C31966   2.535   0.618   1.841 -0.4732 -0.7356  0.6022
  243MOL0     C31967   2.640   0.608   1.951  0.7610 -0.4084  0.1807
  243MOL0     O31968   2.695   0.744   1.959  0.4625 -0.2396  0.1114
  243MOL0     C31969   2.814   0.729   2.012 -0.2090 -0.4017  0.5311
  243MOL0     C31970   2.918   0.696   1.932 -0.2271 -0.6762  0.5145
  243MOL0     C31971   3.049   0.682   1.984  1.0743  0.5656 -0.3027
  243MOL0     C31972   3.069   0.715   2.121 -0.0044 -0.4779  0.3077
  243MOL0     C31973   3.206   0.732   2.178 -0.7235  0.3577  0.4674
  243MOL0     O31974   3.218   0.735   2.309 -1.0057 -0.1509  0.1348
  243MOL0     C31975   3.344   0.710   2.366  0.5383 -1.0545 -0.8219
  243MOL0     C31976   3.405   0.590   2.366 -0.2607 -0.5762 -0.0416
  243MOL0     C31977   3.531   0.573   2.430 -0.4209  0.1801 -0.3959
  243MOL0     C31978   3.590   0.670   2.502  0.0634 -0.3584 -0.4576
  243MOL0     O31979   3.709   0.647   2.569  0.5816 -0.2928  0.1616
  243MOL0     C31980   3.806   0.571   2.491 -0.0533  0.3786  0.2765
  243MOL0     C31981   3.937   0.576   2.576  0.3049 -0.2384  1.0402
  243MOL0     C31982   4.049   0.469   2.533  0.3163 -0.5623 -0.9440
  243MOL0     C31983   4.109   0.519   2.402 -0.2178 -0.3567 -0.5701
  243MOL0     C31984   4.076   0.446   2.277  0.6302 -0.1631  0.5230
  243MOL0     C31985   4.092   0.534   2.141 -0.1733 -0.5123 -0.4074
  243MOL0     C31986   4.131   0.441   2.020 -0.6676  0.2683 -0.6439
  243MOL0     C31987   4.163   0.510   1.888 -0.7799  0.1503 -0.7195
  243MOL0    Cl31988   4.305   0.607   1.911 -0.1227  0.2783  0.5481
  243MOL0     C31989   3.531   0.798   2.498  0.7944 -0.5212 -1.6355
  243MOL0     C31990   3.404   0.822   2.436  0.6611  0.1143  0.4045
  243MOL0     O31991   3.300   0.725   2.101  0.1990 -0.2164  0.2219
  243MOL0     C31992   2.959   0.742   2.195 -0.6031 -0.0174 -0.4673
  243MOL0     C31993   2.837   0.747   2.145  0.4397  0.0846  0.0736
  243MOL0     N31994   2.152   0.547   1.900  0.5497 -0.4269  0.7613
  243MOL0     N31995   2.026   0.583   1.888  0.1703  0.2916 -1.0994
  243MOL0     C31996   1.853   1.520   1.889  0.5001  0.6001  0.3355
  243MOL0     C31997   1.930   1.630   1.845 -0.4157  0.0691 -0.6241
  243MOL0     C31998   2.348   1.897   1.831  0.0044  0.5457 -0.9284
  243MOL0     C31999   2.331   1.912   1.694  0.1294 -0.0042  0.0919
  243MOL0     C32000   2.411   2.007   1.627  0.6108 -0.2190 -0.0397
  243MOL0     C32001   2.496   2.094   1.697 -0.6042 -0.1797  0.3157
  243MOL0     O32002   2.567   2.193   1.632 -0.5061 -0.2939  0.1553
  243MOL0     C32003   2.647   2.163   1.513  0.0140  0.3400  0.2679
  243MOL0     C32004   2.738   2.275   1.493  0.0600  0.5807 -1.0944
  243MOL0     C32005   2.847   2.250   1.384 -0.2708 -0.7908  0.1498
  243MOL0     C32006   2.937   2.368   1.359 -0.6318  0.7959 -0.3398
  243MOL0     C32007   3.009   2.413   1.481 -0.2300  0.2020  1.2315
  243MOL0     C32008   3.068   2.437   1.590  0.6495 -0.5602  0.9247
  243MOL0     C32009   2.514   2.076   1.832  0.0950 -0.1531 -0.4961
  243MOL0     C32010   2.449   1.974   1.899  0.9865  0.6817  0.6523
  243MOL0     H32011   2.226   1.561   2.008  0.5003 -0.7804  0.1637
  243MOL0     H32012   2.100   1.364   2.080 -0.5002  1.5112  3.1116
  243MOL0     H32013   1.885   1.196   1.866 -0.0974 -2.9664  1.1870
  243MOL0     H32014   1.741   1.292   1.850  1.1495 -0.2442 -0.8282
  243MOL0     H32015   1.639   1.156   2.046  0.5786 -1.7226  0.5678
  243MOL0     H32016   1.792   1.073   2.043  0.2971  2.1783  0.3225
  243MOL0     H32017   1.570   1.090   1.830  2.0153  0.9956 -3.1421
  243MOL0     H32018   1.631   0.951   1.919  0.1621 -0.0760  0.9198
  243MOL0     H32019   1.802   1.081   1.694  3.0997 -0.8823  1.1816
  243MOL0     H32020   1.825   0.947   1.805 -1.8018 -2.1772  0.0990
  243MOL0     H32021   1.608   0.946   1.580  0.9740 -1.0314  0.7152
  243MOL0     H32022   1.628   0.820   1.699 -1.7769  1.7707  0.4246
  243MOL0     H32023   1.821   0.936   1.495 -2.0663  3.0933  3.1366
  243MOL0     H32024   1.759   0.783   1.467  1.5620  0.4063 -0.6672
  243MOL0     H32025   1.976   0.750   1.522  2.1513 -0.2448  0.9679
  243MOL0     H32026   1.980   0.845   1.666  0.0935 -1.4805  0.8755
  243MOL0     H32027   1.835   0.578   1.648  0.6430 -2.3190  2.7781
  243MOL0     H32028   1.813   0.699   1.776  0.5804  5.4148 -1.3644
  243MOL0     H32029   2.115   0.597   1.583  2.2746  3.0096 -0.5376
  243MOL0     H32030   2.375   0.546   1.639 -0.5766  2.6479  1.2839
  243MOL0     H32031   2.319   0.380   1.693 -0.9373  0.5941  0.7221
  243MOL0     H32032   2.520   0.405   1.798  2.1783  1.6404  1.8871
  243MOL0     H32033   2.423   0.461   1.932  2.5704 -0.7017  1.2347
  243MOL0     H32034   2.578   0.646   1.745 -3.7240  1.3457 -0.4253
  243MOL0     H32035   2.473   0.707   1.855  1.6721  0.7796  0.7780
  243MOL0     H32036   2.709   0.526   1.929  1.6938 -0.7959  3.9791
  243MOL0     H32037   2.575   0.576   2.033  0.2496  0.9521  0.3291
  243MOL0     H32038   2.924   0.681   1.824 -0.7117  1.8126  0.0681
  243MOL0     H32039   3.131   0.639   1.928  1.9700 -0.3647  1.6107
  243MOL0     H32040   3.364   0.512   2.303  2.0072 -0.4191 -1.8555
  243MOL0     H32041   3.575   0.474   2.429  0.4117  0.5383 -0.9351
  243MOL0     H32042   3.820   0.620   2.394 -1.0410 -1.4751 -0.8550
  243MOL0     H32043   3.774   0.468   2.469  0.9317  0.1012  0.0948
  243MOL0     H32044   3.913   0.555   2.681 -0.7516  3.6136  1.7238
  243MOL0     H32045   3.979   0.677   2.574  1.9215 -0.9084 -0.4829
  243MOL0     H32046   3.990   0.379   2.514  1.0811 -0.7359 -2.6108
  243MOL0     H32047   4.124   0.462   2.613  0.9730 -1.1263 -1.6023
  243MOL0     H32048   4.071   0.620   2.385 -1.3600 -0.5044  0.8863
  243MOL0     H32049   4.217   0.521   2.420 -0.0027 -4.8250 -0.3622
  243MOL0     H32050   3.974   0.407   2.281  0.6269 -0.1141  1.0824
  243MOL0     H32051   4.132   0.352   2.287  0.8624 -0.0190  0.6124
  243MOL0     H32052   4.167   0.610   2.165 -2.4736  0.7931  3.7208
  243MOL0     H32053   4.012   0.603   2.115  0.3273 -0.1105 -0.9201
  243MOL0     H32054   4.214   0.375   2.048 -0.6342  0.2733 -0.7333
  243MOL0     H32055   4.046   0.374   2.004  0.2246 -0.5086 -2.2939
  243MOL0     H32056   4.088   0.581   1.852  1.3427  0.7507 -4.4781
  243MOL0     H32057   4.165   0.431   1.812 -1.7660 -1.6095  0.9995
  243MOL0     H32058   3.553   0.894   2.544  2.4626 -1.3290 -0.6477
  243MOL0     H32059   3.380   0.928   2.434 -3.8184 -0.7127 -0.9557
  243MOL0     H32060   2.985   0.766   2.298  1.4893  3.0787 -1.5547
  243MOL0     H32061   2.753   0.777   2.206 -1.9041  0.3828 -3.0256
  243MOL0     H32062   1.754   1.515   1.846  1.8539  0.5263 -3.0957
  243MOL0     H32063   1.881   1.708   1.787 -1.5196  1.9596  2.5522
  243MOL0     H32064   2.256   1.861   1.634 -0.5624 -0.8992  1.6683
  243MOL0     H32065   2.377   2.017   1.524 -1.1619 -1.5919  0.3667
  243MOL0     H32066   2.578   2.158   1.429 -3.0333  1.4976  2.5312
  243MOL0     H32067   2.706   2.070   1.519 -0.0573  0.3631  3.2637
  243MOL0     H32068   2.683   2.362   1.456 -1.6944 -0.4222 -0.9818
  243MOL0     H32069   2.785   2.287   1.591 -0.6016 -2.0230 -0.3788
  243MOL0     H32070   2.802   2.219   1.289  1.5320 -0.1513 -0.9600
  243MOL0     H32071   2.910   2.167   1.417 -1.2520 -1.1341  1.2238
  243MOL0     H32072   3.019   2.331   1.296  2.6712 -0.6105  4.2461
  243MOL0     H32073   2.882   2.451   1.313 -2.1480  0.4460  0.7746
  243MOL0     H32074   3.124   2.485   1.668 -0.3913 -1.9675  2.5981
  243MOL0     H32075   2.602   2.120   1.877 -0.5992 -0.9367  1.7409
  243MOL0     H32076   2.482   1.953   2.000  2.5591 -1.4653 -0.2182
  244MOL0     O32077   5.659   3.557   2.342 -0.1183 -0.4000 -0.6100
  244MOL0     C32078   5.588   3.460   2.379  0.5342  0.5206  0.8974
  244MOL0     O32079   5.635   3.345   2.448  0.2139  0.5907  0.7224
  244MOL0     C32080   5.770   3.332   2.470 -0.2193 -0.3166  0.0290
  244MOL0     C32081   5.842   3.226   2.413 -0.6353  0.1901  0.3256
  244MOL0     C32082   5.983   3.227   2.411 -0.1904  0.2011  0.9693
  244MOL0     C32083   6.057   3.324   2.468 -0.1208  1.0824 -0.5326
  244MOL0     O32084   6.196   3.315   2.458  0.3280  0.5086 -0.3765
  244MOL0     C32085   6.283   3.415   2.524  0.6087  0.4217  0.7630
  244MOL0     C32086   6.423   3.359   2.527 -0.4210  0.8830  0.5858
  244MOL0     C32087   6.504   3.436   2.621  0.5074 -0.7723 -0.0405
  244MOL0     C32088   6.649   3.394   2.649  0.0649 -0.6166  0.5248
  244MOL0     C32089   6.708   3.467   2.774  1.1746 -0.1513 -0.1716
  244MOL0     C32090   6.809   3.381   2.846  0.2211 -0.0405 -0.2029
  244MOL0     C32091   6.886   3.444   2.959 -0.0457 -0.8475  0.2928
  244MOL0     C32092   6.994   3.537   2.918  0.1386  0.1353 -0.2671
  244MOL0     N32093   7.117   3.458   2.906  0.1371 -0.2717  0.6637
  244MOL0     C32094   7.201   3.422   3.010 -0.9175  0.2521  0.3665
  244MOL0     C32095   7.275   3.323   2.959 -0.7162  0.1343  0.0653
  244MOL0     C32096   7.373   3.236   3.032 -0.1509  0.4656  0.8677
  244MOL0     C32097   7.418   3.119   2.944  0.3263  0.8523 -0.0271
  244MOL0     C32098   7.536   3.044   3.009 -0.1577  0.2777 -0.7263
  244MOL0     C32099   7.512   2.998   3.156  0.7542 -0.4007 -0.4752
  244MOL0     O32100   7.580   2.877   3.199  1.5930 -0.1190  0.0423
  244MOL0     C32101   7.520   2.763   3.165 -0.4913 -0.3760 -0.0253
  244MOL0     C32102   7.601   2.647   3.136 -0.6983 -0.1028  1.0989
  244MOL0     C32103   7.555   2.537   3.071  0.6368  0.0268  0.0894
  244MOL0     C32104   7.415   2.521   3.053  0.3094 -0.4422  0.5982
  244MOL0     C32105   7.363   2.397   3.001  0.5780  0.5419 -0.3186
  244MOL0     O32106   7.437   2.328   2.895  0.1955 -0.7312 -0.0897
  244MOL0     C32107   7.369   2.225   2.837  0.4509  0.2847  0.2131
  244MOL0     C32108   7.314   2.248   2.716  0.3886 -0.4714 -0.4722
  244MOL0     C32109   7.239   2.147   2.642  0.5005  1.1408 -0.8165
  244MOL0     C32110   7.241   2.015   2.687 -0.5663 -0.4134 -0.3655
  244MOL0     O32111   7.181   1.903   2.637 -0.1805 -0.4146  0.1079
  244MOL0     C32112   7.082   1.919   2.539 -0.0326  0.4836 -1.5920
  244MOL0     C32113   7.135   1.925   2.396 -0.1491 -1.0054 -0.1657
  244MOL0     C32114   7.171   1.783   2.346 -0.2784 -0.4967  0.8353
  244MOL0     C32115   7.232   1.781   2.201 -0.0679  0.0320  0.2057
  244MOL0     C32116   7.142   1.837   2.105  0.2893 -0.9321  0.1838
  244MOL0     C32117   7.171   1.820   1.948  0.2339  0.2876  0.3197
  244MOL0     C32118   7.310   1.895   1.906 -0.0015 -0.2520 -0.1553
  244MOL0     C32119   7.377   1.814   1.787 -0.2531  0.4721 -0.0115
  244MOL0    Cl32120   7.270   1.787   1.645 -0.2910  0.2280 -0.4724
  244MOL0     C32121   7.302   1.993   2.810 -0.0406  0.2075 -0.6793
  244MOL0     C32122   7.371   2.094   2.884 -0.4731  0.5392  0.2373
  244MOL0     O32123   7.254   2.362   3.057  0.7076 -0.5964 -0.2709
  244MOL0     C32124   7.331   2.626   3.082  0.2252  1.0654 -0.3449
  244MOL0     C32125   7.375   2.743   3.142 -0.0018  0.1275  0.7723
  244MOL0     N32126   7.244   3.305   2.825 -0.1311 -0.3561 -0.3163
  244MOL0     N32127   7.150   3.385   2.793  0.1688  0.2724  1.3868
  244MOL0     C32128   5.985   3.435   2.525  0.2778  0.8533  0.2450
  244MOL0     C32129   5.849   3.430   2.528  0.2178  0.7603 -0.8147
  244MOL0     C32130   5.444   3.470   2.332 -0.4149  0.0336 -0.2672
  244MOL0     C32131   5.357   3.371   2.365  0.1771  1.1327  0.3532
  244MOL0     C32132   5.218   3.377   2.346  0.5869 -0.5302  0.3474
  244MOL0     C32133   5.169   3.490   2.272  0.0056  0.7869 -0.0034
  244MOL0     O32134   5.038   3.531   2.266  0.0797  0.3568 -0.3294
  244MOL0     C32135   4.941   3.454   2.333  0.9310 -0.2355  0.9535
  244MOL0     C32136   4.817   3.540   2.347  0.0396  0.6159 -0.1006
  244MOL0     C32137   4.725   3.484   2.453 -0.0320  0.7925  0.0665
  244MOL0     C32138   4.580   3.524   2.446  0.5130 -0.5124 -0.4155
  244MOL0     C32139   4.521   3.495   2.579  0.1546 -0.0484 -0.1425
  244MOL0     C32140   4.479   3.470   2.693 -0.5697  0.3735 -0.7021
  244MOL0     C32141   5.254   3.582   2.226 -1.0268  1.0037  0.5980
  244MOL0     C32142   5.389   3.580   2.267 -0.1497 -0.0273  0.1482
  244MOL0     H32143   5.786   3.156   2.352  1.5471 -0.8339 -0.6123
  244MOL0     H32144   6.027   3.134   2.375 -0.6064  0.6325 -0.7028
  244MOL0     H32145   6.247   3.435   2.626  2.1648  2.2687  1.0002
  244MOL0     H32146   6.279   3.508   2.467  0.3037 -1.0393 -1.7159
  244MOL0     H32147   6.478   3.358   2.432  1.0192 -0.1513  1.3976
  244MOL0     H32148   6.430   3.255   2.562  1.6975  1.2814  1.4680
  244MOL0     H32149   6.444   3.429   2.712 -0.4194  0.4828 -0.5349
  244MOL0     H32150   6.503   3.537   2.579  4.6372 -1.0846 -1.3359
  244MOL0     H32151   6.658   3.285   2.656 -4.0621 -1.1383  0.0437
  244MOL0     H32152   6.692   3.431   2.555 -2.6055  1.5335 -0.0008
  244MOL0     H32153   6.624   3.466   2.844 -0.9002 -0.1800 -2.5201
  244MOL0     H32154   6.742   3.567   2.745 -2.3108  1.1471 -0.2520
  244MOL0     H32155   6.877   3.323   2.783 -0.3668 -1.1621  0.1665
  244MOL0     H32156   6.762   3.293   2.891  0.2432  1.7298  3.6207
  244MOL0     H32157   6.818   3.500   3.025  0.7452 -0.1201  0.5036
  244MOL0     H32158   6.933   3.364   3.017  1.2068 -0.0473  0.4131
  244MOL0     H32159   6.993   3.620   2.989  0.1749 -2.7931  3.4717
  244MOL0     H32160   6.967   3.580   2.821 -3.2017 -1.0786 -0.0214
  244MOL0     H32161   7.201   3.458   3.112  1.8648  0.8764  0.2299
  244MOL0     H32162   7.326   3.193   3.121 -0.6815 -1.2102 -0.1764
  244MOL0     H32163   7.463   3.286   3.069  1.3067 -2.6051  1.8187
  244MOL0     H32164   7.464   3.161   2.854  0.1611  0.9159 -0.0837
  244MOL0     H32165   7.332   3.053   2.926  0.0377  0.5025  2.3705
  244MOL0     H32166   7.549   2.949   2.956 -0.4077 -0.4064  0.4108
  244MOL0     H32167   7.631   3.098   3.009 -0.6470  1.1552 -0.9911
  244MOL0     H32168   7.406   2.983   3.178  0.4307  1.2721 -0.7937
  244MOL0     H32169   7.539   3.085   3.216 -0.7735  0.8648 -1.5228
  244MOL0     H32170   7.704   2.674   3.156 -0.6149 -0.2066  0.8110
  244MOL0     H32171   7.615   2.447   3.060  2.5498  0.8299  2.8572
  244MOL0     H32172   7.320   2.345   2.670  0.1817 -1.1209 -1.9032
  244MOL0     H32173   7.189   2.177   2.551  1.4673  1.9712 -1.0971
  244MOL0     H32174   7.023   2.008   2.561  1.4065  1.2027 -0.5073
  244MOL0     H32175   7.005   1.843   2.552 -0.7274  1.6712  2.5725
  244MOL0     H32176   7.224   1.987   2.404 -0.7927 -0.0650 -0.0334
  244MOL0     H32177   7.055   1.979   2.343  2.4157  2.8474 -0.5032
  244MOL0     H32178   7.092   1.707   2.353 -0.5989 -0.4570 -1.5893
  244MOL0     H32179   7.255   1.748   2.407  0.2944  0.1326  0.4152
  244MOL0     H32180   7.320   1.846   2.198 -1.3455  1.9135  1.3777
  244MOL0     H32181   7.257   1.679   2.172  1.3690  1.0134 -2.3392
  244MOL0     H32182   7.139   1.944   2.126 -0.9846 -1.0400  0.6612
  244MOL0     H32183   7.044   1.794   2.129 -0.2763  0.5909  0.7590
  244MOL0     H32184   7.081   1.848   1.893 -0.3586  0.5649  1.4069
  244MOL0     H32185   7.187   1.719   1.909 -2.4031  1.1643 -3.6047
  244MOL0     H32186   7.288   1.992   1.860 -0.2893 -1.1033 -1.9222
  244MOL0     H32187   7.371   1.893   1.996  1.9164 -1.9969 -1.3991
  244MOL0     H32188   7.416   1.723   1.834 -0.5504  1.3325  2.0075
  244MOL0     H32189   7.469   1.860   1.750  0.3898 -1.4139 -0.8920
  244MOL0     H32190   7.311   1.891   2.846  0.4506 -0.5088 -2.6783
  244MOL0     H32191   7.436   2.078   2.969  1.9487 -1.2833 -1.8016
  244MOL0     H32192   7.224   2.612   3.065  0.5516  0.4969 -2.1433
  244MOL0     H32193   7.297   2.819   3.146  1.0437  1.5589 -2.6024
  244MOL0     H32194   6.030   3.530   2.552 -1.8813  1.6770  1.1963
  244MOL0     H32195   5.802   3.519   2.569 -0.0752 -0.6732  2.2108
  244MOL0     H32196   5.398   3.284   2.415  2.6857  0.6541 -2.2612
  244MOL0     H32197   5.157   3.300   2.390  0.5957 -2.0747 -2.1419
  244MOL0     H32198   4.980   3.449   2.436 -1.0941 -0.5379  1.7507
  244MOL0     H32199   4.921   3.358   2.286 -4.3242  1.9522 -2.1906
  244MOL0     H32200   4.842   3.638   2.389 -1.7070  1.4649 -0.9530
  244MOL0     H32201   4.755   3.549   2.258 -2.4056 -4.6861  0.6614
  244MOL0     H32202   4.762   3.518   2.550  2.5432 -0.7929 -0.2556
  244MOL0     H32203   4.729   3.375   2.448 -1.4115  0.7655 -2.7141
  244MOL0     H32204   4.561   3.628   2.420  3.4460  0.4901  0.9941
  244MOL0     H32205   4.534   3.475   2.360 -1.0040  0.8174 -0.4158
  244MOL0     H32206   4.431   3.440   2.784 -0.5838 -0.7694 -1.0711
  244MOL0     H32207   5.226   3.666   2.163  0.2006  1.0488  0.0735
  244MOL0     H32208   5.460   3.648   2.222 -1.0046  0.4500 -0.5117
  245MOL0     O32209   4.603   1.092   5.591 -0.6912  0.5450 -0.0148
  245MOL0     C32210   4.516   1.025   5.536  0.5631 -0.0366  0.8330
  245MOL0     O32211   4.380   1.018   5.572 -0.8675  0.5712  0.6042
  245MOL0     C32212   4.331   1.098   5.669  0.4252  0.3663 -0.1515
  245MOL0     C32213   4.242   1.024   5.750 -0.0406 -0.7841  1.0914
  245MOL0     C32214   4.183   1.092   5.860 -0.3941  0.6604 -0.3861
  245MOL0     C32215   4.218   1.218   5.890  1.5601 -0.6464  0.5587
  245MOL0     O32216   4.149   1.278   5.986  0.0704  0.4491 -0.7346
  245MOL0     C32217   4.202   1.288   6.121  0.9531  0.0067  0.2268
  245MOL0     C32218   4.100   1.374   6.200  0.9754 -0.5017 -0.6763
  245MOL0     C32219   4.086   1.531   6.157  0.3326 -0.5461 -0.3061
  245MOL0     C32220   3.969   1.597   6.222 -0.1543 -0.6552  0.8046
  245MOL0     C32221   3.975   1.749   6.176 -0.5061 -0.0938 -0.9671
  245MOL0     C32222   3.867   1.838   6.237 -0.2594 -0.3577 -0.0402
  245MOL0     C32223   3.842   1.975   6.161  0.1255  0.4216 -0.0238
  245MOL0     C32224   3.723   2.055   6.212  0.0812 -0.6571 -0.2194
  245MOL0     N32225   3.712   2.184   6.131 -0.2520 -0.3833  0.3835
  245MOL0     C32226   3.673   2.156   6.006  0.8706  0.4667  0.5669
  245MOL0     C32227   3.724   2.266   5.936  0.4298  0.4230 -0.5203
  245MOL0     C32228   3.704   2.273   5.785 -0.2464  0.2380  0.4281
  245MOL0     C32229   3.700   2.138   5.706 -0.9568 -0.1085 -0.6425
  245MOL0     C32230   3.583   2.131   5.609 -0.0430 -1.0921 -0.2314
  245MOL0     C32231   3.456   2.129   5.692  0.1489  0.4937 -0.1489
  245MOL0     O32232   3.352   2.120   5.595 -0.5387  0.0187  0.5537
  245MOL0     C32233   3.231   2.068   5.638 -0.7751 -1.1593  0.4384
  245MOL0     C32234   3.137   2.066   5.538  0.4371  0.6766 -0.2925
  245MOL0     C32235   3.007   2.021   5.564 -0.2312 -0.1631 -0.4489
  245MOL0     C32236   2.960   2.023   5.696 -0.3923 -0.0056 -0.1842
  245MOL0     C32237   2.817   1.990   5.728  0.4025  1.2014  0.3103
  245MOL0     O32238   2.775   2.005   5.862  0.1803  0.7792 -0.5681
  245MOL0     C32239   2.661   1.941   5.905  1.2012 -0.4150 -1.8184
  245MOL0     C32240   2.673   1.900   6.035 -0.4760  0.1786  1.2292
  245MOL0     C32241   2.558   1.841   6.093  0.7720  0.3885  0.0167
  245MOL0     C32242   2.432   1.817   6.025  0.4658 -0.5327 -0.3498
  245MOL0     O32243   2.342   1.753   6.107 -0.1055 -0.9583 -0.3395
  245MOL0     C32244   2.225   1.837   6.117 -0.4043  0.0488 -0.1432
  245MOL0     C32245   2.122   1.758   6.198 -1.1065 -0.2754 -0.4499
  245MOL0     C32246   1.982   1.812   6.208 -0.4831 -0.3199 -0.0697
  245MOL0     C32247   1.971   1.939   6.291 -0.4138  0.6758  0.9347
  245MOL0     C32248   1.826   1.985   6.312  0.1386 -1.0813 -0.3835
  245MOL0     C32249   1.746   2.030   6.186  0.4942  0.0112 -0.5318
  245MOL0     C32250   1.594   2.070   6.198  0.9502 -0.6224 -1.0428
  245MOL0     C32251   1.563   2.197   6.281  0.0402  0.2096  0.0668
  245MOL0    Cl32252   1.397   2.231   6.255 -0.5938  0.0887  0.5224
  245MOL0     C32253   2.421   1.855   5.890 -0.2490 -0.2282  0.6969
  245MOL0     C32254   2.535   1.912   5.829  0.2882 -0.1227 -0.0963
  245MOL0     O32255   2.757   1.924   5.641 -0.0796  0.1276  0.1925
  245MOL0     C32256   3.047   2.058   5.796  0.0097  0.3238  0.0805
  245MOL0     C32257   3.183   2.073   5.767 -0.7410  0.8409 -0.6899
  245MOL0     N32258   3.774   2.364   6.022  0.0947 -0.3844  0.0656
  245MOL0     N32259   3.779   2.300   6.137  0.0937 -0.0812  0.1347
  245MOL0     C32260   4.313   1.292   5.817  0.0918 -0.4363 -0.6073
  245MOL0     C32261   4.369   1.226   5.714 -0.1466 -0.0283  0.8914
  245MOL0     C32262   4.560   0.936   5.431  0.5350  0.0270  0.2390
  245MOL0     C32263   4.459   0.850   5.372  0.1845  0.6616 -1.4860
  245MOL0     C32264   4.498   0.755   5.283 -0.3468 -0.4023  0.4869
  245MOL0     C32265   4.631   0.735   5.237  0.1299  0.4121  0.3356
  245MOL0     O32266   4.653   0.649   5.137 -0.0812 -0.0256 -0.2826
  245MOL0     C32267   4.619   0.690   5.005 -0.3233 -0.3903 -0.0507
  245MOL0     C32268   4.498   0.612   4.966 -0.5697 -0.7858 -1.1190
  245MOL0     C32269   4.532   0.467   4.932 -0.2410 -0.0225  0.9349
  245MOL0     C32270   4.436   0.413   4.827 -0.1193 -0.6294  0.5994
  245MOL0     C32271   4.473   0.470   4.695 -0.5122  0.1215 -0.9015
  245MOL0     C32272   4.515   0.499   4.590  0.5611  0.4511  0.3334
  245MOL0     C32273   4.735   0.817   5.289  0.7029  0.4634  1.2070
  245MOL0     C32274   4.694   0.916   5.383  0.8546  0.2829  0.1397
  245MOL0     H32275   4.210   0.924   5.720 -0.4643  0.1414 -1.9018
  245MOL0     H32276   4.120   1.031   5.924 -0.4491 -1.9211 -2.7176
  245MOL0     H32277   4.299   1.337   6.114  1.4392 -1.1227 -4.2540
  245MOL0     H32278   4.196   1.192   6.173  1.3689  0.2191  0.6733
  245MOL0     H32279   4.130   1.363   6.305  0.8825  2.5739 -0.2420
  245MOL0     H32280   4.000   1.333   6.180  1.0069 -0.5161 -0.8009
  245MOL0     H32281   4.098   1.530   6.048  2.9306 -1.3611 -0.0685
  245MOL0     H32282   4.177   1.579   6.194 -1.2735  3.2740 -0.8908
  245MOL0     H32283   3.875   1.553   6.189 -1.1356  1.1838  0.9750
  245MOL0     H32284   3.969   1.592   6.331  0.3015  1.3689  0.9446
  245MOL0     H32285   3.976   1.759   6.067 -0.4764  6.3922 -0.7279
  245MOL0     H32286   4.069   1.799   6.203 -1.4285  0.6485  1.1357
  245MOL0     H32287   3.904   1.865   6.336  3.9425 -3.2973 -0.5694
  245MOL0     H32288   3.773   1.782   6.247  0.5289 -1.5062  1.1650
  245MOL0     H32289   3.932   2.035   6.176  0.0391  0.5751 -0.1257
  245MOL0     H32290   3.820   1.938   6.060 -1.2318 -0.4752  0.5717
  245MOL0     H32291   3.741   2.075   6.318  1.2330  0.5766 -0.6087
  245MOL0     H32292   3.627   2.006   6.198 -1.0671  1.1526  0.9173
  245MOL0     H32293   3.634   2.068   5.955 -1.6012  1.3977  0.7670
  245MOL0     H32294   3.792   2.323   5.744 -0.7807  1.3549  0.6165
  245MOL0     H32295   3.621   2.341   5.764 -1.5240 -1.3264  0.1805
  245MOL0     H32296   3.697   2.047   5.765  0.3175 -0.2836 -0.8026
  245MOL0     H32297   3.793   2.145   5.648 -0.7545  2.0073 -0.1372
  245MOL0     H32298   3.586   2.224   5.551  2.1561 -0.9361  0.0384
  245MOL0     H32299   3.585   2.048   5.538  2.5265  1.0039 -2.8740
  245MOL0     H32300   3.446   2.219   5.753  0.8317  1.7795 -1.8436
  245MOL0     H32301   3.463   2.048   5.765  0.3658  0.7722  0.1419
  245MOL0     H32302   3.173   2.065   5.435 -2.1138 -0.0472 -1.2650
  245MOL0     H32303   2.940   1.978   5.490 -2.0444  2.0546 -0.2171
  245MOL0     H32304   2.774   1.901   6.073 -0.7104 -0.2697  1.8959
  245MOL0     H32305   2.566   1.796   6.191 -0.9509  0.4393  0.2190
  245MOL0     H32306   2.186   1.853   6.016  1.9938  2.8686 -0.7514
  245MOL0     H32307   2.243   1.932   6.168 -0.9676  0.2267 -0.2673
  245MOL0     H32308   2.165   1.747   6.298  0.5825  2.1077 -0.8122
  245MOL0     H32309   2.122   1.659   6.153 -0.5738 -0.7685  0.6000
  245MOL0     H32310   1.924   1.736   6.261  0.8763 -0.6421  1.0039
  245MOL0     H32311   1.934   1.820   6.110 -2.3322  1.4401  0.9145
  245MOL0     H32312   2.020   1.928   6.388 -0.8229 -0.9973  0.9730
  245MOL0     H32313   2.015   2.021   6.234 -1.3207  0.8809  0.5113
  245MOL0     H32314   1.820   2.064   6.387  1.3611 -1.4027  0.0789
  245MOL0     H32315   1.772   1.899   6.354  1.1696 -0.7442  1.8116
  245MOL0     H32316   1.753   1.966   6.098 -0.9325 -1.8367  0.6411
  245MOL0     H32317   1.802   2.121   6.160 -0.4636 -0.0343 -2.9907
  245MOL0     H32318   1.554   2.090   6.098  3.7285 -0.8992 -2.2857
  245MOL0     H32319   1.530   1.989   6.235  0.1137  0.8324  0.8341
  245MOL0     H32320   1.620   2.288   6.258  0.4568  0.2306  1.1099
  245MOL0     H32321   1.583   2.180   6.387  0.4476  1.5846  0.2250
  245MOL0     H32322   2.331   1.810   5.849 -1.5416  2.9453 -0.2258
  245MOL0     H32323   2.530   1.931   5.723 -0.8325  1.9955  0.2699
  245MOL0     H32324   3.013   2.062   5.899  1.2564 -1.6533  0.6279
  245MOL0     H32325   3.238   2.097   5.858 -2.4600  1.5150  0.2022
  245MOL0     H32326   4.338   1.395   5.840  0.1078 -0.7379  0.7918
  245MOL0     H32327   4.455   1.276   5.671  0.4868 -0.7675  1.2665
  245MOL0     H32328   4.354   0.850   5.401  1.1283 -0.5124  2.6467
  245MOL0     H32329   4.424   0.682   5.249  0.3632 -0.2836 -1.4085
  245MOL0     H32330   4.707   0.680   4.941  1.1927 -2.6877  2.1946
  245MOL0     H32331   4.577   0.789   4.983  0.9736  0.1620 -0.1554
  245MOL0     H32332   4.418   0.613   5.040 -0.4815  4.3587 -0.6941
  245MOL0     H32333   4.462   0.659   4.873 -1.3601 -0.1667 -0.5121
  245MOL0     H32334   4.525   0.409   5.025 -2.1290 -0.7178  0.4009
  245MOL0     H32335   4.630   0.469   4.883 -1.2865  0.0443 -1.2921
  245MOL0     H32336   4.451   0.306   4.812 -1.1954 -0.4456 -2.5857
  245MOL0     H32337   4.332   0.438   4.847 -0.3424 -1.6497  0.7466
  245MOL0     H32338   4.548   0.531   4.493 -0.9712 -2.9868 -1.4892
  245MOL0     H32339   4.832   0.820   5.241 -0.1151 -1.3857 -0.6907
  245MOL0     H32340   4.767   0.980   5.432 -0.7765  0.6108  2.2815
  246MOL0     O32341   1.502   7.681  10.887  0.3912  0.8513  0.2911
  246MOL0     C32342   1.517   7.625  10.779 -0.0638 -0.9964 -1.3519
  246MOL0     O32343   1.494   7.686  10.658 -0.4514  0.6449  0.0583
  246MOL0     C32344   1.407   7.792  10.660  0.1139  0.3959 -1.0156
  246MOL0     C32345   1.441   7.925  10.656 -0.3716  1.0372  0.3514
  246MOL0     C32346   1.349   8.032  10.666 -0.0314  0.0449 -0.1908
  246MOL0     C32347   1.207   8.002  10.695 -0.1931 -0.1496  0.3655
  246MOL0     O32348   1.127   8.111  10.698  0.6245 -0.0095  0.2289
  246MOL0     C32349   1.091   8.168  10.579 -0.0699  0.1684 -0.0816
  246MOL0     C32350   1.014   8.070  10.491 -0.2112  0.3039  0.2588
  246MOL0     C32351   0.886   8.032  10.567 -0.2749  0.5157  0.1366
  246MOL0     C32352   0.804   7.924  10.485  0.2686  0.2588  0.8352
  246MOL0     C32353   0.652   7.925  10.521 -0.3992 -0.9456  1.0335
  246MOL0     C32354   0.572   8.053  10.494  0.4334 -0.1382  0.5815
  246MOL0     C32355   0.601   8.101  10.349  0.5124  1.1918  0.2743
  246MOL0     C32356   0.492   8.191  10.299  0.4314  0.2846 -1.1663
  246MOL0     N32357   0.490   8.317  10.373  0.0959  0.1866 -0.1519
  246MOL0     C32358   0.600   8.395  10.406 -0.2010 -0.2627 -0.3509
  246MOL0     C32359   0.554   8.491  10.484  0.1531  0.1191  0.0816
  246MOL0     C32360   0.637   8.614  10.527 -0.4503  0.2177 -0.1177
  246MOL0     C32361   0.727   8.565  10.649  0.5444 -0.5094 -0.0685
  246MOL0     C32362   0.819   8.684  10.696  0.5179 -0.3887  0.4099
  246MOL0     C32363   0.898   8.763  10.588  0.2628 -0.0763 -0.4229
  246MOL0     O32364   0.969   8.680  10.492 -0.7616 -0.0899 -0.1141
  246MOL0     C32365   1.091   8.626  10.523 -0.8408  0.5560 -0.4045
  246MOL0     C32366   1.170   8.567  10.417 -0.2645 -0.3977 -0.1428
  246MOL0     C32367   1.283   8.493  10.450 -0.3998  0.0632 -0.6712
  246MOL0     C32368   1.337   8.480  10.580 -0.1147  0.8526  0.7612
  246MOL0     C32369   1.465   8.403  10.603 -0.2298 -0.2566 -0.0397
  246MOL0     O32370   1.498   8.295  10.531  0.2990 -0.7507 -0.0593
  246MOL0     C32371   1.619   8.235  10.551  0.1371  0.4335 -0.0752
  246MOL0     C32372   1.705   8.201  10.444  1.6226 -0.2592 -0.1639
  246MOL0     C32373   1.831   8.152  10.462 -0.9886 -0.2686  0.6688
  246MOL0     C32374   1.881   8.121  10.590  0.9280 -0.3275  0.7595
  246MOL0     O32375   1.993   8.057  10.600 -0.1499  0.4089  0.2484
  246MOL0     C32376   2.078   8.061  10.710 -0.1276 -0.2971  0.2836
  246MOL0     C32377   2.047   7.950  10.810 -0.0135  0.2729 -1.4497
  246MOL0     C32378   2.114   7.819  10.769 -0.4483 -1.1509 -0.5472
  246MOL0     C32379   2.051   7.701  10.837 -0.2417 -0.9430  0.2300
  246MOL0     C32380   2.130   7.565  10.835 -0.0743 -0.3486 -0.4996
  246MOL0     C32381   2.066   7.468  10.922  0.7443  0.6214 -0.3989
  246MOL0     C32382   1.963   7.367  10.864  0.1537 -0.2102 -0.4243
  246MOL0     C32383   2.022   7.263  10.777  0.5528 -0.0703 -0.9087
  246MOL0    Cl32384   2.129   7.161  10.867 -0.1601  0.0275 -0.2462
  246MOL0     C32385   1.802   8.154  10.698  0.3996 -0.2573  0.4565
  246MOL0     C32386   1.676   8.213  10.679 -0.0950 -0.1023 -0.1919
  246MOL0     O32387   1.536   8.452  10.691 -0.1668 -0.3055 -0.2873
  246MOL0     C32388   1.266   8.548  10.684 -0.8966 -0.4506 -0.1268
  246MOL0     C32389   1.159   8.622  10.644 -0.1319 -0.8838  0.5774
  246MOL0     N32390   0.419   8.467  10.497  0.9827 -0.1472 -0.1077
  246MOL0     N32391   0.381   8.364  10.433  0.4703 -1.1250 -0.3218
  246MOL0     C32392   1.170   7.867  10.708 -0.4125  0.3137  0.0295
  246MOL0     C32393   1.268   7.766  10.695  0.2259  0.0396  0.3871
  246MOL0     C32394   1.554   7.482  10.775 -0.8122 -0.7940  0.0795
  246MOL0     C32395   1.590   7.416  10.895 -0.1897  0.8919 -0.1452
  246MOL0     C32396   1.619   7.279  10.893  0.2290  0.0820 -0.4388
  246MOL0     C32397   1.611   7.198  10.778 -0.3647 -0.1585 -0.7303
  246MOL0     O32398   1.634   7.060  10.801 -0.3558  0.0295 -0.4264
  246MOL0     C32399   1.629   6.959  10.694  0.1818  0.2266  0.2400
  246MOL0     C32400   1.649   6.816  10.744  0.2785 -0.8562  1.0574
  246MOL0     C32401   1.796   6.806  10.795 -0.9280  0.4968  0.4131
  246MOL0     C32402   1.910   6.823  10.685 -0.3202  0.5177  0.1909
  246MOL0     C32403   1.990   6.705  10.688  0.4071  0.8783 -0.1448
  246MOL0     C32404   2.046   6.597  10.697  0.6546 -0.1741  0.6586
  246MOL0     C32405   1.572   7.259  10.661 -0.5354  0.8192 -0.4868
  246MOL0     C32406   1.538   7.400  10.657 -1.0353 -0.7607 -0.0658
  246MOL0     H32407   1.546   7.950  10.649  0.5567 -1.1811  3.7878
  246MOL0     H32408   1.369   8.139  10.658  2.0851 -0.2603  0.3925
  246MOL0     H32409   1.180   8.212  10.533  1.2788 -1.5338  0.7939
  246MOL0     H32410   1.026   8.255  10.595 -1.1316 -0.5596 -0.2976
  246MOL0     H32411   1.077   7.982  10.472 -0.4605 -0.3685  2.3227
  246MOL0     H32412   0.981   8.127  10.403 -3.4472  2.2171  2.4992
  246MOL0     H32413   0.837   8.129  10.559 -0.1445  0.5926  0.2740
  246MOL0     H32414   0.907   7.998  10.669 -2.5248 -1.0416  0.1618
  246MOL0     H32415   0.821   7.946  10.379  0.3914 -0.2532  0.7441
  246MOL0     H32416   0.850   7.827  10.505 -2.3262 -1.0071  0.9413
  246MOL0     H32417   0.630   7.887  10.621  2.2851  0.3973  2.2394
  246MOL0     H32418   0.616   7.854  10.446 -2.9823 -0.1970  1.4757
  246MOL0     H32419   0.592   8.131  10.568 -2.9339 -0.5736  2.1722
  246MOL0     H32420   0.467   8.025  10.507 -0.1473 -0.2205 -3.3105
  246MOL0     H32421   0.700   8.148  10.344  0.3683  1.3488 -2.0215
  246MOL0     H32422   0.600   8.022  10.274 -3.3361 -1.2463  2.5317
  246MOL0     H32423   0.401   8.132  10.313  2.0108 -2.1293 -0.4312
  246MOL0     H32424   0.508   8.216  10.194  0.3120  0.4153 -1.1525
  246MOL0     H32425   0.704   8.378  10.378  0.5689  0.4885  1.8404
  246MOL0     H32426   0.566   8.686  10.569 -0.6511  0.5042 -0.9380
  246MOL0     H32427   0.692   8.657  10.443  0.3751 -1.7547 -0.6563
  246MOL0     H32428   0.802   8.494  10.614 -0.8856 -1.5905 -1.0224
  246MOL0     H32429   0.661   8.512  10.718 -3.2802  3.2076 -0.4249
  246MOL0     H32430   0.752   8.757  10.743  0.7522 -0.1169  0.3276
  246MOL0     H32431   0.889   8.646  10.771 -0.3364 -1.0088  0.9081
  246MOL0     H32432   0.953   8.842  10.640 -0.5889 -0.7571  1.6403
  246MOL0     H32433   0.832   8.826  10.528 -0.4789 -0.8151 -0.4149
  246MOL0     H32434   1.138   8.575  10.314 -0.8945 -0.4776  0.0411
  246MOL0     H32435   1.334   8.442  10.369  1.6929 -1.9144  1.7448
  246MOL0     H32436   1.666   8.218  10.344 -0.8965 -4.7206 -0.2149
  246MOL0     H32437   1.880   8.108  10.376 -3.8375 -4.5889  0.9080
  246MOL0     H32438   2.086   8.164  10.745  1.9622 -0.2189 -0.2998
  246MOL0     H32439   2.182   8.051  10.678  0.6768  1.1781  2.2093
  246MOL0     H32440   1.942   7.923  10.823  1.1199 -4.2720  0.3666
  246MOL0     H32441   2.081   7.985  10.908 -2.2433  2.1709 -1.2904
  246MOL0     H32442   2.220   7.820  10.793 -0.2869  0.6702 -1.2098
  246MOL0     H32443   2.106   7.809  10.661  4.4088  0.2597 -1.2756
  246MOL0     H32444   2.042   7.725  10.943  0.8155 -6.1358  1.7804
  246MOL0     H32445   1.951   7.695  10.793 -0.8352 -0.7155  1.5042
  246MOL0     H32446   2.231   7.586  10.871 -0.1732  0.0764 -0.4649
  246MOL0     H32447   2.144   7.533  10.731  3.4476  1.4402 -0.7129
  246MOL0     H32448   2.014   7.529  10.997  0.4276 -2.2417  1.9317
  246MOL0     H32449   2.144   7.413  10.975  0.9281  1.2906  0.0371
  246MOL0     H32450   1.919   7.307  10.944  1.9103 -1.5423 -0.3831
  246MOL0     H32451   1.879   7.417  10.816 -0.5617 -2.2246 -1.3863
  246MOL0     H32452   2.075   7.320  10.700  0.1600  2.3120  0.4847
  246MOL0     H32453   1.950   7.204  10.719  1.3139 -0.3534 -1.5971
  246MOL0     H32454   1.838   8.141  10.799 -1.9563  2.0109  1.7046
  246MOL0     H32455   1.620   8.242  10.767  0.9575 -0.4886  0.6301
  246MOL0     H32456   1.320   8.549  10.779  0.6549  2.6844 -0.9237
  246MOL0     H32457   1.101   8.676  10.718 -1.1185 -1.0005 -0.0850
  246MOL0     H32458   1.066   7.848  10.731  0.1982  0.4299  3.3824
  246MOL0     H32459   1.233   7.663  10.702 -0.5570  0.3889  1.9798
  246MOL0     H32460   1.603   7.475  10.985 -0.1168 -0.8529  1.0177
  246MOL0     H32461   1.630   7.233  10.990  0.1739  1.4462  0.2310
  246MOL0     H32462   1.694   6.985  10.609 -1.2738 -1.6144 -1.5415
  246MOL0     H32463   1.532   6.974  10.646  0.3840 -0.4896 -0.4070
  246MOL0     H32464   1.567   6.780  10.807 -1.4159 -1.3282 -1.2737
  246MOL0     H32465   1.644   6.746  10.660  1.0884  0.6902 -0.3208
  246MOL0     H32466   1.799   6.707  10.842 -2.2402 -0.5105 -1.4693
  246MOL0     H32467   1.815   6.873  10.879 -0.5282  0.1934  0.5712
  246MOL0     H32468   1.871   6.846  10.585  3.0827  0.4233 -1.3033
  246MOL0     H32469   1.977   6.906  10.707 -1.4041  1.4873 -0.0612
  246MOL0     H32470   2.115   6.515  10.697  0.5405 -0.3022  2.4341
  246MOL0     H32471   1.564   7.205  10.567  0.1077 -2.0250  0.9547
  246MOL0     H32472   1.514   7.441  10.560  1.7524  1.4688  0.0584
  247MOL0     O32473  10.506   2.821   5.449 -0.8824 -0.1258  0.1685
  247MOL0     C32474  10.403   2.882   5.480 -0.3901  0.9046 -0.9719
  247MOL0     O32475  10.380   2.953   5.598 -0.3551  0.2393  0.3362
  247MOL0     C32476  10.477   2.973   5.696  0.1398  1.2404  0.0520
  247MOL0     C32477  10.488   3.095   5.760 -0.1513 -1.3275 -0.6932
  247MOL0     C32478  10.589   3.119   5.854 -0.4313  0.0054 -0.9923
  247MOL0     C32479  10.686   3.027   5.888 -0.2995  0.5439 -0.2614
  247MOL0     O32480  10.788   3.043   5.982  0.0591 -0.0278  0.1860
  247MOL0     C32481  10.814   3.170   6.019  0.6875 -0.3800  0.6271
  247MOL0     C32482  10.892   3.158   6.154  0.3801  0.0183  0.1357
  247MOL0     C32483  11.003   3.248   6.149 -0.3695  0.3197  0.2801
  247MOL0     C32484  10.967   3.391   6.176  0.5325 -0.0915  0.1602
  247MOL0     C32485  11.093   3.477   6.210  0.8694  0.5974  0.1527
  247MOL0     C32486  11.118   3.455   6.363 -0.6842 -0.4268 -0.2239
  247MOL0     C32487  11.241   3.542   6.391  1.1258 -0.4449  0.8131
  247MOL0     C32488  11.375   3.508   6.337  0.6050 -0.0957  0.2960
  247MOL0     N32489  11.495   3.595   6.361  0.9525 -0.2887  0.3784
  247MOL0     C32490  11.614   3.573   6.327 -0.5453  1.0247 -0.0666
  247MOL0     C32491  11.690   3.681   6.367 -0.1335 -1.2547 -0.7082
  247MOL0     C32492  11.848   3.696   6.361  0.5857 -0.7266 -1.1596
  247MOL0     C32493  11.908   3.696   6.507 -0.1672  0.4839  0.2904
  247MOL0     C32494  12.050   3.702   6.500 -1.1948 -0.2632 -0.1867
  247MOL0     C32495  12.115   3.740   6.642 -0.2342 -0.4610  0.0295
  247MOL0     O32496  12.246   3.792   6.616 -0.2809 -0.6292  0.6014
  247MOL0     C32497  12.346   3.749   6.702  0.1537 -0.3700 -0.5380
  247MOL0     C32498  12.321   3.713   6.835  0.7034 -0.7897 -0.0112
  247MOL0     C32499  12.425   3.657   6.903  0.3036 -0.7483 -0.1724
  247MOL0     C32500  12.558   3.638   6.857  0.1408 -0.3698  0.2618
  247MOL0     C32501  12.662   3.586   6.956 -0.4559  0.0209  1.3440
  247MOL0     O32502  12.634   3.565   7.091 -0.7124 -0.3246 -1.0432
  247MOL0     C32503  12.728   3.561   7.202 -0.7545 -0.8554  0.7300
  247MOL0     C32504  12.682   3.493   7.321 -0.0638 -0.3619  0.1272
  247MOL0     C32505  12.769   3.498   7.430 -0.3211  0.6112  0.6204
  247MOL0     C32506  12.879   3.586   7.439 -0.3195 -0.1343  0.0651
  247MOL0     O32507  12.961   3.607   7.550  0.3015  0.2896 -0.1262
  247MOL0     C32508  13.010   3.498   7.627  0.0405 -0.1128 -0.0711
  247MOL0     C32509  13.080   3.387   7.548 -0.3592 -0.1188 -0.4047
  247MOL0     C32510  13.111   3.282   7.648  0.2447 -0.6980 -0.0015
  247MOL0     C32511  13.174   3.160   7.584  0.1279  0.0881  0.2775
  247MOL0     C32512  13.183   3.046   7.693  0.0845 -0.2769 -0.7003
  247MOL0     C32513  13.202   2.913   7.626  0.7537  0.6200 -0.2748
  247MOL0     C32514  13.201   2.807   7.732 -0.1522  0.9452 -0.2260
  247MOL0     C32515  13.196   2.670   7.665  0.2678  0.1512  0.7498
  247MOL0    Cl32516  13.022   2.636   7.616 -0.1026 -0.1987  0.2976
  247MOL0     C32517  12.906   3.665   7.327 -0.9124 -0.1064  0.3973
  247MOL0     C32518  12.832   3.649   7.207 -0.3248 -0.5980 -0.8569
  247MOL0     O32519  12.777   3.585   6.902  0.1753 -0.5006  0.0149
  247MOL0     C32520  12.583   3.689   6.723 -1.2481 -0.4497 -1.1607
  247MOL0     C32521  12.479   3.737   6.648 -1.3662  0.6018 -0.2018
  247MOL0     N32522  11.602   3.777   6.416 -0.0564  0.3130  0.0811
  247MOL0     N32523  11.486   3.719   6.414 -0.1543  0.1039 -0.8825
  247MOL0     C32524  10.665   2.901   5.832 -0.2335 -0.3774  0.2136
  247MOL0     C32525  10.564   2.872   5.741 -0.8053  0.1307 -0.8174
  247MOL0     C32526  10.293   2.878   5.384 -0.2200 -0.3168 -0.1145
  247MOL0     C32527  10.294   2.793   5.271 -0.2556 -0.2725  0.0728
  247MOL0     C32528  10.178   2.779   5.201  0.2056 -0.2335 -0.5196
  247MOL0     C32529  10.054   2.840   5.226 -1.2371 -0.2743 -0.3836
  247MOL0     O32530   9.952   2.804   5.144 -0.1015  0.4870  0.6574
  247MOL0     C32531   9.816   2.854   5.151 -0.9370  0.0253  0.0702
  247MOL0     C32532   9.813   3.002   5.118  0.5574 -0.8011  0.3194
  247MOL0     C32533   9.817   3.029   4.962 -0.3088 -0.0746  0.3098
  247MOL0     C32534   9.823   3.176   4.946  0.6188  0.8406  0.6544
  247MOL0     C32535   9.814   3.230   4.813  0.5019 -0.1390  0.2676
  247MOL0     C32536   9.821   3.278   4.697  0.4987  0.0252 -0.0731
  247MOL0     C32537  10.055   2.922   5.332  0.1192 -0.7429 -0.5631
  247MOL0     C32538  10.167   2.947   5.407 -0.1554  0.6725 -0.0340
  247MOL0     H32539  10.421   3.180   5.744  1.3799 -0.4258 -2.9199
  247MOL0     H32540  10.592   3.220   5.894 -0.7684  0.5448 -2.2967
  247MOL0     H32541  10.723   3.226   6.039  0.6941 -0.3331  0.5320
  247MOL0     H32542  10.865   3.219   5.935 -2.9382 -0.6812 -1.9692
  247MOL0     H32543  10.917   3.052   6.155 -1.0867 -0.4819 -3.4282
  247MOL0     H32544  10.832   3.169   6.245 -2.4780  0.2901 -1.6566
  247MOL0     H32545  11.045   3.245   6.048 -2.3183 -1.5021 -0.5501
  247MOL0     H32546  11.085   3.217   6.215 -1.8151 -0.6283  1.7140
  247MOL0     H32547  10.915   3.440   6.092 -1.5186  1.6054  2.2856
  247MOL0     H32548  10.893   3.401   6.256 -0.4655  1.8561 -0.8953
  247MOL0     H32549  11.078   3.584   6.193  0.2361  0.0008 -3.9835
  247MOL0     H32550  11.181   3.439   6.156  0.7447 -0.0645  0.3958
  247MOL0     H32551  11.143   3.349   6.378 -3.2013 -1.0188  0.3329
  247MOL0     H32552  11.028   3.481   6.419 -1.2801 -0.2420 -1.2298
  247MOL0     H32553  11.211   3.644   6.364  0.4462 -0.6429  0.7938
  247MOL0     H32554  11.249   3.543   6.501  0.7757 -3.0472  0.9287
  247MOL0     H32555  11.373   3.511   6.227  3.3175 -0.4956  0.1419
  247MOL0     H32556  11.410   3.412   6.376 -2.2956 -0.5778  1.9750
  247MOL0     H32557  11.646   3.486   6.271  1.1123  1.3683  0.2694
  247MOL0     H32558  11.878   3.788   6.311  2.0306 -1.1193 -1.0365
  247MOL0     H32559  11.884   3.606   6.310  0.5079 -3.4387  3.0326
  247MOL0     H32560  11.885   3.604   6.561 -1.3471  1.2437  1.1557
  247MOL0     H32561  11.866   3.782   6.562 -1.6018  1.3066 -1.9679
  247MOL0     H32562  12.098   3.606   6.476  1.4743  0.8374  0.3778
  247MOL0     H32563  12.071   3.777   6.424  0.9573  0.0553  0.6444
  247MOL0     H32564  12.120   3.645   6.695  1.3714  0.1218  0.9658
  247MOL0     H32565  12.057   3.816   6.695  0.4978  0.0832  0.0478
  247MOL0     H32566  12.227   3.730   6.886  0.7898  0.5842 -0.2732
  247MOL0     H32567  12.397   3.646   7.008  0.1981  4.0182  0.5312
  247MOL0     H32568  12.599   3.423   7.315  0.4211 -0.8485 -1.9184
  247MOL0     H32569  12.746   3.437   7.518 -0.8617  1.2920  0.9582
  247MOL0     H32570  12.935   3.452   7.692 -0.9010 -1.7521 -2.1888
  247MOL0     H32571  13.090   3.544   7.686 -0.5435  1.6196 -0.5457
  247MOL0     H32572  13.167   3.429   7.496 -1.1061  2.8114  0.5320
  247MOL0     H32573  13.003   3.359   7.476 -1.5808  1.7777  0.0885
  247MOL0     H32574  13.026   3.252   7.709  0.3556  0.6903  0.8717
  247MOL0     H32575  13.184   3.323   7.718  0.4581  0.7472 -1.0342
  247MOL0     H32576  13.114   3.125   7.499 -2.4563 -0.3102  2.1458
  247MOL0     H32577  13.272   3.191   7.547 -0.2308 -0.8997 -1.6547
  247MOL0     H32578  13.087   3.033   7.743 -0.0348 -3.5947 -1.5421
  247MOL0     H32579  13.266   3.062   7.762 -0.5356 -1.0388  0.2459
  247MOL0     H32580  13.293   2.911   7.565  0.4329  1.3658 -0.7907
  247MOL0     H32581  13.117   2.894   7.559 -1.0225  0.1419  2.0179
  247MOL0     H32582  13.291   2.813   7.794  0.9432 -1.3507 -1.4356
  247MOL0     H32583  13.110   2.799   7.791 -0.6452 -1.4653 -1.2066
  247MOL0     H32584  13.229   2.590   7.732 -0.2564 -1.4701 -0.8379
  247MOL0     H32585  13.257   2.658   7.576 -2.0769 -2.3942 -0.6767
  247MOL0     H32586  12.989   3.735   7.323 -0.3878 -0.7795 -0.6786
  247MOL0     H32587  12.850   3.715   7.123  3.7016  0.6463  0.7340
  247MOL0     H32588  12.685   3.682   6.686 -0.5258  0.9544  0.4011
  247MOL0     H32589  12.503   3.760   6.545  3.7957 -0.8385  0.4158
  247MOL0     H32590  10.731   2.822   5.868 -1.3841  0.1576  3.8893
  247MOL0     H32591  10.565   2.773   5.697  1.5711 -1.6086  2.7305
  247MOL0     H32592  10.387   2.745   5.244 -0.8853 -1.7006  0.3743
  247MOL0     H32593  10.177   2.704   5.122  1.1183 -1.4307  0.5482
  247MOL0     H32594   9.769   2.847   5.250  2.8855  1.5637  2.2282
  247MOL0     H32595   9.760   2.789   5.084 -0.4307 -1.8063  1.3585
  247MOL0     H32596   9.712   3.028   5.150 -0.0023 -1.1397 -1.1264
  247MOL0     H32597   9.891   3.054   5.175 -1.3338  2.1844  0.3995
  247MOL0     H32598   9.734   2.988   4.904 -1.2481 -0.5191  1.9115
  247MOL0     H32599   9.911   2.986   4.927 -0.6662 -1.9298  1.5515
  247MOL0     H32600   9.747   3.222   5.011 -1.1499 -1.7115  0.5372
  247MOL0     H32601   9.921   3.208   4.982 -0.7280  5.2803  1.0417
  247MOL0     H32602   9.827   3.300   4.592 -2.9405 -1.1216 -0.6146
  247MOL0     H32603   9.956   2.957   5.358 -1.3452 -3.2680 -2.3070
  247MOL0     H32604  10.160   3.024   5.483 -0.1162  1.5661 -0.9222
  248MOL0     O32605  10.799   7.015   0.093 -0.6820  0.2574  0.4864
  248MOL0     C32606  10.879   6.963   0.006  0.1697  0.4955 -0.3541
  248MOL0     O32607  10.866   6.971  -0.126  0.2843 -0.5025 -0.9623
  248MOL0     C32608  10.762   7.042  -0.177 -1.3869 -0.1203 -0.4682
  248MOL0     C32609  10.777   7.178  -0.196 -0.2291 -0.4083 -0.1707
  248MOL0     C32610  10.659   7.244  -0.243  0.2234 -0.9551 -0.6352
  248MOL0     C32611  10.540   7.170  -0.266 -0.3801  0.0121 -0.5471
  248MOL0     O32612  10.418   7.236  -0.299 -0.5959  0.8009 -0.3778
  248MOL0     C32613  10.379   7.342  -0.211  1.0329 -0.7195  0.5240
  248MOL0     C32614  10.255   7.300  -0.132 -0.5192 -0.1880 -0.8083
  248MOL0     C32615  10.290   7.192  -0.025 -0.6636 -0.1684 -0.6074
  248MOL0     C32616  10.162   7.161   0.059 -0.4521 -0.2699 -0.0649
  248MOL0     C32617  10.200   7.052   0.167 -0.9461 -0.3223  0.4257
  248MOL0     C32618  10.100   6.942   0.200  0.5834  0.6731  0.1864
  248MOL0     C32619  10.020   6.954   0.327  0.1004  0.2527  0.2039
  248MOL0     C32620   9.940   7.084   0.337  0.8592 -0.5958  0.7205
  248MOL0     N32621   9.816   7.070   0.252  0.5606  0.1736  0.3484
  248MOL0     C32622   9.720   6.973   0.260  0.2411  0.1767 -0.2858
  248MOL0     C32623   9.629   6.981   0.166  0.1187 -0.0757  0.3165
  248MOL0     C32624   9.514   6.894   0.146  0.6392 -0.0966 -0.1891
  248MOL0     C32625   9.527   6.827   0.008  0.8262  0.8494  0.2633
  248MOL0     C32626   9.432   6.701  -0.002  0.0966 -0.1814  0.7608
  248MOL0     C32627   9.287   6.741  -0.022  0.3551  0.1272  0.0654
  248MOL0     O32628   9.184   6.631  -0.029 -0.6425  0.7144  0.5041
  248MOL0     C32629   9.063   6.661  -0.095 -0.2626 -0.1745  0.3513
  248MOL0     C32630   8.968   6.564  -0.106  0.0186 -0.1427  0.5860
  248MOL0     C32631   8.831   6.591  -0.136 -0.3871  0.4130 -0.9417
  248MOL0     C32632   8.792   6.717  -0.168 -0.5667  0.6659 -0.6886
  248MOL0     C32633   8.655   6.757  -0.194 -0.8819 -0.4373 -0.2921
  248MOL0     O32634   8.568   6.659  -0.229  0.4014 -0.5313  0.0654
  248MOL0     C32635   8.452   6.667  -0.308 -0.3109  0.0960 -0.2779
  248MOL0     C32636   8.411   6.782  -0.369  0.7314 -0.3321 -0.6947
  248MOL0     C32637   8.282   6.777  -0.433  0.3460 -0.4075  1.3634
  248MOL0     C32638   8.210   6.659  -0.448 -0.2633  0.3976  0.0758
  248MOL0     O32639   8.092   6.648  -0.512  0.0662  0.6251 -0.6500
  248MOL0     C32640   7.994   6.714  -0.425  0.0253  0.2094  0.0108
  248MOL0     C32641   7.871   6.722  -0.512 -0.5197  0.4762  0.5086
  248MOL0     C32642   7.762   6.764  -0.419 -0.6547  0.2409  0.2281
  248MOL0     C32643   7.638   6.800  -0.503 -0.8203 -0.1371  0.1160
  248MOL0     C32644   7.523   6.836  -0.419 -0.3731  0.0496  0.4574
  248MOL0     C32645   7.409   6.888  -0.501  0.5747 -0.3964  0.3471
  248MOL0     C32646   7.304   6.963  -0.411 -0.7210  0.4235  0.1229
  248MOL0     C32647   7.272   6.898  -0.280  0.4415 -0.0751 -0.6178
  248MOL0    Cl32648   7.204   6.734  -0.304  0.1682 -0.0300  0.0825
  248MOL0     C32649   8.261   6.550  -0.390 -0.5126  0.3999 -0.4335
  248MOL0     C32650   8.382   6.546  -0.320 -0.1188  0.4717 -0.6955
  248MOL0     O32651   8.628   6.882  -0.195 -0.1367  0.2879  0.0845
  248MOL0     C32652   8.894   6.816  -0.159 -0.0211  0.7154  0.1005
  248MOL0     C32653   9.025   6.791  -0.126 -0.2796  0.2950  0.1945
  248MOL0     N32654   9.669   7.089   0.094  0.1268  0.2289  0.6116
  248MOL0     N32655   9.775   7.143   0.141 -0.5628 -1.3064  0.4705
  248MOL0     C32656  10.535   7.030  -0.240 -0.0958  1.1696 -1.0396
  248MOL0     C32657  10.644   6.969  -0.197 -0.4266 -0.2835  0.7637
  248MOL0     C32658  10.990   6.890   0.062 -1.4337  0.3704 -0.4352
  248MOL0     C32659  11.020   6.896   0.203 -0.5929 -0.2993  0.7132
  248MOL0     C32660  11.127   6.810   0.253  0.4653  0.4585  0.0501
  248MOL0     C32661  11.206   6.740   0.169 -0.3822  0.0981 -0.0385
  248MOL0     O32662  11.310   6.657   0.213  0.2662  0.6238 -0.3506
  248MOL0     C32663  11.295   6.605   0.347 -0.3127  0.2691 -0.6937
  248MOL0     C32664  11.336   6.456   0.359  0.4257 -0.4263  0.7207
  248MOL0     C32665  11.288   6.368   0.242  1.0765 -0.4582 -0.5664
  248MOL0     C32666  11.334   6.223   0.253  0.0391  0.3686 -0.0270
  248MOL0     C32667  11.266   6.154   0.145  0.3207 -0.5917 -0.0003
  248MOL0     C32668  11.221   6.081   0.060  0.1099  0.4649 -1.0743
  248MOL0     C32669  11.189   6.744   0.028 -0.0917 -0.4058 -0.8617
  248MOL0     C32670  11.080   6.817  -0.018  0.3715 -0.3415 -0.0432
  248MOL0     H32671  10.876   7.220  -0.178  0.2251 -0.4361 -2.3230
  248MOL0     H32672  10.663   7.348  -0.273  2.3467 -0.9972 -0.6487
  248MOL0     H32673  10.344   7.417  -0.283  0.4099 -1.4678  0.0382
  248MOL0     H32674  10.453   7.382  -0.141  0.7514 -1.5351  1.3046
  248MOL0     H32675  10.175   7.266  -0.198 -0.7221 -0.4455 -0.4360
  248MOL0     H32676  10.212   7.386  -0.081  1.4485  0.1347  0.4279
  248MOL0     H32677  10.362   7.239   0.043 -1.1171  3.3477 -2.3208
  248MOL0     H32678  10.333   7.103  -0.072  0.4801  2.0009 -4.0169
  248MOL0     H32679  10.126   7.255   0.102 -0.5572  0.7235 -2.1814
  248MOL0     H32680  10.095   7.123  -0.018  1.2892 -3.3160 -0.2472
  248MOL0     H32681  10.226   7.089   0.267 -0.3719 -0.3679  0.2995
  248MOL0     H32682  10.287   6.999   0.125  0.4879  2.3424 -0.1782
  248MOL0     H32683  10.167   6.856   0.205 -1.2436 -1.0511 -2.6371
  248MOL0     H32684  10.046   6.919   0.108  2.5458  0.8025 -1.0625
  248MOL0     H32685   9.952   6.871   0.346  1.2290 -0.8019 -0.2355
  248MOL0     H32686  10.088   6.942   0.412  2.8222 -2.7710 -2.1607
  248MOL0     H32687   9.992   7.172   0.299  0.1724 -0.2306  0.6023
  248MOL0     H32688   9.913   7.106   0.441 -1.7998  1.3524 -0.2706
  248MOL0     H32689   9.711   6.894   0.334 -1.2205  1.2775  0.7734
  248MOL0     H32690   9.416   6.941   0.159  1.6503  2.1814 -0.2065
  248MOL0     H32691   9.519   6.813   0.219 -0.7321 -1.0698 -1.1325
  248MOL0     H32692   9.625   6.779   0.020  0.9412  0.0803 -2.8467
  248MOL0     H32693   9.526   6.895  -0.078 -3.2642 -2.0409 -2.3791
  248MOL0     H32694   9.475   6.628  -0.071  1.3085 -2.9884  4.1912
  248MOL0     H32695   9.432   6.659   0.099  0.8147 -0.9156  0.4680
  248MOL0     H32696   9.285   6.805  -0.110  1.5639  1.1539  0.7511
  248MOL0     H32697   9.250   6.801   0.062  0.5130  2.3725 -1.3911
  248MOL0     H32698   9.002   6.466  -0.077 -0.0417 -0.1262  0.7142
  248MOL0     H32699   8.752   6.519  -0.121 -0.2405  0.3968 -0.2174
  248MOL0     H32700   8.466   6.875  -0.380  1.3764 -0.1385  2.8788
  248MOL0     H32701   8.250   6.873  -0.472 -0.4676 -1.4053 -0.5561
  248MOL0     H32702   8.018   6.815  -0.390 -0.9319  1.6360 -3.0579
  248MOL0     H32703   7.971   6.642  -0.345 -0.0554  0.4921  0.2426
  248MOL0     H32704   7.848   6.631  -0.568  1.2592 -0.4187  1.1497
  248MOL0     H32705   7.880   6.807  -0.581 -2.7071 -0.1988 -0.7047
  248MOL0     H32706   7.792   6.851  -0.361  3.5199 -2.3229  2.4161
  248MOL0     H32707   7.738   6.679  -0.354  1.1441 -0.8469 -0.4511
  248MOL0     H32708   7.653   6.882  -0.573 -0.7752 -1.6296 -1.7053
  248MOL0     H32709   7.600   6.713  -0.558  0.3489 -0.0259 -0.9094
  248MOL0     H32710   7.561   6.908  -0.346  0.0258  0.9456 -0.6015
  248MOL0     H32711   7.492   6.750  -0.358 -0.9058  1.5497  2.3805
  248MOL0     H32712   7.354   6.812  -0.557  0.2180 -1.1707  1.6920
  248MOL0     H32713   7.461   6.952  -0.573  0.9410 -0.8928  0.1648
  248MOL0     H32714   7.353   7.057  -0.385  0.9250  0.5160 -2.8912
  248MOL0     H32715   7.208   6.980  -0.462 -1.6615 -1.0792  1.3202
  248MOL0     H32716   7.195   6.960  -0.232 -0.0275 -1.5796  0.6682
  248MOL0     H32717   7.365   6.882  -0.224  0.3917 -3.1220 -1.2501
  248MOL0     H32718   8.196   6.464  -0.391 -1.9538  1.4396 -1.5767
  248MOL0     H32719   8.404   6.451  -0.273 -0.5680 -0.6591 -2.6841
  248MOL0     H32720   8.854   6.915  -0.177  1.9998  1.3867 -0.9455
  248MOL0     H32721   9.088   6.877  -0.109 -2.6334  1.7445  2.3157
  248MOL0     H32722  10.441   6.979  -0.253 -0.1047  0.9430 -0.1718
  248MOL0     H32723  10.648   6.864  -0.172  5.6320  0.3545  4.2390
  248MOL0     H32724  10.966   6.964   0.267  0.2816 -1.1788  2.4365
  248MOL0     H32725  11.149   6.809   0.360 -0.6319  0.6215  0.2841
  248MOL0     H32726  11.194   6.609   0.389 -1.3659  2.7449 -3.1693
  248MOL0     H32727  11.360   6.666   0.411  0.6731  0.0995 -1.5062
  248MOL0     H32728  11.445   6.448   0.350  0.2696 -2.1849 -0.2246
  248MOL0     H32729  11.301   6.429   0.459 -0.0574  2.0672  1.2824
  248MOL0     H32730  11.302   6.402   0.139 -2.0599  1.4550 -0.4793
  248MOL0     H32731  11.181   6.356   0.258  1.3231 -1.7656  0.2069
  248MOL0     H32732  11.443   6.220   0.242  0.0393  2.1891 -0.9250
  248MOL0     H32733  11.313   6.173   0.348 -0.1537  2.1047  0.8941
  248MOL0     H32734  11.175   6.005   0.001  0.9774  0.3032 -1.5634
  248MOL0     H32735  11.256   6.686  -0.034  1.6419 -2.3218  2.5209
  248MOL0     H32736  11.075   6.805  -0.126  2.3398 -2.6243  0.0235
  249MOL0     O32737   2.358   2.605   9.873 -0.1688 -1.4328  0.5724
  249MOL0     C32738   2.387   2.729   9.868  0.7157  0.2921 -0.6429
  249MOL0     O32739   2.439   2.798   9.758  0.3761  0.2231  0.3440
  249MOL0     C32740   2.499   2.715   9.667  0.4210  0.8758  1.0084
  249MOL0     C32741   2.435   2.684   9.549 -0.6417 -0.3216  0.5175
  249MOL0     C32742   2.486   2.592   9.449  0.9470  0.2298 -0.0450
  249MOL0     C32743   2.613   2.532   9.476  0.2084  0.1799 -0.4969
  249MOL0     O32744   2.660   2.427   9.397 -0.3147  0.8660 -0.1660
  249MOL0     C32745   2.785   2.366   9.408  0.2165  1.2558 -0.2154
  249MOL0     C32746   2.813   2.289   9.278 -0.0660  0.8117  0.0339
  249MOL0     C32747   2.761   2.143   9.257  0.0090 -0.5533 -0.3392
  249MOL0     C32748   2.787   2.097   9.114  0.3370 -0.0908  0.3461
  249MOL0     C32749   2.681   1.989   9.067 -0.0100 -0.7411  0.1397
  249MOL0     C32750   2.557   2.062   9.003  0.2567 -0.6947 -0.7908
  249MOL0     C32751   2.462   2.128   9.095 -0.0697 -0.1277  0.1494
  249MOL0     C32752   2.369   2.204   9.009 -0.1465  0.3551 -0.1594
  249MOL0     N32753   2.273   2.273   9.103  0.3578  0.0782  0.2196
  249MOL0     C32754   2.173   2.228   9.177  0.2159  0.1828  0.1650
  249MOL0     C32755   2.103   2.337   9.221  0.3438 -0.7001 -0.3657
  249MOL0     C32756   1.996   2.334   9.329 -0.5555  0.7161  0.6395
  249MOL0     C32757   2.042   2.357   9.476 -0.3589 -0.2936  0.0807
  249MOL0     C32758   2.080   2.503   9.494  0.3924 -0.0126  0.0190
  249MOL0     C32759   2.072   2.567   9.633  0.0544 -0.5818 -0.6298
  249MOL0     O32760   1.937   2.547   9.669  0.2848  0.2755  0.0282
  249MOL0     C32761   1.891   2.590   9.790  0.7373 -0.8171  0.9639
  249MOL0     C32762   1.762   2.545   9.822  0.4415  0.3528  0.7069
  249MOL0     C32763   1.709   2.565   9.953 -0.5591  0.0143  0.1710
  249MOL0     C32764   1.785   2.642  10.041 -0.3258  0.1475 -0.5338
  249MOL0     C32765   1.725   2.683  10.173 -0.5478  0.2648 -0.2105
  249MOL0     O32766   1.735   2.604  10.289 -0.0959 -0.7842  0.0108
  249MOL0     C32767   1.840   2.526  10.297  0.2436  0.0032 -0.4328
  249MOL0     C32768   1.821   2.386  10.313 -0.1499 -0.4567  0.4554
  249MOL0     C32769   1.933   2.299  10.338 -0.3027 -0.5553 -0.5778
  249MOL0     C32770   2.061   2.353  10.335  0.2363 -0.0327 -0.1902
  249MOL0     O32771   2.164   2.266  10.350  0.1055  0.5064  0.3549
  249MOL0     C32772   2.273   2.305  10.429  0.6376 -0.7108 -0.8216
  249MOL0     C32773   2.397   2.381  10.360 -0.0158 -0.3311 -0.3695
  249MOL0     C32774   2.419   2.341  10.214 -0.2199 -0.4448  0.3922
  249MOL0     C32775   2.552   2.409  10.175 -0.2882  0.4881 -0.3194
  249MOL0     C32776   2.601   2.363  10.038  0.3942 -0.8475  0.3518
  249MOL0     C32777   2.672   2.232  10.042 -0.6944 -0.1636 -0.4007
  249MOL0     C32778   2.755   2.208   9.914 -0.2057 -0.0652  0.0656
  249MOL0     C32779   2.804   2.068   9.916  0.2560 -1.0314 -0.3849
  249MOL0    Cl32780   2.672   1.939   9.907 -0.1957 -0.2442  0.1286
  249MOL0     C32781   2.083   2.494  10.321 -0.1652  0.3799 -1.1292
  249MOL0     C32782   1.971   2.574  10.300  0.0342  0.2005 -0.3430
  249MOL0     O32783   1.661   2.790  10.165 -0.5911  0.1160  0.1227
  249MOL0     C32784   1.915   2.693  10.009  0.5279  0.2153 -0.2951
  249MOL0     C32785   1.972   2.661   9.884  0.1170  0.4279 -0.1997
  249MOL0     N32786   2.166   2.454   9.174 -0.4407 -0.0982 -1.6394
  249MOL0     N32787   2.261   2.416   9.096  0.0429  0.2627 -0.2865
  249MOL0     C32788   2.684   2.572   9.597  0.7223 -0.6010 -0.0451
  249MOL0     C32789   2.624   2.663   9.693 -0.4568 -0.2736 -0.9390
  249MOL0     C32790   2.347   2.806   9.987 -0.0588 -0.4845 -0.0151
  249MOL0     C32791   2.321   2.942   9.979 -1.5249  0.0031  0.5123
  249MOL0     C32792   2.259   3.012  10.085 -0.3112 -0.4865  0.5271
  249MOL0     C32793   2.216   2.940  10.199  0.0425  0.3345  0.6953
  249MOL0     O32794   2.140   2.990  10.301  0.5669  0.4758  0.4930
  249MOL0     C32795   2.130   3.133  10.310  0.7640 -0.1017 -0.4906
  249MOL0     C32796   2.055   3.167  10.435  0.2377 -0.5319 -0.9992
  249MOL0     C32797   1.937   3.080  10.472 -0.1351 -0.3889  0.1708
  249MOL0     C32798   1.822   3.089  10.374 -0.6354 -0.3882  0.0589
  249MOL0     C32799   1.766   3.220  10.355  0.9058 -0.0210  0.6405
  249MOL0     C32800   1.721   3.328  10.316 -0.1555 -1.1863 -0.2385
  249MOL0     C32801   2.242   2.804  10.209 -1.0457 -0.5309 -0.8468
  249MOL0     C32802   2.320   2.741  10.104  0.4119 -0.6797  0.9957
  249MOL0     H32803   2.342   2.734   9.522 -0.5593  0.5057  1.6535
  249MOL0     H32804   2.430   2.566   9.359 -1.7209 -1.8857  2.0443
  249MOL0     H32805   2.785   2.291   9.488 -1.0229  0.5459 -0.8405
  249MOL0     H32806   2.855   2.449   9.403  1.5314  0.1845  0.0361
  249MOL0     H32807   2.922   2.288   9.270  0.0697  0.5332  1.6156
  249MOL0     H32808   2.775   2.351   9.196  0.4151  1.4608  0.2936
  249MOL0     H32809   2.658   2.134   9.293  0.6290 -3.4632  0.9941
  249MOL0     H32810   2.812   2.074   9.325 -0.1792  1.2264  1.7275
  249MOL0     H32811   2.798   2.188   9.054 -3.2870 -1.1372 -2.2456
  249MOL0     H32812   2.880   2.040   9.104  1.1273  1.5671 -3.2581
  249MOL0     H32813   2.648   1.931   9.154  1.0961 -0.1175  0.9992
  249MOL0     H32814   2.726   1.913   9.002  1.8593 -0.0383  0.5411
  249MOL0     H32815   2.491   1.990   8.954 -1.8003  0.1462  0.5792
  249MOL0     H32816   2.587   2.139   8.931 -1.9677  3.0651  1.9111
  249MOL0     H32817   2.412   2.060   9.165  1.4224 -0.7546  0.6394
  249MOL0     H32818   2.516   2.204   9.151 -2.1744  1.2571  0.4100
  249MOL0     H32819   2.314   2.149   8.932 -0.7318  3.2606 -2.0179
  249MOL0     H32820   2.424   2.278   8.949 -1.8109 -0.8829 -3.4803
  249MOL0     H32821   2.151   2.126   9.205 -2.3958  1.4548  3.4587
  249MOL0     H32822   1.943   2.239   9.324  0.2612  0.1910  1.7607
  249MOL0     H32823   1.917   2.404   9.299  1.2299  2.6212  0.1128
  249MOL0     H32824   2.125   2.288   9.491  1.4057  1.5675 -0.7150
  249MOL0     H32825   1.951   2.330   9.531 -2.1350 -0.4906 -2.7021
  249MOL0     H32826   2.174   2.532   9.445 -0.1562  1.8602 -0.0168
  249MOL0     H32827   2.011   2.569   9.441  2.0713  1.3042 -0.6026
  249MOL0     H32828   2.095   2.674   9.635 -0.2420 -0.5306  0.0441
  249MOL0     H32829   2.138   2.510   9.698  0.4958 -2.4046 -2.5491
  249MOL0     H32830   1.717   2.487   9.743  2.1038 -0.4254  0.2911
  249MOL0     H32831   1.609   2.531   9.979  0.4960 -1.7666  2.2843
  249MOL0     H32832   1.716   2.358  10.313  0.3141 -2.7912 -2.7157
  249MOL0     H32833   1.917   2.193  10.356 -0.6923 -0.1838  1.4698
  249MOL0     H32834   2.303   2.214  10.483 -1.2824  0.6784  3.0075
  249MOL0     H32835   2.229   2.370  10.506 -0.5478 -1.3055 -0.9694
  249MOL0     H32836   2.484   2.348  10.418  0.3790 -1.6746 -1.6480
  249MOL0     H32837   2.383   2.489  10.368  1.2817 -0.1766  0.0685
  249MOL0     H32838   2.338   2.374  10.149 -0.0400 -1.6064 -0.4650
  249MOL0     H32839   2.422   2.232  10.202 -0.4063 -0.7866  2.8819
  249MOL0     H32840   2.528   2.516  10.163  0.6868  0.8658  0.9207
  249MOL0     H32841   2.631   2.390  10.248 -0.5846 -0.4956 -0.2413
  249MOL0     H32842   2.671   2.442  10.010 -1.9919  2.2789  2.5274
  249MOL0     H32843   2.525   2.351   9.960  1.6066 -2.0283 -0.6974
  249MOL0     H32844   2.606   2.145  10.050 -0.5883 -0.4203 -2.0855
  249MOL0     H32845   2.728   2.222  10.136 -0.6560 -0.9605 -0.5035
  249MOL0     H32846   2.692   2.222   9.826  0.8188 -4.1956 -1.5436
  249MOL0     H32847   2.836   2.282   9.904 -0.6993  0.4034 -0.5605
  249MOL0     H32848   2.861   2.059  10.009 -0.8028  0.0277  0.3883
  249MOL0     H32849   2.879   2.050   9.838  1.0724  0.2147  0.0891
  249MOL0     H32850   2.182   2.536  10.335 -0.0183 -0.5362  0.9043
  249MOL0     H32851   1.977   2.682  10.293  0.4383  0.0996 -1.9067
  249MOL0     H32852   1.956   2.755  10.088  2.2332 -0.6162 -0.4719
  249MOL0     H32853   2.070   2.699   9.859  0.0755 -0.3019 -1.6000
  249MOL0     H32854   2.777   2.531   9.636  0.3969  1.5318  3.3994
  249MOL0     H32855   2.671   2.694   9.786 -1.3492  0.3074 -0.6785
  249MOL0     H32856   2.343   2.995   9.887  0.1920  0.7179  1.2939
  249MOL0     H32857   2.229   3.116  10.075 -0.8111 -0.6013  0.7918
  249MOL0     H32858   2.082   3.184  10.226 -3.8568  0.6323  2.2242
  249MOL0     H32859   2.234   3.165  10.324  0.3324  1.0468  0.1485
  249MOL0     H32860   2.133   3.174  10.512  1.3165  0.9586 -2.1609
  249MOL0     H32861   2.020   3.270  10.425  1.1821  0.0304  0.9540
  249MOL0     H32862   1.901   3.103  10.572  1.3382  0.3251  0.5657
  249MOL0     H32863   1.972   2.977  10.476 -0.1882 -0.4386  5.0567
  249MOL0     H32864   1.866   3.058  10.279 -1.3220 -0.4729 -0.2370
  249MOL0     H32865   1.746   3.017  10.405  0.1159  0.5504  4.8381
  249MOL0     H32866   1.692   3.431  10.306 -2.9201 -2.1042 -3.7376
  249MOL0     H32867   2.223   2.762  10.307  0.9518  0.3969  0.0128
  249MOL0     H32868   2.330   2.636  10.131  0.1102 -1.0274 -0.2071
  250MOL0     O32869  10.498  10.862   1.962  0.9438  0.1814  0.6021
  250MOL0     C32870  10.536  10.915   1.864 -0.4757 -0.1516  0.1325
  250MOL0     O32871  10.563  10.851   1.741 -0.3579 -0.0851 -0.1508
  250MOL0     C32872  10.526  10.725   1.705 -0.1785 -0.1431  0.2863
  250MOL0     C32873  10.431  10.650   1.772  0.0487 -0.4990  0.1353
  250MOL0     C32874  10.403  10.521   1.729 -0.4921 -1.1870  1.2847
  250MOL0     C32875  10.476  10.467   1.617 -0.0029  0.3645  0.0072
  250MOL0     O32876  10.453  10.351   1.550  0.7701 -0.7348 -0.1144
  250MOL0     C32877  10.386  10.246   1.620  0.0917 -0.1246 -0.2394
  250MOL0     C32878  10.458  10.190   1.750 -0.4889  0.6951 -0.8459
  250MOL0     C32879  10.373  10.082   1.829 -0.6258 -0.0977  0.0869
  250MOL0     C32880  10.239  10.157   1.864  0.4345  0.0157  0.0034
  250MOL0     C32881  10.155  10.090   1.971  0.3721 -0.1679 -0.2733
  250MOL0     C32882  10.095   9.958   1.926 -0.0902 -0.0782 -0.7382
  250MOL0     C32883  10.055   9.863   2.034 -1.1913  0.1949 -0.1996
  250MOL0     C32884   9.924   9.889   2.114  0.1026  0.1561 -0.6245
  250MOL0     N32885   9.806   9.930   2.033  0.5029 -0.6829 -0.1582
  250MOL0     C32886   9.737   9.849   1.947 -0.1999  0.1960 -0.2508
  250MOL0     C32887   9.669   9.933   1.866 -0.4419  0.6159 -0.0675
  250MOL0     C32888   9.578   9.890   1.756 -0.0591 -0.2595  0.3339
  250MOL0     C32889   9.478   9.793   1.793 -0.0025  1.0034  0.0711
  250MOL0     C32890   9.356   9.770   1.693 -1.2131  0.9734 -0.0397
  250MOL0     C32891   9.403   9.675   1.575  0.0022  0.0662 -0.2146
  250MOL0     O32892   9.446   9.545   1.615 -0.1769 -0.2914 -0.1967
  250MOL0     C32893   9.357   9.446   1.613  0.1362  0.6353 -0.0167
  250MOL0     C32894   9.216   9.451   1.571 -1.0552 -0.3926 -0.6735
  250MOL0     C32895   9.141   9.337   1.584 -0.5584 -1.0863 -0.4022
  250MOL0     C32896   9.187   9.214   1.625  0.0445 -0.4524 -0.4920
  250MOL0     C32897   9.107   9.085   1.609 -0.1110 -0.3846  0.4050
  250MOL0     O32898   8.988   9.105   1.548 -0.7020  0.1238 -0.0814
  250MOL0     C32899   8.896   8.998   1.549  0.4917 -0.6260  0.7078
  250MOL0     C32900   8.835   8.950   1.666 -0.2127 -0.5741  0.0189
  250MOL0     C32901   8.750   8.836   1.653  1.0975 -0.3282  0.3693
  250MOL0     C32902   8.707   8.781   1.527  0.0978 -0.6618 -0.1645
  250MOL0     O32903   8.617   8.677   1.538  0.4236  0.1322 -0.2125
  250MOL0     C32904   8.523   8.666   1.432  0.5438  0.1912  0.2937
  250MOL0     C32905   8.402   8.582   1.467  0.0971  0.8327  0.1103
  250MOL0     C32906   8.323   8.643   1.581  0.5363 -1.2222 -0.4862
  250MOL0     C32907   8.213   8.729   1.507 -0.1484  0.1167  0.1168
  250MOL0     C32908   8.090   8.646   1.466  0.0761 -0.2071 -0.4290
  250MOL0     C32909   7.969   8.736   1.440  0.7918  0.2882  0.9856
  250MOL0     C32910   7.843   8.649   1.399  0.4643  0.6784 -0.0464
  250MOL0     C32911   7.826   8.640   1.249 -0.1970 -0.2207  0.0078
  250MOL0    Cl32912   7.700   8.529   1.206  0.1401  0.6303  0.4817
  250MOL0     C32913   8.755   8.839   1.411  0.4674 -0.6272  0.2183
  250MOL0     C32914   8.847   8.946   1.427  0.4254 -0.0478  0.1458
  250MOL0     O32915   9.152   8.975   1.639 -0.4542  1.2273  0.3690
  250MOL0     C32916   9.319   9.209   1.666 -0.0368  0.7038  0.4675
  250MOL0     C32917   9.399   9.318   1.662 -0.3800 -0.7494  1.4379
  250MOL0     N32918   9.694  10.068   1.895  0.4556 -0.2764 -1.0023
  250MOL0     N32919   9.785  10.064   1.991 -0.0646 -0.1803  0.3113
  250MOL0     C32920  10.581  10.543   1.557 -0.3286  0.0263  0.2730
  250MOL0     C32921  10.593  10.677   1.589  0.5687  0.2633  0.4791
  250MOL0     C32922  10.536  11.061   1.850 -0.0340  0.0289 -0.2236
  250MOL0     C32923  10.485  11.152   1.941  0.1182 -0.2445 -0.2621
  250MOL0     C32924  10.493  11.294   1.917  0.0683  0.0492 -1.0255
  250MOL0     C32925  10.559  11.349   1.808  0.7263  0.6337  0.6357
  250MOL0     O32926  10.569  11.485   1.798  0.2205 -0.1270  0.3086
  250MOL0     C32927  10.630  11.542   1.680 -0.5098 -0.1235  0.2138
  250MOL0     C32928  10.642  11.691   1.695  0.4046  0.1189 -0.5028
  250MOL0     C32929  10.669  11.763   1.567  0.1074  0.4274 -0.3318
  250MOL0     C32930  10.763  11.700   1.468 -0.2758 -0.0950  0.3537
  250MOL0     C32931  10.797  11.793   1.362 -1.0054 -0.2585  0.6030
  250MOL0     C32932  10.823  11.872   1.275 -0.1422 -0.0274 -0.3811
  250MOL0     C32933  10.610  11.251   1.720  0.5544 -0.6098 -0.0371
  250MOL0     C32934  10.606  11.116   1.743  1.0822 -0.4090  0.6118
  250MOL0     H32935  10.369  10.693   1.849  1.9669  2.2552  0.2863
  250MOL0     H32936  10.328  10.457   1.773 -0.1690 -4.7113 -2.6280
  250MOL0     H32937  10.366  10.168   1.547 -2.1697  0.8469 -0.7687
  250MOL0     H32938  10.286  10.284   1.646  0.0968  0.2960 -0.8384
  250MOL0     H32939  10.461  10.282   1.809 -0.8166 -0.5793  1.2922
  250MOL0     H32940  10.558  10.150   1.730 -1.2633 -1.4850 -0.5910
  250MOL0     H32941  10.423  10.050   1.920  0.4079 -0.2245 -0.5153
  250MOL0     H32942  10.360   9.992   1.768 -0.5453 -0.0860  0.0528
  250MOL0     H32943  10.263  10.256   1.903 -1.4259  0.9754 -1.1130
  250MOL0     H32944  10.169  10.168   1.780 -0.4484 -2.2255  0.3638
  250MOL0     H32945  10.077  10.164   1.992  0.1955 -0.5541  0.4712
  250MOL0     H32946  10.219  10.090   2.060  0.4512  2.2538 -0.2793
  250MOL0     H32947  10.173   9.904   1.872  0.3958 -0.9564  0.7742
  250MOL0     H32948  10.017   9.977   1.852 -1.2323 -1.9628 -0.1059
  250MOL0     H32949  10.037   9.772   1.975 -1.2637 -0.9574  1.5483
  250MOL0     H32950  10.140   9.848   2.100 -1.6636 -0.8161  0.2115
  250MOL0     H32951   9.956   9.968   2.184  1.7608 -1.5529  0.6494
  250MOL0     H32952   9.887   9.804   2.173 -2.3177  2.7406  1.9660
  250MOL0     H32953   9.724   9.741   1.948  1.6361 -0.0875 -1.3410
  250MOL0     H32954   9.650   9.857   1.681  0.2749 -2.8948  1.6912
  250MOL0     H32955   9.530   9.980   1.716 -3.4298 -0.7944  2.7385
  250MOL0     H32956   9.429   9.826   1.885  0.3974  3.0812 -0.4139
  250MOL0     H32957   9.533   9.699   1.804 -3.5564 -1.4249 -1.1573
  250MOL0     H32958   9.277   9.722   1.752  0.3285  0.5819  1.8077
  250MOL0     H32959   9.306   9.858   1.652 -1.6726  1.8614  2.2403
  250MOL0     H32960   9.497   9.722   1.544 -1.0348  2.8963  0.6382
  250MOL0     H32961   9.330   9.675   1.494  1.6188  0.9319 -1.7407
  250MOL0     H32962   9.178   9.545   1.532 -1.5067  0.2331  1.1908
  250MOL0     H32963   9.042   9.333   1.539 -1.0426  2.1641  0.1022
  250MOL0     H32964   8.865   8.975   1.767 -1.5417 -1.3697  0.6366
  250MOL0     H32965   8.706   8.788   1.740 -1.6361  2.1154  0.5007
  250MOL0     H32966   8.574   8.619   1.347 -1.7443 -2.4121  0.2356
  250MOL0     H32967   8.486   8.765   1.407  1.4502  0.4823  0.0596
  250MOL0     H32968   8.434   8.481   1.494  2.4623  0.1182 -4.3858
  250MOL0     H32969   8.344   8.580   1.374  1.4712  1.5325 -0.7942
  250MOL0     H32970   8.383   8.707   1.645 -1.8341 -1.0790  1.7543
  250MOL0     H32971   8.279   8.569   1.648  1.9153 -1.9837 -0.3819
  250MOL0     H32972   8.167   8.800   1.577 -0.0915  0.5435 -0.2716
  250MOL0     H32973   8.252   8.780   1.418 -0.5769 -0.0238 -0.1538
  250MOL0     H32974   8.085   8.568   1.543 -0.5248 -1.8454 -2.0488
  250MOL0     H32975   8.105   8.604   1.366  0.7029 -0.7712 -0.1049
  250MOL0     H32976   7.987   8.804   1.355  0.3274  0.7739  1.2713
  250MOL0     H32977   7.942   8.785   1.533  2.0935 -2.0412  2.6914
  250MOL0     H32978   7.856   8.545   1.428 -2.7717 -0.6946 -2.8793
  250MOL0     H32979   7.759   8.687   1.459  1.4231 -0.0357  1.7998
  250MOL0     H32980   7.920   8.622   1.196 -2.5855 -1.3394 -4.3509
  250MOL0     H32981   7.787   8.730   1.202  0.4474 -0.4293 -0.9520
  250MOL0     H32982   8.739   8.804   1.310 -0.8962  0.5922 -0.0308
  250MOL0     H32983   8.878   8.973   1.327 -0.3685 -0.4985 -0.2300
  250MOL0     H32984   9.358   9.113   1.699  1.9163  1.6851  1.1734
  250MOL0     H32985   9.501   9.305   1.694  1.2296  2.2734 -1.7318
  250MOL0     H32986  10.644  10.499   1.480  0.0644  0.9243  0.0592
  250MOL0     H32987  10.665  10.742   1.540  1.0620 -0.7249 -0.1556
  250MOL0     H32988  10.442  11.108   2.031 -0.0731 -0.1982 -0.3293
  250MOL0     H32989  10.441  11.367   1.977  0.9372  1.1518 -1.5716
  250MOL0     H32990  10.575  11.524   1.586  2.5113  2.6021 -2.3175
  250MOL0     H32991  10.727  11.495   1.663  0.1797  1.8730 -1.8058
  250MOL0     H32992  10.553  11.729   1.746  1.0023  0.0214  0.6565
  250MOL0     H32993  10.724  11.712   1.765  2.1859  0.0061 -2.4388
  250MOL0     H32994  10.710  11.863   1.587 -1.0719  1.1365 -1.3556
  250MOL0     H32995  10.578  11.788   1.511  1.5952  1.6244 -2.3705
  250MOL0     H32996  10.864  11.683   1.506  0.9878  2.9074 -1.2888
  250MOL0     H32997  10.714  11.615   1.421 -0.7420  0.8887 -1.0230
  250MOL0     H32998  10.831  11.945   1.196  2.4939 -0.2688 -0.4329
  250MOL0     H32999  10.651  11.278   1.624 -2.4746  0.3314 -1.1683
  250MOL0     H33000  10.648  11.058   1.661 -2.4389 -0.1125 -1.6262
  251MOL0     O33001   3.055   3.189   9.206 -0.2651 -0.5966  0.6603
  251MOL0     C33002   2.960   3.213   9.142  0.2675 -0.7346 -0.4104
  251MOL0     O33003   2.884   3.326   9.151 -0.3461 -0.5374  0.5675
  251MOL0     C33004   2.913   3.415   9.250  0.3321 -0.6264 -0.1270
  251MOL0     C33005   2.888   3.374   9.381  0.0516  0.4063 -0.0789
  251MOL0     C33006   2.925   3.456   9.487 -0.5616 -0.2815  0.4237
  251MOL0     C33007   2.975   3.583   9.469  0.1458 -0.4982  0.3366
  251MOL0     O33008   3.024   3.663   9.570  0.9376 -0.6077  0.4287
  251MOL0     C33009   2.965   3.647   9.696 -0.3273  0.8062  0.3708
  251MOL0     C33010   2.882   3.774   9.712 -0.1396  0.1739 -0.2248
  251MOL0     C33011   2.831   3.778   9.860  0.3887 -0.0591  0.9338
  251MOL0     C33012   2.755   3.916   9.877  0.9284  0.7746  0.6689
  251MOL0     C33013   2.755   3.964  10.018  0.5578  0.2199 -0.2527
  251MOL0     C33014   2.683   3.861  10.118  0.1811  0.3946  0.1629
  251MOL0     C33015   2.522   3.859  10.113  0.9216  0.2615  0.8532
  251MOL0     C33016   2.461   3.984  10.182 -0.9714  0.6455  0.6423
  251MOL0     N33017   2.314   3.973  10.208 -0.1557  0.0244 -0.1762
  251MOL0     C33018   2.224   4.008  10.117 -0.0488  0.2100  0.1757
  251MOL0     C33019   2.107   4.028  10.173 -0.2670 -0.7810 -1.1313
  251MOL0     C33020   1.975   4.069  10.108  0.2478 -0.0037  0.6346
  251MOL0     C33021   1.914   3.947  10.043 -0.2637  0.3512  0.0188
  251MOL0     C33022   1.806   3.974   9.937 -0.3031  0.2376 -0.0969
  251MOL0     C33023   1.732   3.846   9.871  0.2362  0.0961 -0.2594
  251MOL0     O33024   1.587   3.858   9.887  0.4631  0.0887  0.1048
  251MOL0     C33025   1.527   3.880  10.008  0.3906 -0.1252  0.8037
  251MOL0     C33026   1.552   3.797  10.113 -0.3095  0.2241  0.0982
  251MOL0     C33027   1.482   3.818  10.226 -1.0105  0.4530 -0.5715
  251MOL0     C33028   1.385   3.924  10.232  0.6334  0.2086 -0.9689
  251MOL0     C33029   1.339   3.952  10.369  0.2059 -0.0042 -0.1690
  251MOL0     O33030   1.385   3.874  10.468  0.0864 -0.4046 -0.3508
  251MOL0     C33031   1.318   3.894  10.589 -0.7623  0.1541 -0.2003
  251MOL0     C33032   1.247   3.797  10.652 -0.6640 -0.3542  0.5305
  251MOL0     C33033   1.201   3.812  10.774  0.0351 -0.1375  0.0610
  251MOL0     C33034   1.228   3.934  10.844  1.5015 -0.0794 -0.0827
  251MOL0     O33035   1.165   3.972  10.962 -0.3095  0.2224  0.1694
  251MOL0     C33036   1.030   3.919  10.989  0.5555  1.1022  0.0398
  251MOL0     C33037   0.942   4.014  11.076  0.7748 -0.8699  0.2496
  251MOL0     C33038   0.909   4.149  11.015  0.9648 -0.1529  0.8556
  251MOL0     C33039   1.002   4.256  11.055 -0.0015 -0.2988 -0.0729
  251MOL0     C33040   0.970   4.386  10.966  0.1307  1.7392 -0.1396
  251MOL0     C33041   0.824   4.439  11.012 -0.2649 -0.1519  0.1668
  251MOL0     C33042   0.817   4.582  10.965 -0.1701 -0.4437 -0.1337
  251MOL0     C33043   0.683   4.635  10.989 -0.2370  0.3587  0.6122
  251MOL0    Cl33044   0.672   4.801  10.915 -0.0017 -0.0417  0.1354
  251MOL0     C33045   1.301   4.034  10.780  0.4859  0.3603 -0.4649
  251MOL0     C33046   1.347   4.014  10.655  0.7088  0.8708  0.8977
  251MOL0     O33047   1.263   4.048  10.381  0.1979  0.0685 -0.2009
  251MOL0     C33048   1.357   3.998  10.124  0.2822 -0.1530 -0.4673
  251MOL0     C33049   1.433   3.982  10.012  0.0437  0.0532 -0.7108
  251MOL0     N33050   2.136   3.992  10.309  0.3209  0.3587  0.3783
  251MOL0     N33051   2.259   3.960  10.328 -0.0901 -0.7144 -0.2681
  251MOL0     C33052   2.975   3.631   9.332  0.0909  0.1263  0.4412
  251MOL0     C33053   2.952   3.542   9.227 -1.0665 -0.5276  0.4906
  251MOL0     C33054   2.927   3.105   9.047 -0.3466 -0.0725  0.1570
  251MOL0     C33055   3.027   3.022   8.989 -0.6004  0.7458  0.7862
  251MOL0     C33056   2.990   2.936   8.885 -0.8068 -0.9701 -0.4494
  251MOL0     C33057   2.855   2.912   8.862  0.1761 -0.0846  0.0549
  251MOL0     O33058   2.824   2.816   8.765 -0.2373 -0.0220  0.5463
  251MOL0     C33059   2.777   2.884   8.642  0.4264  1.4060 -0.9194
  251MOL0     C33060   2.763   2.780   8.540  0.6638 -0.0096  0.7072
  251MOL0     C33061   2.903   2.747   8.493 -0.6512  0.2039  0.1426
  251MOL0     C33062   2.906   2.680   8.352 -0.1393 -0.5140 -0.0273
  251MOL0     C33063   2.869   2.778   8.252 -0.4704  0.1492 -0.2029
  251MOL0     C33064   2.840   2.849   8.159 -0.1003 -0.6987  0.6107
  251MOL0     C33065   2.750   2.982   8.928 -0.6146 -0.6881  0.5445
  251MOL0     C33066   2.791   3.084   9.016 -0.3272 -0.6907 -0.4962
  251MOL0     H33067   2.847   3.275   9.398  1.5380 -0.1192  0.5827
  251MOL0     H33068   2.916   3.418   9.588  0.2774 -1.9010 -0.0576
  251MOL0     H33069   3.053   3.647   9.761 -1.0021  0.0391  1.3189
  251MOL0     H33070   2.907   3.557   9.718 -1.5468  1.3468 -0.5105
  251MOL0     H33071   2.800   3.765   9.640  0.6031 -2.5827 -0.8775
  251MOL0     H33072   2.938   3.863   9.683  0.0423  0.8124  1.9785
  251MOL0     H33073   2.913   3.773   9.932  0.1393  0.1773  1.2401
  251MOL0     H33074   2.768   3.689   9.873  0.1851  0.4822  4.6618
  251MOL0     H33075   2.802   3.994   9.817 -2.4853  3.9941  1.8060
  251MOL0     H33076   2.652   3.906   9.843  0.8683  1.4845  0.6282
  251MOL0     H33077   2.699   4.059  10.021  2.9417  1.7184 -0.9139
  251MOL0     H33078   2.854   4.000  10.046  1.0622 -0.6888 -0.8328
  251MOL0     H33079   2.717   3.895  10.217  1.9566 -3.7118  1.1763
  251MOL0     H33080   2.719   3.758  10.105  1.1681  0.8312 -0.6499
  251MOL0     H33081   2.489   3.850  10.009  2.4158 -2.0210  0.5020
  251MOL0     H33082   2.487   3.772  10.171 -0.7461  0.8816  0.8513
  251MOL0     H33083   2.456   4.067  10.111  1.4427 -2.0386 -2.9886
  251MOL0     H33084   2.517   4.028  10.266 -3.0630  2.0907  1.3720
  251MOL0     H33085   2.242   4.022  10.010  2.7137  2.2714  0.7937
  251MOL0     H33086   1.994   4.144  10.031 -0.0382  0.7644  1.3061
  251MOL0     H33087   1.913   4.121  10.180  1.5344 -0.5603  2.2069
  251MOL0     H33088   1.861   3.896  10.125 -0.6098  0.9738  0.1869
  251MOL0     H33089   2.000   3.886  10.012  0.6871  2.6930 -2.3162
  251MOL0     H33090   1.737   4.050   9.976 -0.8991 -0.1261 -0.4327
  251MOL0     H33091   1.854   4.030   9.856  1.1392 -2.7461 -1.4270
  251MOL0     H33092   1.777   3.762   9.924 -2.0243  0.2434  2.0938
  251MOL0     H33093   1.756   3.840   9.765  0.4745 -1.8167 -0.1241
  251MOL0     H33094   1.615   3.709  10.112 -0.5512  0.0541 -1.0810
  251MOL0     H33095   1.498   3.748  10.309  0.7758  3.1809  1.5545
  251MOL0     H33096   1.217   3.701  10.611 -2.4758  0.9787 -1.5486
  251MOL0     H33097   1.135   3.738  10.819 -0.9630  0.2105 -0.7740
  251MOL0     H33098   1.038   3.820  11.032  0.8634  0.9573 -0.3400
  251MOL0     H33099   0.979   3.915  10.892  2.1260  2.0232 -0.8743
  251MOL0     H33100   1.006   4.018  11.165  4.9370 -0.7060 -2.4494
  251MOL0     H33101   0.851   3.954  11.078 -0.3210  0.5916 -1.9530
  251MOL0     H33102   0.808   4.180  11.043  0.6701  0.5038 -0.7686
  251MOL0     H33103   0.912   4.142  10.905  0.8739  2.4980  0.6328
  251MOL0     H33104   0.986   4.271  11.162 -0.1929 -2.2792  0.2131
  251MOL0     H33105   1.104   4.222  11.036 -0.2541 -2.3076  1.8304
  251MOL0     H33106   0.972   4.369  10.858 -0.7023  1.3251 -0.1034
  251MOL0     H33107   1.050   4.454  10.996  3.6569 -2.8825  2.2831
  251MOL0     H33108   0.825   4.416  11.119 -1.6368 -1.7747 -0.1256
  251MOL0     H33109   0.738   4.390  10.964 -0.8131 -0.1688  1.1357
  251MOL0     H33110   0.879   4.645  11.029  0.9870  1.3884 -2.9169
  251MOL0     H33111   0.857   4.592  10.864  2.3034  0.8578  0.8903
  251MOL0     H33112   0.681   4.666  11.094  1.3198 -0.3483  0.8774
  251MOL0     H33113   0.600   4.564  10.978 -0.3493  0.5316  0.3522
  251MOL0     H33114   1.311   4.136  10.818 -2.2843  0.1604  1.1040
  251MOL0     H33115   1.398   4.097  10.607  1.2128  1.9634  3.1782
  251MOL0     H33116   1.306   4.091  10.148  0.0763 -0.5101  0.4917
  251MOL0     H33117   1.403   4.047   9.930 -0.3780  1.0245  0.1971
  251MOL0     H33118   3.015   3.731   9.315 -0.3785  0.1765 -0.4487
  251MOL0     H33119   2.958   3.584   9.127  1.2695  0.5251  1.0054
  251MOL0     H33120   3.134   3.025   9.006  0.4483 -0.9099 -3.8890
  251MOL0     H33121   3.061   2.872   8.833  0.1493 -0.4077  0.1362
  251MOL0     H33122   2.853   2.951   8.599  0.8564  0.8212 -1.0957
  251MOL0     H33123   2.685   2.929   8.678 -0.1259 -0.6344  0.4091
  251MOL0     H33124   2.715   2.694   8.588  0.6463  0.7713  2.1428
  251MOL0     H33125   2.699   2.807   8.456  2.6136 -0.8597 -1.1580
  251MOL0     H33126   2.964   2.678   8.552  0.9296 -1.3574 -3.0715
  251MOL0     H33127   2.961   2.840   8.490 -1.4800  0.7036 -1.5868
  251MOL0     H33128   3.004   2.634   8.337  0.4774  0.5916  0.5095
  251MOL0     H33129   2.849   2.586   8.351  0.0635 -0.6542 -1.5376
  251MOL0     H33130   2.809   2.881   8.062 -1.1733 -0.6415  0.9614
  251MOL0     H33131   2.644   2.965   8.910 -0.6568 -2.1143  1.9370
  251MOL0     H33132   2.718   3.153   9.055  1.5564  0.0046  2.1068
  252MOL0     O33133   3.385   5.432  10.039 -0.2004 -0.5601 -0.1654
  252MOL0     C33134   3.293   5.348  10.029  0.2493  0.7235 -0.0162
  252MOL0     O33135   3.173   5.351  10.092  1.1642  0.6645  0.5540
  252MOL0     C33136   3.137   5.455  10.179 -0.2433  0.2188  0.2652
  252MOL0     C33137   3.225   5.512  10.270  1.0941 -0.8683 -0.0983
  252MOL0     C33138   3.183   5.612  10.356 -0.4816  1.1208 -0.1217
  252MOL0     C33139   3.060   5.667  10.343  0.7989 -1.0702  0.6182
  252MOL0     O33140   3.012   5.787  10.398  0.7281  0.1566  0.1386
  252MOL0     C33141   3.100   5.830  10.505  0.3290 -0.0625 -0.3441
  252MOL0     C33142   3.028   5.940  10.579 -0.1085 -0.9200 -0.2588
  252MOL0     C33143   2.902   5.902  10.663  0.1776  0.7065  0.6945
  252MOL0     C33144   2.875   6.023  10.761 -0.1062  0.1080  1.1780
  252MOL0     C33145   2.747   6.000  10.827 -0.7511  0.4013  1.0777
  252MOL0     C33146   2.690   6.117  10.889  0.2709 -0.9454 -0.1057
  252MOL0     C33147   2.659   6.225  10.779  0.2410  0.6488  0.3503
  252MOL0     C33148   2.547   6.311  10.840 -0.0529 -0.3578  1.0402
  252MOL0     N33149   2.495   6.397  10.730  0.3537 -0.5269 -0.0575
  252MOL0     C33150   2.549   6.519  10.697 -0.2783 -0.8021 -0.3618
  252MOL0     C33151   2.443   6.567  10.617 -0.3579  0.6347 -0.2741
  252MOL0     C33152   2.460   6.704  10.544 -0.8160  0.3209  0.2580
  252MOL0     C33153   2.332   6.767  10.516 -0.5667  0.0949  0.2505
  252MOL0     C33154   2.361   6.918  10.476 -0.2017  0.5779  0.3398
  252MOL0     C33155   2.253   6.985  10.396 -0.2234  1.0970  0.6654
  252MOL0     O33156   2.298   7.090  10.317  0.2937  0.5920 -0.0881
  252MOL0     C33157   2.347   7.210  10.362  0.7797  0.9419  0.5143
  252MOL0     C33158   2.432   7.279  10.278 -0.1627 -0.7198 -0.2414
  252MOL0     C33159   2.462   7.416  10.298  0.7466 -0.7301 -0.6253
  252MOL0     C33160   2.399   7.488  10.403 -0.1657  0.5178  1.3217
  252MOL0     C33161   2.437   7.633  10.426  0.1572  0.0027  0.1134
  252MOL0     O33162   2.393   7.685  10.543  0.0676 -0.0240  0.1386
  252MOL0     C33163   2.410   7.823  10.558 -0.4472 -0.1351 -0.3876
  252MOL0     C33164   2.447   7.861  10.683  0.2530  0.5774  0.0298
  252MOL0     C33165   2.478   7.999  10.709  0.5690  0.0409  0.1100
  252MOL0     C33166   2.449   8.098  10.610 -0.3143  0.3405  0.3512
  252MOL0     O33167   2.458   8.237  10.618 -0.3580  0.3622 -0.5017
  252MOL0     C33168   2.428   8.288  10.751 -0.6036  0.2711 -0.0876
  252MOL0     C33169   2.438   8.441  10.735  0.0236  0.9828 -0.2781
  252MOL0     C33170   2.575   8.490  10.686  0.4610  0.7849  0.3910
  252MOL0     C33171   2.569   8.632  10.662  0.1915  0.3272  0.3222
  252MOL0     C33172   2.709   8.687  10.619  0.0134 -0.1657  0.5941
  252MOL0     C33173   2.699   8.828  10.571 -1.0775 -0.2123  0.4177
  252MOL0     C33174   2.662   8.932  10.679  0.1010  0.0411  0.2243
  252MOL0     C33175   2.512   8.965  10.666 -0.0637 -0.3915  0.5489
  252MOL0    Cl33176   2.488   9.091  10.779 -0.3129  0.4321 -0.3603
  252MOL0     C33177   2.385   8.056  10.493 -0.3420 -0.2393 -0.8871
  252MOL0     C33178   2.373   7.921  10.460 -0.1067  0.8988  0.4638
  252MOL0     O33179   2.517   7.682  10.349 -0.4512  0.1607 -0.6998
  252MOL0     C33180   2.318   7.413  10.483 -0.6067  0.1320 -0.1442
  252MOL0     C33181   2.286   7.286  10.466 -0.1865  0.7312 -0.2667
  252MOL0     N33182   2.351   6.473  10.592  0.4115 -0.2725 -0.5999
  252MOL0     N33183   2.380   6.375  10.668 -0.5263  0.3630 -0.4189
  252MOL0     C33184   2.966   5.603  10.261 -0.4487 -0.3356  0.4871
  252MOL0     C33185   2.998   5.488  10.183 -0.2535 -0.1752  0.0688
  252MOL0     C33186   3.315   5.234   9.942  0.0247  0.5033  0.0518
  252MOL0     C33187   3.437   5.204   9.891  0.4972 -0.1965  0.7013
  252MOL0     C33188   3.453   5.092   9.809 -0.2161  0.1543  0.6747
  252MOL0     C33189   3.353   5.006   9.776 -0.1715  0.3677  0.0347
  252MOL0     O33190   3.371   4.886   9.704  0.3371 -0.3179  0.0489
  252MOL0     C33191   3.496   4.830   9.689 -0.7854 -0.0818 -0.2810
  252MOL0     C33192   3.546   4.760   9.818 -0.0666 -0.1167  0.8547
  252MOL0     C33193   3.438   4.668   9.887  0.0756 -0.8498 -0.3477
  252MOL0     C33194   3.500   4.558   9.967  0.3993  0.1144 -0.2200
  252MOL0     C33195   3.398   4.453   9.997 -0.2195  0.2771 -0.1978
  252MOL0     C33196   3.315   4.371  10.019  0.3992 -0.5840 -0.6381
  252MOL0     C33197   3.230   5.025   9.837 -1.0929  0.5408 -0.0988
  252MOL0     C33198   3.208   5.135   9.911 -0.1445  0.1585  0.3192
  252MOL0     H33199   3.330   5.485  10.274  0.9256 -1.5202  0.0999
  252MOL0     H33200   3.260   5.646  10.425  3.0076 -0.0541 -3.0960
  252MOL0     H33201   3.185   5.882  10.459 -0.3334  0.3270 -1.1634
  252MOL0     H33202   3.127   5.747  10.571 -0.0387 -1.1420 -1.4871
  252MOL0     H33203   3.011   6.031  10.521 -1.0417 -0.8465  0.1072
  252MOL0     H33204   3.104   5.974  10.650 -1.2296  2.0526 -0.3462
  252MOL0     H33205   2.907   5.804  10.711  0.1525 -0.0073 -0.7014
  252MOL0     H33206   2.821   5.893  10.590  1.3528 -0.9213 -0.4983
  252MOL0     H33207   2.949   6.038  10.840  1.9463 -1.5643 -0.3180
  252MOL0     H33208   2.859   6.105  10.691 -1.1341 -0.3484  0.8549
  252MOL0     H33209   2.755   5.913  10.893 -0.0109  0.0679  0.5664
  252MOL0     H33210   2.675   5.964  10.753 -0.2179 -1.7761  1.5381
  252MOL0     H33211   2.758   6.153  10.967 -1.5935  0.2057  1.0741
  252MOL0     H33212   2.593   6.093  10.932  0.9322 -1.0568  1.3954
  252MOL0     H33213   2.735   6.304  10.772 -0.4327  1.5662  2.3951
  252MOL0     H33214   2.638   6.174  10.684  1.2869 -0.5299  0.7221
  252MOL0     H33215   2.574   6.371  10.927 -1.7994  3.8438 -1.0533
  252MOL0     H33216   2.464   6.249  10.875 -0.4671  1.2951  3.1599
  252MOL0     H33217   2.639   6.569  10.730 -1.1326 -0.6538  1.8920
  252MOL0     H33218   2.516   6.671  10.456 -1.3631 -1.3139  0.4942
  252MOL0     H33219   2.516   6.774  10.608 -2.2394  0.9642  0.8549
  252MOL0     H33220   2.275   6.767  10.609 -1.3956  1.2927 -0.2278
  252MOL0     H33221   2.286   6.703  10.439 -0.2339 -0.0814  0.1986
  252MOL0     H33222   2.391   6.990  10.553  0.1513  1.7503 -0.8630
  252MOL0     H33223   2.451   6.911  10.415  0.0399 -1.9072  0.8764
  252MOL0     H33224   2.178   7.010  10.472 -0.7587 -0.5608  0.7194
  252MOL0     H33225   2.203   6.916  10.327 -1.5932  3.1363 -0.5307
  252MOL0     H33226   2.471   7.240  10.185  1.0118  2.7938 -1.3374
  252MOL0     H33227   2.508   7.480  10.223 -0.0415 -0.0769 -0.5667
  252MOL0     H33228   2.468   7.778  10.749 -2.4175 -0.0672  0.1486
  252MOL0     H33229   2.513   8.020  10.810  0.5369 -0.9263  0.3264
  252MOL0     H33230   2.498   8.263  10.831 -0.8967  1.5644  0.6084
  252MOL0     H33231   2.327   8.270  10.788  0.3380 -0.9082  2.0523
  252MOL0     H33232   2.432   8.471  10.840  2.2973  0.3346  0.1024
  252MOL0     H33233   2.355   8.483  10.677 -1.6996  2.6962  3.0995
  252MOL0     H33234   2.597   8.429  10.598 -1.2265  2.4270 -1.2391
  252MOL0     H33235   2.655   8.481  10.760  2.3156 -1.1947 -1.6936
  252MOL0     H33236   2.501   8.652  10.579 -1.4340 -0.3343  1.4488
  252MOL0     H33237   2.528   8.680  10.751 -0.8647  0.8252 -0.4145
  252MOL0     H33238   2.755   8.633  10.536 -1.4170  3.5628 -2.9174
  252MOL0     H33239   2.776   8.685  10.706  0.9938  3.2247  0.0538
  252MOL0     H33240   2.637   8.833  10.481  0.4470  0.1884 -0.6664
  252MOL0     H33241   2.795   8.863  10.529 -1.4227  4.1096  2.6503
  252MOL0     H33242   2.684   8.898  10.780 -0.4145  0.2501  0.4116
  252MOL0     H33243   2.723   9.021  10.662  1.5682 -1.2562 -1.7864
  252MOL0     H33244   2.451   8.876  10.681  0.7463 -1.5541 -2.2985
  252MOL0     H33245   2.489   9.007  10.567  0.6714 -2.1300 -0.4174
  252MOL0     H33246   2.340   8.132  10.430 -1.3371  1.3114  1.5695
  252MOL0     H33247   2.328   7.887  10.367  1.0888  0.0678  0.1570
  252MOL0     H33248   2.265   7.465  10.562 -0.5071 -2.0303  1.4238
  252MOL0     H33249   2.219   7.235  10.536 -1.1709 -0.8922 -2.2791
  252MOL0     H33250   2.867   5.645  10.251 -0.3293  0.0014  0.6883
  252MOL0     H33251   2.922   5.432  10.130 -1.7637  1.9004 -0.0764
  252MOL0     H33252   3.523   5.261   9.926  1.1312 -0.5805 -0.1893
  252MOL0     H33253   3.553   5.081   9.768  1.4343 -1.9412  4.6675
  252MOL0     H33254   3.567   4.899   9.642  0.3735 -0.6769  0.5366
  252MOL0     H33255   3.487   4.756   9.609  0.3586  0.3976 -0.8803
  252MOL0     H33256   3.637   4.700   9.804 -0.2190 -0.6926  2.1971
  252MOL0     H33257   3.570   4.835   9.894  1.4821  0.7897 -0.4554
  252MOL0     H33258   3.373   4.619   9.814 -0.5569 -1.4061  0.5810
  252MOL0     H33259   3.378   4.729   9.954  1.4193 -0.0558  0.1786
  252MOL0     H33260   3.570   4.506   9.900  2.4823  0.3548  1.6471
  252MOL0     H33261   3.553   4.597  10.054 -1.3500  1.8108  0.1608
  252MOL0     H33262   3.234   4.302  10.031  0.2561  0.0337  3.1458
  252MOL0     H33263   3.167   4.945   9.801  2.5909 -1.7898 -2.0581
  252MOL0     H33264   3.109   5.147   9.953 -0.1135 -0.3463  0.5373
  253MOL0     O33265   1.376   6.832   6.716  0.4667 -0.1948 -0.1571
  253MOL0     C33266   1.344   6.811   6.828 -0.2555  0.3864 -0.4973
  253MOL0     O33267   1.432   6.805   6.934 -0.1967  0.2977  0.0196
  253MOL0     C33268   1.549   6.869   6.917 -0.6570 -0.3168 -0.3946
  253MOL0     C33269   1.573   6.968   7.009  0.4006  0.0583  0.5336
  253MOL0     C33270   1.687   7.049   6.991  0.3639  0.1041 -0.5937
  253MOL0     C33271   1.784   7.023   6.888  0.2303  0.4835 -0.5065
  253MOL0     O33272   1.910   7.084   6.875 -0.6439  0.0495  0.1174
  253MOL0     C33273   1.926   7.185   6.977  1.0846  0.3473  1.2725
  253MOL0     C33274   2.054   7.268   6.947 -0.1495 -0.1384 -0.3937
  253MOL0     C33275   2.092   7.361   7.071  0.4220  0.6359  1.0840
  253MOL0     C33276   2.243   7.405   7.054 -0.6666 -0.3900 -0.3290
  253MOL0     C33277   2.297   7.457   7.190 -0.0067 -0.0012 -0.7903
  253MOL0     C33278   2.439   7.515   7.174 -0.3356  0.1124 -0.6200
  253MOL0     C33279   2.514   7.525   7.304 -0.2809 -0.0916 -0.0282
  253MOL0     C33280   2.667   7.493   7.282  0.0620  0.2212 -0.1463
  253MOL0     N33281   2.731   7.470   7.416  0.5548 -0.6508 -0.1313
  253MOL0     C33282   2.713   7.353   7.488  0.1031 -0.4026  0.0511
  253MOL0     C33283   2.812   7.350   7.586 -0.7285 -0.4546 -0.2034
  253MOL0     C33284   2.825   7.248   7.691 -0.3535  1.2369 -0.5636
  253MOL0     C33285   2.725   7.256   7.804  0.5088  0.3539  0.4070
  253MOL0     C33286   2.610   7.153   7.774 -0.4684  0.3376  0.3453
  253MOL0     C33287   2.527   7.123   7.898  0.2768  0.7115  0.2662
  253MOL0     O33288   2.483   7.244   7.969  0.2446 -0.1864  0.6245
  253MOL0     C33289   2.391   7.225   8.070 -0.1260 -0.5676 -0.2718
  253MOL0     C33290   2.331   7.345   8.107 -0.3314  0.2875 -0.1282
  253MOL0     C33291   2.241   7.348   8.210 -0.1454 -0.3847  0.1608
  253MOL0     C33292   2.199   7.229   8.277  0.3456  0.6791  0.2127
  253MOL0     C33293   2.087   7.235   8.379  0.8227  0.5256  0.0952
  253MOL0     O33294   2.047   7.114   8.442  0.4297  0.4499 -0.1548
  253MOL0     C33295   1.938   7.094   8.520  0.0600  0.9383 -0.4046
  253MOL0     C33296   1.941   6.989   8.615 -0.3248 -0.3498  0.5443
  253MOL0     C33297   1.821   6.948   8.686 -0.7965  0.1228 -0.8358
  253MOL0     C33298   1.699   7.010   8.665 -0.5172  0.7691 -0.3042
  253MOL0     O33299   1.586   6.971   8.727  0.3588 -0.1003  0.3603
  253MOL0     C33300   1.597   6.937   8.866  0.3629  0.3086 -0.5431
  253MOL0     C33301   1.456   6.922   8.916  0.5286 -0.5951  0.0241
  253MOL0     C33302   1.462   6.884   9.061 -0.1494  1.2919  0.6996
  253MOL0     C33303   1.322   6.902   9.139  0.4246  0.0631  0.5920
  253MOL0     C33304   1.322   6.865   9.287 -0.0439  0.3238  0.5915
  253MOL0     C33305   1.341   6.709   9.297 -0.1500 -0.1377 -0.1223
  253MOL0     C33306   1.321   6.657   9.435 -0.5425 -0.1335 -0.3110
  253MOL0     C33307   1.246   6.524   9.432 -0.4362  0.3503 -0.1865
  253MOL0    Cl33308   1.340   6.387   9.382  0.0270 -0.0630  0.0825
  253MOL0     C33309   1.699   7.105   8.564  0.5449 -0.0941  0.3075
  253MOL0     C33310   1.818   7.153   8.492  0.0261 -0.3875 -0.8017
  253MOL0     O33311   2.027   7.341   8.389 -0.4851  0.3068  0.1585
  253MOL0     C33312   2.259   7.106   8.238  0.1234  0.1904 -0.3022
  253MOL0     C33313   2.351   7.107   8.129 -0.4470  0.7017 -0.8622
  253MOL0     N33314   2.899   7.453   7.554 -0.0805 -0.1004  0.6728
  253MOL0     N33315   2.846   7.529   7.454 -0.3451  0.6835  0.1977
  253MOL0     C33316   1.753   6.918   6.804  0.5098 -0.2338  0.9085
  253MOL0     C33317   1.642   6.844   6.809  0.0496  0.4896  0.2507
  253MOL0     C33318   1.197   6.811   6.855 -0.1066  0.1223  0.1703
  253MOL0     C33319   1.113   6.755   6.762 -0.0577  0.4911  0.5074
  253MOL0     C33320   0.974   6.744   6.777  0.5844 -1.1253 -0.2658
  253MOL0     C33321   0.918   6.801   6.892 -0.2396  0.1459  0.5756
  253MOL0     O33322   0.780   6.786   6.890 -1.1437  1.0822  0.0351
  253MOL0     C33323   0.696   6.852   6.981 -0.3688 -0.0014  0.9557
  253MOL0     C33324   0.663   6.757   7.106 -0.3165  0.3679  0.0691
  253MOL0     C33325   0.537   6.680   7.091  0.6741 -0.1105 -0.4608
  253MOL0     C33326   0.528   6.574   7.203 -0.8746  0.4105 -0.0851
  253MOL0     C33327   0.388   6.527   7.218  0.3592  0.1374  0.7921
  253MOL0     C33328   0.277   6.493   7.224  0.5153 -0.3692 -0.4555
  253MOL0     C33329   0.998   6.869   6.985 -0.4920  0.2561 -0.5863
  253MOL0     C33330   1.135   6.855   6.975  0.1166  0.7417 -1.1175
  253MOL0     H33331   1.494   6.992   7.078  0.0767  1.5079 -0.2889
  253MOL0     H33332   1.711   7.119   7.071  1.4646  0.5538 -1.2958
  253MOL0     H33333   1.936   7.145   7.078  3.2970  1.6881  1.6462
  253MOL0     H33334   1.840   7.253   6.980 -1.4674 -2.6680  1.6775
  253MOL0     H33335   2.046   7.334   6.861  2.4112  2.3943  1.1188
  253MOL0     H33336   2.137   7.197   6.937  1.1297  1.4453 -1.5722
  253MOL0     H33337   2.082   7.298   7.160 -2.5112  0.0814  0.4601
  253MOL0     H33338   2.017   7.440   7.064 -2.6034 -2.1052 -0.3661
  253MOL0     H33339   2.308   7.328   7.010 -2.1707 -1.7004 -0.3239
  253MOL0     H33340   2.254   7.492   6.988 -1.4032 -0.9074 -1.1508
  253MOL0     H33341   2.297   7.378   7.265  1.2880  0.8046  0.1048
  253MOL0     H33342   2.236   7.535   7.237  1.8767  0.4641  1.0630
  253MOL0     H33343   2.449   7.611   7.124  2.5960 -0.7995 -2.0415
  253MOL0     H33344   2.482   7.437   7.110 -2.3142 -1.4442 -0.1815
  253MOL0     H33345   2.507   7.625   7.349  2.0053  0.8279 -1.5297
  253MOL0     H33346   2.478   7.455   7.380  5.2919  1.1022  4.3476
  253MOL0     H33347   2.719   7.566   7.219  0.4905 -0.2478 -0.3391
  253MOL0     H33348   2.664   7.401   7.224  2.3683  0.3795 -0.6172
  253MOL0     H33349   2.642   7.271   7.480  0.9037 -1.2834  1.5316
  253MOL0     H33350   2.918   7.264   7.747 -0.0853 -2.0040  0.1304
  253MOL0     H33351   2.829   7.152   7.637  1.1675  2.9548 -3.8092
  253MOL0     H33352   2.678   7.355   7.802 -2.3206 -0.8637  1.1595
  253MOL0     H33353   2.767   7.229   7.902 -0.2822  0.7683  0.8715
  253MOL0     H33354   2.542   7.187   7.695  1.9801 -0.3393 -2.2199
  253MOL0     H33355   2.651   7.057   7.740  0.6195  0.9155 -0.0223
  253MOL0     H33356   2.593   7.068   7.967  0.0059  0.5546  0.4033
  253MOL0     H33357   2.442   7.059   7.872 -0.5825  0.6944  2.8137
  253MOL0     H33358   2.349   7.431   8.044  0.5874 -0.6384 -1.1770
  253MOL0     H33359   2.201   7.447   8.231  0.5467  0.2317 -1.2922
  253MOL0     H33360   2.038   6.942   8.627 -0.2330 -0.4386 -0.4900
  253MOL0     H33361   1.835   6.872   8.761 -4.2295  1.3442  1.2555
  253MOL0     H33362   1.651   7.019   8.915 -1.3551  1.2848 -0.2260
  253MOL0     H33363   1.658   6.847   8.881  2.1750  1.3534 -1.2346
  253MOL0     H33364   1.406   6.840   8.863 -2.5014  0.2078  1.4432
  253MOL0     H33365   1.386   7.003   8.894  0.2347 -1.1318 -1.0806
  253MOL0     H33366   1.539   6.946   9.109  3.2765 -0.6966 -1.7675
  253MOL0     H33367   1.504   6.785   9.077 -1.8615  0.6099  1.1985
  253MOL0     H33368   1.290   7.007   9.138 -1.2808 -0.4081  1.3984
  253MOL0     H33369   1.246   6.842   9.088  0.3693 -2.6203  3.5554
  253MOL0     H33370   1.223   6.895   9.323 -1.4643 -1.6909 -1.3835
  253MOL0     H33371   1.406   6.913   9.338 -0.3020 -1.5566  2.9329
  253MOL0     H33372   1.432   6.666   9.255 -0.4246 -2.5310  1.5210
  253MOL0     H33373   1.271   6.662   9.227  2.1065 -0.3291 -2.3588
  253MOL0     H33374   1.416   6.643   9.487 -2.3414  0.8158  3.5374
  253MOL0     H33375   1.261   6.725   9.496 -0.9361  0.1902 -1.0364
  253MOL0     H33376   1.166   6.533   9.358  1.0325 -0.7482 -1.9777
  253MOL0     H33377   1.199   6.508   9.530 -0.5475  4.9282  0.7044
  253MOL0     H33378   1.600   7.148   8.549 -0.7505 -2.9716 -0.0903
  253MOL0     H33379   1.814   7.234   8.420  4.5548  1.5335  0.7751
  253MOL0     H33380   2.232   7.009   8.278 -1.7059  0.3623 -1.0276
  253MOL0     H33381   2.390   7.011   8.098 -1.2015  0.3981 -0.8779
  253MOL0     H33382   1.815   6.916   6.714 -1.5950  2.3589 -0.7469
  253MOL0     H33383   1.628   6.776   6.725 -0.3975  1.8165 -0.7964
  253MOL0     H33384   1.151   6.699   6.677 -0.0069  1.3690 -0.0567
  253MOL0     H33385   0.920   6.676   6.712  1.4283 -5.8030  3.3942
  253MOL0     H33386   0.602   6.871   6.927 -0.2690  1.1027  1.1534
  253MOL0     H33387   0.737   6.947   7.017  0.2207  1.3566 -2.7488
  253MOL0     H33388   0.743   6.686   7.127  1.0499  2.0040  0.6727
  253MOL0     H33389   0.658   6.831   7.186 -0.7639  1.6644 -1.1011
  253MOL0     H33390   0.536   6.630   6.994 -1.2239 -1.1891  0.0576
  253MOL0     H33391   0.461   6.759   7.088 -0.6469 -1.1890  1.8401
  253MOL0     H33392   0.594   6.489   7.185  0.0137  0.7349  1.5030
  253MOL0     H33393   0.565   6.616   7.297  0.9884 -2.0027  0.3491
  253MOL0     H33394   0.177   6.454   7.218  0.2836  0.0837  0.3281
  253MOL0     H33395   0.945   6.906   7.072  0.1297 -2.3508  0.9924
  253MOL0     H33396   1.194   6.891   7.058 -1.3560 -1.7262  1.1498
  254MOL0     O33397   2.583  10.966   1.913 -0.7415 -0.1469 -0.3768
  254MOL0     C33398   2.466  10.941   1.931 -0.7494 -0.4200  0.3013
  254MOL0     O33399   2.371  10.930   1.840  0.3231 -0.8175  0.1942
  254MOL0     C33400   2.371  10.988   1.715  0.6767  0.1991 -1.1374
  254MOL0     C33401   2.492  11.016   1.644 -0.3979  0.5733  1.1910
  254MOL0     C33402   2.473  11.079   1.517  0.0817 -0.1263  0.7078
  254MOL0     C33403   2.345  11.104   1.455 -0.2033  0.3599 -0.6319
  254MOL0     O33404   2.321  11.140   1.325 -0.0220 -0.0157  0.0247
  254MOL0     C33405   2.422  11.127   1.226  0.1304  0.0245  0.4360
  254MOL0     C33406   2.372  11.078   1.091  0.4398  0.1267 -0.2730
  254MOL0     C33407   2.236  11.149   1.049 -0.0300  1.0661 -0.2661
  254MOL0     C33408   2.185  11.080   0.923  0.4164 -0.0981  0.6080
  254MOL0     C33409   2.056  11.134   0.865  0.1779 -0.3536  0.4853
  254MOL0     C33410   2.039  11.094   0.717 -0.3942 -0.1365  0.2240
  254MOL0     C33411   1.903  11.147   0.663 -0.7150 -0.7023 -0.2289
  254MOL0     C33412   1.793  11.064   0.712  0.6227  0.2325 -0.3245
  254MOL0     N33413   1.683  11.065   0.611  0.3172  0.4165  0.2639
  254MOL0     C33414   1.607  11.176   0.578  0.4065 -0.6293 -0.0642
  254MOL0     C33415   1.514  11.133   0.485  0.5673 -0.1801 -0.3724
  254MOL0     C33416   1.416  11.226   0.420  0.0007  0.6325 -1.0777
  254MOL0     C33417   1.472  11.313   0.311 -0.4120 -0.2387 -0.4325
  254MOL0     C33418   1.570  11.423   0.356 -0.6556 -0.7688 -0.0501
  254MOL0     C33419   1.497  11.519   0.439 -0.5020 -0.1829 -0.5693
  254MOL0     O33420   1.586  11.635   0.455 -0.5898  0.7559  0.1455
  254MOL0     C33421   1.537  11.724   0.540  0.3757  0.0514 -1.0896
  254MOL0     C33422   1.408  11.726   0.603  0.7460 -0.4668  0.3082
  254MOL0     C33423   1.366  11.825   0.697 -0.4647 -0.4573  0.9364
  254MOL0     C33424   1.458  11.924   0.729 -0.7219  0.5479 -0.3357
  254MOL0     C33425   1.427  12.031   0.831  0.0264  0.1438  1.2035
  254MOL0     O33426   1.531  12.109   0.864 -0.4158  0.8078 -0.8849
  254MOL0     C33427   1.520  12.186   0.976 -0.0473 -0.1376  0.6245
  254MOL0     C33428   1.483  12.315   0.955 -0.0952  0.6316 -0.4526
  254MOL0     C33429   1.463  12.398   1.065  0.6455  0.2685 -0.3572
  254MOL0     C33430   1.482  12.347   1.192 -0.3440  0.1981  0.6135
  254MOL0     O33431   1.485  12.423   1.309  0.2574  0.6498  1.2494
  254MOL0     C33432   1.434  12.559   1.312 -0.0394  0.4389  0.0891
  254MOL0     C33433   1.422  12.595   1.457 -0.9704 -0.5651 -0.5068
  254MOL0     C33434   1.550  12.639   1.530 -0.6188 -0.6594 -0.4569
  254MOL0     C33435   1.577  12.785   1.489  0.6618 -0.4421 -0.0375
  254MOL0     C33436   1.686  12.834   1.579  0.4380  0.5456  0.0424
  254MOL0     C33437   1.825  12.775   1.551  0.3593 -0.1794  0.0582
  254MOL0     C33438   1.881  12.796   1.408  0.2489  0.2217 -0.2245
  254MOL0     C33439   1.996  12.709   1.366  0.7196  0.7115  0.1507
  254MOL0    Cl33440   1.970  12.536   1.424  0.4576 -0.1424  0.1096
  254MOL0     C33441   1.527  12.211   1.210  0.3088 -0.2368  0.3453
  254MOL0     C33442   1.549  12.131   1.101 -0.7665  0.2705 -0.6409
  254MOL0     O33443   1.319  12.027   0.891 -0.3485 -0.4059  0.2279
  254MOL0     C33444   1.583  11.925   0.666 -0.4267  0.2252 -0.1198
  254MOL0     C33445   1.621  11.830   0.572 -0.4060 -0.5713  0.9560
  254MOL0     N33446   1.541  11.001   0.452  0.6217 -0.2909 -0.5535
  254MOL0     N33447   1.645  10.968   0.528  1.3040  0.0889  0.2628
  254MOL0     C33448   2.236  11.088   1.528  0.2789 -0.3608 -0.3125
  254MOL0     C33449   2.247  11.021   1.653 -0.4104 -0.6977 -0.2569
  254MOL0     C33450   2.418  10.913   2.061 -0.4322  0.5712  0.4792
  254MOL0     C33451   2.301  10.836   2.081  0.0774  0.9749  0.2866
  254MOL0     C33452   2.241  10.822   2.205  0.1825 -0.4693 -0.3599
  254MOL0     C33453   2.309  10.857   2.326  0.3740 -1.0318 -0.4300
  254MOL0     O33454   2.275  10.829   2.449 -0.2040 -0.1134 -0.3657
  254MOL0     C33455   2.160  10.898   2.498 -0.5575 -0.3785  0.0388
  254MOL0     C33456   2.029  10.820   2.470  0.0952  1.1936  0.2338
  254MOL0     C33457   2.024  10.683   2.545 -0.5574  0.6386  0.4545
  254MOL0     C33458   1.906  10.603   2.494 -1.1241 -0.2907  0.1980
  254MOL0     C33459   1.905  10.467   2.550  0.3613 -0.7806 -0.0640
  254MOL0     C33460   1.906  10.357   2.601 -0.3563 -0.1235  0.7855
  254MOL0     C33461   2.423  10.940   2.306 -0.0571  0.0861 -0.2891
  254MOL0     C33462   2.475  10.958   2.180 -0.9574  0.6694  0.4400
  254MOL0     H33463   2.594  10.995   1.675 -0.5415 -0.2741  1.1299
  254MOL0     H33464   2.558  11.107   1.456  1.5805 -0.0178  2.7419
  254MOL0     H33465   2.497  11.061   1.271  0.3282 -1.0533 -1.3528
  254MOL0     H33466   2.455  11.226   1.194 -1.1279  0.3854  0.1995
  254MOL0     H33467   2.338  10.974   1.104  0.8739 -0.2958 -2.2417
  254MOL0     H33468   2.449  11.086   1.014 -0.4957 -0.7751 -1.3461
  254MOL0     H33469   2.252  11.256   1.033  1.3238  0.7838 -0.9890
  254MOL0     H33470   2.156  11.141   1.123 -0.9685  1.2808 -1.2359
  254MOL0     H33471   2.266  11.080   0.849  0.7607  2.7638  0.8575
  254MOL0     H33472   2.161  10.975   0.940  2.4713 -0.2193  3.3513
  254MOL0     H33473   2.067  11.242   0.877 -0.6019 -0.5984  5.0464
  254MOL0     H33474   1.975  11.094   0.927 -0.7326  0.7981  0.0801
  254MOL0     H33475   2.039  10.986   0.699  3.0132  0.1807 -2.5810
  254MOL0     H33476   2.129  11.129   0.667  1.3621 -1.7544  2.0948
  254MOL0     H33477   1.887  11.250   0.697  2.1896 -0.7779  1.8081
  254MOL0     H33478   1.899  11.160   0.555  0.2195  0.1697 -0.1849
  254MOL0     H33479   1.759  11.096   0.811  0.1671  1.9298 -0.9841
  254MOL0     H33480   1.825  10.961   0.726  2.1870  0.9852  2.2864
  254MOL0     H33481   1.616  11.273   0.627 -3.0601 -0.9085  1.4331
  254MOL0     H33482   1.372  11.291   0.496  2.2692  1.3063 -0.2553
  254MOL0     H33483   1.338  11.167   0.371  1.5847  0.2523 -3.2418
  254MOL0     H33484   1.389  11.356   0.253 -1.2940 -0.3515  0.7213
  254MOL0     H33485   1.524  11.242   0.246 -3.1082 -2.1023 -0.7297
  254MOL0     H33486   1.653  11.374   0.407 -0.2070  0.3456  0.3365
  254MOL0     H33487   1.625  11.478   0.279 -2.5145  1.4542  0.0873
  254MOL0     H33488   1.489  11.472   0.537  4.1651  1.0973  0.6437
  254MOL0     H33489   1.397  11.545   0.401 -1.0369  0.7261  1.3574
  254MOL0     H33490   1.331  11.656   0.572  0.3613 -0.2177  0.7022
  254MOL0     H33491   1.266  11.815   0.738 -2.5045  1.2703 -3.1044
  254MOL0     H33492   1.486  12.356   0.855  1.8657 -0.0005 -0.7053
  254MOL0     H33493   1.427  12.499   1.049 -0.5990 -0.2922 -1.3727
  254MOL0     H33494   1.340  12.573   1.257  0.5854  4.5401 -0.2716
  254MOL0     H33495   1.505  12.627   1.264  1.1071 -0.9188 -0.1973
  254MOL0     H33496   1.383  12.507   1.509 -1.0070 -0.9682 -1.2136
  254MOL0     H33497   1.350  12.677   1.468 -0.9012 -0.6991  1.2732
  254MOL0     H33498   1.635  12.578   1.500 -2.1614 -4.7854  2.6442
  254MOL0     H33499   1.541  12.629   1.638 -0.4211 -0.4290 -0.4173
  254MOL0     H33500   1.598  12.800   1.383  0.8795 -0.9952 -0.0778
  254MOL0     H33501   1.490  12.845   1.514  1.1782  0.3065 -0.0056
  254MOL0     H33502   1.657  12.819   1.683 -0.0580 -0.1429 -0.1921
  254MOL0     H33503   1.691  12.942   1.561  0.8321  0.4426 -0.4848
  254MOL0     H33504   1.818  12.669   1.576 -1.8857  0.0560  0.6732
  254MOL0     H33505   1.894  12.823   1.621  1.1640 -0.6598 -0.3958
  254MOL0     H33506   1.796  12.756   1.352 -2.9316  0.1641  4.1307
  254MOL0     H33507   1.893  12.904   1.398 -0.7776  0.7842  3.2640
  254MOL0     H33508   2.082  12.750   1.419  0.6637  3.6294 -1.8366
  254MOL0     H33509   2.016  12.709   1.259  2.6160 -0.4473  0.4603
  254MOL0     H33510   1.550  12.173   1.309 -1.0060 -0.2244  0.6702
  254MOL0     H33511   1.585  12.029   1.103 -2.7275 -0.5146 -1.9870
  254MOL0     H33512   1.657  12.000   0.691 -1.6767  0.4011  3.7652
  254MOL0     H33513   1.721  11.835   0.529 -0.8619  1.6018 -0.0311
  254MOL0     H33514   2.135  11.116   1.501 -0.4686 -3.0091 -0.4613
  254MOL0     H33515   2.155  11.001   1.706 -1.2961 -0.9849 -1.8467
  254MOL0     H33516   2.252  10.779   2.003  1.3298  0.2618 -0.0155
  254MOL0     H33517   2.156  10.755   2.215 -0.3921  0.1515 -1.0148
  254MOL0     H33518   2.145  10.993   2.445 -0.1351 -0.9559 -1.1426
  254MOL0     H33519   2.175  10.900   2.607 -1.2953 -1.0342  0.1589
  254MOL0     H33520   1.948  10.886   2.502 -0.8336  0.3236 -0.2363
  254MOL0     H33521   2.025  10.805   2.361  2.3712  0.2095  0.2270
  254MOL0     H33522   2.008  10.697   2.652  2.2773  0.1978  1.0247
  254MOL0     H33523   2.118  10.626   2.538 -0.4481  0.7333  1.1206
  254MOL0     H33524   1.822  10.666   2.521 -1.1153 -0.3840  0.4419
  254MOL0     H33525   1.917  10.591   2.386  1.4741  1.2342  0.2046
  254MOL0     H33526   1.883  10.261   2.643 -2.1776 -1.5360 -2.9423
  254MOL0     H33527   2.484  10.969   2.391 -0.3992 -1.1284  0.4079
  254MOL0     H33528   2.569  11.012   2.172 -0.4439 -0.4167 -1.6762
  255MOL0     O33529   6.681   4.298   7.442 -0.3118  0.1675  0.0920
  255MOL0     C33530   6.788   4.314   7.388  0.0475  0.0028 -1.2431
  255MOL0     O33531   6.841   4.235   7.288  0.1477  0.6443  0.8995
  255MOL0     C33532   6.789   4.108   7.269 -0.0815 -0.6166 -0.2455
  255MOL0     C33533   6.878   3.999   7.267 -0.2125  0.8551  0.2497
  255MOL0     C33534   6.828   3.866   7.227 -1.1073 -0.3587  0.1055
  255MOL0     C33535   6.692   3.843   7.208 -0.5474 -0.4891 -0.3911
  255MOL0     O33536   6.642   3.726   7.158 -0.0103 -0.4396 -0.6349
  255MOL0     C33537   6.701   3.609   7.205 -0.3651  0.3748 -0.5023
  255MOL0     C33538   6.598   3.491   7.201 -0.5193  0.9267 -0.1376
  255MOL0     C33539   6.527   3.463   7.059  0.2056  0.9982  0.2241
  255MOL0     C33540   6.436   3.350   7.078  0.2108 -0.5603 -0.7280
  255MOL0     C33541   6.417   3.283   6.946  0.4363 -0.0185 -0.0228
  255MOL0     C33542   6.344   3.148   6.985 -0.5612 -0.5650 -0.0779
  255MOL0     C33543   6.314   3.066   6.862 -0.3390 -0.4368 -0.0512
  255MOL0     C33544   6.243   2.945   6.918 -0.8351  0.6192  0.3639
  255MOL0     N33545   6.118   2.978   6.975  0.9502 -0.2566  0.4216
  255MOL0     C33546   6.085   2.985   7.114 -0.5845  0.3633  0.2689
  255MOL0     C33547   5.953   2.999   7.121 -0.7671  0.0577 -0.6656
  255MOL0     C33548   5.864   3.014   7.247 -0.2684  0.3435  0.2304
  255MOL0     C33549   5.714   3.038   7.212 -0.7500 -0.9492 -1.2861
  255MOL0     C33550   5.635   3.087   7.338  0.4612  0.2272  0.5018
  255MOL0     C33551   5.639   2.966   7.432 -1.5457 -1.0456 -0.5820
  255MOL0     O33552   5.558   3.012   7.546 -0.3721  0.3553 -0.7995
  255MOL0     C33553   5.427   3.002   7.549  1.2961  0.5686  0.1663
  255MOL0     C33554   5.367   3.027   7.674 -0.0004  0.0662  0.9651
  255MOL0     C33555   5.233   2.998   7.687 -0.4361 -0.3858  0.0131
  255MOL0     C33556   5.151   2.936   7.579 -0.2511 -0.2064 -0.1263
  255MOL0     C33557   5.014   2.896   7.591 -0.9290  0.8048 -0.9491
  255MOL0     O33558   4.960   2.801   7.511 -0.9923  0.3706 -0.4065
  255MOL0     C33559   4.835   2.766   7.545  0.0383  0.0584  0.2491
  255MOL0     C33560   4.797   2.639   7.565  0.1953  0.4009 -1.0669
  255MOL0     C33561   4.667   2.597   7.578  0.5097  0.1318 -0.9863
  255MOL0     C33562   4.558   2.695   7.567 -0.6483  0.0481 -0.5082
  255MOL0     O33563   4.426   2.655   7.577 -0.2980 -0.9077 -0.2498
  255MOL0     C33564   4.367   2.673   7.716  0.2207  0.8292  0.6475
  255MOL0     C33565   4.403   2.562   7.812  0.4549 -0.0346  0.1680
  255MOL0     C33566   4.304   2.448   7.824 -0.6319  0.0082  1.2416
  255MOL0     C33567   4.207   2.475   7.937  0.3697 -0.7396 -0.1294
  255MOL0     C33568   4.262   2.474   8.078  0.3644  0.2505 -0.3504
  255MOL0     C33569   4.362   2.361   8.099 -0.1097  0.5200  0.6868
  255MOL0     C33570   4.417   2.351   8.245 -0.1862 -0.5593 -0.4427
  255MOL0     C33571   4.490   2.214   8.254  0.0790 -0.0854 -0.0828
  255MOL0    Cl33572   4.365   2.082   8.271  0.0366 -0.1123  0.0828
  255MOL0     C33573   4.597   2.828   7.548 -0.2333 -0.1481  0.6646
  255MOL0     C33574   4.727   2.861   7.533  0.3946  0.0595  0.0180
  255MOL0     O33575   4.967   2.952   7.693 -0.1750  0.6734 -0.3227
  255MOL0     C33576   5.216   2.910   7.461 -0.1033  0.3444  0.7690
  255MOL0     C33577   5.349   2.947   7.445  0.7865 -0.5053  0.2180
  255MOL0     N33578   5.908   2.988   6.997 -0.3796  0.0893 -0.4034
  255MOL0     N33579   6.000   2.987   6.910 -0.0636  0.3049 -1.0453
  255MOL0     C33580   6.609   3.950   7.217  0.6099 -0.6539 -0.0921
  255MOL0     C33581   6.655   4.080   7.238  0.7442  0.1477 -0.2763
  255MOL0     C33582   6.852   4.444   7.427  0.0901  0.6940 -0.7728
  255MOL0     C33583   6.964   4.499   7.356 -0.2201  0.1102  0.6213
  255MOL0     C33584   7.024   4.622   7.400  0.4210  0.1341 -0.1361
  255MOL0     C33585   6.973   4.694   7.510  0.5822  0.3441 -0.0634
  255MOL0     O33586   7.019   4.820   7.533  1.3491  0.3833 -0.2474
  255MOL0     C33587   6.971   4.898   7.642  0.2385 -0.0972 -0.3415
  255MOL0     C33588   7.047   5.027   7.645  0.6327 -0.6491 -0.0263
  255MOL0     C33589   7.198   5.013   7.673  0.5760  0.3235 -0.0297
  255MOL0     C33590   7.221   4.938   7.807 -0.1174 -0.5698  1.1462
  255MOL0     C33591   7.349   4.978   7.857 -0.5961  0.8767  0.2323
  255MOL0     C33592   7.468   5.006   7.889 -1.1615 -0.8837  0.3271
  255MOL0     C33593   6.860   4.643   7.573  0.3119  0.0758  0.3714
  255MOL0     C33594   6.793   4.526   7.531 -0.3607 -0.4775 -0.2810
  255MOL0     H33595   6.984   4.018   7.277 -0.4238  1.8434  0.7185
  255MOL0     H33596   6.905   3.790   7.235  0.6791  1.5445  2.6612
  255MOL0     H33597   6.751   3.621   7.301  0.3644  0.2928 -0.8640
  255MOL0     H33598   6.786   3.593   7.137  2.5636  1.2087  2.7039
  255MOL0     H33599   6.518   3.503   7.275 -0.7153 -2.4831  0.3855
  255MOL0     H33600   6.662   3.404   7.218 -1.4592  0.3655  0.7118
  255MOL0     H33601   6.610   3.441   6.991  1.2196  2.0415  1.0804
  255MOL0     H33602   6.478   3.555   7.026 -2.5876  0.0773  1.5333
  255MOL0     H33603   6.493   3.285   7.146  1.3517 -1.2303 -2.2655
  255MOL0     H33604   6.342   3.382   7.124  0.9970  0.6424  0.1184
  255MOL0     H33605   6.512   3.257   6.897  0.0878 -3.5580  0.9121
  255MOL0     H33606   6.361   3.351   6.881 -1.3214 -1.1004  0.3069
  255MOL0     H33607   6.251   3.177   7.036 -0.3731  1.0726 -0.5901
  255MOL0     H33608   6.425   3.096   7.037  2.4711  0.7175 -3.1226
  255MOL0     H33609   6.246   3.122   6.797 -1.9073  3.8528  4.6512
  255MOL0     H33610   6.409   3.026   6.825 -0.5687 -2.7163  1.6400
  255MOL0     H33611   6.297   2.901   7.003 -2.2142  1.2386  1.6089
  255MOL0     H33612   6.233   2.874   6.835  0.5498 -1.1511  1.6205
  255MOL0     H33613   6.161   2.988   7.191 -1.3505  2.0734  0.9907
  255MOL0     H33614   5.896   3.107   7.295 -3.1912  2.0600 -0.8731
  255MOL0     H33615   5.888   2.925   7.306  3.2197  0.0185 -1.3805
  255MOL0     H33616   5.674   2.946   7.169 -0.6233 -0.9715 -1.3566
  255MOL0     H33617   5.718   3.122   7.142 -1.9334 -2.4705 -3.2801
  255MOL0     H33618   5.693   3.162   7.393 -2.2150  0.9025  2.6060
  255MOL0     H33619   5.540   3.129   7.304  2.5310  1.9430 -3.8837
  255MOL0     H33620   5.741   2.949   7.466 -2.0436 -2.7157  0.1675
  255MOL0     H33621   5.628   2.863   7.399  0.3213 -2.6770  3.3074
  255MOL0     H33622   5.419   3.088   7.748  0.2626 -1.8813  2.4589
  255MOL0     H33623   5.189   3.027   7.782 -2.2224 -0.2878 -0.7971
  255MOL0     H33624   4.871   2.559   7.568 -0.1819  0.0519  1.8660
  255MOL0     H33625   4.632   2.495   7.586  0.0458  0.1155 -2.7544
  255MOL0     H33626   4.258   2.666   7.709  0.3604 -0.1546 -1.9684
  255MOL0     H33627   4.399   2.765   7.766  0.7899  0.4792  0.9441
  255MOL0     H33628   4.431   2.604   7.909  3.6991 -0.1239 -0.6357
  255MOL0     H33629   4.503   2.521   7.796  1.7723  2.6791  0.8976
  255MOL0     H33630   4.360   2.355   7.833 -0.2495  0.3414  2.5624
  255MOL0     H33631   4.243   2.441   7.734  1.8768  1.3406 -0.6821
  255MOL0     H33632   4.181   2.581   7.925  1.5510 -0.4147  0.1366
  255MOL0     H33633   4.119   2.413   7.916 -0.8252  1.2962 -1.5635
  255MOL0     H33634   4.184   2.495   8.152  2.7240  1.8428  1.8975
  255MOL0     H33635   4.321   2.563   8.104 -1.3589  0.6608  2.6115
  255MOL0     H33636   4.456   2.380   8.047 -0.3463  2.3034  0.8404
  255MOL0     H33637   4.333   2.264   8.057  4.3295 -0.9966  0.5858
  255MOL0     H33638   4.481   2.437   8.266 -0.7368 -0.6446  1.9006
  255MOL0     H33639   4.348   2.345   8.330  0.7538  4.4417  1.0509
  255MOL0     H33640   4.553   2.222   8.342  1.3695 -2.2251 -0.7247
  255MOL0     H33641   4.553   2.191   8.167 -2.1970  0.4643 -2.0112
  255MOL0     H33642   4.519   2.901   7.530 -1.2942 -1.5347 -0.5052
  255MOL0     H33643   4.755   2.963   7.509  0.9419  0.0322  0.5198
  255MOL0     H33644   5.164   2.850   7.387 -0.2723  0.1286  1.0575
  255MOL0     H33645   5.395   2.930   7.348  2.2264  4.7433 -0.3294
  255MOL0     H33646   6.505   3.934   7.192  0.3812  1.2500 -0.5458
  255MOL0     H33647   6.585   4.163   7.240 -0.7983 -1.1376  0.6275
  255MOL0     H33648   7.007   4.441   7.275  1.2999 -1.1195  2.2451
  255MOL0     H33649   7.111   4.657   7.346 -2.4436  3.1488 -3.2731
  255MOL0     H33650   6.971   4.841   7.735 -5.0641  1.0652  0.6620
  255MOL0     H33651   6.866   4.924   7.630  0.1986 -0.1521 -0.1129
  255MOL0     H33652   7.019   5.080   7.553 -0.8661  0.4267  0.9972
  255MOL0     H33653   7.002   5.079   7.730  0.8733 -1.8570  0.8660
  255MOL0     H33654   7.241   5.113   7.684  0.4906  0.5694 -1.6193
  255MOL0     H33655   7.235   4.960   7.584 -0.8676  2.4442 -2.0244
  255MOL0     H33656   7.156   4.963   7.891 -1.3792  2.7474 -0.6181
  255MOL0     H33657   7.223   4.833   7.775 -3.2391 -0.6052  0.7062
  255MOL0     H33658   7.561   5.030   7.936 -0.3609 -1.4258 -0.9303
  255MOL0     H33659   6.813   4.697   7.655  1.1658  1.7925 -0.2131
  255MOL0     H33660   6.695   4.497   7.566  0.2962 -0.4264  1.6928
  256MOL0     O33661   8.109   3.225   0.948  0.2948 -0.5698  0.1664
  256MOL0     C33662   8.087   3.298   0.862 -0.4714 -0.5503 -0.2991
  256MOL0     O33663   8.148   3.428   0.854 -0.3189 -0.1002  0.3989
  256MOL0     C33664   8.217   3.467   0.966  0.5351 -0.0771  0.6143
  256MOL0     C33665   8.331   3.403   1.020  0.1570 -0.2892  0.4559
  256MOL0     C33666   8.401   3.453   1.125 -0.6752 -0.0157 -0.4822
  256MOL0     C33667   8.357   3.562   1.198  0.7687 -0.0090  0.7973
  256MOL0     O33668   8.402   3.611   1.311 -1.1312 -0.2360 -0.7416
  256MOL0     C33669   8.504   3.540   1.381 -0.4950 -0.7220 -0.4709
  256MOL0     C33670   8.512   3.599   1.525  0.9225  0.8000 -0.3541
  256MOL0     C33671   8.644   3.620   1.573  0.2765  0.1037  0.3107
  256MOL0     C33672   8.656   3.706   1.698 -0.3938 -0.3076 -0.3533
  256MOL0     C33673   8.800   3.724   1.742  0.0235  0.7245 -0.1490
  256MOL0     C33674   8.865   3.840   1.670  0.8874 -0.0541  0.9344
  256MOL0     C33675   8.998   3.876   1.729 -0.1138  1.2413 -1.1126
  256MOL0     C33676   8.983   3.978   1.838 -0.1131 -0.0972  0.3344
  256MOL0     N33677   9.121   4.007   1.902  0.2609 -0.9650  0.1678
  256MOL0     C33678   9.217   4.072   1.836 -0.3421  1.4015  0.1703
  256MOL0     C33679   9.315   4.080   1.926 -0.0457 -0.6061  0.3864
  256MOL0     C33680   9.445   4.163   1.900 -0.0021  0.7827 -0.3358
  256MOL0     C33681   9.553   4.061   1.874  0.0756 -0.0843  0.6964
  256MOL0     C33682   9.604   3.976   1.996 -0.3807  0.8484 -0.2908
  256MOL0     C33683   9.675   3.853   1.945 -0.0542 -0.1514  0.1250
  256MOL0     O33684   9.722   3.777   2.052 -0.4435 -0.0702 -0.4343
  256MOL0     C33685   9.643   3.668   2.085 -0.6120  0.0344 -0.2750
  256MOL0     C33686   9.561   3.684   2.199 -0.0962 -0.4681 -0.1515
  256MOL0     C33687   9.483   3.575   2.249  0.0490 -0.0145  0.1741
  256MOL0     C33688   9.496   3.449   2.193  0.8502  0.1938  0.7178
  256MOL0     C33689   9.405   3.325   2.240 -0.1045 -0.6035 -0.4648
  256MOL0     O33690   9.302   3.350   2.323  1.1392  0.4803 -0.0975
  256MOL0     C33691   9.215   3.247   2.362 -0.0911 -0.3166 -0.1695
  256MOL0     C33692   9.082   3.271   2.376  0.9404 -0.8441 -0.6736
  256MOL0     C33693   8.981   3.173   2.419 -0.3884  0.0691  0.2954
  256MOL0     C33694   9.026   3.048   2.443  0.4569  0.2045  0.2843
  256MOL0     O33695   8.929   2.960   2.485  0.0047  0.1758 -0.3253
  256MOL0     C33696   8.960   2.820   2.515  0.1088 -0.3955  1.1545
  256MOL0     C33697   8.847   2.737   2.553  0.5362  0.0485  0.3987
  256MOL0     C33698   8.729   2.755   2.446  0.6343  0.3074 -0.3498
  256MOL0     C33699   8.594   2.712   2.496 -0.2870  0.1736 -0.2347
  256MOL0     C33700   8.507   2.642   2.388  0.3871 -0.1774  0.5210
  256MOL0     C33701   8.374   2.579   2.434 -0.1249 -0.0460 -0.4500
  256MOL0     C33702   8.283   2.689   2.483 -1.3100 -0.0888 -0.6774
  256MOL0     C33703   8.137   2.637   2.479 -0.7632 -0.5578 -0.7596
  256MOL0    Cl33704   8.108   2.493   2.575  0.4870 -0.0922  0.1012
  256MOL0     C33705   9.162   3.024   2.426 -0.4819  0.2033 -0.2952
  256MOL0     C33706   9.258   3.121   2.396 -0.1870 -0.5484  0.0384
  256MOL0     O33707   9.458   3.212   2.208 -0.1639  0.6428  0.8171
  256MOL0     C33708   9.590   3.431   2.094 -0.9465  0.3310  0.2777
  256MOL0     C33709   9.656   3.538   2.036 -0.0490  0.0703 -0.6629
  256MOL0     N33710   9.279   4.009   2.040 -0.2034  0.0569  0.0472
  256MOL0     N33711   9.163   3.964   2.024 -0.0127 -0.3738 -0.0286
  256MOL0     C33712   8.236   3.622   1.153 -0.4713 -0.0576 -0.2821
  256MOL0     C33713   8.176   3.571   1.046 -0.7021 -0.6284 -0.1070
  256MOL0     C33714   8.010   3.253   0.751  0.0375  0.5738  0.4203
  256MOL0     C33715   7.927   3.135   0.757 -0.5934 -0.3972 -0.7775
  256MOL0     C33716   7.858   3.097   0.647  1.1923 -0.0097  0.3601
  256MOL0     C33717   7.871   3.149   0.519  0.3181  0.0685 -0.6941
  256MOL0     O33718   7.807   3.099   0.413 -0.7513  0.5441 -0.9160
  256MOL0     C33719   7.820   3.141   0.277  0.3568  0.9199 -0.9192
  256MOL0     C33720   7.936   3.085   0.199 -0.4248 -0.0079 -0.3016
  256MOL0     C33721   7.919   2.929   0.187 -0.2707 -0.3438  0.5562
  256MOL0     C33722   8.042   2.852   0.131  0.0975 -1.3299 -0.7155
  256MOL0     C33723   8.174   2.869   0.203 -0.3880  0.1478  0.1285
  256MOL0     C33724   8.279   2.856   0.266 -0.3071 -0.7908 -0.0672
  256MOL0     C33725   7.960   3.259   0.513 -0.3365 -0.6069  0.0601
  256MOL0     C33726   8.029   3.309   0.623 -0.0005 -0.3989  1.0068
  256MOL0     H33727   8.366   3.315   0.967  2.1926  1.5319 -1.4162
  256MOL0     H33728   8.500   3.415   1.148 -0.2001  1.2183 -0.4141
  256MOL0     H33729   8.606   3.551   1.342  0.8013 -0.3868  2.6817
  256MOL0     H33730   8.493   3.431   1.390  3.8379 -1.5283 -2.4194
  256MOL0     H33731   8.456   3.530   1.590  3.2436  2.8037  4.2984
  256MOL0     H33732   8.450   3.689   1.521 -1.0591 -0.5432 -3.3484
  256MOL0     H33733   8.695   3.686   1.502 -0.7482  0.7576  0.1605
  256MOL0     H33734   8.701   3.527   1.585 -1.4535 -1.1446 -0.7527
  256MOL0     H33735   8.608   3.804   1.689  1.3022  0.5279 -0.8673
  256MOL0     H33736   8.606   3.646   1.774  0.2689  1.6815  1.8104
  256MOL0     H33737   8.853   3.630   1.728 -0.7225  0.3130 -0.2400
  256MOL0     H33738   8.814   3.750   1.848  1.1819  0.0711 -0.1198
  256MOL0     H33739   8.798   3.926   1.683  1.0034  0.2778 -0.4432
  256MOL0     H33740   8.881   3.808   1.566  1.9198  1.0499  0.7167
  256MOL0     H33741   9.050   3.792   1.777  0.8123  3.5394  2.3079
  256MOL0     H33742   9.055   3.922   1.648 -0.5661 -0.1435 -2.2441
  256MOL0     H33743   8.920   3.934   1.915 -0.0685  0.6053  0.7802
  256MOL0     H33744   8.936   4.068   1.797  0.3127 -1.0894 -2.6218
  256MOL0     H33745   9.223   4.117   1.738 -0.2356 -1.2447 -1.1246
  256MOL0     H33746   9.466   4.226   1.986  1.1879 -1.6925  1.3193
  256MOL0     H33747   9.443   4.230   1.813  1.2049  0.5389 -0.5658
  256MOL0     H33748   9.639   4.115   1.833 -0.1423 -1.2748 -1.5255
  256MOL0     H33749   9.525   3.994   1.791  0.0565  1.5310 -0.6478
  256MOL0     H33750   9.682   4.035   2.045  0.6751 -1.8725  1.5752
  256MOL0     H33751   9.514   3.946   2.051  0.3400  0.3837  0.6750
  256MOL0     H33752   9.758   3.897   1.888  0.8609  0.1538  1.6488
  256MOL0     H33753   9.601   3.802   1.883  0.5143  0.1797 -0.8553
  256MOL0     H33754   9.562   3.785   2.238  0.3139  0.2347 -1.9026
  256MOL0     H33755   9.411   3.593   2.328 -2.4161 -0.3853 -1.8595
  256MOL0     H33756   9.047   3.373   2.369  0.9095 -0.8577 -0.7162
  256MOL0     H33757   8.878   3.201   2.435 -0.7915 -0.3021 -1.4267
  256MOL0     H33758   9.038   2.822   2.592  1.7659  0.2306 -0.4505
  256MOL0     H33759   9.004   2.781   2.422 -3.7091  2.0860 -2.0579
  256MOL0     H33760   8.818   2.780   2.649 -0.7375  4.2794 -1.6556
  256MOL0     H33761   8.860   2.629   2.564 -1.2331 -0.3134 -0.6735
  256MOL0     H33762   8.749   2.696   2.356 -0.1152  1.5236 -1.3571
  256MOL0     H33763   8.707   2.856   2.410  1.2432  1.3425  2.0041
  256MOL0     H33764   8.607   2.642   2.579 -1.2095  0.3512  0.0613
  256MOL0     H33765   8.546   2.795   2.548  1.1118  0.5483  0.5039
  256MOL0     H33766   8.566   2.564   2.340  0.5406  0.2348  0.0335
  256MOL0     H33767   8.493   2.716   2.309 -1.6867  0.3259  1.2676
  256MOL0     H33768   8.398   2.504   2.510 -2.9646  1.9266  2.6634
  256MOL0     H33769   8.330   2.526   2.349 -0.8565  0.1384 -0.1945
  256MOL0     H33770   8.291   2.713   2.589  0.7540  0.0204 -0.8225
  256MOL0     H33771   8.298   2.782   2.428 -2.8154  1.6084  1.5759
  256MOL0     H33772   8.111   2.607   2.377  0.0027 -3.1284 -0.2528
  256MOL0     H33773   8.069   2.714   2.516  2.1464  1.7409  0.2634
  256MOL0     H33774   9.207   2.929   2.451 -2.1165 -0.3990  0.5125
  256MOL0     H33775   9.359   3.080   2.389  0.1437  0.2824 -0.0977
  256MOL0     H33776   9.617   3.336   2.048  0.6083  0.4544  0.8532
  256MOL0     H33777   9.735   3.537   1.961 -1.2304  3.0263 -2.1370
  256MOL0     H33778   8.202   3.708   1.211  1.5661  0.5558  0.0727
  256MOL0     H33779   8.091   3.626   1.006  0.9566  1.2933 -1.1678
  256MOL0     H33780   7.916   3.067   0.841 -2.1887 -1.3036 -1.6665
  256MOL0     H33781   7.812   2.999   0.645 -1.1234  1.0056 -1.7793
  256MOL0     H33782   7.814   3.251   0.274  0.9551  0.9799  0.0254
  256MOL0     H33783   7.723   3.113   0.234 -1.1728  0.4915  2.4839
  256MOL0     H33784   7.929   3.131   0.100 -0.9732  3.2620  1.1129
  256MOL0     H33785   8.035   3.113   0.236  0.1270  1.9949 -3.0443
  256MOL0     H33786   7.841   2.907   0.113  0.0693  4.4946 -1.6032
  256MOL0     H33787   7.882   2.883   0.279 -2.7354  3.1844  1.5130
  256MOL0     H33788   8.005   2.750   0.146 -1.9108 -0.2998  2.3568
  256MOL0     H33789   8.048   2.865   0.022 -2.1817 -1.4123 -0.9124
  256MOL0     H33790   8.362   2.836   0.332 -2.5596 -0.4450  3.1051
  256MOL0     H33791   7.972   3.292   0.410  0.4126  2.4260  1.0145
  256MOL0     H33792   8.084   3.403   0.613 -2.5940  1.0527 -1.3284
  257MOL0     O33793   3.095   0.128   6.524  0.4689  0.8008  0.2797
  257MOL0     C33794   2.975   0.114   6.536  0.5683  0.6212  0.8615
  257MOL0     O33795   2.907   0.015   6.474  0.7199 -0.4117 -0.0514
  257MOL0     C33796   2.962  -0.087   6.410 -0.8243 -0.7396 -0.3583
  257MOL0     C33797   2.986  -0.079   6.272 -0.0045 -0.2258  0.0463
  257MOL0     C33798   3.053  -0.180   6.209  0.3646  0.2838 -0.7536
  257MOL0     C33799   3.078  -0.303   6.279  0.0279  0.1499  0.5345
  257MOL0     O33800   3.129  -0.407   6.215 -0.3696 -0.3436  0.0198
  257MOL0     C33801   3.257  -0.379   6.147 -0.0253 -0.1329  0.4197
  257MOL0     C33802   3.345  -0.505   6.131  0.2054  0.1973  0.5275
  257MOL0     C33803   3.467  -0.485   6.042 -0.4897  0.5476  0.3906
  257MOL0     C33804   3.552  -0.621   6.051 -0.2553 -0.7540  0.0607
  257MOL0     C33805   3.708  -0.587   6.033  1.8550  0.2024  0.3134
  257MOL0     C33806   3.789  -0.529   6.154 -0.5500  0.6746  0.2606
  257MOL0     C33807   3.940  -0.554   6.112 -0.0077  0.0072 -0.7530
  257MOL0     C33808   4.052  -0.522   6.210 -0.3503 -0.4388  1.0572
  257MOL0     N33809   4.187  -0.573   6.167 -0.0612 -0.2934 -0.1949
  257MOL0     C33810   4.297  -0.492   6.140  0.6634  0.4330  0.4149
  257MOL0     C33811   4.395  -0.581   6.117  0.7874 -1.2256  0.3325
  257MOL0     C33812   4.533  -0.527   6.097 -0.2755 -0.8776  0.9500
  257MOL0     C33813   4.576  -0.508   5.950  0.5315 -0.7416  0.0788
  257MOL0     C33814   4.714  -0.569   5.942 -0.1795 -0.3673  0.6314
  257MOL0     C33815   4.760  -0.556   5.795 -0.4761 -0.0876 -0.2833
  257MOL0     O33816   4.740  -0.426   5.753 -0.2190 -0.5447  0.0833
  257MOL0     C33817   4.812  -0.381   5.641 -0.4210 -0.4777 -0.1290
  257MOL0     C33818   4.871  -0.453   5.536 -0.6708  0.0399 -0.5748
  257MOL0     C33819   4.953  -0.403   5.431 -0.1278  0.6340  0.7401
  257MOL0     C33820   4.976  -0.260   5.433 -0.1967 -0.2993  0.1069
  257MOL0     C33821   5.070  -0.191   5.338  0.1024 -0.5677  0.0613
  257MOL0     O33822   5.144  -0.265   5.259  0.2335  0.3657 -0.4203
  257MOL0     C33823   5.244  -0.218   5.183 -0.0192 -0.0273 -0.5362
  257MOL0     C33824   5.367  -0.286   5.196  0.2043  1.2339 -0.0481
  257MOL0     C33825   5.473  -0.256   5.110 -0.4769 -0.8903  0.4473
  257MOL0     C33826   5.459  -0.139   5.022  0.1216 -0.0356  0.1390
  257MOL0     O33827   5.572  -0.118   4.948  0.7481  0.0793 -0.3787
  257MOL0     C33828   5.550  -0.035   4.846  0.4507  0.3809  0.4399
  257MOL0     C33829   5.663  -0.082   4.744 -0.1329 -0.2618 -0.1843
  257MOL0     C33830   5.715   0.040   4.678  0.5026 -0.9021  0.7642
  257MOL0     C33831   5.824   0.004   4.576  0.3444 -0.5050 -0.6456
  257MOL0     C33832   5.767  -0.035   4.437  0.6478  0.1821 -0.6100
  257MOL0     C33833   5.884  -0.096   4.361  0.4221  0.1846 -0.6539
  257MOL0     C33834   5.833  -0.125   4.211  0.0116  0.4883  0.5139
  257MOL0     C33835   5.794   0.004   4.146 -0.5450  0.1371 -0.6460
  257MOL0    Cl33836   5.815  -0.027   3.969  0.1080 -0.1693 -0.1954
  257MOL0     C33837   5.332  -0.071   5.012 -0.7778 -0.1377 -0.7266
  257MOL0     C33838   5.224  -0.118   5.088  0.8250  0.3622  0.2777
  257MOL0     O33839   5.094  -0.072   5.356 -0.1952  0.0505 -0.9379
  257MOL0     C33840   4.927  -0.189   5.547 -0.0887 -0.2411 -0.1851
  257MOL0     C33841   4.850  -0.252   5.648  0.0122 -0.8545 -0.1308
  257MOL0     N33842   4.350  -0.708   6.137 -0.0947  0.9308 -0.0062
  257MOL0     N33843   4.223  -0.701   6.151  1.6768  0.0237 -0.3657
  257MOL0     C33844   3.037  -0.316   6.410  0.5234 -0.3076 -0.4851
  257MOL0     C33845   2.989  -0.203   6.483  0.2347  1.0675  0.4645
  257MOL0     C33846   2.898   0.211   6.610  0.2761  0.6184 -1.0388
  257MOL0     C33847   2.768   0.182   6.646 -0.7979  0.0209 -0.3022
  257MOL0     C33848   2.693   0.264   6.730  0.4937 -0.5131  0.2810
  257MOL0     C33849   2.754   0.383   6.779  0.2330  0.8119  0.4290
  257MOL0     O33850   2.688   0.471   6.857 -0.2044 -0.7504  0.6559
  257MOL0     C33851   2.563   0.511   6.801 -0.0972 -0.0933  0.1179
  257MOL0     C33852   2.526   0.636   6.882 -0.1093  0.2261  0.0641
  257MOL0     C33853   2.608   0.761   6.843 -0.1723 -0.3482  0.9171
  257MOL0     C33854   2.563   0.891   6.905  1.0248  0.2363 -0.0767
  257MOL0     C33855   2.648   1.002   6.863 -0.5066  0.1446 -0.6744
  257MOL0     C33856   2.708   1.093   6.812  0.2147  0.3343 -0.2029
  257MOL0     C33857   2.881   0.412   6.739  0.1946 -0.2675 -0.0307
  257MOL0     C33858   2.961   0.327   6.656  0.4112 -0.6564 -0.0322
  257MOL0     H33859   2.952   0.011   6.221  1.2723  0.2194 -0.0699
  257MOL0     H33860   3.074  -0.164   6.104 -0.8131 -0.7334 -1.1755
  257MOL0     H33861   3.310  -0.298   6.198 -0.2690 -1.3707  2.7563
  257MOL0     H33862   3.239  -0.339   6.047  1.0268 -0.2581  0.1705
  257MOL0     H33863   3.292  -0.582   6.075  1.7643 -0.5133 -0.0298
  257MOL0     H33864   3.374  -0.538   6.231  1.8073  2.4434  0.8946
  257MOL0     H33865   3.526  -0.407   6.091 -3.4057  2.4319  1.1020
  257MOL0     H33866   3.452  -0.460   5.937 -1.9418  0.5227  0.5707
  257MOL0     H33867   3.536  -0.681   6.141 -1.1142  2.2355  2.0651
  257MOL0     H33868   3.529  -0.693   5.973 -1.2070  0.1052 -0.4805
  257MOL0     H33869   3.705  -0.501   5.965 -0.3980  0.3097  0.4567
  257MOL0     H33870   3.757  -0.675   5.993  3.1862 -0.9263  3.9895
  257MOL0     H33871   3.757  -0.581   6.244 -1.6345  1.0859  0.1340
  257MOL0     H33872   3.778  -0.422   6.177  1.9206  0.5714  2.3343
  257MOL0     H33873   3.958  -0.656   6.078  0.3923 -0.3354  0.4314
  257MOL0     H33874   3.955  -0.489   6.026  1.9403 -1.5704 -1.6760
  257MOL0     H33875   4.020  -0.567   6.305 -3.9578  0.9890  0.6973
  257MOL0     H33876   4.055  -0.414   6.231  4.5371  0.1667 -1.3385
  257MOL0     H33877   4.298  -0.384   6.131  1.6187  0.2900 -2.3304
  257MOL0     H33878   4.595  -0.599   6.152  4.5860  1.4657 -0.8441
  257MOL0     H33879   4.554  -0.438   6.157  1.6581 -1.7823  1.6949
  257MOL0     H33880   4.580  -0.403   5.919 -2.8667 -1.0196 -1.8741
  257MOL0     H33881   4.508  -0.558   5.880  3.3000 -1.5132 -2.2517
  257MOL0     H33882   4.789  -0.523   6.007 -0.5307 -1.4173  1.7978
  257MOL0     H33883   4.716  -0.675   5.968  0.3676 -0.9660 -1.6278
  257MOL0     H33884   4.710  -0.631   5.733 -2.8654  0.3415  0.9942
  257MOL0     H33885   4.868  -0.565   5.804 -0.3195  1.3914 -0.5106
  257MOL0     H33886   4.856  -0.560   5.542 -2.6129  0.2294 -1.1780
  257MOL0     H33887   4.993  -0.473   5.358  3.6753 -0.4702  3.5287
  257MOL0     H33888   5.375  -0.363   5.273  0.5620  1.4906  0.1749
  257MOL0     H33889   5.569  -0.306   5.110 -0.4577 -0.8526 -0.1966
  257MOL0     H33890   5.547   0.072   4.868 -2.6969  0.4446  0.1512
  257MOL0     H33891   5.456  -0.050   4.793  1.4730 -2.0126 -0.8186
  257MOL0     H33892   5.627  -0.152   4.667  1.6697  1.5999 -2.8872
  257MOL0     H33893   5.744  -0.134   4.795 -0.8439  1.7537  3.3192
  257MOL0     H33894   5.751   0.099   4.763 -2.3916 -3.0934  3.8200
  257MOL0     H33895   5.646   0.103   4.621  1.7973 -0.5315 -0.4461
  257MOL0     H33896   5.886   0.092   4.558  0.3226 -0.2711  0.3452
  257MOL0     H33897   5.884  -0.079   4.612  1.0329 -0.5204 -1.7826
  257MOL0     H33898   5.728   0.052   4.384  1.5302  0.7789 -0.3142
  257MOL0     H33899   5.687  -0.107   4.454 -0.8387  1.8166 -0.4974
  257MOL0     H33900   5.918  -0.186   4.414  2.7897  0.2910 -1.8814
  257MOL0     H33901   5.961  -0.019   4.356  0.2866  0.4283  0.6846
  257MOL0     H33902   5.910  -0.172   4.150 -1.7914  0.4836 -1.8913
  257MOL0     H33903   5.744  -0.188   4.214 -0.5531  1.2335 -0.0082
  257MOL0     H33904   5.866   0.082   4.172  1.5872 -1.4511 -1.5404
  257MOL0     H33905   5.692   0.038   4.165 -0.3935  1.4114 -1.9004
  257MOL0     H33906   5.323   0.011   4.941 -0.0265  0.8721  0.3054
  257MOL0     H33907   5.128  -0.071   5.071 -1.5620 -3.3068  2.1542
  257MOL0     H33908   4.954  -0.085   5.558  1.1900 -0.4250 -1.3548
  257MOL0     H33909   4.822  -0.186   5.729  1.2987 -0.4146 -0.0155
  257MOL0     H33910   3.057  -0.408   6.465 -1.5223 -0.5740 -0.0986
  257MOL0     H33911   2.973  -0.186   6.589  4.0808  2.1234  1.0329
  257MOL0     H33912   2.731   0.094   6.596 -0.6736  0.1655 -0.6556
  257MOL0     H33913   2.593   0.230   6.756 -0.3507  2.8279  1.9448
  257MOL0     H33914   2.486   0.435   6.817 -2.7492  2.6090  1.1267
  257MOL0     H33915   2.561   0.530   6.693  4.0410 -1.1627 -0.3002
  257MOL0     H33916   2.423   0.670   6.870 -0.0312  0.6115  0.4703
  257MOL0     H33917   2.539   0.615   6.988 -0.5122 -1.8810 -0.2524
  257MOL0     H33918   2.612   0.778   6.735 -0.4464  2.7379  1.3012
  257MOL0     H33919   2.711   0.742   6.876 -0.3635 -2.5245  0.4465
  257MOL0     H33920   2.461   0.913   6.871 -0.9981 -2.6032  3.5155
  257MOL0     H33921   2.543   0.885   7.012 -2.9428  3.4947 -0.3480
  257MOL0     H33922   2.759   1.178   6.773 -4.1922  2.6240 -1.6563
  257MOL0     H33923   2.923   0.509   6.763 -2.9239  2.1334 -3.2325
  257MOL0     H33924   3.059   0.357   6.621  0.6883  0.6485  1.7568
  258MOL0     O33925   3.400   6.351   7.916 -0.2739 -0.3888 -0.1675
  258MOL0     C33926   3.316   6.382   8.002  1.0345  0.8673 -0.5953
  258MOL0     O33927   3.190   6.433   7.980  0.5133 -0.9293 -0.0614
  258MOL0     C33928   3.136   6.455   7.855  0.4895  0.4662  0.1458
  258MOL0     C33929   3.202   6.492   7.736 -0.0119  0.5902 -0.1359
  258MOL0     C33930   3.140   6.496   7.612  0.1202 -0.5346 -0.0993
  258MOL0     C33931   3.002   6.473   7.608  0.1888  0.0569 -0.1404
  258MOL0     O33932   2.935   6.487   7.489 -0.2500  0.2453 -0.0966
  258MOL0     C33933   2.830   6.396   7.445  0.9798 -0.1253  0.5934
  258MOL0     C33934   2.869   6.254   7.429 -0.0420  0.5118 -0.9807
  258MOL0     C33935   2.930   6.219   7.291  0.1602 -0.2879 -0.6813
  258MOL0     C33936   3.085   6.186   7.307  0.4449  0.2337 -0.0793
  258MOL0     C33937   3.157   6.131   7.186  0.7818 -0.5126  0.5564
  258MOL0     C33938   3.182   6.234   7.081  0.3946  0.3705  0.4131
  258MOL0     C33939   3.251   6.161   6.960 -0.4199 -0.3023  0.4425
  258MOL0     C33940   3.275   6.265   6.862 -0.1861 -0.4503 -0.3944
  258MOL0     N33941   3.171   6.292   6.755 -0.8310 -0.5053  0.8080
  258MOL0     C33942   3.160   6.208   6.651  0.3169 -0.2713  0.2235
  258MOL0     C33943   3.048   6.245   6.583 -0.3209 -0.0102 -0.0278
  258MOL0     C33944   2.999   6.179   6.458 -0.9927 -0.0890 -0.8338
  258MOL0     C33945   2.856   6.108   6.502 -0.2974 -0.2640 -0.4090
  258MOL0     C33946   2.754   6.209   6.554 -0.4492 -0.0679  0.8240
  258MOL0     C33947   2.614   6.158   6.555 -0.6537  0.4018 -0.7637
  258MOL0     O33948   2.545   6.220   6.661 -0.6574  0.0838  0.3068
  258MOL0     C33949   2.513   6.351   6.642  0.0497 -0.6374  0.4721
  258MOL0     C33950   2.517   6.423   6.516  0.0055 -0.6170 -0.6383
  258MOL0     C33951   2.454   6.559   6.513 -0.9076 -0.0774  0.2831
  258MOL0     C33952   2.401   6.620   6.632  0.4552  0.1262 -0.3451
  258MOL0     C33953   2.344   6.759   6.626  0.4572  0.0069 -0.4778
  258MOL0     O33954   2.340   6.808   6.490  0.5125 -0.0094 -0.5586
  258MOL0     C33955   2.266   6.925   6.464  0.9288  0.0020 -0.2571
  258MOL0     C33956   2.321   7.024   6.379 -0.4815  0.6245  0.1868
  258MOL0     C33957   2.259   7.153   6.359 -0.3007 -0.1677  0.4830
  258MOL0     C33958   2.126   7.169   6.394  0.1919  0.0667 -0.3051
  258MOL0     O33959   2.057   7.285   6.372 -0.3483 -0.0200 -0.0051
  258MOL0     C33960   2.115   7.355   6.259 -0.6345 -0.0997 -1.1338
  258MOL0     C33961   2.034   7.481   6.241 -0.9124  0.2981  0.1025
  258MOL0     C33962   1.887   7.455   6.199 -0.3801 -0.4582  0.6130
  258MOL0     C33963   1.853   7.590   6.130  0.3006 -0.4071 -0.6297
  258MOL0     C33964   1.727   7.556   6.051  0.0483  0.5882  0.1948
  258MOL0     C33965   1.681   7.686   5.986  0.4981  0.4872  0.4969
  258MOL0     C33966   1.600   7.658   5.862  0.3888 -0.6135 -0.3918
  258MOL0     C33967   1.539   7.783   5.813 -0.1061 -0.0758  0.4343
  258MOL0    Cl33968   1.422   7.744   5.687  0.0868  0.2755 -0.3284
  258MOL0     C33969   2.066   7.072   6.468  0.1457  0.7236  0.8493
  258MOL0     C33970   2.133   6.955   6.510  0.9196 -0.1971 -0.9242
  258MOL0     O33971   2.286   6.812   6.721  0.2644  0.0175 -0.2170
  258MOL0     C33972   2.401   6.547   6.750  0.2875  0.1417 -0.3182
  258MOL0     C33973   2.457   6.415   6.756  0.0587 -0.6623 -0.8038
  258MOL0     N33974   2.998   6.364   6.650 -0.0744 -0.1441  0.0383
  258MOL0     N33975   3.076   6.383   6.749  0.7558  0.0004 -0.7623
  258MOL0     C33976   2.937   6.432   7.728  0.0269  0.3101  1.0928
  258MOL0     C33977   2.999   6.428   7.850  0.4157 -0.1490  0.8812
  258MOL0     C33978   3.358   6.355   8.142 -0.3000  0.5066 -0.9872
  258MOL0     C33979   3.290   6.405   8.252  0.2703  0.3264 -0.9871
  258MOL0     C33980   3.333   6.400   8.385  0.8102 -0.2392  0.9606
  258MOL0     C33981   3.450   6.335   8.410 -0.7342  0.8480 -0.4586
  258MOL0     O33982   3.486   6.325   8.537 -0.4141  0.2006  0.4816
  258MOL0     C33983   3.383   6.287   8.630 -0.4241 -0.2216 -0.0580
  258MOL0     C33984   3.447   6.198   8.742  0.2222  0.2500 -0.2824
  258MOL0     C33985   3.523   6.267   8.857 -0.2493  0.2995  0.0312
  258MOL0     C33986   3.644   6.348   8.806  0.4573  0.2130  0.0541
  258MOL0     C33987   3.770   6.315   8.875  0.4505 -0.2114 -1.4967
  258MOL0     C33988   3.871   6.284   8.932  0.4594 -0.5676  0.3583
  258MOL0     C33989   3.523   6.278   8.304 -0.7927 -0.5641 -0.8465
  258MOL0     C33990   3.484   6.295   8.165  0.1365  0.1006 -0.6584
  258MOL0     H33991   3.307   6.518   7.738  0.0224  0.7759  3.7407
  258MOL0     H33992   3.191   6.521   7.520 -0.8295  0.2547 -0.4323
  258MOL0     H33993   2.804   6.435   7.346 -0.8635 -1.8530  0.3384
  258MOL0     H33994   2.737   6.411   7.501 -0.2269 -2.4810 -0.6341
  258MOL0     H33995   2.779   6.195   7.451  0.5227 -1.0899 -2.7000
  258MOL0     H33996   2.935   6.230   7.514 -0.5050  1.2081 -0.4127
  258MOL0     H33997   2.910   6.300   7.222  1.1925  2.9955  2.5415
  258MOL0     H33998   2.870   6.136   7.251 -2.8827  1.2492  0.3917
  258MOL0     H33999   3.132   6.277   7.345  1.3208 -1.0432  2.0868
  258MOL0     H34000   3.099   6.116   7.390 -1.2743 -1.6651 -1.2905
  258MOL0     H34001   3.113   6.037   7.150  1.7680 -0.7508 -0.0811
  258MOL0     H34002   3.252   6.089   7.220  0.7055  0.0726  1.5371
  258MOL0     H34003   3.237   6.316   7.128 -2.1845  1.6522  1.3857
  258MOL0     H34004   3.085   6.275   7.050 -0.0341 -2.3028 -2.2648
  258MOL0     H34005   3.347   6.122   6.995  0.0834 -1.5093 -2.0114
  258MOL0     H34006   3.193   6.079   6.918 -0.8502 -0.5456  1.4864
  258MOL0     H34007   3.374   6.243   6.820  0.1731  1.1409 -0.4589
  258MOL0     H34008   3.282   6.361   6.914 -1.3705 -0.8504  0.5406
  258MOL0     H34009   3.220   6.121   6.624 -1.9200 -1.3245 -1.7770
  258MOL0     H34010   3.071   6.105   6.422 -0.3986 -0.7928  1.6633
  258MOL0     H34011   2.988   6.256   6.380 -0.0106 -0.9765 -1.8657
  258MOL0     H34012   2.870   6.049   6.593  0.1460  2.4138  1.3516
  258MOL0     H34013   2.809   6.052   6.420 -3.8591 -0.0758  1.2946
  258MOL0     H34014   2.777   6.236   6.658 -2.5197  2.2014  0.7819
  258MOL0     H34015   2.762   6.301   6.496  1.0434  1.2958  3.0360
  258MOL0     H34016   2.623   6.051   6.579 -0.8402  1.2480  4.3405
  258MOL0     H34017   2.573   6.169   6.454  0.7618  1.8500 -1.2075
  258MOL0     H34018   2.570   6.393   6.426  0.7942  1.1931 -0.8164
  258MOL0     H34019   2.448   6.614   6.420  0.0108 -0.1239  0.1842
  258MOL0     H34020   2.418   7.008   6.333  0.3140 -1.3983  2.3694
  258MOL0     H34021   2.321   7.230   6.315 -0.8618  0.5478  0.9106
  258MOL0     H34022   2.117   7.292   6.170  0.9802  0.0366 -1.2220
  258MOL0     H34023   2.215   7.398   6.268  0.7594 -2.7610 -2.7358
  258MOL0     H34024   2.092   7.534   6.165  1.6381 -1.5675  0.6114
  258MOL0     H34025   2.033   7.539   6.334  0.0729  1.7149 -0.7288
  258MOL0     H34026   1.826   7.421   6.283  1.4286 -1.6246  1.5141
  258MOL0     H34027   1.894   7.372   6.127  1.1056  1.5405 -1.6963
  258MOL0     H34028   1.844   7.682   6.189  1.2649 -0.8936  0.3107
  258MOL0     H34029   1.932   7.608   6.057 -1.7728  1.1530 -2.6410
  258MOL0     H34030   1.646   7.510   6.108  1.1740 -2.2418 -0.3053
  258MOL0     H34031   1.751   7.465   5.996 -0.6700 -1.0100  2.4038
  258MOL0     H34032   1.764   7.750   5.954 -0.6941  1.5757 -0.5381
  258MOL0     H34033   1.613   7.741   6.051  0.7959 -0.2931  1.4820
  258MOL0     H34034   1.670   7.628   5.784  2.5415  2.4633  0.1793
  258MOL0     H34035   1.518   7.587   5.875  0.4603 -0.3315  2.0806
  258MOL0     H34036   1.624   7.840   5.775  0.8478 -1.9657 -0.4134
  258MOL0     H34037   1.504   7.850   5.892 -0.9058  1.0267 -0.8118
  258MOL0     H34038   1.962   7.090   6.493  0.6717  1.6595  2.5880
  258MOL0     H34039   2.073   6.897   6.579 -0.6826  1.5014 -0.7958
  258MOL0     H34040   2.345   6.592   6.831 -2.2586  0.0760 -1.9174
  258MOL0     H34041   2.449   6.342   6.836  4.0998 -1.9069 -1.2847
  258MOL0     H34042   2.831   6.408   7.732 -0.6167  2.1342 -1.8356
  258MOL0     H34043   2.940   6.397   7.935 -0.2896 -1.0794  0.0634
  258MOL0     H34044   3.199   6.464   8.240  0.3397  2.0451  4.3900
  258MOL0     H34045   3.269   6.447   8.459  0.2535 -1.8999  1.5965
  258MOL0     H34046   3.319   6.220   8.571  3.2985 -0.1785 -4.8483
  258MOL0     H34047   3.334   6.377   8.666  2.1507  1.3222 -0.1830
  258MOL0     H34048   3.366   6.133   8.776  2.3065 -2.0666  0.5313
  258MOL0     H34049   3.529   6.143   8.694 -0.6405  0.1352 -1.6940
  258MOL0     H34050   3.556   6.183   8.919 -4.2053 -0.7918  0.9585
  258MOL0     H34051   3.454   6.331   8.912 -0.8460  0.1640 -0.5390
  258MOL0     H34052   3.667   6.338   8.700  0.9095  2.3883 -0.0970
  258MOL0     H34053   3.632   6.455   8.825  1.6336  0.0240  2.2724
  258MOL0     H34054   3.971   6.259   8.963 -0.0970 -1.0192  1.8490
  258MOL0     H34055   3.609   6.227   8.347 -0.9355  1.1029  1.5922
  258MOL0     H34056   3.552   6.267   8.085 -0.6749 -1.1621 -0.9319
  259MOL0     O34057  10.604   1.310   2.455 -0.1511  0.1388  0.1971
  259MOL0     C34058  10.563   1.337   2.341 -1.2821 -0.5364 -0.5823
  259MOL0     O34059  10.604   1.442   2.266 -0.4283  0.2760 -0.0770
  259MOL0     C34060  10.636   1.558   2.331 -1.1210  0.8524  0.1208
  259MOL0     C34061  10.569   1.611   2.443 -0.1951 -0.1247  0.2810
  259MOL0     C34062  10.618   1.726   2.497 -0.6302 -0.2340  0.5360
  259MOL0     C34063  10.721   1.804   2.443 -0.2607  0.2811  0.2540
  259MOL0     O34064  10.774   1.926   2.492  0.3353  0.0299 -0.7663
  259MOL0     C34065  10.701   1.992   2.599 -0.4242 -0.1748 -0.4631
  259MOL0     C34066  10.760   2.138   2.613 -0.3035 -0.6733 -0.9813
  259MOL0     C34067  10.750   2.207   2.475  0.1932 -0.5100 -0.0150
  259MOL0     C34068  10.608   2.221   2.422 -0.8073  0.0311  0.1873
  259MOL0     C34069  10.597   2.342   2.321 -0.1917  0.4733 -0.2458
  259MOL0     C34070  10.465   2.357   2.252 -0.9323 -0.4470  0.9383
  259MOL0     C34071  10.440   2.493   2.179  0.9096  0.4535  0.5697
  259MOL0     C34072  10.369   2.480   2.037  0.1736 -1.0881 -0.3968
  259MOL0     N34073  10.461   2.479   1.918 -0.1834  0.5796 -0.6929
  259MOL0     C34074  10.537   2.584   1.871 -0.1788  0.2136 -0.2111
  259MOL0     C34075  10.585   2.540   1.754  0.2803  0.0407 -0.2532
  259MOL0     C34076  10.673   2.625   1.661  0.6075 -0.6439  1.2554
  259MOL0     C34077  10.807   2.664   1.711 -0.0202 -0.2269 -0.4128
  259MOL0     C34078  10.901   2.542   1.738  0.4034 -0.3757  0.1350
  259MOL0     C34079  10.973   2.484   1.613 -0.6519 -0.5924 -0.3459
  259MOL0     O34080  10.889   2.468   1.492 -0.3238 -0.6010  0.0084
  259MOL0     C34081  10.950   2.419   1.381  0.2185 -0.0270 -0.0303
  259MOL0     C34082  10.867   2.389   1.268 -0.3176 -0.6883 -0.3527
  259MOL0     C34083  10.925   2.344   1.152 -0.0653 -0.1213  0.4438
  259MOL0     C34084  11.056   2.304   1.142 -0.0674  0.3494  0.1044
  259MOL0     C34085  11.111   2.243   1.014 -0.3527 -0.0456  0.0836
  259MOL0     O34086  11.221   2.165   1.027  0.2085  0.2694 -0.1557
  259MOL0     C34087  11.266   2.108   0.915  0.1202 -0.1798 -1.0803
  259MOL0     C34088  11.283   1.968   0.908 -0.0495  0.2509 -0.1587
  259MOL0     C34089  11.338   1.912   0.797  0.8100 -0.6737 -0.0976
  259MOL0     C34090  11.382   1.993   0.688 -0.1789 -1.0889  0.5224
  259MOL0     O34091  11.438   1.919   0.585  0.8952 -0.4336  0.0980
  259MOL0     C34092  11.497   1.991   0.472 -0.2126  0.0874  0.0747
  259MOL0     C34093  11.597   1.905   0.405  0.4844  0.5053 -0.2422
  259MOL0     C34094  11.678   1.995   0.303 -0.2043 -0.2771 -0.3257
  259MOL0     C34095  11.752   1.915   0.203  0.1403  0.6130  0.3065
  259MOL0     C34096  11.858   1.996   0.143  1.5558 -0.5104  0.2264
  259MOL0     C34097  11.954   1.902   0.057  1.1794  0.3296 -0.0104
  259MOL0     C34098  12.076   1.984   0.015 -0.4538  0.9433 -0.3027
  259MOL0     C34099  12.173   1.900  -0.062  0.1291 -0.2016 -0.5885
  259MOL0    Cl34100  12.079   1.871  -0.217  0.6098  0.5459 -0.1353
  259MOL0     C34101  11.362   2.133   0.691 -0.1466 -0.0079  0.0840
  259MOL0     C34102  11.311   2.189   0.810 -0.0829  0.9017 -0.4974
  259MOL0     O34103  11.058   2.280   0.914  0.0900 -0.4270 -0.2549
  259MOL0     C34104  11.141   2.325   1.252 -1.3498 -0.2408  0.8075
  259MOL0     C34105  11.088   2.388   1.368 -0.1519  0.1676 -0.2754
  259MOL0     N34106  10.544   2.415   1.728 -0.1756 -0.3556 -1.0253
  259MOL0     N34107  10.476   2.372   1.829 -0.1472 -1.0924 -0.7676
  259MOL0     C34108  10.778   1.757   2.324  0.7156 -0.5476  0.4963
  259MOL0     C34109  10.737   1.637   2.265 -0.3779  0.8465  0.0196
  259MOL0     C34110  10.467   1.248   2.288 -0.1532 -0.4983  0.2167
  259MOL0     C34111  10.377   1.194   2.371  0.1971  0.5343  0.0064
  259MOL0     C34112  10.276   1.111   2.322  0.1717 -0.6907  0.4253
  259MOL0     C34113  10.265   1.074   2.190 -0.6145 -0.6868 -0.6943
  259MOL0     O34114  10.160   1.003   2.133  0.5493 -0.3729 -0.1733
  259MOL0     C34115  10.034   1.012   2.199  0.8987 -0.1969 -1.8668
  259MOL0     C34116   9.906   0.977   2.115 -0.6334 -0.5737  0.5568
  259MOL0     C34117   9.916   0.845   2.043  0.1421 -0.4358  0.9421
  259MOL0     C34118   9.783   0.767   2.024 -0.4752 -0.4023  0.1664
  259MOL0     C34119   9.801   0.640   1.955 -0.5618  0.2783 -0.9926
  259MOL0     C34120   9.811   0.543   1.880 -0.0220 -0.1389 -0.2610
  259MOL0     C34121  10.367   1.117   2.110 -0.2299 -0.1846 -0.0069
  259MOL0     C34122  10.472   1.200   2.157  0.4579 -0.6229 -0.8088
  259MOL0     H34123  10.490   1.554   2.492  0.2630 -1.1316 -0.1184
  259MOL0     H34124  10.571   1.763   2.588  1.1949 -3.0353  2.8418
  259MOL0     H34125  10.708   1.943   2.696 -0.8460  3.2375  1.4450
  259MOL0     H34126  10.598   2.006   2.565  0.6393  2.2180 -3.1799
  259MOL0     H34127  10.862   2.133   2.652  0.3845  3.9013 -1.6361
  259MOL0     H34128  10.702   2.195   2.687  0.7430  1.5552 -1.8153
  259MOL0     H34129  10.813   2.158   2.400  4.0469  2.2695  1.0629
  259MOL0     H34130  10.803   2.303   2.482 -1.5535  0.4281  1.1155
  259MOL0     H34131  10.578   2.133   2.364  1.7354  0.1921 -1.5305
  259MOL0     H34132  10.529   2.227   2.497 -1.5788 -1.2301 -0.4881
  259MOL0     H34133  10.679   2.335   2.249 -0.4148  0.0341 -0.4639
  259MOL0     H34134  10.608   2.438   2.372 -0.2470  2.2781 -3.3346
  259MOL0     H34135  10.370   2.343   2.305 -2.6747 -0.6429 -1.9990
  259MOL0     H34136  10.451   2.283   2.173 -1.3245 -0.6833  1.2239
  259MOL0     H34137  10.372   2.541   2.251 -0.8183  2.4590 -2.2044
  259MOL0     H34138  10.535   2.546   2.166 -0.4204  2.9589  0.4927
  259MOL0     H34139  10.293   2.558   2.040 -0.6259 -1.8621 -0.3871
  259MOL0     H34140  10.318   2.384   2.031 -0.5478 -0.6519 -5.0926
  259MOL0     H34141  10.573   2.677   1.913  2.4122 -0.1166 -1.5420
  259MOL0     H34142  10.626   2.720   1.633  0.8551 -0.8089  0.2434
  259MOL0     H34143  10.693   2.572   1.567 -0.7025 -1.1134  1.2230
  259MOL0     H34144  10.791   2.715   1.807 -0.5373  0.5128 -0.8844
  259MOL0     H34145  10.859   2.726   1.638  0.1622 -2.3174 -2.1683
  259MOL0     H34146  10.973   2.572   1.815 -1.1844  0.2549  1.4229
  259MOL0     H34147  10.845   2.457   1.778  1.8123 -1.4017  0.0038
  259MOL0     H34148  11.015   2.390   1.651  0.7283  0.5698  1.1691
  259MOL0     H34149  11.060   2.543   1.581 -1.7792  0.7016 -1.0898
  259MOL0     H34150  10.768   2.433   1.270  0.3291  0.9551  2.8240
  259MOL0     H34151  10.855   2.336   1.069  1.3349 -1.7662 -0.6534
  259MOL0     H34152  11.270   1.910   0.999 -0.8259  0.9330  0.1803
  259MOL0     H34153  11.352   1.805   0.801 -2.5230 -1.2585  4.1140
  259MOL0     H34154  11.545   2.082   0.512 -1.9237  2.1964 -2.3621
  259MOL0     H34155  11.429   2.027   0.394  1.1640  2.5150 -0.1129
  259MOL0     H34156  11.538   1.828   0.354 -1.6712  3.1460 -2.0133
  259MOL0     H34157  11.662   1.853   0.476  1.7334 -0.9729 -2.3347
  259MOL0     H34158  11.748   2.052   0.366 -0.7486 -1.8215  1.8133
  259MOL0     H34159  11.607   2.058   0.250 -0.9945 -1.9761 -1.3761
  259MOL0     H34160  11.795   1.824   0.246 -0.5624  0.5363  0.8817
  259MOL0     H34161  11.680   1.887   0.127 -1.6585  2.0198  1.4008
  259MOL0     H34162  11.908   2.042   0.229 -1.5140 -0.4063  2.0934
  259MOL0     H34163  11.817   2.066   0.069 -0.2145 -2.5050 -0.7848
  259MOL0     H34164  11.901   1.860  -0.030 -0.7888 -2.2490  2.2598
  259MOL0     H34165  11.981   1.815   0.118  0.4648 -0.1805 -0.4027
  259MOL0     H34166  12.050   2.069  -0.049  2.3685  1.6617 -0.6275
  259MOL0     H34167  12.107   2.020   0.113 -3.6569  2.2437  0.3758
  259MOL0     H34168  12.199   1.806  -0.013  0.3683 -0.0973 -0.5158
  259MOL0     H34169  12.262   1.958  -0.091 -1.4236  0.7118 -4.0680
  259MOL0     H34170  11.373   2.197   0.604  2.0472  2.1600  1.8290
  259MOL0     H34171  11.303   2.294   0.837  0.1541  0.3699  1.8784
  259MOL0     H34172  11.243   2.288   1.241 -1.7506 -0.9379 -0.8521
  259MOL0     H34173  11.159   2.400   1.450  0.3675  0.4895 -0.7601
  259MOL0     H34174  10.846   1.825   2.274  0.6830 -0.5885  0.3953
  259MOL0     H34175  10.781   1.617   2.168 -1.0817  0.9228 -0.3222
  259MOL0     H34176  10.370   1.212   2.478 -2.5539 -1.3554  0.2480
  259MOL0     H34177  10.196   1.083   2.390 -1.6242  1.0969 -0.8066
  259MOL0     H34178  10.023   1.116   2.233 -0.1965 -0.4007 -1.5547
  259MOL0     H34179  10.035   0.943   2.285 -0.3341 -0.8889 -2.3857
  259MOL0     H34180   9.814   0.972   2.174 -2.9954 -0.1412 -2.7717
  259MOL0     H34181   9.882   1.051   2.039 -0.4176  1.6750  2.5578
  259MOL0     H34182   9.984   0.776   2.095  1.9226  1.0123  0.6196
  259MOL0     H34183   9.968   0.848   1.947 -0.4676 -1.2212  0.5738
  259MOL0     H34184   9.726   0.742   2.114  2.6897 -3.1966  1.5838
  259MOL0     H34185   9.721   0.840   1.970 -1.3410  0.5711  2.3592
  259MOL0     H34186   9.818   0.457   1.818 -1.1418 -0.4780  0.0540
  259MOL0     H34187  10.372   1.094   2.004  1.2953  3.4422 -0.8767
  259MOL0     H34188  10.549   1.252   2.101 -0.9114  1.1477 -1.1273
  260MOL0     O34189   8.380   3.624   3.044 -0.1264 -0.2457 -0.4981
  260MOL0     C34190   8.355   3.538   3.132 -0.0867  1.1328 -0.2407
  260MOL0     O34191   8.239   3.514   3.207  0.4811 -0.2842  0.1925
  260MOL0     C34192   8.136   3.609   3.187 -0.2728 -0.6826 -1.0596
  260MOL0     C34193   8.078   3.637   3.066  0.7526  0.0197  0.0548
  260MOL0     C34194   7.982   3.734   3.055 -0.0463  0.4294 -0.4796
  260MOL0     C34195   7.937   3.809   3.166 -0.3316 -0.1881 -0.1795
  260MOL0     O34196   7.822   3.889   3.159 -0.7468  0.7373 -0.0099
  260MOL0     C34197   7.820   4.007   3.237 -0.9194  0.1074  0.1958
  260MOL0     C34198   7.730   4.113   3.173  0.2256  0.1753  0.7019
  260MOL0     C34199   7.747   4.149   3.024 -0.2767 -0.0448 -0.4668
  260MOL0     C34200   7.649   4.256   2.972  0.0470  0.2993 -0.4718
  260MOL0     C34201   7.593   4.235   2.822 -0.6356  0.8589 -0.3571
  260MOL0     C34202   7.476   4.316   2.795 -0.5616 -0.1732 -0.0959
  260MOL0     C34203   7.419   4.306   2.644  0.6485 -0.0208 -0.0155
  260MOL0     C34204   7.282   4.367   2.629 -0.7072 -0.3484 -0.4988
  260MOL0     N34205   7.277   4.501   2.570  0.3581  0.5227  0.4220
  260MOL0     C34206   7.286   4.516   2.437 -0.4058 -0.1907  0.1194
  260MOL0     C34207   7.292   4.650   2.411 -0.1674 -0.6177  0.5408
  260MOL0     C34208   7.310   4.717   2.278  0.4778 -0.6888  0.3189
  260MOL0     C34209   7.226   4.855   2.247 -0.1870  0.7094 -0.2097
  260MOL0     C34210   7.110   4.794   2.169  0.6233  0.2494 -0.8124
  260MOL0     C34211   6.996   4.890   2.148  0.2028  0.1359 -0.3070
  260MOL0     O34212   6.876   4.813   2.161  0.2846  0.4052 -0.7621
  260MOL0     C34213   6.755   4.875   2.166 -0.4834 -0.7051  0.4473
  260MOL0     C34214   6.724   5.010   2.125  0.4676  0.3359 -0.8305
  260MOL0     C34215   6.591   5.063   2.128  0.1804  0.6982 -0.1402
  260MOL0     C34216   6.489   4.974   2.147  0.2109 -0.1589 -0.0211
  260MOL0     C34217   6.346   5.006   2.127  0.0734 -0.2157 -0.7077
  260MOL0     O34218   6.303   5.131   2.131 -0.6251 -0.5975  0.4573
  260MOL0     C34219   6.168   5.145   2.094  0.1806  0.6447  0.6221
  260MOL0     C34220   6.125   5.133   1.961  0.4986 -0.3801 -0.0701
  260MOL0     C34221   6.002   5.190   1.913  0.6744  0.0143  0.5357
  260MOL0     C34222   5.914   5.255   2.010 -0.6555  0.3254  0.0077
  260MOL0     O34223   5.796   5.297   1.974  0.0667 -0.7751  0.5453
  260MOL0     C34224   5.714   5.371   2.072 -0.1762 -0.0282 -0.1011
  260MOL0     C34225   5.574   5.405   1.996 -0.7504 -0.1750  0.6806
  260MOL0     C34226   5.472   5.440   2.100 -0.1402 -1.2862 -0.7468
  260MOL0     C34227   5.398   5.573   2.077  0.0752  0.5145 -0.2008
  260MOL0     C34228   5.312   5.620   2.203 -0.5593  0.7140 -0.0929
  260MOL0     C34229   5.296   5.772   2.206 -0.2440  0.2994 -0.0856
  260MOL0     C34230   5.244   5.817   2.340 -0.2060 -0.0212  0.5816
  260MOL0     C34231   5.233   5.967   2.364  0.4095 -0.6409  1.2516
  260MOL0    Cl34232   5.152   5.985   2.520 -0.1424  0.0514  0.5409
  260MOL0     C34233   5.966   5.247   2.141  0.4351 -0.3622  0.2181
  260MOL0     C34234   6.087   5.206   2.180 -0.1621  0.5178 -1.2504
  260MOL0     O34235   6.273   4.914   2.106 -0.1670  0.9679  0.4018
  260MOL0     C34236   6.520   4.845   2.193  0.9017  0.0636 -0.5983
  260MOL0     C34237   6.646   4.802   2.213  0.0075  0.2750  0.0755
  260MOL0     N34238   7.314   4.711   2.536 -0.5184 -0.8223  0.0399
  260MOL0     N34239   7.289   4.620   2.629  0.4092  0.1620  0.0806
  260MOL0     C34240   8.006   3.778   3.291  0.6389 -0.3073 -0.2033
  260MOL0     C34241   8.097   3.677   3.297  0.7165 -0.5471 -0.0536
  260MOL0     C34242   8.471   3.446   3.176 -0.3552  0.4482 -0.0515
  260MOL0     C34243   8.591   3.447   3.095  1.7514  0.4870  0.3027
  260MOL0     C34244   8.698   3.356   3.124 -0.1140  0.4665  0.3167
  260MOL0     C34245   8.688   3.264   3.237 -0.8566  0.0746  0.3551
  260MOL0     O34246   8.797   3.190   3.250 -1.1035  0.3263  0.1474
  260MOL0     C34247   8.801   3.082   3.340  0.7741 -0.1124  0.5932
  260MOL0     C34248   8.937   3.068   3.396 -1.2306 -0.1654  0.3362
  260MOL0     C34249   8.960   2.956   3.498  0.7981  0.5600  0.2084
  260MOL0     C34250   9.107   2.944   3.526 -0.4300  1.0868 -0.2807
  260MOL0     C34251   9.124   2.864   3.646 -0.3025  0.1732  0.5571
  260MOL0     C34252   9.149   2.798   3.751 -0.1854 -1.2167 -0.2235
  260MOL0     C34253   8.566   3.259   3.314 -0.6521  0.7875 -0.1355
  260MOL0     C34254   8.465   3.355   3.285  0.4008  0.5444  0.1888
  260MOL0     H34255   8.112   3.578   2.981  0.7543 -1.1483  0.8439
  260MOL0     H34256   7.946   3.758   2.955  2.5148  3.6292 -0.8410
  260MOL0     H34257   7.920   4.047   3.253 -0.4863 -1.2148  0.9055
  260MOL0     H34258   7.789   3.982   3.338  2.7642  1.6866  1.8946
  260MOL0     H34259   7.748   4.203   3.232  0.6987  0.5830 -0.0540
  260MOL0     H34260   7.627   4.078   3.182  1.2821 -3.8926 -0.6690
  260MOL0     H34261   7.734   4.053   2.972  0.0743 -0.9893  1.1272
  260MOL0     H34262   7.846   4.196   3.014  0.8053 -1.0902  3.4226
  260MOL0     H34263   7.558   4.259   3.033 -0.1816  1.6978 -0.8478
  260MOL0     H34264   7.692   4.354   2.998  1.8214 -0.8423  1.1935
  260MOL0     H34265   7.569   4.130   2.806  0.8857  0.5417 -0.6991
  260MOL0     H34266   7.681   4.263   2.763  1.8530 -1.6703  1.9148
  260MOL0     H34267   7.493   4.422   2.815 -1.4474 -0.1682  0.7179
  260MOL0     H34268   7.400   4.280   2.866 -2.1369  1.4042 -0.8963
  260MOL0     H34269   7.486   4.360   2.576 -0.7578  1.3438 -0.3736
  260MOL0     H34270   7.405   4.200   2.621  0.3534 -0.1654  0.7903
  260MOL0     H34271   7.238   4.354   2.728  1.0915 -0.3254  0.3518
  260MOL0     H34272   7.217   4.305   2.567  0.5446 -1.4956 -0.7132
  260MOL0     H34273   7.273   4.432   2.369  1.7540 -0.9035  0.4806
  260MOL0     H34274   7.298   4.642   2.199 -4.3626  1.7718 -1.7064
  260MOL0     H34275   7.413   4.753   2.281  0.0542  0.5364  0.9615
  260MOL0     H34276   7.285   4.907   2.170 -0.4598  0.9599 -0.2482
  260MOL0     H34277   7.204   4.915   2.335  4.0754  0.1643  1.4926
  260MOL0     H34278   7.150   4.780   2.068 -3.2040  1.3461 -2.6892
  260MOL0     H34279   7.076   4.700   2.213 -3.7793  0.3588 -3.4077
  260MOL0     H34280   7.007   4.936   2.049  2.1673 -0.0734 -0.2364
  260MOL0     H34281   6.998   4.969   2.224 -1.7151 -0.3030  0.2468
  260MOL0     H34282   6.803   5.080   2.098 -1.2731  2.3788 -0.9168
  260MOL0     H34283   6.559   5.162   2.098  1.5294  1.1359 -0.1672
  260MOL0     H34284   6.186   5.070   1.897  1.3421 -2.6220  2.7707
  260MOL0     H34285   5.963   5.180   1.813  1.0576 -0.9549  0.4779
  260MOL0     H34286   5.751   5.463   2.119  0.2556 -0.7990  1.1206
  260MOL0     H34287   5.698   5.301   2.155  0.2074  1.7566  1.5449
  260MOL0     H34288   5.541   5.309   1.954 -3.0699  1.3791 -1.3410
  260MOL0     H34289   5.581   5.482   1.920  0.1461 -1.3142 -0.4277
  260MOL0     H34290   5.509   5.444   2.203 -0.8987 -0.4936 -0.4868
  260MOL0     H34291   5.395   5.362   2.092  0.8839 -2.1483 -2.9840
  260MOL0     H34292   5.482   5.639   2.053  3.0737 -2.2093  1.8794
  260MOL0     H34293   5.333   5.573   1.989 -0.1739 -1.3886 -0.0664
  260MOL0     H34294   5.364   5.576   2.289 -0.4525 -2.2381 -1.5294
  260MOL0     H34295   5.210   5.582   2.199 -0.8546  1.5921 -1.6870
  260MOL0     H34296   5.243   5.801   2.115  0.2095 -0.2724 -0.5356
  260MOL0     H34297   5.393   5.822   2.205  0.6419 -1.2757  1.1932
  260MOL0     H34298   5.139   5.792   2.327  0.0795 -2.5138  2.4367
  260MOL0     H34299   5.291   5.761   2.421 -2.4105 -2.1378  0.5105
  260MOL0     H34300   5.162   6.010   2.293  0.2539  0.3023  1.9713
  260MOL0     H34301   5.327   6.021   2.349 -0.4145  0.4776 -0.2062
  260MOL0     H34302   5.899   5.289   2.215  0.4276  0.6323 -0.3440
  260MOL0     H34303   6.128   5.222   2.279  0.4145 -0.6609 -1.2776
  260MOL0     H34304   6.435   4.778   2.205 -0.6252  1.1795 -3.8407
  260MOL0     H34305   6.667   4.703   2.255 -0.5499 -0.5527 -1.5224
  260MOL0     H34306   7.963   3.815   3.384 -0.1990  1.5918 -1.2762
  260MOL0     H34307   8.147   3.650   3.389  4.0344 -0.9530 -1.8066
  260MOL0     H34308   8.603   3.511   3.009  2.1751  1.1523  0.8545
  260MOL0     H34309   8.785   3.346   3.059 -1.3052 -1.2878 -1.1244
  260MOL0     H34310   8.765   2.994   3.285 -2.2481  1.0842  0.4592
  260MOL0     H34311   8.733   3.100   3.424  1.9685  2.1542  1.1500
  260MOL0     H34312   9.009   3.064   3.314 -2.2163 -1.8629 -0.4963
  260MOL0     H34313   8.950   3.158   3.457 -1.4840 -0.5987  1.0467
  260MOL0     H34314   8.923   2.865   3.449 -0.4422  0.9458  0.3938
  260MOL0     H34315   8.902   2.977   3.589 -1.9151 -0.0065 -1.2712
  260MOL0     H34316   9.160   2.891   3.446 -0.6838 -0.4952  0.5571
  260MOL0     H34317   9.160   3.039   3.535 -0.2875  1.0354 -0.5719
  260MOL0     H34318   9.161   2.750   3.846  1.3148 -0.6926 -0.1239
  260MOL0     H34319   8.537   3.178   3.380 -1.8984 -0.6675 -2.3610
  260MOL0     H34320   8.377   3.361   3.349  0.1854  1.8288 -0.1889
  261MOL0     O34321   7.750   5.899   1.707 -0.2209 -0.2304 -1.0336
  261MOL0     C34322   7.723   5.949   1.604  0.2023  0.3796 -0.3863
  261MOL0     O34323   7.807   6.028   1.528  0.5301  0.2827  0.6260
  261MOL0     C34324   7.935   6.063   1.565  0.2467 -0.5345  0.8813
  261MOL0     C34325   7.981   6.190   1.518 -0.5861  0.0524  0.0688
  261MOL0     C34326   8.118   6.223   1.527 -0.5423 -0.1579  0.7190
  261MOL0     C34327   8.207   6.132   1.583 -0.3502  0.6371  0.2073
  261MOL0     O34328   8.339   6.169   1.594  0.2026 -0.4507 -0.0941
  261MOL0     C34329   8.426   6.096   1.679  0.4343  0.4098 -0.0469
  261MOL0     C34330   8.571   6.148   1.668 -0.5440 -0.5262 -0.4023
  261MOL0     C34331   8.585   6.299   1.643  0.3458  0.7173 -0.5440
  261MOL0     C34332   8.735   6.336   1.655  0.5509 -0.4262 -0.1117
  261MOL0     C34333   8.762   6.491   1.653 -0.3029 -0.2606 -0.7333
  261MOL0     C34334   8.676   6.575   1.753 -0.7284  0.1424  0.2169
  261MOL0     C34335   8.705   6.522   1.891 -1.3416 -0.4618 -0.3887
  261MOL0     C34336   8.602   6.577   1.994  1.4023 -0.8140  0.0261
  261MOL0     N34337   8.596   6.500   2.126  0.8285 -0.4558  0.2282
  261MOL0     C34338   8.506   6.415   2.176  0.8343  0.7555  0.3895
  261MOL0     C34339   8.544   6.376   2.303  0.0002 -0.0983  0.2684
  261MOL0     C34340   8.457   6.276   2.380  0.2472 -0.4203  0.0499
  261MOL0     C34341   8.358   6.361   2.459  0.9472 -0.5980 -0.9620
  261MOL0     C34342   8.409   6.373   2.607 -0.1909 -0.2245  0.0801
  261MOL0     C34343   8.327   6.449   2.716  0.0874  0.7722  0.4198
  261MOL0     O34344   8.189   6.381   2.718 -0.6319  0.2028 -0.6955
  261MOL0     C34345   8.104   6.388   2.822  0.5179 -0.3366  0.5609
  261MOL0     C34346   7.991   6.310   2.801  0.9427 -0.1230 -0.0871
  261MOL0     C34347   7.904   6.301   2.916  0.8926 -0.8037 -1.0682
  261MOL0     C34348   7.908   6.394   3.030  0.8677  0.2775 -0.6252
  261MOL0     C34349   7.818   6.383   3.144 -0.1260 -0.9553  0.9646
  261MOL0     O34350   7.776   6.488   3.216  0.3946 -0.5293 -0.2456
  261MOL0     C34351   7.652   6.506   3.276  0.8304 -0.1273 -0.0830
  261MOL0     C34352   7.544   6.413   3.283 -0.3649 -0.1517  0.5582
  261MOL0     C34353   7.429   6.454   3.350  0.4320 -0.3326  0.0699
  261MOL0     C34354   7.412   6.586   3.408  0.5135 -0.3092  0.4829
  261MOL0     O34355   7.292   6.619   3.466 -0.0700  0.0431 -0.6803
  261MOL0     C34356   7.302   6.674   3.603 -0.2280 -0.1412  0.3531
  261MOL0     C34357   7.161   6.672   3.660 -0.0148 -0.1293 -0.0089
  261MOL0     C34358   7.159   6.772   3.781 -1.3028 -0.0868 -0.4618
  261MOL0     C34359   7.226   6.712   3.915 -0.7029 -0.5515  0.6073
  261MOL0     C34360   7.176   6.804   4.029  0.4076 -0.2063 -0.1431
  261MOL0     C34361   7.257   6.770   4.162  0.5041 -0.0450 -0.4591
  261MOL0     C34362   7.193   6.821   4.294 -2.0079  0.6173  0.4330
  261MOL0     C34363   7.236   6.960   4.337 -0.2481  0.2821 -1.3317
  261MOL0    Cl34364   7.204   7.078   4.205 -0.1542  0.5826 -0.2945
  261MOL0     C34365   7.519   6.674   3.402  0.4572  0.3316 -0.0507
  261MOL0     C34366   7.639   6.624   3.343 -0.4574  0.3800 -0.3397
  261MOL0     O34367   7.778   6.266   3.163  0.1813 -0.3109  0.4168
  261MOL0     C34368   8.016   6.482   3.037  0.0639 -0.0067 -0.1457
  261MOL0     C34369   8.112   6.485   2.932  0.4628  0.3370 -0.4424
  261MOL0     N34370   8.670   6.442   2.325  0.6552 -0.3444 -0.3982
  261MOL0     N34371   8.697   6.511   2.220  0.8697 -0.4750 -0.4462
  261MOL0     C34372   8.158   6.013   1.630  0.1699 -0.2060 -0.4864
  261MOL0     C34373   8.024   5.984   1.627  1.1032  0.4227 -0.0468
  261MOL0     C34374   7.592   5.926   1.553  0.4382  0.0584 -0.0817
  261MOL0     C34375   7.495   5.877   1.636  0.6904  1.0593  0.8369
  261MOL0     C34376   7.355   5.881   1.598 -0.4428 -0.1197  0.4982
  261MOL0     C34377   7.319   5.916   1.464 -0.4346 -1.3045 -0.3473
  261MOL0     O34378   7.190   5.908   1.420 -0.7107 -0.2011  0.1597
  261MOL0     C34379   7.086   5.848   1.498 -0.4689  0.1389  0.4737
  261MOL0     C34380   6.971   5.793   1.405  0.1601 -0.6717 -0.3777
  261MOL0     C34381   6.897   5.893   1.311  0.4140  0.3419  0.5880
  261MOL0     C34382   6.846   6.001   1.406 -0.7440 -0.7260 -0.0488
  261MOL0     C34383   6.740   6.086   1.362 -0.2936  0.5550 -0.5542
  261MOL0     C34384   6.636   6.133   1.323 -0.1721 -0.0429 -0.4693
  261MOL0     C34385   7.422   5.961   1.377 -0.2770  0.1473 -0.8857
  261MOL0     C34386   7.552   5.971   1.422  0.3687 -0.6807 -0.0887
  261MOL0     H34387   7.911   6.254   1.464 -0.5981 -0.3946 -0.4633
  261MOL0     H34388   8.160   6.313   1.483 -2.0863 -0.3142 -1.1621
  261MOL0     H34389   8.425   5.987   1.669 -2.3278  0.0526  2.6156
  261MOL0     H34390   8.391   6.112   1.782 -2.1199 -3.5581 -0.0933
  261MOL0     H34391   8.615   6.115   1.574  2.7208  0.9070  0.5038
  261MOL0     H34392   8.637   6.122   1.750 -0.9808  0.5020  0.2913
  261MOL0     H34393   8.533   6.364   1.714  0.6466  0.3620  0.0105
  261MOL0     H34394   8.544   6.312   1.543  0.3411  3.3335 -0.2703
  261MOL0     H34395   8.778   6.290   1.745 -0.7324 -0.0839  0.6956
  261MOL0     H34396   8.801   6.295   1.578  2.8682  3.4246 -0.4537
  261MOL0     H34397   8.762   6.534   1.552  3.9815 -2.1959 -1.8245
  261MOL0     H34398   8.866   6.499   1.687 -0.7525 -0.9757  0.9047
  261MOL0     H34399   8.568   6.567   1.733 -0.6435  1.7583 -1.1788
  261MOL0     H34400   8.712   6.677   1.737 -0.7589  0.1593  0.2562
  261MOL0     H34401   8.684   6.415   1.891  0.7141 -0.9707 -2.7580
  261MOL0     H34402   8.808   6.547   1.920 -1.8730  0.7191  0.5784
  261MOL0     H34403   8.501   6.589   1.952  0.6471  0.5331  2.0789
  261MOL0     H34404   8.615   6.681   2.026 -1.4615 -0.8539  1.5741
  261MOL0     H34405   8.413   6.386   2.129 -0.4947  2.2969  1.9022
  261MOL0     H34406   8.528   6.209   2.428  1.1443  0.6725  0.2796
  261MOL0     H34407   8.393   6.211   2.319  0.9394  0.2693 -1.4554
  261MOL0     H34408   8.261   6.313   2.472  0.8176 -0.1634 -0.2652
  261MOL0     H34409   8.335   6.461   2.422 -1.0090 -0.4207  0.5951
  261MOL0     H34410   8.422   6.269   2.639  0.3337 -0.0609  0.3935
  261MOL0     H34411   8.502   6.429   2.615  0.6209 -1.5868  0.5023
  261MOL0     H34412   8.314   6.556   2.702 -2.4139  0.6287  1.1718
  261MOL0     H34413   8.373   6.434   2.814  0.8201 -0.3842 -0.0701
  261MOL0     H34414   7.979   6.239   2.720  1.0463  1.4201 -1.5058
  261MOL0     H34415   7.833   6.220   2.922  1.2254 -1.0274 -0.0511
  261MOL0     H34416   7.559   6.313   3.243 -0.0979  0.0837  0.0473
  261MOL0     H34417   7.349   6.381   3.345  0.8793 -0.7170 -2.6749
  261MOL0     H34418   7.339   6.776   3.591 -0.7577  0.1232  0.9331
  261MOL0     H34419   7.374   6.615   3.662 -0.5759  1.0425  2.0414
  261MOL0     H34420   7.135   6.570   3.692 -0.3507  0.3364  1.2826
  261MOL0     H34421   7.092   6.701   3.580 -1.5958 -0.5467  1.1449
  261MOL0     H34422   7.054   6.789   3.805 -0.5369  2.0651  1.7569
  261MOL0     H34423   7.201   6.872   3.772 -1.2781 -0.0795 -0.2851
  261MOL0     H34424   7.194   6.608   3.931 -0.7679 -1.9819 -6.0191
  261MOL0     H34425   7.335   6.713   3.913 -0.6186 -1.9031  2.2792
  261MOL0     H34426   7.072   6.784   4.055  0.2979 -0.3289 -0.6689
  261MOL0     H34427   7.198   6.907   4.000 -0.7211  0.4728  1.2674
  261MOL0     H34428   7.356   6.816   4.156  0.3733  0.2153 -0.6149
  261MOL0     H34429   7.281   6.663   4.164  0.3329 -0.0954 -1.0144
  261MOL0     H34430   7.084   6.825   4.297 -2.1125 -1.1048 -0.0867
  261MOL0     H34431   7.228   6.754   4.373  1.6008 -0.0922 -1.5598
  261MOL0     H34432   7.339   6.956   4.374 -1.8320 -2.2342  3.7294
  261MOL0     H34433   7.176   6.991   4.422 -0.2975 -0.8014 -0.9559
  261MOL0     H34434   7.510   6.777   3.437  0.8506 -0.6164  3.1576
  261MOL0     H34435   7.720   6.696   3.344  0.6176 -0.7901 -0.2694
  261MOL0     H34436   8.024   6.563   3.109 -0.9679 -0.1166  0.1095
  261MOL0     H34437   8.188   6.562   2.923 -0.0296  0.9726  0.7027
  261MOL0     H34438   8.220   5.945   1.687  1.2837  0.0526 -1.3712
  261MOL0     H34439   7.998   5.885   1.665  1.2081  0.2806 -0.3478
  261MOL0     H34440   7.503   5.836   1.736 -3.3135 -1.5717  0.2841
  261MOL0     H34441   7.285   5.833   1.666  0.2797 -1.0972  0.5799
  261MOL0     H34442   7.052   5.922   1.571  0.6060  1.7127 -0.5565
  261MOL0     H34443   7.123   5.758   1.548  0.4532  0.0615 -0.3171
  261MOL0     H34444   7.011   5.720   1.333  0.4311 -1.4016  0.4841
  261MOL0     H34445   6.889   5.751   1.464 -0.1321  0.9239  0.3930
  261MOL0     H34446   6.807   5.857   1.260 -0.9610  0.6572  2.6433
  261MOL0     H34447   6.961   5.938   1.235  1.0919  0.9887  1.5210
  261MOL0     H34448   6.802   5.963   1.499 -2.0664  0.6596 -0.0657
  261MOL0     H34449   6.925   6.068   1.440 -0.2084 -0.5843 -1.5016
  261MOL0     H34450   6.547   6.183   1.292 -0.6298  0.8650  2.1012
  261MOL0     H34451   7.387   6.004   1.284  0.0609  1.5420 -0.3983
  261MOL0     H34452   7.629   6.013   1.359  0.7444 -0.7704  0.3048
  262MOL0     O34453   4.146   7.929   8.335 -0.6107  0.7760 -0.3513
  262MOL0     C34454   4.243   7.892   8.395  0.1978 -0.3032  0.2277
  262MOL0     O34455   4.353   7.810   8.352 -1.0978  0.6033  0.1684
  262MOL0     C34456   4.365   7.727   8.236  0.9153  0.1238 -0.7008
  262MOL0     C34457   4.251   7.671   8.180 -0.0777  0.7983  0.9766
  262MOL0     C34458   4.259   7.575   8.074 -0.2061 -0.2805 -0.5592
  262MOL0     C34459   4.387   7.546   8.017  0.5348  0.5515  0.8647
  262MOL0     O34460   4.407   7.476   7.904  0.1724  0.7958  0.0431
  262MOL0     C34461   4.349   7.538   7.788  0.7397  0.2819 -0.0495
  262MOL0     C34462   4.408   7.665   7.733  0.2526  0.4070  0.2030
  262MOL0     C34463   4.561   7.656   7.716  1.0976  0.0308  0.2684
  262MOL0     C34464   4.640   7.771   7.649 -0.5178 -0.5160 -0.1011
  262MOL0     C34465   4.626   7.905   7.717 -0.3362 -0.4676  0.1619
  262MOL0     C34466   4.717   8.020   7.643  0.4108  0.4248 -0.1563
  262MOL0     C34467   4.702   8.154   7.711 -0.5580 -0.8825 -0.7974
  262MOL0     C34468   4.835   8.226   7.724 -0.2771  0.0225  0.2332
  262MOL0     N34469   4.822   8.340   7.819 -0.4749  0.0983 -0.4683
  262MOL0     C34470   4.880   8.363   7.948  0.9779 -0.5996 -0.1775
  262MOL0     C34471   4.855   8.494   7.980  0.6253  0.2961 -0.1520
  262MOL0     C34472   4.898   8.559   8.109 -0.2922 -0.7656 -0.1215
  262MOL0     C34473   4.779   8.628   8.174 -0.1687  0.7064  0.3236
  262MOL0     C34474   4.723   8.761   8.111  0.2925  0.8697  0.4329
  262MOL0     C34475   4.798   8.878   8.141 -0.7834 -1.0504  0.1819
  262MOL0     O34476   4.793   8.975   8.028 -0.0426  0.9930  0.0911
  262MOL0     C34477   4.740   9.096   8.045 -0.0368 -0.5456  0.0121
  262MOL0     C34478   4.631   9.116   8.114  0.0905  0.0347 -0.4156
  262MOL0     C34479   4.570   9.235   8.134  0.6355 -0.4567  0.4014
  262MOL0     C34480   4.624   9.352   8.069  0.8010 -0.4732 -0.1737
  262MOL0     C34481   4.561   9.486   8.093 -1.0481 -0.1877  0.2427
  262MOL0     O34482   4.427   9.491   8.112  0.1458  0.6486  0.3774
  262MOL0     C34483   4.353   9.606   8.099  0.7551 -0.4435  0.1672
  262MOL0     C34484   4.331   9.660   7.974 -0.3565 -0.6114 -0.1238
  262MOL0     C34485   4.234   9.755   7.961 -0.4042 -0.2187 -1.0005
  262MOL0     C34486   4.163   9.813   8.073 -0.8565  1.4882 -0.8233
  262MOL0     O34487   4.067   9.908   8.055 -0.0885  0.2833  0.2665
  262MOL0     C34488   3.938   9.857   8.013  0.0790  0.1319 -1.1229
  262MOL0     C34489   3.849   9.941   8.103 -1.4549  0.1105 -0.5057
  262MOL0     C34490   3.878   9.915   8.258 -1.5722  0.0746  0.5767
  262MOL0     C34491   3.785  10.000   8.348 -0.0469  0.1533  0.0588
  262MOL0     C34492   3.629   9.979   8.330  0.2401  0.0763 -0.0710
  262MOL0     C34493   3.592   9.836   8.359 -0.8182  0.1665  0.5009
  262MOL0     C34494   3.466   9.792   8.286 -0.3717 -0.2188 -0.3604
  262MOL0     C34495   3.410   9.673   8.356  0.4262 -0.0448 -0.3429
  262MOL0    Cl34496   3.521   9.538   8.351  0.0075  0.4451 -0.4201
  262MOL0     C34497   4.193   9.755   8.194  0.1056 -0.4206 -1.1462
  262MOL0     C34498   4.281   9.650   8.204  0.1894 -0.5952 -0.6804
  262MOL0     O34499   4.637   9.587   8.089  0.0578  0.2784 -0.4115
  262MOL0     C34500   4.746   9.332   8.006  0.1736 -0.6401  0.0013
  262MOL0     C34501   4.800   9.204   7.990 -0.9822  0.4617 -0.5257
  262MOL0     N34502   4.810   8.550   7.862 -0.0416  0.1104 -0.1346
  262MOL0     N34503   4.789   8.467   7.772 -0.1838  0.9835 -0.1797
  262MOL0     C34504   4.499   7.581   8.089 -0.5745  0.4015  0.6741
  262MOL0     C34505   4.489   7.678   8.198  0.6108  0.2118  1.2557
  262MOL0     C34506   4.250   7.945   8.538  0.1860 -0.7887  0.0700
  262MOL0     C34507   4.345   7.901   8.642 -0.7708  0.4454 -0.2911
  262MOL0     C34508   4.356   7.959   8.770  0.5496  0.7230  0.1468
  262MOL0     C34509   4.277   8.073   8.789  0.5331 -0.1763  0.6570
  262MOL0     O34510   4.294   8.152   8.897  0.3137  0.0094  0.1281
  262MOL0     C34511   4.188   8.167   8.987 -0.3265 -0.0386 -1.0818
  262MOL0     C34512   4.228   8.075   9.106  0.1689  0.0806  0.2904
  262MOL0     C34513   4.345   8.130   9.187  0.1124 -0.7762 -0.5387
  262MOL0     C34514   4.427   8.022   9.259  0.1463 -0.2721 -0.1042
  262MOL0     C34515   4.501   7.939   9.159  0.0927  0.4031 -0.5423
  262MOL0     C34516   4.563   7.867   9.090  0.3625  1.0050  0.1186
  262MOL0     C34517   4.183   8.121   8.697  0.4897 -0.1023 -1.0793
  262MOL0     C34518   4.167   8.057   8.572 -0.0885  0.4654  0.0582
  262MOL0     H34519   4.150   7.705   8.201 -0.9570 -1.0891  0.1274
  262MOL0     H34520   4.164   7.541   8.035 -1.0630  0.9087  0.4223
  262MOL0     H34521   4.241   7.542   7.802  0.4333 -0.4009 -1.9186
  262MOL0     H34522   4.371   7.457   7.718 -0.5119  0.9062 -1.2152
  262MOL0     H34523   4.378   7.742   7.805  1.0493  0.8642  0.0591
  262MOL0     H34524   4.368   7.691   7.635  0.5581  0.2131  0.0266
  262MOL0     H34525   4.579   7.564   7.659 -0.5737  0.0463 -0.3354
  262MOL0     H34526   4.603   7.645   7.816 -1.3379  1.7347  1.5586
  262MOL0     H34527   4.747   7.747   7.654  0.2137  1.8948 -2.2296
  262MOL0     H34528   4.619   7.787   7.543 -2.1308 -1.9700 -0.0417
  262MOL0     H34529   4.662   7.887   7.818  0.1554 -1.5164 -0.1837
  262MOL0     H34530   4.520   7.933   7.714  0.1128  1.3805  0.3227
  262MOL0     H34531   4.678   8.033   7.542 -0.1183 -0.5938 -0.0938
  262MOL0     H34532   4.822   7.990   7.642 -0.1304 -1.5882 -1.3611
  262MOL0     H34533   4.632   8.220   7.660  1.7385  1.2752 -1.3526
  262MOL0     H34534   4.665   8.132   7.811 -1.0743  2.0005 -0.2651
  262MOL0     H34535   4.848   8.264   7.622 -0.3252 -0.9722 -0.1544
  262MOL0     H34536   4.920   8.170   7.763  1.6125  0.6167 -2.7274
  262MOL0     H34537   4.928   8.288   8.009 -2.0206 -1.6255  1.0745
  262MOL0     H34538   4.969   8.640   8.089  1.7672 -2.9768 -2.5557
  262MOL0     H34539   4.936   8.476   8.170 -0.0833 -1.2295 -0.8609
  262MOL0     H34540   4.804   8.638   8.280 -0.3559 -2.0054  0.7016
  262MOL0     H34541   4.694   8.558   8.181 -0.3734  0.9893  0.7373
  262MOL0     H34542   4.708   8.739   8.004 -1.8662 -1.7676  1.1508
  262MOL0     H34543   4.620   8.762   8.148  0.6848 -2.2372  1.9612
  262MOL0     H34544   4.902   8.850   8.162 -0.3423  1.1790  1.2774
  262MOL0     H34545   4.768   8.928   8.234 -0.6831  2.9181 -1.7241
  262MOL0     H34546   4.592   9.029   8.166 -0.7412  1.1753  0.9253
  262MOL0     H34547   4.480   9.238   8.194  0.5160  1.2785  0.1799
  262MOL0     H34548   4.378   9.615   7.887  2.7133 -0.0554  1.1312
  262MOL0     H34549   4.207   9.777   7.859 -1.0662 -2.5865 -1.3902
  262MOL0     H34550   3.926   9.750   8.028 -1.0936  0.4077  0.1389
  262MOL0     H34551   3.909   9.883   7.911 -4.0706 -4.4537 -1.4653
  262MOL0     H34552   3.753   9.896   8.077 -0.2794 -1.2661 -2.6914
  262MOL0     H34553   3.847  10.048   8.078  0.2502 -0.2468 -2.4029
  262MOL0     H34554   3.981   9.939   8.287 -0.9557  0.3520 -1.6671
  262MOL0     H34555   3.875   9.808   8.279  1.1781  0.5201  4.2644
  262MOL0     H34556   3.811   9.989   8.454  2.3436  2.0505 -0.2276
  262MOL0     H34557   3.790  10.109   8.338 -1.4321  0.2885  0.6587
  262MOL0     H34558   3.601  10.014   8.230  1.1504 -1.5295 -0.9098
  262MOL0     H34559   3.575  10.043   8.401 -1.2969 -0.0685 -1.0616
  262MOL0     H34560   3.576   9.817   8.466 -0.5424 -2.9393  0.0602
  262MOL0     H34561   3.670   9.769   8.323 -0.3228  2.2621 -2.7715
  262MOL0     H34562   3.395   9.876   8.286  0.6521  0.6755  0.8961
  262MOL0     H34563   3.484   9.769   8.180  0.0828 -1.8986  0.0577
  262MOL0     H34564   3.319   9.646   8.303  1.6518  0.2217 -2.7111
  262MOL0     H34565   3.399   9.706   8.460  0.3954 -0.8309 -0.0918
  262MOL0     H34566   4.129   9.778   8.279 -0.7362 -1.2003 -1.5481
  262MOL0     H34567   4.290   9.607   8.303  1.0758  3.4880  1.2271
  262MOL0     H34568   4.792   9.418   7.960 -1.2615  0.3331  0.3104
  262MOL0     H34569   4.889   9.202   7.929 -1.0709 -0.4319 -0.6335
  262MOL0     H34570   4.600   7.549   8.066 -0.0684  3.2312 -1.5423
  262MOL0     H34571   4.583   7.708   8.243  1.4672 -1.1151  0.4251
  262MOL0     H34572   4.408   7.817   8.615  1.2097  0.6888  3.0034
  262MOL0     H34573   4.422   7.924   8.848  3.0513  3.1394 -0.7285
  262MOL0     H34574   4.093   8.131   8.946  0.2212 -1.1961 -1.3687
  262MOL0     H34575   4.188   8.272   9.021  4.2070  0.4522 -1.9724
  262MOL0     H34576   4.150   8.029   9.168  1.5623 -4.7833 -1.1395
  262MOL0     H34577   4.260   7.978   9.066  0.5591  0.0410  0.6823
  262MOL0     H34578   4.307   8.201   9.261  1.0703  0.2948 -1.0469
  262MOL0     H34579   4.412   8.185   9.120  0.5009 -0.6818 -0.0807
  262MOL0     H34580   4.498   8.061   9.332  0.4150  1.5405 -1.2640
  262MOL0     H34581   4.362   7.946   9.304  0.5010 -2.3550 -2.8691
  262MOL0     H34582   4.610   7.784   9.040 -1.4566 -1.3030  1.9988
  262MOL0     H34583   4.123   8.210   8.707  0.5697 -0.1606  0.0737
  262MOL0     H34584   4.079   8.089   8.518 -2.5060 -3.2714  1.3851
  263MOL0     O34585   3.000   1.458   8.932 -0.2160 -0.1224 -0.5060
  263MOL0     C34586   2.883   1.419   8.897  0.4626  0.2584 -0.5677
  263MOL0     O34587   2.768   1.426   8.975  0.2992  0.1111 -1.0074
  263MOL0     C34588   2.782   1.458   9.110 -0.2424 -0.0327 -0.2121
  263MOL0     C34589   2.771   1.351   9.192 -0.7775  0.3533 -0.9401
  263MOL0     C34590   2.796   1.367   9.332  1.1734 -1.1806  0.4829
  263MOL0     C34591   2.822   1.491   9.393  0.3861  0.6132  0.4843
  263MOL0     O34592   2.854   1.491   9.520  0.3491 -0.0290  0.5305
  263MOL0     C34593   2.882   1.620   9.583 -0.1769  0.3272 -0.6998
  263MOL0     C34594   2.912   1.592   9.726 -0.0229 -0.2311  0.1510
  263MOL0     C34595   2.970   1.726   9.774  0.4303  0.2581  0.2613
  263MOL0     C34596   2.985   1.715   9.930 -0.2782 -0.4428  0.6174
  263MOL0     C34597   3.098   1.802   9.973  0.2052 -0.3337  1.0933
  263MOL0     C34598   3.148   1.762  10.108 -0.0863 -0.5760  0.2290
  263MOL0     C34599   3.265   1.852  10.146 -0.8450 -0.0245  0.2217
  263MOL0     C34600   3.404   1.826  10.079 -0.4655  0.2419 -0.3388
  263MOL0     N34601   3.506   1.927  10.123  0.2633 -0.4051  0.2088
  263MOL0     C34602   3.546   1.948  10.252 -0.2499 -0.3225 -0.0121
  263MOL0     C34603   3.614   2.066  10.252  0.5299  0.6580 -0.3157
  263MOL0     C34604   3.685   2.123  10.366  0.7413 -0.4001 -0.2604
  263MOL0     C34605   3.757   2.254  10.324  0.5501 -0.6890  0.6517
  263MOL0     C34606   3.840   2.299  10.442  0.4289 -0.9589 -0.1245
  263MOL0     C34607   3.976   2.231  10.467 -0.0178 -0.2274 -0.6285
  263MOL0     O34608   3.961   2.096  10.514 -0.2701 -0.6661 -0.0996
  263MOL0     C34609   4.070   2.020  10.518 -0.3291  0.5101  0.4082
  263MOL0     C34610   4.192   2.073  10.565 -0.1954 -0.5721  0.4640
  263MOL0     C34611   4.307   1.988  10.569 -0.5004 -0.0733  0.0078
  263MOL0     C34612   4.302   1.858  10.526  0.2454  0.2404  0.1544
  263MOL0     C34613   4.426   1.767  10.517  0.5465  0.2659 -1.1219
  263MOL0     O34614   4.398   1.647  10.568 -0.2415  1.0886  0.3055
  263MOL0     C34615   4.491   1.546  10.579 -0.3584  0.7329  0.4784
  263MOL0     C34616   4.632   1.563  10.592 -0.8585 -0.3850 -0.2495
  263MOL0     C34617   4.716   1.453  10.609 -0.7748  0.1210 -0.5643
  263MOL0     C34618   4.672   1.322  10.622  0.9430 -1.3987 -0.1123
  263MOL0     O34619   4.749   1.211  10.650  0.4448 -0.4122  0.6762
  263MOL0     C34620   4.887   1.201  10.609 -0.3090  0.2691  0.7379
  263MOL0     C34621   4.949   1.109  10.714 -0.0653  0.0914 -0.1513
  263MOL0     C34622   5.080   1.049  10.664 -1.2163  0.2913 -1.5652
  263MOL0     C34623   5.142   0.956  10.773  1.2330  0.1315 -0.7764
  263MOL0     C34624   5.260   0.870  10.724 -0.3847 -0.0259 -0.0918
  263MOL0     C34625   5.297   0.774  10.827 -0.0259  0.4167  0.2969
  263MOL0     C34626   5.418   0.684  10.776  0.3272 -0.4817  0.6108
  263MOL0     C34627   5.456   0.565  10.867 -0.1865 -0.1334  0.4456
  263MOL0    Cl34628   5.545   0.433  10.772 -0.0472  0.7653  0.2261
  263MOL0     C34629   4.534   1.301  10.611 -0.8804  0.3269  0.0193
  263MOL0     C34630   4.450   1.409  10.586  0.6667 -0.2025 -0.7224
  263MOL0     O34631   4.527   1.803  10.464 -0.2154 -0.0671  0.1457
  263MOL0     C34632   4.172   1.804  10.492  0.0647  0.3011  0.5559
  263MOL0     C34633   4.057   1.887  10.492 -0.7958  1.3812 -1.0624
  263MOL0     N34634   3.614   2.114  10.126  0.1091  0.3279  0.2595
  263MOL0     N34635   3.558   2.023  10.045  0.6056 -0.0954 -0.2525
  263MOL0     C34636   2.811   1.607   9.308  0.0675 -0.9468  0.5837
  263MOL0     C34637   2.790   1.584   9.170 -0.2441  0.2449  0.7964
  263MOL0     C34638   2.858   1.365   8.762  0.8106 -0.5478  0.5854
  263MOL0     C34639   2.949   1.398   8.672 -0.8223  0.6956  0.0880
  263MOL0     C34640   2.937   1.336   8.551  1.1151  1.1075 -1.1543
  263MOL0     C34641   2.842   1.235   8.513 -0.6171 -0.4498 -0.5876
  263MOL0     O34642   2.849   1.178   8.388 -0.0942  0.2334 -0.8424
  263MOL0     C34643   2.803   1.045   8.372  0.6286 -0.2305 -0.2803
  263MOL0     C34644   2.818   0.989   8.225 -0.2779  0.3214 -0.9096
  263MOL0     C34645   2.747   0.851   8.215 -0.5063 -0.4301 -0.0274
  263MOL0     C34646   2.793   0.766   8.091 -0.1534 -0.7029 -0.0296
  263MOL0     C34647   2.740   0.628   8.102  0.4006  0.3350  0.2247
  263MOL0     C34648   2.714   0.509   8.104  0.2788 -0.3044 -0.4045
  263MOL0     C34649   2.747   1.207   8.614 -0.4160  0.5624  0.0059
  263MOL0     C34650   2.749   1.279   8.734 -0.1780  0.5448  0.1126
  263MOL0     H34651   2.791   1.252   9.152  1.9774 -0.2232  1.4941
  263MOL0     H34652   2.803   1.273   9.386 -1.4021 -2.2147 -0.8060
  263MOL0     H34653   2.792   1.682   9.582  1.5504  2.9709 -1.1733
  263MOL0     H34654   2.966   1.669   9.534  1.5595  2.3476  3.7237
  263MOL0     H34655   2.980   1.509   9.747 -0.2873 -0.1145  1.5372
  263MOL0     H34656   2.810   1.574   9.761 -0.1852 -1.2164 -0.7783
  263MOL0     H34657   2.906   1.807   9.738 -1.6553 -1.9076 -1.2142
  263MOL0     H34658   3.068   1.742   9.728  0.5882 -1.5942 -0.1369
  263MOL0     H34659   2.887   1.730   9.977 -0.8068 -1.2211 -0.1892
  263MOL0     H34660   3.018   1.617   9.966  1.5881  0.3804  1.2442
  263MOL0     H34661   3.069   1.908   9.978 -2.3351 -0.9768  1.0381
  263MOL0     H34662   3.180   1.790   9.901  0.3005 -0.7342  1.2677
  263MOL0     H34663   3.174   1.656  10.111  1.1771 -0.3045 -0.3261
  263MOL0     H34664   3.063   1.787  10.173 -0.7233  0.6450 -1.0244
  263MOL0     H34665   3.248   1.959  10.128  0.6439  0.5067  1.6099
  263MOL0     H34666   3.275   1.854  10.255  3.2077  2.0434  0.0268
  263MOL0     H34667   3.391   1.817   9.971 -0.9557  1.1406 -0.3592
  263MOL0     H34668   3.433   1.724  10.106  0.3989  1.2237  2.8289
  263MOL0     H34669   3.517   1.887  10.337 -1.0018 -1.1578 -0.8475
  263MOL0     H34670   3.758   2.043  10.379  1.5489  0.2127 -0.9313
  263MOL0     H34671   3.620   2.128  10.454 -3.4012 -0.7525 -3.0122
  263MOL0     H34672   3.684   2.334  10.308  2.7024  1.3293  0.3762
  263MOL0     H34673   3.822   2.238  10.238 -0.9686 -0.0153 -0.6723
  263MOL0     H34674   3.857   2.406  10.424 -1.6345 -0.6024 -0.1865
  263MOL0     H34675   3.794   2.283  10.539  4.0952 -2.3369  1.5890
  263MOL0     H34676   4.024   2.289  10.546  1.4784  2.9582 -3.6489
  263MOL0     H34677   4.044   2.254  10.385 -0.7959  0.9172 -0.9788
  263MOL0     H34678   4.210   2.178  10.586 -1.6064  0.1099 -1.4487
  263MOL0     H34679   4.402   2.031  10.598 -0.0860 -0.3340 -0.9293
  263MOL0     H34680   4.678   1.662  10.592 -0.0046 -0.7657  0.2558
  263MOL0     H34681   4.822   1.473  10.611 -1.2629  3.1628  0.9565
  263MOL0     H34682   4.930   1.301  10.602  5.2263 -1.8363 -0.6499
  263MOL0     H34683   4.897   1.153  10.511 -4.3611  0.7384 -0.0651
  263MOL0     H34684   4.877   1.026  10.726  2.1657 -2.2320 -1.7613
  263MOL0     H34685   4.970   1.156  10.810 -2.8688 -2.6260  2.0383
  263MOL0     H34686   5.148   1.133  10.647 -0.9783  0.1740 -1.2145
  263MOL0     H34687   5.068   0.991  10.572 -1.3163 -2.9249  0.3512
  263MOL0     H34688   5.176   1.019  10.856  2.3842  0.5052 -1.4951
  263MOL0     H34689   5.060   0.892  10.804  0.2200  1.2365 -1.0896
  263MOL0     H34690   5.333   0.948  10.697 -2.7474  2.7654  1.0199
  263MOL0     H34691   5.227   0.823  10.632 -2.8927  3.8117 -1.4035
  263MOL0     H34692   5.210   0.709  10.841  0.5026 -0.4975 -0.5529
  263MOL0     H34693   5.315   0.821  10.924 -0.5133  1.0801  0.0701
  263MOL0     H34694   5.389   0.650  10.676  0.1165 -1.7941  1.0948
  263MOL0     H34695   5.514   0.736  10.767  0.8548 -1.1091  2.1834
  263MOL0     H34696   5.363   0.519  10.903  0.0062 -1.1675 -0.3344
  263MOL0     H34697   5.521   0.598  10.948 -1.2502  0.9838  0.8764
  263MOL0     H34698   4.501   1.198  10.613  2.0533 -0.7189 -0.5211
  263MOL0     H34699   4.344   1.391  10.577  0.2606  0.8684  1.3579
  263MOL0     H34700   4.159   1.701  10.460  3.9283 -0.4869  0.9929
  263MOL0     H34701   3.964   1.846  10.455 -0.9419 -0.5619  1.1434
  263MOL0     H34702   2.829   1.712   9.329  1.6925 -0.2554 -3.2941
  263MOL0     H34703   2.770   1.669   9.105 -0.5033  0.5232  1.2362
  263MOL0     H34704   3.024   1.476   8.685  3.1219 -2.7091 -0.2180
  263MOL0     H34705   2.983   1.375   8.460 -1.7243  1.2960 -2.6036
  263MOL0     H34706   2.698   1.064   8.397  1.5514  1.3411  2.9689
  263MOL0     H34707   2.838   0.971   8.445  1.8292  0.7935  0.2102
  263MOL0     H34708   2.779   1.053   8.145 -0.3129 -0.6140 -1.6630
  263MOL0     H34709   2.925   0.975   8.203 -0.4048  0.8174 -1.9178
  263MOL0     H34710   2.639   0.863   8.224 -0.6814 -0.5327 -1.6157
  263MOL0     H34711   2.790   0.793   8.296  0.7827 -0.2958 -0.5941
  263MOL0     H34712   2.754   0.810   7.999  0.7687 -2.3113 -1.2419
  263MOL0     H34713   2.902   0.756   8.093  0.2052  2.4644  0.2608
  263MOL0     H34714   2.687   0.406   8.097  2.0962 -0.7294 -1.7752
  263MOL0     H34715   2.675   1.128   8.597  1.8525 -1.6385  0.0877
  263MOL0     H34716   2.672   1.252   8.806 -0.9150 -0.3422 -0.9676
  264MOL0     O34717   3.438  11.163   3.354 -0.0695  0.6809  0.4427
  264MOL0     C34718   3.538  11.103   3.303  0.1007 -1.2987  0.0220
  264MOL0     O34719   3.653  11.067   3.365 -0.3516 -0.1648  0.0638
  264MOL0     C34720   3.675  11.129   3.479 -0.2468 -0.0532  1.5039
  264MOL0     C34721   3.739  11.257   3.477  0.6573 -0.6912 -0.1229
  264MOL0     C34722   3.746  11.333   3.594  0.4435 -0.7836 -0.5954
  264MOL0     C34723   3.699  11.269   3.717 -0.4871 -0.1201 -0.1483
  264MOL0     O34724   3.698  11.328   3.845 -0.1098 -0.3406  0.2550
  264MOL0     C34725   3.754  11.459   3.868  0.2661 -0.4894 -0.1594
  264MOL0     C34726   3.908  11.464   3.883  0.1663  1.2207  0.1933
  264MOL0     C34727   3.982  11.593   3.836 -0.4236  0.4666  0.1324
  264MOL0     C34728   4.115  11.601   3.914  0.6637 -0.3412  0.0677
  264MOL0     C34729   4.185  11.742   3.903 -0.1871 -0.0859 -1.0548
  264MOL0     C34730   4.115  11.848   3.995  0.3079  0.6383  0.2920
  264MOL0     C34731   4.161  11.987   3.948  0.1622  0.5728 -0.5514
  264MOL0     C34732   4.303  12.014   4.008  0.8443  0.6273 -0.4569
  264MOL0     N34733   4.299  12.066   4.147 -0.5930  0.6772  0.7243
  264MOL0     C34734   4.273  12.194   4.180 -0.0006 -0.2360 -0.1369
  264MOL0     C34735   4.298  12.213   4.313  0.8699 -0.8533  1.3045
  264MOL0     C34736   4.279  12.342   4.397  0.2561  0.3638  0.1232
  264MOL0     C34737   4.303  12.483   4.336  0.6930 -0.2097 -0.1617
  264MOL0     C34738   4.345  12.585   4.440 -0.1794  0.0429 -0.2309
  264MOL0     C34739   4.227  12.622   4.520  0.0207 -0.9550 -0.1575
  264MOL0     O34740   4.269  12.717   4.624 -0.3758 -0.8486  0.4219
  264MOL0     C34741   4.170  12.768   4.711  1.2695 -0.2963 -0.2035
  264MOL0     C34742   4.216  12.837   4.824  0.5256  0.0644  0.2472
  264MOL0     C34743   4.127  12.892   4.919 -0.3363  0.2658 -0.4587
  264MOL0     C34744   3.986  12.873   4.908  0.1049  1.2705  0.2201
  264MOL0     C34745   3.886  12.908   5.020  0.4202  0.6254  0.4433
  264MOL0     O34746   3.762  12.837   5.030 -0.0792 -0.2157 -0.1822
  264MOL0     C34747   3.670  12.871   5.128  0.1134  0.3377  1.2430
  264MOL0     C34748   3.541  12.889   5.082  0.2765  0.1969 -0.7969
  264MOL0     C34749   3.440  12.930   5.173 -0.3766  0.1439  0.2570
  264MOL0     C34750   3.470  12.959   5.306  0.2476 -0.5823 -0.0698
  264MOL0     O34751   3.372  13.016   5.383 -0.2195  0.4986  0.7512
  264MOL0     C34752   3.401  13.123   5.473  0.4683 -0.4411 -0.0449
  264MOL0     C34753   3.346  13.080   5.606 -0.4561 -0.1446 -0.6127
  264MOL0     C34754   3.191  13.055   5.619  0.3224 -0.7285 -0.0026
  264MOL0     C34755   3.159  13.005   5.764  1.0075 -0.6785  0.0173
  264MOL0     C34756   3.012  13.019   5.796  0.9811 -0.3388  0.1114
  264MOL0     C34757   2.988  12.999   5.943 -0.8126  0.3757 -0.4109
  264MOL0     C34758   2.853  12.939   5.967 -0.5525  0.7149 -1.0661
  264MOL0     C34759   2.834  12.891   6.117  0.1762  0.7876  0.2735
  264MOL0    Cl34760   2.823  13.033   6.226 -0.0523 -0.4281  0.1953
  264MOL0     C34761   3.601  12.944   5.357  0.2742  0.0913  0.2400
  264MOL0     C34762   3.699  12.888   5.265  0.0239 -0.2498 -0.5667
  264MOL0     O34763   3.922  12.994   5.095 -0.0858 -0.1960  0.2448
  264MOL0     C34764   3.938  12.787   4.807 -0.6327 -0.3595  1.7692
  264MOL0     C34765   4.028  12.729   4.708 -0.6861 -0.2181  0.6530
  264MOL0     N34766   4.318  12.091   4.368 -0.6198  0.4611  0.8969
  264MOL0     N34767   4.317  12.007   4.266  0.7646 -1.3259 -0.1931
  264MOL0     C34768   3.663  11.135   3.726  0.1223  0.4385 -0.4051
  264MOL0     C34769   3.636  11.072   3.601 -0.1441  0.5254  0.7618
  264MOL0     C34770   3.513  11.051   3.160  0.3456  0.8273 -0.1441
  264MOL0     C34771   3.408  11.091   3.083 -0.2500 -0.0969 -1.1480
  264MOL0     C34772   3.398  11.054   2.950 -0.1081  0.9004 -0.3664
  264MOL0     C34773   3.483  10.960   2.900  0.3833  0.4434 -0.3842
  264MOL0     O34774   3.452  10.917   2.775 -0.4805 -0.0634  0.4094
  264MOL0     C34775   3.559  10.845   2.701 -0.9058  0.7601  0.2442
  264MOL0     C34776   3.518  10.774   2.570  0.3543 -0.5020 -0.4231
  264MOL0     C34777   3.448  10.862   2.476  0.4697 -0.7946 -0.2987
  264MOL0     C34778   3.486  10.814   2.343 -0.7267  0.1445  0.3512
  264MOL0     C34779   3.401  10.877   2.236 -0.4217 -0.2108 -0.9411
  264MOL0     C34780   3.342  10.917   2.139  1.1468  0.7947  0.1674
  264MOL0     C34781   3.600  10.921   2.971  1.6440 -0.3093  0.7161
  264MOL0     C34782   3.609  10.968   3.101 -0.2692  0.3787  0.5699
  264MOL0     H34783   3.796  11.286   3.390  0.8738  0.4680  0.3899
  264MOL0     H34784   3.780  11.436   3.603 -1.7802  0.0361 -0.8334
  264MOL0     H34785   3.722  11.515   3.956  3.5712  0.4659  0.5823
  264MOL0     H34786   3.729  11.523   3.783 -0.4606 -0.0951  0.3420
  264MOL0     H34787   3.952  11.387   3.819  1.1506  2.1804 -0.3224
  264MOL0     H34788   3.931  11.443   3.988 -3.9612 -0.1510  0.9719
  264MOL0     H34789   3.931  11.687   3.860  1.6654  2.6738 -3.2439
  264MOL0     H34790   4.002  11.598   3.728  1.4948 -5.3862 -0.1226
  264MOL0     H34791   4.109  11.576   4.020  2.6666  0.8668  0.5160
  264MOL0     H34792   4.186  11.528   3.877  1.5737  0.3102  0.4950
  264MOL0     H34793   4.182  11.758   3.795  0.4394 -4.9246 -2.0341
  264MOL0     H34794   4.288  11.733   3.940 -1.4660 -1.3562  2.6393
  264MOL0     H34795   4.139  11.832   4.100  2.6903 -1.2256 -0.4230
  264MOL0     H34796   4.007  11.836   3.987 -0.0473  3.3215  0.3519
  264MOL0     H34797   4.173  11.994   3.840  2.1523 -1.1443 -0.4925
  264MOL0     H34798   4.092  12.065   3.980 -0.1166  0.6008 -1.2069
  264MOL0     H34799   4.348  12.093   3.947  2.5998  0.0027 -0.0287
  264MOL0     H34800   4.362  11.922   4.009  2.0517  1.3150  2.7781
  264MOL0     H34801   4.245  12.278   4.117  0.8997 -0.4009 -0.7622
  264MOL0     H34802   4.343  12.326   4.485 -0.5683 -1.1184  0.5021
  264MOL0     H34803   4.179  12.339   4.441 -0.2242  0.1030 -0.9623
  264MOL0     H34804   4.220  12.515   4.273  0.6877 -4.5937 -2.7739
  264MOL0     H34805   4.392  12.478   4.273  1.6836  1.2811  1.0377
  264MOL0     H34806   4.417  12.556   4.516  0.3098  3.6755  0.8348
  264MOL0     H34807   4.385  12.674   4.390  0.2177 -0.1273 -0.2202
  264MOL0     H34808   4.172  12.537   4.562 -2.0188 -0.0482 -0.8471
  264MOL0     H34809   4.169  12.676   4.445 -1.0303 -1.2271  0.4343
  264MOL0     H34810   4.323  12.853   4.830  0.3015  2.7233 -1.1607
  264MOL0     H34811   4.157  12.940   5.011 -2.0809 -1.1329  0.9123
  264MOL0     H34812   3.510  12.880   4.979 -0.3448  1.0825 -0.7009
  264MOL0     H34813   3.342  12.952   5.133 -1.5161  2.2336  3.7140
  264MOL0     H34814   3.363  13.222   5.446 -0.0621 -0.2616  1.3019
  264MOL0     H34815   3.508  13.144   5.479  0.8768 -2.1424 -0.7474
  264MOL0     H34816   3.369  13.158   5.679 -1.2557 -2.6416  2.5882
  264MOL0     H34817   3.406  12.993   5.635  1.2081  1.7846  2.1067
  264MOL0     H34818   3.168  12.978   5.545 -1.9190 -1.6215  1.5120
  264MOL0     H34819   3.129  13.138   5.584 -0.1324  0.2921  2.9742
  264MOL0     H34820   3.189  12.903   5.789 -0.0522 -0.9479  0.2341
  264MOL0     H34821   3.199  13.081   5.832 -2.7152  0.3753  1.2303
  264MOL0     H34822   2.963  12.950   5.726  1.6444  0.4854 -1.1881
  264MOL0     H34823   2.973  13.118   5.770 -0.8375 -0.6436  1.4216
  264MOL0     H34824   2.987  13.097   5.989 -0.8466  1.0142 -1.7171
  264MOL0     H34825   3.064  12.933   5.987 -1.1726 -1.7637 -2.7533
  264MOL0     H34826   2.770  13.006   5.945 -1.0840  1.5042  2.6764
  264MOL0     H34827   2.854  12.848   5.907 -0.3155 -1.8454  2.5064
  264MOL0     H34828   2.908  12.824   6.163  0.8058 -0.4244 -2.3230
  264MOL0     H34829   2.741  12.835   6.125  0.1326  0.8890  0.4897
  264MOL0     H34830   3.635  12.955   5.460  0.5162 -0.3386  0.2097
  264MOL0     H34831   3.802  12.874   5.297  0.4624 -0.1348 -1.8615
  264MOL0     H34832   3.834  12.756   4.798 -1.5274  2.8695 -4.3694
  264MOL0     H34833   4.003  12.675   4.618  3.1472  0.6314 -1.1477
  264MOL0     H34834   3.629  11.077   3.812 -1.2908 -0.2890 -1.4226
  264MOL0     H34835   3.607  10.967   3.596  2.0007 -0.0778 -0.4098
  264MOL0     H34836   3.339  11.167   3.119  1.5119  1.6473 -1.2694
  264MOL0     H34837   3.312  11.085   2.891 -1.1179  4.1647  2.4559
  264MOL0     H34838   3.590  10.756   2.757 -1.0523 -1.1017 -2.4482
  264MOL0     H34839   3.644  10.909   2.676 -0.1786 -0.3840 -0.3114
  264MOL0     H34840   3.605  10.724   2.526 -0.9687 -1.1326 -2.4210
  264MOL0     H34841   3.453  10.694   2.607  0.6390 -0.3209  0.5051
  264MOL0     H34842   3.472  10.968   2.486 -0.7773  0.0335 -4.3326
  264MOL0     H34843   3.341  10.851   2.500  0.0841  0.7366 -1.1941
  264MOL0     H34844   3.585  10.845   2.310 -2.0812  2.2934 -2.0396
  264MOL0     H34845   3.470  10.706   2.333  0.9159  0.0845 -3.4665
  264MOL0     H34846   3.299  10.946   2.046  1.2964  1.3161  0.2598
  264MOL0     H34847   3.675  10.856   2.928  2.0571 -0.0406  1.0285
  264MOL0     H34848   3.701  10.941   3.153  0.8285 -2.4811 -2.5373
  265MOL0     O34849   0.358   0.480   0.476  0.0056 -0.3087 -0.5112
  265MOL0     C34850   0.341   0.411   0.378  0.2701  0.5086 -0.7124
  265MOL0     O34851   0.231   0.336   0.346  1.1638  0.4889 -0.5711
  265MOL0     C34852   0.130   0.350   0.448  0.9494  0.3786 -0.5162
  265MOL0     C34853   0.137   0.261   0.555  0.1285  0.2526  0.0322
  265MOL0     C34854   0.037   0.247   0.648  0.0904  0.4314  0.1659
  265MOL0     C34855  -0.071   0.337   0.643  0.2372 -0.1893  0.2513
  265MOL0     O34856  -0.168   0.339   0.731  0.0649 -0.1628 -1.2419
  265MOL0     C34857  -0.139   0.345   0.876  1.1689 -0.6077  0.0670
  265MOL0     C34858  -0.271   0.385   0.955 -0.8143  0.0356  1.1166
  265MOL0     C34859  -0.319   0.532   0.918  0.9282  0.1523 -0.6476
  265MOL0     C34860  -0.409   0.565   0.796  0.5884  0.2830 -0.2282
  265MOL0     C34861  -0.460   0.704   0.781  0.6484 -0.0748 -0.1423
  265MOL0     C34862  -0.544   0.758   0.900  0.5027  0.0179  0.4463
  265MOL0     C34863  -0.676   0.691   0.924  0.6166  0.1326 -0.4343
  265MOL0     C34864  -0.760   0.755   1.040 -0.2969 -0.2490  0.3414
  265MOL0     N34865  -0.862   0.654   1.051  0.2862 -0.8225  0.3218
  265MOL0     C34866  -0.893   0.565   1.149  0.4843 -0.0306  0.2737
  265MOL0     C34867  -1.022   0.527   1.107 -0.3979 -0.4123 -0.4889
  265MOL0     C34868  -1.115   0.432   1.185 -0.2904  0.0055 -0.4429
  265MOL0     C34869  -1.257   0.416   1.122  1.0442  0.2887 -0.4659
  265MOL0     C34870  -1.321   0.289   1.183  0.4841  0.1753  0.8416
  265MOL0     C34871  -1.480   0.280   1.166  0.5308 -0.2347  0.6290
  265MOL0     O34872  -1.510   0.308   1.025  0.2903 -0.7040 -0.1035
  265MOL0     C34873  -1.640   0.328   0.981  0.5646  0.2933 -0.4628
  265MOL0     C34874  -1.757   0.325   1.063 -0.1704  0.5257 -0.2161
  265MOL0     C34875  -1.881   0.310   1.004  0.7778  0.1070 -0.0735
  265MOL0     C34876  -1.903   0.314   0.863 -0.4169 -0.9074 -1.6693
  265MOL0     C34877  -2.042   0.305   0.808  0.1002  0.2212 -0.1819
  265MOL0     O34878  -2.142   0.294   0.896 -0.3314  0.2777  0.3507
  265MOL0     C34879  -2.259   0.256   0.842 -0.2375 -0.8244 -0.5442
  265MOL0     C34880  -2.310   0.123   0.810  0.3875  0.1487 -1.2062
  265MOL0     C34881  -2.441   0.108   0.767  0.1910 -0.0767  0.3912
  265MOL0     C34882  -2.528   0.219   0.743 -0.3510 -0.4566  0.7024
  265MOL0     O34883  -2.653   0.191   0.687  0.0854 -0.2433  0.6680
  265MOL0     C34884  -2.723   0.301   0.637 -0.4061 -0.4881  0.2195
  265MOL0     C34885  -2.862   0.269   0.583  0.6170  0.4664 -0.0509
  265MOL0     C34886  -2.970   0.263   0.690  0.2429 -0.3607 -0.3964
  265MOL0     C34887  -3.117   0.243   0.660 -0.5503 -0.4591  0.1107
  265MOL0     C34888  -3.184   0.207   0.800 -0.0419 -0.3074  0.5614
  265MOL0     C34889  -3.340   0.188   0.789 -0.8363 -0.2555 -0.5452
  265MOL0     C34890  -3.416   0.144   0.917 -0.2397 -0.0917  0.1458
  265MOL0     C34891  -3.434   0.250   1.033 -0.1428 -1.1256  0.5057
  265MOL0    Cl34892  -3.560   0.173   1.130  0.0909  0.1039  0.0848
  265MOL0     C34893  -2.480   0.347   0.768 -0.8098 -0.5651 -0.3986
  265MOL0     C34894  -2.354   0.362   0.822 -0.2762 -1.1650  0.3270
  265MOL0     O34895  -2.057   0.307   0.686 -0.0365 -0.2316  1.3104
  265MOL0     C34896  -1.790   0.332   0.787  0.2781  0.6820  0.2642
  265MOL0     C34897  -1.667   0.339   0.849  0.4806  0.6642 -0.0895
  265MOL0     N34898  -1.052   0.595   0.991  0.6350 -0.5079 -0.2481
  265MOL0     N34899  -0.962   0.674   0.966  0.4694  0.0568  0.2628
  265MOL0     C34900  -0.061   0.445   0.554  0.0067  0.8109 -0.4097
  265MOL0     C34901   0.035   0.446   0.454 -0.3884 -0.9562 -0.2912
  265MOL0     C34902   0.460   0.379   0.293  0.0904 -0.2009 -1.2280
  265MOL0     C34903   0.592   0.408   0.341  0.4845  0.4447  0.6461
  265MOL0     C34904   0.702   0.369   0.261 -0.0118  0.0432 -0.3320
  265MOL0     C34905   0.694   0.310   0.138 -0.1125  1.1815 -0.4586
  265MOL0     O34906   0.812   0.279   0.080  0.0116  0.6282 -0.9274
  265MOL0     C34907   0.886   0.374   0.016  1.0755  0.0491  0.3411
  265MOL0     C34908   1.000   0.306  -0.057  0.9533 -0.2907  0.1538
  265MOL0     C34909   1.096   0.420  -0.095 -0.2698 -0.4649  0.0253
  265MOL0     C34910   1.216   0.356  -0.163  0.2625 -0.1699 -1.1699
  265MOL0     C34911   1.285   0.273  -0.063  0.0305 -0.1150  0.6622
  265MOL0     C34912   1.345   0.206   0.017 -0.2242  0.1611 -0.1863
  265MOL0     C34913   0.567   0.277   0.091  0.4865  0.8303 -0.5575
  265MOL0     C34914   0.451   0.315   0.172 -0.6796 -1.1492  0.0128
  265MOL0     H34915   0.212   0.183   0.547 -2.6273 -2.6597  0.5007
  265MOL0     H34916   0.040   0.169   0.723 -1.1403  1.8192  1.7227
  265MOL0     H34917  -0.065   0.425   0.883  2.3012 -1.7054  1.2350
  265MOL0     H34918  -0.100   0.259   0.930 -0.1751  0.6267  3.2186
  265MOL0     H34919  -0.224   0.382   1.053  0.3303  1.6477  0.6721
  265MOL0     H34920  -0.354   0.315   0.952 -0.8438  0.0948  0.2624
  265MOL0     H34921  -0.226   0.588   0.900  0.1080  1.1886 -1.8300
  265MOL0     H34922  -0.378   0.561   1.005 -1.4364 -3.3254 -0.8990
  265MOL0     H34923  -0.350   0.553   0.704 -0.5921  1.5908 -1.1969
  265MOL0     H34924  -0.481   0.483   0.802  0.1045  0.8400  3.3432
  265MOL0     H34925  -0.513   0.720   0.687  1.7357 -0.9266 -0.9288
  265MOL0     H34926  -0.366   0.759   0.775  0.2646  0.5205 -0.8512
  265MOL0     H34927  -0.579   0.857   0.870  3.0524  1.4146  1.6808
  265MOL0     H34928  -0.486   0.763   0.993  3.1331 -1.6396 -0.9745
  265MOL0     H34929  -0.732   0.690   0.829  1.5152 -2.0743 -1.0092
  265MOL0     H34930  -0.651   0.586   0.940  0.8759  0.1988 -0.3951
  265MOL0     H34931  -0.811   0.848   1.016 -0.1176 -0.1032  0.5171
  265MOL0     H34932  -0.705   0.764   1.134 -1.2089 -2.4824  1.1557
  265MOL0     H34933  -0.844   0.538   1.242 -2.7716 -1.2638  1.8159
  265MOL0     H34934  -1.123   0.481   1.283  3.3966  2.1408 -1.0021
  265MOL0     H34935  -1.069   0.333   1.182  1.2174  0.6771 -3.2299
  265MOL0     H34936  -1.247   0.413   1.013 -2.6156 -4.0940 -1.0006
  265MOL0     H34937  -1.326   0.496   1.147 -1.7731 -2.4648  1.3544
  265MOL0     H34938  -1.270   0.198   1.152  0.4602  0.4032  0.1183
  265MOL0     H34939  -1.318   0.302   1.292 -4.3171  1.7326  1.0339
  265MOL0     H34940  -1.535   0.353   1.226 -1.4915 -0.5338 -0.7536
  265MOL0     H34941  -1.512   0.179   1.191  1.4380 -1.4364 -2.6502
  265MOL0     H34942  -1.749   0.294   1.167 -1.1423 -2.3021 -0.9006
  265MOL0     H34943  -1.965   0.287   1.069  0.8282  0.5337  0.1412
  265MOL0     H34944  -2.235   0.046   0.821 -0.7499 -1.0705 -1.8011
  265MOL0     H34945  -2.471   0.007   0.740  0.0833  0.3082 -1.0305
  265MOL0     H34946  -2.670   0.335   0.547 -2.4046  0.0155 -0.8384
  265MOL0     H34947  -2.743   0.373   0.717  1.9846 -0.1330  0.5689
  265MOL0     H34948  -2.862   0.173   0.531 -1.9418  0.9415 -1.0496
  265MOL0     H34949  -2.898   0.351   0.519 -1.0371  0.7242  1.1525
  265MOL0     H34950  -2.978   0.353   0.752 -5.8808 -0.8470  0.1796
  265MOL0     H34951  -2.930   0.189   0.760 -1.5666 -0.9707  0.0616
  265MOL0     H34952  -3.153   0.341   0.626  1.8578  0.5763  0.3323
  265MOL0     H34953  -3.134   0.164   0.586 -0.3509 -2.4937  2.1269
  265MOL0     H34954  -3.155   0.290   0.866  3.1105  0.3303 -1.4344
  265MOL0     H34955  -3.156   0.109   0.839 -2.6820 -0.2219  3.0474
  265MOL0     H34956  -3.367   0.100   0.730 -2.8589  0.9806 -1.5672
  265MOL0     H34957  -3.378   0.279   0.741  1.4292  0.7063 -0.6597
  265MOL0     H34958  -3.518   0.117   0.886 -0.4612  1.2742 -0.4242
  265MOL0     H34959  -3.372   0.053   0.958  2.2080  0.6380 -0.6751
  265MOL0     H34960  -3.476   0.348   1.008 -0.9230 -1.1691  1.5877
  265MOL0     H34961  -3.338   0.276   1.078  0.9966  1.5769 -3.0042
  265MOL0     H34962  -2.542   0.436   0.763 -0.0961  0.0060  0.4983
  265MOL0     H34963  -2.322   0.463   0.846  1.6709 -1.2373 -1.6958
  265MOL0     H34964  -1.794   0.351   0.680 -2.6926  0.5930  0.2854
  265MOL0     H34965  -1.584   0.337   0.778 -1.0829 -1.2054 -1.9872
  265MOL0     H34966  -0.136   0.524   0.554 -1.0317 -0.1315  0.3733
  265MOL0     H34967   0.028   0.524   0.379 -0.8174 -2.2151 -1.6019
  265MOL0     H34968   0.589   0.445   0.443 -2.4965  2.1051  0.0666
  265MOL0     H34969   0.803   0.390   0.295  0.5147  1.5671 -2.6476
  265MOL0     H34970   0.916   0.448   0.091 -1.6447  0.9739  0.6328
  265MOL0     H34971   0.821   0.426  -0.056  2.6511  1.6742  0.0175
  265MOL0     H34972   1.050   0.237   0.012 -0.0791  0.9852  2.2626
  265MOL0     H34973   0.960   0.247  -0.140 -1.7191 -0.8578  1.7389
  265MOL0     H34974   1.131   0.474  -0.006 -2.5808 -0.4722  1.0301
  265MOL0     H34975   1.042   0.493  -0.157 -1.9654  1.4305  3.4251
  265MOL0     H34976   1.196   0.287  -0.246  0.1397  0.0201 -1.2964
  265MOL0     H34977   1.292   0.428  -0.194  2.1860 -1.9432 -0.8918
  265MOL0     H34978   1.417   0.155   0.077 -0.6412 -0.0190  0.1686
  265MOL0     H34979   0.548   0.219   0.001 -1.5763  0.2277  0.2141
  265MOL0     H34980   0.365   0.284   0.114  0.8015 -3.3788 -1.1486
  266MOL0     O34981   3.840  11.327   6.490 -0.8854 -0.1369  0.8787
  266MOL0     C34982   3.749  11.335   6.410  0.2524 -0.4232 -0.1220
  266MOL0     O34983   3.621  11.368   6.448  0.2268  0.4949 -0.3396
  266MOL0     C34984   3.577  11.419   6.568  0.0283 -0.4468 -0.3947
  266MOL0     C34985   3.441  11.430   6.580 -0.9642 -0.0179  0.2198
  266MOL0     C34986   3.388  11.490   6.701  0.1345  0.0792 -0.7162
  266MOL0     C34987   3.472  11.537   6.809  0.3967  0.4617  0.1062
  266MOL0     O34988   3.433  11.601   6.927  0.0815 -0.4164 -0.0285
  266MOL0     C34989   3.294  11.604   6.971 -0.2012  0.2805 -0.3364
  266MOL0     C34990   3.295  11.591   7.124  0.0742 -0.1981 -0.7114
  266MOL0     C34991   3.367  11.468   7.173 -1.1840  0.6562 -0.4392
  266MOL0     C34992   3.347  11.434   7.325  0.2431 -0.0575 -0.0422
  266MOL0     C34993   3.210  11.372   7.366  0.6036  0.2455  0.4260
  266MOL0     C34994   3.186  11.239   7.302  0.1699  0.0175  0.0763
  266MOL0     C34995   3.079  11.156   7.377 -0.0037 -0.5958  1.4292
  266MOL0     C34996   3.144  11.030   7.434  0.3267 -0.4576  0.5696
  266MOL0     N34997   3.039  10.961   7.511 -0.7297 -0.7501  0.4472
  266MOL0     C34998   3.024  10.988   7.636 -0.4607  0.4103 -0.1670
  266MOL0     C34999   2.934  10.899   7.687 -0.4174  0.3144 -0.7353
  266MOL0     C35000   2.877  10.905   7.832  0.2238 -0.3519  0.2312
  266MOL0     C35001   2.739  10.968   7.832  1.0985 -0.6320  0.3981
  266MOL0     C35002   2.689  10.987   7.975 -0.4236  0.3016  0.2648
  266MOL0     C35003   2.544  11.029   7.990  0.4847  0.2978 -0.0317
  266MOL0     O35004   2.518  11.167   7.947 -0.4799  0.6502  0.7058
  266MOL0     C35005   2.489  11.268   8.037 -0.1339  0.0369  0.4608
  266MOL0     C35006   2.472  11.249   8.175  0.1496 -0.3523 -0.0414
  266MOL0     C35007   2.426  11.360   8.259  0.6544  0.9956  0.0081
  266MOL0     C35008   2.404  11.483   8.203  0.2572 -0.2832  0.3249
  266MOL0     C35009   2.345  11.601   8.274 -0.1920  0.0726  0.7501
  266MOL0     O35010   2.324  11.596   8.409  0.5443 -0.4111  0.0068
  266MOL0     C35011   2.241  11.694   8.460  0.5119  0.0316  0.0518
  266MOL0     C35012   2.127  11.651   8.527 -0.0512  1.5495 -0.1956
  266MOL0     C35013   2.019  11.739   8.570 -0.6760  0.9157  0.7055
  266MOL0     C35014   2.045  11.873   8.539  0.7785 -0.3845  0.7148
  266MOL0     O35015   1.952  11.978   8.549  0.5042  0.0809  0.0456
  266MOL0     C35016   1.840  11.962   8.639  0.3462 -0.5475 -0.1396
  266MOL0     C35017   1.765  12.094   8.663  0.0839 -0.8481 -0.1953
  266MOL0     C35018   1.869  12.209   8.668  0.3095  0.9686  0.0112
  266MOL0     C35019   1.804  12.343   8.706  0.5432 -0.0245 -0.0109
  266MOL0     C35020   1.894  12.458   8.663 -0.7918  0.2564  0.0651
  266MOL0     C35021   1.842  12.584   8.720  0.0098 -0.2125 -0.3622
  266MOL0     C35022   1.888  12.726   8.672  0.1728  0.0730  0.7502
  266MOL0     C35023   2.014  12.779   8.741 -0.5984 -1.0217  0.2556
  266MOL0    Cl35024   1.996  12.814   8.918  0.2059  0.5821  0.0244
  266MOL0     C35025   2.166  11.915   8.488 -0.8161  0.2246 -0.9154
  266MOL0     C35026   2.262  11.827   8.448  0.0921 -0.1631 -1.4586
  266MOL0     O35027   2.312  11.690   8.198  0.2318 -0.0352 -0.3854
  266MOL0     C35028   2.419  11.491   8.057 -0.1893  0.0914 -0.6375
  266MOL0     C35029   2.465  11.392   7.977 -0.5000 -0.4679  1.2687
  266MOL0     N35030   2.888  10.827   7.576  0.2505  0.0958 -0.5408
  266MOL0     N35031   2.955  10.861   7.468  0.1685 -1.6972 -0.6152
  266MOL0     C35032   3.608  11.524   6.795 -0.2305  1.3597  0.0235
  266MOL0     C35033   3.660  11.453   6.681 -0.2086 -0.4527 -0.5319
  266MOL0     C35034   3.768  11.302   6.269 -0.5664 -0.7486  0.2392
  266MOL0     C35035   3.894  11.275   6.219 -0.2556  0.2975 -0.4778
  266MOL0     C35036   3.911  11.243   6.088 -0.4683  0.9671 -0.0487
  266MOL0     C35037   3.801  11.226   5.997 -0.0952 -0.4474 -0.0210
  266MOL0     O35038   3.834  11.174   5.874 -0.5305  0.4585 -0.6633
  266MOL0     C35039   3.726  11.128   5.794  0.2339 -0.4513  0.8719
  266MOL0     C35040   3.780  11.055   5.668 -0.3645 -0.0329 -0.0023
  266MOL0     C35041   3.890  10.952   5.708 -0.1613  1.1922  1.0749
  266MOL0     C35042   3.928  10.847   5.594 -0.1454 -0.3082  0.3028
  266MOL0     C35043   4.006  10.907   5.488  0.7435 -0.2877 -0.3724
  266MOL0     C35044   4.063  10.941   5.391  0.1958 -0.1628  0.5701
  266MOL0     C35045   3.674  11.250   6.050  0.4001  0.1124  0.2496
  266MOL0     C35046   3.655  11.290   6.181  0.8310 -0.4980 -0.3566
  266MOL0     H35047   3.372  11.409   6.499  0.8023  1.4010 -1.7573
  266MOL0     H35048   3.284  11.520   6.713  1.0838  2.3225  4.5871
  266MOL0     H35049   3.222  11.531   6.933 -0.8357  1.2295 -0.9955
  266MOL0     H35050   3.261  11.698   6.926  2.4183  2.1242  1.2583
  266MOL0     H35051   3.198  11.565   7.167  0.5317 -1.8743 -0.6415
  266MOL0     H35052   3.331  11.685   7.167  1.0356 -0.4177 -1.0248
  266MOL0     H35053   3.475  11.482   7.162 -1.3894  1.5786 -1.6184
  266MOL0     H35054   3.335  11.376   7.124 -0.5499 -1.6998  3.1977
  266MOL0     H35055   3.429  11.374   7.364  3.8989  3.6887 -1.2581
  266MOL0     H35056   3.355  11.534   7.368  1.8223  2.3201 -5.1970
  266MOL0     H35057   3.121  11.434   7.354  0.1807 -0.6660 -1.4769
  266MOL0     H35058   3.235  11.354   7.471 -1.1339  0.0256  0.8180
  266MOL0     H35059   3.274  11.174   7.289 -0.2678 -0.1318 -2.8567
  266MOL0     H35060   3.150  11.259   7.201 -1.8026 -1.8936  0.3226
  266MOL0     H35061   3.028  11.206   7.460  0.4936 -0.8062  1.8688
  266MOL0     H35062   3.009  11.132   7.296  0.0152  2.6443  0.2962
  266MOL0     H35063   3.226  11.046   7.503 -0.6515 -0.0853  1.6734
  266MOL0     H35064   3.169  10.959   7.354 -1.7470 -1.2011  0.5164
  266MOL0     H35065   3.070  11.068   7.693  2.7196  0.5162 -2.5934
  266MOL0     H35066   2.951  10.955   7.895  2.7547 -1.4721 -1.6602
  266MOL0     H35067   2.857  10.804   7.868 -0.5506  0.6151  2.6640
  266MOL0     H35068   2.664  10.912   7.776  0.4008  1.7083 -1.1595
  266MOL0     H35069   2.747  11.067   7.786  1.2783 -1.0287 -0.4335
  266MOL0     H35070   2.685  10.883   8.007 -1.2673  0.3813  0.4305
  266MOL0     H35071   2.756  11.055   8.029 -0.1472 -1.4711  2.2764
  266MOL0     H35072   2.508  11.002   8.090  3.9114 -1.4496  0.9102
  266MOL0     H35073   2.494  10.954   7.928  1.1825  0.9842 -1.4642
  266MOL0     H35074   2.456  11.152   8.220 -0.5571  0.0374  0.5774
  266MOL0     H35075   2.374  11.335   8.350 -3.0785 -1.4303 -2.4953
  266MOL0     H35076   2.105  11.545   8.526  0.6963  1.3787  0.1995
  266MOL0     H35077   1.922  11.696   8.588 -0.0013 -0.0669  2.1750
  266MOL0     H35078   1.880  11.915   8.730  1.8904 -3.6363 -2.2463
  266MOL0     H35079   1.776  11.896   8.581  0.3814  1.2312 -2.3681
  266MOL0     H35080   1.714  12.089   8.760 -3.1036  0.8922 -1.6205
  266MOL0     H35081   1.695  12.105   8.579  3.0201 -0.2259 -2.7132
  266MOL0     H35082   1.901  12.223   8.564 -0.9485 -0.7446 -0.6582
  266MOL0     H35083   1.953  12.182   8.732  0.4794  1.4698  0.0089
  266MOL0     H35084   1.703  12.350   8.664 -0.3977 -0.2579  2.0430
  266MOL0     H35085   1.772  12.350   8.811  1.1476 -0.7833  0.2277
  266MOL0     H35086   1.886  12.471   8.554 -0.3339 -2.3193 -0.3593
  266MOL0     H35087   1.999  12.437   8.687 -0.8709 -2.0965 -1.3167
  266MOL0     H35088   1.865  12.579   8.827 -0.6720  1.2378 -0.1171
  266MOL0     H35089   1.734  12.568   8.719  0.2827 -2.3100 -1.3940
  266MOL0     H35090   1.905  12.718   8.565 -2.1081  1.0203  0.2547
  266MOL0     H35091   1.803  12.794   8.681  0.2423  0.3467 -0.5819
  266MOL0     H35092   2.035  12.878   8.700  0.9456 -0.7859  1.5352
  266MOL0     H35093   2.102  12.718   8.719 -0.0535  0.3529 -1.5143
  266MOL0     H35094   2.187  12.021   8.475  3.4162 -0.5531 -1.7822
  266MOL0     H35095   2.347  11.867   8.394 -0.2019  1.6859 -0.6204
  266MOL0     H35096   2.401  11.583   8.001  0.1737 -1.8615 -4.2811
  266MOL0     H35097   2.479  11.402   7.870  1.3200  2.7596  1.7035
  266MOL0     H35098   3.679  11.566   6.866 -0.8103  2.2044  0.1110
  266MOL0     H35099   3.768  11.442   6.670 -0.2294 -0.4608 -0.7332
  266MOL0     H35100   3.983  11.290   6.280 -1.5563 -0.4728  1.7549
  266MOL0     H35101   4.009  11.231   6.043 -1.5137 -0.3196 -2.1023
  266MOL0     H35102   3.667  11.205   5.744 -0.8705 -2.9641 -2.0687
  266MOL0     H35103   3.655  11.065   5.848  1.7132 -0.4155  2.9868
  266MOL0     H35104   3.701  11.006   5.610 -0.5073  2.4070 -2.0957
  266MOL0     H35105   3.830  11.127   5.603 -2.4610  3.0043  1.4988
  266MOL0     H35106   3.869  10.883   5.790  2.0209 -1.3393 -0.3111
  266MOL0     H35107   3.990  10.988   5.733  0.7786 -1.4659  1.5397
  266MOL0     H35108   3.984  10.757   5.619 -0.0725 -0.3007  0.1681
  266MOL0     H35109   3.832  10.817   5.550  0.4922 -0.9291 -0.6994
  266MOL0     H35110   4.130  10.946   5.308  1.2501 -3.3699  1.0936
  266MOL0     H35111   3.581  11.253   5.995 -0.3586 -0.5988  1.4529
  266MOL0     H35112   3.558  11.319   6.220  1.0412 -0.2805  0.0040
  267MOL0     O35113   0.111   6.040  11.249 -0.2301  0.2812  0.1270
  267MOL0     C35114   0.089   6.158  11.209  0.3650 -0.0881  0.4255
  267MOL0     O35115   0.013   6.195  11.101 -0.2928 -0.4535  0.4175
  267MOL0     C35116  -0.073   6.100  11.044 -0.1976 -0.3488 -0.3383
  267MOL0     C35117  -0.212   6.111  11.061 -0.5144  0.0012 -0.5537
  267MOL0     C35118  -0.303   6.016  11.006  0.2430 -0.4281  0.5872
  267MOL0     C35119  -0.250   5.929  10.909  0.5078 -0.1818  0.0684
  267MOL0     O35120  -0.352   5.870  10.823 -0.3459  0.4579 -0.2311
  267MOL0     C35121  -0.309   5.770  10.728 -0.7966  0.4936 -0.7648
  267MOL0     C35122  -0.422   5.737  10.643 -0.3824  0.1640  0.7775
  267MOL0     C35123  -0.495   5.855  10.578 -0.1033  0.0004 -0.4710
  267MOL0     C35124  -0.605   5.798  10.483  0.5878 -0.4120  0.0939
  267MOL0     C35125  -0.710   5.724  10.558 -0.0137  0.0069  0.2225
  267MOL0     C35126  -0.838   5.705  10.468  0.5671 -0.5399  0.0470
  267MOL0     C35127  -0.965   5.656  10.542 -0.2492  1.2693  0.2434
  267MOL0     C35128  -1.053   5.591  10.436  0.5078  0.0763 -1.0167
  267MOL0     N35129  -1.184   5.566  10.495  0.9365  0.2559 -0.0415
  267MOL0     C35130  -1.292   5.649  10.498  0.0423 -0.1748 -0.1113
  267MOL0     C35131  -1.396   5.586  10.557  0.1399  0.8017  0.4677
  267MOL0     C35132  -1.540   5.630  10.581  0.4228 -0.2868 -0.3885
  267MOL0     C35133  -1.609   5.660  10.440 -0.3541 -0.0846  0.5031
  267MOL0     C35134  -1.734   5.743  10.453 -0.3069 -0.2326  0.1199
  267MOL0     C35135  -1.835   5.667  10.533 -0.8037  0.5869  0.0053
  267MOL0     O35136  -1.969   5.696  10.483 -0.4337 -0.0447  0.2228
  267MOL0     C35137  -2.077   5.632  10.544 -0.5390  0.0053 -0.6878
  267MOL0     C35138  -2.205   5.674  10.501  0.5163  0.2188 -0.2794
  267MOL0     C35139  -2.322   5.620  10.535  0.3291  0.3630  0.0209
  267MOL0     C35140  -2.320   5.517  10.627 -0.2960  0.2222 -0.0522
  267MOL0     C35141  -2.447   5.455  10.666  0.6190 -0.2003  0.3668
  267MOL0     O35142  -2.550   5.484  10.576  0.2968 -0.7994 -0.1083
  267MOL0     C35143  -2.678   5.427  10.586  0.1033 -0.3110  0.0001
  267MOL0     C35144  -2.716   5.310  10.659  1.1761  0.0644  0.2454
  267MOL0     C35145  -2.845   5.262  10.664  0.9678  0.0058 -0.1465
  267MOL0     C35146  -2.945   5.333  10.594  0.2672 -0.5908 -0.1103
  267MOL0     O35147  -3.073   5.292  10.591  0.0734 -0.6097  0.0364
  267MOL0     C35148  -3.179   5.378  10.639  0.2345  0.2679 -0.3379
  267MOL0     C35149  -3.294   5.278  10.678 -0.6472 -0.0047 -0.2818
  267MOL0     C35150  -3.413   5.368  10.716 -1.1298 -0.2662 -0.4640
  267MOL0     C35151  -3.551   5.298  10.751  0.4394  0.6534  0.0470
  267MOL0     C35152  -3.631   5.405  10.825 -0.4324 -0.0916  0.2178
  267MOL0     C35153  -3.743   5.326  10.888  0.2378 -0.7121 -0.3027
  267MOL0     C35154  -3.848   5.294  10.779  0.4009 -0.3393  1.2257
  267MOL0     C35155  -3.997   5.328  10.807  0.6891  0.2744 -0.2546
  267MOL0    Cl35156  -4.004   5.499  10.858 -0.0953 -0.0005 -0.1284
  267MOL0     C35157  -2.914   5.454  10.532 -0.4269  0.0307 -0.1637
  267MOL0     C35158  -2.783   5.497  10.525 -0.3171 -0.4117  0.7693
  267MOL0     O35159  -2.460   5.383  10.763  0.5587 -0.1548  0.7281
  267MOL0     C35160  -2.197   5.477  10.682 -0.2648 -0.2623  0.1377
  267MOL0     C35161  -2.072   5.541  10.645  0.4143 -0.2536 -0.4490
  267MOL0     N35162  -1.340   5.466  10.592  0.5757  0.1946  0.3011
  267MOL0     N35163  -1.224   5.449  10.554 -0.3541 -0.8746 -0.0580
  267MOL0     C35164  -0.118   5.903  10.909 -0.8279 -0.2222  0.5357
  267MOL0     C35165  -0.020   5.990  10.971  0.5059 -0.1223  0.4662
  267MOL0     C35166   0.173   6.259  11.283  0.6670  0.2562 -0.1261
  267MOL0     C35167   0.270   6.215  11.375 -0.7671  0.6341 -0.7856
  267MOL0     C35168   0.369   6.306  11.417 -0.6769  0.1247  0.3797
  267MOL0     C35169   0.355   6.446  11.409  0.2536  0.3009  0.0989
  267MOL0     O35170   0.462   6.522  11.457  0.8803  0.0794  0.6679
  267MOL0     C35171   0.444   6.664  11.471  0.1335  0.4835  0.0138
  267MOL0     C35172   0.562   6.707  11.552 -0.9588 -1.2543  0.1467
  267MOL0     C35173   0.567   6.849  11.595 -1.1247 -0.6443  1.1521
  267MOL0     C35174   0.603   6.940  11.479  0.2040 -0.4074  0.4006
  267MOL0     C35175   0.630   7.084  11.512  0.7117  0.3438  0.0387
  267MOL0     C35176   0.660   7.199  11.522  0.1457 -0.0932  0.3359
  267MOL0     C35177   0.244   6.488  11.343  0.0234  0.3735 -0.0510
  267MOL0     C35178   0.154   6.396  11.274 -0.0727 -0.4912 -0.2675
  267MOL0     H35179  -0.247   6.203  11.108  0.5483 -0.4662  1.2258
  267MOL0     H35180  -0.411   6.026  11.011  0.3126 -0.1419  1.8080
  267MOL0     H35181  -0.278   5.678  10.778 -3.4953 -0.9538 -1.5487
  267MOL0     H35182  -0.225   5.796  10.663  0.2784 -1.9806 -0.5122
  267MOL0     H35183  -0.488   5.694  10.719  0.2033 -1.4275  0.4328
  267MOL0     H35184  -0.395   5.651  10.580 -1.3591 -1.2996  2.2644
  267MOL0     H35185  -0.431   5.916  10.513 -2.3752  0.9684 -1.9623
  267MOL0     H35186  -0.534   5.914  10.662  0.6148 -0.0375 -0.1076
  267MOL0     H35187  -0.641   5.882  10.422  3.5419 -1.3192 -3.2749
  267MOL0     H35188  -0.555   5.732  10.411  2.4464  0.2548  0.6977
  267MOL0     H35189  -0.748   5.783  10.642 -2.8639 -0.0228 -0.9132
  267MOL0     H35190  -0.675   5.626  10.592  1.0708  0.8525  1.6610
  267MOL0     H35191  -0.800   5.636  10.391  2.0785  2.4883 -2.1599
  267MOL0     H35192  -0.872   5.793  10.413 -0.7507 -0.4116  1.0497
  267MOL0     H35193  -0.937   5.581  10.617 -0.0591  2.3322  1.2806
  267MOL0     H35194  -1.013   5.743  10.589  0.2000  2.3213 -1.1859
  267MOL0     H35195  -1.007   5.500  10.396  4.0286  1.3237 -0.1669
  267MOL0     H35196  -1.075   5.665  10.359 -3.3587 -0.1155 -0.3295
  267MOL0     H35197  -1.279   5.750  10.459  4.0441  0.0877  1.4231
  267MOL0     H35198  -1.535   5.717  10.648 -1.4127 -0.7533  0.4072
  267MOL0     H35199  -1.588   5.554  10.643  2.0815  0.6972  2.3374
  267MOL0     H35200  -1.622   5.564  10.388  1.9852  0.0578 -0.4833
  267MOL0     H35201  -1.543   5.729  10.388 -0.4560 -1.1637 -1.1085
  267MOL0     H35202  -1.719   5.843  10.494 -0.2631 -1.1090  2.3423
  267MOL0     H35203  -1.769   5.752  10.349  3.4015 -3.2520 -1.6474
  267MOL0     H35204  -1.817   5.706  10.634 -1.7775 -0.3952  0.5744
  267MOL0     H35205  -1.819   5.559  10.538  1.3617  0.8323 -0.3835
  267MOL0     H35206  -2.203   5.746  10.419 -1.2105 -0.4283 -0.9398
  267MOL0     H35207  -2.411   5.665  10.492  0.5401 -0.3673 -1.2296
  267MOL0     H35208  -2.635   5.260  10.712 -1.1719 -3.4792  0.8486
  267MOL0     H35209  -2.880   5.174  10.718 -1.1811  1.0777  0.3159
  267MOL0     H35210  -3.211   5.451  10.564  1.1011  1.3261  0.3143
  267MOL0     H35211  -3.153   5.432  10.730 -1.8914 -0.1952  0.6227
  267MOL0     H35212  -3.283   5.206  10.759 -3.3850  1.9140  1.9890
  267MOL0     H35213  -3.309   5.216  10.589 -1.4644  0.1570 -0.2642
  267MOL0     H35214  -3.427   5.444  10.638  0.0705  1.0255  0.5422
  267MOL0     H35215  -3.377   5.433  10.795  0.1208 -1.7704  0.2574
  267MOL0     H35216  -3.602   5.265  10.661  0.9593  1.6852 -0.6401
  267MOL0     H35217  -3.532   5.222  10.827  3.9754  0.3176 -0.9629
  267MOL0     H35218  -3.644   5.480  10.746  1.4531 -0.9127 -0.9398
  267MOL0     H35219  -3.564   5.448  10.900 -0.3412 -0.1019  0.1430
  267MOL0     H35220  -3.788   5.391  10.963  3.5356  3.2927 -1.4333
  267MOL0     H35221  -3.706   5.240  10.943 -0.0101 -2.9151 -3.3092
  267MOL0     H35222  -3.813   5.344  10.688  1.5463  0.6519  2.1630
  267MOL0     H35223  -3.828   5.188  10.764  3.0363 -0.0736  2.1957
  267MOL0     H35224  -4.037   5.254  10.878 -0.3369  1.7403  0.7530
  267MOL0     H35225  -4.055   5.313  10.715  0.3511 -1.2737  0.1800
  267MOL0     H35226  -2.992   5.511  10.482 -1.8598  0.6350  2.5881
  267MOL0     H35227  -2.759   5.587  10.469  0.9840 -1.0931  0.2181
  267MOL0     H35228  -2.187   5.396  10.753  0.6618  1.8623  2.5889
  267MOL0     H35229  -1.974   5.510  10.679  0.5293  0.6071  0.0419
  267MOL0     H35230  -0.081   5.826  10.842  2.0793  1.0066  0.5666
  267MOL0     H35231   0.087   5.994  10.956  0.4748  0.8463  0.4314
  267MOL0     H35232   0.294   6.114  11.406 -1.4756  0.1743 -1.7115
  267MOL0     H35233   0.459   6.271  11.467  0.3028 -1.2852 -2.1716
  267MOL0     H35234   0.348   6.680  11.520 -0.0849  0.7384 -0.4960
  267MOL0     H35235   0.444   6.726  11.381  0.2207  0.8389  0.2513
  267MOL0     H35236   0.571   6.646  11.642  2.3031 -0.4623  0.4759
  267MOL0     H35237   0.653   6.690  11.493 -0.5376  4.4082 -1.4530
  267MOL0     H35238   0.653   6.856  11.662  0.3922 -0.2362 -0.7461
  267MOL0     H35239   0.477   6.895  11.636 -1.1426  3.4408 -2.6639
  267MOL0     H35240   0.674   6.892  11.411 -2.4835 -2.8036 -0.9211
  267MOL0     H35241   0.521   6.955  11.408  1.1487  0.4398 -0.5642
  267MOL0     H35242   0.679   7.304  11.518 -6.2503  1.4956  0.5809
  267MOL0     H35243   0.227   6.594  11.324 -1.2648  0.3679  0.9774
  267MOL0     H35244   0.063   6.439  11.234 -2.0592 -1.7710  2.5142
  268MOL0     O35245   2.604   9.410  11.064  0.1302 -0.2654 -0.0850
  268MOL0     C35246   2.585   9.515  11.022  0.6451 -0.0674 -1.1994
  268MOL0     O35247   2.680   9.612  11.007  0.0105 -0.4836 -0.7908
  268MOL0     C35248   2.816   9.583  10.988  0.6891 -0.3535  0.1606
  268MOL0     C35249   2.871   9.461  10.970  0.2031  0.8846  0.3329
  268MOL0     C35250   3.010   9.432  10.954  0.0607  0.1592  0.8033
  268MOL0     C35251   3.100   9.545  10.951 -0.1709  0.0984 -0.4897
  268MOL0     O35252   3.233   9.514  10.917  0.8455 -0.0739 -0.2537
  268MOL0     C35253   3.325   9.594  10.997  0.0542  0.4100 -0.3640
  268MOL0     C35254   3.466   9.533  11.005 -0.4953 -1.3059 -0.8150
  268MOL0     C35255   3.539   9.570  10.867 -1.1546  0.1797  0.4393
  268MOL0     C35256   3.677   9.506  10.851 -0.1503  0.8598 -0.0583
  268MOL0     C35257   3.756   9.500  10.712  0.3026  0.3402  0.2139
  268MOL0     C35258   3.792   9.624  10.637  0.1457 -0.1304 -0.2426
  268MOL0     C35259   3.849   9.595  10.498  1.1674  0.8910 -0.2338
  268MOL0     C35260   3.880   9.727  10.429  0.1645 -0.0436  1.2344
  268MOL0     N35261   3.899   9.704  10.286 -0.0668 -0.8536  0.4482
  268MOL0     C35262   4.014   9.657  10.229  0.4714 -0.5157 -0.4322
  268MOL0     C35263   3.979   9.633  10.097  0.3206 -0.5785  0.1678
  268MOL0     C35264   4.057   9.555   9.994 -0.3916 -0.1918  0.2129
  268MOL0     C35265   4.180   9.485  10.047 -1.0025 -0.4938  0.1736
  268MOL0     C35266   4.254   9.423   9.924  0.2881 -0.5898 -0.9190
  268MOL0     C35267   4.370   9.337   9.982 -0.4282  0.4661  0.8694
  268MOL0     O35268   4.322   9.236  10.065  0.4432  0.2757 -0.8818
  268MOL0     C35269   4.419   9.160  10.128  0.7381  0.3165  0.1272
  268MOL0     C35270   4.561   9.187  10.132  0.5233  0.2424 -0.6387
  268MOL0     C35271   4.644   9.090  10.191  0.0571  0.7036  0.6309
  268MOL0     C35272   4.607   8.962  10.250  0.1206 -0.2169  0.3344
  268MOL0     C35273   4.701   8.861  10.307 -0.1412 -0.0348 -0.5984
  268MOL0     O35274   4.816   8.902  10.367  0.2822 -0.2358  0.4290
  268MOL0     C35275   4.909   8.814  10.409 -0.5884 -0.1695  0.8001
  268MOL0     C35276   4.863   8.706  10.485 -0.8662  0.4782  0.2728
  268MOL0     C35277   4.958   8.622  10.549  0.2271  0.0059  0.4003
  268MOL0     C35278   5.101   8.635  10.520 -0.6172 -0.5527 -0.1585
  268MOL0     O35279   5.202   8.560  10.567 -0.1964  1.0062 -0.0493
  268MOL0     C35280   5.191   8.422  10.530 -0.4854 -0.7991  0.1064
  268MOL0     C35281   5.304   8.337  10.591  0.0909 -0.3057 -0.9264
  268MOL0     C35282   5.279   8.183  10.567 -0.4460 -0.1893  0.7172
  268MOL0     C35283   5.393   8.099  10.602 -0.7875  0.1940  0.0690
  268MOL0     C35284   5.361   7.953  10.559 -0.0567  0.2879 -0.9807
  268MOL0     C35285   5.486   7.864  10.582 -0.5127  0.4571  1.1583
  268MOL0     C35286   5.473   7.709  10.572 -0.0730 -0.0921  0.1350
  268MOL0     C35287   5.484   7.658  10.427  0.2506 -0.9572 -0.7942
  268MOL0    Cl35288   5.637   7.706  10.350  0.5893 -0.1243 -0.4670
  268MOL0     C35289   5.135   8.740  10.437 -0.0934 -0.2957  0.5519
  268MOL0     C35290   5.050   8.826  10.378  0.4356  0.3595 -0.0638
  268MOL0     O35291   4.664   8.747  10.283 -0.3411 -0.0383  0.6693
  268MOL0     C35292   4.463   8.940  10.241  0.8054  0.2561 -0.1919
  268MOL0     C35293   4.378   9.040  10.185  1.0325  0.5257 -0.8163
  268MOL0     N35294   3.850   9.684  10.080 -0.3367 -0.9201  0.3185
  268MOL0     N35295   3.807   9.729  10.188  0.0294  0.4802 -0.1558
  268MOL0     C35296   3.048   9.677  10.967 -0.1615  0.7683  1.3121
  268MOL0     C35297   2.906   9.691  10.981  0.3497  1.2216 -0.9941
  268MOL0     C35298   2.438   9.547  11.010  0.1119 -0.2341  0.2726
  268MOL0     C35299   2.399   9.672  10.958 -0.2199  0.6890 -0.1227
  268MOL0     C35300   2.263   9.702  10.952  0.2333  0.2131  0.3079
  268MOL0     C35301   2.163   9.610  10.992 -0.7565  0.0645  0.0048
  268MOL0     O35302   2.039   9.664  10.978 -0.1264 -0.2963 -0.0905
  268MOL0     C35303   1.946   9.570  10.941 -0.4453  0.0616 -0.2213
  268MOL0     C35304   1.830   9.620  10.855 -0.1605 -0.1037  0.1088
  268MOL0     C35305   1.730   9.703  10.945 -0.3330 -0.3064 -0.6933
  268MOL0     C35306   1.631   9.770  10.860  0.4005  0.6976  0.1958
  268MOL0     C35307   1.596   9.905  10.924 -0.8063  0.6250  0.5706
  268MOL0     C35308   1.567  10.014  10.967  0.4082 -0.5695 -0.4723
  268MOL0     C35309   2.207   9.481  11.042  0.3388 -0.3175 -0.3060
  268MOL0     C35310   2.344   9.449  11.049  1.2150 -0.4958  0.3888
  268MOL0     H35311   2.803   9.377  10.956  1.7849 -0.2939 -0.5004
  268MOL0     H35312   3.057   9.336  10.934 -1.0025 -0.3449  0.6188
  268MOL0     H35313   3.282   9.619  11.094 -0.1798  0.0746 -0.3815
  268MOL0     H35314   3.339   9.695  10.958 -2.1194  0.4033 -1.2586
  268MOL0     H35315   3.437   9.428  11.011 -1.3270 -0.9789  1.9377
  268MOL0     H35316   3.522   9.571  11.091  0.5837 -4.4446 -0.0031
  268MOL0     H35317   3.543   9.678  10.855 -1.6105  0.1638  0.0842
  268MOL0     H35318   3.476   9.538  10.783 -1.5868  1.6294  0.1831
  268MOL0     H35319   3.738   9.554  10.928 -1.5873  0.6239  1.2631
  268MOL0     H35320   3.661   9.402  10.881 -0.3365  0.5850 -1.0567
  268MOL0     H35321   3.691   9.433  10.654  0.2170 -1.5089  2.3038
  268MOL0     H35322   3.855   9.455  10.723  0.2772  0.2624  0.1217
  268MOL0     H35323   3.868   9.672  10.699  0.2449 -1.9922  1.1574
  268MOL0     H35324   3.701   9.684  10.631 -0.5395 -1.0031  0.9884
  268MOL0     H35325   3.925   9.518  10.487  1.0837  0.8629 -0.6248
  268MOL0     H35326   3.760   9.556  10.448  0.6349 -1.6455  2.4486
  268MOL0     H35327   3.973   9.769  10.468  1.4097 -2.5703  1.1866
  268MOL0     H35328   3.793   9.792  10.443 -0.2536 -0.3484  0.1406
  268MOL0     H35329   4.109   9.631  10.274 -0.7694  1.6218  3.9404
  268MOL0     H35330   4.083   9.616   9.907  1.3839  1.5514  1.8598
  268MOL0     H35331   3.995   9.469   9.965  1.4285 -1.8090  0.9004
  268MOL0     H35332   4.153   9.403  10.114 -0.4354 -1.5224 -0.8186
  268MOL0     H35333   4.253   9.547  10.101  0.2893 -2.3049  0.6348
  268MOL0     H35334   4.184   9.353   9.878 -0.7339 -0.1672 -0.0484
  268MOL0     H35335   4.289   9.497   9.851 -1.6096  0.1947 -1.0949
  268MOL0     H35336   4.434   9.399  10.046 -1.2723 -0.9563  3.2017
  268MOL0     H35337   4.434   9.297   9.904  0.7952  2.4496  0.7735
  268MOL0     H35338   4.611   9.275  10.093  0.2994  0.2723 -0.8576
  268MOL0     H35339   4.747   9.122  10.184  0.9018 -2.0324 -1.3187
  268MOL0     H35340   4.759   8.703  10.514 -1.0262  0.4848 -0.2810
  268MOL0     H35341   4.921   8.539  10.608 -3.1333  2.7429  2.5192
  268MOL0     H35342   5.200   8.409  10.422  0.9554 -1.5625  0.2945
  268MOL0     H35343   5.097   8.379  10.564 -0.4091 -2.6456 -1.8091
  268MOL0     H35344   5.306   8.349  10.700  4.9719 -2.6656 -0.4982
  268MOL0     H35345   5.405   8.371  10.568  0.0483  0.5374  0.0705
  268MOL0     H35346   5.260   8.166  10.461  1.2414  2.9976 -0.2185
  268MOL0     H35347   5.193   8.156  10.630  0.1614 -1.4852  1.0361
  268MOL0     H35348   5.483   8.133  10.550 -0.9405 -0.4556 -0.6405
  268MOL0     H35349   5.412   8.104  10.710  1.4754 -2.8609 -0.0310
  268MOL0     H35350   5.330   7.946  10.454  1.6754  1.7410 -1.6430
  268MOL0     H35351   5.276   7.933  10.625 -1.1297  3.5711 -1.2002
  268MOL0     H35352   5.525   7.886  10.682  0.0536 -0.2684  1.1094
  268MOL0     H35353   5.570   7.892  10.518 -2.0427 -3.5559 -3.1287
  268MOL0     H35354   5.553   7.667  10.634 -0.5693  0.3115  1.0788
  268MOL0     H35355   5.377   7.675  10.613 -0.4219  0.5765 -0.1166
  268MOL0     H35356   5.403   7.702  10.368 -2.0144 -1.7645  1.5171
  268MOL0     H35357   5.488   7.549  10.415  1.0507 -0.7548 -2.7222
  268MOL0     H35358   5.243   8.746  10.425 -0.3445  0.2796 -1.8224
  268MOL0     H35359   5.084   8.904  10.311  1.3158  1.2976  1.4234
  268MOL0     H35360   4.420   8.847  10.277 -0.2044  0.8030  0.0259
  268MOL0     H35361   4.272   9.016  10.193  1.0671  0.9014  1.6681
  268MOL0     H35362   3.107   9.767  10.950 -1.0920  0.9787 -1.2076
  268MOL0     H35363   2.863   9.789  11.000  1.7686  1.1750  3.8177
  268MOL0     H35364   2.467   9.746  10.918  1.2876 -2.1072 -3.2499
  268MOL0     H35365   2.234   9.805  10.933 -1.3263  0.3465  2.8385
  268MOL0     H35366   1.908   9.541  11.040 -1.0107  0.6082 -0.2725
  268MOL0     H35367   1.985   9.485  10.885  0.1067  0.4812 -0.4873
  268MOL0     H35368   1.877   9.678  10.775  0.4372  1.3455  1.4555
  268MOL0     H35369   1.766   9.543  10.810 -1.4695  0.6230  0.6464
  268MOL0     H35370   1.784   9.777  11.005 -1.2100 -1.0725  1.0995
  268MOL0     H35371   1.683   9.634  11.015  1.0551  0.8958  1.5471
  268MOL0     H35372   1.663   9.784  10.756 -0.2514 -0.9567 -0.2448
  268MOL0     H35373   1.534   9.721  10.859 -3.0456  6.4078  3.1137
  268MOL0     H35374   1.535  10.111  10.999  0.8729 -0.2712 -0.9068
  268MOL0     H35375   2.135   9.412  11.083 -2.9422  2.4260 -0.9655
  268MOL0     H35376   2.376   9.351  11.083 -1.7548 -1.2319  1.3373
  269MOL0     O35377   1.473   0.052   3.458 -0.0364 -0.2026 -0.2073
  269MOL0     C35378   1.443  -0.067   3.460 -0.2873 -0.9503 -0.8558
  269MOL0     O35379   1.317  -0.121   3.470  0.1266 -0.5965 -0.4703
  269MOL0     C35380   1.204  -0.041   3.479  0.1337  0.5811  0.8274
  269MOL0     C35381   1.135  -0.016   3.598 -0.7755 -0.4298  0.1916
  269MOL0     C35382   1.019   0.052   3.611 -0.3755 -0.1008  0.3260
  269MOL0     C35383   0.966   0.116   3.497 -0.1831  0.5199  0.4856
  269MOL0     O35384   0.848   0.183   3.500  0.9442 -0.6821 -0.8993
  269MOL0     C35385   0.734   0.098   3.506 -0.3541  0.4204  0.4759
  269MOL0     C35386   0.610   0.172   3.468 -0.6147  0.0153  0.6772
  269MOL0     C35387   0.592   0.208   3.328 -0.5212  0.1614 -0.1213
  269MOL0     C35388   0.448   0.268   3.298  0.3233 -0.2736 -0.3257
  269MOL0     C35389   0.422   0.308   3.151  0.1254 -0.0898  0.0182
  269MOL0     C35390   0.296   0.390   3.125  0.5463 -0.1728 -0.3282
  269MOL0     C35391   0.252   0.388   2.985  0.6337  0.5785  0.2294
  269MOL0     C35392   0.323   0.488   2.904 -0.1771 -0.5545  0.6317
  269MOL0     N35393   0.284   0.463   2.762 -1.0997 -0.0034  0.0110
  269MOL0     C35394   0.157   0.473   2.702 -0.0915 -0.5313 -0.4423
  269MOL0     C35395   0.178   0.428   2.572  0.1589 -0.4185 -0.7410
  269MOL0     C35396   0.065   0.414   2.472 -0.1895  0.0154 -0.0102
  269MOL0     C35397   0.033   0.281   2.405  0.1612  0.4678  0.0871
  269MOL0     C35398   0.157   0.205   2.339  1.0935 -0.3455  0.2673
  269MOL0     C35399   0.233   0.277   2.223 -0.3501  0.1529 -1.3453
  269MOL0     O35400   0.138   0.351   2.153  0.1512 -0.0268  0.2237
  269MOL0     C35401   0.064   0.287   2.064  0.0015 -0.4176  1.4806
  269MOL0     C35402  -0.055   0.354   2.024  0.3684  0.3862  0.0812
  269MOL0     C35403  -0.147   0.289   1.946 -0.3089 -0.1656 -0.9020
  269MOL0     C35404  -0.124   0.164   1.889  0.6109 -0.3629 -0.8331
  269MOL0     C35405  -0.221   0.092   1.805  0.2948  0.0243  0.4495
  269MOL0     O35406  -0.184  -0.031   1.757 -0.6650 -0.3258  0.4824
  269MOL0     C35407  -0.259  -0.112   1.678  0.1329  0.4384  0.1585
  269MOL0     C35408  -0.231  -0.252   1.694 -0.0582  0.5471 -0.4277
  269MOL0     C35409  -0.289  -0.342   1.597 -0.4867 -0.3347 -0.2445
  269MOL0     C35410  -0.389  -0.300   1.515 -0.1155  0.8179  0.4412
  269MOL0     O35411  -0.472  -0.386   1.450 -0.7916 -0.0055  1.1801
  269MOL0     C35412  -0.464  -0.370   1.310  0.2229  0.1481 -0.4442
  269MOL0     C35413  -0.546  -0.476   1.247 -0.0741  0.7989  0.2317
  269MOL0     C35414  -0.473  -0.605   1.241  0.8440 -0.6718 -0.5525
  269MOL0     C35415  -0.343  -0.607   1.163 -0.0411 -0.0931 -0.2084
  269MOL0     C35416  -0.377  -0.624   1.008  0.0126  0.0578  0.0805
  269MOL0     C35417  -0.379  -0.487   0.932  0.3120 -0.1179  0.0352
  269MOL0     C35418  -0.496  -0.471   0.841  0.1096  0.1844  0.7152
  269MOL0     C35419  -0.472  -0.392   0.720 -0.2395 -0.7121 -0.0198
  269MOL0    Cl35420  -0.357  -0.496   0.606 -0.1829 -0.0541  0.1329
  269MOL0     C35421  -0.431  -0.168   1.517 -0.7705  0.7782  0.6450
  269MOL0     C35422  -0.354  -0.074   1.589 -0.7686 -0.3081 -0.3503
  269MOL0     O35423  -0.335   0.132   1.801  0.0372  1.1245  0.0884
  269MOL0     C35424  -0.011   0.101   1.923 -0.3588 -0.3006 -0.4139
  269MOL0     C35425   0.083   0.163   2.004  0.2091  0.1798  0.2114
  269MOL0     N35426   0.312   0.384   2.560 -0.0294  0.9295  0.7359
  269MOL0     N35427   0.370   0.418   2.665  0.2384 -0.4021 -0.6410
  269MOL0     C35428   1.027   0.092   3.372  0.5141  0.3760 -0.5578
  269MOL0     C35429   1.145   0.013   3.365  0.5183 -0.6985  0.0625
  269MOL0     C35430   1.544  -0.163   3.416 -0.7547  0.2189  0.2084
  269MOL0     C35431   1.673  -0.109   3.375  0.1022 -0.2761 -0.5876
  269MOL0     C35432   1.784  -0.198   3.350 -0.0663  0.2067  1.1056
  269MOL0     C35433   1.758  -0.341   3.344 -0.0973  0.1305  0.7226
  269MOL0     O35434   1.854  -0.436   3.321 -0.0303 -0.3731 -0.1960
  269MOL0     C35435   1.986  -0.386   3.339 -0.6050  0.7184  0.0273
  269MOL0     C35436   2.103  -0.490   3.364  0.0384 -0.0753  0.2406
  269MOL0     C35437   2.072  -0.580   3.488 -0.2489 -0.3868 -0.7692
  269MOL0     C35438   2.178  -0.674   3.520  0.7905 -0.0313  0.2037
  269MOL0     C35439   2.298  -0.616   3.578 -0.3885 -0.4026 -0.2460
  269MOL0     C35440   2.383  -0.549   3.634 -0.2130 -0.1442  0.3185
  269MOL0     C35441   1.635  -0.392   3.373  0.5475  0.0154 -0.4964
  269MOL0     C35442   1.529  -0.297   3.408 -0.5819  2.2577  1.1296
  269MOL0     H35443   1.194  -0.049   3.683 -0.2666  0.9258  0.4003
  269MOL0     H35444   0.975   0.069   3.709 -0.5214 -1.3371  0.4909
  269MOL0     H35445   0.727   0.057   3.607  0.8646  1.2279  0.9141
  269MOL0     H35446   0.748   0.013   3.439  0.4125  2.3884 -2.0449
  269MOL0     H35447   0.610   0.254   3.540  0.4736  0.7038 -0.0863
  269MOL0     H35448   0.524   0.109   3.495 -0.6310  0.7299  2.4406
  269MOL0     H35449   0.611   0.116   3.270 -0.1871  0.0900  0.1020
  269MOL0     H35450   0.674   0.277   3.309 -0.6651  0.8446  1.6285
  269MOL0     H35451   0.374   0.200   3.342 -0.5433  1.5315  1.1175
  269MOL0     H35452   0.434   0.355   3.362 -2.4662  0.2695 -1.5474
  269MOL0     H35453   0.413   0.207   3.110 -0.0195  0.5638 -1.6219
  269MOL0     H35454   0.516   0.345   3.108  0.9791 -1.2065  0.8385
  269MOL0     H35455   0.317   0.489   3.164  2.9850 -0.6051 -0.3672
  269MOL0     H35456   0.221   0.341   3.187  1.1178  0.6710  1.0863
  269MOL0     H35457   0.254   0.287   2.943 -0.8299  0.6106  0.0330
  269MOL0     H35458   0.147   0.417   2.991  0.1459 -0.9431 -0.3996
  269MOL0     H35459   0.430   0.486   2.925 -0.4641 -1.7034  2.0733
  269MOL0     H35460   0.281   0.588   2.922  1.0176  0.6267 -2.4830
  269MOL0     H35461   0.067   0.509   2.751  1.2316 -0.8910  2.4969
  269MOL0     H35462   0.080   0.478   2.384 -1.8734 -0.0264 -0.3472
  269MOL0     H35463  -0.023   0.448   2.526 -0.4219  2.1227 -1.5840
  269MOL0     H35464  -0.059   0.299   2.349  0.3291 -1.1261 -0.7602
  269MOL0     H35465   0.004   0.225   2.495  0.2010  2.3132  1.3132
  269MOL0     H35466   0.227   0.162   2.412 -0.2730 -2.6083  0.3482
  269MOL0     H35467   0.107   0.120   2.291 -2.6101  0.5708  2.1188
  269MOL0     H35468   0.298   0.202   2.176 -1.1318 -1.2902 -0.1879
  269MOL0     H35469   0.301   0.346   2.274  1.1013 -2.5551  0.6603
  269MOL0     H35470  -0.088   0.447   2.069  0.1556  1.0213 -1.3253
  269MOL0     H35471  -0.237   0.341   1.917 -1.5554  0.1277  2.9967
  269MOL0     H35472  -0.153  -0.290   1.759 -1.1249 -1.7998 -0.3864
  269MOL0     H35473  -0.276  -0.449   1.584 -0.2372 -0.3124 -0.1885
  269MOL0     H35474  -0.370  -0.348   1.259  0.8190 -1.6349 -0.1863
  269MOL0     H35475  -0.510  -0.274   1.286 -1.3300 -0.7673 -1.3331
  269MOL0     H35476  -0.574  -0.450   1.145 -3.2497 -0.9655  0.5380
  269MOL0     H35477  -0.642  -0.483   1.299  0.0922  1.5987  0.6562
  269MOL0     H35478  -0.540  -0.686   1.210  1.1391 -0.2914 -2.2990
  269MOL0     H35479  -0.439  -0.623   1.344  0.6047 -2.1974 -0.7143
  269MOL0     H35480  -0.277  -0.522   1.184  2.6508 -1.8207 -1.1949
  269MOL0     H35481  -0.284  -0.697   1.183 -0.4808 -0.3036  0.1407
  269MOL0     H35482  -0.472  -0.676   0.992 -0.3049  0.4365  0.7409
  269MOL0     H35483  -0.297  -0.683   0.961  0.6441  0.2726  0.8711
  269MOL0     H35484  -0.279  -0.481   0.889  0.8619  0.1334  1.2802
  269MOL0     H35485  -0.379  -0.408   1.008  0.0391 -0.9444  0.9142
  269MOL0     H35486  -0.538  -0.566   0.808 -3.3957  1.8844 -0.1902
  269MOL0     H35487  -0.581  -0.430   0.896 -0.4446  2.0484 -1.3454
  269MOL0     H35488  -0.416  -0.304   0.753 -0.7238 -1.2787  2.5239
  269MOL0     H35489  -0.563  -0.358   0.671  0.1960  0.2639 -0.1736
  269MOL0     H35490  -0.513  -0.133   1.455 -1.0497 -1.5389 -0.3864
  269MOL0     H35491  -0.383   0.029   1.569  1.4453  0.1515 -1.5338
  269MOL0     H35492   0.009   0.008   1.872 -2.6484 -1.6433  0.9438
  269MOL0     H35493   0.176   0.110   2.019 -0.2632 -1.1286 -1.2838
  269MOL0     H35494   0.966   0.137   3.295 -1.3495 -1.3248 -0.1704
  269MOL0     H35495   1.201  -0.001   3.273 -1.3186 -3.1565 -0.7892
  269MOL0     H35496   1.702  -0.005   3.370  0.6833 -0.3532  0.8775
  269MOL0     H35497   1.881  -0.157   3.325 -0.4153  0.0893 -0.5899
  269MOL0     H35498   1.986  -0.323   3.429 -3.2277 -1.6230  1.8583
  269MOL0     H35499   2.021  -0.334   3.250 -1.6900  1.5278  0.0462
  269MOL0     H35500   2.134  -0.557   3.283 -0.6390 -0.3764  0.2235
  269MOL0     H35501   2.190  -0.430   3.392  2.1752 -2.8971  0.1827
  269MOL0     H35502   1.978  -0.632   3.468 -1.1656  2.3927 -5.0060
  269MOL0     H35503   2.061  -0.536   3.588  1.9592 -2.2054  0.3805
  269MOL0     H35504   2.136  -0.752   3.584  0.5714 -0.8808 -0.9504
  269MOL0     H35505   2.215  -0.729   3.433 -2.0293 -3.3266  0.8861
  269MOL0     H35506   2.457  -0.485   3.676  0.4390 -1.2087  0.8531
  269MOL0     H35507   1.610  -0.497   3.371  0.6651 -0.1335  2.1288
  269MOL0     H35508   1.431  -0.339   3.428  0.3444 -3.0579 -3.1190
  270MOL0     O35509   0.611   8.815   5.309  0.3609 -0.3671  0.8514
  270MOL0     C35510   0.654   8.872   5.407 -0.0537 -0.4191 -0.5121
  270MOL0     O35511   0.581   8.958   5.485 -0.0349 -0.1752  0.2347
  270MOL0     C35512   0.450   8.987   5.441 -0.1987  0.7024  0.3338
  270MOL0     C35513   0.360   8.896   5.382  0.8752  0.1966 -0.3934
  270MOL0     C35514   0.243   8.941   5.320  0.5060  0.4101  0.8315
  270MOL0     C35515   0.206   9.080   5.336  1.1005 -0.6452 -0.2303
  270MOL0     O35516   0.086   9.122   5.282  0.1627  0.0682  0.4340
  270MOL0     C35517  -0.013   9.166   5.376 -0.6159  0.0429 -0.3087
  270MOL0     C35518  -0.151   9.107   5.365  0.1669 -0.4832 -0.3589
  270MOL0     C35519  -0.238   9.179   5.271  0.1268  0.2061  0.4712
  270MOL0     C35520  -0.355   9.099   5.246  0.3440  0.8128 -0.3142
  270MOL0     C35521  -0.471   9.167   5.180 -0.9618  0.0633 -0.3100
  270MOL0     C35522  -0.533   9.274   5.290 -0.8263  0.2567  1.0005
  270MOL0     C35523  -0.664   9.331   5.241  0.5592 -1.2782  0.0894
  270MOL0     C35524  -0.767   9.324   5.351  0.3569 -0.3829  0.7970
  270MOL0     N35525  -0.893   9.380   5.307  0.4682 -0.4128 -0.4643
  270MOL0     C35526  -0.994   9.381   5.397  0.5903 -0.4138  0.2116
  270MOL0     C35527  -1.103   9.438   5.344  0.7000 -0.2309  0.3610
  270MOL0     C35528  -1.235   9.463   5.410 -0.5961 -0.4128  0.2010
  270MOL0     C35529  -1.326   9.338   5.424  0.3170  0.2511  0.5074
  270MOL0     C35530  -1.471   9.387   5.474 -0.5701 -0.0825 -0.0614
  270MOL0     C35531  -1.466   9.509   5.569 -0.2951 -0.3043  0.6306
  270MOL0     O35532  -1.607   9.545   5.588 -0.3484  0.0970 -0.0922
  270MOL0     C35533  -1.689   9.459   5.656  0.2362 -0.5173  0.2364
  270MOL0     C35534  -1.822   9.471   5.605  0.6946  0.7403 -0.7476
  270MOL0     C35535  -1.920   9.392   5.667 -0.2865 -0.0708 -0.0872
  270MOL0     C35536  -1.886   9.294   5.761 -0.0775  0.5461  0.1648
  270MOL0     C35537  -1.992   9.213   5.820  0.6989  0.2075 -0.0720
  270MOL0     O35538  -2.122   9.271   5.821 -0.7243  0.6434 -0.1603
  270MOL0     C35539  -2.220   9.193   5.865  0.5489  0.2711 -0.3134
  270MOL0     C35540  -2.268   9.222   5.994  0.5232  0.3565 -0.9006
  270MOL0     C35541  -2.370   9.143   6.049  0.0943  0.5312  0.5674
  270MOL0     C35542  -2.430   9.037   5.977  0.0589  0.3118 -0.9873
  270MOL0     O35543  -2.540   8.964   6.029 -0.0663 -0.7925  0.1742
  270MOL0     C35544  -2.560   8.979   6.176  0.1162 -0.1911 -0.5939
  270MOL0     C35545  -2.661   8.872   6.196 -0.1199  0.1304 -0.7416
  270MOL0     C35546  -2.686   8.863   6.344  0.9979  0.8650  0.7640
  270MOL0     C35547  -2.798   8.758   6.367  0.4513  0.4059 -0.5350
  270MOL0     C35548  -2.822   8.711   6.512 -0.2590 -0.0425 -0.4836
  270MOL0     C35549  -2.960   8.628   6.526 -0.0413 -0.0146  0.1079
  270MOL0     C35550  -3.072   8.722   6.565  0.6826 -0.7906  1.1249
  270MOL0     C35551  -3.213   8.656   6.551 -0.2521 -0.3368 -0.2730
  270MOL0    Cl35552  -3.237   8.536   6.662  0.0502 -0.0673  0.2349
  270MOL0     C35553  -2.376   9.002   5.851 -0.5353 -0.1081  0.3334
  270MOL0     C35554  -2.273   9.088   5.793  0.3565 -0.3203 -0.2261
  270MOL0     O35555  -1.961   9.118   5.882 -0.7771  0.7936 -0.0039
  270MOL0     C35556  -1.752   9.269   5.791 -0.1949 -0.3034  0.7702
  270MOL0     C35557  -1.651   9.356   5.741  0.4723  0.1584  0.3238
  270MOL0     N35558  -1.066   9.463   5.207 -0.3087 -0.0050 -0.1547
  270MOL0     N35559  -0.942   9.427   5.187  0.3700  0.8864 -1.3062
  270MOL0     C35560   0.293   9.164   5.404 -0.3474 -0.3149 -0.3877
  270MOL0     C35561   0.417   9.125   5.446  1.5952  0.7051 -0.0995
  270MOL0     C35562   0.804   8.862   5.430  0.8125 -0.2681  0.0068
  270MOL0     C35563   0.856   8.918   5.553  0.8856 -0.2506  0.9253
  270MOL0     C35564   0.995   8.926   5.567 -0.1864 -1.6609  0.0449
  270MOL0     C35565   1.076   8.893   5.459  0.3883 -0.3591 -0.6858
  270MOL0     O35566   1.207   8.904   5.470 -0.4179 -0.6872  0.0846
  270MOL0     C35567   1.258   9.041   5.495  0.3104  0.5917  0.0424
  270MOL0     C35568   1.349   9.111   5.391  0.0309 -0.9904 -0.1921
  270MOL0     C35569   1.467   9.020   5.356 -0.3295  0.5456 -0.6143
  270MOL0     C35570   1.510   9.027   5.218 -0.5925 -0.6925  0.4520
  270MOL0     C35571   1.640   8.970   5.184  0.1462  0.0075  0.2991
  270MOL0     C35572   1.747   8.911   5.159  0.8270  0.3251 -0.3772
  270MOL0     C35573   1.029   8.833   5.350  0.2396  0.1300 -0.1700
  270MOL0     C35574   0.893   8.822   5.321  0.4459  0.7273 -0.7219
  270MOL0     H35575   0.381   8.790   5.379 -0.6157 -0.1059 -0.8059
  270MOL0     H35576   0.197   8.869   5.253  4.3535 -1.0129 -0.5528
  270MOL0     H35577  -0.032   9.273   5.385 -1.4902 -0.1767  0.6509
  270MOL0     H35578   0.021   9.130   5.473 -2.2820 -0.2949  0.1741
  270MOL0     H35579  -0.207   9.120   5.458 -2.0441  0.1193 -1.7002
  270MOL0     H35580  -0.140   9.000   5.347 -0.4386 -0.7353  0.6987
  270MOL0     H35581  -0.174   9.182   5.182  3.7039 -1.5149  2.7560
  270MOL0     H35582  -0.267   9.281   5.296  0.7405  0.3525  0.6102
  270MOL0     H35583  -0.322   9.029   5.169  0.4828  0.3326  0.1799
  270MOL0     H35584  -0.393   9.040   5.330 -1.8896  0.9681 -1.1270
  270MOL0     H35585  -0.543   9.091   5.149 -1.0800  0.7847 -1.9169
  270MOL0     H35586  -0.433   9.228   5.097 -3.8530  1.2367 -0.8958
  270MOL0     H35587  -0.465   9.360   5.300 -2.5606  1.4712  3.4225
  270MOL0     H35588  -0.558   9.229   5.387 -0.1625 -1.0312  0.5993
  270MOL0     H35589  -0.645   9.434   5.209  1.9073 -1.6691 -0.4619
  270MOL0     H35590  -0.699   9.275   5.154  0.7272  0.8543 -1.4395
  270MOL0     H35591  -0.725   9.377   5.437 -0.6595  0.3226  0.8828
  270MOL0     H35592  -0.796   9.219   5.361  0.1079 -0.4011 -0.0246
  270MOL0     H35593  -0.982   9.370   5.504 -0.3623  1.2299  0.5226
  270MOL0     H35594  -1.281   9.538   5.346 -1.2269 -2.1795 -1.5093
  270MOL0     H35595  -1.221   9.504   5.511 -5.6310 -0.0475  1.0071
  270MOL0     H35596  -1.276   9.264   5.487  2.8673 -0.9488 -2.6530
  270MOL0     H35597  -1.355   9.272   5.342 -1.8699 -0.0571  1.4516
  270MOL0     H35598  -1.540   9.416   5.395 -1.5685  2.0429  1.5038
  270MOL0     H35599  -1.500   9.297   5.530  2.4971 -1.7449 -0.8980
  270MOL0     H35600  -1.416   9.599   5.532 -2.7823  1.4674  1.2560
  270MOL0     H35601  -1.425   9.483   5.667  1.9193 -1.2014 -0.4625
  270MOL0     H35602  -1.852   9.539   5.526  2.4978  2.2547 -0.2158
  270MOL0     H35603  -2.019   9.423   5.638 -0.6775  1.3518  2.4893
  270MOL0     H35604  -2.225   9.307   6.045  2.1319 -0.5338 -0.7023
  270MOL0     H35605  -2.404   9.166   6.150 -1.0953  1.7732 -0.0919
  270MOL0     H35606  -2.592   9.080   6.201 -1.8427 -0.9875  0.2917
  270MOL0     H35607  -2.464   8.954   6.224  0.2450 -2.4479 -1.8677
  270MOL0     H35608  -2.640   8.776   6.148 -1.2816  1.2485 -3.7307
  270MOL0     H35609  -2.752   8.913   6.152 -0.5717 -0.4986 -0.4023
  270MOL0     H35610  -2.727   8.959   6.374 -2.7569 -0.3682  0.0919
  270MOL0     H35611  -2.588   8.839   6.386  1.0904  0.5931  0.3967
  270MOL0     H35612  -2.897   8.785   6.328  0.0979  0.8582  0.6486
  270MOL0     H35613  -2.778   8.666   6.312 -1.3092 -0.7313  0.6321
  270MOL0     H35614  -2.823   8.789   6.588 -3.6314 -0.9764  0.6214
  270MOL0     H35615  -2.732   8.661   6.548  0.9497  3.0553  1.1617
  270MOL0     H35616  -2.949   8.548   6.599  2.0320  0.3695  0.2843
  270MOL0     H35617  -2.975   8.559   6.442  3.4294 -0.7838 -0.0157
  270MOL0     H35618  -3.049   8.749   6.669  2.0701  1.9006  0.1875
  270MOL0     H35619  -3.078   8.817   6.512 -0.7436 -1.9572 -0.9412
  270MOL0     H35620  -3.216   8.620   6.448  1.7094 -0.7890 -0.2138
  270MOL0     H35621  -3.290   8.732   6.548 -1.5062 -1.5827 -0.7182
  270MOL0     H35622  -2.426   8.929   5.789 -1.3106  1.3636 -0.8503
  270MOL0     H35623  -2.234   9.086   5.692  0.9861 -1.6772  0.0212
  270MOL0     H35624  -1.713   9.185   5.846  0.4480  0.0722  0.8920
  270MOL0     H35625  -1.550   9.345   5.781  0.4547 -3.4328 -0.3493
  270MOL0     H35626   0.265   9.266   5.428  1.9755  0.0801  0.9761
  270MOL0     H35627   0.487   9.194   5.493  2.4251 -0.6397  0.7240
  270MOL0     H35628   0.785   8.952   5.627 -1.4233  1.0927 -1.7014
  270MOL0     H35629   1.036   8.976   5.655  2.0186 -2.7748 -0.2817
  270MOL0     H35630   1.325   9.041   5.582  0.4277  0.5438 -0.0477
  270MOL0     H35631   1.187   9.119   5.523 -1.3218 -0.1619 -1.7475
  270MOL0     H35632   1.295   9.133   5.298 -1.5202  1.7809  1.2536
  270MOL0     H35633   1.392   9.199   5.438  0.7912 -1.1123 -0.6526
  270MOL0     H35634   1.452   8.912   5.363  4.0729 -0.1460  1.5724
  270MOL0     H35635   1.551   9.036   5.425 -0.4926  0.4283 -0.3889
  270MOL0     H35636   1.424   8.997   5.159 -0.2589  2.2971 -1.7763
  270MOL0     H35637   1.521   9.134   5.195 -4.4906  0.2576  2.2296
  270MOL0     H35638   1.836   8.852   5.147  1.1085 -0.3606  3.6235
  270MOL0     H35639   1.108   8.805   5.280  0.1600 -1.1752  0.2285
  270MOL0     H35640   0.858   8.782   5.227  0.6074  0.8682 -0.8426
  271MOL0     O35641  10.795  10.383   9.965 -0.1525  1.1955  0.0463
  271MOL0     C35642  10.844  10.318  10.064  0.6050  0.0014  0.5132
  271MOL0     O35643  10.806  10.324  10.191 -0.2340  0.3566 -0.3334
  271MOL0     C35644  10.684  10.388  10.217  0.0058  0.6446 -0.5873
  271MOL0     C35645  10.685  10.492  10.310  0.9421  0.5766  0.2986
  271MOL0     C35646  10.575  10.565  10.338 -0.0219  0.6417  0.0974
  271MOL0     C35647  10.452  10.539  10.268  0.3206  0.6090  0.1914
  271MOL0     O35648  10.330  10.592  10.310 -1.3443 -0.9117  0.6065
  271MOL0     C35649  10.348  10.717  10.378  1.3807  0.3475 -0.4161
  271MOL0     C35650  10.211  10.771  10.414 -0.5559 -0.5647  0.6702
  271MOL0     C35651  10.115  10.782  10.296  0.2877 -0.1030  0.1436
  271MOL0     C35652   9.998  10.863  10.321 -0.1074 -0.1751  1.6897
  271MOL0     C35653   9.901  10.802  10.418  0.3229 -0.2743  0.4313
  271MOL0     C35654   9.781  10.882  10.448 -1.5573 -0.1630 -0.3842
  271MOL0     C35655   9.678  10.914  10.331 -1.5661 -0.3382 -0.3386
  271MOL0     C35656   9.586  10.804  10.298  0.2906 -0.4376 -0.7892
  271MOL0     N35657   9.518  10.745  10.419 -0.3541  0.7341 -0.0004
  271MOL0     C35658   9.513  10.613  10.456  0.0442  0.2572  0.0947
  271MOL0     C35659   9.442  10.616  10.574 -1.0433 -0.6780 -0.3417
  271MOL0     C35660   9.400  10.492  10.645 -0.7133  0.2772  0.2541
  271MOL0     C35661   9.497  10.401  10.712 -0.3735  0.0376 -1.1212
  271MOL0     C35662   9.435  10.262  10.739  0.7860 -0.3753  0.3651
  271MOL0     C35663   9.510  10.186  10.840 -0.2946 -0.1525  1.0980
  271MOL0     O35664   9.462  10.201  10.973  0.2677 -0.6008 -0.3551
  271MOL0     C35665   9.327  10.165  10.999  0.4097 -0.4400 -0.0480
  271MOL0     C35666   9.281  10.218  11.120 -0.4451 -0.3224 -0.2609
  271MOL0     C35667   9.146  10.210  11.155 -0.8030  0.7943  0.4812
  271MOL0     C35668   9.060  10.125  11.093  0.4201 -0.4998  1.0495
  271MOL0     C35669   8.927  10.098  11.123  0.3041  0.2547  0.7193
  271MOL0     O35670   8.888   9.969  11.109  0.3061 -0.3358  0.1905
  271MOL0     C35671   8.763   9.929  11.144 -0.4614 -0.4841 -0.9894
  271MOL0     C35672   8.719   9.808  11.095 -0.3744  0.1292  0.5212
  271MOL0     C35673   8.601   9.753  11.128  0.3970 -0.2147  1.4083
  271MOL0     C35674   8.509   9.827  11.211 -0.3031 -0.4216  0.7569
  271MOL0     O35675   8.383   9.792  11.261  0.2241 -0.2296  0.1054
  271MOL0     C35676   8.359   9.646  11.259 -0.3446 -0.4061 -0.5412
  271MOL0     C35677   8.424   9.583  11.390  0.3510 -0.7795 -0.4440
  271MOL0     C35678   8.396   9.435  11.403 -1.1299 -1.0225  0.2415
  271MOL0     C35679   8.462   9.397  11.528  0.5079 -0.7867  0.6941
  271MOL0     C35680   8.429   9.249  11.568  0.2865  0.5509 -0.9509
  271MOL0     C35681   8.526   9.142  11.507 -0.3915  0.9316  0.0177
  271MOL0     C35682   8.481   9.001  11.550 -0.8614  0.2021  0.4433
  271MOL0     C35683   8.573   8.891  11.496 -0.4287 -0.4001 -0.1324
  271MOL0    Cl35684   8.520   8.736  11.574 -0.0053 -0.1741  0.0081
  271MOL0     C35685   8.551   9.949  11.250  0.1317 -0.4918  0.2143
  271MOL0     C35686   8.672   9.995  11.225 -0.4374  0.1473  0.8109
  271MOL0     O35687   8.866  10.198  11.164  0.2411  0.1639  0.6284
  271MOL0     C35688   9.114  10.051  10.979  0.1024  0.2175  0.1270
  271MOL0     C35689   9.240  10.073  10.932 -0.1562  0.4179  0.1542
  271MOL0     N35690   9.416  10.741  10.612  0.0530  0.3720 -0.0093
  271MOL0     N35691   9.455  10.815  10.519  0.2945  0.9237 -0.4030
  271MOL0     C35692  10.446  10.444  10.169 -0.7610 -0.2658 -0.6196
  271MOL0     C35693  10.565  10.379  10.133  0.0974 -0.0342  0.2502
  271MOL0     C35694  10.929  10.203  10.017  0.0941  0.5581 -0.0010
  271MOL0     C35695  10.907  10.146   9.891  0.5368 -0.0125  0.5502
  271MOL0     C35696  10.980  10.036   9.841 -0.7438 -0.1610  0.2659
  271MOL0     C35697  11.081   9.973   9.924 -0.0645 -0.7629  1.1175
  271MOL0     O35698  11.159   9.873   9.865 -0.5993 -0.2641 -0.4224
  271MOL0     C35699  11.283   9.822   9.917  0.0316 -0.1609 -1.6510
  271MOL0     C35700  11.404   9.920   9.919 -0.0655 -0.7601 -0.6074
  271MOL0     C35701  11.467   9.935   9.777 -0.1049  0.8031  0.6810
  271MOL0     C35702  11.619   9.986   9.788  0.2986 -0.4962 -0.2074
  271MOL0     C35703  11.631  10.123   9.834  0.3862 -0.1024  0.4683
  271MOL0     C35704  11.640  10.236   9.865  0.1741  0.0639 -0.1287
  271MOL0     C35705  11.101  10.031  10.055  0.6534  0.6413 -0.5759
  271MOL0     C35706  11.025  10.133  10.099  0.7955  0.5751 -0.1428
  271MOL0     H35707  10.783  10.514  10.351  2.1637  2.1336 -3.1167
  271MOL0     H35708  10.579  10.635  10.421 -1.8955 -0.6891  1.3831
  271MOL0     H35709  10.419  10.789  10.337  4.3555 -1.5643  1.0064
  271MOL0     H35710  10.375  10.686  10.480 -1.7285 -0.2490  0.3436
  271MOL0     H35711  10.240  10.870  10.449  1.4783 -1.7716  2.6544
  271MOL0     H35712  10.160  10.720  10.496 -0.8865  0.4502  1.1028
  271MOL0     H35713  10.085  10.678  10.280  1.6037 -0.6187  0.8743
  271MOL0     H35714  10.156  10.826  10.205 -0.1503  0.7507  0.3431
  271MOL0     H35715  10.032  10.959  10.360 -0.0779  1.3404 -1.6882
  271MOL0     H35716   9.947  10.880  10.226 -1.0230  2.2254  2.5406
  271MOL0     H35717   9.949  10.781  10.514  1.6078  2.6076  0.5483
  271MOL0     H35718   9.869  10.706  10.378 -1.5723  0.0136  1.1117
  271MOL0     H35719   9.821  10.978  10.483 -1.0470 -0.6880  0.5346
  271MOL0     H35720   9.745  10.834  10.540  3.3071 -0.2513  1.7943
  271MOL0     H35721   9.626  11.001  10.373 -0.4495 -0.6600  1.8323
  271MOL0     H35722   9.722  10.956  10.240 -1.5570  1.3568  0.4056
  271MOL0     H35723   9.649  10.726  10.253 -3.4430 -2.9307 -2.1382
  271MOL0     H35724   9.510  10.848  10.233  0.0925 -2.2379 -1.8432
  271MOL0     H35725   9.561  10.524  10.415 -1.0827 -0.5404  0.4537
  271MOL0     H35726   9.350  10.434  10.567 -2.0479  1.0709  0.4758
  271MOL0     H35727   9.326  10.516  10.722  3.1428  0.3710  4.3030
  271MOL0     H35728   9.522  10.445  10.808  0.2614 -3.0789  0.2841
  271MOL0     H35729   9.589  10.393  10.653 -0.9333  0.2700 -2.0513
  271MOL0     H35730   9.338  10.287  10.781  2.5458  3.2430  2.7994
  271MOL0     H35731   9.425  10.207  10.645 -2.1591  1.6966 -0.6889
  271MOL0     H35732   9.614  10.222  10.839 -0.9055  1.6827  0.7164
  271MOL0     H35733   9.527  10.084  10.805  3.9774  0.8526 -0.4013
  271MOL0     H35734   9.336  10.296  11.172  0.8949 -0.4528 -1.4299
  271MOL0     H35735   9.106  10.270  11.236 -0.1646 -0.5646  1.8638
  271MOL0     H35736   8.789   9.754  11.032 -1.9936  0.9144 -2.0788
  271MOL0     H35737   8.579   9.658  11.081  2.9008  0.1341 -0.6797
  271MOL0     H35738   8.380   9.593  11.166  0.2399 -1.0519 -0.0493
  271MOL0     H35739   8.249   9.642  11.262 -0.2851 -1.8807  1.6551
  271MOL0     H35740   8.382   9.646  11.469 -3.5331 -0.8217 -2.1939
  271MOL0     H35741   8.532   9.589  11.374  0.3073  1.4976 -0.2540
  271MOL0     H35742   8.440   9.373  11.325  0.4973 -1.3568  1.3703
  271MOL0     H35743   8.290   9.408  11.407 -0.6819 -3.6103 -2.2444
  271MOL0     H35744   8.571   9.402  11.526  0.4555  1.8771  1.0727
  271MOL0     H35745   8.423   9.451  11.614  0.8330 -2.1993  1.7586
  271MOL0     H35746   8.321   9.237  11.555 -0.3640  3.8018  0.3458
  271MOL0     H35747   8.436   9.240  11.676 -1.2669  0.5495 -0.8357
  271MOL0     H35748   8.624   9.178  11.540 -0.3145  0.9668 -0.2443
  271MOL0     H35749   8.523   9.149  11.398 -0.7705 -0.7721 -0.1036
  271MOL0     H35750   8.487   8.985  11.658  0.3064  0.4387  0.4220
  271MOL0     H35751   8.379   8.980  11.514 -0.9682 -2.0053  1.8608
  271MOL0     H35752   8.679   8.903  11.522 -0.8063  2.9951  0.2976
  271MOL0     H35753   8.575   8.890  11.387  0.5040  2.3044 -0.2241
  271MOL0     H35754   8.497  10.016  11.316  2.4510  0.6506  1.0709
  271MOL0     H35755   8.690  10.093  11.269 -1.4154  1.3296 -1.2590
  271MOL0     H35756   9.045   9.994  10.918  0.5906 -0.1066 -0.1307
  271MOL0     H35757   9.264  10.036  10.833 -3.1798  2.0590 -1.3323
  271MOL0     H35758  10.353  10.444  10.114 -0.6307  0.3879 -0.8415
  271MOL0     H35759  10.565  10.310  10.049 -1.8347 -1.3661  1.2727
  271MOL0     H35760  10.828  10.193   9.834  0.1225  0.2539  1.3306
  271MOL0     H35761  10.952   9.994   9.745 -2.2760 -3.1848  1.8532
  271MOL0     H35762  11.311   9.729   9.866  2.5783 -0.0330 -0.6476
  271MOL0     H35763  11.261   9.780  10.015 -2.1922 -0.2754 -2.1553
  271MOL0     H35764  11.374  10.019   9.955 -1.6293 -2.1302  2.1620
  271MOL0     H35765  11.474   9.894   9.999 -3.1579 -0.4534  2.4121
  271MOL0     H35766  11.400  10.002   9.721  0.0762 -1.9962 -3.2772
  271MOL0     H35767  11.471   9.833   9.739  0.5235  1.0830 -0.0427
  271MOL0     H35768  11.685   9.928   9.854  0.0836 -0.8807 -0.3296
  271MOL0     H35769  11.651   9.979   9.684  1.1863 -1.2905  0.1054
  271MOL0     H35770  11.641  10.331   9.914  0.2140  0.0010 -0.0060
  271MOL0     H35771  11.173   9.986  10.123  0.9355  2.1362  0.1595
  271MOL0     H35772  11.028  10.162  10.203 -1.6580  1.5152 -0.2819
  272MOL0     O35773  11.099   9.478  11.268  0.5173 -0.7619  0.1285
  272MOL0     C35774  11.130   9.426  11.377  0.7757 -0.0869 -0.3927
  272MOL0     O35775  11.039   9.373  11.463 -0.6958 -0.2213 -0.5078
  272MOL0     C35776  10.909   9.373  11.440  0.2801 -0.6193  0.2314
  272MOL0     C35777  10.834   9.257  11.465  0.3185 -0.6378  0.0472
  272MOL0     C35778  10.691   9.267  11.448  0.6300  0.0520 -0.4841
  272MOL0     C35779  10.616   9.380  11.411 -0.4711 -0.4905 -0.5154
  272MOL0     O35780  10.477   9.368  11.390  0.4749  0.5664  0.4576
  272MOL0     C35781  10.419   9.427  11.271 -1.0944 -0.4139  0.4978
  272MOL0     C35782  10.347   9.326  11.185 -0.3033 -1.2781  0.4707
  272MOL0     C35783  10.443   9.248  11.097 -0.0794 -0.8016  0.2649
  272MOL0     C35784  10.367   9.158  11.003  0.1508  0.2562  0.7718
  272MOL0     C35785  10.463   9.066  10.931  0.2380  0.6914  0.1601
  272MOL0     C35786  10.374   8.971  10.854  0.4094  0.9804  0.2690
  272MOL0     C35787  10.454   8.895  10.746  0.0451 -0.4007  0.2445
  272MOL0     C35788  10.379   8.800  10.653  0.3132  1.0617 -0.8489
  272MOL0     N35789  10.465   8.756  10.544  0.3251 -0.0589 -0.6350
  272MOL0     C35790  10.599   8.722  10.557  0.4531 -0.2585 -0.0350
  272MOL0     C35791  10.625   8.673  10.434  0.2605  0.5091 -0.5809
  272MOL0     C35792  10.761   8.628  10.377  1.4648 -0.2121 -1.1835
  272MOL0     C35793  10.845   8.554  10.468 -0.3597  1.4281 -0.1659
  272MOL0     C35794  10.783   8.429  10.523 -0.5210  0.1510  0.3045
  272MOL0     C35795  10.877   8.352  10.615  0.3292  0.2373 -0.2159
  272MOL0     O35796  10.938   8.440  10.714  0.3070  0.0476 -0.6616
  272MOL0     C35797  10.858   8.464  10.822  0.1166  0.1108 -0.4360
  272MOL0     C35798  10.769   8.385  10.893  0.0604  1.1879  0.6108
  272MOL0     C35799  10.682   8.434  10.990 -0.2815 -0.7684  0.7744
  272MOL0     C35800  10.700   8.568  11.049  0.9691  0.2551  0.4060
  272MOL0     C35801  10.616   8.610  11.154  0.4357 -0.1280  0.3448
  272MOL0     O35802  10.605   8.748  11.163 -0.0054  0.3289 -0.3440
  272MOL0     C35803  10.531   8.790  11.267  1.1996  0.4208  0.5038
  272MOL0     C35804  10.398   8.834  11.244 -0.0986  0.7261 -1.2263
  272MOL0     C35805  10.318   8.870  11.351  0.0541  0.4255  0.1331
  272MOL0     C35806  10.360   8.886  11.478 -0.5333  0.2928 -1.5685
  272MOL0     O35807  10.279   8.940  11.575  0.4876  0.2400 -0.3530
  272MOL0     C35808  10.355   9.035  11.667 -0.2329 -0.2049  0.7740
  272MOL0     C35809  10.258   9.142  11.724 -0.7602 -0.7781 -0.0757
  272MOL0     C35810  10.325   9.239  11.819 -1.0771 -0.0686  0.3792
  272MOL0     C35811  10.415   9.328  11.737  0.1202 -0.5231  0.3525
  272MOL0     C35812  10.469   9.448  11.821 -0.8448 -0.0070 -0.6158
  272MOL0     C35813  10.515   9.569  11.741 -0.2827  0.4816 -0.7437
  272MOL0     C35814  10.558   9.674  11.836  0.0869 -0.6485 -0.0563
  272MOL0     C35815  10.607   9.801  11.765 -0.0225 -0.6353  0.3771
  272MOL0    Cl35816  10.688   9.896  11.889 -0.4865 -0.2026 -0.4268
  272MOL0     C35817  10.494   8.856  11.497  0.4321  0.2181  0.5657
  272MOL0     C35818  10.573   8.792  11.396 -0.4208  0.2689  0.3595
  272MOL0     O35819  10.577   8.525  11.235 -0.3732  0.0498  0.2774
  272MOL0     C35820  10.790   8.648  10.984  0.4215 -0.0550 -0.8330
  272MOL0     C35821  10.861   8.603  10.866  0.1480 -0.2596 -0.0072
  272MOL0     N35822  10.527   8.682  10.356 -0.3977  0.4441 -0.2737
  272MOL0     N35823  10.422   8.727  10.421  0.3462  0.0488 -0.6947
  272MOL0     C35824  10.693   9.488  11.383 -0.4060  0.0274 -0.1346
  272MOL0     C35825  10.835   9.483  11.396 -0.0408 -1.4316  0.6107
  272MOL0     C35826  11.264   9.436  11.421  0.7196  0.6497  0.3413
  272MOL0     C35827  11.292   9.399  11.545 -0.4613  0.9084 -0.1732
  272MOL0     C35828  11.424   9.386  11.586  0.3976 -0.4138  0.5613
  272MOL0     C35829  11.532   9.429  11.507 -0.1355  0.2099  0.0641
  272MOL0     O35830  11.666   9.434  11.537 -0.3132 -0.8704 -0.4186
  272MOL0     C35831  11.706   9.372  11.655  0.1774  0.2935 -0.4117
  272MOL0     C35832  11.694   9.226  11.635  0.2244  1.4481  0.5584
  272MOL0     C35833  11.753   9.147  11.744 -0.6104  0.0089 -0.1384
  272MOL0     C35834  11.713   8.995  11.762  0.3746 -1.2639  0.6011
  272MOL0     C35835  11.574   8.986  11.807 -1.0789 -0.2485 -0.6513
  272MOL0     C35836  11.464   8.950  11.840 -0.2281 -0.2773  0.9220
  272MOL0     C35837  11.496   9.491  11.392 -0.0625 -0.0810  0.0794
  272MOL0     C35838  11.369   9.494  11.340 -0.6262  0.0536 -0.1894
  272MOL0     H35839  10.872   9.165  11.507 -1.0814  0.3113  3.7491
  272MOL0     H35840  10.642   9.172  11.461  3.2891 -1.5661 -1.4256
  272MOL0     H35841  10.494   9.475  11.207  0.7375 -0.9588  2.1125
  272MOL0     H35842  10.348   9.506  11.298 -0.6978  0.5892 -1.2122
  272MOL0     H35843  10.279   9.388  11.126  0.3006 -0.6639  0.3931
  272MOL0     H35844  10.284   9.259  11.243 -1.0434  0.8985  2.3109
  272MOL0     H35845  10.499   9.186  11.167 -0.0489 -0.7045  0.3272
  272MOL0     H35846  10.508   9.312  11.037 -2.3847  1.5954  0.1330
  272MOL0     H35847  10.290   9.112  11.066 -2.3691  3.6925  0.5352
  272MOL0     H35848  10.317   9.214  10.924 -1.5091  0.4381  1.8867
  272MOL0     H35849  10.531   9.016  11.001  0.8085  0.0381 -0.8312
  272MOL0     H35850  10.531   9.125  10.869 -0.3519  4.4619  2.7187
  272MOL0     H35851  10.298   9.026  10.797 -0.2304 -1.1975 -1.1113
  272MOL0     H35852  10.321   8.912  10.929  0.6763  0.8308  0.3429
  272MOL0     H35853  10.506   8.970  10.686 -0.3731  1.7345  2.4258
  272MOL0     H35854  10.532   8.845  10.804 -0.3939 -0.6243  0.6554
  272MOL0     H35855  10.287   8.848  10.618 -0.8885  1.5851  2.6645
  272MOL0     H35856  10.346   8.717  10.717  3.4323  1.1997  1.1389
  272MOL0     H35857  10.674   8.737  10.634  2.8292 -1.9291 -1.8811
  272MOL0     H35858  10.805   8.723  10.346 -1.3211  2.3443  1.8572
  272MOL0     H35859  10.747   8.574  10.283 -4.6237  0.4115 -1.0090
  272MOL0     H35860  10.876   8.611  10.556  1.9167 -0.6372  0.4850
  272MOL0     H35861  10.940   8.528  10.419 -1.1031 -0.5740 -0.6459
  272MOL0     H35862  10.695   8.465  10.577  1.0565  2.4413  1.5404
  272MOL0     H35863  10.756   8.364  10.440 -0.8373  0.5193  0.1196
  272MOL0     H35864  10.955   8.319  10.546  0.3836 -1.0746  0.4370
  272MOL0     H35865  10.840   8.259  10.660  3.3249 -0.8327  0.2643
  272MOL0     H35866  10.779   8.278  10.876  1.3698  1.2068  1.1647
  272MOL0     H35867  10.602   8.369  11.023 -0.3665 -0.8044  0.5023
  272MOL0     H35868  10.378   8.825  11.137 -1.0182  1.6199 -1.1505
  272MOL0     H35869  10.210   8.871  11.342 -0.0137 -4.0338 -3.2086
  272MOL0     H35870  10.433   9.092  11.615  1.1916 -2.3530  0.4219
  272MOL0     H35871  10.403   8.979  11.748  0.0514  0.2239  0.9068
  272MOL0     H35872  10.179   9.090  11.779 -1.2771 -0.0658 -0.1295
  272MOL0     H35873  10.204   9.189  11.641 -1.7220 -1.8122 -0.0525
  272MOL0     H35874  10.383   9.181  11.891  2.0214  3.3557  0.9691
  272MOL0     H35875  10.247   9.295  11.872 -2.4570 -1.3198 -0.2457
  272MOL0     H35876  10.502   9.264  11.718 -0.6289 -1.3465 -0.3424
  272MOL0     H35877  10.364   9.365  11.648 -0.0161 -1.5469 -0.0055
  272MOL0     H35878  10.552   9.403  11.875 -0.4100  2.5075  0.9771
  272MOL0     H35879  10.389   9.477  11.889 -1.1206  1.7216 -1.6158
  272MOL0     H35880  10.428   9.602  11.683 -2.5286 -3.0387  0.3251
  272MOL0     H35881  10.603   9.540  11.684  1.4338 -0.0127  1.9554
  272MOL0     H35882  10.477   9.697  11.906  0.0794 -0.1527 -0.2213
  272MOL0     H35883  10.638   9.643  11.903  1.5214  1.0498 -0.8936
  272MOL0     H35884  10.534   9.851  11.701 -1.8657 -3.1222  0.3931
  272MOL0     H35885  10.680   9.773  11.688 -1.0204  1.6474 -1.5141
  272MOL0     H35886  10.549   8.867  11.590  1.8920 -3.2144  0.2810
  272MOL0     H35887  10.674   8.778  11.433  1.0780  0.6787 -3.2039
  272MOL0     H35888  10.805   8.746  11.030  0.2274 -0.3705 -0.0942
  272MOL0     H35889  10.928   8.666  10.808 -0.4903  0.3135 -0.1355
  272MOL0     H35890  10.642   9.576  11.347  0.0432  0.2385 -0.2572
  272MOL0     H35891  10.871   9.578  11.358 -2.2781  0.3262  2.5974
  272MOL0     H35892  11.224   9.383  11.628  0.9239  2.2270  1.2880
  272MOL0     H35893  11.438   9.344  11.685 -2.5107  2.5959  2.4408
  272MOL0     H35894  11.642   9.414  11.733 -0.9321  1.3392 -1.8340
  272MOL0     H35895  11.804   9.408  11.689  0.6402 -3.1891  2.5823
  272MOL0     H35896  11.586   9.203  11.634  0.0691  2.1790 -0.1250
  272MOL0     H35897  11.732   9.189  11.539  1.9764 -0.7442  1.9983
  272MOL0     H35898  11.717   9.200  11.833  0.9252 -0.3184  0.7192
  272MOL0     H35899  11.860   9.134  11.723 -0.2535  1.0041  0.9421
  272MOL0     H35900  11.738   8.935  11.675  0.0021 -1.1940  0.4450
  272MOL0     H35901  11.767   8.949  11.845  0.0575 -0.1401  1.4593
  272MOL0     H35902  11.381   8.895  11.881 -0.7119 -1.2411 -1.2123
  272MOL0     H35903  11.577   9.507  11.323 -0.7807 -2.6423 -1.5110
  272MOL0     H35904  11.338   9.529  11.242 -2.3990  1.6243  0.8518
  273MOL0     O35905   1.129   3.955   8.969 -0.2829 -0.0463  0.5905
  273MOL0     C35906   1.227   3.945   8.896 -0.1248  0.3664  0.8219
  273MOL0     O35907   1.221   3.886   8.780  0.5274  0.4445  0.2656
  273MOL0     C35908   1.106   3.856   8.719 -0.6826 -0.2804 -0.1712
  273MOL0     C35909   1.029   3.954   8.658  0.0619 -0.0710 -0.1076
  273MOL0     C35910   0.902   3.933   8.613 -0.5601 -0.4647  0.4880
  273MOL0     C35911   0.832   3.814   8.613 -0.1632  0.0985 -0.0026
  273MOL0     O35912   0.706   3.776   8.565 -0.0490 -0.2391  0.1752
  273MOL0     C35913   0.617   3.873   8.508 -0.3723 -0.4516 -0.9016
  273MOL0     C35914   0.476   3.802   8.501 -0.9248  0.1143  0.3439
  273MOL0     C35915   0.369   3.906   8.457  0.6837 -0.4190  0.3765
  273MOL0     C35916   0.231   3.848   8.414 -0.4379 -0.2734 -0.0444
  273MOL0     C35917   0.113   3.944   8.430 -0.2895  0.9219  0.7072
  273MOL0     C35918  -0.010   3.852   8.438 -0.7374  0.0861  0.3127
  273MOL0     C35919  -0.139   3.950   8.439 -0.1093 -0.2445 -0.0514
  273MOL0     C35920  -0.263   3.879   8.402  0.7622  0.1310  0.2882
  273MOL0     N35921  -0.379   3.966   8.372 -0.5420  0.2082 -0.5637
  273MOL0     C35922  -0.480   3.926   8.286  0.5847 -0.9403  0.3290
  273MOL0     C35923  -0.566   4.033   8.293  0.1036 -0.4780  0.4778
  273MOL0     C35924  -0.685   4.047   8.197  0.3809 -0.6483 -0.6914
  273MOL0     C35925  -0.809   4.083   8.285  0.5193  1.3124  0.7428
  273MOL0     C35926  -0.936   4.111   8.197 -0.7812  0.5566 -0.5407
  273MOL0     C35927  -1.070   4.131   8.268  0.5196 -0.2928 -0.1485
  273MOL0     O35928  -1.169   4.111   8.173 -0.1748  0.2014  0.6133
  273MOL0     C35929  -1.293   4.104   8.226 -0.7961  0.0526  0.7911
  273MOL0     C35930  -1.400   4.092   8.138  0.0819  0.5263 -0.1015
  273MOL0     C35931  -1.534   4.066   8.169  0.2307  0.1826  0.0457
  273MOL0     C35932  -1.566   4.084   8.305 -0.4450 -0.4188  0.2626
  273MOL0     C35933  -1.709   4.065   8.354  0.5249 -0.0435  0.3343
  273MOL0     O35934  -1.810   4.079   8.260 -0.0319  0.0669 -0.0626
  273MOL0     C35935  -1.937   4.087   8.307 -0.9224 -0.7042 -0.4328
  273MOL0     C35936  -2.034   4.002   8.251  0.6649 -0.0673  0.0787
  273MOL0     C35937  -2.162   4.008   8.295  0.0495  0.4253 -0.4181
  273MOL0     C35938  -2.205   4.123   8.376 -0.3361 -0.5584  0.4973
  273MOL0     O35939  -2.325   4.133   8.434  0.0273  0.6601 -0.8530
  273MOL0     C35940  -2.367   4.023   8.523 -0.5195  0.0028  0.9254
  273MOL0     C35941  -2.506   3.962   8.488  0.0039 -0.4796 -0.5819
  273MOL0     C35942  -2.618   4.067   8.457  0.6396 -0.0839  0.7916
  273MOL0     C35943  -2.755   3.999   8.425 -0.5241 -0.2175 -0.2515
  273MOL0     C35944  -2.859   4.104   8.392 -0.1720  0.7188  0.7373
  273MOL0     C35945  -2.991   4.073   8.459  0.2629 -0.1271  0.3744
  273MOL0     C35946  -3.081   4.193   8.435  0.4466  0.3607 -0.1814
  273MOL0     C35947  -3.224   4.179   8.472  0.5570 -0.4085 -0.3186
  273MOL0    Cl35948  -3.264   4.177   8.652  0.0116 -0.5432 -0.1826
  273MOL0     C35949  -2.116   4.227   8.408  0.7202  1.2625 -0.3079
  273MOL0     C35950  -1.981   4.209   8.373  0.4204  0.8307  0.1918
  273MOL0     O35951  -1.731   4.058   8.477 -0.4319 -0.2476 -0.2536
  273MOL0     C35952  -1.467   4.102   8.402  0.2744  0.6703 -0.3842
  273MOL0     C35953  -1.330   4.111   8.359  0.2441  0.3051 -0.4613
  273MOL0     N35954  -0.512   4.125   8.367  0.1775 -0.6717  0.4529
  273MOL0     N35955  -0.397   4.092   8.411 -0.4487 -0.1415 -0.0041
  273MOL0     C35956   0.911   3.710   8.674  1.2832 -0.6097 -0.2700
  273MOL0     C35957   1.045   3.727   8.720 -0.2039  0.2260 -0.8741
  273MOL0     C35958   1.353   4.024   8.937  0.4621  0.2451  0.1206
  273MOL0     C35959   1.457   4.033   8.843 -0.8870  0.4717  0.1925
  273MOL0     C35960   1.584   4.082   8.890  1.0327 -0.4250 -0.0008
  273MOL0     C35961   1.592   4.145   9.013  0.4597  0.6023 -1.1663
  273MOL0     O35962   1.700   4.219   9.026  0.0465  0.3836 -0.4708
  273MOL0     C35963   1.716   4.295   9.142  0.0520 -0.7095  0.0758
  273MOL0     C35964   1.738   4.442   9.091 -0.0439 -0.2822  0.5704
  273MOL0     C35965   1.893   4.481   9.073  0.4214 -0.1967  0.3340
  273MOL0     C35966   1.944   4.601   9.153  0.7322  0.5414  0.1995
  273MOL0     C35967   1.902   4.734   9.105 -0.3904 -0.7637 -0.8676
  273MOL0     C35968   1.867   4.843   9.051  0.3642 -0.0177  0.4266
  273MOL0     C35969   1.485   4.136   9.103  0.7087 -0.1059  0.5960
  273MOL0     C35970   1.363   4.081   9.065 -0.6248  0.8878 -0.1910
  273MOL0     H35971   1.081   4.048   8.666  0.9685 -0.3863 -1.7747
  273MOL0     H35972   0.844   4.017   8.578  1.2624  0.9064  0.6103
  273MOL0     H35973   0.633   3.920   8.411 -0.1652  1.4121 -0.0027
  273MOL0     H35974   0.612   3.954   8.581  0.7222 -2.3219  1.3852
  273MOL0     H35975   0.438   3.741   8.584 -1.9893 -1.3367 -1.1370
  273MOL0     H35976   0.491   3.725   8.424 -2.1007  0.5890 -0.3917
  273MOL0     H35977   0.399   3.978   8.380 -1.8096  0.8276  0.4663
  273MOL0     H35978   0.354   3.971   8.544 -1.5742 -0.2487 -0.0976
  273MOL0     H35979   0.242   3.816   8.310  2.9685  1.9572 -0.5196
  273MOL0     H35980   0.213   3.748   8.454  2.1406 -1.9660 -2.7190
  273MOL0     H35981   0.114   4.004   8.339 -3.5698 -0.1131 -0.1416
  273MOL0     H35982   0.120   4.004   8.521 -0.1076  1.8984  0.0645
  273MOL0     H35983  -0.007   3.787   8.526  1.2771 -0.2047  0.0779
  273MOL0     H35984  -0.026   3.778   8.360  1.5433  0.3776 -0.5100
  273MOL0     H35985  -0.156   3.987   8.540  0.9311  5.3870 -1.6083
  273MOL0     H35986  -0.122   4.040   8.379 -1.3579 -0.2974 -0.5167
  273MOL0     H35987  -0.292   3.803   8.476 -0.9830 -0.7736 -1.2304
  273MOL0     H35988  -0.239   3.820   8.313  0.1020  0.8522 -0.3830
  273MOL0     H35989  -0.486   3.842   8.217 -0.6021  1.2414 -2.4669
  273MOL0     H35990  -0.697   3.955   8.138  0.9059  0.1577 -2.1136
  273MOL0     H35991  -0.662   4.127   8.126  0.8578  0.3621  0.5793
  273MOL0     H35992  -0.788   4.174   8.342 -0.9499  1.1875  1.5221
  273MOL0     H35993  -0.832   4.003   8.356 -0.7754 -1.5728 -2.6525
  273MOL0     H35994  -0.914   4.195   8.130  2.0436 -0.1567 -0.6440
  273MOL0     H35995  -0.939   4.019   8.138 -1.9772  0.4319 -0.3147
  273MOL0     H35996  -1.075   4.227   8.320  1.9839  0.5472 -1.4567
  273MOL0     H35997  -1.068   4.060   8.351 -3.4749 -0.5217 -0.0935
  273MOL0     H35998  -1.378   4.089   8.032 -0.7057 -1.8854 -0.2514
  273MOL0     H35999  -1.606   4.034   8.094 -2.6140  0.2518  2.5621
  273MOL0     H36000  -2.011   3.925   8.178 -1.8683  0.6292 -1.5552
  273MOL0     H36001  -2.233   3.929   8.271  2.7775 -1.4092 -3.0450
  273MOL0     H36002  -2.375   4.061   8.626  0.9369 -0.8532  1.3896
  273MOL0     H36003  -2.287   3.949   8.530  0.0591  0.3518 -1.2236
  273MOL0     H36004  -2.542   3.905   8.573 -3.8613  0.2754 -1.5363
  273MOL0     H36005  -2.489   3.889   8.409 -3.2243 -0.2930 -1.5813
  273MOL0     H36006  -2.593   4.138   8.377 -2.5037  0.6413  0.3275
  273MOL0     H36007  -2.632   4.132   8.543  1.1384 -1.2431  1.7753
  273MOL0     H36008  -2.729   3.935   8.340 -1.3184  1.0783 -1.4971
  273MOL0     H36009  -2.778   3.932   8.509 -1.5435 -0.5096 -0.7585
  273MOL0     H36010  -2.879   4.101   8.284  0.9660 -0.4217  0.5276
  273MOL0     H36011  -2.826   4.206   8.411 -3.3465  1.5941  2.0939
  273MOL0     H36012  -2.971   4.050   8.564  0.8025 -0.9807  0.0996
  273MOL0     H36013  -3.030   3.985   8.407  0.0953  1.1694 -1.8435
  273MOL0     H36014  -3.032   4.275   8.489  3.5255 -2.5758  1.9462
  273MOL0     H36015  -3.082   4.216   8.328 -1.4778  0.5743 -0.1362
  273MOL0     H36016  -3.265   4.087   8.430  0.7997 -2.5369  3.6596
  273MOL0     H36017  -3.271   4.267   8.426 -1.2034 -0.6923  0.8464
  273MOL0     H36018  -2.147   4.312   8.468 -1.3890  2.6923 -3.1747
  273MOL0     H36019  -1.903   4.273   8.412  1.5306  0.0791 -0.7166
  273MOL0     H36020  -1.499   4.123   8.504 -1.3249  0.9195 -0.9002
  273MOL0     H36021  -1.256   4.120   8.438 -0.1033 -5.9615  1.1052
  273MOL0     H36022   0.871   3.609   8.681 -1.2807  0.3346 -0.3788
  273MOL0     H36023   1.100   3.643   8.762 -2.5790 -1.1121 -0.2358
  273MOL0     H36024   1.451   3.985   8.745 -2.8234 -2.2050  1.4822
  273MOL0     H36025   1.663   4.093   8.817  1.2462 -0.9800  0.1467
  273MOL0     H36026   1.805   4.253   9.190 -0.3731 -2.2937 -0.4719
  273MOL0     H36027   1.635   4.308   9.214  1.0915  0.7933  1.0523
  273MOL0     H36028   1.691   4.451   8.993 -2.2110  0.4053  1.6159
  273MOL0     H36029   1.691   4.510   9.162  0.2969 -0.5196  1.0323
  273MOL0     H36030   1.905   4.513   8.969  0.0188 -2.9246 -0.6198
  273MOL0     H36031   1.959   4.395   9.084 -0.3339 -0.7754  0.4026
  273MOL0     H36032   1.914   4.593   9.258  0.9729  0.7270  0.2852
  273MOL0     H36033   2.051   4.617   9.167  0.7263  1.4304 -0.6778
  273MOL0     H36034   1.826   4.930   9.003  2.2200  1.0124  0.5956
  273MOL0     H36035   1.484   4.185   9.200 -0.9231  0.1387  0.4727
  273MOL0     H36036   1.291   4.059   9.143 -0.1147  1.3133  0.4139
  274MOL0     O36037   3.328   1.899   5.014 -0.7012  0.2637  0.2397
  274MOL0     C36038   3.338   1.959   5.130  0.3778  1.0937  0.0902
  274MOL0     O36039   3.244   1.977   5.219 -0.0405 -0.4664 -0.2118
  274MOL0     C36040   3.118   1.928   5.190 -1.0843 -0.5787  0.7273
  274MOL0     C36041   3.095   1.800   5.232  0.7594 -0.1133 -0.0030
  274MOL0     C36042   2.958   1.754   5.226  0.1848  0.0650  0.5951
  274MOL0     C36043   2.851   1.835   5.183 -0.9161  1.5772 -0.1283
  274MOL0     O36044   2.726   1.780   5.180  0.0996  0.5187 -0.4821
  274MOL0     C36045   2.659   1.799   5.056  0.4125  0.9788  0.3915
  274MOL0     C36046   2.509   1.770   5.082  0.1956 -0.4763 -0.3504
  274MOL0     C36047   2.428   1.829   4.961  0.3441 -0.7049  0.1758
  274MOL0     C36048   2.286   1.878   5.004  0.4214  0.7973  0.1244
  274MOL0     C36049   2.164   1.821   4.914 -0.4552  0.7107 -0.5418
  274MOL0     C36050   2.168   1.865   4.766  0.5078  0.4551  0.5483
  274MOL0     C36051   2.035   1.840   4.692 -0.2482 -0.5638 -0.5778
  274MOL0     C36052   1.905   1.913   4.736  0.2484 -0.2207  0.0384
  274MOL0     N36053   1.785   1.855   4.673  0.3327 -0.1035 -0.1194
  274MOL0     C36054   1.704   1.754   4.728 -0.6919  0.2504  0.5875
  274MOL0     C36055   1.600   1.740   4.650  0.0599 -0.5423  0.0241
  274MOL0     C36056   1.482   1.651   4.653 -0.0465  0.1078 -0.1934
  274MOL0     C36057   1.411   1.676   4.778 -0.9128  1.4687  0.6149
  274MOL0     C36058   1.334   1.805   4.788 -0.0057  0.1520  0.7914
  274MOL0     C36059   1.208   1.799   4.684 -0.7618 -0.0770  0.2899
  274MOL0     O36060   1.102   1.876   4.740 -0.3924  0.0612 -0.1474
  274MOL0     C36061   0.992   1.898   4.660 -0.0479  0.9449  0.7913
  274MOL0     C36062   0.873   1.883   4.720  0.5452 -0.6457  1.0932
  274MOL0     C36063   0.755   1.905   4.642 -0.2387  0.9030  0.0519
  274MOL0     C36064   0.756   1.956   4.511 -0.0030 -0.0757  0.6638
  274MOL0     C36065   0.632   1.988   4.451  1.1361  0.8581  0.3931
  274MOL0     O36066   0.529   1.915   4.509 -0.2727 -0.4622  0.6444
  274MOL0     C36067   0.396   1.926   4.462  0.4544  0.5983 -0.1694
  274MOL0     C36068   0.303   1.941   4.565  0.5538  0.5133 -0.0560
  274MOL0     C36069   0.170   1.948   4.519  0.0758 -1.0174  0.1794
  274MOL0     C36070   0.131   1.933   4.384 -0.3542 -0.3023 -0.6646
  274MOL0     O36071  -0.007   1.942   4.365 -0.8294  0.2523 -0.2306
  274MOL0     C36072  -0.054   1.998   4.244 -0.5111  0.5249 -0.2432
  274MOL0     C36073  -0.204   1.991   4.272 -0.3208  0.4682 -0.2586
  274MOL0     C36074  -0.273   2.079   4.171 -0.1568  0.1435  0.4267
  274MOL0     C36075  -0.412   2.015   4.141  0.0150 -0.5271 -0.0661
  274MOL0     C36076  -0.481   2.076   4.021  0.8218 -0.4529 -0.6401
  274MOL0     C36077  -0.518   2.223   4.063 -0.0002 -0.2394 -0.4965
  274MOL0     C36078  -0.634   2.230   4.166  0.2887  0.8801  0.1625
  274MOL0     C36079  -0.671   2.367   4.211  0.3276 -0.0204 -0.6605
  274MOL0    Cl36080  -0.764   2.467   4.101 -0.3907 -0.4500 -0.1723
  274MOL0     C36081   0.226   1.894   4.292  0.4546 -0.5086 -0.4165
  274MOL0     C36082   0.362   1.903   4.324 -0.2901  1.5202 -0.4625
  274MOL0     O36083   0.622   2.072   4.358  0.8739  0.1741 -0.4765
  274MOL0     C36084   0.884   1.985   4.452  1.1316  0.6977  0.5124
  274MOL0     C36085   1.001   1.950   4.520  0.4239  0.1315  0.0749
  274MOL0     N36086   1.614   1.830   4.541 -0.5204 -0.1512 -0.5328
  274MOL0     N36087   1.731   1.885   4.555 -0.3354 -0.0596  0.1769
  274MOL0     C36088   2.886   1.971   5.155  0.0687  0.2645 -0.2063
  274MOL0     C36089   3.014   2.020   5.168  0.0892 -0.2719 -0.4630
  274MOL0     C36090   3.480   1.983   5.166 -0.0397  0.3999 -0.3532
  274MOL0     C36091   3.582   1.888   5.128  0.5706  0.2432 -0.7736
  274MOL0     C36092   3.712   1.907   5.164 -0.3011 -0.1981 -0.4317
  274MOL0     C36093   3.744   2.015   5.253  0.3150 -0.1410  0.6801
  274MOL0     O36094   3.859   2.021   5.318 -0.4115 -0.2557 -0.0427
  274MOL0     C36095   3.962   1.920   5.303  0.3978 -0.6198  0.3467
  274MOL0     C36096   3.931   1.810   5.397 -0.1155 -0.2239  0.7550
  274MOL0     C36097   3.921   1.848   5.536 -0.1105 -0.8084 -0.8408
  274MOL0     C36098   3.903   1.716   5.627 -0.0403 -0.3305  0.0338
  274MOL0     C36099   4.027   1.629   5.624 -0.0385 -0.9482 -0.1917
  274MOL0     C36100   4.130   1.567   5.620  0.6313  0.5133 -0.3225
  274MOL0     C36101   3.652   2.109   5.285 -0.4899 -0.2251 -0.2659
  274MOL0     C36102   3.522   2.094   5.244  0.4704  0.1614 -0.6881
  274MOL0     H36103   3.177   1.730   5.241  0.0122 -1.2286 -1.4048
  274MOL0     H36104   2.927   1.656   5.262  0.8257 -0.2237  0.3773
  274MOL0     H36105   2.697   1.718   4.993 -0.4562 -0.2684  1.4269
  274MOL0     H36106   2.675   1.900   5.018  2.0575  1.4076  2.0402
  274MOL0     H36107   2.485   1.824   5.174  0.8163  1.2641 -1.1811
  274MOL0     H36108   2.488   1.664   5.102 -0.5373 -0.1122  0.8754
  274MOL0     H36109   2.431   1.761   4.876  2.6340  0.7883 -1.0474
  274MOL0     H36110   2.476   1.925   4.938  0.5161 -1.5504 -3.5170
  274MOL0     H36111   2.262   1.835   5.102 -3.1880  3.0154  0.4237
  274MOL0     H36112   2.280   1.987   5.014  1.3373  0.7476  1.4368
  274MOL0     H36113   2.073   1.866   4.954 -0.3960  0.9751 -0.7086
  274MOL0     H36114   2.159   1.712   4.925 -1.4564  0.6381 -1.6012
  274MOL0     H36115   2.247   1.801   4.728  0.0769 -1.3666  2.5119
  274MOL0     H36116   2.193   1.972   4.766  1.6537  0.2141  2.1893
  274MOL0     H36117   2.047   1.832   4.583 -1.5406  1.7271 -0.9354
  274MOL0     H36118   2.015   1.734   4.714 -3.0584  0.3326  1.8571
  274MOL0     H36119   1.920   2.013   4.696  1.9598 -1.0900 -1.6008
  274MOL0     H36120   1.882   1.923   4.843 -2.0800  1.3732 -0.5411
  274MOL0     H36121   1.731   1.684   4.807  2.1745  1.9298  1.2743
  274MOL0     H36122   1.495   1.542   4.649 -4.7842 -0.8453  2.7167
  274MOL0     H36123   1.428   1.671   4.561  1.2207  2.1281 -0.5625
  274MOL0     H36124   1.476   1.665   4.866  0.7315 -0.3665 -0.7200
  274MOL0     H36125   1.346   1.591   4.799  0.9393 -0.2006 -0.1120
  274MOL0     H36126   1.303   1.820   4.892  1.3157 -2.6189  1.6653
  274MOL0     H36127   1.396   1.887   4.749 -3.3935  1.2090 -3.2004
  274MOL0     H36128   1.180   1.694   4.667 -1.2023 -0.3777  2.4686
  274MOL0     H36129   1.234   1.844   4.588 -2.3912 -1.8896 -1.0979
  274MOL0     H36130   0.871   1.863   4.827 -1.8635 -0.1932  1.1739
  274MOL0     H36131   0.663   1.924   4.696  0.6281  0.9014  1.5755
  274MOL0     H36132   0.327   1.967   4.667  2.4870  1.1729 -0.6513
  274MOL0     H36133   0.085   1.951   4.586 -0.3496  0.8929 -0.3838
  274MOL0     H36134  -0.011   1.946   4.158  0.8954  1.8027 -0.3578
  274MOL0     H36135  -0.025   2.104   4.244 -1.0249  0.6921 -1.5080
  274MOL0     H36136  -0.227   2.024   4.374  1.7304 -0.2851  0.5137
  274MOL0     H36137  -0.257   1.896   4.266 -2.4099  1.6296 -1.1104
  274MOL0     H36138  -0.216   2.098   4.080 -0.3105  2.4061  0.7339
  274MOL0     H36139  -0.280   2.179   4.214  1.6193  0.9103 -0.9347
  274MOL0     H36140  -0.408   1.907   4.119  0.9218 -0.3843 -0.6510
  274MOL0     H36141  -0.474   2.033   4.229  2.3414  0.8857  1.3796
  274MOL0     H36142  -0.568   2.013   4.001 -0.4785  0.4995  1.6399
  274MOL0     H36143  -0.410   2.090   3.940  2.1613 -0.0793  0.5589
  274MOL0     H36144  -0.545   2.284   3.976  1.4484  1.7973  0.4260
  274MOL0     H36145  -0.428   2.268   4.104  0.5157 -0.7456 -1.0482
  274MOL0     H36146  -0.719   2.181   4.118  0.8658 -0.5820  0.5817
  274MOL0     H36147  -0.617   2.180   4.262  0.0411 -0.5613 -0.5125
  274MOL0     H36148  -0.575   2.412   4.236  1.2202 -0.5978 -2.7783
  274MOL0     H36149  -0.730   2.354   4.302 -1.6810 -0.4091 -1.9528
  274MOL0     H36150   0.197   1.888   4.187 -1.0578  2.0518 -0.2451
  274MOL0     H36151   0.448   1.891   4.260  0.5393  0.0724  0.8438
  274MOL0     H36152   0.883   2.034   4.355 -0.4882 -1.4223 -0.6334
  274MOL0     H36153   1.094   1.980   4.472 -0.7922 -2.2271 -4.1957
  274MOL0     H36154   2.806   2.043   5.158 -1.2371 -1.0858  4.0845
  274MOL0     H36155   3.034   2.127   5.165 -2.7742  0.3502  0.0833
  274MOL0     H36156   3.564   1.793   5.080  0.2242 -0.1527  0.1191
  274MOL0     H36157   3.783   1.829   5.141 -0.0347 -0.7885  2.1038
  274MOL0     H36158   4.054   1.967   5.337 -0.4502  1.7384 -0.3985
  274MOL0     H36159   3.972   1.896   5.197 -0.4866  0.3569  0.0210
  274MOL0     H36160   3.837   1.757   5.376  0.0005 -0.5014  0.9390
  274MOL0     H36161   4.014   1.741   5.383  1.3153  1.7347 -1.1528
  274MOL0     H36162   3.827   1.899   5.557  0.5574  0.0323  0.2717
  274MOL0     H36163   4.007   1.912   5.558 -0.5549 -0.4497 -0.1204
  274MOL0     H36164   3.890   1.755   5.728  2.2635 -0.9372  0.6143
  274MOL0     H36165   3.814   1.660   5.596  1.5584 -1.6736 -2.4689
  274MOL0     H36166   4.216   1.505   5.618  1.2336  1.1908  1.8143
  274MOL0     H36167   3.682   2.189   5.353  0.1980 -1.2518  0.6848
  274MOL0     H36168   3.450   2.161   5.289  0.0369 -2.1039  2.3152
  275MOL0     O36169   4.667   3.762   7.082  0.8519 -0.0317 -0.7828
  275MOL0     C36170   4.599   3.683   7.014  0.5919 -0.1225  0.4352
  275MOL0     O36171   4.465   3.682   6.999  0.1765 -0.6198  0.3377
  275MOL0     C36172   4.389   3.782   7.057  0.1436 -0.4747  0.0436
  275MOL0     C36173   4.400   3.810   7.188 -0.0229  0.6072 -0.1068
  275MOL0     C36174   4.325   3.906   7.254 -0.1296  1.2528 -0.4790
  275MOL0     C36175   4.232   3.986   7.184  0.1788 -0.3948  0.1614
  275MOL0     O36176   4.150   4.078   7.234 -0.2981 -0.5723  0.5286
  275MOL0     C36177   4.186   4.142   7.362  0.7031 -0.1439  0.0958
  275MOL0     C36178   4.139   4.071   7.496  0.4555 -0.8523 -0.4241
  275MOL0     C36179   4.196   4.150   7.610  0.6855  0.7386  0.7569
  275MOL0     C36180   4.157   4.081   7.739  0.3747  0.7852 -0.9171
  275MOL0     C36181   4.242   4.128   7.852 -0.7262 -0.2939 -0.1180
  275MOL0     C36182   4.387   4.095   7.860 -0.4676  0.6079  0.4220
  275MOL0     C36183   4.461   4.138   7.990 -0.6010 -0.7306 -0.5330
  275MOL0     C36184   4.599   4.061   8.013  0.0466 -0.2012  0.7566
  275MOL0     N36185   4.672   4.102   8.131 -0.2561  0.0353 -0.2742
  275MOL0     C36186   4.649   4.054   8.253  0.6307  0.5253 -0.5774
  275MOL0     C36187   4.720   4.127   8.344 -0.0793  0.6572  0.5069
  275MOL0     C36188   4.708   4.091   8.491 -1.0600  0.2051  0.3585
  275MOL0     C36189   4.852   4.105   8.558  0.5339 -1.1774 -0.4141
  275MOL0     C36190   4.940   3.982   8.532 -0.1635 -0.2078  0.8418
  275MOL0     C36191   5.068   3.970   8.613  0.5054 -0.8751  0.3363
  275MOL0     O36192   5.120   3.840   8.613  0.2993  0.6765  0.0750
  275MOL0     C36193   5.151   3.786   8.487  0.6022 -0.7667 -0.2257
  275MOL0     C36194   5.235   3.858   8.396  0.4878  0.3253 -0.1339
  275MOL0     C36195   5.273   3.798   8.277 -0.3747  0.6688 -0.6693
  275MOL0     C36196   5.257   3.654   8.259  0.1217 -0.5018  0.0446
  275MOL0     C36197   5.329   3.573   8.157 -0.9941  0.0025  0.5479
  275MOL0     O36198   5.383   3.456   8.199 -0.1790  1.1666  0.6652
  275MOL0     C36199   5.460   3.371   8.121 -0.0203 -0.1738  0.3549
  275MOL0     C36200   5.520   3.399   7.991 -0.2498  0.6670 -0.6565
  275MOL0     C36201   5.587   3.298   7.917  0.7361 -0.4480  0.2736
  275MOL0     C36202   5.593   3.175   7.969  0.2108  0.9217 -0.2017
  275MOL0     O36203   5.648   3.060   7.911 -1.0738 -0.1596 -0.2828
  275MOL0     C36204   5.791   3.057   7.913  0.4367  0.0343  0.0051
  275MOL0     C36205   5.847   2.963   7.821  0.2028 -0.5358 -0.2406
  275MOL0     C36206   6.008   2.973   7.828  0.0461  1.3179 -0.6666
  275MOL0     C36207   6.077   2.860   7.754 -0.3194 -1.5230  0.8412
  275MOL0     C36208   6.229   2.859   7.791 -0.0979 -0.0542 -0.7550
  275MOL0     C36209   6.310   2.978   7.747 -0.0047 -0.0810 -0.6642
  275MOL0     C36210   6.318   3.005   7.600 -0.2625  0.3133  0.2854
  275MOL0     C36211   6.204   3.113   7.551 -0.7939 -0.3950  0.7166
  275MOL0    Cl36212   6.257   3.185   7.402  0.0320 -0.5686  0.0774
  275MOL0     C36213   5.535   3.149   8.089  0.0011 -0.0379 -0.5432
  275MOL0     C36214   5.482   3.247   8.170  1.0983  0.1991 -0.8301
  275MOL0     O36215   5.332   3.612   8.040  0.2702  0.6134 -0.0338
  275MOL0     C36216   5.188   3.585   8.359  0.5663  0.6384 -0.2445
  275MOL0     C36217   5.128   3.654   8.468 -0.0952 -0.1224  0.6990
  275MOL0     N36218   4.781   4.225   8.271 -0.0409  0.3294  0.2177
  275MOL0     N36219   4.763   4.202   8.144 -0.0410 -0.7451  0.4774
  275MOL0     C36220   4.225   3.964   7.045 -0.4346 -0.1056  0.7463
  275MOL0     C36221   4.307   3.863   6.977  0.9469 -0.0530 -0.7041
  275MOL0     C36222   4.678   3.575   6.941 -0.5889 -0.0721  0.7837
  275MOL0     C36223   4.821   3.556   6.950  0.8159  0.4032  0.1778
  275MOL0     C36224   4.880   3.454   6.888  0.2705  0.0089 -0.0607
  275MOL0     C36225   4.807   3.364   6.807 -0.6704  1.0127  0.3594
  275MOL0     O36226   4.873   3.257   6.745 -0.1380  0.0103  0.4790
  275MOL0     C36227   4.842   3.216   6.612  0.5678  0.7665  0.1224
  275MOL0     C36228   4.955   3.198   6.515 -0.2936 -0.0980 -1.2759
  275MOL0     C36229   4.968   3.058   6.442 -0.4486  0.3228 -0.4450
  275MOL0     C36230   5.102   3.020   6.373 -0.3761 -0.5744  0.4052
  275MOL0     C36231   5.216   3.020   6.465 -0.9340 -0.2873 -0.1750
  275MOL0     C36232   5.311   3.005   6.544 -0.7062 -0.3638 -1.0167
  275MOL0     C36233   4.672   3.376   6.794  1.1944 -0.2291 -0.4192
  275MOL0     C36234   4.609   3.483   6.858 -0.4260 -0.2382 -0.7106
  275MOL0     H36235   4.458   3.752   7.259  0.8604  3.1252  1.3748
  275MOL0     H36236   4.332   3.923   7.361 -2.0227 -0.7735  0.0247
  275MOL0     H36237   4.143   4.243   7.356 -0.9045 -0.8902 -2.0886
  275MOL0     H36238   4.295   4.158   7.358  0.4681  1.8203  0.3794
  275MOL0     H36239   4.166   3.965   7.499 -0.4460 -1.0641  1.4115
  275MOL0     H36240   4.030   4.066   7.504  0.5345 -0.7719  0.9327
  275MOL0     H36241   4.148   4.248   7.608 -1.4146 -0.2007  1.8587
  275MOL0     H36242   4.305   4.160   7.609  0.5199  3.3677  0.1289
  275MOL0     H36243   4.051   4.104   7.756 -0.7118 -3.4546 -0.8592
  275MOL0     H36244   4.167   3.974   7.722  3.3806  0.1269  3.3220
  275MOL0     H36245   4.194   4.118   7.950  1.0134  4.8938  1.5877
  275MOL0     H36246   4.242   4.237   7.847  1.2543 -0.2763 -0.2123
  275MOL0     H36247   4.443   4.135   7.775 -0.4568  1.1077  0.6610
  275MOL0     H36248   4.403   3.988   7.843  1.9272  1.2672 -2.2530
  275MOL0     H36249   4.479   4.246   7.992  2.1809 -1.1160  1.9850
  275MOL0     H36250   4.396   4.112   8.074 -0.3100  1.0560  0.3113
  275MOL0     H36251   4.660   4.087   7.927 -1.2388 -1.8268 -0.7087
  275MOL0     H36252   4.577   3.954   8.018 -2.6904  0.2890  1.1575
  275MOL0     H36253   4.592   3.965   8.279  2.2601 -0.7841 -1.2706
  275MOL0     H36254   4.667   3.994   8.524  0.6213 -1.1901 -1.4436
  275MOL0     H36255   4.636   4.159   8.537 -1.2960 -0.3845  0.8866
  275MOL0     H36256   4.833   4.109   8.666 -3.4352  2.7870 -0.9396
  275MOL0     H36257   4.890   4.201   8.522 -3.7409 -0.2690 -3.2561
  275MOL0     H36258   4.895   3.885   8.552  0.5023 -0.6065  0.4330
  275MOL0     H36259   4.979   3.989   8.430 -0.8918 -2.3233  0.3697
  275MOL0     H36260   5.047   4.014   8.711  2.1549  4.1045 -1.2318
  275MOL0     H36261   5.139   4.040   8.568 -0.5810  1.1007  1.5662
  275MOL0     H36262   5.252   3.965   8.403 -0.9012  0.5793 -0.3588
  275MOL0     H36263   5.337   3.853   8.209  1.7128 -0.2800  0.4202
  275MOL0     H36264   5.520   3.497   7.943 -1.9258  0.7137 -0.6127
  275MOL0     H36265   5.630   3.315   7.819  1.3628 -0.1590  0.5925
  275MOL0     H36266   5.824   3.042   8.016  1.6315  2.5660  0.0595
  275MOL0     H36267   5.833   3.150   7.874  1.3632 -0.6696 -0.7395
  275MOL0     H36268   5.812   3.000   7.725  0.7389  3.0300  0.7923
  275MOL0     H36269   5.809   2.862   7.840  1.5935 -0.8466  1.1159
  275MOL0     H36270   6.045   2.975   7.930  1.3693  1.5632 -1.1310
  275MOL0     H36271   6.048   3.069   7.791  0.9877  0.5923 -1.5953
  275MOL0     H36272   6.021   2.769   7.777 -2.8770 -0.5094 -0.8982
  275MOL0     H36273   6.073   2.867   7.645 -1.2601 -1.6359  0.8590
  275MOL0     H36274   6.283   2.770   7.758  3.3727  1.3741  0.6292
  275MOL0     H36275   6.223   2.861   7.900 -2.2918  2.3603 -0.8073
  275MOL0     H36276   6.406   2.974   7.799 -1.2230 -1.1577  1.6848
  275MOL0     H36277   6.264   3.064   7.797  3.0235  0.4948  1.3907
  275MOL0     H36278   6.411   3.058   7.580  0.0816  0.1581  1.4187
  275MOL0     H36279   6.332   2.907   7.553  0.1561  0.2537  0.5319
  275MOL0     H36280   6.198   3.197   7.621  2.8963 -0.9377  1.9255
  275MOL0     H36281   6.107   3.066   7.532  0.1133 -0.9639 -3.7576
  275MOL0     H36282   5.553   3.049   8.126 -2.6171 -0.6461 -0.7326
  275MOL0     H36283   5.444   3.238   8.271  0.3983  0.7964 -1.0232
  275MOL0     H36284   5.189   3.477   8.347  2.9550  0.5360  0.2525
  275MOL0     H36285   5.061   3.606   8.539 -1.7190  0.5731 -0.3009
  275MOL0     H36286   4.148   4.010   6.983 -1.0020 -1.8226  0.1333
  275MOL0     H36287   4.300   3.833   6.873  0.1994  0.5005 -0.8176
  275MOL0     H36288   4.873   3.626   7.016 -0.4544  1.2955  0.2695
  275MOL0     H36289   4.988   3.441   6.894  0.3741  1.1045  0.7828
  275MOL0     H36290   4.773   3.288   6.569 -1.5565 -2.1551 -1.7131
  275MOL0     H36291   4.791   3.120   6.629  1.9232 -0.0520 -0.2794
  275MOL0     H36292   4.963   3.279   6.442 -1.1763 -0.4923 -1.8287
  275MOL0     H36293   5.046   3.208   6.574 -1.1127  3.2053 -0.2964
  275MOL0     H36294   4.899   3.069   6.357 -1.5452  1.4845  0.5432
  275MOL0     H36295   4.931   2.980   6.508 -1.7025  1.6521  0.4934
  275MOL0     H36296   5.097   2.920   6.329 -0.6202 -1.5507  2.5263
  275MOL0     H36297   5.113   3.095   6.294  1.5990  1.7201  2.6713
  275MOL0     H36298   5.403   2.984   6.595 -0.5061  0.6295 -0.9564
  275MOL0     H36299   4.602   3.312   6.741  2.1611 -1.1993 -0.5483
  275MOL0     H36300   4.501   3.486   6.853 -0.4491  1.2602  0.3069
  276MOL0     O36301   7.651   4.552   4.363  0.0164  0.0533  0.8388
  276MOL0     C36302   7.692   4.512   4.471  0.0527 -0.2465  0.2033
  276MOL0     O36303   7.694   4.374   4.512 -0.0783 -0.1513  0.7782
  276MOL0     C36304   7.660   4.273   4.421 -0.3599 -0.6106 -1.5712
  276MOL0     C36305   7.744   4.167   4.413 -0.0133  0.1174 -0.2374
  276MOL0     C36306   7.715   4.054   4.336  1.1778  0.3586 -0.1271
  276MOL0     C36307   7.595   4.055   4.253  0.3446  0.7185  0.2093
  276MOL0     O36308   7.558   3.953   4.164 -0.0998  0.0603 -0.6249
  276MOL0     C36309   7.623   3.828   4.165 -0.5390 -1.2157 -0.0593
  276MOL0     C36310   7.559   3.735   4.054 -0.3594  0.5601  0.5562
  276MOL0     C36311   7.595   3.791   3.909  0.3114  0.1276  0.0188
  276MOL0     C36312   7.545   3.711   3.790  0.1822  0.1144 -0.4724
  276MOL0     C36313   7.616   3.759   3.666  0.6929  0.0105  0.4842
  276MOL0     C36314   7.585   3.671   3.541 -0.5000 -0.2956 -0.1525
  276MOL0     C36315   7.669   3.712   3.431  1.0182  0.1223 -0.3148
  276MOL0     C36316   7.643   3.621   3.315 -0.5348 -0.6375 -0.0831
  276MOL0     N36317   7.532   3.670   3.227 -0.5431 -0.2187  0.1819
  276MOL0     C36318   7.518   3.794   3.163  0.7460  0.5474 -0.1146
  276MOL0     C36319   7.392   3.782   3.107 -1.3542 -0.9112  0.9022
  276MOL0     C36320   7.330   3.883   3.013 -0.5321  0.8248 -0.5196
  276MOL0     C36321   7.408   3.900   2.886 -0.1854 -0.6556  0.4053
  276MOL0     C36322   7.397   3.785   2.786  0.1626  0.0825  0.3631
  276MOL0     C36323   7.248   3.777   2.727 -0.0782 -0.0385  0.6139
  276MOL0     O36324   7.181   3.894   2.703  0.2058  0.2523 -0.3684
  276MOL0     C36325   7.053   3.892   2.658 -0.1779 -1.8875  1.8135
  276MOL0     C36326   6.969   3.775   2.632  0.6524 -0.4803  0.4623
  276MOL0     C36327   6.834   3.781   2.584 -0.3395 -0.2480  0.1910
  276MOL0     C36328   6.769   3.901   2.583 -0.1454 -0.5357  1.1280
  276MOL0     C36329   6.630   3.905   2.526 -0.5046 -0.1644 -1.0062
  276MOL0     O36330   6.584   3.791   2.498 -0.5092  0.1917  0.7153
  276MOL0     C36331   6.444   3.784   2.455 -0.2812  0.7219  0.6179
  276MOL0     C36332   6.332   3.768   2.536  0.1997 -0.3644  0.2588
  276MOL0     C36333   6.201   3.768   2.503  0.8222 -0.2511  0.2706
  276MOL0     C36334   6.176   3.769   2.359 -0.5509  0.0003 -0.3753
  276MOL0     O36335   6.051   3.737   2.324  1.0175 -0.5708 -0.4852
  276MOL0     C36336   5.953   3.833   2.370 -0.5605 -1.0358 -0.9101
  276MOL0     C36337   5.837   3.834   2.272 -0.3002 -0.3297 -0.7195
  276MOL0     C36338   5.739   3.950   2.308 -0.6580  0.2494 -0.1186
  276MOL0     C36339   5.628   3.959   2.198 -0.4131 -0.2720 -0.9765
  276MOL0     C36340   5.530   4.070   2.254 -0.8093 -0.2116  0.3958
  276MOL0     C36341   5.404   4.097   2.163 -0.5755  0.6820 -1.2541
  276MOL0     C36342   5.438   4.164   2.028  0.0895  0.3174 -0.4159
  276MOL0     C36343   5.313   4.182   1.941 -1.0211  0.2886  0.9464
  276MOL0    Cl36344   5.207   4.326   1.996  0.0654  0.2484  0.0560
  276MOL0     C36345   6.274   3.771   2.267 -0.6329 -0.4372 -0.4531
  276MOL0     C36346   6.414   3.783   2.320 -0.3302  0.1015  0.6175
  276MOL0     O36347   6.571   4.012   2.506 -0.3768  0.5164  0.4744
  276MOL0     C36348   6.841   4.015   2.628 -0.0793 -0.0693  0.2280
  276MOL0     C36349   6.978   4.009   2.655  1.2934 -0.8557  0.1169
  276MOL0     N36350   7.349   3.656   3.133 -0.4528 -0.6206  0.7022
  276MOL0     N36351   7.427   3.588   3.205 -0.3523 -0.7597  0.1042
  276MOL0     C36352   7.513   4.164   4.268  0.4041  0.8033 -0.7953
  276MOL0     C36353   7.540   4.265   4.355  0.9267  1.0993  0.9288
  276MOL0     C36354   7.760   4.596   4.563  0.3426 -0.6608 -0.2818
  276MOL0     C36355   7.685   4.703   4.604  0.2487  0.2974  0.3098
  276MOL0     C36356   7.744   4.793   4.699 -0.1508  0.7017 -0.5315
  276MOL0     C36357   7.875   4.779   4.746 -0.1011 -0.0392 -0.8497
  276MOL0     O36358   7.934   4.876   4.825 -0.2626  1.6024 -1.1294
  276MOL0     C36359   7.849   4.948   4.925 -0.5985 -0.6459 -0.0580
  276MOL0     C36360   7.894   4.907   5.065 -0.6360  0.4709  0.1985
  276MOL0     C36361   7.863   4.760   5.117  0.8162  0.4053  0.1535
  276MOL0     C36362   7.738   4.681   5.062 -0.0467  0.8853  0.2514
  276MOL0     C36363   7.614   4.746   5.085  0.0307  0.2572 -0.3548
  276MOL0     C36364   7.507   4.810   5.088 -0.0928  0.1746  0.8396
  276MOL0     C36365   7.945   4.669   4.706  0.8416 -0.5292 -0.3502
  276MOL0     C36366   7.888   4.579   4.617 -0.0789  0.7669  0.0310
  276MOL0     H36367   7.845   4.189   4.449  0.2571 -0.1646 -0.8092
  276MOL0     H36368   7.786   3.974   4.316  0.8100 -0.0937  0.3241
  276MOL0     H36369   7.599   3.773   4.257 -2.8502  2.6062  1.8871
  276MOL0     H36370   7.730   3.846   4.154 -0.8177 -0.0050 -0.9057
  276MOL0     H36371   7.451   3.729   4.067 -0.6795 -0.3756 -1.9693
  276MOL0     H36372   7.598   3.633   4.060  1.3700  1.1731  0.4966
  276MOL0     H36373   7.703   3.804   3.895  0.3480  1.1494  1.0560
  276MOL0     H36374   7.552   3.891   3.914  3.0680  1.3860  0.0892
  276MOL0     H36375   7.561   3.607   3.822  1.8381  0.2985 -0.6345
  276MOL0     H36376   7.436   3.722   3.787  0.0623 -1.1645 -1.8515
  276MOL0     H36377   7.722   3.750   3.689  0.1986 -1.5535  2.4165
  276MOL0     H36378   7.590   3.864   3.648 -0.2704  0.0897  2.1121
  276MOL0     H36379   7.486   3.683   3.496  0.9765 -0.9494 -3.9328
  276MOL0     H36380   7.599   3.565   3.563  0.4746 -0.1288  0.1034
  276MOL0     H36381   7.648   3.818   3.415 -1.9722  0.0966  2.3904
  276MOL0     H36382   7.775   3.704   3.456  0.7934  0.8532  0.9883
  276MOL0     H36383   7.615   3.519   3.340 -0.2093 -0.6770  0.1236
  276MOL0     H36384   7.738   3.619   3.261 -1.8269  0.3960 -2.5953
  276MOL0     H36385   7.575   3.886   3.161 -0.6773  1.4626 -0.4835
  276MOL0     H36386   7.323   3.976   3.070 -2.1242 -0.2427  1.1423
  276MOL0     H36387   7.225   3.859   2.995  0.1296  0.0371 -4.2958
  276MOL0     H36388   7.512   3.921   2.909  0.4021 -0.3126 -2.1843
  276MOL0     H36389   7.373   3.990   2.834  3.0656  0.1889 -0.5454
  276MOL0     H36390   7.463   3.826   2.709 -0.2361  1.0893  0.5407
  276MOL0     H36391   7.421   3.695   2.843 -1.2002  0.4901  1.6577
  276MOL0     H36392   7.191   3.717   2.799 -0.0436  1.7466  2.2059
  276MOL0     H36393   7.259   3.713   2.639 -1.6309 -3.6428  2.7910
  276MOL0     H36394   7.002   3.672   2.638  1.6813 -0.1253  1.0457
  276MOL0     H36395   6.796   3.684   2.553  0.9440 -0.6848 -0.0952
  276MOL0     H36396   6.347   3.744   2.640  0.4910 -0.2767  0.2375
  276MOL0     H36397   6.115   3.741   2.563 -0.6547 -0.0397 -1.6562
  276MOL0     H36398   5.993   3.935   2.371 -6.2590  1.6882  2.2471
  276MOL0     H36399   5.922   3.814   2.473 -2.7086 -0.1654 -1.3436
  276MOL0     H36400   5.794   3.734   2.274  1.9503 -1.3454  1.4075
  276MOL0     H36401   5.875   3.861   2.172 -1.4498  3.3241 -0.3194
  276MOL0     H36402   5.806   4.036   2.306 -0.6709  0.2514 -2.1449
  276MOL0     H36403   5.706   3.930   2.410 -1.2542 -1.7351 -0.6569
  276MOL0     H36404   5.682   3.985   2.107  0.1997 -0.0637 -0.5668
  276MOL0     H36405   5.576   3.863   2.189 -3.1941  1.0172  0.1667
  276MOL0     H36406   5.585   4.164   2.257 -1.9565  0.5141 -0.7031
  276MOL0     H36407   5.521   4.042   2.359  3.7713 -2.1582  0.4954
  276MOL0     H36408   5.330   4.159   2.213  0.1535  0.6660 -0.1369
  276MOL0     H36409   5.344   4.009   2.138  0.6996 -0.8808  0.8457
  276MOL0     H36410   5.473   4.265   2.050 -0.6007  0.1697  1.5709
  276MOL0     H36411   5.512   4.106   1.972  1.3956  1.0636  0.4947
  276MOL0     H36412   5.250   4.092   1.942  3.5038 -3.2211 -0.1472
  276MOL0     H36413   5.347   4.208   1.841  0.1793  0.0488  1.2810
  276MOL0     H36414   6.253   3.767   2.160  0.4449 -2.9070 -0.6238
  276MOL0     H36415   6.504   3.790   2.259  1.4750  0.6449  3.1904
  276MOL0     H36416   6.779   4.104   2.622  0.4300  0.4131  1.6514
  276MOL0     H36417   7.035   4.097   2.685  0.5439 -0.1380 -0.5354
  276MOL0     H36418   7.431   4.161   4.197  2.2880  0.5091 -3.0604
  276MOL0     H36419   7.470   4.348   4.361  0.3121  0.8537 -1.7530
  276MOL0     H36420   7.582   4.708   4.569 -0.2041 -2.1918  1.1435
  276MOL0     H36421   7.687   4.885   4.704  0.9015  1.3300  0.4217
  276MOL0     H36422   7.742   4.926   4.917 -1.3633  2.6055 -0.4346
  276MOL0     H36423   7.869   5.055   4.912 -1.3556 -0.3890  0.7852
  276MOL0     H36424   8.001   4.923   5.074  0.2648 -3.8902 -0.4635
  276MOL0     H36425   7.847   4.984   5.127 -1.1071  2.7633 -2.7293
  276MOL0     H36426   7.870   4.757   5.226  0.7851 -0.1790  0.1415
  276MOL0     H36427   7.952   4.701   5.092  2.0703  1.4238  1.8918
  276MOL0     H36428   7.756   4.665   4.955  2.2644 -0.0772  0.7349
  276MOL0     H36429   7.735   4.580   5.103 -1.4326  1.6295  2.1412
  276MOL0     H36430   7.418   4.865   5.110  0.5196  1.1329  0.9560
  276MOL0     H36431   8.051   4.664   4.726  0.8881 -0.7071 -0.6420
  276MOL0     H36432   7.941   4.493   4.578  0.2684  1.1961 -0.4439
  277MOL0     O36433   7.592   4.852  10.383 -0.3669  0.8957 -0.1805
  277MOL0     C36434   7.523   4.897  10.479  0.4402 -0.8641 -0.3840
  277MOL0     O36435   7.568   4.950  10.598 -0.0887 -0.1559 -0.6020
  277MOL0     C36436   7.695   4.930  10.641 -0.1898 -0.4763  0.8616
  277MOL0     C36437   7.703   4.936  10.776  0.0222  0.2453 -0.6134
  277MOL0     C36438   7.833   4.921  10.829  0.3476 -0.7050  0.4493
  277MOL0     C36439   7.949   4.927  10.747  0.5210  0.8728  0.2764
  277MOL0     O36440   8.063   4.926  10.823 -0.7407  0.0052 -0.4621
  277MOL0     C36441   8.182   4.873  10.772  0.2640 -0.0587  0.2111
  277MOL0     C36442   8.301   4.921  10.846 -0.3843  0.1095 -0.1466
  277MOL0     C36443   8.427   4.869  10.788 -1.0736 -0.7571 -0.1925
  277MOL0     C36444   8.551   4.905  10.874  0.6209 -0.6325  0.0101
  277MOL0     C36445   8.680   4.921  10.792 -0.3180  0.0144 -0.4013
  277MOL0     C36446   8.789   4.949  10.893 -1.0828  0.0029 -0.7235
  277MOL0     C36447   8.918   5.010  10.841 -1.0858  0.3813  0.4993
  277MOL0     C36448   9.002   4.925  10.743  0.5403  0.3998  0.3089
  277MOL0     N36449   9.115   4.997  10.690 -0.0492 -0.6565  0.1649
  277MOL0     C36450   9.109   5.093  10.593  0.2132 -0.6497 -0.2758
  277MOL0     C36451   9.240   5.098  10.551 -0.4111 -0.5826 -0.0335
  277MOL0     C36452   9.267   5.184  10.440  0.9863  1.0879  0.6941
  277MOL0     C36453   9.418   5.213  10.431 -0.4602 -0.6554  0.1899
  277MOL0     C36454   9.444   5.292  10.292 -0.0344  0.4735 -0.4636
  277MOL0     C36455   9.597   5.328  10.288  0.0714 -0.3583  0.1293
  277MOL0     O36456   9.630   5.389  10.161 -0.5055  0.0664  0.4938
  277MOL0     C36457   9.770   5.411  10.141  0.6286  0.6150  1.1972
  277MOL0     C36458   9.884   5.380  10.222  0.3478  0.2871  1.1721
  277MOL0     C36459  10.016   5.415  10.182  0.3981  0.7693  0.2340
  277MOL0     C36460  10.033   5.490  10.068  0.0865  0.3660 -0.4725
  277MOL0     C36461  10.166   5.541  10.038 -0.0930  0.5768 -0.0875
  277MOL0     O36462  10.279   5.502  10.123 -0.0897  0.5928  0.1691
  277MOL0     C36463  10.410   5.510  10.078  0.9985  0.0147  0.9976
  277MOL0     C36464  10.498   5.425  10.144 -0.7555 -0.7984 -0.8442
  277MOL0     C36465  10.636   5.452  10.136  0.1198 -0.2337 -1.1924
  277MOL0     C36466  10.683   5.561  10.055 -0.1375  0.7256  0.3778
  277MOL0     O36467  10.810   5.596  10.074 -0.0473  0.4307 -0.5908
  277MOL0     C36468  10.868   5.713  10.019  0.7516  0.1288  0.0611
  277MOL0     C36469  11.016   5.708  10.053 -0.6148 -0.1491 -0.2896
  277MOL0     C36470  11.045   5.707  10.205  0.5334 -0.1273  0.7667
  277MOL0     C36471  11.201   5.715  10.230 -0.5400 -1.2509 -1.2530
  277MOL0     C36472  11.258   5.730  10.377 -0.0222  1.0488  0.8536
  277MOL0     C36473  11.408   5.726  10.384 -0.4808  0.0085 -0.1993
  277MOL0     C36474  11.469   5.711  10.531  0.0220  0.2478  0.9016
  277MOL0     C36475  11.618   5.765  10.540 -0.4035 -0.8177  0.0233
  277MOL0    Cl36476  11.637   5.949  10.555 -0.0960  0.0056  0.0985
  277MOL0     C36477  10.590   5.645   9.998  0.8693  0.1351 -0.5773
  277MOL0     C36478  10.454   5.619   9.997 -0.1206 -0.5825 -0.5830
  277MOL0     O36479  10.180   5.603   9.927 -0.6147 -0.5282  0.0845
  277MOL0     C36480   9.916   5.507   9.983 -0.0352 -0.2600 -0.7717
  277MOL0     C36481   9.792   5.465  10.016 -0.2796  0.7859  0.5221
  277MOL0     N36482   9.324   5.024  10.632  0.1400 -0.1395 -0.6465
  277MOL0     N36483   9.244   4.968  10.720  0.9175  0.3811 -0.4969
  277MOL0     C36484   7.937   4.925  10.604  1.0391  0.3953 -0.2348
  277MOL0     C36485   7.802   4.919  10.561  0.3400 -0.0943  0.8583
  277MOL0     C36486   7.372   4.906  10.461  0.4345  1.6067  1.0006
  277MOL0     C36487   7.319   4.831  10.359 -0.4234 -0.5895 -0.0015
  277MOL0     C36488   7.180   4.830  10.343 -0.0941 -0.4413  0.3123
  277MOL0     C36489   7.099   4.901  10.436  0.9417  0.7310 -0.7785
  277MOL0     O36490   6.961   4.925  10.422 -0.1894  0.1266  0.3175
  277MOL0     C36491   6.899   4.901  10.290 -0.2613  0.9683 -0.4115
  277MOL0     C36492   6.744   4.936  10.282  0.3832 -0.1793  0.3978
  277MOL0     C36493   6.673   4.849  10.383  0.4414  0.6100 -0.5513
  277MOL0     C36494   6.522   4.903  10.397 -0.5747 -0.3635 -1.0209
  277MOL0     C36495   6.425   4.844  10.302 -0.2521  0.1621 -0.8607
  277MOL0     C36496   6.344   4.784  10.233  1.4495 -0.1033  0.4761
  277MOL0     C36497   7.149   4.975  10.541  0.6714  0.3509 -0.0777
  277MOL0     C36498   7.285   4.975  10.558 -0.7082  0.7120 -0.4825
  277MOL0     H36499   7.615   4.942  10.840 -0.6922  0.5763 -1.6110
  277MOL0     H36500   7.854   4.899  10.933  0.4996  0.2342  0.6246
  277MOL0     H36501   8.179   4.892  10.664 -4.0305 -3.2044 -0.5374
  277MOL0     H36502   8.176   4.764  10.772 -3.7094 -0.1180 -3.5358
  277MOL0     H36503   8.301   4.890  10.951 -3.2559 -1.5653 -0.5311
  277MOL0     H36504   8.304   5.031  10.846  1.8642  0.1689  2.4749
  277MOL0     H36505   8.431   4.910  10.686 -2.4494  1.4726  0.5647
  277MOL0     H36506   8.425   4.760  10.775  1.6701 -0.9011  0.0499
  277MOL0     H36507   8.541   5.005  10.918 -0.8532 -0.9582  0.4790
  277MOL0     H36508   8.560   4.835  10.957  1.3584 -1.5934 -0.8537
  277MOL0     H36509   8.677   4.997  10.714 -0.4853  1.0022  0.5486
  277MOL0     H36510   8.694   4.822  10.746  1.2045  0.2719 -0.5342
  277MOL0     H36511   8.815   4.859  10.951 -1.0334  0.5351  0.0986
  277MOL0     H36512   8.756   5.033  10.955 -0.6593  0.2934 -0.8845
  277MOL0     H36513   8.895   5.110  10.804 -1.1746 -0.0934 -0.7554
  277MOL0     H36514   8.985   5.020  10.928 -1.5902  0.8423  0.8409
  277MOL0     H36515   8.950   4.886  10.655 -1.0630 -0.7017  1.6686
  277MOL0     H36516   9.026   4.838  10.805 -3.5548 -0.7971  0.5284
  277MOL0     H36517   9.015   5.136  10.559 -2.9880 -0.8662  6.6222
  277MOL0     H36518   9.197   5.268  10.439  0.3840  0.5916  0.9207
  277MOL0     H36519   9.237   5.132  10.348 -0.2910 -2.1266  2.7442
  277MOL0     H36520   9.485   5.127  10.424  0.1023 -0.1821 -0.3648
  277MOL0     H36521   9.444   5.274  10.518 -1.4919 -0.6386  0.5094
  277MOL0     H36522   9.423   5.215  10.217 -2.5385 -1.3781  1.9448
  277MOL0     H36523   9.380   5.380  10.277 -0.2173  0.6820  1.3141
  277MOL0     H36524   9.663   5.244  10.311  0.9496  0.2391 -0.1648
  277MOL0     H36525   9.599   5.394  10.375  0.4833  1.2598 -1.0517
  277MOL0     H36526   9.880   5.345  10.325  1.8615 -0.4596  1.0078
  277MOL0     H36527  10.100   5.382  10.241 -0.3116 -0.9913  0.3198
  277MOL0     H36528  10.464   5.348  10.213  0.2816  1.1714  2.0815
  277MOL0     H36529  10.706   5.387  10.188 -1.9236 -1.3236  0.3915
  277MOL0     H36530  10.823   5.803  10.061 -1.8405 -1.5065  1.0480
  277MOL0     H36531  10.850   5.717   9.912 -4.3530  0.0166  0.6794
  277MOL0     H36532  11.064   5.795  10.008  1.3916 -1.0971 -0.0981
  277MOL0     H36533  11.062   5.617  10.012  0.5694 -0.6605  1.9838
  277MOL0     H36534  11.000   5.616  10.246  1.1595 -2.6590 -3.5670
  277MOL0     H36535  11.010   5.796  10.259  1.1993 -0.9896  2.7185
  277MOL0     H36536  11.235   5.614  10.202  2.2958 -0.9794  0.8043
  277MOL0     H36537  11.261   5.773  10.161  0.8679 -2.9306 -1.5242
  277MOL0     H36538  11.224   5.654  10.446  2.4545 -0.4164  0.5943
  277MOL0     H36539  11.221   5.829  10.407 -1.4920  1.0787 -0.8882
  277MOL0     H36540  11.452   5.810  10.329  0.4819 -1.0667 -1.1164
  277MOL0     H36541  11.444   5.634  10.338  2.0664 -0.3103  2.1316
  277MOL0     H36542  11.418   5.780  10.599  0.3868 -0.5897  2.0533
  277MOL0     H36543  11.451   5.608  10.562 -3.7587 -0.8797 -3.8641
  277MOL0     H36544  11.683   5.714  10.470  1.4059 -1.8898  2.3292
  277MOL0     H36545  11.648   5.734  10.641 -1.4399  1.4568  1.1129
  277MOL0     H36546  10.627   5.729   9.940 -2.6244  0.9026 -1.9521
  277MOL0     H36547  10.393   5.702   9.961 -4.0599 -2.6877  0.6568
  277MOL0     H36548   9.933   5.553   9.886 -2.2707  0.1275 -1.0136
  277MOL0     H36549   9.705   5.487   9.954  0.6351 -0.3349 -1.2758
  277MOL0     H36550   8.022   4.935  10.537  2.1837 -0.1042  1.1149
  277MOL0     H36551   7.791   4.904  10.454 -0.3289 -3.4183  1.2685
  277MOL0     H36552   7.384   4.769  10.299  0.2464 -2.4496  2.4456
  277MOL0     H36553   7.148   4.775  10.255  0.7672 -3.2726  1.6750
  277MOL0     H36554   6.912   4.793  10.275  0.6148  0.8074  1.2805
  277MOL0     H36555   6.952   4.962  10.217  3.0370 -0.0989  0.8951
  277MOL0     H36556   6.737   5.042  10.305 -0.6419  0.8700 -3.8505
  277MOL0     H36557   6.694   4.911  10.188  0.0430  0.3108  0.4434
  277MOL0     H36558   6.713   4.867  10.484 -0.5033 -0.2578 -0.0014
  277MOL0     H36559   6.680   4.743  10.356  1.2638  0.0158  1.7407
  277MOL0     H36560   6.488   4.866  10.494 -1.1801 -0.2057 -1.1713
  277MOL0     H36561   6.503   5.010  10.389 -0.1274 -0.2444 -0.4906
  277MOL0     H36562   6.265   4.755  10.167  1.9168  0.9861 -0.6081
  277MOL0     H36563   7.072   5.029  10.595 -0.1681  0.1548 -1.0407
  277MOL0     H36564   7.339   5.020  10.641 -2.1409  3.0394 -0.7259
  278MOL0     O36565   6.282   9.002   4.978  0.4494 -0.2306  0.1832
  278MOL0     C36566   6.370   8.924   4.935 -0.3337 -0.5288  0.1865
  278MOL0     O36567   6.378   8.866   4.812  0.1528 -0.3210  0.1677
  278MOL0     C36568   6.279   8.897   4.720  0.4670 -0.7968 -0.7415
  278MOL0     C36569   6.278   9.008   4.638 -0.7779 -0.9980 -0.1913
  278MOL0     C36570   6.190   9.019   4.533 -0.6411 -0.1956 -0.6867
  278MOL0     C36571   6.097   8.918   4.497 -0.2514  0.0241  0.1787
  278MOL0     O36572   6.000   8.917   4.390 -0.6979  0.1207 -0.5654
  278MOL0     C36573   6.033   8.966   4.266 -0.0579 -0.4519  0.7594
  278MOL0     C36574   6.155   8.892   4.206  0.2999  0.2832  0.1639
  278MOL0     C36575   6.183   8.938   4.065  0.4478  0.1870 -0.3320
  278MOL0     C36576   6.294   8.865   4.001 -0.8580  0.6604 -0.3299
  278MOL0     C36577   6.309   8.920   3.859 -0.1151  0.3622 -0.9105
  278MOL0     C36578   6.397   8.846   3.767 -0.1899  1.0423  0.6669
  278MOL0     C36579   6.323   8.721   3.712 -0.1677  0.0810  0.1871
  278MOL0     C36580   6.414   8.628   3.637 -0.6553  0.8111 -0.0216
  278MOL0     N36581   6.511   8.560   3.728  0.8751  0.0553  0.5568
  278MOL0     C36582   6.644   8.599   3.741  0.1250  0.1640 -0.0615
  278MOL0     C36583   6.708   8.505   3.815  0.5764  0.0358  0.5160
  278MOL0     C36584   6.851   8.496   3.866 -0.3771 -0.0161 -0.1479
  278MOL0     C36585   6.929   8.392   3.786  0.2567 -0.3104 -0.3712
  278MOL0     C36586   6.928   8.252   3.836  0.9286  0.4945 -0.0194
  278MOL0     C36587   6.962   8.154   3.721 -0.1750 -0.4339  1.4770
  278MOL0     O36588   6.989   8.022   3.769 -0.9776 -0.2323  0.6588
  278MOL0     C36589   7.025   7.919   3.676  0.3800 -0.3621  0.0084
  278MOL0     C36590   7.049   7.795   3.721 -0.5684  0.2814 -1.5052
  278MOL0     C36591   7.093   7.688   3.638  0.0597 -0.3724 -0.1710
  278MOL0     C36592   7.103   7.710   3.499 -0.2351 -0.8569  0.0463
  278MOL0     C36593   7.152   7.613   3.395 -0.1976  0.2146 -0.1460
  278MOL0     O36594   7.154   7.650   3.260  0.2016 -0.1582  0.6405
  278MOL0     C36595   7.158   7.551   3.156 -0.1495  0.5478 -0.9325
  278MOL0     C36596   7.289   7.525   3.100 -0.1594 -0.1114 -0.0422
  278MOL0     C36597   7.305   7.431   3.003  1.1304 -0.1856 -0.2077
  278MOL0     C36598   7.194   7.368   2.945 -0.1638  0.5473 -0.8337
  278MOL0     O36599   7.211   7.290   2.834 -0.9804  0.0273 -0.1839
  278MOL0     C36600   7.118   7.300   2.727 -0.5259 -0.1039 -0.4133
  278MOL0     C36601   7.193   7.270   2.599  0.3777  0.0414  0.5199
  278MOL0     C36602   7.112   7.286   2.476  0.3582 -0.0789  0.1266
  278MOL0     C36603   7.198   7.325   2.357 -0.8931 -0.6521 -0.0259
  278MOL0     C36604   7.116   7.351   2.228  0.2416 -0.3176 -0.9310
  278MOL0     C36605   7.011   7.471   2.227 -1.2262  0.4043 -0.1274
  278MOL0     C36606   6.914   7.447   2.114  0.9750 -0.6685  0.4251
  278MOL0     C36607   6.800   7.553   2.123  0.5023  0.1470 -0.2438
  278MOL0    Cl36608   6.849   7.724   2.154 -0.0401  0.6004  0.0565
  278MOL0     C36609   7.062   7.384   3.000 -0.1176 -0.2582  0.0116
  278MOL0     C36610   7.046   7.478   3.098 -0.0598 -0.4063 -0.0601
  278MOL0     O36611   7.161   7.493   3.430  0.1112  0.2296 -0.4389
  278MOL0     C36612   7.079   7.836   3.451 -0.0926  0.8185 -0.3816
  278MOL0     C36613   7.046   7.944   3.541 -0.6753 -0.2686 -0.4117
  278MOL0     N36614   6.615   8.408   3.845 -0.3336  0.0096  0.7499
  278MOL0     N36615   6.497   8.443   3.786 -0.0009  0.5536 -0.0469
  278MOL0     C36616   6.099   8.811   4.588  0.5002 -0.8559  0.7479
  278MOL0     C36617   6.184   8.807   4.697 -0.3343 -0.4758 -0.3989
  278MOL0     C36618   6.484   8.891   5.021  0.7011  0.2477 -0.5994
  278MOL0     C36619   6.609   8.878   4.962 -0.1639 -0.1871 -0.2714
  278MOL0     C36620   6.716   8.834   5.044 -0.2550 -0.6250  0.0256
  278MOL0     C36621   6.708   8.807   5.182 -0.1804  0.3716  0.5030
  278MOL0     O36622   6.826   8.785   5.244 -0.1339 -0.1955  0.4570
  278MOL0     C36623   6.825   8.770   5.389  0.1253 -0.6541 -0.1896
  278MOL0     C36624   6.817   8.909   5.464  0.1767  0.2716 -0.8755
  278MOL0     C36625   6.887   8.892   5.606  0.2257  0.2272  2.0498
  278MOL0     C36626   6.985   8.998   5.632  0.1317  0.8938  0.0785
  278MOL0     C36627   7.112   8.976   5.554  0.4023 -0.3748 -0.6176
  278MOL0     C36628   7.205   8.953   5.476  0.2971  0.2237 -0.0180
  278MOL0     C36629   6.578   8.825   5.240 -0.8130  0.2879  0.0869
  278MOL0     C36630   6.469   8.864   5.163 -0.1562  0.4811 -0.1147
  278MOL0     H36631   6.338   9.091   4.674 -0.1565 -2.2983  1.9872
  278MOL0     H36632   6.200   9.119   4.491 -0.1569  0.4312  0.8318
  278MOL0     H36633   6.066   9.070   4.275 -0.9924 -0.2215  1.7336
  278MOL0     H36634   5.946   8.979   4.200  0.8523 -0.7352 -0.5367
  278MOL0     H36635   6.134   8.785   4.215  2.3843 -0.1051  1.0113
  278MOL0     H36636   6.240   8.914   4.271  0.6613  4.2814 -1.4127
  278MOL0     H36637   6.214   9.042   4.071 -0.6573  0.4668  0.8493
  278MOL0     H36638   6.093   8.937   4.002  0.6288 -0.9920 -0.6019
  278MOL0     H36639   6.389   8.871   4.055 -0.2766  0.7988 -1.3507
  278MOL0     H36640   6.287   8.756   3.996 -0.8533  0.5422  1.4210
  278MOL0     H36641   6.351   9.020   3.871 -0.2616  0.3256  0.0194
  278MOL0     H36642   6.214   8.940   3.810 -0.7324  0.6458  0.3600
  278MOL0     H36643   6.488   8.819   3.821  0.6749 -1.4565 -1.7863
  278MOL0     H36644   6.431   8.905   3.681  0.8415  0.1699  0.4653
  278MOL0     H36645   6.281   8.669   3.798  1.9771 -1.0000  0.6463
  278MOL0     H36646   6.235   8.756   3.657 -0.0460  1.9598  1.0788
  278MOL0     H36647   6.481   8.667   3.559  1.4262 -1.5844  0.4165
  278MOL0     H36648   6.352   8.553   3.586 -0.3973  0.7006 -0.1749
  278MOL0     H36649   6.682   8.691   3.696  0.7809 -0.8112 -1.5845
  278MOL0     H36650   6.842   8.464   3.971  0.1570  3.7723  1.2329
  278MOL0     H36651   6.889   8.598   3.853  0.5812  0.3266  3.9114
  278MOL0     H36652   7.033   8.428   3.780  0.3665 -0.5645 -0.0373
  278MOL0     H36653   6.881   8.386   3.688 -0.4782 -2.4168  0.0678
  278MOL0     H36654   6.998   8.230   3.917  0.3507 -3.6067 -0.4119
  278MOL0     H36655   6.825   8.237   3.872  1.8036  1.8287  3.4654
  278MOL0     H36656   7.049   8.194   3.668 -1.3768  2.3856  1.4450
  278MOL0     H36657   6.880   8.170   3.650 -0.9245  2.7450  2.8812
  278MOL0     H36658   7.033   7.786   3.828  0.2336  1.4306 -1.2750
  278MOL0     H36659   7.101   7.589   3.681  0.8979 -0.8624 -1.4003
  278MOL0     H36660   7.368   7.587   3.141 -1.7490  1.5043  0.7123
  278MOL0     H36661   7.401   7.418   2.955  1.4097  0.8440  0.0456
  278MOL0     H36662   7.070   7.398   2.725  0.6413  0.5513  1.2502
  278MOL0     H36663   7.040   7.230   2.757 -0.0806 -0.4829 -0.1224
  278MOL0     H36664   7.229   7.167   2.591 -0.1425 -0.2013  1.1988
  278MOL0     H36665   7.279   7.337   2.600  0.1877  0.3206 -0.6261
  278MOL0     H36666   7.050   7.372   2.502 -0.0039 -1.2014  3.4557
  278MOL0     H36667   7.060   7.191   2.457  3.3699 -1.8546  0.0872
  278MOL0     H36668   7.255   7.416   2.378  0.0266 -0.8882 -1.3190
  278MOL0     H36669   7.272   7.245   2.343 -2.7393 -2.3499 -0.6931
  278MOL0     H36670   7.062   7.257   2.216  0.1394 -0.0904 -2.5757
  278MOL0     H36671   7.187   7.350   2.144  0.8425 -1.9626 -0.4492
  278MOL0     H36672   7.066   7.565   2.228  0.9056 -0.7104  2.6369
  278MOL0     H36673   6.944   7.471   2.314 -2.1329  3.3141 -0.7182
  278MOL0     H36674   6.966   7.443   2.018 -0.6685  1.0834 -0.6199
  278MOL0     H36675   6.860   7.352   2.117 -1.6230  0.5533 -2.1515
  278MOL0     H36676   6.736   7.516   2.204 -0.8695 -3.9989 -2.8879
  278MOL0     H36677   6.759   7.562   2.022  4.7533  1.7561 -2.0626
  278MOL0     H36678   6.978   7.328   2.960  1.0669 -1.6931 -0.5300
  278MOL0     H36679   6.947   7.500   3.135  0.2224 -2.7190  2.3737
  278MOL0     H36680   7.108   7.862   3.350  0.7749  1.1231 -0.0654
  278MOL0     H36681   7.041   8.044   3.501  1.2611 -0.4805 -1.3152
  278MOL0     H36682   6.031   8.734   4.552 -0.9192  1.2407 -1.2733
  278MOL0     H36683   6.184   8.713   4.753 -5.0606 -0.2571  0.3692
  278MOL0     H36684   6.618   8.882   4.853 -0.5653 -1.0348 -0.3496
  278MOL0     H36685   6.814   8.827   4.998  0.8963  2.8754  1.6124
  278MOL0     H36686   6.926   8.739   5.417  0.2935 -1.9298 -2.0289
  278MOL0     H36687   6.749   8.696   5.417  1.6237 -1.9488  0.6361
  278MOL0     H36688   6.872   8.981   5.402 -1.2798 -0.0115 -2.5669
  278MOL0     H36689   6.714   8.945   5.469  0.1721  0.5308 -2.3490
  278MOL0     H36690   6.941   8.798   5.613 -0.6122 -0.4184  0.3119
  278MOL0     H36691   6.809   8.894   5.683 -2.3505 -3.6041 -0.1404
  278MOL0     H36692   6.949   9.100   5.615 -1.4329  0.7141  1.9221
  278MOL0     H36693   7.009   8.993   5.739 -0.8996  2.1227  0.3900
  278MOL0     H36694   7.278   8.913   5.409 -1.3198 -1.7672 -0.6839
  278MOL0     H36695   6.553   8.791   5.340 -4.2821  1.5107 -0.2106
  278MOL0     H36696   6.371   8.874   5.210  0.2927 -1.2667  1.2923
  279MOL0     O36697   8.842   3.077   0.582 -0.1604 -0.1712  0.3559
  279MOL0     C36698   8.965   3.056   0.579  0.0903  0.2282  0.2112
  279MOL0     O36699   9.026   2.933   0.590  0.2582  0.0819  0.2051
  279MOL0     C36700   8.949   2.813   0.603  0.2988 -0.2680  0.3599
  279MOL0     C36701   8.819   2.787   0.542 -0.8227 -1.3139 -0.8780
  279MOL0     C36702   8.744   2.672   0.571  0.7645 -0.3582 -0.1585
  279MOL0     C36703   8.810   2.570   0.645 -0.1264  0.1947 -0.4607
  279MOL0     O36704   8.753   2.451   0.685 -0.1265 -0.2309 -0.1311
  279MOL0     C36705   8.606   2.447   0.714 -0.0874 -0.1425 -0.0693
  279MOL0     C36706   8.570   2.304   0.749 -0.2349 -0.1434  0.2798
  279MOL0     C36707   8.421   2.275   0.737 -0.8947  0.2570  0.0683
  279MOL0     C36708   8.395   2.132   0.793 -0.2887 -0.7979 -0.2404
  279MOL0     C36709   8.250   2.077   0.784 -0.2676 -0.9824 -0.3643
  279MOL0     C36710   8.197   2.077   0.635 -0.2878 -1.2878 -0.0397
  279MOL0     C36711   8.085   1.978   0.634  0.8067 -0.2432 -0.0888
  279MOL0     C36712   8.022   1.962   0.499  0.3265  0.5007  0.3130
  279MOL0     N36713   7.925   2.063   0.473  0.6014 -0.0327  0.2543
  279MOL0     C36714   7.791   2.039   0.436  0.0059 -0.0094 -1.0835
  279MOL0     C36715   7.740   2.157   0.405 -0.1924  0.1435 -0.3131
  279MOL0     C36716   7.595   2.175   0.358  0.5793  0.1521 -0.2060
  279MOL0     C36717   7.495   2.193   0.478 -1.5014 -0.4619  0.7217
  279MOL0     C36718   7.358   2.142   0.444  0.8074 -0.2025  0.2823
  279MOL0     C36719   7.277   2.129   0.572  0.2510 -0.9095  0.4886
  279MOL0     O36720   7.143   2.181   0.566 -0.2239 -0.3187  0.5698
  279MOL0     C36721   7.072   2.214   0.680 -1.4982 -0.0763  0.8435
  279MOL0     C36722   6.969   2.312   0.655  0.8041 -0.1881 -0.0916
  279MOL0     C36723   6.887   2.350   0.765  0.1609  1.1548 -0.1770
  279MOL0     C36724   6.910   2.285   0.891  0.9312 -0.7169  0.5730
  279MOL0     C36725   6.806   2.297   1.003 -0.4584  0.3261 -0.4412
  279MOL0     O36726   6.686   2.333   0.960 -0.4788  0.6694 -0.1432
  279MOL0     C36727   6.571   2.331   1.030 -0.3779  0.8902  0.1466
  279MOL0     C36728   6.551   2.270   1.157 -0.7580  0.3667 -0.7107
  279MOL0     C36729   6.433   2.274   1.225  0.4592  0.0572  0.3660
  279MOL0     C36730   6.324   2.351   1.167 -1.4419  0.3465 -0.2550
  279MOL0     O36731   6.194   2.354   1.216 -0.3532  0.3534  0.5702
  279MOL0     C36732   6.153   2.253   1.308  0.5763 -0.6353 -0.9897
  279MOL0     C36733   6.003   2.248   1.311  0.8560  0.8409  0.6306
  279MOL0     C36734   5.943   2.153   1.412  0.1317  0.3938 -0.2946
  279MOL0     C36735   5.811   2.206   1.464 -0.1220 -0.1773  0.7221
  279MOL0     C36736   5.831   2.302   1.585 -0.6051  0.4857 -0.3306
  279MOL0     C36737   5.874   2.246   1.724  0.0190 -0.1139 -0.5284
  279MOL0     C36738   5.841   2.355   1.833  0.8479  0.3959 -0.1606
  279MOL0     C36739   5.926   2.481   1.849  0.5967 -0.0765  0.5594
  279MOL0    Cl36740   6.099   2.432   1.881 -0.2292 -0.3823 -0.0373
  279MOL0     C36741   6.343   2.406   1.041  0.1825  0.1815  0.2805
  279MOL0     C36742   6.460   2.392   0.973 -0.2688 -0.1448  0.6025
  279MOL0     O36743   6.837   2.274   1.120  0.1748 -0.0710 -0.7578
  279MOL0     C36744   7.017   2.195   0.901 -0.3334  0.0024 -0.4386
  279MOL0     C36745   7.099   2.162   0.801  0.7487  0.2103  0.4441
  279MOL0     N36746   7.834   2.259   0.415 -0.6531  0.5734 -0.9651
  279MOL0     N36747   7.949   2.201   0.457  0.0352 -0.2091 -0.3709
  279MOL0     C36748   8.939   2.591   0.698 -0.8725 -0.8172 -0.1604
  279MOL0     C36749   9.004   2.710   0.676 -0.3355 -0.0977 -0.0115
  279MOL0     C36750   9.045   3.172   0.550 -0.0230 -0.2164  0.7351
  279MOL0     C36751   9.179   3.164   0.501  0.3274 -0.1163  0.6767
  279MOL0     C36752   9.253   3.282   0.476 -0.4814 -0.2463 -0.2289
  279MOL0     C36753   9.212   3.411   0.492  0.0992 -0.5328  0.4518
  279MOL0     O36754   9.302   3.509   0.456  0.2426 -0.3772  0.3304
  279MOL0     C36755   9.265   3.635   0.507  0.4595  0.1003 -0.4272
  279MOL0     C36756   9.187   3.715   0.405  0.1472 -0.0950 -0.1530
  279MOL0     C36757   9.269   3.761   0.278  0.1922  0.0146 -0.2201
  279MOL0     C36758   9.231   3.900   0.233  0.2045 -0.3206  0.7785
  279MOL0     C36759   9.289   3.914   0.102  0.3804  0.1307  0.6491
  279MOL0     C36760   9.337   3.909  -0.008  0.2256 -0.6236  0.0649
  279MOL0     C36761   9.079   3.419   0.544 -0.1865  0.0219 -0.2447
  279MOL0     C36762   8.998   3.302   0.558 -0.3126  0.6198 -0.4611
  279MOL0     H36763   8.789   2.862   0.470 -5.5151 -3.7020 -1.8036
  279MOL0     H36764   8.642   2.664   0.533  1.9148 -0.2562 -3.6002
  279MOL0     H36765   8.554   2.489   0.627 -1.6388 -0.1228  0.8215
  279MOL0     H36766   8.577   2.518   0.793  1.6086  0.9987 -0.4222
  279MOL0     H36767   8.597   2.278   0.852 -0.9072 -1.4195  0.1619
  279MOL0     H36768   8.628   2.240   0.682  0.8632 -1.6825  2.5650
  279MOL0     H36769   8.390   2.285   0.632 -2.7368 -2.1564  0.3046
  279MOL0     H36770   8.368   2.350   0.796 -0.8063  1.1604 -0.9529
  279MOL0     H36771   8.451   2.071   0.721  1.3170 -0.6013  0.8056
  279MOL0     H36772   8.425   2.139   0.898  1.8680  3.3622 -0.9408
  279MOL0     H36773   8.184   2.147   0.836  0.3376  1.5098 -2.6961
  279MOL0     H36774   8.243   1.973   0.816 -0.3567 -0.6860  0.5895
  279MOL0     H36775   8.277   2.053   0.565  1.7258  0.8451  1.3629
  279MOL0     H36776   8.161   2.175   0.603  0.3683 -0.5753  1.3178
  279MOL0     H36777   8.131   1.882   0.660  0.6370 -0.0406  0.9962
  279MOL0     H36778   8.011   2.007   0.709  1.1852  3.6674 -1.0152
  279MOL0     H36779   7.967   1.868   0.505 -1.3175  1.4000 -0.2226
  279MOL0     H36780   8.095   1.960   0.417 -1.6494 -1.2481 -1.5168
  279MOL0     H36781   7.754   1.938   0.421  2.3860 -1.0191 -0.5651
  279MOL0     H36782   7.559   2.100   0.288  1.2148 -0.9306  0.5878
  279MOL0     H36783   7.596   2.271   0.307 -1.1658  0.1737 -0.2833
  279MOL0     H36784   7.493   2.299   0.505  0.1615 -1.3509  5.2825
  279MOL0     H36785   7.543   2.142   0.562  1.7217  1.2384  0.0617
  279MOL0     H36786   7.309   2.208   0.372 -0.5213  1.3307  2.4752
  279MOL0     H36787   7.370   2.041   0.404 -0.2539 -0.6976  1.1460
  279MOL0     H36788   7.333   2.192   0.643  0.1212 -1.1250  0.7851
  279MOL0     H36789   7.285   2.023   0.597 -2.7377 -1.7289 -1.5105
  279MOL0     H36790   6.962   2.354   0.555 -0.9341  0.9909  0.4730
  279MOL0     H36791   6.805   2.420   0.746  0.3975  0.9526 -2.0865
  279MOL0     H36792   6.625   2.197   1.188 -2.4913 -0.7276  1.1126
  279MOL0     H36793   6.428   2.216   1.316 -0.7857 -2.6735 -1.3307
  279MOL0     H36794   6.181   2.295   1.405  2.2468 -1.6328 -1.0074
  279MOL0     H36795   6.194   2.154   1.286 -0.7276 -1.1673 -1.0861
  279MOL0     H36796   5.969   2.214   1.212 -3.8156 -0.1077  2.3185
  279MOL0     H36797   5.963   2.346   1.337 -2.9752 -0.1318 -0.8871
  279MOL0     H36798   6.006   2.134   1.499  1.1828  0.6302 -0.9946
  279MOL0     H36799   5.924   2.053   1.373  0.3372  0.2250  0.0312
  279MOL0     H36800   5.753   2.252   1.384 -1.7438 -0.7134  1.5343
  279MOL0     H36801   5.742   2.127   1.497  0.6501 -0.7255  1.0657
  279MOL0     H36802   5.736   2.356   1.587  0.4666  2.4778 -1.2563
  279MOL0     H36803   5.905   2.376   1.554  0.5657  0.0592  1.3009
  279MOL0     H36804   5.980   2.219   1.727 -0.1299 -0.6365  2.1279
  279MOL0     H36805   5.811   2.158   1.739 -0.4634 -0.1181 -2.2809
  279MOL0     H36806   5.737   2.387   1.830  0.7115  0.4871  2.6924
  279MOL0     H36807   5.855   2.299   1.926  1.7537 -0.1731 -0.6250
  279MOL0     H36808   5.894   2.542   1.934  0.5374  1.4318 -0.5142
  279MOL0     H36809   5.931   2.542   1.759 -0.5692 -3.3355 -1.9125
  279MOL0     H36810   6.268   2.456   0.982  0.1292 -1.4715 -1.0972
  279MOL0     H36811   6.470   2.458   0.888 -0.7733 -0.1959  0.4968
  279MOL0     H36812   7.020   2.159   1.003 -0.7871  0.5227 -0.2420
  279MOL0     H36813   7.189   2.103   0.818  2.9836  3.0264 -0.6592
  279MOL0     H36814   8.996   2.519   0.755 -1.4774 -0.5457  0.8023
  279MOL0     H36815   9.104   2.730   0.714 -0.1634 -0.6237 -0.1839
  279MOL0     H36816   9.238   3.075   0.487  0.7228 -0.1730  2.4686
  279MOL0     H36817   9.351   3.262   0.435 -1.2511 -2.7364 -1.0592
  279MOL0     H36818   9.351   3.694   0.541  2.5879 -4.4025  3.0260
  279MOL0     H36819   9.209   3.619   0.600  0.8772  0.5692 -0.0890
  279MOL0     H36820   9.101   3.656   0.373  0.4296 -2.1890  2.5806
  279MOL0     H36821   9.137   3.788   0.470 -1.1096 -2.8116  2.1131
  279MOL0     H36822   9.235   3.685   0.207 -2.4195 -1.0210  1.9751
  279MOL0     H36823   9.378   3.757   0.292  0.4571 -0.9334 -2.1435
  279MOL0     H36824   9.124   3.914   0.219  0.3115 -1.0505 -0.9464
  279MOL0     H36825   9.263   3.993   0.281  0.8560 -0.0590 -0.1415
  279MOL0     H36826   9.375   3.902  -0.108 -2.1926 -2.1815 -0.8352
  279MOL0     H36827   9.040   3.516   0.572  4.6485  1.4367  2.6196
  279MOL0     H36828   8.901   3.341   0.588  1.5312  3.0511  3.0045
  280MOL0     O36829   9.498   5.124   1.245 -0.7490 -0.4100  0.3706
  280MOL0     C36830   9.534   5.241   1.268 -0.8323 -0.4989 -0.2989
  280MOL0     O36831   9.446   5.346   1.315  0.4721 -0.4430  0.6995
  280MOL0     C36832   9.306   5.338   1.318 -0.6103  0.6685 -0.6075
  280MOL0     C36833   9.227   5.222   1.305  0.0508 -0.0699  0.7466
  280MOL0     C36834   9.094   5.233   1.331 -0.3543  1.0096  0.2471
  280MOL0     C36835   9.024   5.350   1.350 -0.2719  0.2225  0.4751
  280MOL0     O36836   8.885   5.352   1.352  0.0778  0.0663 -0.6592
  280MOL0     C36837   8.794   5.235   1.345 -0.6666 -0.4142 -0.9643
  280MOL0     C36838   8.652   5.291   1.366 -0.4864  0.5038 -0.5765
  280MOL0     C36839   8.556   5.169   1.362 -0.2352 -0.7587  0.5524
  280MOL0     C36840   8.423   5.195   1.442  0.1116  0.5394  0.6348
  280MOL0     C36841   8.337   5.314   1.402 -0.3558  0.6353  0.3492
  280MOL0     C36842   8.294   5.311   1.253 -0.1419 -0.2022  0.2467
  280MOL0     C36843   8.144   5.366   1.247  0.0252  0.6195  0.0574
  280MOL0     C36844   8.038   5.257   1.261  0.2051  0.5824  0.2975
  280MOL0     N36845   8.021   5.208   1.400  0.5033  0.4211 -0.1967
  280MOL0     C36846   7.931   5.250   1.491  0.0633  0.1855 -0.0630
  280MOL0     C36847   7.910   5.156   1.587 -0.4074 -0.4978  0.1607
  280MOL0     C36848   7.822   5.162   1.707  0.4849  0.2914 -0.1428
  280MOL0     C36849   7.753   5.028   1.746 -0.6866 -0.4080  0.2568
  280MOL0     C36850   7.676   5.055   1.871 -0.3012 -0.7923 -0.1847
  280MOL0     C36851   7.604   4.934   1.921  0.2984 -0.3189 -0.2684
  280MOL0     O36852   7.503   4.883   1.823  0.4290 -0.2219  0.2204
  280MOL0     C36853   7.369   4.925   1.829 -0.0430 -0.0842 -0.2337
  280MOL0     C36854   7.319   5.040   1.894  0.2177  0.2082 -0.0473
  280MOL0     C36855   7.185   5.069   1.898 -0.3825 -0.6979  0.5601
  280MOL0     C36856   7.097   5.004   1.818 -0.5078  0.0621 -0.1802
  280MOL0     C36857   6.957   5.043   1.819  1.0976 -0.1915  0.5370
  280MOL0     O36858   6.869   4.947   1.772 -0.5879 -0.2602  0.0603
  280MOL0     C36859   6.737   4.977   1.759  0.0482  0.0406  0.3322
  280MOL0     C36860   6.641   4.889   1.811  0.1707  0.7554 -0.0713
  280MOL0     C36861   6.506   4.905   1.784  0.9072 -0.5053 -0.1665
  280MOL0     C36862   6.464   5.021   1.725 -1.0424  0.6095 -0.6954
  280MOL0     O36863   6.334   5.035   1.712  0.1238 -0.2958 -0.1256
  280MOL0     C36864   6.281   5.055   1.587  0.1560 -0.1992 -0.2525
  280MOL0     C36865   6.130   5.083   1.607  0.6053  0.5322  0.1239
  280MOL0     C36866   6.071   5.106   1.469  0.0809 -0.0281 -0.4543
  280MOL0     C36867   5.923   5.152   1.479 -0.2535 -0.8348  0.2627
  280MOL0     C36868   5.857   5.174   1.344 -0.1696  0.6107  0.0320
  280MOL0     C36869   5.738   5.271   1.344 -0.1003  0.5898 -1.4509
  280MOL0     C36870   5.683   5.296   1.205 -0.1366 -0.4712 -0.9441
  280MOL0     C36871   5.623   5.429   1.185  0.3231 -0.4752  0.4590
  280MOL0    Cl36872   5.654   5.462   1.012  0.1334 -0.1125  0.1381
  280MOL0     C36873   6.555   5.104   1.663 -0.0951 -0.3024  0.5286
  280MOL0     C36874   6.692   5.086   1.678  0.8696 -0.0447  0.7085
  280MOL0     O36875   6.923   5.147   1.876 -0.1017  0.0196 -0.1224
  280MOL0     C36876   7.144   4.881   1.753 -0.4582 -0.1873 -0.5639
  280MOL0     C36877   7.277   4.833   1.767 -0.6602 -0.8623  0.2194
  280MOL0     N36878   8.013   5.066   1.563 -0.0449 -0.0029 -0.1945
  280MOL0     N36879   8.076   5.100   1.456 -1.0000 -0.0815  0.1858
  280MOL0     C36880   9.100   5.462   1.354 -0.2296  0.6270 -0.7176
  280MOL0     C36881   9.243   5.457   1.334 -0.0815  0.0177 -0.0706
  280MOL0     C36882   9.672   5.294   1.257 -0.0191 -0.6303  0.9119
  280MOL0     C36883   9.768   5.212   1.204 -0.2006 -0.6084 -0.1280
  280MOL0     C36884   9.897   5.258   1.183 -0.3287 -0.0026 -0.6121
  280MOL0     C36885   9.939   5.390   1.212  0.4424  0.8051 -0.6853
  280MOL0     O36886  10.065   5.434   1.179  0.6164  0.0508  0.0038
  280MOL0     C36887  10.071   5.499   1.052  0.0996  0.6659 -0.8574
  280MOL0     C36888  10.158   5.422   0.956  0.0591  0.9106 -0.0592
  280MOL0     C36889  10.311   5.435   0.974 -0.2579 -0.3351  0.2280
  280MOL0     C36890  10.361   5.408   1.117  0.7176  0.2690  0.2601
  280MOL0     C36891  10.500   5.425   1.153 -0.1480 -0.2602 -0.1458
  280MOL0     C36892  10.613   5.430   1.183 -0.0352 -0.6156  0.5096
  280MOL0     C36893   9.837   5.483   1.253  0.3329 -1.2015  0.5769
  280MOL0     C36894   9.708   5.429   1.287  0.1139 -0.0371 -0.4077
  280MOL0     H36895   9.271   5.129   1.270  0.5311  0.4288 -0.0014
  280MOL0     H36896   9.035   5.142   1.326  1.3068 -0.4418  3.5819
  280MOL0     H36897   8.812   5.154   1.416 -0.9424  0.4833  0.1581
  280MOL0     H36898   8.795   5.197   1.243  0.3274 -1.7822 -0.4705
  280MOL0     H36899   8.635   5.366   1.288 -1.4137 -1.1481 -2.0364
  280MOL0     H36900   8.659   5.341   1.464  0.4903  1.3744 -1.0689
  280MOL0     H36901   8.602   5.072   1.386  0.2127 -0.4038  1.1340
  280MOL0     H36902   8.528   5.151   1.257  0.1752 -2.7915  0.7416
  280MOL0     H36903   8.362   5.104   1.447  0.8989 -0.0517 -0.1067
  280MOL0     H36904   8.454   5.208   1.546 -0.8136 -2.5476  1.4117
  280MOL0     H36905   8.387   5.406   1.433  2.1259  0.8291 -3.5460
  280MOL0     H36906   8.242   5.312   1.457 -2.3394  2.8891 -2.6667
  280MOL0     H36907   8.297   5.205   1.228  2.6630 -0.1575  0.0612
  280MOL0     H36908   8.358   5.376   1.192 -0.9200  1.1897  0.8518
  280MOL0     H36909   8.124   5.439   1.326  0.9510  0.1879  0.7113
  280MOL0     H36910   8.124   5.413   1.150 -2.8410  0.7610  0.6316
  280MOL0     H36911   8.058   5.174   1.192  1.6534  2.4499 -1.6443
  280MOL0     H36912   7.946   5.305   1.227  0.0666 -0.8388 -1.4612
  280MOL0     H36913   7.868   5.339   1.486  0.2703  0.3641  0.3907
  280MOL0     H36914   7.745   5.235   1.683  0.9329  1.3381  1.4894
  280MOL0     H36915   7.881   5.196   1.792 -0.5682  0.8146  0.3937
  280MOL0     H36916   7.830   4.953   1.765 -1.2278 -0.8501  0.7257
  280MOL0     H36917   7.696   4.997   1.658  0.6076  0.4061 -0.9182
  280MOL0     H36918   7.734   5.087   1.958 -2.0140  0.4333  0.5513
  280MOL0     H36919   7.603   5.134   1.850 -1.5229 -1.0976  2.5123
  280MOL0     H36920   7.543   4.969   2.005 -2.5670  0.6471 -2.5640
  280MOL0     H36921   7.680   4.862   1.953 -1.6689 -2.3883  0.0105
  280MOL0     H36922   7.384   5.094   1.962 -0.9045  1.9391 -0.2954
  280MOL0     H36923   7.146   5.152   1.956  2.5805  2.0799 -1.0500
  280MOL0     H36924   6.656   4.801   1.872 -2.1931 -3.4594 -4.7730
  280MOL0     H36925   6.437   4.830   1.821 -1.7812  2.4211  1.2410
  280MOL0     H36926   6.285   4.967   1.523 -0.1513  0.4052 -1.1286
  280MOL0     H36927   6.327   5.139   1.533  0.8791 -0.0233  0.6220
  280MOL0     H36928   6.118   5.172   1.670 -1.5439 -0.2156  0.8408
  280MOL0     H36929   6.087   4.995   1.653 -1.6644  1.3908 -0.2256
  280MOL0     H36930   6.083   5.025   1.397 -3.1914  0.4856 -1.7159
  280MOL0     H36931   6.120   5.196   1.430 -0.1501 -0.0083 -0.6953
  280MOL0     H36932   5.874   5.077   1.540  1.5752 -1.6052  0.8621
  280MOL0     H36933   5.913   5.252   1.522  4.1138  0.1769 -0.5533
  280MOL0     H36934   5.809   5.079   1.318  1.3515  0.0051 -0.7412
  280MOL0     H36935   5.939   5.199   1.275  1.6032  1.1155  2.2019
  280MOL0     H36936   5.780   5.364   1.383  0.8546 -0.2267 -0.4548
  280MOL0     H36937   5.661   5.222   1.404  1.4489 -0.7736 -0.4928
  280MOL0     H36938   5.767   5.284   1.136  1.3120  3.5995 -0.1682
  280MOL0     H36939   5.603   5.225   1.184 -0.4235 -0.2874 -0.4769
  280MOL0     H36940   5.684   5.496   1.247  0.9660  1.0063 -1.6794
  280MOL0     H36941   5.517   5.413   1.208  0.8093 -1.8949  1.8955
  280MOL0     H36942   6.524   5.187   1.600  0.9104 -0.0664  0.3304
  280MOL0     H36943   6.756   5.156   1.626  0.4395  0.1467  0.4314
  280MOL0     H36944   7.080   4.816   1.695 -1.9996  2.1751 -1.6227
  280MOL0     H36945   7.310   4.743   1.716  0.6280  0.1769 -0.8692
  280MOL0     H36946   9.054   5.560   1.354  0.8299  1.1479 -0.3386
  280MOL0     H36947   9.312   5.540   1.343 -1.0329  0.8804 -0.5236
  280MOL0     H36948   9.742   5.108   1.187 -1.3507 -0.2360 -0.7485
  280MOL0     H36949   9.978   5.197   1.147  1.4244 -0.1095  3.0189
  280MOL0     H36950  10.113   5.600   1.062  0.4652  0.4292  0.0641
  280MOL0     H36951   9.965   5.508   1.028 -0.6105 -1.8870  0.8890
  280MOL0     H36952  10.119   5.320   0.958  3.0109 -0.4168 -2.4402
  280MOL0     H36953  10.134   5.451   0.854 -2.5198 -0.8892 -0.0439
  280MOL0     H36954  10.337   5.535   0.938 -3.4836  0.5139 -0.0923
  280MOL0     H36955  10.353   5.358   0.909  0.9130  0.0334  0.5174
  280MOL0     H36956  10.301   5.482   1.170 -1.0769  0.2283 -1.5960
  280MOL0     H36957  10.328   5.306   1.136 -1.7475  1.0790  0.7467
  280MOL0     H36958  10.711   5.416   1.224  0.2928 -1.2593 -0.4785
  280MOL0     H36959   9.846   5.591   1.241 -0.9131 -0.8318  2.5186
  280MOL0     H36960   9.640   5.495   1.340  0.2580 -1.4401  1.6259
  281MOL0     O36961   0.396   1.622   1.523  0.2852  0.5281  1.0281
  281MOL0     C36962   0.360   1.675   1.419 -0.2202  0.0255 -0.5528
  281MOL0     O36963   0.399   1.652   1.294  0.8278  0.0612  0.3951
  281MOL0     C36964   0.502   1.569   1.266 -0.7069  0.4815 -0.3956
  281MOL0     C36965   0.572   1.591   1.152  0.4209 -0.8272  0.3729
  281MOL0     C36966   0.669   1.509   1.104 -0.0240 -0.6874 -0.1062
  281MOL0     C36967   0.710   1.394   1.174 -0.1409 -1.0975  0.5766
  281MOL0     O36968   0.817   1.326   1.112  0.5707  0.3526 -0.5770
  281MOL0     C36969   0.883   1.212   1.179  0.7677 -0.4313  0.2555
  281MOL0     C36970   0.814   1.079   1.143  0.1110 -0.1257  0.1090
  281MOL0     C36971   0.843   0.953   1.219 -1.1877  0.9495 -0.6387
  281MOL0     C36972   0.969   0.879   1.164 -0.0930  0.2719  0.2253
  281MOL0     C36973   1.034   0.787   1.268  0.4760 -0.2427 -0.3219
  281MOL0     C36974   1.177   0.749   1.237  0.0625 -0.0635  0.3909
  281MOL0     C36975   1.258   0.713   1.364 -0.2884 -0.0139  0.6902
  281MOL0     C36976   1.292   0.828   1.462  0.1427 -0.0131  0.5873
  281MOL0     N36977   1.290   0.788   1.600  0.2782  0.1432  0.4032
  281MOL0     C36978   1.319   0.671   1.656  0.3847  0.0101  0.1596
  281MOL0     C36979   1.365   0.706   1.782  0.3351 -0.1764  0.2438
  281MOL0     C36980   1.405   0.609   1.900  0.1777 -0.1993 -0.0796
  281MOL0     C36981   1.549   0.573   1.914 -0.5562  0.3845 -0.4088
  281MOL0     C36982   1.600   0.520   2.048 -0.2301  0.5039 -1.4300
  281MOL0     C36983   1.751   0.488   2.061 -0.8269 -1.0799 -0.3944
  281MOL0     O36984   1.778   0.453   2.205  0.2945  0.3032 -0.9567
  281MOL0     C36985   1.878   0.367   2.247  0.4693  0.2114  1.3780
  281MOL0     C36986   1.913   0.368   2.382 -0.4847  0.1726  0.4670
  281MOL0     C36987   1.999   0.275   2.440 -0.5166 -0.3226 -0.9274
  281MOL0     C36988   2.067   0.192   2.354  0.4166  0.3704  0.6991
  281MOL0     C36989   2.173   0.098   2.392  0.2162 -0.1103  0.2848
  281MOL0     O36990   2.249   0.124   2.501  0.0500 -0.3166  1.1367
  281MOL0     C36991   2.311   0.016   2.565 -0.7196 -0.2136  0.4928
  281MOL0     C36992   2.254  -0.110   2.591  0.5952  0.0259 -1.4229
  281MOL0     C36993   2.316  -0.203   2.672 -0.6192  0.1978 -0.2216
  281MOL0     C36994   2.457  -0.191   2.680 -0.6390 -0.8258 -0.4619
  281MOL0     O36995   2.536  -0.284   2.743 -0.2849 -0.3371 -0.0634
  281MOL0     C36996   2.648  -0.332   2.671  0.6271  0.0115  0.9903
  281MOL0     C36997   2.704  -0.439   2.761 -0.1734 -0.7270 -0.4576
  281MOL0     C36998   2.760  -0.379   2.893 -0.1389 -0.3843 -0.0443
  281MOL0     C36999   2.890  -0.295   2.870 -1.0247 -0.2090 -1.0467
  281MOL0     C37000   2.997  -0.323   2.967 -1.0591  0.6602  0.2688
  281MOL0     C37001   2.981  -0.282   3.114 -0.3622 -0.4075  0.6539
  281MOL0     C37002   3.079  -0.360   3.203 -0.4611  0.1176 -0.8787
  281MOL0     C37003   3.054  -0.516   3.236  0.6992  0.4773 -0.0294
  281MOL0    Cl37004   3.207  -0.588   3.299  0.2473 -0.2944  0.0659
  281MOL0     C37005   2.524  -0.071   2.642  1.0859  0.9938  0.1702
  281MOL0     C37006   2.453   0.031   2.582 -0.1786 -0.9260 -0.0502
  281MOL0     O37007   2.170  -0.007   2.333  0.1062 -0.6307  0.3466
  281MOL0     C37008   2.040   0.193   2.213 -0.2762  1.0098  0.0999
  281MOL0     C37009   1.942   0.275   2.158  0.3361 -0.0502 -0.6765
  281MOL0     N37010   1.367   0.841   1.798 -0.8127  0.4053  0.4730
  281MOL0     N37011   1.325   0.886   1.682 -0.2286  0.0064 -0.1068
  281MOL0     C37012   0.643   1.368   1.287 -0.3700 -0.1317 -0.3263
  281MOL0     C37013   0.539   1.450   1.327 -0.6338  0.0239 -0.9667
  281MOL0     C37014   0.251   1.771   1.427  0.5062  0.2412  0.3540
  281MOL0     C37015   0.210   1.821   1.551  0.1804  0.1790  1.0509
  281MOL0     C37016   0.121   1.928   1.565  0.6609 -0.0271 -0.6762
  281MOL0     C37017   0.073   1.992   1.454  1.4540 -0.6075 -0.8038
  281MOL0     O37018  -0.013   2.099   1.470  0.0542 -0.1858  0.0403
  281MOL0     C37019  -0.138   2.087   1.537  0.0855  0.4160  0.0070
  281MOL0     C37020  -0.237   2.021   1.433 -0.2194  0.0234 -0.6439
  281MOL0     C37021  -0.375   2.012   1.500 -0.2172 -0.0742  0.0810
  281MOL0     C37022  -0.394   1.911   1.626 -0.0933 -0.8710  0.9612
  281MOL0     C37023  -0.534   1.852   1.624 -0.7125 -0.0777  0.3680
  281MOL0     C37024  -0.651   1.832   1.598 -0.1100 -0.0118 -0.1377
  281MOL0     C37025   0.113   1.944   1.330  0.0138  1.3283  0.3124
  281MOL0     C37026   0.202   1.837   1.315 -0.0657 -0.8617 -0.1489
  281MOL0     H37027   0.536   1.676   1.095 -1.0791 -1.3029  0.5659
  281MOL0     H37028   0.724   1.542   1.016  0.9589 -3.0136 -0.4679
  281MOL0     H37029   0.886   1.228   1.287  1.6245  1.2271  0.0183
  281MOL0     H37030   0.989   1.211   1.152  0.1994 -0.1393 -2.1850
  281MOL0     H37031   0.842   1.062   1.038  0.7757  0.1338  0.2370
  281MOL0     H37032   0.706   1.091   1.151 -0.1758 -1.8291 -0.6932
  281MOL0     H37033   0.754   0.890   1.205 -1.9012  1.2265  2.0476
  281MOL0     H37034   0.851   0.966   1.328  1.8739 -1.7867 -0.3906
  281MOL0     H37035   0.955   0.824   1.071  1.9767 -0.0624  0.0595
  281MOL0     H37036   1.041   0.957   1.136 -2.0231  1.4200 -1.8838
  281MOL0     H37037   0.969   0.699   1.271  0.5860 -0.4139 -1.8763
  281MOL0     H37038   1.029   0.839   1.364  1.5487  0.1723 -0.4757
  281MOL0     H37039   1.226   0.825   1.176 -2.7370  0.8841 -0.7950
  281MOL0     H37040   1.166   0.666   1.167  2.4745  1.1260 -1.5373
  281MOL0     H37041   1.194   0.641   1.416 -0.8383  0.1222  0.2128
  281MOL0     H37042   1.354   0.670   1.332  1.8672  4.5368  0.2027
  281MOL0     H37043   1.235   0.918   1.439  2.1573  1.2318  0.2694
  281MOL0     H37044   1.392   0.859   1.432 -0.6977  1.2109 -1.0781
  281MOL0     H37045   1.295   0.574   1.613  1.3548  0.1182 -0.6485
  281MOL0     H37046   1.351   0.514   1.903  0.3944 -0.3131  0.2964
  281MOL0     H37047   1.403   0.664   1.995 -0.4387 -0.6536  0.1745
  281MOL0     H37048   1.609   0.662   1.890 -2.6089  2.2642  1.0334
  281MOL0     H37049   1.571   0.505   1.831 -1.1287 -0.9887  0.5252
  281MOL0     H37050   1.564   0.581   2.131  0.2499 -0.3783 -0.5489
  281MOL0     H37051   1.547   0.426   2.065  1.3949 -0.7423 -2.8698
  281MOL0     H37052   1.813   0.576   2.043 -0.2600 -1.1749  0.9766
  281MOL0     H37053   1.770   0.406   1.991 -2.5758  0.4054 -2.7351
  281MOL0     H37054   1.854   0.435   2.444 -0.8259  0.9920 -0.7163
  281MOL0     H37055   2.004   0.269   2.548 -1.2931  1.7868 -0.7295
  281MOL0     H37056   2.153  -0.133   2.557 -0.8489 -0.2984  2.5369
  281MOL0     H37057   2.266  -0.294   2.703  0.7579 -0.1193  1.2316
  281MOL0     H37058   2.727  -0.258   2.654  0.7180 -0.1526  0.6895
  281MOL0     H37059   2.612  -0.382   2.581  1.8034  0.0383  0.4904
  281MOL0     H37060   2.782  -0.496   2.709  1.0635  1.7936 -1.5842
  281MOL0     H37061   2.628  -0.510   2.794 -1.9040  1.6207  0.9915
  281MOL0     H37062   2.776  -0.458   2.967  4.8223 -2.0165 -2.3926
  281MOL0     H37063   2.682  -0.315   2.936  0.4746  0.2717  0.1032
  281MOL0     H37064   2.933  -0.307   2.770  1.3051 -1.0659 -0.0190
  281MOL0     H37065   2.860  -0.191   2.885 -0.7746 -0.4354  1.5024
  281MOL0     H37066   3.094  -0.285   2.933  0.1820 -2.9647 -0.8024
  281MOL0     H37067   3.016  -0.431   2.969 -0.1537  0.7702 -1.0275
  281MOL0     H37068   2.875  -0.300   3.136  0.3596 -1.8706  3.5115
  281MOL0     H37069   2.993  -0.174   3.122  1.1724 -0.3298 -1.6633
  281MOL0     H37070   3.176  -0.340   3.155 -0.5724 -1.0936 -1.6561
  281MOL0     H37071   3.087  -0.317   3.303  0.6169 -2.4847  0.2496
  281MOL0     H37072   3.007  -0.573   3.155  0.5340 -0.9316  1.0093
  281MOL0     H37073   2.986  -0.524   3.321  1.9328  4.0027  1.4503
  281MOL0     H37074   2.630  -0.067   2.665  1.4959  0.0953 -1.4216
  281MOL0     H37075   2.511   0.121   2.567  0.1974 -1.3475 -1.2075
  281MOL0     H37076   2.101   0.139   2.142 -1.3087 -1.4088  0.9335
  281MOL0     H37077   1.916   0.262   2.053 -0.4383 -1.0656 -0.3725
  281MOL0     H37078   0.673   1.288   1.353 -2.4775 -1.7554 -1.2263
  281MOL0     H37079   0.485   1.408   1.411  2.0074  0.2623  0.9911
  281MOL0     H37080   0.256   1.802   1.647  1.1668  0.8726  0.7364
  281MOL0     H37081   0.104   1.983   1.657 -0.5409 -1.2903 -0.1079
  281MOL0     H37082  -0.162   2.189   1.565  2.4782  1.1988 -0.5741
  281MOL0     H37083  -0.130   2.039   1.635 -0.5117  0.5709  0.1307
  281MOL0     H37084  -0.255   2.072   1.338 -2.9893 -1.1976 -0.8802
  281MOL0     H37085  -0.203   1.918   1.415 -2.8633 -0.9528 -0.5257
  281MOL0     H37086  -0.457   1.992   1.430 -2.4316  4.0573  1.1487
  281MOL0     H37087  -0.401   2.111   1.540 -0.7898  0.2350 -1.0114
  281MOL0     H37088  -0.312   1.838   1.629  1.7673  1.0837  0.2866
  281MOL0     H37089  -0.384   1.973   1.716 -1.0902  0.1682  0.3718
  281MOL0     H37090  -0.757   1.823   1.582 -0.5204  0.2470  2.1593
  281MOL0     H37091   0.067   1.992   1.244 -2.7511 -1.1929  0.2486
  281MOL0     H37092   0.229   1.815   1.213 -1.2175 -1.0098 -0.4383
  282MOL0     O37093   9.487   5.284   8.139  1.5278 -0.7583 -0.4299
  282MOL0     C37094   9.553   5.184   8.117 -0.4717  0.8393  0.0479
  282MOL0     O37095   9.581   5.131   7.992  0.2251 -0.1233 -0.2147
  282MOL0     C37096   9.517   5.182   7.883 -0.1746 -1.1206 -0.5283
  282MOL0     C37097   9.601   5.241   7.787  1.1388  0.3070  0.1463
  282MOL0     C37098   9.536   5.292   7.671 -0.2700 -0.5705 -0.9721
  282MOL0     C37099   9.393   5.297   7.661  0.2234  0.5148  0.1080
  282MOL0     O37100   9.338   5.329   7.536  0.5031 -0.2335 -0.8345
  282MOL0     C37101   9.194   5.336   7.532 -0.7739  0.1370 -0.1194
  282MOL0     C37102   9.148   5.400   7.405 -0.4908  0.4291  0.7814
  282MOL0     C37103   9.153   5.555   7.420 -0.1137 -0.5211  0.8053
  282MOL0     C37104   9.125   5.619   7.279 -0.7884 -0.2875  0.3295
  282MOL0     C37105   9.084   5.769   7.285  0.7881  0.4111  0.1040
  282MOL0     C37106   9.080   5.842   7.149  0.9436  0.0563 -0.3261
  282MOL0     C37107   9.029   5.992   7.176 -0.3763  0.6934 -0.3956
  282MOL0     C37108   9.044   6.080   7.049 -0.4082  0.1232 -0.0776
  282MOL0     N37109   8.999   6.216   7.069  0.4635  0.5735 -0.7184
  282MOL0     C37110   8.888   6.257   7.144 -1.0952 -0.4113  0.3203
  282MOL0     C37111   8.897   6.393   7.134 -0.2400  0.0752  0.0745
  282MOL0     C37112   8.792   6.503   7.179 -0.3001  0.6393  0.9937
  282MOL0     C37113   8.839   6.583   7.305 -0.5513 -1.2468 -0.2353
  282MOL0     C37114   8.721   6.686   7.338 -0.6121  0.4595 -0.8913
  282MOL0     C37115   8.598   6.614   7.399 -0.2944  0.5520  0.0013
  282MOL0     O37116   8.495   6.712   7.432 -0.4903  0.4286  0.2848
  282MOL0     C37117   8.407   6.745   7.336 -0.2950  0.1189  1.5941
  282MOL0     C37118   8.424   6.722   7.199 -0.7892 -0.6180 -0.2967
  282MOL0     C37119   8.323   6.752   7.100  0.3052  0.2443 -0.6916
  282MOL0     C37120   8.199   6.801   7.134 -0.3003  0.3473  0.0017
  282MOL0     C37121   8.085   6.841   7.040  0.6355  0.4199 -0.2079
  282MOL0     O37122   8.104   6.836   6.905 -0.3838  0.0258 -0.1577
  282MOL0     C37123   8.008   6.866   6.813 -0.5546 -0.3635 -0.5412
  282MOL0     C37124   8.056   6.926   6.693  0.8796 -0.1914  0.3429
  282MOL0     C37125   7.961   6.972   6.592 -0.4747 -0.6589 -0.4061
  282MOL0     C37126   7.821   6.946   6.602 -0.1300  0.5189  0.6856
  282MOL0     O37127   7.718   7.000   6.522 -0.6335  0.6680  0.0944
  282MOL0     C37128   7.762   7.081   6.412 -0.6336 -1.3844 -0.2513
  282MOL0     C37129   7.653   7.173   6.348 -0.5430  0.0092 -0.6525
  282MOL0     C37130   7.698   7.290   6.263  0.6043  0.3336 -0.3922
  282MOL0     C37131   7.571   7.366   6.210  0.6579  0.6005  0.3268
  282MOL0     C37132   7.623   7.458   6.090 -0.0306  0.3190 -0.4436
  282MOL0     C37133   7.508   7.544   6.044  0.3580 -0.0374 -0.4529
  282MOL0     C37134   7.560   7.644   5.942 -0.1374  0.3558 -0.1379
  282MOL0     C37135   7.443   7.728   5.893 -0.3024  0.3292 -0.6682
  282MOL0    Cl37136   7.301   7.632   5.832  0.2585  0.0716  0.6959
  282MOL0     C37137   7.785   6.888   6.727 -0.8000  0.4818 -1.8422
  282MOL0     C37138   7.875   6.846   6.823 -0.1992  0.5841  0.5388
  282MOL0     O37139   7.981   6.865   7.091  0.4325 -0.1237 -0.3662
  282MOL0     C37140   8.177   6.829   7.275 -0.7180  1.3656  0.0148
  282MOL0     C37141   8.280   6.789   7.367 -0.3349 -0.6968 -0.3892
  282MOL0     N37142   9.009   6.425   7.073 -0.8866 -0.4875  0.3089
  282MOL0     N37143   9.071   6.326   7.026 -0.0640 -0.0378 -0.5554
  282MOL0     C37144   9.309   5.241   7.760 -0.1128  0.2709 -0.5783
  282MOL0     C37145   9.373   5.190   7.875  0.0774  0.1234 -0.7313
  282MOL0     C37146   9.586   5.113   8.239  0.2275  0.5959 -0.2383
  282MOL0     C37147   9.573   5.173   8.367  0.9871 -0.5528  1.4559
  282MOL0     C37148   9.618   5.117   8.479  0.0294  0.8179  0.4016
  282MOL0     C37149   9.680   4.989   8.473  0.5885 -1.5663 -0.0153
  282MOL0     O37150   9.700   4.946   8.599 -0.6069  0.5922  0.1646
  282MOL0     C37151   9.785   4.828   8.630  0.2493 -1.3119  0.1535
  282MOL0     C37152   9.930   4.880   8.692  1.1066  0.6326  1.1316
  282MOL0     C37153  10.010   4.956   8.595  0.1852 -0.5459  0.1337
  282MOL0     C37154  10.134   5.008   8.658 -0.1764 -0.9522 -0.6035
  282MOL0     C37155  10.165   5.139   8.602  0.9651  1.1620  1.1870
  282MOL0     C37156  10.194   5.229   8.525  0.2427  0.1477  0.3436
  282MOL0     C37157   9.691   4.928   8.352 -0.0589  0.1684  0.8654
  282MOL0     C37158   9.647   4.987   8.231 -0.1973 -0.4197 -1.4643
  282MOL0     H37159   9.709   5.245   7.791  1.5051 -4.5457  0.0044
  282MOL0     H37160   9.610   5.326   7.600  2.7194  0.2099  2.2242
  282MOL0     H37161   9.149   5.395   7.613  1.5443  2.4781 -0.4074
  282MOL0     H37162   9.159   5.233   7.544  1.6031 -0.7636 -0.3896
  282MOL0     H37163   9.043   5.371   7.400 -0.6492  0.9503  0.9961
  282MOL0     H37164   9.218   5.365   7.329  2.3436  2.1283  2.4319
  282MOL0     H37165   9.251   5.595   7.449  0.2793  3.4350 -4.4907
  282MOL0     H37166   9.075   5.592   7.486 -0.2125  2.7593 -0.9521
  282MOL0     H37167   9.199   5.621   7.199 -1.8825  1.3954 -0.7042
  282MOL0     H37168   9.044   5.555   7.242 -0.3383  1.4041 -4.1387
  282MOL0     H37169   9.160   5.827   7.337 -0.5223  1.7389  0.5868
  282MOL0     H37170   8.984   5.782   7.328  1.6557  0.1723  2.3482
  282MOL0     H37171   9.001   5.794   7.091 -1.3333 -0.3148  2.7757
  282MOL0     H37172   9.181   5.837   7.110  1.2263  1.5232  0.1432
  282MOL0     H37173   8.933   6.001   7.227  0.1947 -0.6437  1.0071
  282MOL0     H37174   9.100   6.034   7.248 -1.3033 -0.6944  1.4230
  282MOL0     H37175   8.991   6.030   6.967  1.1569 -4.9643  1.6348
  282MOL0     H37176   9.150   6.084   7.023 -0.3503  2.3758  0.3043
  282MOL0     H37177   8.802   6.210   7.191  0.1616 -0.3999  2.7392
  282MOL0     H37178   8.701   6.444   7.194  0.4182 -0.6275  0.5577
  282MOL0     H37179   8.766   6.572   7.099  1.2845 -0.1193 -0.2335
  282MOL0     H37180   8.921   6.654   7.286  0.3297 -2.7074 -2.3873
  282MOL0     H37181   8.863   6.522   7.393 -0.0760  0.2682  0.7222
  282MOL0     H37182   8.759   6.760   7.409  0.3141 -1.6200  0.9088
  282MOL0     H37183   8.698   6.739   7.245 -1.4447 -1.5446 -1.8795
  282MOL0     H37184   8.618   6.564   7.495 -0.7962  0.8628  0.2675
  282MOL0     H37185   8.564   6.542   7.325 -0.8840 -1.6605  2.2929
  282MOL0     H37186   8.519   6.686   7.159 -0.2368 -1.5572  1.7316
  282MOL0     H37187   8.345   6.732   6.996 -2.7223 -0.0965 -1.3427
  282MOL0     H37188   8.164   6.938   6.680  0.8724 -1.1470 -0.6980
  282MOL0     H37189   8.006   7.024   6.508  2.4090 -1.2659  0.6408
  282MOL0     H37190   7.815   7.032   6.330 -1.1566 -0.1960 -1.3344
  282MOL0     H37191   7.822   7.154   6.466 -1.0968 -1.0102 -0.2368
  282MOL0     H37192   7.588   7.210   6.428 -1.8720 -1.2927 -1.0722
  282MOL0     H37193   7.595   7.093   6.301  0.2981 -1.1650  0.2261
  282MOL0     H37194   7.773   7.260   6.189  0.0066 -2.1283 -0.0668
  282MOL0     H37195   7.750   7.362   6.328 -0.7214  1.2101 -0.2607
  282MOL0     H37196   7.499   7.299   6.162  0.9060  0.3754  0.2655
  282MOL0     H37197   7.509   7.429   6.275 -1.7638  1.9712 -3.0542
  282MOL0     H37198   7.657   7.385   6.017 -0.0936 -1.4270  1.2137
  282MOL0     H37199   7.709   7.518   6.120 -1.5259  2.3530 -0.0074
  282MOL0     H37200   7.468   7.603   6.127 -1.4449 -3.9464  1.7077
  282MOL0     H37201   7.430   7.482   5.998 -1.9619  1.8756  0.6743
  282MOL0     H37202   7.630   7.708   5.997 -2.2555  2.3202  0.4378
  282MOL0     H37203   7.609   7.589   5.862  1.7500 -1.2961  2.0059
  282MOL0     H37204   7.479   7.804   5.824 -0.5852  2.8441  1.7725
  282MOL0     H37205   7.407   7.785   5.980 -4.9395  3.4234 -4.1114
  282MOL0     H37206   7.680   6.882   6.753 -0.0103  1.7513  2.6152
  282MOL0     H37207   7.841   6.793   6.912 -1.6890  2.1964  0.9973
  282MOL0     H37208   8.090   6.870   7.323  0.7739  3.2666  1.2265
  282MOL0     H37209   8.259   6.798   7.473  1.1145  1.9720 -0.2419
  282MOL0     H37210   9.202   5.228   7.754  0.0491 -1.4793 -0.4143
  282MOL0     H37211   9.319   5.128   7.946 -1.2793 -1.5813 -3.0709
  282MOL0     H37212   9.518   5.266   8.380 -1.7061 -1.7680 -0.2098
  282MOL0     H37213   9.593   5.170   8.570  0.7022 -1.2372  1.8628
  282MOL0     H37214   9.798   4.774   8.535  1.8644 -1.4448  0.4254
  282MOL0     H37215   9.734   4.766   8.704  0.1199 -2.2300 -0.6798
  282MOL0     H37216   9.889   4.939   8.775  1.9835  0.9419  1.3594
  282MOL0     H37217   9.973   4.789   8.734  1.8413 -0.8044 -2.4552
  282MOL0     H37218   9.944   5.034   8.554  0.2463 -0.6733 -0.2097
  282MOL0     H37219  10.028   4.877   8.522 -0.0793  0.9285 -1.6035
  282MOL0     H37220  10.129   5.000   8.767 -4.8590  0.6139 -0.5096
  282MOL0     H37221  10.216   4.946   8.619 -1.6925 -0.8557 -4.2962
  282MOL0     H37222  10.211   5.312   8.459 -1.2472 -0.2132 -0.5337
  282MOL0     H37223   9.740   4.831   8.355  0.6639  0.5158  3.6711
  282MOL0     H37224   9.657   4.943   8.132 -0.4893  0.7072 -2.0219
  283MOL0     O37225   7.735   1.749  10.822 -0.7239  0.6329 -0.1192
  283MOL0     C37226   7.720   1.864  10.859 -0.4184  0.8102 -0.4305
  283MOL0     O37227   7.605   1.913  10.921 -0.6178 -1.0394  1.1338
  283MOL0     C37228   7.491   1.838  10.932 -0.4913 -0.4531 -0.5085
  283MOL0     C37229   7.451   1.743  10.830  0.4911 -0.0263  0.5318
  283MOL0     C37230   7.325   1.678  10.845 -0.4497  0.8333 -0.2022
  283MOL0     C37231   7.246   1.698  10.954 -0.0027  0.3858  0.1658
  283MOL0     O37232   7.136   1.624  10.993 -0.0958 -0.3762 -0.5561
  283MOL0     C37233   7.096   1.498  10.938 -0.0136  0.2673 -0.0950
  283MOL0     C37234   6.984   1.440  11.028 -0.1598  0.0446  0.6113
  283MOL0     C37235   7.032   1.335  11.133 -0.5639  0.2928 -0.0819
  283MOL0     C37236   6.905   1.312  11.218 -0.5307 -0.5324 -0.3062
  283MOL0     C37237   6.947   1.242  11.355  0.0378  0.2517 -0.1750
  283MOL0     C37238   6.838   1.196  11.446 -0.3445 -0.6209  0.3395
  283MOL0     C37239   6.748   1.308  11.517 -0.1462 -0.2559  0.2061
  283MOL0     C37240   6.832   1.430  11.578  0.5887 -0.8013  0.9856
  283MOL0     N37241   6.922   1.386  11.691 -0.1201 -0.6567 -0.1062
  283MOL0     C37242   6.881   1.357  11.821  0.2504  0.2177 -0.0423
  283MOL0     C37243   6.998   1.351  11.895 -0.1475  0.6313 -0.9703
  283MOL0     C37244   7.028   1.350  12.041  0.3388  1.2389  0.8551
  283MOL0     C37245   7.028   1.210  12.097  0.7576  0.2824  1.2669
  283MOL0     C37246   7.051   1.209  12.248 -1.1365 -0.2022  1.0533
  283MOL0     C37247   6.996   1.087  12.305 -0.8541  0.0366 -0.1657
  283MOL0     O37248   7.082   0.975  12.270 -0.5986  0.0345 -0.3604
  283MOL0     C37249   7.117   0.904  12.380  0.4568 -0.0334  0.0163
  283MOL0     C37250   7.250   0.868  12.392 -0.8897 -0.8909 -0.9192
  283MOL0     C37251   7.294   0.793  12.503  0.0538  1.0456  0.1101
  283MOL0     C37252   7.201   0.766  12.613 -0.4033  0.9736  0.5247
  283MOL0     C37253   7.256   0.701  12.733  0.7589 -0.7429  0.0467
  283MOL0     O37254   7.162   0.666  12.828 -0.0700 -0.1650 -0.2422
  283MOL0     C37255   7.203   0.617  12.952  0.7115 -0.2176  0.8858
  283MOL0     C37256   7.260   0.706  13.047 -1.4246  0.2962  0.0936
  283MOL0     C37257   7.319   0.643  13.160  0.0345 -0.7089  0.4047
  283MOL0     C37258   7.310   0.506  13.188  0.6343  0.3734  1.0599
  283MOL0     O37259   7.348   0.461  13.314  0.1441 -0.7874  0.1374
  283MOL0     C37260   7.395   0.327  13.337 -0.4594 -0.9976  0.4852
  283MOL0     C37261   7.462   0.298  13.467 -1.0730  0.0634  0.0415
  283MOL0     C37262   7.563   0.413  13.492  0.5498 -0.8054 -0.3316
  283MOL0     C37263   7.645   0.367  13.615  0.0051 -0.1729 -0.3309
  283MOL0     C37264   7.773   0.434  13.640  0.1569  0.6916 -0.0220
  283MOL0     C37265   7.874   0.351  13.720 -1.3770 -0.1342 -0.0800
  283MOL0     C37266   7.848   0.363  13.867  0.0249 -0.2803 -0.3848
  283MOL0     C37267   7.977   0.352  13.947 -0.6891  0.1271  0.4908
  283MOL0    Cl37268   8.047   0.185  13.923  0.0862 -0.2763  0.0937
  283MOL0     C37269   7.257   0.424  13.091 -0.1936  0.3765 -0.6825
  283MOL0     C37270   7.200   0.477  12.976  0.1822  0.5317  0.4444
  283MOL0     O37271   7.378   0.683  12.745  0.5963 -0.2495 -0.2088
  283MOL0     C37272   7.065   0.809  12.595 -0.5430  0.4924 -0.5693
  283MOL0     C37273   7.024   0.864  12.477  0.9682 -0.0705  0.8945
  283MOL0     N37274   7.101   1.355  11.803 -0.3527  0.5039 -0.8962
  283MOL0     N37275   7.056   1.367  11.680  0.1701 -0.5173  0.1576
  283MOL0     C37276   7.282   1.793  11.047 -0.8793 -0.1305 -0.0790
  283MOL0     C37277   7.402   1.867  11.038  0.2699 -0.2303 -0.0110
  283MOL0     C37278   7.835   1.962  10.853  0.5726 -0.5714 -0.5532
  283MOL0     C37279   7.811   2.098  10.878 -0.4943 -0.6803 -0.1560
  283MOL0     C37280   7.912   2.189  10.892  0.0476  0.5469 -0.6230
  283MOL0     C37281   8.045   2.144  10.893  0.6760 -0.0576  0.4383
  283MOL0     O37282   8.140   2.234  10.928  0.2785  0.3898 -0.1073
  283MOL0     C37283   8.274   2.195  10.911  0.9823 -0.1249 -0.6444
  283MOL0     C37284   8.364   2.302  10.970  0.2413  0.8373 -0.2331
  283MOL0     C37285   8.335   2.331  11.123  0.1759  0.6121  0.5321
  283MOL0     C37286   8.413   2.453  11.166  0.0539  1.1807 -0.2972
  283MOL0     C37287   8.558   2.445  11.167  1.3653  0.1596  0.4465
  283MOL0     C37288   8.671   2.413  11.186 -0.2627  0.9816  0.5209
  283MOL0     C37289   8.071   2.003  10.867  0.5226 -0.1915  0.2799
  283MOL0     C37290   7.962   1.913  10.852 -1.1010  0.7609  0.2419
  283MOL0     H37291   7.510   1.715  10.743 -0.6575 -1.4810  0.1877
  283MOL0     H37292   7.298   1.604  10.771  1.7831 -2.0118  1.5895
  283MOL0     H37293   7.181   1.430  10.930 -0.2839 -0.0142 -0.6093
  283MOL0     H37294   7.071   1.517  10.833 -0.2205  0.2759 -0.0457
  283MOL0     H37295   6.917   1.383  10.963 -0.1585  0.2336  0.4446
  283MOL0     H37296   6.932   1.527  11.070  0.2147  1.1524 -1.1080
  283MOL0     H37297   7.109   1.375  11.200  0.1823  0.4695 -1.0248
  283MOL0     H37298   7.081   1.245  11.097 -1.2157 -0.3030  0.4880
  283MOL0     H37299   6.869   1.412  11.246  1.1564 -0.3220  1.3645
  283MOL0     H37300   6.832   1.259  11.158  0.7768 -3.3881  0.4444
  283MOL0     H37301   7.004   1.324  11.401 -1.5985  0.8448  0.9124
  283MOL0     H37302   7.007   1.152  11.344  0.0226 -0.1688  2.4511
  283MOL0     H37303   6.887   1.140  11.527 -1.0710 -0.5100  0.8682
  283MOL0     H37304   6.781   1.119  11.393  0.4327  0.3873 -2.1286
  283MOL0     H37305   6.682   1.356  11.444  1.5249 -0.4022 -1.4985
  283MOL0     H37306   6.693   1.255  11.596 -0.7638 -0.0212 -0.0628
  283MOL0     H37307   6.768   1.503  11.629  0.1775 -0.6137  0.2130
  283MOL0     H37308   6.879   1.480  11.493 -1.3155  0.9786  0.8980
  283MOL0     H37309   6.781   1.365  11.864  0.5859  0.0666  0.7937
  283MOL0     H37310   6.945   1.403  12.088 -1.7303 -0.3871 -0.7446
  283MOL0     H37311   7.121   1.405  12.055  0.7795  0.7948 -0.1866
  283MOL0     H37312   7.102   1.143  12.054  0.5499  0.1787  1.0683
  283MOL0     H37313   6.935   1.159  12.070  1.3715 -0.5057  0.6018
  283MOL0     H37314   7.158   1.203  12.270 -1.2038  2.3385  2.3959
  283MOL0     H37315   7.012   1.301  12.291  0.0707  1.5503 -1.3804
  283MOL0     H37316   6.894   1.073  12.268 -0.2126 -4.1094 -0.8559
  283MOL0     H37317   7.002   1.110  12.412  0.2180 -1.8317  0.2194
  283MOL0     H37318   7.324   0.899  12.318  0.3913 -1.8988 -0.1123
  283MOL0     H37319   7.394   0.753  12.518  1.2539  2.2627 -3.4689
  283MOL0     H37320   7.279   0.812  13.032  0.1239  0.0045 -0.2857
  283MOL0     H37321   7.362   0.712  13.232  0.1888 -0.0071 -0.3426
  283MOL0     H37322   7.460   0.307  13.251  0.9695  5.6155 -0.4838
  283MOL0     H37323   7.303   0.268  13.332 -1.1025  0.0605 -0.8518
  283MOL0     H37324   7.506   0.198  13.473  0.0223  0.4305 -1.2679
  283MOL0     H37325   7.391   0.299  13.551  3.0103  1.3181  3.8893
  283MOL0     H37326   7.510   0.505  13.517 -0.6726 -1.5266 -0.1754
  283MOL0     H37327   7.627   0.432  13.406  0.9579  0.4279  0.2167
  283MOL0     H37328   7.597   0.397  13.708  4.8348  0.7639  2.1922
  283MOL0     H37329   7.664   0.259  13.607 -0.3610 -0.2169 -0.6188
  283MOL0     H37330   7.753   0.520  13.704  3.0592 -2.3864  5.8199
  283MOL0     H37331   7.823   0.463  13.547 -0.0270  1.3657  0.0830
  283MOL0     H37332   7.972   0.388  13.687 -3.2215  4.8115 -0.8035
  283MOL0     H37333   7.866   0.250  13.680  0.0860  1.1186 -4.0235
  283MOL0     H37334   7.807   0.459  13.901  1.9354 -0.5113  3.0196
  283MOL0     H37335   7.780   0.284  13.899  0.0676  0.2967  1.2188
  283MOL0     H37336   7.951   0.359  14.053  1.0535 -0.6736  1.0077
  283MOL0     H37337   8.052   0.430  13.935 -2.2846  2.1213  2.5143
  283MOL0     H37338   7.258   0.320  13.120 -0.4338  0.5152 -0.1653
  283MOL0     H37339   7.147   0.424  12.897  0.7850  1.3464 -0.5330
  283MOL0     H37340   6.985   0.791  12.667  0.2267  0.2383  0.2432
  283MOL0     H37341   6.918   0.886  12.468  0.1423 -3.0439  2.2259
  283MOL0     H37342   7.217   1.818  11.130  3.6282  1.0801  3.4880
  283MOL0     H37343   7.424   1.955  11.097 -0.4847  0.3869 -0.6205
  283MOL0     H37344   7.707   2.127  10.878 -0.6033 -1.0190  0.8720
  283MOL0     H37345   7.893   2.292  10.921 -0.5672  1.0041 -2.5410
  283MOL0     H37346   8.304   2.176  10.808 -2.3972 -0.5157 -1.6563
  283MOL0     H37347   8.288   2.105  10.972 -1.3867 -0.0351  0.1247
  283MOL0     H37348   8.461   2.254  10.961 -1.0521 -2.4737  1.5614
  283MOL0     H37349   8.352   2.391  10.908 -0.0363  0.0312 -1.3697
  283MOL0     H37350   8.367   2.250  11.187  0.5959  0.1765 -0.2125
  283MOL0     H37351   8.226   2.341  11.128 -0.1817 -0.8839 -2.0461
  283MOL0     H37352   8.394   2.537  11.098  0.5063  1.1348 -0.4833
  283MOL0     H37353   8.397   2.486  11.269  2.0343 -0.0376  0.4492
  283MOL0     H37354   8.772   2.376  11.191 -0.6935 -0.4504 -0.7861
  283MOL0     H37355   8.171   1.962  10.862  0.8543  0.4937  1.1690
  283MOL0     H37356   8.002   1.812  10.848  3.3794  2.3042 -0.5390
  284MOL0     O37357   9.930   9.863   7.693 -0.0070 -0.0097 -0.4525
  284MOL0     C37358   9.891   9.758   7.641  0.6724  1.2510 -0.2251
  284MOL0     O37359   9.966   9.682   7.551  0.0587  0.2766  1.0058
  284MOL0     C37360  10.097   9.715   7.527 -0.3808 -0.2923 -0.0531
  284MOL0     C37361  10.179   9.601   7.501  0.2103  0.3804  0.5621
  284MOL0     C37362  10.311   9.615   7.457 -0.3241  0.3272  0.2800
  284MOL0     C37363  10.367   9.743   7.448 -0.2994  0.4078  1.0185
  284MOL0     O37364  10.482   9.760   7.381 -0.5734 -0.0029 -0.0037
  284MOL0     C37365  10.595   9.767   7.461  0.0521  1.2583  0.3753
  284MOL0     C37366  10.707   9.687   7.397  0.3803 -0.6098 -0.1070
  284MOL0     C37367  10.694   9.537   7.438 -0.2889 -0.6636 -0.3053
  284MOL0     C37368  10.813   9.451   7.404  0.4743  0.4835 -0.3096
  284MOL0     C37369  10.931   9.462   7.510  0.6236  0.2378 -0.0532
  284MOL0     C37370  11.061   9.409   7.452 -0.6201 -0.6094  0.5656
  284MOL0     C37371  11.163   9.399   7.560  0.1256  0.3304  0.4377
  284MOL0     C37372  11.138   9.301   7.669  0.3420  0.7418 -0.9556
  284MOL0     N37373  11.250   9.302   7.755 -0.1869 -0.4822 -0.2644
  284MOL0     C37374  11.323   9.187   7.799  0.4954  0.8890  0.9255
  284MOL0     C37375  11.393   9.239   7.900  0.0904  0.4326  0.1043
  284MOL0     C37376  11.499   9.157   7.983 -0.1861 -0.4100 -0.6846
  284MOL0     C37377  11.484   9.002   7.984 -0.0310  0.9304  0.3203
  284MOL0     C37378  11.559   8.931   8.090  0.3952  0.4274  0.1540
  284MOL0     C37379  11.525   8.779   8.086 -0.5604  0.1412 -0.5610
  284MOL0     O37380  11.598   8.728   8.199  0.7929  0.1474 -0.3873
  284MOL0     C37381  11.572   8.599   8.247  0.2093 -0.1794  0.7542
  284MOL0     C37382  11.495   8.499   8.191  0.1100  0.1403 -0.3838
  284MOL0     C37383  11.478   8.372   8.258 -0.6356 -0.3849  1.7599
  284MOL0     C37384  11.558   8.351   8.369  0.0829 -0.1891  0.2344
  284MOL0     C37385  11.561   8.210   8.425  1.2023 -0.1859 -1.4420
  284MOL0     O37386  11.641   8.188   8.531  0.4446 -0.2109 -0.2794
  284MOL0     C37387  11.669   8.081   8.603  0.8054  0.0019  0.1149
  284MOL0     C37388  11.773   8.093   8.693 -0.0793 -0.0372 -0.1175
  284MOL0     C37389  11.797   7.993   8.786 -0.1983  0.0497 -0.0463
  284MOL0     C37390  11.743   7.864   8.763 -0.2543  0.5136 -0.2852
  284MOL0     O37391  11.780   7.748   8.831 -0.4164 -0.4975 -1.0838
  284MOL0     C37392  11.835   7.761   8.966 -1.0332 -0.4719 -0.4838
  284MOL0     C37393  11.845   7.618   9.019  0.0298  0.2863  0.2396
  284MOL0     C37394  11.897   7.609   9.172  0.4301 -0.1725 -0.5308
  284MOL0     C37395  11.904   7.460   9.221  0.8476 -0.1207 -0.9830
  284MOL0     C37396  11.766   7.393   9.225 -0.2758  1.0186  0.2104
  284MOL0     C37397  11.770   7.241   9.261  0.1027 -0.4224  0.3552
  284MOL0     C37398  11.838   7.149   9.167 -0.4658  0.4690  0.9260
  284MOL0     C37399  11.756   7.022   9.144  0.3653  0.8952 -0.4231
  284MOL0    Cl37400  11.802   6.926   9.013 -0.1578  0.0879 -0.1047
  284MOL0     C37401  11.653   7.844   8.658 -0.6075 -0.1312 -0.1845
  284MOL0     C37402  11.618   7.953   8.583 -0.2515  0.1538  0.4125
  284MOL0     O37403  11.515   8.128   8.356  0.3202 -0.4383 -0.3462
  284MOL0     C37404  11.637   8.451   8.430 -1.1923  0.6803 -0.2808
  284MOL0     C37405  11.641   8.580   8.370 -0.6866  0.4406 -0.4419
  284MOL0     N37406  11.370   9.375   7.925 -0.3508  0.4205 -0.3037
  284MOL0     N37407  11.274   9.404   7.840 -0.1438 -0.4223 -0.0112
  284MOL0     C37408  10.286   9.859   7.487 -0.6866  0.3827  1.6369
  284MOL0     C37409  10.155   9.845   7.524  0.4343  0.4849  0.8507
  284MOL0     C37410   9.756   9.709   7.671 -0.1058  0.3887  0.6692
  284MOL0     C37411   9.685   9.775   7.780 -0.0331 -0.1970 -0.3054
  284MOL0     C37412   9.551   9.735   7.809 -0.4580  0.1053  0.1065
  284MOL0     C37413   9.500   9.618   7.754 -0.0428 -0.1995 -0.7469
  284MOL0     O37414   9.368   9.573   7.780 -0.1560 -1.1954 -0.6745
  284MOL0     C37415   9.297   9.631   7.892 -0.1901 -0.1698  0.4395
  284MOL0     C37416   9.235   9.770   7.859 -0.4794 -0.2393  0.6428
  284MOL0     C37417   9.226   9.851   7.993  0.0151 -0.3369  0.9605
  284MOL0     C37418   9.203  10.000   7.978 -0.2946 -0.1566 -0.8217
  284MOL0     C37419   9.078  10.033   7.912 -0.4086 -0.8476 -0.5724
  284MOL0     C37420   8.994  10.058   7.830  0.1172 -0.3925 -0.2746
  284MOL0     C37421   9.570   9.563   7.650 -0.1173 -0.4929  0.0711
  284MOL0     C37422   9.697   9.603   7.600  1.1145  0.7747 -0.4822
  284MOL0     H37423  10.140   9.501   7.515 -3.9812  2.1294  3.9567
  284MOL0     H37424  10.369   9.534   7.413  0.2827  0.8551  0.0880
  284MOL0     H37425  10.574   9.729   7.562 -1.3568  0.9970  0.0062
  284MOL0     H37426  10.637   9.867   7.474  0.9516  0.6057  3.5904
  284MOL0     H37427  10.799   9.740   7.425 -0.2046  1.0792 -1.2037
  284MOL0     H37428  10.692   9.689   7.289  0.9625 -2.1820 -0.2494
  284MOL0     H37429  10.612   9.494   7.381  0.1695 -2.6523  0.4168
  284MOL0     H37430  10.675   9.522   7.545  1.5908 -4.7420 -0.3195
  284MOL0     H37431  10.786   9.346   7.388  2.3296  0.5096 -5.0252
  284MOL0     H37432  10.839   9.486   7.304  1.7679  0.9361  0.1577
  284MOL0     H37433  10.904   9.397   7.594 -2.7551  0.9941 -0.4260
  284MOL0     H37434  10.944   9.564   7.549 -2.7386  0.3323  1.1370
  284MOL0     H37435  11.101   9.476   7.376  0.1777 -0.3720  1.1787
  284MOL0     H37436  11.043   9.312   7.404  0.2177  1.0789 -3.5039
  284MOL0     H37437  11.259   9.392   7.508  1.1458 -1.2319  2.3969
  284MOL0     H37438  11.170   9.494   7.615 -2.5042  1.7192 -1.4138
  284MOL0     H37439  11.132   9.200   7.628  2.2738 -0.3671  1.3038
  284MOL0     H37440  11.042   9.317   7.720 -0.7088  0.5738 -2.7560
  284MOL0     H37441  11.338   9.086   7.761  1.7999  0.7955  1.6099
  284MOL0     H37442  11.482   9.188   8.086 -1.6551  0.2333 -1.0882
  284MOL0     H37443  11.600   9.188   7.956 -0.1854  2.8399  2.2755
  284MOL0     H37444  11.524   8.961   7.891 -3.0722 -0.4419 -0.5033
  284MOL0     H37445  11.379   8.974   7.991  0.2956 -1.1440 -1.8978
  284MOL0     H37446  11.663   8.954   8.066  0.2054 -0.8250 -2.2517
  284MOL0     H37447  11.542   8.976   8.188 -0.6293  2.5271 -0.9205
  284MOL0     H37448  11.562   8.725   7.998  1.3027 -0.2359  0.4070
  284MOL0     H37449  11.417   8.768   8.079 -0.5318  0.4817 -1.6084
  284MOL0     H37450  11.455   8.523   8.093  2.8966  1.6819 -1.2657
  284MOL0     H37451  11.408   8.301   8.214 -1.3707  1.8384 -0.9224
  284MOL0     H37452  11.812   8.195   8.691  1.5950 -0.6458 -1.6347
  284MOL0     H37453  11.881   8.003   8.854 -1.2543  0.2580  1.2559
  284MOL0     H37454  11.772   7.830   9.021 -2.0270 -0.1658 -1.9540
  284MOL0     H37455  11.939   7.795   8.960 -0.3962 -1.5537  2.7146
  284MOL0     H37456  11.903   7.560   8.946  0.7755  0.5597  0.6032
  284MOL0     H37457  11.740   7.587   9.023  0.1827 -0.2461  0.2143
  284MOL0     H37458  11.852   7.679   9.243  2.0660 -0.8642  1.2874
  284MOL0     H37459  11.998   7.644   9.150  0.6256 -1.1543 -1.2698
  284MOL0     H37460  11.984   7.417   9.159  0.4543  1.0228 -2.3466
  284MOL0     H37461  11.957   7.453   9.316  2.6486  0.0343 -1.9225
  284MOL0     H37462  11.720   7.400   9.126  0.7430 -1.0242 -0.4538
  284MOL0     H37463  11.699   7.446   9.294  1.1833  2.3860  0.6308
  284MOL0     H37464  11.664   7.214   9.270 -0.2903  0.7318 -0.5741
  284MOL0     H37465  11.812   7.228   9.361  1.0172  2.1050  0.3522
  284MOL0     H37466  11.857   7.192   9.069 -1.3704 -2.6072 -0.7452
  284MOL0     H37467  11.931   7.122   9.217  0.1572 -1.4988 -1.1148
  284MOL0     H37468  11.647   7.028   9.154  0.4467 -0.1962  2.1796
  284MOL0     H37469  11.776   6.964   9.235 -2.8195  1.8303  1.0317
  284MOL0     H37470  11.610   7.748   8.632 -2.0550  0.2379  0.7380
  284MOL0     H37471  11.541   7.943   8.508 -1.4190  0.5763  1.5247
  284MOL0     H37472  11.702   8.443   8.517 -0.5183  1.4679 -0.7000
  284MOL0     H37473  11.697   8.666   8.406 -1.2578  0.9650 -0.7972
  284MOL0     H37474  10.329   9.958   7.475  0.0541  0.3588  3.7046
  284MOL0     H37475  10.101   9.938   7.532 -2.4075 -0.8325 -1.2210
  284MOL0     H37476   9.740   9.857   7.825  0.6129  0.4614 -2.1882
  284MOL0     H37477   9.495   9.790   7.884 -1.2080 -0.1295 -0.2676
  284MOL0     H37478   9.365   9.655   7.975  0.6395 -1.5218  0.1854
  284MOL0     H37479   9.220   9.561   7.926  1.2192 -1.5327  0.9844
  284MOL0     H37480   9.296   9.827   7.788 -2.2993 -1.9855 -2.5752
  284MOL0     H37481   9.136   9.763   7.812 -0.3441 -0.0716  0.3317
  284MOL0     H37482   9.317   9.850   8.054 -0.2529  2.6737  1.5397
  284MOL0     H37483   9.150   9.796   8.049 -0.9070 -1.3817 -1.1902
  284MOL0     H37484   9.208  10.041   8.080  1.8547  2.1504 -1.7556
  284MOL0     H37485   9.291  10.046   7.932  0.0299  0.1452  0.0718
  284MOL0     H37486   8.924  10.088   7.754  1.9390  0.4565 -1.7022
  284MOL0     H37487   9.508   9.490   7.600 -2.3126  2.4134 -1.7452
  284MOL0     H37488   9.737   9.539   7.522  0.2135 -0.7957  0.2852
  285MOL0     O37489   8.767  11.127   3.233  1.1939  0.8928 -0.4937
  285MOL0     C37490   8.656  11.159   3.274 -0.5059  0.9247 -0.8993
  285MOL0     O37491   8.535  11.132   3.215  0.0855 -0.4416  0.0386
  285MOL0     C37492   8.540  11.065   3.097  0.6699  0.7394  0.3309
  285MOL0     C37493   8.575  11.124   2.977  0.0346 -0.4405  0.2329
  285MOL0     C37494   8.567  11.061   2.860 -0.0579  0.7223  0.7010
  285MOL0     C37495   8.507  10.928   2.845  0.5723  0.4438  0.1442
  285MOL0     O37496   8.510  10.882   2.723  0.2088  0.2752 -0.1313
  285MOL0     C37497   8.470  10.752   2.700  0.3236  0.3068  0.5607
  285MOL0     C37498   8.452  10.718   2.545  0.2537 -0.1967  0.6608
  285MOL0     C37499   8.407  10.575   2.538 -0.7096 -0.4256  0.3714
  285MOL0     C37500   8.423  10.514   2.393  0.3163 -0.5712 -0.3054
  285MOL0     C37501   8.353  10.373   2.378 -0.5667 -1.1234 -0.1664
  285MOL0     C37502   8.199  10.381   2.385  0.1280  0.6442 -0.4828
  285MOL0     C37503   8.131  10.425   2.256  0.4857 -0.1394  1.3588
  285MOL0     C37504   7.993  10.364   2.244 -0.3205 -0.8805 -0.4022
  285MOL0     N37505   8.007  10.239   2.179 -0.1831  0.3620 -0.5619
  285MOL0     C37506   7.960  10.207   2.055 -0.2498 -0.0334  0.3690
  285MOL0     C37507   7.968  10.072   2.043 -0.2167  0.4908 -0.5622
  285MOL0     C37508   7.922   9.993   1.929 -0.2566 -0.3723 -0.5311
  285MOL0     C37509   7.775   9.952   1.940  0.1800 -0.0673  0.0423
  285MOL0     C37510   7.763   9.874   1.805 -1.1357  0.6304 -0.6222
  285MOL0     C37511   7.619   9.812   1.784 -0.0655 -1.0889  0.0378
  285MOL0     O37512   7.591   9.714   1.878 -0.8663  0.0778  0.0795
  285MOL0     C37513   7.488   9.634   1.840  0.6110  0.1979  0.6404
  285MOL0     C37514   7.488   9.505   1.890  0.3461  0.1193 -0.1665
  285MOL0     C37515   7.399   9.407   1.856  0.4486 -0.5289 -0.1643
  285MOL0     C37516   7.295   9.446   1.768 -0.2694  0.2945  0.6424
  285MOL0     C37517   7.199   9.345   1.725 -0.0622  0.9788 -0.1186
  285MOL0     O37518   7.081   9.409   1.702  0.7068  0.3108 -0.5841
  285MOL0     C37519   6.964   9.331   1.672 -0.6027 -0.4297  0.6458
  285MOL0     C37520   6.961   9.216   1.580 -0.2779 -0.1134  0.7417
  285MOL0     C37521   6.828   9.169   1.540  0.4589  0.0391 -0.2166
  285MOL0     C37522   6.710   9.214   1.612  0.0779 -0.1021  0.5844
  285MOL0     O37523   6.583   9.173   1.581  0.6218  0.0527  0.3127
  285MOL0     C37524   6.552   9.141   1.447  0.8682 -0.4117  0.2936
  285MOL0     C37525   6.402   9.150   1.440  0.2580 -1.1588  0.0317
  285MOL0     C37526   6.349   9.093   1.303 -0.0623 -0.2614 -0.2954
  285MOL0     C37527   6.195   9.072   1.311 -0.3897  0.0971  0.1895
  285MOL0     C37528   6.134   8.991   1.191  0.0752 -0.3181  0.6230
  285MOL0     C37529   6.190   8.845   1.161  0.0300 -0.9756 -0.9331
  285MOL0     C37530   6.141   8.755   1.275  0.0020 -0.2539  0.8207
  285MOL0     C37531   6.111   8.617   1.233 -1.0617  0.7333 -0.1336
  285MOL0    Cl37532   6.075   8.516   1.370 -0.2026 -0.4027  0.3583
  285MOL0     C37533   6.726   9.305   1.715 -1.1137 -0.5430  0.8428
  285MOL0     C37534   6.852   9.367   1.741  0.0630 -0.2429  0.5196
  285MOL0     O37535   7.216   9.226   1.742  0.0799  0.0963 -0.1793
  285MOL0     C37536   7.280   9.575   1.718 -0.4886  1.4914  0.0820
  285MOL0     C37537   7.370   9.665   1.759 -0.5267 -0.6076  0.3940
  285MOL0     N37538   8.048  10.024   2.146 -0.0401 -0.1277  0.2497
  285MOL0     N37539   8.065  10.127   2.227 -0.3323 -0.5632 -0.3500
  285MOL0     C37540   8.484  10.859   2.960 -0.4177 -0.2553 -0.4497
  285MOL0     C37541   8.505  10.928   3.087 -0.3980 -0.6998 -0.0799
  285MOL0     C37542   8.637  11.219   3.412  0.0164 -0.0875 -0.2080
  285MOL0     C37543   8.732  11.205   3.510  0.3810  0.3229  0.0328
  285MOL0     C37544   8.716  11.265   3.637  0.8632 -0.2933 -0.1156
  285MOL0     C37545   8.598  11.336   3.668  0.2780 -0.9785 -0.9294
  285MOL0     O37546   8.585  11.379   3.796  0.3908  0.1040  0.0111
  285MOL0     C37547   8.481  11.471   3.826 -0.2647 -1.0874  0.9016
  285MOL0     C37548   8.456  11.501   3.974  0.2756 -0.4457 -0.5611
  285MOL0     C37549   8.576  11.549   4.057  0.0512  0.0867 -0.1353
  285MOL0     C37550   8.658  11.658   3.992  0.2237  0.3331 -0.0524
  285MOL0     C37551   8.587  11.785   3.960 -0.1573 -0.1023 -0.3258
  285MOL0     C37552   8.514  11.873   3.920 -0.6647 -0.0881 -0.4694
  285MOL0     C37553   8.504  11.346   3.569 -0.4907 -0.3385  0.3136
  285MOL0     C37554   8.520  11.290   3.445 -0.9744 -0.4989 -0.2597
  285MOL0     H37555   8.604  11.229   2.979  0.4557 -0.5499  2.3173
  285MOL0     H37556   8.600  11.103   2.766  4.0253 -2.0346  0.6717
  285MOL0     H37557   8.369  10.746   2.743 -0.4922  1.0418 -1.1609
  285MOL0     H37558   8.538  10.676   2.740 -2.9028 -3.0398  0.2193
  285MOL0     H37559   8.543  10.743   2.490 -0.3797  2.2655  0.6172
  285MOL0     H37560   8.370  10.782   2.510  0.6869  0.6159  1.1075
  285MOL0     H37561   8.311  10.551   2.585  0.2059 -3.2619  0.9977
  285MOL0     H37562   8.478  10.522   2.602  0.0875  0.5947  0.3524
  285MOL0     H37563   8.373  10.565   2.311 -0.0050 -1.9370 -0.9972
  285MOL0     H37564   8.532  10.503   2.386  0.8527  2.4932  1.5456
  285MOL0     H37565   8.401  10.308   2.452 -2.9353 -2.4264  0.3233
  285MOL0     H37566   8.369  10.318   2.284  0.3030 -1.2296  0.0329
  285MOL0     H37567   8.172  10.455   2.461 -2.1050 -0.9263  0.3626
  285MOL0     H37568   8.163  10.282   2.414  0.1394  0.3388 -1.4577
  285MOL0     H37569   8.125  10.532   2.237 -2.8871 -0.0187  2.3263
  285MOL0     H37570   8.188  10.378   2.175  0.2780  0.6464  0.7499
  285MOL0     H37571   7.928  10.432   2.189 -0.5710 -1.1737 -0.4677
  285MOL0     H37572   7.957  10.361   2.347  2.9289 -1.9535  0.8572
  285MOL0     H37573   7.911  10.278   1.988  0.4326 -1.1904 -1.4422
  285MOL0     H37574   7.994   9.911   1.918  0.8673  0.3999  0.7931
  285MOL0     H37575   7.932  10.065   1.847 -1.4188  1.9479  1.2694
  285MOL0     H37576   7.713  10.042   1.945 -0.6529 -0.5709 -0.8375
  285MOL0     H37577   7.753   9.884   2.023 -1.6903 -0.6705 -0.8891
  285MOL0     H37578   7.793   9.933   1.718 -0.8787 -0.3371 -1.2098
  285MOL0     H37579   7.838   9.795   1.814 -2.0245  0.0439  3.7294
  285MOL0     H37580   7.600   9.761   1.689 -2.7781 -2.0168  0.9808
  285MOL0     H37581   7.547   9.895   1.783 -0.7240 -1.6564 -0.5629
  285MOL0     H37582   7.575   9.472   1.945 -0.3839 -0.1975  0.8161
  285MOL0     H37583   7.415   9.306   1.893  1.5351 -0.6348 -0.8943
  285MOL0     H37584   7.043   9.177   1.520  0.2190 -0.4831  1.6281
  285MOL0     H37585   6.819   9.090   1.466  2.0870  2.3405 -3.0519
  285MOL0     H37586   6.589   9.039   1.431  2.5359 -0.5500  4.0478
  285MOL0     H37587   6.606   9.206   1.378 -0.0899  0.4079  0.3053
  285MOL0     H37588   6.379   9.255   1.463  3.0226 -0.4102 -0.3415
  285MOL0     H37589   6.360   9.084   1.517 -0.0584 -1.0149 -0.0148
  285MOL0     H37590   6.399   8.999   1.279 -2.0810 -2.4118  3.0526
  285MOL0     H37591   6.370   9.162   1.220 -2.1542 -1.4978 -1.9633
  285MOL0     H37592   6.171   9.023   1.405  0.9909  1.1651  1.1430
  285MOL0     H37593   6.150   9.172   1.316 -1.8498 -0.5584  0.6405
  285MOL0     H37594   6.143   9.054   1.101 -3.8061 -0.0956  0.2143
  285MOL0     H37595   6.029   8.975   1.216  0.6280 -0.6365  2.9402
  285MOL0     H37596   6.296   8.823   1.146  0.5117  0.9079 -0.5658
  285MOL0     H37597   6.138   8.816   1.070  0.5168 -1.4621 -1.0614
  285MOL0     H37598   6.225   8.749   1.345 -0.0833 -1.8843  0.8192
  285MOL0     H37599   6.051   8.788   1.327  0.5277  0.5114  1.2801
  285MOL0     H37600   6.196   8.579   1.174 -0.6096  2.2890 -0.5337
  285MOL0     H37601   6.023   8.626   1.169  1.6578  0.0468 -4.3687
  285MOL0     H37602   6.649   9.345   1.780  0.3389  4.0490  0.1104
  285MOL0     H37603   6.867   9.445   1.815 -0.1854  1.5196 -1.2399
  285MOL0     H37604   7.205   9.594   1.641 -1.2887 -0.8258  0.2148
  285MOL0     H37605   7.365   9.766   1.720 -0.8709 -0.5213  0.6613
  285MOL0     H37606   8.446  10.757   2.962  1.4247 -0.9746  0.5441
  285MOL0     H37607   8.487  10.873   3.178 -1.0907 -4.7133 -2.3950
  285MOL0     H37608   8.822  11.152   3.479  1.6595  1.2716  1.9566
  285MOL0     H37609   8.776  11.257   3.727 -2.4530  1.2554  2.4762
  285MOL0     H37610   8.387  11.437   3.783  1.3788 -2.5433 -1.8233
  285MOL0     H37611   8.513  11.560   3.771  2.4899 -1.2064  2.1296
  285MOL0     H37612   8.389  11.587   3.988  0.5778 -0.3220  0.1825
  285MOL0     H37613   8.404  11.415   4.017 -3.6201  1.8380 -0.1958
  285MOL0     H37614   8.644  11.464   4.068  2.1865  1.5047 -1.6972
  285MOL0     H37615   8.541  11.590   4.152  1.5897  3.6956 -0.9596
  285MOL0     H37616   8.742  11.686   4.057 -0.6961  0.5553  1.0560
  285MOL0     H37617   8.702  11.634   3.894 -3.1616  0.2675 -1.6879
  285MOL0     H37618   8.453  11.943   3.867  1.8113  1.3893 -1.5377
  285MOL0     H37619   8.411  11.401   3.572  1.6263  3.5073  1.1424
  285MOL0     H37620   8.447  11.311   3.368 -0.8519  0.5288 -0.1129
  286MOL0     O37621   4.221   3.119  10.049  0.3480  0.2202  0.5328
  286MOL0     C37622   4.260   3.187  10.143 -0.5812  0.3468 -0.0362
  286MOL0     O37623   4.282   3.145  10.269 -0.4727  0.3094  0.6923
  286MOL0     C37624   4.246   3.017  10.310  0.7429  0.3059 -0.2149
  286MOL0     C37625   4.263   2.893  10.249  0.1310 -0.2143  0.7642
  286MOL0     C37626   4.243   2.774  10.308  0.8411  0.5565  0.2837
  286MOL0     C37627   4.181   2.769  10.437 -0.4952  0.0829  1.2101
  286MOL0     O37628   4.142   2.644  10.491 -0.6419 -0.5451 -0.2848
  286MOL0     C37629   4.219   2.532  10.463  0.1950 -0.2569 -0.0782
  286MOL0     C37630   4.370   2.538  10.496  0.1486 -0.1623 -0.5490
  286MOL0     C37631   4.444   2.415  10.512 -0.2072  0.4852 -0.1520
  286MOL0     C37632   4.583   2.435  10.568  0.1827  0.4942 -0.9163
  286MOL0     C37633   4.599   2.492  10.711  0.0037 -0.2269  0.4582
  286MOL0     C37634   4.513   2.427  10.826  0.9351 -0.1883 -0.4790
  286MOL0     C37635   4.510   2.491  10.963  0.3024  0.0554 -0.7157
  286MOL0     C37636   4.453   2.629  10.976 -0.3885 -0.5588  0.0336
  286MOL0     N37637   4.305   2.602  10.968 -0.4116 -0.0254 -0.1655
  286MOL0     C37638   4.217   2.643  10.861 -0.4118  0.8338  0.4074
  286MOL0     C37639   4.099   2.594  10.911 -0.2223 -0.0380  0.4706
  286MOL0     C37640   3.968   2.583  10.835 -0.6072  0.0703  0.9037
  286MOL0     C37641   3.854   2.525  10.930 -1.1909 -0.5566  0.1895
  286MOL0     C37642   3.834   2.375  10.910  0.2228 -0.1547  0.0916
  286MOL0     C37643   3.739   2.327  11.021  0.0302  0.3081 -0.6113
  286MOL0     O37644   3.694   2.192  11.000 -0.0156  0.5327 -0.2244
  286MOL0     C37645   3.614   2.160  10.896  0.5256  0.3059 -0.3949
  286MOL0     C37646   3.552   2.259  10.814 -0.2930 -0.5565  0.0369
  286MOL0     C37647   3.460   2.212  10.717  1.0911  0.2835  0.0704
  286MOL0     C37648   3.436   2.073  10.696  0.5561 -1.0275 -0.3216
  286MOL0     C37649   3.330   2.029  10.610  0.5045  0.0465  0.0128
  286MOL0     O37650   3.237   2.112  10.562  0.6134  0.0865 -0.7979
  286MOL0     C37651   3.126   2.066  10.494  0.5406  0.3508  0.8786
  286MOL0     C37652   3.031   1.972  10.542 -0.5586 -1.4185  0.5784
  286MOL0     C37653   2.923   1.934  10.461 -0.9318  0.8486  0.3778
  286MOL0     C37654   2.889   1.993  10.336 -0.9882  0.8954  0.2008
  286MOL0     O37655   2.787   1.959  10.248 -0.2979 -0.3662 -0.0768
  286MOL0     C37656   2.737   1.830  10.244  0.1172  1.0731  0.5739
  286MOL0     C37657   2.590   1.822  10.287  0.0687 -0.5204  0.0738
  286MOL0     C37658   2.506   1.778  10.147  0.7957 -0.7371  0.0518
  286MOL0     C37659   2.368   1.736  10.185  0.3111 -0.7472  0.3787
  286MOL0     C37660   2.278   1.726  10.063  0.0826  0.4919 -0.6324
  286MOL0     C37661   2.130   1.742  10.077 -0.1686 -1.3940 -0.8565
  286MOL0     C37662   2.051   1.713   9.948 -0.0525  0.2215 -0.3368
  286MOL0     C37663   1.898   1.715   9.967 -0.3966  0.1128 -0.5140
  286MOL0    Cl37664   1.847   1.571  10.054 -0.7810 -0.2628  0.3437
  286MOL0     C37665   2.979   2.094  10.294 -0.1167  0.6673 -0.4708
  286MOL0     C37666   3.097   2.130  10.366  0.9449  0.5637  0.1946
  286MOL0     O37667   3.338   1.913  10.579  0.1711  0.7440 -0.1048
  286MOL0     C37668   3.516   1.980  10.770  0.0089  0.2425  0.5527
  286MOL0     C37669   3.594   2.024  10.881 -0.7470 -0.7923  0.9322
  286MOL0     N37670   4.112   2.563  11.046  0.4918 -0.0397 -0.0306
  286MOL0     N37671   4.230   2.573  11.077  0.2137  0.2824  1.5885
  286MOL0     C37672   4.152   2.885  10.504  0.0081 -0.2297  0.3309
  286MOL0     C37673   4.182   3.010  10.439 -0.7725  0.6085  0.5166
  286MOL0     C37674   4.305   3.321  10.111 -0.0917 -0.1525  1.0966
  286MOL0     C37675   4.260   3.381   9.988 -1.1386  0.2433  0.0500
  286MOL0     C37676   4.304   3.500   9.946  0.2138  1.0097  0.7427
  286MOL0     C37677   4.403   3.573  10.020  0.7087  0.4815 -0.6789
  286MOL0     O37678   4.451   3.700  10.004 -0.1715  0.1639 -0.4083
  286MOL0     C37679   4.408   3.772   9.886 -0.9199  0.3760  0.0510
  286MOL0     C37680   4.499   3.892   9.855  0.0344 -0.8897  0.5068
  286MOL0     C37681   4.455   3.933   9.715 -0.6193  0.3210  0.3214
  286MOL0     C37682   4.512   4.072   9.675  0.1407  0.0770  0.1817
  286MOL0     C37683   4.451   4.177   9.751 -0.5077 -0.6946 -0.1230
  286MOL0     C37684   4.414   4.263   9.830  0.7342 -0.4552  0.1163
  286MOL0     C37685   4.457   3.506  10.129  0.8217 -0.5008  0.2497
  286MOL0     C37686   4.400   3.392  10.182 -0.1920  0.5850 -0.9966
  286MOL0     H37687   4.312   2.891  10.152 -2.1598 -1.8297 -0.4640
  286MOL0     H37688   4.262   2.684  10.251  2.6471  2.4301 -2.2733
  286MOL0     H37689   4.208   2.515  10.356  2.7067  1.1239 -0.6329
  286MOL0     H37690   4.170   2.451  10.517  2.1274 -1.4002  0.0587
  286MOL0     H37691   4.375   2.590  10.592  1.1645  3.9360 -2.5985
  286MOL0     H37692   4.424   2.609  10.432  1.9101  2.5846  3.5131
  286MOL0     H37693   4.448   2.371  10.412  1.4723  1.3478 -0.5032
  286MOL0     H37694   4.387   2.362  10.589 -0.8669  2.2758  0.6440
  286MOL0     H37695   4.627   2.335  10.571 -0.3597  0.2626  0.4164
  286MOL0     H37696   4.638   2.494  10.495  0.1737 -2.8204 -3.8386
  286MOL0     H37697   4.565   2.596  10.705 -0.3770 -0.3296  0.7754
  286MOL0     H37698   4.707   2.492  10.727  0.2657  0.6486 -1.1256
  286MOL0     H37699   4.546   2.324  10.835  2.0881  0.3528  4.3580
  286MOL0     H37700   4.411   2.419  10.787  2.4531 -0.9417 -4.7864
  286MOL0     H37701   4.456   2.428  11.034  0.5807  1.4370  0.7832
  286MOL0     H37702   4.614   2.493  10.999 -0.4805 -1.0437  1.8510
  286MOL0     H37703   4.484   2.698  10.898 -2.9443  1.2445  0.4783
  286MOL0     H37704   4.468   2.673  11.075  1.4708  0.8709 -0.8388
  286MOL0     H37705   4.250   2.685  10.766  3.5204  0.4264  1.4214
  286MOL0     H37706   3.980   2.520  10.745  1.1348  1.3801  0.1467
  286MOL0     H37707   3.929   2.680  10.806  0.2533 -0.2475 -1.6440
  286MOL0     H37708   3.759   2.575  10.908 -1.1040 -0.9962 -1.3127
  286MOL0     H37709   3.872   2.555  11.033 -1.2350  4.6090 -1.0516
  286MOL0     H37710   3.800   2.349  10.809 -0.0334  0.3570  0.0377
  286MOL0     H37711   3.927   2.320  10.920 -0.1481 -1.3247 -2.2891
  286MOL0     H37712   3.645   2.383  11.027 -0.1152 -0.0464  1.0437
  286MOL0     H37713   3.786   2.330  11.120 -1.2368 -1.4436  0.0972
  286MOL0     H37714   3.566   2.367  10.820 -0.4135 -0.4496 -1.1784
  286MOL0     H37715   3.409   2.282  10.652 -0.3087 -1.2942 -0.5785
  286MOL0     H37716   3.042   1.919  10.636  0.6283 -0.4355  1.0326
  286MOL0     H37717   2.870   1.850  10.504 -1.6335  0.2253 -1.6013
  286MOL0     H37718   2.796   1.757  10.301  0.3689 -1.7468 -2.9816
  286MOL0     H37719   2.743   1.790  10.143  2.2172 -0.1500  1.1275
  286MOL0     H37720   2.553   1.919  10.321 -1.5096  0.3331 -3.5464
  286MOL0     H37721   2.568   1.747  10.364 -1.1775 -1.3397 -1.0189
  286MOL0     H37722   2.557   1.704  10.085  2.1919 -1.2002  1.6782
  286MOL0     H37723   2.501   1.870  10.087 -1.7144 -0.2760  0.8585
  286MOL0     H37724   2.349   1.647  10.245  0.5945 -0.2126  1.2950
  286MOL0     H37725   2.330   1.820  10.246  1.7377  1.8318 -2.0492
  286MOL0     H37726   2.298   1.623  10.031 -1.9224 -1.1555  2.8981
  286MOL0     H37727   2.313   1.802   9.992 -1.1369  0.8876 -0.8282
  286MOL0     H37728   2.113   1.846  10.105 -1.1119 -2.0949  1.4093
  286MOL0     H37729   2.101   1.680  10.163  4.0801 -0.2468  1.6756
  286MOL0     H37730   2.093   1.785   9.878 -1.8892  2.8351  1.0819
  286MOL0     H37731   2.067   1.606   9.928 -5.2176 -2.0080  4.4969
  286MOL0     H37732   1.846   1.735   9.874 -2.4460  0.4114  0.6502
  286MOL0     H37733   1.879   1.800  10.033 -0.1516 -0.4430  0.2920
  286MOL0     H37734   2.957   2.132  10.195 -1.8253 -4.0319 -2.1225
  286MOL0     H37735   3.167   2.201  10.323  0.9299  0.0523 -0.6878
  286MOL0     H37736   3.502   1.874  10.757  2.6608 -0.0108 -1.1562
  286MOL0     H37737   3.655   1.968  10.951 -1.2498 -0.5178  1.6022
  286MOL0     H37738   4.113   2.870  10.604 -1.7312 -4.1435 -0.7050
  286MOL0     H37739   4.198   3.101  10.497  0.5215  0.4274  0.4824
  286MOL0     H37740   4.201   3.314   9.926  0.9305 -1.8932  0.2565
  286MOL0     H37741   4.257   3.539   9.856 -0.0731 -1.2419 -0.1392
  286MOL0     H37742   4.305   3.799   9.913 -1.0431 -1.3075  1.4154
  286MOL0     H37743   4.415   3.708   9.798  1.1437  1.5106 -0.6804
  286MOL0     H37744   4.494   3.974   9.928 -3.1443  0.6382 -1.2249
  286MOL0     H37745   4.605   3.867   9.849  0.0246 -0.6037 -1.7205
  286MOL0     H37746   4.346   3.933   9.713 -0.6612 -2.4756 -1.4840
  286MOL0     H37747   4.488   3.860   9.641 -1.1735  0.2728  0.1173
  286MOL0     H37748   4.620   4.070   9.688  0.4250  2.3323 -1.2211
  286MOL0     H37749   4.483   4.086   9.570  0.6799 -0.3400 -0.0233
  286MOL0     H37750   4.357   4.329   9.891 -0.8509  0.3127 -2.0730
  286MOL0     H37751   4.527   3.560  10.193 -1.3559  0.2627  2.1205
  286MOL0     H37752   4.437   3.352  10.276 -1.5554 -1.7845 -1.3772
  287MOL0     O37753  10.174   7.006  10.059  0.0384 -0.1938  0.4767
  287MOL0     C37754  10.124   7.072  10.149 -0.0739  0.0950 -0.4847
  287MOL0     O37755   9.990   7.082  10.174 -0.5965  0.0530  0.7003
  287MOL0     C37756   9.903   7.015  10.096  0.1520 -0.5828  0.1362
  287MOL0     C37757   9.905   6.883  10.060 -0.1457 -0.4768  0.6607
  287MOL0     C37758   9.796   6.822  10.003  0.8681 -0.1599 -0.7755
  287MOL0     C37759   9.687   6.895   9.961 -0.6295 -0.6698  0.2082
  287MOL0     O37760   9.593   6.821   9.888  0.0704  0.6921 -0.3399
  287MOL0     C37761   9.462   6.878   9.894 -1.0451 -0.1215 -0.8502
  287MOL0     C37762   9.361   6.798   9.818  1.2040 -0.3784 -0.4225
  287MOL0     C37763   9.226   6.876   9.809  0.4519  0.1247  0.1540
  287MOL0     C37764   9.140   6.798   9.715 -0.1303 -0.1039  1.2020
  287MOL0     C37765   8.983   6.836   9.719  0.3950 -0.5678  0.1571
  287MOL0     C37766   8.893   6.728   9.651  0.4101 -0.2125  0.5226
  287MOL0     C37767   8.741   6.763   9.649  0.6110 -0.7514 -0.4599
  287MOL0     C37768   8.669   6.661   9.573 -0.0452  0.2961  0.0472
  287MOL0     N37769   8.610   6.562   9.665  0.6221 -1.1350  0.5944
  287MOL0     C37770   8.479   6.564   9.711 -0.0047 -0.1910 -0.1265
  287MOL0     C37771   8.477   6.466   9.805 -0.0319  0.3262 -0.4698
  287MOL0     C37772   8.370   6.437   9.907 -0.0944 -0.3213  0.3562
  287MOL0     C37773   8.236   6.414   9.841 -0.2263  0.2740 -0.3092
  287MOL0     C37774   8.193   6.269   9.806 -1.1645  0.4089 -0.2052
  287MOL0     C37775   8.050   6.270   9.737 -0.0658 -0.4049 -0.5786
  287MOL0     O37776   7.998   6.406   9.709  0.2745 -0.8510 -0.1289
  287MOL0     C37777   7.858   6.424   9.713  0.0643 -0.0749 -0.7506
  287MOL0     C37778   7.803   6.547   9.753 -0.0034  0.0185  0.2211
  287MOL0     C37779   7.660   6.564   9.745 -0.1488 -0.3171 -0.8474
  287MOL0     C37780   7.577   6.472   9.693 -0.4050  0.2153 -0.4710
  287MOL0     C37781   7.435   6.503   9.681 -0.0595  0.1295 -0.1993
  287MOL0     O37782   7.395   6.628   9.692 -0.8612  0.3606  0.1837
  287MOL0     C37783   7.262   6.669   9.684  0.0782 -0.4740 -0.6477
  287MOL0     C37784   7.167   6.616   9.590 -0.4658  0.8807 -0.8835
  287MOL0     C37785   7.039   6.665   9.582 -0.4083  0.0300  0.0421
  287MOL0     C37786   6.996   6.766   9.676 -0.6178  0.0615  0.5631
  287MOL0     O37787   6.862   6.799   9.687 -0.1200 -0.3855  0.5281
  287MOL0     C37788   6.841   6.933   9.694  0.6900 -0.4600  0.4733
  287MOL0     C37789   6.724   6.977   9.609  0.7730 -0.3327 -0.1739
  287MOL0     C37790   6.602   6.872   9.604 -0.2657 -0.2507 -0.6159
  287MOL0     C37791   6.535   6.836   9.742 -0.1259 -0.5814 -0.1496
  287MOL0     C37792   6.415   6.733   9.714  0.1450  0.7270  0.0548
  287MOL0     C37793   6.291   6.761   9.810 -0.4773 -0.9074 -0.8004
  287MOL0     C37794   6.188   6.848   9.737  0.6303 -0.9688 -0.2761
  287MOL0     C37795   6.082   6.886   9.839  0.3772  0.1470 -0.2530
  287MOL0    Cl37796   5.962   6.963   9.734  0.1678 -0.0357 -0.3919
  287MOL0     C37797   7.088   6.828   9.761  0.4449  0.8330 -0.2989
  287MOL0     C37798   7.219   6.781   9.763  0.3566  0.0816  0.2016
  287MOL0     O37799   7.367   6.413   9.640  0.1177 -0.9286  0.2369
  287MOL0     C37800   7.627   6.341   9.665 -0.4594 -0.0561  0.1399
  287MOL0     C37801   7.766   6.322   9.675  0.7128  0.7938 -0.4390
  287MOL0     N37802   8.592   6.388   9.799 -0.9730 -0.5463  1.2511
  287MOL0     N37803   8.670   6.444   9.705  1.1437  1.1520 -0.4104
  287MOL0     C37804   9.679   7.039   9.989 -0.8718 -0.3005 -0.0569
  287MOL0     C37805   9.792   7.093  10.049  0.7648 -0.7949 -0.1906
  287MOL0     C37806  10.221   7.135  10.244  0.4988  0.7165  0.4315
  287MOL0     C37807  10.354   7.145  10.216  0.6121 -0.5949  0.3761
  287MOL0     C37808  10.442   7.203  10.309  0.3489  0.2453 -0.4814
  287MOL0     C37809  10.389   7.258  10.425  0.9572 -0.3844 -0.8318
  287MOL0     O37810  10.483   7.329  10.499 -0.4520 -0.0431  0.2512
  287MOL0     C37811  10.431   7.429  10.583 -0.1769 -0.6219 -0.6634
  287MOL0     C37812  10.544   7.534  10.602 -0.0613 -0.4116  0.0104
  287MOL0     C37813  10.513   7.620  10.728  0.0766  0.6016  0.7641
  287MOL0     C37814  10.559   7.554  10.862  0.7734 -0.3125 -0.3588
  287MOL0     C37815  10.516   7.645  10.964  0.4605  0.6697  0.1310
  287MOL0     C37816  10.463   7.705  11.060 -0.0699  0.1131  0.7969
  287MOL0     C37817  10.254   7.247  10.454 -0.5212  0.0387  0.2990
  287MOL0     C37818  10.171   7.180  10.369 -0.3423  0.1393  0.4885
  287MOL0     H37819   9.980   6.810  10.088 -1.6535 -2.4182 -0.1817
  287MOL0     H37820   9.803   6.714   9.994  2.0511  0.0755 -3.6699
  287MOL0     H37821   9.463   6.978   9.850  2.6730  0.3631 -0.0056
  287MOL0     H37822   9.428   6.886   9.998  0.8296  1.0714 -0.2666
  287MOL0     H37823   9.349   6.695   9.855 -0.8010 -1.1482 -2.9315
  287MOL0     H37824   9.412   6.787   9.722  1.5709 -0.9531 -0.1696
  287MOL0     H37825   9.235   6.971   9.755  1.2754 -0.9795 -1.7496
  287MOL0     H37826   9.176   6.891   9.905 -1.4384  1.0996 -0.9221
  287MOL0     H37827   9.172   6.811   9.611 -1.8224  0.1426  0.6696
  287MOL0     H37828   9.155   6.690   9.726  1.8802 -0.2406 -1.6958
  287MOL0     H37829   8.968   6.925   9.656 -2.4654 -1.4311 -0.5152
  287MOL0     H37830   8.938   6.852   9.818  0.8778 -0.7514  0.4073
  287MOL0     H37831   8.902   6.634   9.705 -1.5629  0.4902  2.2196
  287MOL0     H37832   8.923   6.723   9.546 -0.2987 -1.3020  0.3557
  287MOL0     H37833   8.711   6.781   9.752  2.6629  1.2276 -0.1342
  287MOL0     H37834   8.735   6.862   9.603  1.0323 -0.4575  0.1003
  287MOL0     H37835   8.739   6.608   9.508 -0.0750  0.0859  0.1841
  287MOL0     H37836   8.592   6.704   9.507 -0.6528 -0.9605 -0.0920
  287MOL0     H37837   8.393   6.626   9.688 -0.5779 -0.0983  1.9964
  287MOL0     H37838   8.359   6.528   9.968  2.1915 -0.3455  0.9032
  287MOL0     H37839   8.384   6.351   9.973 -2.1128 -0.9772 -0.0075
  287MOL0     H37840   8.240   6.479   9.753  3.2968  3.5588  1.9651
  287MOL0     H37841   8.167   6.457   9.914  0.1786  2.2145 -0.9942
  287MOL0     H37842   8.266   6.222   9.740 -0.0270  2.2392 -0.3169
  287MOL0     H37843   8.179   6.216   9.900  4.2924  1.7616  1.7889
  287MOL0     H37844   7.983   6.219   9.807  0.3354  2.0741  1.7727
  287MOL0     H37845   8.046   6.208   9.647  0.2693 -1.1629 -0.0802
  287MOL0     H37846   7.861   6.637   9.771 -2.2893  1.6661 -0.1357
  287MOL0     H37847   7.631   6.663   9.778 -0.5804 -0.2127 -1.5166
  287MOL0     H37848   7.187   6.548   9.509 -4.4440 -0.6849 -0.7368
  287MOL0     H37849   6.964   6.632   9.510  1.0606  1.1764 -2.1504
  287MOL0     H37850   6.921   7.006   9.680 -0.7436  0.9948 -0.5836
  287MOL0     H37851   6.807   6.939   9.798 -0.9853 -1.2832  0.0100
  287MOL0     H37852   6.755   6.985   9.505 -0.7789 -0.3479 -0.6734
  287MOL0     H37853   6.682   7.073   9.638  0.2503 -0.4758 -0.4363
  287MOL0     H37854   6.640   6.787   9.547  0.8518  0.6701 -1.3057
  287MOL0     H37855   6.521   6.919   9.546 -0.5782  0.8644  0.6674
  287MOL0     H37856   6.610   6.786   9.804  0.9111  1.3718  0.2434
  287MOL0     H37857   6.492   6.922   9.793 -2.5425 -1.1631 -1.0528
  287MOL0     H37858   6.456   6.632   9.710 -0.8815  0.3313 -2.2136
  287MOL0     H37859   6.372   6.738   9.613 -0.7794 -3.3048  0.0840
  287MOL0     H37860   6.324   6.814   9.900 -2.2221 -1.5932  0.2969
  287MOL0     H37861   6.231   6.674   9.840 -2.7999  0.1242 -2.1988
  287MOL0     H37862   6.229   6.945   9.706  0.2936 -0.2737  1.3337
  287MOL0     H37863   6.141   6.791   9.657  1.2259  1.4467 -2.4796
  287MOL0     H37864   6.109   6.953   9.920 -2.2502  1.5797 -0.4517
  287MOL0     H37865   6.034   6.800   9.886  1.3938  0.1800  0.8772
  287MOL0     H37866   7.068   6.904   9.836 -0.3879 -0.7323  1.1346
  287MOL0     H37867   7.285   6.834   9.831 -4.9533  3.8927  3.1636
  287MOL0     H37868   7.565   6.259   9.631 -0.4855  1.0863 -2.8572
  287MOL0     H37869   7.799   6.226   9.638  0.3770 -0.1130  1.5335
  287MOL0     H37870   9.603   7.109   9.954  1.6494  3.5091  1.4292
  287MOL0     H37871   9.781   7.195  10.085  0.2009 -2.0288  3.5930
  287MOL0     H37872  10.377   7.090  10.125 -0.9787 -0.5844 -0.0528
  287MOL0     H37873  10.548   7.207  10.287  0.3113  3.4542 -0.5260
  287MOL0     H37874  10.409   7.383  10.680  4.6329 -1.6833  0.2233
  287MOL0     H37875  10.343   7.479  10.543 -1.2134 -1.1325  0.8963
  287MOL0     H37876  10.643   7.487  10.613 -0.8676 -1.9610  0.9590
  287MOL0     H37877  10.539   7.598  10.513 -2.3092 -0.8323 -0.2172
  287MOL0     H37878  10.405   7.636  10.736 -0.2541  0.0426 -1.9691
  287MOL0     H37879  10.553   7.722  10.725  2.1528 -0.1717  0.6692
  287MOL0     H37880  10.500   7.462  10.859 -0.8658  0.7237 -2.8226
  287MOL0     H37881  10.661   7.517  10.875  1.4310  1.7553  0.8933
  287MOL0     H37882  10.410   7.754  11.139 -0.6873 -1.7534  1.5952
  287MOL0     H37883  10.212   7.290  10.545 -0.6826  2.2906 -0.7505
  287MOL0     H37884  10.067   7.192  10.394 -0.6052  2.6413 -1.3473
  288MOL0     O37885   6.812  11.327   2.018 -0.7525 -0.6791  0.2344
  288MOL0     C37886   6.739  11.269   2.095  0.1589 -0.3111  0.0944
  288MOL0     O37887   6.606  11.299   2.104 -0.4942 -0.2850  1.2193
  288MOL0     C37888   6.561  11.400   2.022  0.1672 -0.3652  0.6652
  288MOL0     C37889   6.552  11.394   1.878  0.3140 -0.8277  0.5648
  288MOL0     C37890   6.494  11.495   1.804  0.3975 -0.4667 -0.3214
  288MOL0     C37891   6.433  11.606   1.862  0.4218  0.4602 -0.4367
  288MOL0     O37892   6.398  11.709   1.775 -0.5167  0.2051  0.7425
  288MOL0     C37893   6.309  11.812   1.818 -0.0554 -0.5167  0.5951
  288MOL0     C37894   6.335  11.921   1.725 -0.1513  0.3798  0.0906
  288MOL0     C37895   6.290  12.050   1.775 -0.5873 -0.4829 -0.1250
  288MOL0     C37896   6.395  12.099   1.876  0.4172 -0.1682  0.7824
  288MOL0     C37897   6.370  12.250   1.899  0.4482 -0.0652 -0.5962
  288MOL0     C37898   6.451  12.324   1.798  0.1745 -0.1106 -0.1481
  288MOL0     C37899   6.444  12.470   1.822 -0.1611 -0.5608 -0.4076
  288MOL0     C37900   6.321  12.538   1.753 -0.3468  0.5124 -0.6263
  288MOL0     N37901   6.361  12.679   1.715 -0.0849 -0.0963 -0.9250
  288MOL0     C37902   6.445  12.707   1.609  0.6801  0.4211  0.3702
  288MOL0     C37903   6.490  12.838   1.627 -0.3858  1.2873 -0.5514
  288MOL0     C37904   6.576  12.902   1.517  1.0157 -0.0496 -0.1748
  288MOL0     C37905   6.487  12.992   1.422 -0.5998 -0.0848 -0.4538
  288MOL0     C37906   6.554  13.019   1.288 -1.2824  0.4987  0.6250
  288MOL0     C37907   6.480  13.126   1.196  0.0272  0.1284  0.3595
  288MOL0     O37908   6.334  13.107   1.179  0.3024 -0.5152  0.1429
  288MOL0     C37909   6.265  13.213   1.106 -0.2755 -0.4735  0.0888
  288MOL0     C37910   6.334  13.326   1.041 -0.0966 -0.0065 -0.2852
  288MOL0     C37911   6.258  13.429   0.987  0.3048 -0.9539 -0.4081
  288MOL0     C37912   6.113  13.428   0.989  0.5190 -1.3109 -0.4875
  288MOL0     C37913   6.029  13.536   0.922 -0.6254  0.2610 -0.6257
  288MOL0     O37914   6.095  13.635   0.862 -0.4929 -0.5226  0.5312
  288MOL0     C37915   6.050  13.756   0.836  0.5083  0.3555  0.7863
  288MOL0     C37916   6.098  13.817   0.725  0.6158 -0.7520  0.3659
  288MOL0     C37917   6.059  13.951   0.706 -0.3826  0.4554  1.1768
  288MOL0     C37918   5.970  14.022   0.790 -1.0102  0.2818  0.1206
  288MOL0     O37919   5.933  14.149   0.785  0.0667  0.5074  0.4489
  288MOL0     C37920   5.971  14.228   0.669  0.3668 -0.1818  0.0299
  288MOL0     C37921   5.930  14.375   0.670 -0.1037 -0.1260 -0.4414
  288MOL0     C37922   5.783  14.390   0.692  1.0219 -0.2024  0.2379
  288MOL0     C37923   5.741  14.520   0.756 -0.2507  0.0682 -0.5439
  288MOL0     C37924   5.586  14.509   0.758 -0.3868 -0.0608  0.1024
  288MOL0     C37925   5.522  14.623   0.841  0.2495 -0.3058 -1.1988
  288MOL0     C37926   5.367  14.621   0.827 -0.2723  0.4466 -0.4303
  288MOL0     C37927   5.291  14.560   0.946 -1.5248  0.2709 -1.1823
  288MOL0    Cl37928   5.352  14.398   0.985  0.0342  0.0377  0.0574
  288MOL0     C37929   5.935  13.951   0.908  0.4303  0.6441  0.7328
  288MOL0     C37930   5.971  13.821   0.934 -0.0435  0.3546 -0.1752
  288MOL0     O37931   5.908  13.527   0.942  0.2561  0.6831  0.3126
  288MOL0     C37932   6.047  13.322   1.051  0.2023  0.3848 -0.0438
  288MOL0     C37933   6.125  13.223   1.112  0.0933  0.1228  0.5238
  288MOL0     N37934   6.414  12.897   1.732  0.3142  0.7045  0.1712
  288MOL0     N37935   6.345  12.804   1.794  0.6071  0.5115 -0.4528
  288MOL0     C37936   6.444  11.613   1.997 -0.0366 -0.4837 -1.0982
  288MOL0     C37937   6.516  11.518   2.072 -0.1623 -0.0148 -0.0534
  288MOL0     C37938   6.810  11.173   2.191  0.2015 -0.6276  0.1614
  288MOL0     C37939   6.729  11.112   2.278 -0.1938  1.2927 -0.3802
  288MOL0     C37940   6.792  11.014   2.368  0.7480  0.0191  0.4236
  288MOL0     C37941   6.931  11.000   2.366 -0.5969  1.1060  0.8147
  288MOL0     O37942   6.978  10.905   2.457 -0.1077 -0.6351  0.4596
  288MOL0     C37943   7.105  10.922   2.507  0.8009 -0.2258 -0.3207
  288MOL0     C37944   7.107  10.873   2.657 -0.2600  0.9339  0.0660
  288MOL0     C37945   6.989  10.934   2.744 -0.0341  0.3922  1.4920
  288MOL0     C37946   6.964  10.872   2.884 -0.1433  0.0474  0.6134
  288MOL0     C37947   6.994  10.733   2.897 -0.4425 -0.1718 -0.4203
  288MOL0     C37948   7.000  10.607   2.906 -0.3766 -0.2833  0.3171
  288MOL0     C37949   7.011  11.061   2.267  0.3983 -0.9424 -0.0753
  288MOL0     C37950   6.955  11.147   2.179  0.4783  1.2008 -1.3447
  288MOL0     H37951   6.605  11.310   1.833 -2.1667 -0.3680 -3.7720
  288MOL0     H37952   6.487  11.499   1.695  1.4486  0.5261 -0.3698
  288MOL0     H37953   6.319  11.840   1.924  0.2050 -0.0806  0.4592
  288MOL0     H37954   6.204  11.788   1.803 -1.5443  3.1450  3.6005
  288MOL0     H37955   6.274  11.905   1.635  1.4620 -0.1825 -0.9434
  288MOL0     H37956   6.438  11.925   1.690  0.1147 -0.1243  0.8057
  288MOL0     H37957   6.198  12.047   1.834  1.2513  1.4189  3.1350
  288MOL0     H37958   6.271  12.127   1.701  2.3773  1.1517  0.6470
  288MOL0     H37959   6.372  12.046   1.969 -1.6151  0.9285  0.9536
  288MOL0     H37960   6.500  12.076   1.854  0.4682  0.9680 -0.2600
  288MOL0     H37961   6.390  12.274   2.004 -2.3077 -2.3315  0.5759
  288MOL0     H37962   6.266  12.275   1.877  0.6198  0.5186 -0.7589
  288MOL0     H37963   6.434  12.289   1.695 -2.6125 -1.8267  0.7962
  288MOL0     H37964   6.556  12.307   1.825  0.9081  1.8854 -1.4492
  288MOL0     H37965   6.424  12.479   1.929 -1.9512 -0.2858 -0.7323
  288MOL0     H37966   6.539  12.517   1.796 -0.7376 -0.4216 -2.3894
  288MOL0     H37967   6.232  12.542   1.815  2.0151  2.9164  2.9517
  288MOL0     H37968   6.301  12.495   1.654 -4.0830 -1.5666  0.8516
  288MOL0     H37969   6.470  12.643   1.526 -1.7233 -1.3940  0.9361
  288MOL0     H37970   6.615  12.815   1.463  0.6398 -1.5872  1.8784
  288MOL0     H37971   6.665  12.955   1.555  1.4018 -2.0263  1.9222
  288MOL0     H37972   6.482  13.097   1.453 -0.4980  0.4832 -2.2487
  288MOL0     H37973   6.386  12.951   1.409 -0.8850 -0.2456  1.8402
  288MOL0     H37974   6.655  13.056   1.309  1.0682 -2.9124 -3.1116
  288MOL0     H37975   6.567  12.919   1.244  0.3517  0.5464  0.9181
  288MOL0     H37976   6.528  13.116   1.098  2.5903 -1.3012  1.6533
  288MOL0     H37977   6.513  13.222   1.237 -1.5915  2.0367 -2.5175
  288MOL0     H37978   6.442  13.331   1.034 -0.1667 -0.6401 -2.7130
  288MOL0     H37979   6.310  13.517   0.950  0.3554 -1.2409 -1.0282
  288MOL0     H37980   6.166  13.762   0.662  0.6759  0.3165 -0.5424
  288MOL0     H37981   6.089  13.993   0.611 -1.5119 -0.2682  0.4780
  288MOL0     H37982   5.934  14.199   0.570 -1.6443 -3.4530  1.5826
  288MOL0     H37983   6.080  14.233   0.661  0.3208  1.0859 -0.0259
  288MOL0     H37984   5.968  14.431   0.584  0.5281 -1.8481 -1.3084
  288MOL0     H37985   5.970  14.413   0.765 -0.7289  3.4987 -1.4735
  288MOL0     H37986   5.739  14.303   0.741 -0.4816 -0.8554 -2.1032
  288MOL0     H37987   5.739  14.400   0.592  2.3668 -2.7914 -0.7305
  288MOL0     H37988   5.791  14.530   0.853 -1.8747 -0.7200  0.4032
  288MOL0     H37989   5.768  14.606   0.693  1.1899 -0.5583 -0.8373
  288MOL0     H37990   5.565  14.407   0.791  0.7862 -0.0429  0.9686
  288MOL0     H37991   5.556  14.527   0.654 -0.7673  1.4374  0.4500
  288MOL0     H37992   5.566  14.719   0.814  1.4234 -0.0494  1.2802
  288MOL0     H37993   5.550  14.608   0.946 -1.6160 -2.8849 -0.9813
  288MOL0     H37994   5.335  14.723   0.804  1.6565  0.9896 -0.8330
  288MOL0     H37995   5.341  14.557   0.742 -0.4774  0.7354 -0.5850
  288MOL0     H37996   5.183  14.556   0.926 -1.6547  1.8286 -0.9239
  288MOL0     H37997   5.312  14.626   1.030 -1.2835 -1.5587  0.2497
  288MOL0     H37998   5.872  14.007   0.976 -0.3541 -0.4796  0.9651
  288MOL0     H37999   5.942  13.771   1.026  2.7609  1.0386  1.1898
  288MOL0     H38000   5.940  13.307   1.042  0.5847 -1.6930 -2.3371
  288MOL0     H38001   6.070  13.143   1.160 -1.3315  0.9247  0.2792
  288MOL0     H38002   6.401  11.685   2.065  1.8517 -1.5333  1.3581
  288MOL0     H38003   6.516  11.516   2.180 -0.2205  3.8227  0.1485
  288MOL0     H38004   6.625  11.135   2.298 -0.0381  1.0462  0.7432
  288MOL0     H38005   6.733  10.973   2.449  0.7732  0.4535  0.6651
  288MOL0     H38006   7.138  11.025   2.492 -1.1602  0.5019 -0.0094
  288MOL0     H38007   7.169  10.857   2.447  0.3001 -0.3083 -0.7739
  288MOL0     H38008   7.105  10.765   2.644 -1.9281  0.9411  0.0948
  288MOL0     H38009   7.205  10.903   2.696  1.0556  0.4663 -2.6423
  288MOL0     H38010   6.894  10.913   2.694 -1.0775  2.1077  2.6387
  288MOL0     H38011   6.996  11.043   2.750  1.0773  0.4015  0.3575
  288MOL0     H38012   7.013  10.929   2.963  2.4262 -2.1282  0.7216
  288MOL0     H38013   6.856  10.887   2.899 -0.1020  1.1105 -0.0175
  288MOL0     H38014   7.005  10.501   2.920  1.6740 -0.2201  0.3719
  288MOL0     H38015   7.116  11.040   2.254  0.0957 -2.3232 -0.4475
  288MOL0     H38016   7.022  11.184   2.103 -1.3669  0.3894 -3.4589
  289MOL0     O38017   3.564   4.485   9.643  0.3310 -0.4519 -0.1068
  289MOL0     C38018   3.505   4.378   9.639  1.2173 -0.8624  0.9967
  289MOL0     O38019   3.371   4.369   9.630  0.0418  0.4014 -0.0752
  289MOL0     C38020   3.291   4.478   9.614  0.2945  0.7985  0.2800
  289MOL0     C38021   3.311   4.559   9.497 -0.7843 -0.5792  0.7562
  289MOL0     C38022   3.234   4.673   9.480  2.1557  0.0521  0.1378
  289MOL0     C38023   3.135   4.696   9.573  0.8108 -0.7378 -0.6662
  289MOL0     O38024   3.047   4.800   9.566 -0.0529 -0.0059  0.9734
  289MOL0     C38025   3.010   4.881   9.451  0.0513  0.2247  0.1632
  289MOL0     C38026   2.929   4.804   9.350  0.2509 -0.1729 -0.0223
  289MOL0     C38027   2.801   4.744   9.412 -0.3101  0.6280 -0.0459
  289MOL0     C38028   2.732   4.669   9.291 -0.0272 -0.0581 -0.0712
  289MOL0     C38029   2.640   4.569   9.350  0.0850 -0.0934  0.3274
  289MOL0     C38030   2.546   4.520   9.239 -0.3236 -1.0091 -0.0462
  289MOL0     C38031   2.440   4.422   9.273  0.2193  0.2288  0.6130
  289MOL0     C38032   2.419   4.317   9.165  0.0630  0.3802  0.7755
  289MOL0     N38033   2.293   4.245   9.189 -0.2954  0.3285 -0.9395
  289MOL0     C38034   2.213   4.209   9.086  0.1688 -0.1794 -0.0793
  289MOL0     C38035   2.106   4.144   9.134 -0.9302 -0.8448 -0.4165
  289MOL0     C38036   2.001   4.076   9.062  0.6879 -0.2423 -0.4606
  289MOL0     C38037   2.036   3.938   9.008 -0.1278  0.3407 -0.0300
  289MOL0     C38038   1.917   3.876   8.924  0.0754 -0.0411 -0.9281
  289MOL0     C38039   1.940   3.770   8.821  0.4755 -0.2801 -0.6208
  289MOL0     O38040   1.967   3.647   8.891  0.0998 -0.1173  0.5150
  289MOL0     C38041   1.879   3.552   8.871 -0.2957 -0.5340 -0.0554
  289MOL0     C38042   1.788   3.530   8.968  0.8697 -0.7464  0.0183
  289MOL0     C38043   1.691   3.429   8.955 -1.1985 -0.4425  1.2092
  289MOL0     C38044   1.704   3.339   8.845  0.1308 -0.3036 -0.0702
  289MOL0     C38045   1.605   3.229   8.825 -0.5465  0.3047 -0.5035
  289MOL0     O38046   1.547   3.179   8.940  0.4990 -0.1312 -0.5050
  289MOL0     C38047   1.460   3.070   8.939  1.4243 -1.5573  1.4674
  289MOL0     C38048   1.483   2.952   8.873  0.0703  0.8790  0.4556
  289MOL0     C38049   1.400   2.848   8.894 -0.3390 -0.3106 -0.1100
  289MOL0     C38050   1.288   2.844   8.973  1.3230  0.1725  1.3306
  289MOL0     O38051   1.204   2.742   8.970 -0.0040  0.3338 -0.0470
  289MOL0     C38052   1.178   2.662   8.854 -0.2939 -0.3090  1.2466
  289MOL0     C38053   1.032   2.608   8.853  0.7077  0.4333  0.4004
  289MOL0     C38054   0.981   2.591   8.700 -0.7773  0.1776 -0.6192
  289MOL0     C38055   1.063   2.494   8.621 -1.0865 -0.3409  0.3524
  289MOL0     C38056   1.029   2.474   8.477 -0.6093 -0.7890  0.2425
  289MOL0     C38057   1.034   2.596   8.392  0.3437 -0.4219 -0.3089
  289MOL0     C38058   0.992   2.575   8.254  0.5051  0.2060  0.6882
  289MOL0     C38059   1.071   2.671   8.163  0.1097 -0.8321 -0.7350
  289MOL0    Cl38060   1.037   2.628   7.994  0.1012  0.3106  0.0030
  289MOL0     C38061   1.262   2.960   9.043  0.5046  0.0763  1.2595
  289MOL0     C38062   1.344   3.074   9.022  0.2311  0.4223  0.2468
  289MOL0     O38063   1.585   3.189   8.714 -0.0854 -0.0343  0.3173
  289MOL0     C38064   1.802   3.367   8.749  0.2511  0.3022 -0.9528
  289MOL0     C38065   1.893   3.470   8.764 -0.2167  0.2729  0.4137
  289MOL0     N38066   2.126   4.146   9.275  0.1188 -1.1591  0.0638
  289MOL0     N38067   2.239   4.203   9.302 -0.0256  0.1863  0.3731
  289MOL0     C38068   3.118   4.620   9.684  0.4813 -0.9687  0.0475
  289MOL0     C38069   3.181   4.504   9.701 -0.2094 -0.8276 -0.0197
  289MOL0     C38070   3.588   4.251   9.651 -0.1347 -0.6954  0.2347
  289MOL0     C38071   3.729   4.261   9.669 -0.8178 -0.4384  0.3987
  289MOL0     C38072   3.815   4.154   9.659  0.0804 -0.3564  0.4755
  289MOL0     C38073   3.764   4.029   9.614 -0.2095  0.1195  0.5210
  289MOL0     O38074   3.857   3.931   9.587  0.6374 -0.2564 -0.7437
  289MOL0     C38075   3.821   3.790   9.595  0.7678 -0.4994 -0.8203
  289MOL0     C38076   3.948   3.698   9.583 -0.4380  1.2453  0.1317
  289MOL0     C38077   4.050   3.730   9.693 -0.1264  1.3927  0.7964
  289MOL0     C38078   3.987   3.717   9.830 -0.5355 -0.3909 -0.5185
  289MOL0     C38079   3.888   3.615   9.853 -1.0669  0.4140  0.4049
  289MOL0     C38080   3.813   3.524   9.861 -1.1721  0.6093 -1.0332
  289MOL0     C38081   3.623   4.016   9.606 -1.2446 -0.3127 -0.7697
  289MOL0     C38082   3.530   4.124   9.635 -0.4325 -0.2771 -0.5841
  289MOL0     H38083   3.398   4.550   9.433  1.1689  4.3787  2.2401
  289MOL0     H38084   3.241   4.746   9.399 -1.2088 -1.2174 -1.4832
  289MOL0     H38085   3.101   4.922   9.407  0.8691 -0.2727  1.3276
  289MOL0     H38086   2.951   4.965   9.490 -2.3281 -0.1422 -2.3679
  289MOL0     H38087   2.998   4.724   9.318 -0.3625 -2.2578  3.3806
  289MOL0     H38088   2.919   4.871   9.264 -1.5304  3.1157  2.5279
  289MOL0     H38089   2.735   4.825   9.445  0.7654  1.7625 -0.5857
  289MOL0     H38090   2.811   4.684   9.502  0.0892  1.7779  0.6983
  289MOL0     H38091   2.678   4.740   9.227 -0.8320 -0.0548  0.5863
  289MOL0     H38092   2.790   4.612   9.218 -0.2507  0.5026 -0.6969
  289MOL0     H38093   2.594   4.612   9.440  0.3626  0.3042  0.2820
  289MOL0     H38094   2.710   4.487   9.369  0.1643 -0.2864 -0.7374
  289MOL0     H38095   2.615   4.484   9.163  0.9794  3.7129 -1.4432
  289MOL0     H38096   2.503   4.600   9.178 -2.5173 -3.1352 -1.4934
  289MOL0     H38097   2.475   4.362   9.357 -1.0560 -1.1958  0.1709
  289MOL0     H38098   2.349   4.479   9.295 -2.5842 -1.3437 -4.8486
  289MOL0     H38099   2.505   4.249   9.158 -0.2001  0.1319 -0.0681
  289MOL0     H38100   2.408   4.373   9.072 -2.1674 -1.1335  0.0463
  289MOL0     H38101   2.216   4.239   8.981 -3.1789 -2.6760 -1.0661
  289MOL0     H38102   1.976   4.130   8.970  0.2467 -2.4036 -1.6701
  289MOL0     H38103   1.913   4.070   9.125  0.9136 -0.1005 -0.1289
  289MOL0     H38104   2.059   3.874   9.093 -2.8585 -1.4803 -0.5534
  289MOL0     H38105   2.125   3.939   8.943 -1.5058  0.9118 -1.9978
  289MOL0     H38106   1.848   3.840   9.001  0.7347  2.5513  1.0189
  289MOL0     H38107   1.861   3.954   8.872 -1.2179  1.0758  1.8771
  289MOL0     H38108   2.017   3.810   8.755  1.7079  1.4412  1.7129
  289MOL0     H38109   1.848   3.753   8.764  0.3711 -1.1734 -0.2064
  289MOL0     H38110   1.795   3.604   9.047  2.6066  0.8303 -1.5098
  289MOL0     H38111   1.617   3.418   9.034  1.0271 -1.9727  3.1990
  289MOL0     H38112   1.575   2.928   8.821 -0.6453  2.2267 -1.5541
  289MOL0     H38113   1.429   2.754   8.849 -0.4826 -1.8188  2.7347
  289MOL0     H38114   1.241   2.572   8.853  0.2283  0.0347 -0.7345
  289MOL0     H38115   1.190   2.720   8.763 -1.1922 -0.1021  1.2518
  289MOL0     H38116   0.961   2.676   8.902 -3.5241 -2.6810 -0.8648
  289MOL0     H38117   1.023   2.519   8.916  1.3051  0.4899  0.5687
  289MOL0     H38118   0.981   2.692   8.659  1.8559  1.1842  1.5731
  289MOL0     H38119   0.877   2.558   8.709 -0.1898 -1.5026  0.6312
  289MOL0     H38120   1.163   2.539   8.611 -2.1572  2.2120  0.2843
  289MOL0     H38121   1.077   2.398   8.670 -1.8156  0.3667  2.0013
  289MOL0     H38122   0.928   2.433   8.478 -0.4280 -1.2279  0.9497
  289MOL0     H38123   1.096   2.402   8.429 -0.1154 -1.0390  1.2695
  289MOL0     H38124   1.133   2.642   8.398  0.0751  1.1852 -4.7346
  289MOL0     H38125   0.970   2.674   8.433  3.0044  2.5481 -1.4018
  289MOL0     H38126   1.004   2.470   8.225  0.3522  1.2822 -4.0685
  289MOL0     H38127   0.886   2.604   8.250 -0.2069 -2.2725 -0.4738
  289MOL0     H38128   1.179   2.657   8.177 -0.4484 -3.1154  2.3423
  289MOL0     H38129   1.038   2.775   8.172 -3.1862 -1.8374  0.0003
  289MOL0     H38130   1.201   2.973   9.132  1.8443  1.4318  2.0165
  289MOL0     H38131   1.329   3.168   9.074  0.4456  0.4276  0.3000
  289MOL0     H38132   1.811   3.293   8.670  1.8164 -0.2200 -0.3135
  289MOL0     H38133   1.972   3.478   8.690  0.6983 -1.4387  1.1370
  289MOL0     H38134   3.035   4.639   9.752 -3.4624 -5.2083 -2.9253
  289MOL0     H38135   3.155   4.430   9.776 -1.4231  0.4939  0.9116
  289MOL0     H38136   3.783   4.354   9.683 -2.2915  1.3737 -4.1577
  289MOL0     H38137   3.921   4.176   9.665  0.4289 -1.7627 -0.1334
  289MOL0     H38138   3.751   3.781   9.511  0.9070  0.2484 -1.0231
  289MOL0     H38139   3.777   3.779   9.695  1.9191  0.3071 -0.1999
  289MOL0     H38140   3.908   3.596   9.586 -0.7647  1.3792  0.4937
  289MOL0     H38141   3.981   3.712   9.480 -3.4264 -3.4806 -1.8232
  289MOL0     H38142   4.103   3.824   9.677 -0.3605  1.2945 -0.6543
  289MOL0     H38143   4.123   3.649   9.687 -0.5405  1.0296  0.6382
  289MOL0     H38144   4.069   3.714   9.902 -0.7849 -2.1973 -0.2602
  289MOL0     H38145   3.932   3.807   9.856 -1.4184 -1.4629  1.5830
  289MOL0     H38146   3.743   3.443   9.862  2.9529 -3.3504 -0.1600
  289MOL0     H38147   3.579   3.919   9.585 -1.0338 -0.7639  0.7668
  289MOL0     H38148   3.425   4.107   9.615 -0.5882  0.1661 -0.1553
  290MOL0     O38149   2.131   8.644  11.344  0.6965  0.2459  0.3942
  290MOL0     C38150   2.102   8.690  11.457  0.3264  0.3415  1.3940
  290MOL0     O38151   1.979   8.713  11.510  0.7506 -0.1587  0.2658
  290MOL0     C38152   1.884   8.751  11.418  0.5024  0.1913  0.0100
  290MOL0     C38153   1.746   8.726  11.440  0.0536  0.5832 -0.4713
  290MOL0     C38154   1.645   8.759  11.349  0.0883  0.8546 -0.3442
  290MOL0     C38155   1.676   8.831  11.237 -0.1640 -0.5981  0.1322
  290MOL0     O38156   1.568   8.882  11.173  1.1541 -0.1929 -0.1599
  290MOL0     C38157   1.575   9.012  11.114 -0.3262  0.0678  0.4754
  290MOL0     C38158   1.460   9.058  11.024 -0.6128 -0.9243  0.3675
  290MOL0     C38159   1.408   8.941  10.935  0.1538 -0.1021  0.6602
  290MOL0     C38160   1.361   9.000  10.803 -0.6732  0.3713  0.7427
  290MOL0     C38161   1.258   9.101  10.804 -0.3380 -0.8278 -0.1043
  290MOL0     C38162   1.120   9.049  10.829  0.1523 -1.6034  0.0772
  290MOL0     C38163   1.020   9.157  10.795  0.8476 -0.2373 -0.7869
  290MOL0     C38164   0.871   9.120  10.811  0.1413  0.4221  0.2074
  290MOL0     N38165   0.788   9.218  10.729  0.5773 -1.0959 -1.0839
  290MOL0     C38166   0.763   9.213  10.595 -0.4267  0.2964 -1.2064
  290MOL0     C38167   0.664   9.303  10.570  0.2773 -0.2336  1.1003
  290MOL0     C38168   0.619   9.333  10.426 -0.1161  0.3945  0.5605
  290MOL0     C38169   0.468   9.313  10.407 -1.1050  0.0433 -0.8793
  290MOL0     C38170   0.410   9.376  10.277 -0.4055  0.0162 -0.6740
  290MOL0     C38171   0.381   9.531  10.297 -0.0552  0.5440  0.7168
  290MOL0     O38172   0.279   9.558  10.391  0.2294  0.1969 -0.0509
  290MOL0     C38173   0.140   9.566  10.361 -0.3234  0.3597  0.8990
  290MOL0     C38174   0.064   9.593  10.465 -0.0356  0.5915  0.6808
  290MOL0     C38175  -0.069   9.617  10.443 -0.0133 -0.6921 -0.2002
  290MOL0     C38176  -0.128   9.609  10.315 -0.1407 -0.1057  0.3007
  290MOL0     C38177  -0.272   9.649  10.285  0.0401  0.0217 -0.1395
  290MOL0     O38178  -0.361   9.661  10.379 -0.1559  0.2934 -0.0809
  290MOL0     C38179  -0.475   9.744  10.363 -0.1477  0.2846  0.4969
  290MOL0     C38180  -0.490   9.851  10.274 -0.9883  0.0945  0.5681
  290MOL0     C38181  -0.598   9.935  10.267  1.3330  0.0726 -0.8422
  290MOL0     C38182  -0.706   9.912  10.356 -0.4893  0.8957 -0.5761
  290MOL0     O38183  -0.817   9.983  10.375 -0.2959  0.3760  0.1889
  290MOL0     C38184  -0.813  10.119  10.340 -0.6919 -0.3892 -0.5358
  290MOL0     C38185  -0.915  10.185  10.429 -0.3999 -0.0638  0.7496
  290MOL0     C38186  -1.058  10.165  10.371 -0.1381  0.2000 -0.1188
  290MOL0     C38187  -1.159  10.257  10.436  0.0844 -0.1287  0.2851
  290MOL0     C38188  -1.278  10.293  10.350  0.2566 -0.0506  0.1041
  290MOL0     C38189  -1.391  10.371  10.408  0.1330  0.2316  0.0463
  290MOL0     C38190  -1.493  10.309  10.501 -0.7787  0.0262 -0.0600
  290MOL0     C38191  -1.554  10.181  10.443 -0.5451  0.3019 -0.0776
  290MOL0    Cl38192  -1.662  10.097  10.550  0.3648 -0.6162 -0.0853
  290MOL0     C38193  -0.687   9.804  10.455  0.5903  0.0272 -1.1992
  290MOL0     C38194  -0.581   9.721  10.449  0.5818  0.0825 -0.6104
  290MOL0     O38195  -0.301   9.664  10.164 -0.4407 -0.4580  0.1020
  290MOL0     C38196  -0.043   9.570  10.207  0.3016  0.3899  0.2321
  290MOL0     C38197   0.094   9.556  10.232  0.1241 -0.2403  0.4249
  290MOL0     N38198   0.636   9.370  10.696  0.0537  0.0909  0.7019
  290MOL0     N38199   0.726   9.329  10.781  0.3482  1.0033  0.1763
  290MOL0     C38200   1.817   8.846  11.205 -0.1496 -0.0645 -0.1973
  290MOL0     C38201   1.912   8.798  11.288 -0.3223 -0.1788 -0.8252
  290MOL0     C38202   2.219   8.728  11.544 -0.3796 -0.3663 -0.9736
  290MOL0     C38203   2.338   8.652  11.533 -0.1206 -0.6062  0.3037
  290MOL0     C38204   2.452   8.685  11.614  0.2901  0.8057  0.3384
  290MOL0     C38205   2.441   8.783  11.713 -0.1120 -1.5597  0.9621
  290MOL0     O38206   2.540   8.828  11.794 -0.1654  0.3678  0.0304
  290MOL0     C38207   2.669   8.775  11.775  0.3775 -0.2636 -0.4835
  290MOL0     C38208   2.749   8.823  11.889 -0.1754  0.3635  0.6142
  290MOL0     C38209   2.901   8.818  11.852  0.2792  0.2594  1.1113
  290MOL0     C38210   2.990   8.864  11.974  0.7822 -0.6319 -0.6835
  290MOL0     C38211   3.126   8.803  11.973  0.4164  0.4072 -0.5542
  290MOL0     C38212   3.235   8.755  11.985  0.9920 -0.2438 -0.1555
  290MOL0     C38213   2.323   8.864  11.724 -1.0241  0.8219 -0.4956
  290MOL0     C38214   2.220   8.828  11.646 -0.5121  0.4042  0.0522
  290MOL0     H38215   1.710   8.688  11.535 -4.2399  3.4425 -0.7098
  290MOL0     H38216   1.546   8.722  11.370  1.2142 -2.4868 -0.2001
  290MOL0     H38217   1.661   9.019  11.047 -0.4550  1.7261  0.4294
  290MOL0     H38218   1.584   9.090  11.190 -0.1099 -0.6487  1.1819
  290MOL0     H38219   1.501   9.138  10.962  3.0015 -3.1940 -0.4822
  290MOL0     H38220   1.374   9.091  11.083  0.6770  0.6284  1.4637
  290MOL0     H38221   1.328   8.892  10.991 -0.7185 -0.7063 -1.0470
  290MOL0     H38222   1.492   8.875  10.910 -1.0832 -1.2132 -0.7023
  290MOL0     H38223   1.452   9.045  10.762 -0.4792  2.1995  3.0061
  290MOL0     H38224   1.327   8.913  10.746 -0.8246  0.9532 -0.0827
  290MOL0     H38225   1.254   9.138  10.701 -3.3557  1.1085  0.5982
  290MOL0     H38226   1.295   9.182  10.867 -3.0295  1.5101 -1.3235
  290MOL0     H38227   1.120   9.015  10.933  0.6928 -2.0284 -0.0518
  290MOL0     H38228   1.108   8.968  10.756  1.5865 -0.4576 -1.5190
  290MOL0     H38229   1.044   9.238  10.864 -1.0592 -0.5886  0.3491
  290MOL0     H38230   1.027   9.192  10.691 -0.5126  0.4083 -0.6822
  290MOL0     H38231   0.826   9.123  10.911 -2.5298 -1.0049 -0.8410
  290MOL0     H38232   0.855   9.021  10.769  0.9052  1.0134 -1.5761
  290MOL0     H38233   0.813   9.144  10.527  0.2147  0.5388 -0.9892
  290MOL0     H38234   0.662   9.267  10.351  0.7316  1.3771  0.1530
  290MOL0     H38235   0.633   9.436  10.390 -0.8983 -0.2028 -1.6178
  290MOL0     H38236   0.412   9.345  10.496  0.7210 -0.1432  0.3916
  290MOL0     H38237   0.441   9.208  10.396 -0.9908 -0.2037  0.8957
  290MOL0     H38238   0.487   9.365  10.200 -0.0882  1.2387 -0.5545
  290MOL0     H38239   0.314   9.332  10.250  0.4936 -1.8212 -1.0744
  290MOL0     H38240   0.359   9.573  10.198  4.2479  2.2357  0.2729
  290MOL0     H38241   0.481   9.569  10.321  0.9679 -1.4416 -0.1604
  290MOL0     H38242   0.113   9.597  10.562 -2.6076  2.4476  2.0423
  290MOL0     H38243  -0.129   9.667  10.519  1.0851  2.2105 -1.1304
  290MOL0     H38244  -0.397   9.872  10.222  0.3320 -0.4158  2.5927
  290MOL0     H38245  -0.597  10.012  10.190 -0.1861  1.3562  0.3284
  290MOL0     H38246  -0.852  10.146  10.241 -4.1753  0.2574  0.8756
  290MOL0     H38247  -0.709  10.150  10.354 -0.7279 -1.1736  2.1375
  290MOL0     H38248  -0.878  10.287  10.421  4.3792 -1.6280 -0.4427
  290MOL0     H38249  -0.912  10.154  10.533  2.6046  1.2440  1.1623
  290MOL0     H38250  -1.099  10.065  10.390 -0.8002  0.1831 -1.4827
  290MOL0     H38251  -1.055  10.186  10.264  0.3419  0.8955  0.0284
  290MOL0     H38252  -1.207  10.201  10.516 -0.4130  0.1484  0.1822
  290MOL0     H38253  -1.104  10.345  10.470  1.8429 -0.0621 -2.4085
  290MOL0     H38254  -1.325  10.203  10.310 -3.1764  0.7164  1.9928
  290MOL0     H38255  -1.232  10.344  10.265 -0.4017 -1.1375 -0.9211
  290MOL0     H38256  -1.457  10.394  10.325 -1.7267 -1.9356  0.8174
  290MOL0     H38257  -1.361  10.470  10.442  1.0548  1.1732 -3.1703
  290MOL0     H38258  -1.432  10.292  10.590 -0.6313  2.6311  0.4204
  290MOL0     H38259  -1.563  10.383  10.541  0.1493  0.6280  0.4845
  290MOL0     H38260  -1.470  10.113  10.427 -2.0271 -1.3210 -1.4553
  290MOL0     H38261  -1.593  10.192  10.342  2.4175 -1.4497 -1.5370
  290MOL0     H38262  -0.756   9.782  10.535  2.6242 -2.5302 -0.0183
  290MOL0     H38263  -0.553   9.657  10.532  4.2579  2.1381 -0.0559
  290MOL0     H38264  -0.070   9.555  10.103 -0.5793 -1.1755  0.6550
  290MOL0     H38265   0.148   9.528  10.141 -0.1035  2.6988 -0.7194
  290MOL0     H38266   1.844   8.910  11.122 -4.1156  0.8586 -0.9945
  290MOL0     H38267   2.016   8.811  11.257 -0.0928  0.6714  0.2303
  290MOL0     H38268   2.328   8.572  11.461  2.9635  0.5942 -1.7153
  290MOL0     H38269   2.547   8.637  11.592  1.0280  2.3957 -0.0796
  290MOL0     H38270   2.695   8.813  11.676 -3.2306  1.7121 -0.8325
  290MOL0     H38271   2.665   8.666  11.763  0.6511 -0.3386  0.0823
  290MOL0     H38272   2.727   8.929  11.901  3.2992  1.3479 -0.3497
  290MOL0     H38273   2.734   8.762  11.979 -3.2885 -1.8923 -1.2455
  290MOL0     H38274   2.918   8.880  11.764  3.1733 -0.8773  0.7655
  290MOL0     H38275   2.917   8.711  11.839 -3.0866 -0.5001  2.1079
  290MOL0     H38276   2.987   8.973  11.974  0.9527 -0.5958  1.2372
  290MOL0     H38277   2.941   8.845  12.070  1.9962  2.7546  0.7508
  290MOL0     H38278   3.337   8.724  11.990  1.2321  0.5517  4.5477
  290MOL0     H38279   2.306   8.948  11.789 -3.0173  0.3381 -0.3111
  290MOL0     H38280   2.125   8.879  11.659  0.0838  1.5408  0.1109
  291MOL0     O38281   4.390   4.026   4.563 -0.4873 -0.0936  0.3090
  291MOL0     C38282   4.321   4.027   4.670  0.2247  0.4973  0.7761
  291MOL0     O38283   4.204   3.968   4.683  0.5116 -0.2007  0.1377
  291MOL0     C38284   4.159   3.868   4.603 -0.9889 -0.9454  0.1829
  291MOL0     C38285   4.244   3.753   4.594  0.2248  0.0558 -0.1536
  291MOL0     C38286   4.198   3.641   4.528  0.2842  0.0479  0.6830
  291MOL0     C38287   4.072   3.632   4.469  0.3464  0.4841 -0.5879
  291MOL0     O38288   4.051   3.506   4.427  0.9020 -0.3854  0.5745
  291MOL0     C38289   3.926   3.449   4.453 -0.8821 -0.0601  0.1203
  291MOL0     C38290   3.915   3.295   4.412 -0.0512 -0.6267 -0.4307
  291MOL0     C38291   3.911   3.260   4.265 -0.0206  0.0644 -0.0973
  291MOL0     C38292   3.870   3.117   4.256  0.3387  0.5502 -0.1887
  291MOL0     C38293   3.964   3.010   4.326  0.0491 -0.0231  0.1758
  291MOL0     C38294   3.913   2.877   4.293 -0.1016  0.5226 -0.4019
  291MOL0     C38295   4.025   2.774   4.304  0.3545 -0.1583 -0.9721
  291MOL0     C38296   3.970   2.635   4.264  0.2803  0.4091 -0.4307
  291MOL0     N38297   3.935   2.620   4.130  0.3883  0.0823 -0.4646
  291MOL0     C38298   3.799   2.617   4.088 -1.2032 -0.5088  0.8030
  291MOL0     C38299   3.814   2.568   3.964  0.4103  0.1993 -0.9928
  291MOL0     C38300   3.688   2.520   3.894  0.4341 -0.0950  0.3491
  291MOL0     C38301   3.616   2.634   3.827 -0.5730 -0.5056  0.5922
  291MOL0     C38302   3.704   2.702   3.722  0.7187  0.3583 -0.4425
  291MOL0     C38303   3.643   2.832   3.656  0.0146 -0.0746 -0.1038
  291MOL0     O38304   3.564   2.763   3.560  0.2438 -0.1410 -0.2321
  291MOL0     C38305   3.440   2.832   3.536  0.2218  0.2271  0.8900
  291MOL0     C38306   3.440   2.964   3.497 -0.1735  0.2253  0.6662
  291MOL0     C38307   3.327   3.030   3.455 -1.1518 -0.0229  0.0826
  291MOL0     C38308   3.200   2.963   3.454 -0.0291 -0.3807 -0.2541
  291MOL0     C38309   3.081   3.043   3.416  0.2873 -0.0544 -0.3506
  291MOL0     O38310   2.968   2.972   3.390 -0.4416 -0.1129 -0.3835
  291MOL0     C38311   2.839   3.015   3.369  0.4986 -2.0020  0.5973
  291MOL0     C38312   2.793   3.148   3.373  0.5101 -0.4839  0.5077
  291MOL0     C38313   2.661   3.175   3.366  0.4015 -0.2844  0.1086
  291MOL0     C38314   2.551   3.084   3.343  0.0735 -0.2319  0.6307
  291MOL0     O38315   2.420   3.131   3.333  0.6556 -0.0478  0.2162
  291MOL0     C38316   2.319   3.048   3.266 -0.2128 -0.3818  0.3372
  291MOL0     C38317   2.242   3.143   3.170 -0.6895  0.4377 -0.5964
  291MOL0     C38318   2.325   3.253   3.099  0.6977 -0.2824 -0.3134
  291MOL0     C38319   2.310   3.390   3.163 -0.1852  0.9982 -0.3232
  291MOL0     C38320   2.398   3.498   3.089 -0.2339  0.9424 -0.9207
  291MOL0     C38321   2.548   3.499   3.130 -0.2721  0.0766 -0.2484
  291MOL0     C38322   2.634   3.402   3.056  0.4395  0.1084  0.3900
  291MOL0     C38323   2.784   3.427   3.057  0.1799  0.5541  0.1976
  291MOL0    Cl38324   2.874   3.299   2.961  0.2857  0.2947 -0.0508
  291MOL0     C38325   2.601   2.956   3.321 -0.8011  0.6552 -0.8107
  291MOL0     C38326   2.737   2.916   3.334 -0.4554 -0.0158  0.3357
  291MOL0     O38327   3.095   3.164   3.416 -0.0903  0.3871 -0.2795
  291MOL0     C38328   3.195   2.825   3.486 -0.0412 -0.4134  0.0836
  291MOL0     C38329   3.317   2.761   3.526 -0.8342  0.0379  0.4258
  291MOL0     N38330   3.948   2.539   3.934  0.2150  0.3920  0.2709
  291MOL0     N38331   4.020   2.576   4.032  0.0400 -0.3663 -0.2905
  291MOL0     C38332   3.986   3.741   4.475 -0.4652 -0.2532  0.7678
  291MOL0     C38333   4.023   3.855   4.555  0.2686 -0.6050 -0.4460
  291MOL0     C38334   4.391   4.081   4.785 -0.3941  0.5006 -0.4773
  291MOL0     C38335   4.353   4.055   4.915  0.1431  0.7137  0.0959
  291MOL0     C38336   4.418   4.110   5.022  0.0245  1.1027 -0.6625
  291MOL0     C38337   4.522   4.196   5.007 -0.0309 -0.5769 -0.8083
  291MOL0     O38338   4.581   4.257   5.115  0.4403  0.0330  0.0750
  291MOL0     C38339   4.613   4.401   5.110  0.4241  0.1155  0.6695
  291MOL0     C38340   4.500   4.497   5.087  0.3256 -0.2610 -0.0240
  291MOL0     C38341   4.512   4.604   5.206  0.5293  0.1259  0.4840
  291MOL0     C38342   4.379   4.685   5.208  1.1165 -0.1743 -0.4931
  291MOL0     C38343   4.382   4.775   5.316 -0.5920  0.3347  0.2210
  291MOL0     C38344   4.390   4.843   5.416 -0.2629  0.6993 -0.7010
  291MOL0     C38345   4.567   4.227   4.883 -0.1986 -0.1388  0.6730
  291MOL0     C38346   4.492   4.173   4.771  0.6349  0.0945  0.4906
  291MOL0     H38347   4.341   3.729   4.636  0.3105  0.0166 -0.3703
  291MOL0     H38348   4.272   3.561   4.527 -0.9870 -1.2065  2.2266
  291MOL0     H38349   3.844   3.501   4.401 -0.2541 -0.2143 -1.0503
  291MOL0     H38350   3.902   3.456   4.560  0.7058  0.3039  0.4686
  291MOL0     H38351   3.823   3.262   4.461 -0.9286  0.9698 -0.9422
  291MOL0     H38352   4.009   3.247   4.444  0.8289  1.8443  0.9953
  291MOL0     H38353   4.012   3.288   4.233 -0.7100  2.1188 -0.6700
  291MOL0     H38354   3.831   3.321   4.222 -0.6030  0.1669  1.0816
  291MOL0     H38355   3.768   3.102   4.295 -0.1099  0.5687 -1.3161
  291MOL0     H38356   3.855   3.092   4.151 -3.0550  1.8646 -0.1530
  291MOL0     H38357   3.978   3.031   4.433  0.8604  1.3729 -0.1757
  291MOL0     H38358   4.064   3.020   4.281 -0.2069  2.5567  0.0554
  291MOL0     H38359   3.873   2.869   4.192  3.1022  1.4921 -1.9005
  291MOL0     H38360   3.825   2.856   4.354  1.6507 -2.8513  1.2476
  291MOL0     H38361   4.097   2.796   4.225  0.3161  1.4581 -0.5947
  291MOL0     H38362   4.061   2.777   4.407 -3.0049 -1.4272  0.3670
  291MOL0     H38363   3.891   2.597   4.329 -1.0517  2.7815 -0.5790
  291MOL0     H38364   4.045   2.561   4.296 -1.6402 -1.1566  0.7165
  291MOL0     H38365   3.711   2.651   4.141 -2.1101 -0.9191 -0.4014
  291MOL0     H38366   3.627   2.472   3.970  2.3994 -1.6254  1.0560
  291MOL0     H38367   3.736   2.454   3.821  2.2527  1.0185  0.4800
  291MOL0     H38368   3.585   2.713   3.896  2.4953  2.8058 -1.4468
  291MOL0     H38369   3.521   2.591   3.794 -2.9570  3.1476  1.9565
  291MOL0     H38370   3.784   2.752   3.777 -2.2844  3.6703  1.3488
  291MOL0     H38371   3.719   2.617   3.655 -1.2230  0.4300 -1.0465
  291MOL0     H38372   3.712   2.905   3.614 -1.8432  1.7129 -0.1675
  291MOL0     H38373   3.572   2.896   3.709  1.5836 -1.2461  3.7278
  291MOL0     H38374   3.532   3.022   3.494 -0.8929  1.3407 -0.2943
  291MOL0     H38375   3.345   3.132   3.421  0.5815 -0.0741  0.7511
  291MOL0     H38376   2.868   3.223   3.397 -1.0957  1.9905 -1.6837
  291MOL0     H38377   2.622   3.277   3.368 -1.1464 -0.7500 -2.4090
  291MOL0     H38378   2.246   2.993   3.325  0.9429 -0.0470  2.1662
  291MOL0     H38379   2.376   2.981   3.201 -1.4258  0.9010 -2.2108
  291MOL0     H38380   2.161   3.189   3.228  1.2862  1.6888  1.3471
  291MOL0     H38381   2.199   3.082   3.091  4.3593 -4.4366 -0.2284
  291MOL0     H38382   2.273   3.270   3.004 -2.0867  0.3848  1.2434
  291MOL0     H38383   2.431   3.232   3.078  2.2868  4.8112  1.1622
  291MOL0     H38384   2.207   3.419   3.144 -0.6806  0.1443  0.9151
  291MOL0     H38385   2.327   3.377   3.271  0.2861 -1.7566 -0.6581
  291MOL0     H38386   2.365   3.597   3.122  0.7714  1.2972 -0.9261
  291MOL0     H38387   2.389   3.483   2.981 -2.3458 -1.0388 -0.5454
  291MOL0     H38388   2.559   3.477   3.237  0.1204 -0.0786 -0.3187
  291MOL0     H38389   2.582   3.600   3.107  2.9574 -0.5325  1.2862
  291MOL0     H38390   2.631   3.304   3.105 -0.5715 -1.1614 -2.0488
  291MOL0     H38391   2.600   3.382   2.954 -0.6739  2.3238  0.2770
  291MOL0     H38392   2.822   3.439   3.159 -2.5464  2.3868  1.1245
  291MOL0     H38393   2.809   3.527   3.021  1.2895  1.0103  2.0765
  291MOL0     H38394   2.539   2.871   3.297  1.2153 -0.6109 -1.8144
  291MOL0     H38395   2.763   2.810   3.330  0.1302  0.1487 -0.5675
  291MOL0     H38396   3.104   2.766   3.484 -0.7223  0.3318  3.4083
  291MOL0     H38397   3.304   2.661   3.564 -1.8018  0.0199  0.0701
  291MOL0     H38398   3.890   3.727   4.426  0.2589  2.0316 -1.5375
  291MOL0     H38399   3.939   3.923   4.569  0.9466 -0.2565  2.6397
  291MOL0     H38400   4.278   3.979   4.932  0.2935  0.1023 -1.7432
  291MOL0     H38401   4.386   4.090   5.123 -0.2650  0.3650 -0.8976
  291MOL0     H38402   4.692   4.432   5.040  1.8427  0.8545  2.4983
  291MOL0     H38403   4.661   4.430   5.204  2.2349 -2.6254  0.7205
  291MOL0     H38404   4.518   4.545   4.990 -0.2224 -0.6577 -0.3315
  291MOL0     H38405   4.405   4.443   5.085 -1.4874  2.7136 -0.1437
  291MOL0     H38406   4.593   4.668   5.170 -1.7605  2.3215 -1.0781
  291MOL0     H38407   4.531   4.564   5.306  0.6123  2.3184  1.4023
  291MOL0     H38408   4.345   4.743   5.122 -2.7022 -2.1490 -0.4781
  291MOL0     H38409   4.302   4.610   5.226  0.5795  0.2298 -1.0683
  291MOL0     H38410   4.401   4.895   5.509 -0.0640  0.4724 -0.5948
  291MOL0     H38411   4.654   4.289   4.863  1.8400 -2.4115  1.9530
  291MOL0     H38412   4.537   4.216   4.682  1.2349  3.9810  2.4661
  292MOL0     O38413   0.237   0.407   9.435  0.3199  0.3480  0.0269
  292MOL0     C38414   0.228   0.472   9.538 -0.0103 -0.1863 -0.1731
  292MOL0     O38415   0.133   0.566   9.563 -0.2259  0.5054  0.0976
  292MOL0     C38416   0.036   0.574   9.468  0.1553 -0.0890  0.0676
  292MOL0     C38417   0.024   0.697   9.397  0.9248 -0.5090 -0.0526
  292MOL0     C38418  -0.092   0.719   9.320  0.1542 -0.6806 -0.4054
  292MOL0     C38419  -0.188   0.614   9.307  0.6012  0.0876 -0.4034
  292MOL0     O38420  -0.307   0.625   9.235 -0.7484 -0.0181  0.1448
  292MOL0     C38421  -0.345   0.757   9.199 -0.0950 -0.5652 -0.9580
  292MOL0     C38422  -0.487   0.743   9.157  0.6817 -0.1828 -0.0991
  292MOL0     C38423  -0.549   0.881   9.147 -0.2712  1.0366 -0.4987
  292MOL0     C38424  -0.698   0.862   9.097  0.5452  0.2098 -0.1940
  292MOL0     C38425  -0.764   0.999   9.053 -0.0826 -0.2253 -0.5418
  292MOL0     C38426  -0.806   1.095   9.157  0.1057 -0.0731 -0.5233
  292MOL0     C38427  -0.901   1.198   9.090 -0.4911  0.3226  0.2941
  292MOL0     C38428  -0.937   1.315   9.191 -0.0444 -0.5802 -1.2319
  292MOL0     N38429  -1.040   1.394   9.130 -0.0612 -0.0817 -0.6395
  292MOL0     C38430  -1.172   1.412   9.179 -0.0768  0.5747  0.4287
  292MOL0     C38431  -1.229   1.486   9.085  0.2456  0.4732  0.4394
  292MOL0     C38432  -1.368   1.542   9.097  0.6172  0.0445  0.6494
  292MOL0     C38433  -1.343   1.688   9.143 -0.2005 -0.0708  0.2863
  292MOL0     C38434  -1.358   1.691   9.295  0.7616  0.3868 -0.4495
  292MOL0     C38435  -1.286   1.817   9.343  0.0942 -1.1756 -0.4512
  292MOL0     O38436  -1.317   1.841   9.477 -0.0447  0.4272 -0.4711
  292MOL0     C38437  -1.436   1.894   9.525  0.0855 -0.1984 -0.1877
  292MOL0     C38438  -1.523   1.968   9.442 -0.6722  0.2735  0.5518
  292MOL0     C38439  -1.648   2.024   9.479 -0.1472  0.5372  0.5837
  292MOL0     C38440  -1.686   2.011   9.610 -0.6042 -0.2795 -0.8377
  292MOL0     C38441  -1.812   2.069   9.658  0.2752  0.0195 -0.6681
  292MOL0     O38442  -1.859   2.043   9.785 -1.0618 -0.2037  0.4554
  292MOL0     C38443  -1.991   2.058   9.819 -0.7982  0.4386 -0.0003
  292MOL0     C38444  -2.098   2.062   9.727 -0.3369  0.4431 -0.2730
  292MOL0     C38445  -2.231   2.068   9.766  0.3351 -0.3960  0.3746
  292MOL0     C38446  -2.265   2.102   9.897 -0.3520 -0.5496 -0.0575
  292MOL0     O38447  -2.391   2.129   9.939 -0.3981  0.2963  0.4600
  292MOL0     C38448  -2.497   2.168   9.854  0.1547  0.0568  0.0123
  292MOL0     C38449  -2.620   2.206   9.948  0.0961  1.2998  0.1088
  292MOL0     C38450  -2.694   2.094  10.013  0.2215  1.1664 -0.2170
  292MOL0     C38451  -2.635   2.024  10.138  0.1438 -0.1033 -0.2316
  292MOL0     C38452  -2.709   1.900  10.187 -0.3052 -0.5854  0.0632
  292MOL0     C38453  -2.615   1.827  10.281 -0.9145  0.1608  0.4359
  292MOL0     C38454  -2.519   1.727  10.209  0.0120 -0.3244 -0.0194
  292MOL0     C38455  -2.581   1.606  10.139 -0.2520  0.1359  0.4304
  292MOL0    Cl38456  -2.677   1.503  10.261 -0.3972  0.3014 -0.4377
  292MOL0     C38457  -2.160   2.094   9.987  0.2065 -0.7030  0.6111
  292MOL0     C38458  -2.027   2.065   9.959 -0.2699  1.0781  0.1446
  292MOL0     O38459  -1.874   2.136   9.578  0.3144  0.3533  0.0009
  292MOL0     C38460  -1.601   1.932   9.699  0.1343  0.1198  0.0353
  292MOL0     C38461  -1.476   1.890   9.660  0.6025  0.7737  1.3354
  292MOL0     N38462  -1.141   1.503   8.975 -0.2994 -0.5866  0.9252
  292MOL0     N38463  -1.031   1.455   9.007 -0.2343 -0.1706 -1.2120
  292MOL0     C38464  -0.180   0.496   9.381  0.0893  0.1835  0.1991
  292MOL0     C38465  -0.063   0.463   9.453 -0.7665  0.0931 -0.1790
  292MOL0     C38466   0.332   0.450   9.643 -0.2582 -0.2067 -0.6297
  292MOL0     C38467   0.428   0.341   9.635 -0.5694 -0.5938  0.2022
  292MOL0     C38468   0.526   0.323   9.729  1.0299  0.2429  0.3569
  292MOL0     C38469   0.535   0.407   9.835 -0.6808 -0.7172 -0.6919
  292MOL0     O38470   0.636   0.385   9.916 -0.7222  0.2262  0.0929
  292MOL0     C38471   0.686   0.491   9.999 -0.2564  0.1661 -0.4786
  292MOL0     C38472   0.618   0.468  10.143 -0.2342 -0.4327  0.2582
  292MOL0     C38473   0.683   0.348  10.216  0.6754 -0.1662  0.4209
  292MOL0     C38474   0.581   0.304  10.334  0.1724 -0.3561  0.1530
  292MOL0     C38475   0.622   0.174  10.390 -0.5049 -0.0691  0.6669
  292MOL0     C38476   0.655   0.061  10.410 -0.3897  0.0976 -0.2270
  292MOL0     C38477   0.443   0.510   9.859  0.0552 -1.2954 -0.0134
  292MOL0     C38478   0.344   0.536   9.756  1.0923  0.8257 -1.2538
  292MOL0     H38479   0.092   0.781   9.397  0.7331 -0.2771 -2.5273
  292MOL0     H38480  -0.099   0.811   9.264 -1.6749  0.3944  1.4312
  292MOL0     H38481  -0.295   0.806   9.115 -0.6399  3.6524  0.8843
  292MOL0     H38482  -0.327   0.823   9.285 -1.4834 -1.9750  0.4728
  292MOL0     H38483  -0.541   0.687   9.233 -2.5417  1.9054 -0.6779
  292MOL0     H38484  -0.491   0.687   9.064  0.6388  3.5283 -2.5603
  292MOL0     H38485  -0.491   0.959   9.097  4.0911 -0.7151  1.3316
  292MOL0     H38486  -0.555   0.920   9.249  0.6300  3.6962 -1.4004
  292MOL0     H38487  -0.702   0.803   9.005  2.0234  0.2103 -0.2724
  292MOL0     H38488  -0.756   0.807   9.172  0.6769 -1.5752 -1.3301
  292MOL0     H38489  -0.857   0.979   8.998 -0.2042  3.1283 -1.8141
  292MOL0     H38490  -0.704   1.048   8.976  0.5288 -0.5904 -0.3010
  292MOL0     H38491  -0.714   1.146   9.189  1.0254 -0.2326 -2.7492
  292MOL0     H38492  -0.861   1.049   9.240 -3.5942 -1.7987 -3.6660
  292MOL0     H38493  -0.863   1.253   9.004 -3.2683  1.4203 -0.3444
  292MOL0     H38494  -0.993   1.151   9.054  0.2136  0.2859 -1.5705
  292MOL0     H38495  -0.852   1.383   9.201 -0.3655 -0.4492  1.1651
  292MOL0     H38496  -0.963   1.274   9.290  0.9051  1.4438 -0.0907
  292MOL0     H38497  -1.219   1.365   9.265 -0.3500 -0.8439 -0.4561
  292MOL0     H38498  -1.441   1.506   9.169  0.3248  2.2091  1.5075
  292MOL0     H38499  -1.409   1.542   8.995 -0.3545  0.2692  1.0320
  292MOL0     H38500  -1.420   1.752   9.100  0.0539 -1.3775 -2.2776
  292MOL0     H38501  -1.251   1.732   9.104  0.1375 -0.2371  0.8878
  292MOL0     H38502  -1.463   1.699   9.325  1.0559  3.6145  0.1093
  292MOL0     H38503  -1.320   1.602   9.345  2.0957  0.6330 -0.9843
  292MOL0     H38504  -1.316   1.905   9.285  2.9574  3.2592  4.0388
  292MOL0     H38505  -1.177   1.804   9.340  0.8092  2.5632  2.6276
  292MOL0     H38506  -1.499   1.985   9.337 -0.2149  1.8648  0.8917
  292MOL0     H38507  -1.698   2.081   9.401  2.9813  0.8578 -1.3428
  292MOL0     H38508  -2.087   2.052   9.619  0.1201 -1.6230 -0.0911
  292MOL0     H38509  -2.307   2.056   9.689 -0.4496  0.1348  1.0454
  292MOL0     H38510  -2.524   2.082   9.792  2.8082  1.8264 -4.0954
  292MOL0     H38511  -2.459   2.243   9.783  1.9998 -1.7533 -1.0088
  292MOL0     H38512  -2.685   2.262   9.880  1.4550 -2.3494 -4.7126
  292MOL0     H38513  -2.566   2.266  10.022  0.6983  0.7648  0.1178
  292MOL0     H38514  -2.707   2.025   9.929 -1.8297  1.6501 -0.3583
  292MOL0     H38515  -2.789   2.136  10.048 -0.6459 -1.8461  1.4446
  292MOL0     H38516  -2.532   2.002  10.112  1.5670  1.3642  3.4562
  292MOL0     H38517  -2.628   2.106  10.210 -0.0717  1.7645 -2.2294
  292MOL0     H38518  -2.738   1.843  10.098  1.3182  2.5177 -2.6956
  292MOL0     H38519  -2.799   1.930  10.241  0.3036  3.6377 -0.8710
  292MOL0     H38520  -2.677   1.775  10.355 -0.5617  2.3462  2.3893
  292MOL0     H38521  -2.546   1.897  10.328 -0.8290  0.3325  0.0606
  292MOL0     H38522  -2.459   1.780  10.134  3.7300  2.7222  4.5328
  292MOL0     H38523  -2.444   1.692  10.281  0.7734  1.7844  0.2635
  292MOL0     H38524  -2.496   1.551  10.098 -0.4995 -1.1629  1.5701
  292MOL0     H38525  -2.647   1.629  10.055 -0.3659 -1.1493  0.1528
  292MOL0     H38526  -2.180   2.138  10.084 -0.5980 -0.7653  0.4754
  292MOL0     H38527  -1.953   2.048  10.037  1.6125 -1.8406 -2.0437
  292MOL0     H38528  -1.614   1.927   9.807  3.4221  1.4396  0.6147
  292MOL0     H38529  -1.396   1.857   9.726  1.7759  0.6304 -0.1015
  292MOL0     H38530  -0.259   0.423   9.365 -1.0629  0.8632  2.3097
  292MOL0     H38531  -0.034   0.373   9.506  2.5050  1.7533  1.1430
  292MOL0     H38532   0.423   0.272   9.552 -0.3028  0.5360 -0.7856
  292MOL0     H38533   0.585   0.232   9.721 -1.9062 -1.7506 -0.2917
  292MOL0     H38534   0.665   0.594   9.969  0.5109 -0.3950 -3.2713
  292MOL0     H38535   0.795   0.492   9.994 -0.2652 -1.0139 -1.3913
  292MOL0     H38536   0.621   0.562  10.200  1.3288  1.8679 -3.1997
  292MOL0     H38537   0.512   0.456  10.122  0.1794 -0.3176 -2.2493
  292MOL0     H38538   0.783   0.368  10.257  0.4731  0.2528  0.7160
  292MOL0     H38539   0.707   0.270  10.143 -2.1010  0.0152 -0.8072
  292MOL0     H38540   0.589   0.372  10.419  2.4866  0.8368 -0.9231
  292MOL0     H38541   0.482   0.297  10.289  0.9476 -4.8812 -1.3478
  292MOL0     H38542   0.681  -0.037  10.444  2.5925  0.3178 -1.5339
  292MOL0     H38543   0.448   0.579   9.942  4.7571 -1.6856  0.3127
  292MOL0     H38544   0.288   0.629   9.765  0.6231  0.6136 -1.8593
  293MOL0     O38545   7.827   9.550   4.538  0.5308 -0.8967 -0.0015
  293MOL0     C38546   7.928   9.570   4.610  1.1493 -0.5562  1.0239
  293MOL0     O38547   7.939   9.545   4.739 -0.2876 -0.2300 -0.2657
  293MOL0     C38548   7.832   9.507   4.815 -0.4434  0.9038 -0.0733
  293MOL0     C38549   7.800   9.572   4.923 -0.2766 -0.5262  0.4280
  293MOL0     C38550   7.700   9.527   5.014  0.7270  0.3022 -0.9438
  293MOL0     C38551   7.644   9.401   4.994  0.2153 -0.7655 -0.2549
  293MOL0     O38552   7.555   9.357   5.087  0.3472 -0.4678  0.0550
  293MOL0     C38553   7.596   9.236   5.170  0.7854 -0.9005  0.3425
  293MOL0     C38554   7.696   9.278   5.285 -0.3522  0.5296  0.0869
  293MOL0     C38555   7.702   9.201   5.414  0.3999  0.5259  0.1518
  293MOL0     C38556   7.778   9.080   5.393 -0.2358  0.9387  1.0060
  293MOL0     C38557   7.766   8.980   5.508 -1.0698  0.0500 -1.3020
  293MOL0     C38558   7.632   8.907   5.527 -0.4364 -0.4429 -1.0900
  293MOL0     C38559   7.619   8.854   5.673  0.2949  0.1174 -0.1355
  293MOL0     C38560   7.743   8.774   5.719  0.1112  0.8969  0.3045
  293MOL0     N38561   7.713   8.713   5.850 -0.2921  0.6154  0.4746
  293MOL0     C38562   7.611   8.622   5.871 -0.1123 -0.9176 -0.5394
  293MOL0     C38563   7.630   8.555   5.983 -0.5371 -0.1899  0.2258
  293MOL0     C38564   7.539   8.447   6.034  0.3020  0.0012 -0.0875
  293MOL0     C38565   7.436   8.495   6.137 -0.1568 -0.0305  0.6998
  293MOL0     C38566   7.307   8.526   6.061  0.4861  0.6539 -0.9045
  293MOL0     C38567   7.189   8.576   6.146 -0.3403 -0.1313  0.1800
  293MOL0     O38568   7.144   8.481   6.230 -0.1076 -0.2757  0.1443
  293MOL0     C38569   7.044   8.508   6.312 -0.4676  0.6154 -0.1007
  293MOL0     C38570   7.012   8.633   6.360 -0.3650  0.6376 -0.5540
  293MOL0     C38571   6.927   8.656   6.471 -0.1798 -0.5088 -0.1542
  293MOL0     C38572   6.858   8.548   6.524  0.1608 -0.2557 -0.0641
  293MOL0     C38573   6.759   8.561   6.639 -0.0557  0.6354 -0.4659
  293MOL0     O38574   6.680   8.457   6.670  0.5750 -0.6519 -0.0551
  293MOL0     C38575   6.604   8.467   6.786  0.6860  0.1664  0.5632
  293MOL0     C38576   6.471   8.433   6.774  0.3433 -0.5627  0.4789
  293MOL0     C38577   6.384   8.449   6.883 -0.9541 -0.5260  0.3083
  293MOL0     C38578   6.429   8.486   7.013 -0.8727 -1.0061 -0.4763
  293MOL0     O38579   6.346   8.519   7.120 -0.1738 -0.0031 -0.2782
  293MOL0     C38580   6.202   8.527   7.092  0.0649  1.2446  0.0151
  293MOL0     C38581   6.116   8.556   7.217 -0.3080  0.5551  0.0534
  293MOL0     C38582   6.092   8.430   7.310 -0.0941 -0.6947 -1.6692
  293MOL0     C38583   6.005   8.319   7.252  0.0476  0.2656  0.4022
  293MOL0     C38584   6.008   8.191   7.340  0.2901  0.1164 -0.5896
  293MOL0     C38585   5.871   8.119   7.351  0.0827  0.2552 -0.2119
  293MOL0     C38586   5.854   8.002   7.446 -0.3890 -0.3234 -0.8523
  293MOL0     C38587   5.845   8.031   7.594  0.1689  0.4414 -0.7847
  293MOL0    Cl38588   5.689   8.127   7.627 -0.2438  0.5238  0.6362
  293MOL0     C38589   6.567   8.504   7.032  0.5751  0.6322  0.1287
  293MOL0     C38590   6.653   8.488   6.916  0.1410  0.0881  0.6725
  293MOL0     O38591   6.768   8.661   6.704 -0.1809  0.1887 -0.3839
  293MOL0     C38592   6.878   8.421   6.471  0.3615  0.1064  0.0292
  293MOL0     C38593   6.969   8.403   6.361  0.2614  0.0757  0.2799
  293MOL0     N38594   7.739   8.608   6.035  0.7405  0.8570  0.0990
  293MOL0     N38595   7.784   8.703   5.968 -1.4952 -0.6342  0.2501
  293MOL0     C38596   7.683   9.324   4.884  0.0297  0.3557  1.1133
  293MOL0     C38597   7.771   9.382   4.787 -1.4226  1.1064 -1.2515
  293MOL0     C38598   8.044   9.609   4.516  0.4160 -0.3278  0.7202
  293MOL0     C38599   8.030   9.653   4.385  0.5889 -1.2512  0.1097
  293MOL0     C38600   8.139   9.707   4.312  0.1413 -0.4181 -0.6949
  293MOL0     C38601   8.267   9.699   4.364 -0.7172  0.0826 -1.0404
  293MOL0     O38602   8.373   9.742   4.293 -0.2255  0.5432 -0.4483
  293MOL0     C38603   8.366   9.753   4.150 -0.1835 -0.3678 -0.2559
  293MOL0     C38604   8.361   9.898   4.102  0.1591  0.3022 -0.3062
  293MOL0     C38605   8.366   9.909   3.957  0.6785 -0.3793  0.4004
  293MOL0     C38606   8.453   9.809   3.884 -0.2679 -0.0401  0.0378
  293MOL0     C38607   8.453   9.826   3.738 -0.4588 -0.0783  0.0862
  293MOL0     C38608   8.456   9.850   3.618 -0.1332 -0.7141 -0.0597
  293MOL0     C38609   8.282   9.645   4.493 -0.6994 -0.0225 -0.2630
  293MOL0     C38610   8.171   9.612   4.570  0.1238 -0.4782 -0.1257
  293MOL0     H38611   7.852   9.666   4.941  0.2194 -0.2691 -2.0516
  293MOL0     H38612   7.678   9.578   5.107 -2.9267 -1.2376 -0.7829
  293MOL0     H38613   7.643   9.147   5.126 -1.3069 -2.3894  0.9724
  293MOL0     H38614   7.503   9.195   5.210 -0.1176 -1.4854 -2.1464
  293MOL0     H38615   7.676   9.383   5.310  0.5482  0.8591 -0.5390
  293MOL0     H38616   7.796   9.275   5.241 -0.5344  5.4803 -1.3026
  293MOL0     H38617   7.601   9.169   5.442  1.0299 -2.0598 -0.2097
  293MOL0     H38618   7.737   9.278   5.483 -1.8876  2.5040 -0.7382
  293MOL0     H38619   7.762   9.042   5.292  4.4373  0.1849  0.3167
  293MOL0     H38620   7.884   9.110   5.395 -0.1037  1.5576 -3.6478
  293MOL0     H38621   7.788   9.042   5.595  0.6819  4.0515 -4.2494
  293MOL0     H38622   7.848   8.907   5.507 -3.1412 -2.7471  3.2487
  293MOL0     H38623   7.621   8.820   5.462  1.4357 -0.6730 -1.1698
  293MOL0     H38624   7.542   8.963   5.501  0.3107  1.2311 -0.2237
  293MOL0     H38625   7.601   8.939   5.739  0.6615 -1.0980  1.5821
  293MOL0     H38626   7.524   8.800   5.675 -0.8448  2.0442  0.5691
  293MOL0     H38627   7.833   8.831   5.746  0.6269 -1.1936  3.5295
  293MOL0     H38628   7.758   8.688   5.652  2.8453  1.9531 -0.5782
  293MOL0     H38629   7.534   8.591   5.801 -0.6430  0.9239 -0.8493
  293MOL0     H38630   7.592   8.359   6.073  0.7665  0.9277  1.4757
  293MOL0     H38631   7.493   8.403   5.945  0.2039 -2.4204  1.0848
  293MOL0     H38632   7.483   8.581   6.186  3.5329 -1.5372  0.1001
  293MOL0     H38633   7.441   8.416   6.212  3.5677 -0.4285  0.2366
  293MOL0     H38634   7.331   8.613   5.999  3.1017 -0.6325 -1.8663
  293MOL0     H38635   7.267   8.438   6.010 -1.6952 -1.1740  3.4184
  293MOL0     H38636   7.113   8.594   6.070 -0.7959  0.8016  0.8386
  293MOL0     H38637   7.213   8.667   6.201 -1.0583  0.6928 -0.8335
  293MOL0     H38638   7.084   8.710   6.333 -0.5731 -0.0138 -3.2155
  293MOL0     H38639   6.928   8.755   6.515 -0.0801 -0.1567 -0.9237
  293MOL0     H38640   6.427   8.397   6.682 -0.6115 -0.7081  0.9680
  293MOL0     H38641   6.285   8.406   6.870 -0.3085 -1.3142 -3.0643
  293MOL0     H38642   6.166   8.430   7.055  1.3622 -1.3849  4.7469
  293MOL0     H38643   6.183   8.601   7.014  0.0930 -0.9747 -2.2287
  293MOL0     H38644   6.019   8.578   7.170 -0.1805 -1.4651 -1.3341
  293MOL0     H38645   6.150   8.636   7.282 -0.8509 -1.3146  2.8152
  293MOL0     H38646   6.051   8.469   7.404  2.4749 -2.0745  0.1559
  293MOL0     H38647   6.194   8.393   7.326  0.3283  1.2921  0.9515
  293MOL0     H38648   5.898   8.340   7.250  0.0389  0.2775 -2.1328
  293MOL0     H38649   6.039   8.286   7.154  1.3777  0.0744  0.9022
  293MOL0     H38650   6.020   8.223   7.444 -1.0388  1.5804 -0.8397
  293MOL0     H38651   6.092   8.127   7.314  2.1045  2.8583 -1.8680
  293MOL0     H38652   5.851   8.073   7.253 -3.1043 -2.4374  1.4870
  293MOL0     H38653   5.793   8.194   7.368 -0.4664 -0.5187  0.7399
  293MOL0     H38654   5.768   7.942   7.416  2.6125 -4.3807 -2.3116
  293MOL0     H38655   5.934   7.928   7.434 -0.1248 -0.5134  1.5992
  293MOL0     H38656   5.935   8.085   7.623  0.3584 -0.2394 -0.0746
  293MOL0     H38657   5.832   7.933   7.640 -0.2460  1.1521  0.6819
  293MOL0     H38658   6.606   8.535   7.128  0.8381  0.7428 -0.0159
  293MOL0     H38659   6.755   8.522   6.925  0.1752 -0.0593  0.8411
  293MOL0     H38660   6.833   8.331   6.511  0.9868 -0.7773 -1.1971
  293MOL0     H38661   6.989   8.299   6.338 -0.8842 -0.8128  2.9044
  293MOL0     H38662   7.635   9.231   4.856 -0.2089  0.9910 -0.7986
  293MOL0     H38663   7.809   9.323   4.705 -0.4052 -0.3081  0.1691
  293MOL0     H38664   7.932   9.649   4.339 -0.4797  0.6882  2.0070
  293MOL0     H38665   8.110   9.762   4.223  4.3194  1.3841 -1.1872
  293MOL0     H38666   8.294   9.683   4.106  0.8354 -2.8509  1.7844
  293MOL0     H38667   8.462   9.706   4.125 -0.6498  0.0910 -3.1971
  293MOL0     H38668   8.278   9.960   4.139 -0.2735 -1.0989  1.1662
  293MOL0     H38669   8.452   9.948   4.137  0.1796 -1.5085  2.5062
  293MOL0     H38670   8.403  10.010   3.936 -3.8002  1.6991  1.2260
  293MOL0     H38671   8.266   9.915   3.912  1.3043 -0.0927 -1.0234
  293MOL0     H38672   8.556   9.821   3.919 -0.4157 -2.0822  1.4023
  293MOL0     H38673   8.433   9.703   3.904  0.2027 -0.7123 -2.7081
  293MOL0     H38674   8.470   9.868   3.513  2.0082 -2.7282 -0.2072
  293MOL0     H38675   8.382   9.644   4.534 -0.2892  2.7415 -0.9586
  293MOL0     H38676   8.193   9.585   4.673 -0.7138 -1.3601 -0.1611
  294MOL0     O38677   3.673   1.353   8.458  0.2591 -0.5106 -1.2188
  294MOL0     C38678   3.721   1.313   8.570  0.5012 -0.4778  0.0443
  294MOL0     O38679   3.840   1.252   8.592 -0.1573 -0.1743 -0.5516
  294MOL0     C38680   3.917   1.210   8.495  0.3205  0.6961 -0.4766
  294MOL0     C38681   4.058   1.231   8.499 -0.8158  0.0565  0.1171
  294MOL0     C38682   4.147   1.192   8.393  0.9110  0.0083 -0.5377
  294MOL0     C38683   4.090   1.140   8.277  0.0383 -0.5314  0.0805
  294MOL0     O38684   4.170   1.088   8.181  0.5829  0.0163  0.5717
  294MOL0     C38685   4.185   1.170   8.064  0.5054  0.2034  0.0764
  294MOL0     C38686   4.248   1.108   7.947 -0.6345  0.0516 -0.6572
  294MOL0     C38687   4.288   1.212   7.836 -0.2765  1.0719  0.4753
  294MOL0     C38688   4.181   1.295   7.790  1.0858  0.2067 -0.6356
  294MOL0     C38689   4.209   1.388   7.674 -1.0269  0.2458 -0.0264
  294MOL0     C38690   4.080   1.410   7.594  0.0176  0.8042 -0.4171
  294MOL0     C38691   4.099   1.481   7.465 -0.3678 -0.4646  0.3571
  294MOL0     C38692   4.172   1.612   7.482 -0.4155 -0.8045  0.3657
  294MOL0     N38693   4.193   1.688   7.355 -0.1667  0.3791  0.4508
  294MOL0     C38694   4.269   1.631   7.258  0.7258  0.3701 -0.5915
  294MOL0     C38695   4.235   1.701   7.143 -0.0242 -0.6894  0.2144
  294MOL0     C38696   4.316   1.686   7.016  0.5195  0.7263  0.4538
  294MOL0     C38697   4.219   1.700   6.901 -0.0906  0.5869  0.9813
  294MOL0     C38698   4.274   1.703   6.758  0.1494 -0.7806 -1.2316
  294MOL0     C38699   4.327   1.570   6.702  0.1104  0.4286  0.0771
  294MOL0     O38700   4.456   1.550   6.760 -0.7530  0.6446  0.0580
  294MOL0     C38701   4.528   1.443   6.735  0.9366 -0.5169 -0.4207
  294MOL0     C38702   4.641   1.421   6.806 -0.9605  0.7642  0.5869
  294MOL0     C38703   4.722   1.301   6.798  0.3466  0.2518  0.3386
  294MOL0     C38704   4.698   1.215   6.693 -0.2577 -0.1969  1.3228
  294MOL0     C38705   4.788   1.103   6.653  0.1858  0.0005  0.0999
  294MOL0     O38706   4.747   1.011   6.568  0.0256  0.2539 -0.4740
  294MOL0     C38707   4.839   0.937   6.496 -0.7584  0.3558 -0.4977
  294MOL0     C38708   4.854   0.798   6.512  0.8769  0.6895  0.3151
  294MOL0     C38709   4.947   0.723   6.435 -0.2216 -0.3811  0.3938
  294MOL0     C38710   5.036   0.787   6.357 -0.1021 -0.2840  0.3233
  294MOL0     O38711   5.132   0.709   6.294 -0.0319  0.6394 -0.0901
  294MOL0     C38712   5.220   0.767   6.199  0.2125  0.5229 -0.4305
  294MOL0     C38713   5.286   0.648   6.120  0.1858 -0.7868 -0.0103
  294MOL0     C38714   5.416   0.690   6.048  0.4099 -1.1271 -1.0596
  294MOL0     C38715   5.493   0.573   5.992 -0.5091 -0.2947 -0.0062
  294MOL0     C38716   5.583   0.514   6.093 -0.1822  0.5055 -0.6781
  294MOL0     C38717   5.701   0.438   6.030  0.3354  0.3330  0.1272
  294MOL0     C38718   5.676   0.281   6.029 -0.0489 -0.3662  0.2280
  294MOL0     C38719   5.557   0.236   5.937  0.0337 -1.0385  0.4416
  294MOL0    Cl38720   5.408   0.238   6.038 -0.0922 -0.6586  0.3147
  294MOL0     C38721   5.021   0.929   6.337  0.1834  0.4211  0.4035
  294MOL0     C38722   4.923   1.004   6.404 -0.5598  0.2037  0.2088
  294MOL0     O38723   4.903   1.115   6.691 -0.2458 -0.6964  0.1278
  294MOL0     C38724   4.574   1.229   6.618 -0.2910 -0.3675 -0.2696
  294MOL0     C38725   4.488   1.335   6.646 -1.0806 -0.3449  0.7373
  294MOL0     N38726   4.147   1.805   7.181 -0.6099 -0.2758 -0.2465
  294MOL0     N38727   4.117   1.795   7.307  0.2081  0.4256  0.6196
  294MOL0     C38728   3.955   1.104   8.279  0.1536 -0.0308 -0.6203
  294MOL0     C38729   3.867   1.136   8.390 -0.8913  0.5976  0.3011
  294MOL0     C38730   3.631   1.332   8.692 -0.0584 -0.6896  1.4447
  294MOL0     C38731   3.488   1.352   8.678 -0.0605 -0.5377  0.0896
  294MOL0     C38732   3.421   1.381   8.798  0.1615  0.1855  0.1787
  294MOL0     C38733   3.471   1.368   8.930 -0.6246  0.2723 -0.3079
  294MOL0     O38734   3.390   1.375   9.040 -0.4542 -0.1073 -0.3375
  294MOL0     C38735   3.448   1.442   9.155  0.0325 -0.1063  0.3285
  294MOL0     C38736   3.340   1.493   9.252 -1.4204  0.4702 -0.1591
  294MOL0     C38737   3.244   1.383   9.283  0.0932  0.3591  0.1071
  294MOL0     C38738   3.158   1.416   9.407  1.1401  0.9888  0.1242
  294MOL0     C38739   3.240   1.453   9.526  0.9608  0.6655 -0.0096
  294MOL0     C38740   3.303   1.492   9.618  0.5539 -0.2426  0.0719
  294MOL0     C38741   3.600   1.334   8.939  0.1049 -0.5589 -0.3635
  294MOL0     C38742   3.681   1.314   8.821  0.3664 -0.0994 -0.0918
  294MOL0     H38743   4.104   1.271   8.588  0.5628  0.5990 -0.8147
  294MOL0     H38744   4.254   1.212   8.394  1.1856 -0.7261 -4.1513
  294MOL0     H38745   4.245   1.257   8.090 -0.7464  1.1142 -0.0027
  294MOL0     H38746   4.082   1.190   8.033 -0.9584 -3.8789  1.6398
  294MOL0     H38747   4.188   1.023   7.911 -1.8399 -0.3558  2.0528
  294MOL0     H38748   4.339   1.055   7.978 -1.5585 -0.7461  0.8287
  294MOL0     H38749   4.320   1.155   7.749 -0.1249 -0.6183  1.5995
  294MOL0     H38750   4.366   1.279   7.875 -1.9305  2.0891  2.1940
  294MOL0     H38751   4.102   1.228   7.755 -0.3509  0.8590  1.1628
  294MOL0     H38752   4.128   1.349   7.869 -0.1240  2.4621 -2.8540
  294MOL0     H38753   4.293   1.361   7.609 -0.3436  4.4489 -1.2032
  294MOL0     H38754   4.250   1.483   7.711 -2.3189  0.2688  1.4455
  294MOL0     H38755   4.011   1.470   7.654  2.3964  1.6407  1.6340
  294MOL0     H38756   4.035   1.311   7.585 -0.6231  1.1668 -1.3929
  294MOL0     H38757   4.152   1.404   7.407 -0.3334 -2.1930  2.5183
  294MOL0     H38758   4.000   1.503   7.425  0.0129  1.5774  0.4697
  294MOL0     H38759   4.263   1.593   7.539 -1.2303 -0.8268  1.6864
  294MOL0     H38760   4.100   1.673   7.537 -1.5037 -0.2560 -1.5411
  294MOL0     H38761   4.321   1.536   7.253 -4.7590 -3.2761  1.6665
  294MOL0     H38762   4.357   1.585   7.002  0.4690  0.9025 -1.1583
  294MOL0     H38763   4.398   1.758   7.012 -0.7308  2.4436  3.0792
  294MOL0     H38764   4.173   1.796   6.925  1.2240  0.3164  5.4657
  294MOL0     H38765   4.159   1.610   6.914 -0.5318  0.7982  0.4367
  294MOL0     H38766   4.195   1.742   6.693  1.7834  0.5756 -2.4959
  294MOL0     H38767   4.359   1.771   6.764  2.2506 -3.2682 -1.3905
  294MOL0     H38768   4.330   1.576   6.593 -2.0342  1.7706  0.0302
  294MOL0     H38769   4.254   1.488   6.709 -0.1563  0.4982 -1.4683
  294MOL0     H38770   4.674   1.502   6.871 -1.0935  1.9789 -0.8160
  294MOL0     H38771   4.812   1.297   6.858  2.1115 -0.4625 -2.1808
  294MOL0     H38772   4.795   0.738   6.580 -2.5507  2.5749 -0.7684
  294MOL0     H38773   4.967   0.616   6.440  0.1595 -0.3685 -0.6780
  294MOL0     H38774   5.299   0.829   6.242 -0.6133  0.1580  1.7442
  294MOL0     H38775   5.154   0.824   6.133 -0.4167  0.1653 -0.1252
  294MOL0     H38776   5.219   0.610   6.043 -2.2319  2.3872  0.2912
  294MOL0     H38777   5.311   0.575   6.198  1.0949 -0.1763  0.3029
  294MOL0     H38778   5.480   0.746   6.116  0.4666  0.8588 -2.6288
  294MOL0     H38779   5.394   0.754   5.962  0.9851 -1.0907 -1.1852
  294MOL0     H38780   5.441   0.482   5.961  0.3670 -1.7043  2.3520
  294MOL0     H38781   5.552   0.613   5.910 -3.6697 -0.0545 -2.3486
  294MOL0     H38782   5.512   0.460   6.157 -0.5681  1.7249 -0.0210
  294MOL0     H38783   5.636   0.587   6.155 -0.5318  0.1895  0.0138
  294MOL0     H38784   5.796   0.457   6.080  1.3487  1.1094 -1.9410
  294MOL0     H38785   5.724   0.472   5.928 -0.8353  1.1107  0.0968
  294MOL0     H38786   5.768   0.248   5.979  1.0452  2.1903  0.3968
  294MOL0     H38787   5.673   0.235   6.128 -2.9588 -0.8643 -0.0254
  294MOL0     H38788   5.577   0.134   5.904  0.6462 -1.4748  2.0707
  294MOL0     H38789   5.533   0.291   5.846 -0.6460 -2.3072 -0.1658
  294MOL0     H38790   5.097   0.983   6.282  0.7981 -0.5071  0.3323
  294MOL0     H38791   4.925   1.110   6.381  0.2990  0.0906 -0.3099
  294MOL0     H38792   4.554   1.148   6.549 -1.4145 -1.7049  1.5401
  294MOL0     H38793   4.399   1.330   6.584  0.5754 -1.8392 -1.6786
  294MOL0     H38794   3.934   1.046   8.190  0.1840 -1.6356  0.3598
  294MOL0     H38795   3.762   1.120   8.370 -0.7707  2.6263 -2.6245
  294MOL0     H38796   3.426   1.366   8.590  0.1023 -0.0705  0.0434
  294MOL0     H38797   3.319   1.409   8.776 -0.1401 -0.7919  0.2836
  294MOL0     H38798   3.517   1.524   9.131 -1.5042  0.5809 -2.1770
  294MOL0     H38799   3.515   1.369   9.202  1.9441 -0.6650 -2.9299
  294MOL0     H38800   3.392   1.522   9.344 -5.5361 -0.0128  2.5872
  294MOL0     H38801   3.281   1.578   9.215 -1.1416 -0.9126 -4.2981
  294MOL0     H38802   3.299   1.289   9.291  0.2513  0.4558  0.1589
  294MOL0     H38803   3.168   1.371   9.205 -1.9920  0.3422  2.0583
  294MOL0     H38804   3.089   1.499   9.389 -2.0781 -1.3655  0.6658
  294MOL0     H38805   3.111   1.321   9.436  0.0820  1.0735 -1.1871
  294MOL0     H38806   3.364   1.517   9.703  1.7449 -1.6897 -0.3108
  294MOL0     H38807   3.643   1.304   9.034 -1.0852 -1.5603 -0.1144
  294MOL0     H38808   3.788   1.296   8.821  0.2522 -1.0106 -2.1655
  295MOL0     O38809   6.681   1.156   1.071 -0.4625 -0.1384  0.3193
  295MOL0     C38810   6.580   1.206   1.116  0.5111  0.5884 -0.0248
  295MOL0     O38811   6.513   1.138   1.216 -0.4071 -0.0032 -0.2895
  295MOL0     C38812   6.583   1.079   1.319  0.0119  0.8596  0.1255
  295MOL0     C38813   6.690   1.148   1.372 -0.8198 -0.5281 -0.0733
  295MOL0     C38814   6.761   1.102   1.485 -0.5070  0.2532 -0.1459
  295MOL0     C38815   6.710   0.985   1.544 -1.5736 -0.2083 -1.3982
  295MOL0     O38816   6.765   0.917   1.653 -0.1325 -0.6152 -0.4481
  295MOL0     C38817   6.897   0.923   1.696  0.1606  0.2431  0.9978
  295MOL0     C38818   6.912   0.961   1.846 -0.2859  0.2976 -0.1845
  295MOL0     C38819   6.912   0.831   1.928 -0.5075  0.1204  0.1981
  295MOL0     C38820   6.855   0.853   2.065 -0.3825  0.5392  0.0589
  295MOL0     C38821   6.805   0.717   2.116 -0.3140 -0.2757  0.1619
  295MOL0     C38822   6.768   0.738   2.268  0.7238  0.3432 -0.0239
  295MOL0     C38823   6.733   0.606   2.329 -0.4131  0.0576 -0.2831
  295MOL0     C38824   6.593   0.558   2.288  0.7114 -0.0020 -0.6277
  295MOL0     N38825   6.537   0.461   2.382 -0.4656  0.9565  0.8455
  295MOL0     C38826   6.530   0.479   2.521  0.4013  0.6645 -0.5468
  295MOL0     C38827   6.511   0.349   2.562  1.4875  0.2721  0.4822
  295MOL0     C38828   6.492   0.281   2.690  0.3984 -0.2354  0.4698
  295MOL0     C38829   6.346   0.232   2.700  0.7797  0.0336 -0.6577
  295MOL0     C38830   6.300   0.191   2.848 -1.5031 -0.1876  0.0659
  295MOL0     C38831   6.161   0.132   2.837 -0.4207  0.2911  0.1075
  295MOL0     O38832   6.058   0.229   2.809  0.3160  0.0702  0.4361
  295MOL0     C38833   5.970   0.198   2.707  0.1402 -0.0916  0.2819
  295MOL0     C38834   5.916   0.075   2.706 -0.2581  0.2910 -0.5314
  295MOL0     C38835   5.841   0.026   2.598 -0.1314  0.0930  1.3825
  295MOL0     C38836   5.806   0.120   2.496 -0.6849 -0.2006  0.0388
  295MOL0     C38837   5.718   0.077   2.385 -0.7158 -0.2747 -0.0133
  295MOL0     O38838   5.720   0.155   2.264  0.4570 -0.3815  0.7586
  295MOL0     C38839   5.648   0.103   2.162  0.7436 -0.3343  0.5104
  295MOL0     C38840   5.531   0.160   2.122  0.6206 -0.1060 -0.7423
  295MOL0     C38841   5.473   0.122   2.001  1.0139  0.1327 -0.6560
  295MOL0     C38842   5.506   0.008   1.935 -0.5662  0.8925  0.5913
  295MOL0     O38843   5.421  -0.032   1.832 -0.9246 -0.2915  0.6166
  295MOL0     C38844   5.350  -0.154   1.863 -0.3590  0.1310 -0.6582
  295MOL0     C38845   5.267  -0.212   1.755 -0.3345 -0.5806  0.4201
  295MOL0     C38846   5.154  -0.124   1.699 -0.1618 -0.8786  0.5619
  295MOL0     C38847   5.067  -0.203   1.611 -0.3261 -0.3657 -0.4822
  295MOL0     C38848   4.966  -0.109   1.543  0.3669 -0.1585  0.4327
  295MOL0     C38849   4.859  -0.193   1.472  0.0578  0.1627  0.0529
  295MOL0     C38850   4.773  -0.090   1.387 -0.3849  0.7394 -0.6480
  295MOL0     C38851   4.688  -0.150   1.284  0.3047  0.8268  0.9460
  295MOL0    Cl38852   4.570  -0.259   1.360 -0.0597 -0.0458 -0.1730
  295MOL0     C38853   5.632  -0.049   1.972  0.0170 -0.6510 -0.4091
  295MOL0     C38854   5.707   0.005   2.082 -0.8550 -0.7296  0.1708
  295MOL0     O38855   5.649  -0.020   2.405  0.9442  0.2807  0.3692
  295MOL0     C38856   5.853   0.249   2.504 -0.1992 -0.8334  0.5952
  295MOL0     C38857   5.940   0.282   2.597 -0.2437  0.7011 -0.6875
  295MOL0     N38858   6.502   0.269   2.453  0.7337 -0.0024  0.4007
  295MOL0     N38859   6.519   0.333   2.339 -0.5728 -0.5066  0.2665
  295MOL0     C38860   6.604   0.916   1.484 -0.6206 -0.0517 -0.3558
  295MOL0     C38861   6.533   0.966   1.382  0.6397  0.2163 -0.6104
  295MOL0     C38862   6.511   1.313   1.035 -0.4461  0.3317 -0.8273
  295MOL0     C38863   6.386   1.375   1.069 -0.7557  0.2951 -1.0350
  295MOL0     C38864   6.314   1.463   1.000  0.6537  0.4660  0.4142
  295MOL0     C38865   6.380   1.518   0.885 -0.1015 -0.1219 -0.5666
  295MOL0     O38866   6.304   1.599   0.807 -0.6419  0.8679  0.3868
  295MOL0     C38867   6.361   1.713   0.735 -1.0032 -0.1692  0.5505
  295MOL0     C38868   6.282   1.730   0.607  0.2738  0.3658  0.3229
  295MOL0     C38869   6.129   1.759   0.632 -0.6262  0.6479  0.0381
  295MOL0     C38870   6.104   1.909   0.663  0.1829  0.3534 -0.2824
  295MOL0     C38871   6.044   1.976   0.551  0.3325  0.4134  0.0400
  295MOL0     C38872   5.982   2.021   0.457  0.7547  0.0448  0.6290
  295MOL0     C38873   6.512   1.484   0.851  0.2036  1.2654 -0.0943
  295MOL0     C38874   6.580   1.378   0.918  0.3610  0.0362  0.6949
  295MOL0     H38875   6.723   1.243   1.330  1.7147 -0.8661  0.9790
  295MOL0     H38876   6.839   1.159   1.534  0.0749 -0.4006 -0.3031
  295MOL0     H38877   6.957   0.995   1.640  1.2236  0.7322  2.6635
  295MOL0     H38878   6.937   0.824   1.674 -0.6498 -0.0251  0.6891
  295MOL0     H38879   6.832   1.032   1.869 -1.3797 -0.9193 -0.1057
  295MOL0     H38880   7.001   1.020   1.869 -0.8975  1.6483 -1.1551
  295MOL0     H38881   7.013   0.788   1.938  0.6548  2.4394 -0.9061
  295MOL0     H38882   6.861   0.753   1.872  0.5847 -0.8551  0.5144
  295MOL0     H38883   6.933   0.896   2.129 -0.1021  0.4324 -0.2067
  295MOL0     H38884   6.777   0.930   2.062 -2.0123 -1.0555 -0.6995
  295MOL0     H38885   6.880   0.638   2.102  2.0739  1.8446  0.3826
  295MOL0     H38886   6.716   0.701   2.055 -1.3823  4.4450  0.1426
  295MOL0     H38887   6.686   0.810   2.271  0.3816  0.0726 -1.7580
  295MOL0     H38888   6.850   0.783   2.326  0.2591 -0.5934  1.4134
  295MOL0     H38889   6.807   0.532   2.296  1.6274  1.8121  0.1608
  295MOL0     H38890   6.737   0.605   2.438 -1.2109 -0.9845 -0.2431
  295MOL0     H38891   6.595   0.511   2.189  1.7080  0.4342 -0.8224
  295MOL0     H38892   6.518   0.638   2.284  0.0353 -0.4136  2.0359
  295MOL0     H38893   6.547   0.570   2.578 -1.6268  0.9427 -0.3186
  295MOL0     H38894   6.507   0.357   2.768  0.0921 -0.1522  0.4493
  295MOL0     H38895   6.560   0.198   2.707  2.4543  1.1019 -0.7803
  295MOL0     H38896   6.352   0.145   2.634 -0.1702  0.4821 -1.3629
  295MOL0     H38897   6.288   0.315   2.658 -1.8960 -1.3907 -0.0444
  295MOL0     H38898   6.362   0.106   2.878 -1.6622 -0.5793 -0.6883
  295MOL0     H38899   6.307   0.279   2.913  1.3537  2.0077 -2.8737
  295MOL0     H38900   6.136   0.087   2.933 -0.1023 -0.8538 -0.3280
  295MOL0     H38901   6.172   0.054   2.761 -0.5478  1.0812 -0.7345
  295MOL0     H38902   5.933   0.014   2.794  1.7022  0.8721 -0.4790
  295MOL0     H38903   5.794  -0.072   2.602 -0.2587  0.1852  2.2190
  295MOL0     H38904   5.505   0.240   2.191  2.6597 -0.5465  0.6008
  295MOL0     H38905   5.390   0.180   1.962  1.5169  2.2952  1.2934
  295MOL0     H38906   5.294  -0.152   1.957  1.4675  1.5864  0.4762
  295MOL0     H38907   5.422  -0.230   1.896 -3.1739 -2.0184  0.9835
  295MOL0     H38908   5.227  -0.308   1.789  2.2345 -1.5799  0.8516
  295MOL0     H38909   5.333  -0.230   1.669  0.7884 -0.1960  1.1828
  295MOL0     H38910   5.201  -0.036   1.652 -0.0263  0.8883  3.7120
  295MOL0     H38911   5.095  -0.069   1.773 -0.7857  1.1179 -1.3015
  295MOL0     H38912   5.120  -0.274   1.546 -2.2775 -2.3062 -0.0730
  295MOL0     H38913   5.009  -0.269   1.677 -0.8710  1.2809  0.7301
  295MOL0     H38914   5.016  -0.037   1.478  0.7765 -1.0013 -0.1971
  295MOL0     H38915   4.905  -0.050   1.612  1.0752  0.3640  0.6236
  295MOL0     H38916   4.796  -0.243   1.546 -1.4426 -2.9902 -3.0783
  295MOL0     H38917   4.906  -0.267   1.407  0.4130 -1.8088  2.4357
  295MOL0     H38918   4.714  -0.033   1.460  0.6746 -1.1724  1.8808
  295MOL0     H38919   4.829  -0.011   1.337  0.2251  0.0761 -1.0247
  295MOL0     H38920   4.743  -0.202   1.204 -0.6695  2.2197 -0.7040
  295MOL0     H38921   4.631  -0.073   1.231 -0.2738 -0.7824 -0.8981
  295MOL0     H38922   5.679  -0.126   1.911 -1.2570  0.7378 -3.3325
  295MOL0     H38923   5.807  -0.032   2.105 -2.0113 -3.5060  1.1640
  295MOL0     H38924   5.823   0.321   2.428  0.3643 -2.6271 -1.4385
  295MOL0     H38925   5.980   0.383   2.600 -2.5286  1.6973 -1.3348
  295MOL0     H38926   6.576   0.818   1.523  2.1291 -1.7845 -2.3274
  295MOL0     H38927   6.448   0.910   1.343  0.8262 -0.5342  0.0446
  295MOL0     H38928   6.331   1.342   1.157  1.1486  0.5706  0.3389
  295MOL0     H38929   6.210   1.490   1.019 -0.3765 -3.6186  1.4746
  295MOL0     H38930   6.462   1.685   0.704 -1.3530  0.1202 -0.9263
  295MOL0     H38931   6.359   1.800   0.801 -1.5302  0.1787  0.0827
  295MOL0     H38932   6.337   1.810   0.557 -1.1109  1.4994  0.5676
  295MOL0     H38933   6.289   1.640   0.545 -1.3169 -1.0603  2.0724
  295MOL0     H38934   6.089   1.708   0.720  0.0541 -1.8376 -1.0062
  295MOL0     H38935   6.063   1.714   0.557  0.1680 -1.8974  0.7476
  295MOL0     H38936   6.031   1.912   0.744  0.3832  1.2196 -0.1252
  295MOL0     H38937   6.202   1.956   0.675  1.5576 -2.0326 -1.3970
  295MOL0     H38938   5.933   2.060   0.370  2.0369 -0.6014 -0.4224
  295MOL0     H38939   6.558   1.522   0.760 -1.6152  1.5528 -0.9505
  295MOL0     H38940   6.665   1.336   0.865 -0.3114 -0.3506 -0.1014
  296MOL0     O38941  10.147   7.792  11.215 -0.0198  0.7083 -0.4208
  296MOL0     C38942  10.058   7.871  11.180  0.6004 -0.8671 -1.0388
  296MOL0     O38943  10.078   7.995  11.133 -0.2343  0.4315 -0.4945
  296MOL0     C38944  10.207   8.054  11.139  0.6381 -0.8190 -0.2048
  296MOL0     C38945  10.288   8.036  11.029 -0.4175  0.0751  0.2555
  296MOL0     C38946  10.429   8.074  11.049 -0.1651 -0.3950 -0.3317
  296MOL0     C38947  10.472   8.123  11.174 -0.6162 -0.2083  1.0059
  296MOL0     O38948  10.604   8.163  11.177 -0.9177  0.4583  0.1712
  296MOL0     C38949  10.673   8.203  11.297  0.3724  0.0038 -1.0787
  296MOL0     C38950  10.686   8.103  11.417  0.0292 -0.0441 -0.5419
  296MOL0     C38951  10.749   7.959  11.396 -0.4983  0.3874  0.1949
  296MOL0     C38952  10.874   7.955  11.311  0.3573  0.1455  0.4784
  296MOL0     C38953  10.933   7.812  11.268  0.7160 -0.7036  1.1198
  296MOL0     C38954  10.838   7.737  11.168 -0.7705  0.5745  0.1250
  296MOL0     C38955  10.878   7.590  11.145  0.2998 -0.6840 -0.5755
  296MOL0     C38956  11.022   7.575  11.090  0.8626  0.2308 -0.0810
  296MOL0     N38957  11.056   7.431  11.063 -0.0324 -0.3259  0.5859
  296MOL0     C38958  11.024   7.366  10.948 -0.2573  0.1872  0.5204
  296MOL0     C38959  11.068   7.245  10.969 -0.9134  0.5167 -0.1149
  296MOL0     C38960  11.035   7.127  10.889 -0.0310  0.2879 -0.5187
  296MOL0     C38961  10.902   7.122  10.827 -0.0676 -0.9373 -0.1409
  296MOL0     C38962  10.874   6.979  10.772 -0.1459 -0.7939 -0.8867
  296MOL0     C38963  10.743   6.988  10.701 -0.4453  0.1283  0.1024
  296MOL0     O38964  10.716   6.853  10.648  0.2473 -0.6193  0.5701
  296MOL0     C38965  10.607   6.825  10.572 -0.2928 -0.0580  0.0094
  296MOL0     C38966  10.522   6.915  10.506 -0.6681  0.3616 -0.6694
  296MOL0     C38967  10.417   6.874  10.425  0.7103  1.1546 -0.4602
  296MOL0     C38968  10.391   6.733  10.421 -0.7389 -0.5352 -0.3232
  296MOL0     C38969  10.270   6.689  10.350 -0.0890 -0.6948  0.3137
  296MOL0     O38970  10.253   6.558  10.338  0.2456  0.2826  0.0448
  296MOL0     C38971  10.151   6.521  10.256 -1.8492  0.3044  0.3595
  296MOL0     C38972  10.165   6.480  10.120  0.2844  0.7463  0.0754
  296MOL0     C38973  10.052   6.446  10.048  0.2886  0.3786  0.0592
  296MOL0     C38974   9.926   6.446  10.110  1.1124  0.1439  0.0367
  296MOL0     O38975   9.812   6.420  10.027  0.6393  0.3105 -0.6966
  296MOL0     C38976   9.691   6.423  10.107 -0.6123 -0.3306 -0.5384
  296MOL0     C38977   9.579   6.397  10.020 -0.3599  0.3574 -0.2839
  296MOL0     C38978   9.443   6.438  10.082 -0.2606  0.1677  0.2478
  296MOL0     C38979   9.344   6.357   9.990 -0.0375  0.5976 -0.5655
  296MOL0     C38980   9.195   6.403  10.007  0.9529 -0.2219 -0.4311
  296MOL0     C38981   9.096   6.297   9.959 -0.3010  0.2531 -0.0941
  296MOL0     C38982   8.949   6.330   9.956  0.6257 -0.2458 -0.4898
  296MOL0     C38983   8.880   6.332  10.095  0.4306  0.5125 -0.1842
  296MOL0    Cl38984   8.916   6.194  10.210 -0.0265 -0.4649 -0.0552
  296MOL0     C38985   9.924   6.483  10.247  0.3645  1.2688  0.0139
  296MOL0     C38986  10.030   6.519  10.322 -0.8759  1.9487  0.6464
  296MOL0     O38987  10.205   6.774  10.296 -0.0534 -0.2339 -0.3044
  296MOL0     C38988  10.476   6.640  10.484  0.1993 -0.2486  0.9510
  296MOL0     C38989  10.587   6.683  10.557  0.2417 -0.1818 -0.9849
  296MOL0     N38990  11.132   7.242  11.097  0.0122  0.0911 -0.2260
  296MOL0     N38991  11.123   7.351  11.148 -0.2034 -0.2622  0.2493
  296MOL0     C38992  10.385   8.148  11.278  0.2796  0.4112  0.1003
  296MOL0     C38993  10.251   8.113  11.258  0.0439 -0.1684 -0.3491
  296MOL0     C38994   9.913   7.824  11.189 -0.1515  1.0670  0.7196
  296MOL0     C38995   9.799   7.917  11.178 -0.4011 -0.3830 -0.7803
  296MOL0     C38996   9.673   7.864  11.171  0.5673 -0.1706  0.1796
  296MOL0     C38997   9.643   7.733  11.195 -0.1661 -0.4044  0.3771
  296MOL0     O38998   9.517   7.689  11.183  0.5150 -0.0336  0.3362
  296MOL0     C38999   9.484   7.541  11.185  0.3556 -0.6362 -0.2720
  296MOL0     C39000   9.328   7.537  11.203  0.2930 -0.0329 -0.1339
  296MOL0     C39001   9.252   7.553  11.072  0.3765  0.1577  0.3854
  296MOL0     C39002   9.109   7.606  11.104  0.1927 -0.2116  0.1661
  296MOL0     C39003   9.021   7.589  10.985 -1.1133  0.1207  0.1677
  296MOL0     C39004   8.940   7.576  10.897 -0.0840 -0.0308  0.3471
  296MOL0     C39005   9.748   7.640  11.196 -0.9164  0.9278  0.1449
  296MOL0     C39006   9.881   7.687  11.196 -0.0594  0.2674 -1.2488
  296MOL0     H39007  10.259   7.994  10.933 -0.7723 -0.9120  0.7801
  296MOL0     H39008  10.508   8.050  10.979  1.5949  2.2840  0.5895
  296MOL0     H39009  10.625   8.292  11.338  4.4000  2.3360 -0.8804
  296MOL0     H39010  10.774   8.231  11.265  1.2389 -1.3711  0.2413
  296MOL0     H39011  10.595   8.089  11.477  1.3476 -3.7447  0.9112
  296MOL0     H39012  10.761   8.144  11.485  0.9013 -0.1972 -1.3989
  296MOL0     H39013  10.672   7.899  11.346 -1.0451 -1.1902  2.7259
  296MOL0     H39014  10.764   7.902  11.488  1.6782  2.3214  1.1371
  296MOL0     H39015  10.858   8.014  11.221  0.3717  0.7718  0.8825
  296MOL0     H39016  10.951   7.998  11.375 -0.4689 -1.7193  2.8604
  296MOL0     H39017  10.932   7.748  11.356  1.3146  1.1351  2.5309
  296MOL0     H39018  11.031   7.826  11.220 -0.4056  0.0867 -1.1261
  296MOL0     H39019  10.837   7.779  11.068  1.1201  0.1587 -0.1137
  296MOL0     H39020  10.737   7.734  11.211 -0.5538  3.4367  1.0241
  296MOL0     H39021  10.871   7.528  11.234  0.7325 -0.0487 -0.0947
  296MOL0     H39022  10.804   7.557  11.072  1.0313 -3.3021 -0.2169
  296MOL0     H39023  11.098   7.607  11.162  1.6487 -0.5187 -0.5734
  296MOL0     H39024  11.041   7.629  10.997  1.3692  0.8448  0.3712
  296MOL0     H39025  10.959   7.397  10.866 -2.7550 -3.0921  1.0441
  296MOL0     H39026  11.065   7.040  10.948  0.1802  1.4957  1.2418
  296MOL0     H39027  11.106   7.138  10.806 -1.8180  3.1037 -1.8490
  296MOL0     H39028  10.894   7.195  10.746  1.7178 -1.1371 -0.5414
  296MOL0     H39029  10.829   7.143  10.905  2.9869  3.5534  1.9717
  296MOL0     H39030  10.949   6.934  10.705 -0.6700 -0.4047 -1.7462
  296MOL0     H39031  10.844   6.916  10.855  2.6871  1.6478  2.3044
  296MOL0     H39032  10.750   7.055  10.614 -2.2508  1.1414  0.6944
  296MOL0     H39033  10.669   7.035  10.766  0.4449 -0.1645  1.3463
  296MOL0     H39034  10.544   7.021  10.515 -1.7690  0.5953 -0.6554
  296MOL0     H39035  10.371   6.946  10.358  1.1590  0.7950 -1.1651
  296MOL0     H39036  10.263   6.473  10.073  1.5757 -0.3920  2.7381
  296MOL0     H39037  10.074   6.417   9.945  1.6665 -4.3843  1.4649
  296MOL0     H39038   9.665   6.519  10.151 -0.5000 -0.6161  0.1635
  296MOL0     H39039   9.693   6.355  10.193  2.9430  3.0043  2.3581
  296MOL0     H39040   9.570   6.290   9.996  1.1309  0.0004  0.6204
  296MOL0     H39041   9.592   6.444   9.922  0.7516  2.1614  0.6936
  296MOL0     H39042   9.431   6.547  10.076 -1.7509 -0.0632 -2.6337
  296MOL0     H39043   9.450   6.401  10.185 -2.6822 -0.0722  0.3776
  296MOL0     H39044   9.370   6.372   9.885 -1.6363  0.3076 -1.0369
  296MOL0     H39045   9.340   6.250  10.013 -4.3524  0.7275  0.1227
  296MOL0     H39046   9.183   6.492   9.945  3.5666  3.0779  3.3173
  296MOL0     H39047   9.185   6.434  10.111  0.7750 -3.0202  0.4581
  296MOL0     H39048   9.109   6.201  10.010 -0.0187 -0.5714 -1.6669
  296MOL0     H39049   9.124   6.273   9.857  1.7330 -1.7899  0.8509
  296MOL0     H39050   8.929   6.418   9.895 -0.8010 -1.6597 -2.1784
  296MOL0     H39051   8.902   6.247   9.902 -0.4406 -0.4962  0.7847
  296MOL0     H39052   8.772   6.342  10.081  0.7313  2.0881 -1.6855
  296MOL0     H39053   8.907   6.427  10.142 -1.8275  1.0794  0.0740
  296MOL0     H39054   9.833   6.473  10.304  0.6208  2.7105  0.7131
  296MOL0     H39055  10.024   6.531  10.429  4.0938 -0.1682  1.4227
  296MOL0     H39056  10.458   6.533  10.482 -1.4271  0.0056  0.5626
  296MOL0     H39057  10.651   6.608  10.602 -2.3245 -0.8884  1.7861
  296MOL0     H39058  10.415   8.180  11.377  1.5368 -0.7747  0.1290
  296MOL0     H39059  10.177   8.123  11.336  0.6468  1.4003  0.0574
  296MOL0     H39060   9.821   8.022  11.164  0.3505 -0.6844 -2.0748
  296MOL0     H39061   9.589   7.932  11.159  3.0022  2.8836 -0.7249
  296MOL0     H39062   9.529   7.490  11.270  2.1447  0.1438 -0.6868
  296MOL0     H39063   9.511   7.503  11.086 -0.6864 -0.0443 -0.8056
  296MOL0     H39064   9.287   7.449  11.253  2.8047 -1.2177 -0.0210
  296MOL0     H39065   9.297   7.615  11.273 -0.4120 -0.1268 -0.3340
  296MOL0     H39066   9.258   7.458  11.018  1.6132 -0.1395  1.0124
  296MOL0     H39067   9.292   7.628  11.002 -2.0866  2.2446  1.0326
  296MOL0     H39068   9.065   7.552  11.188  0.0443 -1.6920 -0.8320
  296MOL0     H39069   9.117   7.713  11.125  2.9414 -0.0445 -1.2902
  296MOL0     H39070   8.867   7.570  10.819  0.8721  3.8187 -1.0834
  296MOL0     H39071   9.732   7.532  11.200 -3.1053  1.2273  0.8163
  296MOL0     H39072   9.961   7.614  11.203 -0.8743 -0.5432 -0.1531
  297MOL0     O39073   1.254   9.503   5.483  1.1733  0.1640  0.6754
  297MOL0     C39074   1.279   9.559   5.590 -0.0428  0.1244 -0.8609
  297MOL0     O39075   1.209   9.539   5.709 -0.1162 -0.4939 -0.5056
  297MOL0     C39076   1.157   9.417   5.725 -0.2986  0.2213  0.0933
  297MOL0     C39077   1.017   9.406   5.714  0.0124  0.1204 -0.0086
  297MOL0     C39078   0.958   9.286   5.761 -1.0598  0.1253  0.7550
  297MOL0     C39079   1.033   9.188   5.822 -0.0531  0.4443  0.9023
  297MOL0     O39080   0.958   9.081   5.874 -0.1681  0.5036  0.5282
  297MOL0     C39081   1.021   9.010   5.986  0.4093  0.1134  0.3060
  297MOL0     C39082   0.911   8.920   6.046 -0.9933 -0.4183 -0.5235
  297MOL0     C39083   0.959   8.815   6.156 -0.1276  0.3665 -0.6176
  297MOL0     C39084   0.856   8.717   6.228 -0.5101 -0.8733  0.7676
  297MOL0     C39085   0.730   8.797   6.275 -0.0039  0.1783  0.5065
  297MOL0     C39086   0.609   8.692   6.306  0.2855  0.6667 -0.6813
  297MOL0     C39087   0.635   8.557   6.368  0.1333 -0.7329  0.1750
  297MOL0     C39088   0.678   8.556   6.513  0.4708  0.4316  0.8658
  297MOL0     N39089   0.821   8.575   6.539 -0.1351 -0.3539 -0.5055
  297MOL0     C39090   0.930   8.498   6.523 -0.6657  0.3981 -0.2219
  297MOL0     C39091   1.037   8.565   6.567  0.1241  1.0985 -0.5125
  297MOL0     C39092   1.173   8.507   6.552 -0.3425  0.0006 -0.3737
  297MOL0     C39093   1.272   8.615   6.511  0.3272  0.2329  0.1307
  297MOL0     C39094   1.414   8.575   6.534  0.1353  0.8838 -0.9688
  297MOL0     C39095   1.511   8.672   6.479 -0.4664  0.7845 -0.3138
  297MOL0     O39096   1.471   8.798   6.519 -0.5051  0.4271  0.1701
  297MOL0     C39097   1.550   8.898   6.478 -0.5545 -0.2475  0.2339
  297MOL0     C39098   1.674   8.880   6.414 -0.6634 -1.3116 -0.9218
  297MOL0     C39099   1.759   8.986   6.381 -0.6148  0.8564 -0.4774
  297MOL0     C39100   1.714   9.115   6.410  0.0277  0.0696  0.3048
  297MOL0     C39101   1.792   9.232   6.355  0.2846  0.5758  0.3377
  297MOL0     O39102   1.888   9.203   6.272 -0.9005  0.4721  0.8855
  297MOL0     C39103   2.006   9.276   6.251 -0.6573 -0.6050  0.0290
  297MOL0     C39104   2.021   9.419   6.274  0.4799 -0.0666  0.6256
  297MOL0     C39105   2.143   9.477   6.252  0.0404 -0.7066  0.4871
  297MOL0     C39106   2.259   9.407   6.219  0.0719  0.1916 -0.2676
  297MOL0     O39107   2.362   9.480   6.166  0.3023 -0.1928  0.3373
  297MOL0     C39108   2.486   9.414   6.145 -0.2067  0.3430  0.4571
  297MOL0     C39109   2.591   9.524   6.160 -0.8216 -0.3486  0.0146
  297MOL0     C39110   2.739   9.467   6.139 -1.1377 -0.3394 -0.4741
  297MOL0     C39111   2.791   9.483   5.997 -0.4336 -0.4531 -0.0369
  297MOL0     C39112   2.928   9.419   5.969 -0.8169  0.0069  0.3327
  297MOL0     C39113   2.979   9.446   5.827 -0.6490  0.0637 -0.1988
  297MOL0     C39114   3.131   9.411   5.806 -0.0812 -0.3064  0.5457
  297MOL0     C39115   3.202   9.504   5.702  0.5012 -0.6682  0.1928
  297MOL0    Cl39116   3.386   9.475   5.714  0.2204 -0.0681  0.0165
  297MOL0     C39117   2.247   9.271   6.207 -0.3357  0.0233  0.1121
  297MOL0     C39118   2.122   9.209   6.223 -0.1871 -0.4907  0.4014
  297MOL0     O39119   1.752   9.349   6.382  0.5985 -0.5676  0.5686
  297MOL0     C39120   1.588   9.136   6.463 -0.0812 -0.0219 -0.4369
  297MOL0     C39121   1.514   9.031   6.499  0.3999  0.2274 -0.3714
  297MOL0     N39122   0.989   8.671   6.642  0.4781  0.7651  0.2388
  297MOL0     N39123   0.862   8.674   6.631  0.3482  0.7458 -0.3751
  297MOL0     C39124   1.173   9.201   5.830 -0.3284 -0.0830 -0.7674
  297MOL0     C39125   1.231   9.312   5.783 -0.5410 -0.3444 -1.2442
  297MOL0     C39126   1.377   9.662   5.575 -1.1289 -0.4676  0.0282
  297MOL0     C39127   1.450   9.701   5.692  0.4470  1.3497  0.7327
  297MOL0     C39128   1.551   9.796   5.686  0.6864  0.8303  0.4624
  297MOL0     C39129   1.573   9.869   5.570  0.9665 -0.3546 -0.1721
  297MOL0     O39130   1.676   9.957   5.569  0.1210  0.0003  0.1424
  297MOL0     C39131   1.734  10.011   5.444 -0.6843  0.5898 -0.1792
  297MOL0     C39132   1.852   9.927   5.398  0.2428 -0.0628  0.0264
  297MOL0     C39133   1.913   9.977   5.261  0.3502  0.6450 -0.0200
  297MOL0     C39134   1.983  10.107   5.283  0.3097 -0.0527  0.2900
  297MOL0     C39135   2.066  10.132   5.174 -0.3865  0.4336  0.7331
  297MOL0     C39136   2.140  10.162   5.084  0.1454 -0.1722  1.3813
  297MOL0     C39137   1.492   9.842   5.456  0.3213 -0.3068  0.0101
  297MOL0     C39138   1.392   9.744   5.458 -0.1715  0.1975 -0.2731
  297MOL0     H39139   0.953   9.490   5.689 -0.7222 -0.4857 -0.2108
  297MOL0     H39140   0.852   9.269   5.743 -0.7359  0.1470 -1.4287
  297MOL0     H39141   1.047   9.088   6.058  1.3284 -0.0356  0.1391
  297MOL0     H39142   1.108   8.955   5.950 -0.2959  0.1483 -1.5772
  297MOL0     H39143   0.871   8.856   5.967 -1.1530  0.3286 -1.0571
  297MOL0     H39144   0.836   8.986   6.091 -1.0226  0.8474 -2.3332
  297MOL0     H39145   1.021   8.873   6.225 -0.1346  0.7034 -0.8851
  297MOL0     H39146   1.035   8.749   6.113 -0.4074 -1.8379  2.0136
  297MOL0     H39147   0.827   8.651   6.146 -0.5172  2.7992 -2.5008
  297MOL0     H39148   0.905   8.679   6.318 -1.8665  1.5915  2.6717
  297MOL0     H39149   0.698   8.888   6.224  0.9870  0.2241 -0.0640
  297MOL0     H39150   0.751   8.836   6.375 -0.4587  0.2825  0.5625
  297MOL0     H39151   0.570   8.671   6.206 -0.0750 -3.1776  0.1149
  297MOL0     H39152   0.530   8.741   6.362 -2.6496 -1.5755 -2.5515
  297MOL0     H39153   0.561   8.477   6.360  2.0514 -2.7229  1.2184
  297MOL0     H39154   0.729   8.520   6.325  2.3132  2.5269  1.7326
  297MOL0     H39155   0.655   8.462   6.564  1.6225  0.0265  0.6504
  297MOL0     H39156   0.614   8.629   6.564  1.7213  2.5846 -0.5021
  297MOL0     H39157   0.936   8.401   6.475  3.7654  0.3000  0.0997
  297MOL0     H39158   1.179   8.433   6.472  0.2324  0.1440 -0.4689
  297MOL0     H39159   1.189   8.454   6.647 -1.0346 -1.6612 -1.1556
  297MOL0     H39160   1.265   8.705   6.573  0.5530  0.5888 -0.3528
  297MOL0     H39161   1.257   8.637   6.404 -0.3780 -2.9142 -0.5148
  297MOL0     H39162   1.443   8.565   6.639  2.0627  0.9065 -1.4465
  297MOL0     H39163   1.432   8.479   6.484  2.0568  1.7731 -2.1341
  297MOL0     H39164   1.504   8.654   6.372  1.8563 -2.4696 -0.0877
  297MOL0     H39165   1.610   8.651   6.522  0.2234  1.0841 -1.7063
  297MOL0     H39166   1.712   8.779   6.400  4.5334  0.2757 -0.7202
  297MOL0     H39167   1.854   8.957   6.338 -0.1992  0.6171  0.5569
  297MOL0     H39168   1.930   9.476   6.289 -0.7404 -1.5897 -0.6563
  297MOL0     H39169   2.155   9.585   6.246 -1.7640 -0.5042  0.0146
  297MOL0     H39170   2.490   9.358   6.051 -0.5417 -0.0954  0.6974
  297MOL0     H39171   2.510   9.350   6.231 -1.0130 -0.5774  0.0172
  297MOL0     H39172   2.579   9.567   6.260 -0.9133 -0.1637 -0.0772
  297MOL0     H39173   2.580   9.607   6.090  0.6976 -1.6372 -1.8526
  297MOL0     H39174   2.752   9.365   6.176  2.8107  0.2193  0.0977
  297MOL0     H39175   2.809   9.532   6.192 -1.3963 -0.2804 -0.2020
  297MOL0     H39176   2.722   9.426   5.935 -0.6146  1.7958 -2.0580
  297MOL0     H39177   2.795   9.587   5.963  0.3671 -0.6334 -0.5236
  297MOL0     H39178   2.919   9.312   5.987  0.4865 -0.0556  0.7347
  297MOL0     H39179   3.005   9.461   6.034  1.0585 -0.4374 -1.4808
  297MOL0     H39180   2.971   9.552   5.804  2.9480  0.1010 -2.0385
  297MOL0     H39181   2.937   9.382   5.749  2.5978 -2.1155 -0.3823
  297MOL0     H39182   3.201   9.415   5.890  1.6876  2.1253 -0.8904
  297MOL0     H39183   3.147   9.307   5.777 -3.2861 -0.4847 -0.9995
  297MOL0     H39184   3.178   9.607   5.733  0.7724 -1.2469  2.5065
  297MOL0     H39185   3.158   9.481   5.605  0.0350  2.5443 -0.4747
  297MOL0     H39186   2.338   9.215   6.188  1.9082  3.6997 -1.0783
  297MOL0     H39187   2.114   9.101   6.214  1.2254 -0.6047  0.1492
  297MOL0     H39188   1.550   9.235   6.487 -2.7900 -0.8105 -1.2170
  297MOL0     H39189   1.422   9.045   6.556  0.2762 -3.3893  0.5611
  297MOL0     H39190   1.227   9.120   5.878 -0.4443  0.2963  0.0203
  297MOL0     H39191   1.339   9.313   5.791 -0.4926  1.8759 -1.7405
  297MOL0     H39192   1.426   9.641   5.779  0.5523  0.2622  0.0421
  297MOL0     H39193   1.615   9.809   5.773  0.2834  2.6146  0.5211
  297MOL0     H39194   1.776  10.108   5.470 -0.4054  1.2778 -2.9155
  297MOL0     H39195   1.667  10.025   5.359 -2.0059 -1.4535  0.4316
  297MOL0     H39196   1.925   9.930   5.479  0.4457  0.6899 -0.1751
  297MOL0     H39197   1.826   9.821   5.387  0.4109 -0.0122 -0.9385
  297MOL0     H39198   1.839   9.993   5.182  0.3787  0.3476 -0.1095
  297MOL0     H39199   1.984   9.902   5.224  0.6971  1.4513 -1.0091
  297MOL0     H39200   1.916  10.194   5.279  2.6784  1.9373  1.2301
  297MOL0     H39201   2.043  10.113   5.374  0.0045 -2.2231  0.6827
  297MOL0     H39202   2.211  10.177   5.005 -1.0688 -0.5703  0.1831
  297MOL0     H39203   1.512   9.894   5.364  0.6178  0.7320  0.6465
  297MOL0     H39204   1.319   9.740   5.377 -0.4692 -0.0710  0.0008
  298MOL0     O39205   1.331  10.651   0.082  0.2072 -0.7394  0.0506
  298MOL0     C39206   1.333  10.760   0.143 -0.0005  0.8065  0.0291
  298MOL0     O39207   1.426  10.860   0.113  0.1098 -0.3572  0.1605
  298MOL0     C39208   1.503  10.862   0.003  0.7919 -0.0864  0.3085
  298MOL0     C39209   1.444  10.845  -0.125  0.0254  0.2498 -0.2052
  298MOL0     C39210   1.529  10.845  -0.242 -0.1483  0.3913 -0.0208
  298MOL0     C39211   1.667  10.866  -0.233  0.5187 -0.0377  0.3164
  298MOL0     O39212   1.756  10.862  -0.333  0.5515  0.7079 -0.3161
  298MOL0     C39213   1.714  10.814  -0.458 -0.1767  0.8386  0.5400
  298MOL0     C39214   1.814  10.858  -0.562 -0.3158 -0.4366  0.9767
  298MOL0     C39215   1.797  11.007  -0.606 -0.5786 -0.3704  1.1934
  298MOL0     C39216   1.670  11.036  -0.686  0.6624 -0.3560  1.0833
  298MOL0     C39217   1.666  11.168  -0.765 -1.4229  1.1072  0.0987
  298MOL0     C39218   1.520  11.199  -0.797 -0.0824  0.7121 -0.3507
  298MOL0     C39219   1.515  11.330  -0.878 -0.3929  1.6614 -0.8776
  298MOL0     C39220   1.377  11.354  -0.923 -0.1051 -0.7298  0.2927
  298MOL0     N39221   1.276  11.368  -0.811 -0.6705  0.0359  0.0371
  298MOL0     C39222   1.284  11.447  -0.693 -0.9234  0.5989 -0.6889
  298MOL0     C39223   1.174  11.427  -0.623  0.7878 -0.4213  1.0909
  298MOL0     C39224   1.127  11.485  -0.487 -0.2457  0.2754 -0.7393
  298MOL0     C39225   1.050  11.622  -0.502  0.2598  0.6211  1.0841
  298MOL0     C39226   0.929  11.607  -0.597 -0.1027  0.3493  0.1837
  298MOL0     C39227   0.977  11.634  -0.736  0.3714  0.1042 -0.6810
  298MOL0     O39228   1.055  11.751  -0.751  0.4340  0.0735 -1.0369
  298MOL0     C39229   1.044  11.804  -0.873  0.3526 -0.7624 -0.4205
  298MOL0     C39230   1.155  11.806  -0.956 -0.5522  0.0303 -0.3325
  298MOL0     C39231   1.164  11.884  -1.073  0.2046 -0.0878  0.4266
  298MOL0     C39232   1.053  11.960  -1.113  0.1828 -0.9845  1.0589
  298MOL0     C39233   1.056  12.034  -1.240  0.7140  0.2448  0.2623
  298MOL0     O39234   1.181  12.063  -1.297  0.2439 -0.3134 -0.2109
  298MOL0     C39235   1.196  12.090  -1.430 -0.0947  0.1992 -0.1625
  298MOL0     C39236   1.135  12.201  -1.490 -0.5021 -1.4187  0.0877
  298MOL0     C39237   1.145  12.241  -1.620  0.3032  0.6497 -0.2739
  298MOL0     C39238   1.214  12.151  -1.699 -0.2166 -0.4639 -0.3309
  298MOL0     O39239   1.220  12.182  -1.832  0.2308  0.5127  0.2340
  298MOL0     C39240   1.266  12.092  -1.930  0.6507 -0.1601  0.0879
  298MOL0     C39241   1.211  12.130  -2.076  0.0160  0.2815 -0.4525
  298MOL0     C39242   1.208  12.271  -2.130  0.1007  0.5410 -1.1417
  298MOL0     C39243   1.359  12.308  -2.146  0.0289  0.1358  0.1004
  298MOL0     C39244   1.372  12.456  -2.190 -0.2183 -0.7675  0.6947
  298MOL0     C39245   1.523  12.476  -2.186 -0.2894 -0.2838  0.5710
  298MOL0     C39246   1.566  12.605  -2.253  0.4872  0.3528  0.3982
  298MOL0     C39247   1.710  12.619  -2.294 -0.2497  1.2409 -0.2660
  298MOL0    Cl39248   1.822  12.602  -2.155 -0.0490 -0.6901 -0.4547
  298MOL0     C39249   1.291  12.044  -1.647 -0.2138 -1.0684 -0.0479
  298MOL0     C39250   1.285  12.021  -1.504 -0.8454  0.4650  0.8135
  298MOL0     O39251   0.943  12.057  -1.284 -0.1843 -0.2978 -0.3526
  298MOL0     C39252   0.932  11.960  -1.030  0.5974  0.7870 -0.4950
  298MOL0     C39253   0.938  11.879  -0.907  0.0106 -0.5186 -0.3621
  298MOL0     N39254   1.102  11.329  -0.689 -0.3194  0.3094  0.4520
  298MOL0     N39255   1.168  11.293  -0.787  0.8212  0.3742  0.4714
  298MOL0     C39256   1.724  10.879  -0.106  0.5753 -0.1828  0.4064
  298MOL0     C39257   1.635  10.894   0.005  0.1029  0.3518  0.3144
  298MOL0     C39258   1.238  10.784   0.248  0.3233 -0.2030 -0.1972
  298MOL0     C39259   1.137  10.694   0.280 -0.1462  0.2585  0.0827
  298MOL0     C39260   1.038  10.721   0.374  0.3212 -0.0054  0.2424
  298MOL0     C39261   1.020  10.851   0.435  0.0226 -0.9971  0.0948
  298MOL0     O39262   0.921  10.893   0.524  0.6419  0.2037 -0.7439
  298MOL0     C39263   0.808  10.799   0.545 -0.2095  0.1050 -1.3030
  298MOL0     C39264   0.689  10.876   0.588 -0.0161 -0.5139 -0.3170
  298MOL0     C39265   0.702  10.916   0.733 -0.0254 -0.0996  0.3144
  298MOL0     C39266   0.588  11.010   0.767 -0.2190  0.5725  0.2486
  298MOL0     C39267   0.586  11.047   0.910  0.4627  0.0795 -1.0526
  298MOL0     C39268   0.577  11.063   1.030 -0.4924 -0.2969  0.9820
  298MOL0     C39269   1.122  10.941   0.401 -0.6566 -0.5059 -1.3666
  298MOL0     C39270   1.221  10.909   0.311 -0.3045  0.4385  0.4224
  298MOL0     H39271   1.337  10.850  -0.144 -0.2558 -0.5832  1.0339
  298MOL0     H39272   1.491  10.827  -0.342  3.3220  4.3846 -2.4051
  298MOL0     H39273   1.616  10.850  -0.491  0.2677  0.3707 -1.4283
  298MOL0     H39274   1.717  10.705  -0.453  0.2353  0.8673  0.9374
  298MOL0     H39275   1.810  10.788  -0.646  2.9174 -0.5869  0.8422
  298MOL0     H39276   1.912  10.836  -0.520 -0.2721  0.6600  1.4620
  298MOL0     H39277   1.893  11.036  -0.652 -1.5921 -1.0579 -1.5734
  298MOL0     H39278   1.809  11.077  -0.523 -1.0982  0.1577  0.8279
  298MOL0     H39279   1.652  10.957  -0.760 -0.2209  2.0578 -1.4736
  298MOL0     H39280   1.592  11.046  -0.611  1.8653 -0.3777  2.3741
  298MOL0     H39281   1.723  11.150  -0.856  0.2722 -0.9364  1.4841
  298MOL0     H39282   1.707  11.252  -0.708  0.7428  0.6490 -0.7132
  298MOL0     H39283   1.453  11.207  -0.710 -1.9703 -0.4313 -1.6131
  298MOL0     H39284   1.488  11.123  -0.869 -2.9996  1.1948  0.2804
  298MOL0     H39285   1.538  11.420  -0.821  1.2091  0.6944  0.0721
  298MOL0     H39286   1.576  11.333  -0.969 -0.5931  1.3149 -1.0272
  298MOL0     H39287   1.344  11.277  -0.993 -0.7256 -1.7148  1.6286
  298MOL0     H39288   1.382  11.453  -0.971  1.6546 -0.8880  0.0845
  298MOL0     H39289   1.362  11.511  -0.653 -0.4099 -1.0348  1.0595
  298MOL0     H39290   1.220  11.509  -0.435 -1.4241  1.6625  0.8203
  298MOL0     H39291   1.066  11.414  -0.431 -1.5255  1.9509  0.0749
  298MOL0     H39292   1.126  11.693  -0.537  1.4158  0.4154  3.0107
  298MOL0     H39293   1.011  11.659  -0.407 -1.1887  0.9324  0.3924
  298MOL0     H39294   0.882  11.509  -0.599  1.0947 -0.2734  1.2847
  298MOL0     H39295   0.861  11.688  -0.568  0.4832  0.8483  0.1790
  298MOL0     H39296   0.889  11.645  -0.800  0.7261 -0.4365 -1.2758
  298MOL0     H39297   1.022  11.543  -0.778  2.2092  0.4597  0.4209
  298MOL0     H39298   1.243  11.750  -0.925  2.2249  2.9670 -2.2737
  298MOL0     H39299   1.253  11.873  -1.135  1.2302 -1.7843  2.0768
  298MOL0     H39300   1.082  12.274  -1.431 -1.3361  0.6722 -3.0019
  298MOL0     H39301   1.099  12.331  -1.658 -0.2106 -0.5716 -2.7104
  298MOL0     H39302   1.218  11.995  -1.916 -2.5443  0.7103 -3.2798
  298MOL0     H39303   1.374  12.080  -1.914  1.1276 -0.1919 -2.7131
  298MOL0     H39304   1.105  12.105  -2.083 -0.0113 -0.0624  0.8839
  298MOL0     H39305   1.266  12.070  -2.148 -0.2858  0.4499 -0.8239
  298MOL0     H39306   1.157  12.339  -2.062  2.2900  0.4468  0.6928
  298MOL0     H39307   1.163  12.267  -2.230 -3.2904 -2.3110  0.2916
  298MOL0     H39308   1.415  12.307  -2.052  0.5570  0.3898 -0.2057
  298MOL0     H39309   1.409  12.238  -2.213  5.3038  2.5313  1.0009
  298MOL0     H39310   1.325  12.525  -2.120  1.2072  0.9245  0.0442
  298MOL0     H39311   1.337  12.483  -2.290 -2.7410 -0.7681  1.5181
  298MOL0     H39312   1.563  12.390  -2.241  1.5455  0.6097  0.4237
  298MOL0     H39313   1.561  12.478  -2.083  0.3252  3.3114  0.3865
  298MOL0     H39314   1.518  12.613  -2.350 -1.4645  1.1957  1.3760
  298MOL0     H39315   1.532  12.683  -2.184  0.2151 -2.3550  3.6134
  298MOL0     H39316   1.704  12.716  -2.343 -1.3891  0.0931 -2.5779
  298MOL0     H39317   1.747  12.541  -2.361  2.2658  1.2271  1.0197
  298MOL0     H39318   1.365  11.989  -1.704 -0.1854 -1.9840  0.8244
  298MOL0     H39319   1.350  11.956  -1.446  1.3957  2.2905  0.4873
  298MOL0     H39320   0.845  12.024  -1.042  0.6582  0.8196 -0.7665
  298MOL0     H39321   0.857  11.895  -0.836 -0.3695 -5.4912  0.6818
  298MOL0     H39322   1.831  10.891  -0.093  0.4266  0.3031  1.2927
  298MOL0     H39323   1.695  10.913   0.093  0.5648  1.6267 -0.2432
  298MOL0     H39324   1.154  10.590   0.254 -0.9167  0.1428  0.0214
  298MOL0     H39325   0.968  10.643   0.402  0.5854  0.1238  1.3094
  298MOL0     H39326   0.837  10.718   0.612 -0.5768  0.9248 -0.1078
  298MOL0     H39327   0.778  10.746   0.455 -0.3150 -0.1796 -1.0985
  298MOL0     H39328   0.677  10.971   0.536  0.4339 -0.0319  0.4353
  298MOL0     H39329   0.597  10.818   0.573 -0.8219 -0.1427  2.5388
  298MOL0     H39330   0.802  10.961   0.740 -1.1788  2.7175  0.2950
  298MOL0     H39331   0.691  10.822   0.787  3.9449 -2.2671 -2.1617
  298MOL0     H39332   0.588  11.098   0.703 -0.0053  0.5182  0.1734
  298MOL0     H39333   0.494  10.958   0.746  1.0990 -1.0006 -2.2404
  298MOL0     H39334   0.555  11.076   1.134 -1.8852 -0.1271  0.6867
  298MOL0     H39335   1.113  11.042   0.437 -1.0947 -0.3018 -2.0315
  298MOL0     H39336   1.294  10.988   0.293  0.5030 -0.3041  0.3709
  299MOL0     O39337   7.546   1.948   3.759 -0.2797  0.3588 -0.7830
  299MOL0     C39338   7.586   2.026   3.839 -0.2197 -0.2657  0.4076
  299MOL0     O39339   7.511   2.113   3.917 -0.1128  0.3268  0.3478
  299MOL0     C39340   7.379   2.094   3.912 -0.1853 -0.8048  0.5507
  299MOL0     C39341   7.311   2.105   3.795 -0.0112  0.3031 -0.1355
  299MOL0     C39342   7.174   2.088   3.787 -0.3116  0.2588  0.6445
  299MOL0     C39343   7.101   2.042   3.893  0.2198 -0.7431 -0.7266
  299MOL0     O39344   6.965   2.028   3.909  0.3557  0.1921 -0.0863
  299MOL0     C39345   6.883   1.994   3.792 -0.2380 -0.3101 -0.1433
  299MOL0     C39346   6.908   1.851   3.763 -0.0332 -0.2305  0.6392
  299MOL0     C39347   6.824   1.815   3.638 -0.3047  0.8628 -0.4012
  299MOL0     C39348   6.861   1.668   3.601 -0.6337  0.7219  0.2336
  299MOL0     C39349   6.824   1.632   3.456  0.5553 -0.3196 -0.8862
  299MOL0     C39350   6.929   1.635   3.352 -0.5655 -0.5312 -0.4691
  299MOL0     C39351   6.878   1.644   3.207 -0.1677 -0.0930 -0.0105
  299MOL0     C39352   6.981   1.636   3.099  0.2176  0.2579 -0.4900
  299MOL0     N39353   7.088   1.545   3.119 -0.0412  0.1069  0.1107
  299MOL0     C39354   7.213   1.587   3.169  0.8982 -0.0014  0.3172
  299MOL0     C39355   7.293   1.477   3.154  0.3754 -0.5424 -0.0808
  299MOL0     C39356   7.443   1.463   3.171 -0.0153  1.0102 -0.2196
  299MOL0     C39357   7.511   1.398   3.040 -1.2962  0.2752 -0.6774
  299MOL0     C39358   7.665   1.431   3.050 -0.3087 -0.2491 -0.4548
  299MOL0     C39359   7.754   1.342   2.963 -2.3044 -0.0916 -0.1896
  299MOL0     O39360   7.899   1.362   2.990  0.0746  0.0778  1.0605
  299MOL0     C39361   7.960   1.252   3.050  1.2201  0.2548 -0.0618
  299MOL0     C39362   7.984   1.252   3.184 -0.1108  0.0079 -0.6477
  299MOL0     C39363   8.045   1.142   3.246 -0.0540  0.3414 -0.1382
  299MOL0     C39364   8.068   1.026   3.174 -0.0932  0.1854  0.7489
  299MOL0     C39365   8.162   0.934   3.241 -1.4724 -0.5274  0.0722
  299MOL0     O39366   8.256   0.995   3.331  0.3061  0.1693  0.2666
  299MOL0     C39367   8.328   0.926   3.423  0.1314  0.2711 -0.2039
  299MOL0     C39368   8.453   0.978   3.451 -0.3074  0.7570  0.7260
  299MOL0     C39369   8.542   0.913   3.539 -0.0020 -0.5925  0.1421
  299MOL0     C39370   8.514   0.794   3.605  1.1776 -1.3399 -0.1715
  299MOL0     O39371   8.605   0.723   3.687 -0.0417 -0.2086  0.2710
  299MOL0     C39372   8.727   0.791   3.734 -0.2408  0.2142 -0.2348
  299MOL0     C39373   8.801   0.713   3.849  0.2241 -0.4632  0.6138
  299MOL0     C39374   8.948   0.772   3.867  0.1514 -0.1251  0.5345
  299MOL0     C39375   9.024   0.676   3.962 -0.0571 -0.2537  0.4190
  299MOL0     C39376   9.178   0.690   3.965  0.4269 -0.3984  0.6822
  299MOL0     C39377   9.223   0.818   4.038 -0.2450  0.9857 -0.2438
  299MOL0     C39378   9.204   0.805   4.189 -0.1845 -0.5581 -0.2788
  299MOL0     C39379   9.222   0.939   4.248 -0.6019  0.0247 -0.4365
  299MOL0    Cl39380   9.252   0.923   4.422 -0.0205 -0.1642 -0.3265
  299MOL0     C39381   8.393   0.729   3.565  0.0664 -0.1265  0.1121
  299MOL0     C39382   8.299   0.796   3.477  0.2857 -0.8128  0.2672
  299MOL0     O39383   8.173   0.812   3.208 -0.0726 -0.9969 -0.1479
  299MOL0     C39384   8.033   1.015   3.033  0.8235  0.5210 -0.5641
  299MOL0     C39385   7.967   1.124   2.983 -0.3506 -1.2697  1.0922
  299MOL0     N39386   7.213   1.379   3.090  0.2758  0.3155  0.3094
  299MOL0     N39387   7.097   1.418   3.073 -0.1666 -0.1069 -0.2080
  299MOL0     C39388   7.173   2.022   4.023  0.7417 -0.7240  0.1366
  299MOL0     C39389   7.308   2.042   4.022 -0.3163  0.1158  0.6835
  299MOL0     C39390   7.726   2.050   3.820  0.1859  0.3064 -0.2781
  299MOL0     C39391   7.796   2.092   3.939  0.8052  0.2699 -0.2637
  299MOL0     C39392   7.926   2.121   3.930  1.4755  0.3786 -0.2644
  299MOL0     C39393   7.995   2.120   3.811 -0.4609 -0.4109  0.4398
  299MOL0     O39394   8.119   2.160   3.802 -0.7612  1.2845  0.2860
  299MOL0     C39395   8.206   2.158   3.920  0.1393 -0.2048 -0.9078
  299MOL0     C39396   8.344   2.136   3.860  0.4782  0.1591  0.1923
  299MOL0     C39397   8.440   2.093   3.970 -0.0082  0.0411  0.2044
  299MOL0     C39398   8.424   1.952   4.021 -0.1077  0.1023  0.1846
  299MOL0     C39399   8.509   1.930   4.142  0.2226  0.0298  0.1811
  299MOL0     C39400   8.586   1.904   4.236 -0.0604 -0.4260 -0.6487
  299MOL0     C39401   7.927   2.074   3.704  0.1108  0.0808  1.0017
  299MOL0     C39402   7.797   2.035   3.699 -0.2933  0.5923 -0.0387
  299MOL0     H39403   7.358   2.139   3.703 -1.0708 -0.8748 -1.1533
  299MOL0     H39404   7.136   2.109   3.687  0.5256 -0.5574  0.1392
  299MOL0     H39405   6.903   2.054   3.703  0.0860  1.5479  1.1146
  299MOL0     H39406   6.779   2.014   3.818  0.1129  3.9634 -1.3294
  299MOL0     H39407   6.872   1.795   3.851 -1.8176 -0.6687 -0.3093
  299MOL0     H39408   7.014   1.833   3.748 -0.2561 -1.3754  0.3401
  299MOL0     H39409   6.857   1.883   3.558  0.0198 -0.7455 -1.6836
  299MOL0     H39410   6.716   1.823   3.652 -0.1873  2.4544 -0.1693
  299MOL0     H39411   6.967   1.653   3.621 -0.9728  0.1353  1.7066
  299MOL0     H39412   6.818   1.594   3.670  1.9725  0.3282  1.5389
  299MOL0     H39413   6.740   1.698   3.432 -1.8006 -2.0904  1.8884
  299MOL0     H39414   6.794   1.527   3.457 -0.7601  0.0047  1.7146
  299MOL0     H39415   7.001   1.556   3.376  0.0814  0.6133  1.5333
  299MOL0     H39416   6.981   1.730   3.366  1.1302 -1.4806 -0.0125
  299MOL0     H39417   6.813   1.556   3.204  3.1764 -2.9231  2.3407
  299MOL0     H39418   6.817   1.733   3.192 -1.4731 -0.1087  3.9750
  299MOL0     H39419   7.025   1.735   3.087  1.7997 -0.2631  0.5847
  299MOL0     H39420   6.927   1.614   3.007 -2.3593 -1.7256  1.3342
  299MOL0     H39421   7.246   1.684   3.203 -0.4602  1.3794 -2.0658
  299MOL0     H39422   7.455   1.393   3.254 -2.6763 -0.5746 -1.0912
  299MOL0     H39423   7.479   1.563   3.201 -0.1869  1.7037 -2.2148
  299MOL0     H39424   7.471   1.440   2.947  1.6429 -0.2179 -2.2777
  299MOL0     H39425   7.509   1.289   3.046  1.7647  0.2184  2.5956
  299MOL0     H39426   7.683   1.538   3.035 -2.0312 -0.2029 -2.7109
  299MOL0     H39427   7.693   1.415   3.155 -0.9811  1.1746 -0.0268
  299MOL0     H39428   7.726   1.377   2.863  0.5872  0.8418 -0.7563
  299MOL0     H39429   7.730   1.237   2.981 -1.6622  0.2611  3.4761
  299MOL0     H39430   7.977   1.342   3.243 -0.9096 -0.5558  0.1524
  299MOL0     H39431   8.062   1.142   3.354  0.3050 -2.7576 -0.0900
  299MOL0     H39432   8.473   1.077   3.410 -3.0379  2.7974  3.7952
  299MOL0     H39433   8.646   0.942   3.547  0.1807 -1.7144  2.8316
  299MOL0     H39434   8.709   0.897   3.755  3.7120  1.2327 -1.0829
  299MOL0     H39435   8.802   0.794   3.654 -0.8723  3.0711 -0.8100
  299MOL0     H39436   8.799   0.608   3.817 -2.5673 -1.6942  4.1628
  299MOL0     H39437   8.756   0.717   3.949  1.2101  3.0613  1.0632
  299MOL0     H39438   8.938   0.876   3.899 -3.0030  1.2481 -3.9528
  299MOL0     H39439   8.998   0.763   3.770  0.0859  0.3805  0.4554
  299MOL0     H39440   8.983   0.683   4.063  0.9837 -1.5072  0.9483
  299MOL0     H39441   9.010   0.572   3.931  1.1797 -0.9272  2.0027
  299MOL0     H39442   9.218   0.679   3.864 -1.8310 -0.7298 -0.2215
  299MOL0     H39443   9.231   0.602   4.004  2.3461 -1.1137 -3.0226
  299MOL0     H39444   9.155   0.895   4.002 -1.9901 -0.0910  0.6170
  299MOL0     H39445   9.323   0.838   3.998  0.3956 -2.6992 -0.9422
  299MOL0     H39446   9.107   0.769   4.224  0.0297  0.1952  1.1424
  299MOL0     H39447   9.277   0.738   4.236  0.2948  0.1430  0.0010
  299MOL0     H39448   9.134   1.002   4.231 -1.6748 -1.0647  0.8816
  299MOL0     H39449   9.314   0.976   4.202  0.3166 -2.8626 -1.1543
  299MOL0     H39450   8.372   0.629   3.601 -1.1053 -1.0281 -2.7542
  299MOL0     H39451   8.213   0.742   3.439 -0.2338 -1.2189  1.9571
  299MOL0     H39452   8.037   0.923   2.975  0.9501 -0.5997  1.1508
  299MOL0     H39453   7.937   1.132   2.879  2.7292 -0.5451  0.1435
  299MOL0     H39454   7.121   1.992   4.113 -2.6878  2.1090 -0.6719
  299MOL0     H39455   7.361   2.015   4.113 -1.0222  0.3675  1.1809
  299MOL0     H39456   7.739   2.086   4.031 -1.9018  2.2285 -1.6808
  299MOL0     H39457   7.969   2.138   4.028  2.2725 -0.0582 -0.5292
  299MOL0     H39458   8.169   2.083   3.990 -0.7267 -0.0391 -1.1752
  299MOL0     H39459   8.207   2.257   3.965  0.7213  0.2995 -1.9710
  299MOL0     H39460   8.340   2.058   3.783  3.2428 -0.1416  0.2630
  299MOL0     H39461   8.383   2.220   3.802  1.4222 -1.4595 -1.6216
  299MOL0     H39462   8.446   2.160   4.057 -0.0045  1.7259 -1.0319
  299MOL0     H39463   8.541   2.099   3.927  0.6993 -1.1202  1.6157
  299MOL0     H39464   8.323   1.924   4.050 -0.0640  0.9372  1.2177
  299MOL0     H39465   8.447   1.883   3.940 -1.4937  1.6144 -1.5787
  299MOL0     H39466   8.640   1.907   4.329 -1.0271  0.9644 -0.0938
  299MOL0     H39467   7.987   2.064   3.615  2.3070 -0.4101  2.4611
  299MOL0     H39468   7.760   1.986   3.609 -0.5627 -1.1307  0.9642
  300MOL0     O39469   9.502   8.666   0.205 -0.5652 -0.0701  0.0938
  300MOL0     C39470   9.601   8.721   0.161 -0.0829 -0.8905  0.4657
  300MOL0     O39471   9.611   8.770   0.034 -0.1508  0.2013 -0.5173
  300MOL0     C39472   9.503   8.770  -0.049 -0.8507 -0.4681  0.4206
  300MOL0     C39473   9.447   8.655  -0.100  0.9435 -1.2139  0.4866
  300MOL0     C39474   9.337   8.668  -0.189 -0.5042 -0.3879 -0.7544
  300MOL0     C39475   9.297   8.790  -0.238 -0.2269 -0.2372  0.7114
  300MOL0     O39476   9.186   8.790  -0.319  0.1090 -0.5998 -0.1975
  300MOL0     C39477   9.152   8.908  -0.388 -0.2736 -0.3139  0.4883
  300MOL0     C39478   9.044   8.889  -0.491 -0.5020  0.0584  0.9673
  300MOL0     C39479   9.014   9.021  -0.554 -0.2460  0.4846  0.9490
  300MOL0     C39480   8.869   9.037  -0.616  0.9596 -0.7248  0.1067
  300MOL0     C39481   8.828   9.173  -0.671 -0.3436 -0.1476  0.0952
  300MOL0     C39482   8.924   9.232  -0.780  0.4894 -0.5717 -0.3292
  300MOL0     C39483   8.967   9.125  -0.883 -0.4146 -0.0999 -0.1842
  300MOL0     C39484   9.066   9.183  -0.988  0.0608 -0.1707  0.2544
  300MOL0     N39485   9.203   9.201  -0.946 -0.2644 -0.7482 -0.2912
  300MOL0     C39486   9.250   9.294  -0.855  0.0755  0.0694 -0.2767
  300MOL0     C39487   9.378   9.242  -0.828  0.5859 -0.2331 -0.5734
  300MOL0     C39488   9.459   9.317  -0.726  0.3786  0.4849 -0.3832
  300MOL0     C39489   9.481   9.234  -0.592  0.0367 -0.0964 -0.6691
  300MOL0     C39490   9.620   9.207  -0.572 -0.6012  0.1654  0.3196
  300MOL0     C39491   9.671   9.146  -0.437 -1.4487  0.1461 -0.0026
  300MOL0     O39492   9.637   9.235  -0.339  0.5437  0.6167  0.2261
  300MOL0     C39493   9.726   9.310  -0.267 -0.1722 -0.2594 -0.7196
  300MOL0     C39494   9.673   9.356  -0.143  0.6025 -0.7934  0.0009
  300MOL0     C39495   9.743   9.444  -0.058 -1.0214 -0.8043 -0.6926
  300MOL0     C39496   9.879   9.462  -0.091  1.1438  0.3569 -0.5299
  300MOL0     C39497   9.959   9.537   0.005 -0.8694 -0.7152  0.0858
  300MOL0     O39498   9.913   9.548   0.132 -0.4718  0.0652  0.2340
  300MOL0     C39499   9.982   9.601   0.235 -0.0118  0.7504 -0.0722
  300MOL0     C39500  10.030   9.735   0.228 -0.9005  0.0609 -0.2700
  300MOL0     C39501  10.094   9.780   0.346 -0.8628  0.3344 -0.4392
  300MOL0     C39502  10.096   9.704   0.463 -0.0466 -0.2506  0.5746
  300MOL0     O39503  10.159   9.737   0.577 -0.3371  0.0652 -0.1448
  300MOL0     C39504  10.237   9.858   0.581  0.8856  1.1867  0.5462
  300MOL0     C39505  10.279   9.875   0.728  0.4234 -0.3459 -0.8166
  300MOL0     C39506  10.407   9.955   0.747  0.7318 -0.4178 -0.1738
  300MOL0     C39507  10.451   9.977   0.892  0.0106  0.4611  0.2418
  300MOL0     C39508  10.361  10.087   0.957 -0.4087 -0.1703  0.7468
  300MOL0     C39509  10.424  10.136   1.091  0.0381  0.0855 -0.2123
  300MOL0     C39510  10.333  10.228   1.158  0.6671 -1.2346  0.5041
  300MOL0     C39511  10.407  10.302   1.267  0.2188  0.1297 -0.1512
  300MOL0    Cl39512  10.517  10.418   1.190  0.0461  0.1320 -0.0521
  300MOL0     C39513  10.033   9.583   0.470 -0.6606 -0.0162 -0.3861
  300MOL0     C39514   9.977   9.535   0.356  0.6586  0.3725 -0.4988
  300MOL0     O39515  10.057   9.594  -0.033 -0.1401 -0.0707 -0.0791
  300MOL0     C39516   9.935   9.418  -0.210  0.4455 -0.1045  0.4040
  300MOL0     C39517   9.856   9.339  -0.296 -0.0872 -0.3900  0.6519
  300MOL0     N39518   9.396   9.126  -0.904  0.7059  0.2094 -0.3547
  300MOL0     N39519   9.293   9.109  -0.977  0.5458 -0.2779 -0.8362
  300MOL0     C39520   9.360   8.907  -0.198 -0.2007 -0.6231  0.2773
  300MOL0     C39521   9.460   8.898  -0.099 -0.2671  0.5253  0.3553
  300MOL0     C39522   9.717   8.719   0.256 -0.3509  0.3995 -0.4145
  300MOL0     C39523   9.705   8.663   0.386  0.4545  0.4141 -0.1938
  300MOL0     C39524   9.822   8.640   0.460  0.0343  0.3165  0.2791
  300MOL0     C39525   9.948   8.670   0.412 -1.2248 -0.8791  0.2204
  300MOL0     O39526  10.055   8.640   0.496 -0.4790 -0.1344 -0.0528
  300MOL0     C39527  10.161   8.734   0.501 -0.3464  0.0972 -1.0004
  300MOL0     C39528  10.243   8.687   0.620 -0.2031 -0.0115 -0.2778
  300MOL0     C39529  10.340   8.796   0.666  0.8237 -0.0659  0.1375
  300MOL0     C39530  10.424   8.744   0.769 -1.0526  0.0912  0.5171
  300MOL0     C39531  10.495   8.864   0.818  0.0419 -0.1310  0.4356
  300MOL0     C39532  10.573   8.960   0.854  0.0176 -0.1911 -0.6205
  300MOL0     C39533   9.959   8.726   0.291 -0.4792  0.0346  0.1188
  300MOL0     C39534   9.845   8.750   0.210  0.5722 -0.5188  1.2575
  300MOL0     H39535   9.487   8.559  -0.067  1.5605 -0.0327  3.4745
  300MOL0     H39536   9.282   8.578  -0.214  0.9540 -0.5420 -3.9119
  300MOL0     H39537   9.237   8.942  -0.448  0.2878 -2.9879 -0.3525
  300MOL0     H39538   9.132   8.993  -0.322  0.3073 -0.9170  1.4630
  300MOL0     H39539   8.946   8.854  -0.456 -1.3539  1.9320  0.5754
  300MOL0     H39540   9.081   8.820  -0.567 -1.2030 -0.4836  1.1082
  300MOL0     H39541   9.082   9.037  -0.638 -0.0383 -1.4956  0.6952
  300MOL0     H39542   9.037   9.106  -0.490  1.1627  0.7819  0.0996
  300MOL0     H39543   8.866   8.953  -0.686  2.0223 -0.8959  0.2494
  300MOL0     H39544   8.805   9.015  -0.529 -1.2474 -0.0684 -1.2846
  300MOL0     H39545   8.798   9.247  -0.596 -0.1564  0.5833 -0.5382
  300MOL0     H39546   8.732   9.152  -0.721 -0.9464  0.8122  0.8200
  300MOL0     H39547   9.006   9.279  -0.724 -0.4251  0.1103  0.4540
  300MOL0     H39548   8.875   9.310  -0.839 -2.1768  0.2032  2.6531
  300MOL0     H39549   9.009   9.036  -0.835  2.3438  1.5421  0.6792
  300MOL0     H39550   8.881   9.108  -0.948 -1.4377  2.0581  0.5309
  300MOL0     H39551   9.028   9.282  -1.012  2.6565  0.0714 -3.7588
  300MOL0     H39552   9.065   9.124  -1.081  0.0062 -0.3093  0.3428
  300MOL0     H39553   9.198   9.382  -0.819 -1.3485 -0.8698  0.0376
  300MOL0     H39554   9.408   9.411  -0.706  1.4381  1.0649 -0.3767
  300MOL0     H39555   9.554   9.330  -0.779  0.8507 -3.9215 -1.0069
  300MOL0     H39556   9.414   9.151  -0.569  1.0840  0.0545  3.9912
  300MOL0     H39557   9.464   9.305  -0.510  2.4850 -1.9074  1.5666
  300MOL0     H39558   9.650   9.154  -0.663 -2.7315  1.6091 -1.3326
  300MOL0     H39559   9.664   9.307  -0.569 -0.6990  0.1927  1.0746
  300MOL0     H39560   9.778   9.131  -0.453 -1.2897  1.8096 -0.7572
  300MOL0     H39561   9.624   9.049  -0.418  1.8063 -1.3490  1.0848
  300MOL0     H39562   9.569   9.340  -0.118  1.4031 -4.7013  1.6432
  300MOL0     H39563   9.696   9.500   0.022  0.0019  1.9307 -1.8849
  300MOL0     H39564  10.027   9.784   0.131 -0.3689  2.8879  1.0603
  300MOL0     H39565  10.148   9.874   0.345 -0.7918  0.3162 -2.6616
  300MOL0     H39566  10.184   9.946   0.543  1.0952  0.1571 -2.3468
  300MOL0     H39567  10.328   9.853   0.520 -0.2187 -0.3783 -1.0584
  300MOL0     H39568  10.307   9.777   0.767  1.5274 -0.5094 -1.9799
  300MOL0     H39569  10.193   9.923   0.777 -1.1419  0.3123 -3.9400
  300MOL0     H39570  10.414  10.055   0.703  2.8420  0.2188  1.4582
  300MOL0     H39571  10.484   9.900   0.693  1.1000  0.7075 -0.8259
  300MOL0     H39572  10.448   9.877   0.937  1.5197 -0.5905 -1.7791
  300MOL0     H39573  10.549  10.024   0.898  0.6387 -0.7496 -0.1043
  300MOL0     H39574  10.263  10.044   0.981 -0.5433 -0.4669 -0.2684
  300MOL0     H39575  10.346  10.167   0.884 -2.3580 -1.9596 -0.9820
  300MOL0     H39576  10.524  10.175   1.071  0.0762 -0.6437 -1.5500
  300MOL0     H39577  10.446  10.050   1.155 -2.8180 -1.4349 -1.1047
  300MOL0     H39578  10.287  10.292   1.082 -0.8066  1.4652  3.4550
  300MOL0     H39579  10.246  10.186   1.208  1.0189 -0.9593  1.3638
  300MOL0     H39580  10.463  10.231   1.327  0.9303 -0.8779 -1.9166
  300MOL0     H39581  10.338  10.360   1.329 -0.3043  2.2508 -2.5306
  300MOL0     H39582  10.025   9.550   0.574 -0.4909 -1.7685 -0.8886
  300MOL0     H39583   9.917   9.445   0.357  0.1370  0.6031 -3.1025
  300MOL0     H39584  10.040   9.430  -0.235  0.8344  2.3407  2.7577
  300MOL0     H39585   9.910   9.305  -0.383  1.0024 -0.1393  1.2074
  300MOL0     H39586   9.342   9.004  -0.244  2.9598 -0.4670 -0.8330
  300MOL0     H39587   9.517   8.988  -0.079 -1.0144  1.0882 -0.0106
  300MOL0     H39588   9.610   8.635   0.432  1.0838  1.8349  2.1414
  300MOL0     H39589   9.803   8.597   0.558 -0.2463  1.6229  0.8265
  300MOL0     H39590  10.134   8.840   0.503  0.8616  0.4276 -1.4040
  300MOL0     H39591  10.226   8.723   0.413  0.7968 -1.1318 -0.0288
  300MOL0     H39592  10.162   8.669   0.691  2.0298  0.3387  2.5344
  300MOL0     H39593  10.292   8.594   0.589 -0.0996  0.9777 -3.4825
  300MOL0     H39594  10.274   8.874   0.705  0.5176  0.4909 -1.4291
  300MOL0     H39595  10.391   8.829   0.575 -1.2565 -2.7625 -2.2079
  300MOL0     H39596  10.354   8.695   0.837 -0.4865 -3.0183 -0.9672
  300MOL0     H39597  10.496   8.670   0.733 -0.4198 -0.6072  3.0293
  300MOL0     H39598  10.628   9.036   0.906  0.2526 -0.0578 -1.0573
  300MOL0     H39599  10.056   8.755   0.253 -2.4116  2.6734 -3.5002
  300MOL0     H39600   9.858   8.794   0.112  1.8619 -3.2666  0.0883
  301MOL0     O39601  11.354   2.323   2.604  0.3191 -0.4462  0.1248
  301MOL0     C39602  11.245   2.334   2.556 -0.6581  0.3080  0.0537
  301MOL0     O39603  11.167   2.226   2.512  0.2550 -0.0594  0.4677
  301MOL0     C39604  11.205   2.106   2.496  0.0024  0.1460 -0.0751
  301MOL0     C39605  11.103   2.020   2.445 -0.3499  0.2514 -0.5794
  301MOL0     C39606  11.137   1.889   2.409  0.0581 -0.3474 -0.5229
  301MOL0     C39607  11.267   1.839   2.433  0.0776  0.2167  0.3528
  301MOL0     O39608  11.275   1.708   2.402 -0.5365  0.2405 -0.0379
  301MOL0     C39609  11.392   1.675   2.327 -0.6243  0.3731  0.9099
  301MOL0     C39610  11.417   1.527   2.349 -0.2028  0.1581  0.0658
  301MOL0     C39611  11.441   1.486   2.503  0.1441 -0.7482 -0.1406
  301MOL0     C39612  11.492   1.339   2.516 -1.2862  0.1712  0.2973
  301MOL0     C39613  11.389   1.230   2.478 -0.2708  0.3561 -0.4399
  301MOL0     C39614  11.456   1.100   2.471  0.0076 -0.7015  1.3233
  301MOL0     C39615  11.347   0.985   2.483  0.2672 -0.9075  0.5084
  301MOL0     C39616  11.402   0.849   2.497 -0.1986 -0.2081  0.4851
  301MOL0     N39617  11.455   0.849   2.636  1.0881  0.4735 -0.4897
  301MOL0     C39618  11.571   0.883   2.691 -0.0177 -0.4334  0.3303
  301MOL0     C39619  11.570   0.866   2.826  0.7181 -0.3410  0.3595
  301MOL0     C39620  11.687   0.910   2.919 -0.0668  0.3159  0.2481
  301MOL0     C39621  11.727   1.061   2.913 -0.7130 -0.0263  0.3799
  301MOL0     C39622  11.715   1.115   3.054 -0.7986 -1.0049  0.1299
  301MOL0     C39623  11.841   1.086   3.140 -0.5571  0.1250 -0.4904
  301MOL0     O39624  11.817   1.132   3.274  0.0195 -0.3175 -0.1148
  301MOL0     C39625  11.728   1.053   3.352 -0.0262  0.7297  0.5357
  301MOL0     C39626  11.734   0.913   3.371  0.5324  0.2403  0.7121
  301MOL0     C39627  11.643   0.848   3.452  0.2019  0.0113 -0.2682
  301MOL0     C39628  11.529   0.918   3.497  1.5340  0.0798 -0.0241
  301MOL0     C39629  11.417   0.844   3.573 -0.0720 -0.5919 -0.0021
  301MOL0     O39630  11.459   0.732   3.637 -0.2127  0.3108  0.1669
  301MOL0     C39631  11.396   0.655   3.737  0.7061  0.0817 -1.1574
  301MOL0     C39632  11.311   0.711   3.827  1.1896  0.0120  1.5802
  301MOL0     C39633  11.263   0.645   3.936  0.1802  0.3930 -0.3991
  301MOL0     C39634  11.315   0.514   3.969 -1.1031 -0.1869 -0.3424
  301MOL0     O39635  11.288   0.453   4.084 -0.4488 -0.2036  0.7244
  301MOL0     C39636  11.360   0.344   4.138  0.0354  0.2636  0.6291
  301MOL0     C39637  11.513   0.371   4.152 -0.2858  0.7021  0.5460
  301MOL0     C39638  11.542   0.452   4.286 -0.0871 -0.5279 -0.1220
  301MOL0     C39639  11.643   0.387   4.380  0.2529 -0.3030  0.2221
  301MOL0     C39640  11.780   0.442   4.357 -0.4975  0.6105 -0.5509
  301MOL0     C39641  11.808   0.582   4.393 -0.5041  1.0499 -0.3970
  301MOL0     C39642  11.960   0.594   4.408  0.3910 -0.7658  0.0666
  301MOL0     C39643  12.022   0.730   4.408  0.0601  0.8723  0.5924
  301MOL0    Cl39644  12.196   0.715   4.428 -0.1643 -0.6070 -0.0488
  301MOL0     C39645  11.395   0.451   3.870  0.3764  0.0575  0.1839
  301MOL0     C39646  11.443   0.523   3.759  0.2306 -0.5888 -0.2372
  301MOL0     O39647  11.298   0.886   3.583 -0.4622 -0.1463 -0.2615
  301MOL0     C39648  11.517   1.052   3.471 -0.2076 -0.1225  0.3835
  301MOL0     C39649  11.614   1.118   3.392  0.5491  0.3661  0.0675
  301MOL0     N39650  11.435   0.825   2.848 -0.3406 -0.0623 -1.1763
  301MOL0     N39651  11.378   0.804   2.735 -0.4297 -0.4499 -0.0291
  301MOL0     C39652  11.363   1.925   2.479 -0.4945  0.2423 -0.8435
  301MOL0     C39653  11.330   2.057   2.509 -0.4094  0.2906 -0.4411
  301MOL0     C39654  11.197   2.474   2.528 -0.0712  0.1317 -0.7804
  301MOL0     C39655  11.277   2.586   2.522  0.0155 -0.0511  0.0906
  301MOL0     C39656  11.231   2.713   2.480 -0.2671  0.5312  0.0635
  301MOL0     C39657  11.104   2.727   2.437 -0.3678 -0.5146 -0.1227
  301MOL0     O39658  11.048   2.851   2.395 -0.0277  0.3647 -0.3581
  301MOL0     C39659  11.128   2.967   2.386 -0.1612 -1.0434 -0.5546
  301MOL0     C39660  11.100   3.064   2.502 -0.4319  0.2061 -0.1555
  301MOL0     C39661  11.169   3.193   2.479  0.1434 -0.5201  0.3319
  301MOL0     C39662  11.146   3.265   2.616 -0.9859  0.4502 -0.9417
  301MOL0     C39663  11.197   3.404   2.614  0.2968  0.2690 -0.1213
  301MOL0     C39664  11.239   3.517   2.632  0.7343 -0.8914 -0.2542
  301MOL0     C39665  11.017   2.626   2.452  0.4755  0.3229  0.4591
  301MOL0     C39666  11.061   2.499   2.506 -0.9590  0.2268  0.6141
  301MOL0     H39667  11.009   2.074   2.439  0.5589  2.0546  0.4060
  301MOL0     H39668  11.047   1.844   2.368 -0.3760  0.9872 -1.0666
  301MOL0     H39669  11.473   1.733   2.371 -0.9810 -0.8839  3.3652
  301MOL0     H39670  11.383   1.686   2.218  2.7500 -3.0720  0.0474
  301MOL0     H39671  11.510   1.500   2.299  0.4940  3.1045 -0.4559
  301MOL0     H39672  11.343   1.460   2.305  0.8874  0.1386 -1.8393
  301MOL0     H39673  11.352   1.504   2.565 -0.6876 -0.6493 -1.3216
  301MOL0     H39674  11.519   1.556   2.535  0.3385 -1.0142 -0.0323
  301MOL0     H39675  11.576   1.325   2.448 -0.3952  2.2931  0.9132
  301MOL0     H39676  11.527   1.321   2.617 -4.7356 -0.9453  1.4407
  301MOL0     H39677  11.339   1.255   2.384 -0.8894 -1.9572 -0.7865
  301MOL0     H39678  11.307   1.226   2.550  0.2101 -0.6935  0.0809
  301MOL0     H39679  11.533   1.093   2.548  1.8398  1.6213 -0.1589
  301MOL0     H39680  11.502   1.096   2.372 -5.2362 -0.0895 -1.5058
  301MOL0     H39681  11.265   1.003   2.553 -1.2658  4.4336 -2.0909
  301MOL0     H39682  11.308   0.986   2.381 -3.2155  0.1866  1.6956
  301MOL0     H39683  11.479   0.834   2.420 -1.2400 -2.2860 -0.2163
  301MOL0     H39684  11.332   0.768   2.476 -0.0007  0.3047 -2.5517
  301MOL0     H39685  11.649   0.929   2.632 -0.3943  1.4782  1.2528
  301MOL0     H39686  11.777   0.852   2.899 -1.5026 -1.2373 -2.1606
  301MOL0     H39687  11.654   0.887   3.021 -2.8665  4.0315  0.4022
  301MOL0     H39688  11.662   1.114   2.843 -1.4758  3.3969  3.3302
  301MOL0     H39689  11.831   1.068   2.881 -0.9620  2.0325 -0.1060
  301MOL0     H39690  11.714   1.225   3.053 -1.6456 -0.9926 -1.4937
  301MOL0     H39691  11.619   1.083   3.096 -0.5443 -1.4554  0.3665
  301MOL0     H39692  11.931   1.136   3.102  0.4447 -0.4701  0.9823
  301MOL0     H39693  11.857   0.978   3.144 -2.2653 -0.1256  0.4141
  301MOL0     H39694  11.822   0.861   3.334  0.0838 -0.4650  0.6192
  301MOL0     H39695  11.660   0.742   3.470 -0.3247 -0.0531 -0.1099
  301MOL0     H39696  11.287   0.816   3.815 -0.2652 -0.3991  0.5724
  301MOL0     H39697  11.192   0.688   4.006 -1.9050  1.0713 -2.7859
  301MOL0     H39698  11.352   0.264   4.063  1.7635  1.7836 -1.2919
  301MOL0     H39699  11.307   0.310   4.228 -1.1641 -2.6553 -1.0353
  301MOL0     H39700  11.558   0.422   4.067  2.1174 -1.4042  0.4602
  301MOL0     H39701  11.563   0.274   4.161 -0.7381  0.6279  3.1620
  301MOL0     H39702  11.444   0.453   4.335 -0.0348  0.3242 -0.0171
  301MOL0     H39703  11.560   0.556   4.258  3.5199 -1.2418 -0.9387
  301MOL0     H39704  11.604   0.407   4.481 -2.5022 -0.5110 -0.7348
  301MOL0     H39705  11.648   0.279   4.366  2.4273 -0.4201  1.5007
  301MOL0     H39706  11.806   0.416   4.254  0.7204 -1.8076  0.2750
  301MOL0     H39707  11.841   0.381   4.425 -0.6993  1.8218  0.7622
  301MOL0     H39708  11.750   0.595   4.485 -3.0794 -0.3067 -1.7115
  301MOL0     H39709  11.777   0.655   4.318  0.1548  0.0848 -1.6480
  301MOL0     H39710  12.000   0.538   4.493  0.3301 -3.2047 -1.4326
  301MOL0     H39711  12.003   0.543   4.322  3.0209  0.7960  0.3405
  301MOL0     H39712  11.981   0.803   4.478 -1.2987  0.4019  0.3225
  301MOL0     H39713  11.998   0.778   4.312 -2.7450 -0.2505  0.6338
  301MOL0     H39714  11.440   0.357   3.899  0.6372  0.7909  2.3227
  301MOL0     H39715  11.511   0.481   3.686 -0.2177  0.8421 -1.5380
  301MOL0     H39716  11.426   1.103   3.504 -0.7103 -0.7203 -0.0487
  301MOL0     H39717  11.606   1.226   3.383  0.5608  0.3870  0.2958
  301MOL0     H39718  11.468   1.898   2.482  0.1900  2.6977 -0.1707
  301MOL0     H39719  11.417   2.118   2.533 -1.5315  2.2070 -1.0416
  301MOL0     H39720  11.382   2.588   2.549  0.1038  0.1199 -0.2492
  301MOL0     H39721  11.305   2.793   2.480  1.4012 -0.9445 -0.2249
  301MOL0     H39722  11.096   3.013   2.292  1.3360 -4.4760 -2.9224
  301MOL0     H39723  11.234   2.940   2.379 -0.7899 -3.7205 -0.4764
  301MOL0     H39724  10.993   3.085   2.505 -0.2156  1.4163 -0.1861
  301MOL0     H39725  11.132   3.016   2.595 -1.8081 -1.8349 -0.6937
  301MOL0     H39726  11.116   3.253   2.404 -0.4217 -2.1228 -0.6135
  301MOL0     H39727  11.270   3.170   2.443 -0.4994 -3.1052 -0.0294
  301MOL0     H39728  11.039   3.257   2.635 -1.0812  1.4662 -1.0272
  301MOL0     H39729  11.201   3.212   2.695  0.7767  2.0212 -1.0350
  301MOL0     H39730  11.263   3.621   2.638  0.1201 -0.7881  0.6152
  301MOL0     H39731  10.914   2.635   2.420 -0.1488  0.4831  2.3899
  301MOL0     H39732  10.996   2.412   2.498  0.0748 -0.5502  0.4195
  302MOL0     O39733   2.395   6.698   9.268  0.2663  0.0084 -0.3328
  302MOL0     C39734   2.324   6.775   9.331 -0.6996 -0.5370 -1.0505
  302MOL0     O39735   2.242   6.739   9.446 -0.7581  0.1660  1.2101
  302MOL0     C39736   2.245   6.608   9.493 -0.1806 -0.4198 -0.7443
  302MOL0     C39737   2.281   6.496   9.419  0.0911  0.5682 -0.9539
  302MOL0     C39738   2.289   6.375   9.495 -0.9823 -0.0821  0.6868
  302MOL0     C39739   2.255   6.365   9.619  0.6172  0.2174 -0.6569
  302MOL0     O39740   2.261   6.239   9.671  0.0001 -0.0325 -0.1648
  302MOL0     C39741   2.198   6.198   9.793 -0.5057 -0.3040 -0.2933
  302MOL0     C39742   2.218   6.044   9.819  0.0804 -0.6636 -0.2250
  302MOL0     C39743   2.118   5.993   9.931  0.3052 -0.2091  0.1776
  302MOL0     C39744   2.142   5.854   9.990 -0.7110 -0.4538  0.7021
  302MOL0     C39745   2.027   5.782  10.067  0.5195  0.7102  0.1601
  302MOL0     C39746   2.067   5.677  10.170  0.1415  0.0686 -0.1159
  302MOL0     C39747   1.982   5.557  10.151 -0.0119  0.7700 -0.8687
  302MOL0     C39748   2.027   5.445  10.238 -0.4861 -0.5986 -0.6005
  302MOL0     N39749   1.953   5.322  10.194  0.7112 -1.2899  0.0587
  302MOL0     C39750   1.819   5.293  10.195  0.2664  0.2330 -0.8707
  302MOL0     C39751   1.804   5.166  10.154 -0.2843 -0.3824 -0.0336
  302MOL0     C39752   1.663   5.102  10.140 -0.4592 -0.7794  0.2786
  302MOL0     C39753   1.612   5.038  10.269 -0.4001 -1.0920  0.7795
  302MOL0     C39754   1.698   4.907  10.296 -0.2217 -0.4291 -0.2123
  302MOL0     C39755   1.651   4.784  10.204 -0.8037  0.5840  0.7674
  302MOL0     O39756   1.764   4.688  10.186 -0.5882 -0.2834 -0.2217
  302MOL0     C39757   1.833   4.639  10.299  0.1031 -0.5377 -0.7167
  302MOL0     C39758   1.954   4.585  10.279 -0.0005  0.1863 -0.1121
  302MOL0     C39759   2.022   4.508  10.377  0.1361 -0.1173  0.7557
  302MOL0     C39760   1.970   4.482  10.504 -0.2323  0.0445 -0.5267
  302MOL0     C39761   2.034   4.399  10.606  0.4876  0.0751 -0.4828
  302MOL0     O39762   2.132   4.313  10.566 -0.2371 -0.1208  0.4686
  302MOL0     C39763   2.211   4.253  10.661  0.3756  0.1038  0.3709
  302MOL0     C39764   2.273   4.330  10.760 -0.6235 -0.5043 -0.5954
  302MOL0     C39765   2.363   4.283  10.844 -0.7201 -0.5487 -0.7361
  302MOL0     C39766   2.399   4.146  10.840  0.7645  0.8340  0.7980
  302MOL0     O39767   2.493   4.074  10.912 -0.0167 -0.4749 -0.2953
  302MOL0     C39768   2.606   4.144  10.971  0.1318 -0.4811  0.1722
  302MOL0     C39769   2.691   4.052  11.057 -0.2895 -0.0882  0.9210
  302MOL0     C39770   2.763   3.945  10.969 -0.8348 -0.5825 -0.1757
  302MOL0     C39771   2.877   3.878  11.047  0.0281 -0.5653 -1.1358
  302MOL0     C39772   2.915   3.743  10.977 -0.1120 -0.7139 -0.0612
  302MOL0     C39773   3.020   3.759  10.870 -0.0432 -0.0085  0.3970
  302MOL0     C39774   3.074   3.625  10.855 -0.3312  0.4404  0.2595
  302MOL0     C39775   3.142   3.599  10.712 -0.2604  0.7657  0.0056
  302MOL0    Cl39776   3.172   3.418  10.698  0.0654 -0.0081  0.2669
  302MOL0     C39777   2.347   4.062  10.737 -0.2110 -0.0890 -1.2722
  302MOL0     C39778   2.254   4.116  10.648 -0.1486  0.8633 -0.0460
  302MOL0     O39779   2.001   4.424  10.722 -0.1482 -0.1106  0.0731
  302MOL0     C39780   1.843   4.548  10.529  0.5483  0.4540 -0.2566
  302MOL0     C39781   1.780   4.619  10.429  0.6476  0.3586  1.1101
  302MOL0     N39782   1.926   5.121  10.130 -0.5747  0.5322  0.5191
  302MOL0     N39783   2.017   5.207  10.163 -0.3404  0.6489  0.0871
  302MOL0     C39784   2.210   6.474   9.693 -0.1857 -0.2801  0.3476
  302MOL0     C39785   2.215   6.601   9.634 -0.0334  0.2963 -0.1174
  302MOL0     C39786   2.305   6.923   9.277  0.3195 -0.3473 -0.5458
  302MOL0     C39787   2.356   6.967   9.162 -0.2258  0.4067  0.3337
  302MOL0     C39788   2.323   7.104   9.115 -0.6599  0.3389 -0.1549
  302MOL0     C39789   2.242   7.190   9.196 -0.1492 -0.6983 -0.3760
  302MOL0     O39790   2.200   7.313   9.154 -0.1675 -0.5335 -0.2593
  302MOL0     C39791   2.082   7.377   9.206  0.3698 -0.9023  0.2409
  302MOL0     C39792   2.112   7.472   9.319  0.0760 -0.0440  0.3372
  302MOL0     C39793   2.241   7.558   9.299 -0.4594 -0.5625  0.3817
  302MOL0     C39794   2.295   7.626   9.426 -0.3257 -0.1211  0.2815
  302MOL0     C39795   2.188   7.695   9.499 -0.4516 -0.5244  0.6103
  302MOL0     C39796   2.097   7.747   9.560  0.3426  0.3393  0.0623
  302MOL0     C39797   2.202   7.133   9.316 -1.1756  0.1461  0.2878
  302MOL0     C39798   2.229   7.009   9.355 -0.0164  0.2661 -0.2092
  302MOL0     H39799   2.305   6.499   9.314  2.4694  2.7589 -0.4466
  302MOL0     H39800   2.337   6.295   9.441 -0.1697  1.1704 -0.5039
  302MOL0     H39801   2.098   6.240   9.780 -0.0824  0.4429 -1.2562
  302MOL0     H39802   2.250   6.249   9.875 -1.3536  0.1224 -0.0173
  302MOL0     H39803   2.323   6.028   9.846  0.1340  1.1322  0.7985
  302MOL0     H39804   2.218   5.986   9.727 -0.4618  0.4213 -0.9259
  302MOL0     H39805   2.020   5.992   9.883  0.7774 -0.6342 -0.8013
  302MOL0     H39806   2.127   6.061  10.016 -0.9765 -1.4992  1.4086
  302MOL0     H39807   2.181   5.792   9.908 -3.4765 -1.8262  0.2865
  302MOL0     H39808   2.225   5.864  10.060  0.1895 -0.7969 -0.2841
  302MOL0     H39809   1.959   5.753   9.986  0.8321  1.3088 -0.3296
  302MOL0     H39810   1.971   5.858  10.122  0.7678  1.6480 -0.8463
  302MOL0     H39811   2.045   5.703  10.274  0.9705  1.1139 -0.1793
  302MOL0     H39812   2.174   5.651  10.170 -0.1493 -1.1972 -0.6884
  302MOL0     H39813   1.880   5.591  10.174  0.0247  1.0191 -1.0725
  302MOL0     H39814   1.978   5.512  10.052  1.9932 -1.2027 -0.1470
  302MOL0     H39815   1.994   5.470  10.340 -2.3241 -4.7886  0.0684
  302MOL0     H39816   2.134   5.431  10.219  0.1477  1.6602  0.8876
  302MOL0     H39817   1.742   5.346  10.250  0.3267  0.1433 -0.6987
  302MOL0     H39818   1.674   5.025  10.063 -3.6903 -0.4435 -0.6907
  302MOL0     H39819   1.593   5.175  10.099  1.2743  1.3173  0.8581
  302MOL0     H39820   1.513   4.996  10.253  0.5895 -2.8187 -1.2961
  302MOL0     H39821   1.607   5.117  10.345  3.1590  0.2614 -0.1700
  302MOL0     H39822   1.806   4.917  10.288 -0.0231 -2.8704 -1.7642
  302MOL0     H39823   1.684   4.894  10.403 -3.3257  1.7366 -0.2066
  302MOL0     H39824   1.614   4.819  10.107  1.1956  0.2539 -0.1641
  302MOL0     H39825   1.572   4.732  10.259  1.4831 -3.9547  0.2321
  302MOL0     H39826   1.998   4.612  10.183 -2.0266 -1.1468 -1.4865
  302MOL0     H39827   2.119   4.466  10.352  0.1237 -0.6292  1.5489
  302MOL0     H39828   2.248   4.436  10.759 -0.4029 -0.4538 -2.0808
  302MOL0     H39829   2.392   4.364  10.910  2.0427 -1.0814 -1.1958
  302MOL0     H39830   2.574   4.220  11.042  3.6541  0.1041  1.3355
  302MOL0     H39831   2.672   4.198  10.903  1.7358  0.8055  2.6007
  302MOL0     H39832   2.633   3.992  11.127 -0.8645 -0.0510  0.4801
  302MOL0     H39833   2.765   4.122  11.098  0.6865  0.7604 -2.0293
  302MOL0     H39834   2.800   3.994  10.879 -1.3162 -0.0622 -0.0989
  302MOL0     H39835   2.692   3.869  10.935 -0.7572 -1.3777  1.3152
  302MOL0     H39836   2.967   3.938  11.061 -0.5533 -0.1708  1.4671
  302MOL0     H39837   2.839   3.852  11.146  1.3446  3.1050  0.5177
  302MOL0     H39838   2.841   3.687  10.918  1.5571 -0.5586 -2.4849
  302MOL0     H39839   2.963   3.678  11.050  3.6393  1.1569 -0.6154
  302MOL0     H39840   3.109   3.809  10.909  1.3924 -3.5992  2.1986
  302MOL0     H39841   2.970   3.793  10.778 -2.8065  0.9196  2.0868
  302MOL0     H39842   3.150   3.626  10.934  0.9523  2.6141 -0.9142
  302MOL0     H39843   3.005   3.542  10.871  1.4660 -0.8383  1.8697
  302MOL0     H39844   3.231   3.660  10.695  1.3602  0.0103  4.3861
  302MOL0     H39845   3.067   3.623  10.636  0.8223 -1.7071 -1.9946
  302MOL0     H39846   2.381   3.959  10.727 -0.6189 -0.1731 -1.8367
  302MOL0     H39847   2.206   4.051  10.576  0.8093  1.7163 -1.4926
  302MOL0     H39848   1.809   4.546  10.632  1.6292  2.6577  0.2089
  302MOL0     H39849   1.684   4.652  10.467  0.7393  1.3944  0.4637
  302MOL0     H39850   2.183   6.478   9.798  0.7475 -0.8176  0.6197
  302MOL0     H39851   2.188   6.687   9.694  1.1928  0.1004  0.7333
  302MOL0     H39852   2.423   6.905   9.102 -0.1757  0.6467  0.1419
  302MOL0     H39853   2.367   7.139   9.022 -1.7957  2.5118  0.0490
  302MOL0     H39854   2.004   7.307   9.236 -0.2821  0.6418  2.3910
  302MOL0     H39855   2.042   7.425   9.116 -0.0741 -0.8647  0.4577
  302MOL0     H39856   2.028   7.540   9.335  1.6765  2.4484 -1.1790
  302MOL0     H39857   2.138   7.412   9.407  3.1153 -2.4547 -1.9839
  302MOL0     H39858   2.218   7.634   9.223  0.3758  0.4582  1.1242
  302MOL0     H39859   2.319   7.499   9.252 -0.0695 -0.1646  0.5214
  302MOL0     H39860   2.351   7.550   9.482 -2.4049 -0.1682  2.4754
  302MOL0     H39861   2.377   7.688   9.392 -0.7050  1.0884  1.4598
  302MOL0     H39862   2.016   7.766   9.628 -0.9075  1.6493 -1.7070
  302MOL0     H39863   2.146   7.187   9.392 -1.1553  0.9203 -0.2293
  302MOL0     H39864   2.186   6.984   9.451  3.7386  1.9885  2.1372
  303MOL0     O39865   7.114   5.724   6.214 -0.1543  0.1800 -0.1034
  303MOL0     C39866   7.128   5.734   6.091  0.4889 -0.4029 -0.3835
  303MOL0     O39867   7.039   5.698   5.997  0.0299 -1.0125  0.7863
  303MOL0     C39868   6.915   5.661   6.041 -0.2225 -0.4017 -0.6209
  303MOL0     C39869   6.894   5.539   6.099  0.3523 -0.4024 -0.3472
  303MOL0     C39870   6.761   5.503   6.134 -0.0263 -0.1943  0.3619
  303MOL0     C39871   6.661   5.591   6.128 -0.6860 -0.6791  0.4327
  303MOL0     O39872   6.543   5.548   6.177 -0.0428  0.5690 -0.0310
  303MOL0     C39873   6.431   5.633   6.203  0.3099 -0.1443  0.1805
  303MOL0     C39874   6.316   5.544   6.258 -1.0703  0.1021  0.0510
  303MOL0     C39875   6.175   5.607   6.295 -0.2483 -0.0588  0.2629
  303MOL0     C39876   6.092   5.488   6.339  0.7503 -0.3499 -0.3227
  303MOL0     C39877   5.943   5.524   6.328  0.6778  0.0739  0.2754
  303MOL0     C39878   5.899   5.650   6.396  0.0150 -0.5203 -0.0640
  303MOL0     C39879   5.755   5.675   6.386  0.2283  0.3122  0.4033
  303MOL0     C39880   5.708   5.711   6.236 -0.2419  0.2118 -0.6499
  303MOL0     N39881   5.565   5.747   6.235 -0.3268 -0.2448  0.1241
  303MOL0     C39882   5.519   5.868   6.263 -0.4143 -0.3949 -0.5566
  303MOL0     C39883   5.385   5.863   6.221 -0.1179  0.1747  0.4974
  303MOL0     C39884   5.275   5.959   6.245 -0.2532 -0.1030 -0.0428
  303MOL0     C39885   5.249   5.992   6.386  0.5559  0.9149 -0.6255
  303MOL0     C39886   5.184   6.128   6.395  0.0783  0.7176 -0.4433
  303MOL0     C39887   5.053   6.144   6.313  1.4802  0.0352  0.5283
  303MOL0     O39888   4.991   6.265   6.371 -0.2039  0.4599  0.2724
  303MOL0     C39889   4.873   6.312   6.319  0.2464 -0.1461 -0.0901
  303MOL0     C39890   4.837   6.445   6.339  0.5266  0.0998  0.0253
  303MOL0     C39891   4.715   6.494   6.292 -0.0312 -0.4646  0.0420
  303MOL0     C39892   4.627   6.414   6.222  0.0296 -1.2689  0.3024
  303MOL0     C39893   4.496   6.473   6.173 -0.3952 -0.3090 -0.3060
  303MOL0     O39894   4.402   6.375   6.147 -0.2371  0.4240  0.1375
  303MOL0     C39895   4.288   6.398   6.071  0.0924  0.0049  0.9046
  303MOL0     C39896   4.270   6.493   5.966 -0.3054 -0.6038  0.6783
  303MOL0     C39897   4.154   6.510   5.896 -0.0395 -0.3020 -0.5419
  303MOL0     C39898   4.048   6.428   5.936 -0.7397 -0.6049 -0.0524
  303MOL0     O39899   3.929   6.456   5.879  0.0903 -0.4047  0.4828
  303MOL0     C39900   3.812   6.385   5.905  0.9073  0.1070  0.5793
  303MOL0     C39901   3.708   6.452   5.816 -0.4302  0.2781 -0.0910
  303MOL0     C39902   3.637   6.576   5.884 -0.4012 -0.1009  0.2149
  303MOL0     C39903   3.520   6.621   5.795 -0.0516 -0.0389  0.3939
  303MOL0     C39904   3.421   6.718   5.866  0.5760  0.0052  0.1970
  303MOL0     C39905   3.288   6.735   5.780  0.0866 -0.2568 -0.1156
  303MOL0     C39906   3.315   6.775   5.634  0.5200 -0.2391  0.2299
  303MOL0     C39907   3.316   6.932   5.624 -0.1915 -0.7876 -0.2691
  303MOL0    Cl39908   3.286   6.965   5.451 -0.5325  0.0903  0.0528
  303MOL0     C39909   4.062   6.339   6.041  0.0896 -0.4541  0.1597
  303MOL0     C39910   4.177   6.322   6.104 -0.0521  1.0305 -0.3606
  303MOL0     O39911   4.472   6.591   6.173 -0.2846 -0.0236  0.3135
  303MOL0     C39912   4.672   6.279   6.194 -0.1948 -0.6911  0.4632
  303MOL0     C39913   4.792   6.225   6.251  0.8958 -0.6597 -0.4423
  303MOL0     N39914   5.352   5.728   6.185  0.2427 -0.4785 -0.3220
  303MOL0     N39915   5.469   5.673   6.173 -0.1856 -0.4545  0.1790
  303MOL0     C39916   6.684   5.720   6.065  0.1827  0.4940 -0.2940
  303MOL0     C39917   6.812   5.751   6.022  0.1158  0.1485  0.9882
  303MOL0     C39918   7.268   5.764   6.048  0.5626 -0.4480  0.3002
  303MOL0     C39919   7.370   5.819   6.132 -0.3962  0.0741 -0.5303
  303MOL0     C39920   7.496   5.843   6.074 -0.8061 -0.6470 -0.6540
  303MOL0     C39921   7.525   5.814   5.939  0.4635  0.6771  0.0020
  303MOL0     O39922   7.644   5.867   5.891  0.8812  0.0683 -0.0644
  303MOL0     C39923   7.641   5.896   5.743 -0.3089  0.7785 -0.5660
  303MOL0     C39924   7.732   6.006   5.691  0.2969 -0.6414 -0.0986
  303MOL0     C39925   7.878   5.997   5.727 -0.3104  0.6231 -0.7609
  303MOL0     C39926   7.934   6.111   5.801  0.2701 -0.3507 -0.2476
  303MOL0     C39927   8.047   6.064   5.877 -0.7600  0.9330 -0.1565
  303MOL0     C39928   8.146   6.012   5.935  0.1390 -0.4403  0.0497
  303MOL0     C39929   7.436   5.739   5.867 -0.0674  0.6569 -0.5541
  303MOL0     C39930   7.310   5.716   5.925  0.4366  0.6919  0.0449
  303MOL0     H39931   6.973   5.465   6.108 -0.5913 -1.5239 -0.8811
  303MOL0     H39932   6.761   5.409   6.188  1.3790  1.5574  3.7505
  303MOL0     H39933   6.396   5.691   6.117  0.9501 -0.5883 -0.3932
  303MOL0     H39934   6.447   5.706   6.283 -2.3828  1.9891 -1.0723
  303MOL0     H39935   6.353   5.501   6.352  0.8242  1.8499  0.1750
  303MOL0     H39936   6.303   5.462   6.186  1.8422 -0.4791  0.0643
  303MOL0     H39937   6.137   5.656   6.205  1.5633  2.7045  0.8809
  303MOL0     H39938   6.186   5.690   6.366 -0.8468 -1.5796  2.2541
  303MOL0     H39939   6.118   5.397   6.282  1.3722 -0.4289  0.0848
  303MOL0     H39940   6.114   5.469   6.444  2.1885  0.7275 -0.4036
  303MOL0     H39941   5.876   5.440   6.349  1.9088 -1.6750 -2.2389
  303MOL0     H39942   5.922   5.543   6.222  1.6547  2.3451  0.4317
  303MOL0     H39943   5.953   5.730   6.345 -3.0115  1.6486 -0.1211
  303MOL0     H39944   5.924   5.638   6.502 -0.7572  1.0534  0.3274
  303MOL0     H39945   5.692   5.594   6.424 -0.5820  1.9695  2.8713
  303MOL0     H39946   5.727   5.757   6.453  3.8998 -1.2553  4.3282
  303MOL0     H39947   5.715   5.620   6.176 -1.1168 -0.2237 -0.1191
  303MOL0     H39948   5.765   5.795   6.196 -0.1783  1.1029  1.1854
  303MOL0     H39949   5.562   5.957   6.307 -2.3875 -0.4104  1.6110
  303MOL0     H39950   5.188   5.934   6.185 -0.3830  0.2778 -0.0132
  303MOL0     H39951   5.316   6.040   6.184  0.9875 -0.9831 -0.4281
  303MOL0     H39952   5.341   5.989   6.445  1.3749  2.3871 -1.7573
  303MOL0     H39953   5.189   5.913   6.431 -2.3035  1.0907 -3.7219
  303MOL0     H39954   5.161   6.131   6.502  1.2826 -2.2891  0.0084
  303MOL0     H39955   5.256   6.203   6.361  1.2255  1.0156  2.3313
  303MOL0     H39956   4.985   6.062   6.336  1.4775 -0.0750  0.1280
  303MOL0     H39957   5.065   6.152   6.204 -1.5264 -1.7147 -0.0348
  303MOL0     H39958   4.903   6.506   6.400  2.9544 -0.9556 -1.3867
  303MOL0     H39959   4.687   6.598   6.309 -1.6048 -0.6897 -0.9916
  303MOL0     H39960   4.361   6.551   5.948  0.4941 -2.2428 -0.8229
  303MOL0     H39961   4.150   6.583   5.816 -1.1034 -2.5472 -2.6692
  303MOL0     H39962   3.777   6.384   6.009  0.6901 -1.1238  0.5117
  303MOL0     H39963   3.821   6.283   5.868 -2.5001 -0.2890  0.4569
  303MOL0     H39964   3.640   6.370   5.792  1.5582 -1.4851  0.0617
  303MOL0     H39965   3.751   6.490   5.723 -1.4802  4.5856  0.9579
  303MOL0     H39966   3.708   6.659   5.881  0.9022 -1.2323 -1.7355
  303MOL0     H39967   3.611   6.560   5.989 -0.1142 -1.0411  0.1463
  303MOL0     H39968   3.571   6.668   5.710 -2.3796  3.6066  0.7676
  303MOL0     H39969   3.459   6.535   5.766 -2.1691  1.7175 -0.6943
  303MOL0     H39970   3.469   6.815   5.882  1.2937 -0.3279  0.1134
  303MOL0     H39971   3.397   6.675   5.963 -2.3176 -0.2858 -0.5431
  303MOL0     H39972   3.228   6.810   5.831  0.7385  0.0471  0.2246
  303MOL0     H39973   3.226   6.646   5.770 -1.8566  1.1517 -1.2375
  303MOL0     H39974   3.405   6.728   5.593 -0.8532 -1.8666 -1.0012
  303MOL0     H39975   3.234   6.751   5.565  0.5780 -0.7378  0.3336
  303MOL0     H39976   3.411   6.977   5.654 -0.2486 -0.6202 -0.3429
  303MOL0     H39977   3.238   6.980   5.683  3.9623  1.9404  3.5965
  303MOL0     H39978   3.977   6.280   6.073 -1.3832  0.0956 -2.4010
  303MOL0     H39979   4.195   6.256   6.187  1.8887  2.7057  0.6454
  303MOL0     H39980   4.609   6.215   6.133  0.7025  1.2841 -2.7809
  303MOL0     H39981   4.808   6.121   6.225 -1.6148 -1.1905 -0.1531
  303MOL0     H39982   6.590   5.762   6.032  1.2323  2.1728 -1.2910
  303MOL0     H39983   6.828   5.850   5.981 -0.4697  0.2622  1.0201
  303MOL0     H39984   7.342   5.838   6.235 -1.3550 -1.1692 -0.5288
  303MOL0     H39985   7.577   5.888   6.130  0.3443 -1.4559 -1.6210
  303MOL0     H39986   7.536   5.892   5.712 -0.7641 -2.3520  0.9688
  303MOL0     H39987   7.686   5.809   5.694  0.0463 -0.9156  2.5074
  303MOL0     H39988   7.716   6.040   5.588  2.6944  1.8715  0.2345
  303MOL0     H39989   7.678   6.089   5.738 -0.1230 -0.3521 -1.0712
  303MOL0     H39990   7.932   5.975   5.635  0.1189 -1.6991 -0.0283
  303MOL0     H39991   7.886   5.913   5.798 -1.6310  1.5055  0.4991
  303MOL0     H39992   7.980   6.179   5.729  0.8206 -0.4671 -0.0130
  303MOL0     H39993   7.864   6.159   5.870  0.8023 -0.2268  0.2183
  303MOL0     H39994   8.234   5.965   5.975  2.1525  2.5215 -0.5099
  303MOL0     H39995   7.461   5.706   5.766  1.8199  0.5187 -0.0739
  303MOL0     H39996   7.239   5.653   5.871  1.5069  2.2794 -3.5242
  304MOL0     O39997   5.498   4.814   3.464 -1.0152 -0.1185  0.0004
  304MOL0     C39998   5.543   4.927   3.499 -0.1067 -0.5737  0.3242
  304MOL0     O39999   5.675   4.954   3.535 -0.1300  0.7368 -0.3333
  304MOL0     C40000   5.762   4.851   3.539 -0.5832 -0.8361 -0.3418
  304MOL0     C40001   5.893   4.883   3.498  0.1645 -0.5817 -0.4850
  304MOL0     C40002   5.991   4.789   3.535  0.6802  0.5388  0.3868
  304MOL0     C40003   5.964   4.664   3.589  0.0843 -0.1715 -0.4358
  304MOL0     O40004   6.062   4.571   3.604 -0.1823 -0.3904  0.2361
  304MOL0     C40005   6.099   4.484   3.492  0.7394 -0.0245  0.1892
  304MOL0     C40006   6.205   4.539   3.399  0.1284  0.4869  0.1548
  304MOL0     C40007   6.334   4.542   3.482 -0.0173 -0.0038  0.9917
  304MOL0     C40008   6.451   4.549   3.389 -0.3617 -0.4270 -0.3047
  304MOL0     C40009   6.585   4.550   3.468 -1.2374 -0.4349 -0.0881
  304MOL0     C40010   6.698   4.517   3.372 -0.9758  0.5254 -0.6016
  304MOL0     C40011   6.843   4.550   3.434  0.0180  0.0957  0.4255
  304MOL0     C40012   6.908   4.425   3.492 -0.3402  1.1671  0.6211
  304MOL0     N40013   7.027   4.472   3.545 -0.1731  0.3030 -0.8286
  304MOL0     C40014   7.144   4.495   3.468  0.6927  0.3638  0.3055
  304MOL0     C40015   7.229   4.547   3.558 -0.1430  0.0346  0.0168
  304MOL0     C40016   7.376   4.597   3.542 -0.0132  0.5478 -0.2304
  304MOL0     C40017   7.480   4.487   3.559  1.0434 -0.8377 -0.1385
  304MOL0     C40018   7.487   4.393   3.441  0.0224 -0.6135 -0.6485
  304MOL0     C40019   7.566   4.272   3.473  0.0050  0.0007 -0.2695
  304MOL0     O40020   7.699   4.325   3.508  0.3810  0.4602 -0.5745
  304MOL0     C40021   7.787   4.224   3.531 -0.1635 -0.4463  0.2909
  304MOL0     C40022   7.765   4.098   3.601  0.3313 -0.2070  0.0607
  304MOL0     C40023   7.870   4.009   3.620  0.1955 -0.2995 -0.1132
  304MOL0     C40024   7.999   4.043   3.566 -0.1687 -0.0167 -1.0879
  304MOL0     C40025   8.112   3.953   3.583 -0.0322  1.1877 -0.3831
  304MOL0     O40026   8.230   3.977   3.513  0.7862  0.7421  0.4652
  304MOL0     C40027   8.334   3.884   3.520  0.8384  0.1832 -0.2480
  304MOL0     C40028   8.383   3.834   3.646  1.3218 -0.6139  0.1283
  304MOL0     C40029   8.493   3.756   3.646  0.0043  0.3690  0.4741
  304MOL0     C40030   8.559   3.712   3.520 -0.4793 -0.4738 -0.6842
  304MOL0     O40031   8.679   3.641   3.523  0.4032 -0.0754  0.5112
  304MOL0     C40032   8.744   3.567   3.419 -0.0038 -0.0160  0.0767
  304MOL0     C40033   8.899   3.578   3.446 -0.7898  0.8728 -0.2520
  304MOL0     C40034   8.942   3.504   3.575  0.4709 -1.0472  0.1530
  304MOL0     C40035   9.090   3.511   3.595 -0.3934 -0.0815 -1.3058
  304MOL0     C40036   9.124   3.410   3.719  0.6201 -0.2717  0.3076
  304MOL0     C40037   9.265   3.370   3.742 -0.1547  0.4172 -0.4245
  304MOL0     C40038   9.305   3.257   3.651  0.7358  0.7251  0.5217
  304MOL0     C40039   9.455   3.214   3.676 -0.1060  0.3485  0.8371
  304MOL0    Cl40040   9.459   3.087   3.802 -0.3861  0.3290  0.1103
  304MOL0     C40041   8.512   3.761   3.411  0.3214 -0.2205  0.3912
  304MOL0     C40042   8.404   3.848   3.410 -0.0584 -0.0407  0.1951
  304MOL0     O40043   8.085   3.848   3.645  0.1212  0.8060  1.2409
  304MOL0     C40044   8.019   4.164   3.509 -0.7255  1.0826 -0.9464
  304MOL0     C40045   7.920   4.260   3.498 -0.7968  0.3497  0.0252
  304MOL0     N40046   7.170   4.527   3.685 -0.5942 -0.6982 -0.3779
  304MOL0     N40047   7.056   4.478   3.677 -0.3935  0.7299  0.2317
  304MOL0     C40048   5.837   4.646   3.644  1.0272  0.2871  1.2402
  304MOL0     C40049   5.732   4.738   3.624 -0.6563  0.2971  0.6713
  304MOL0     C40050   5.447   5.041   3.507 -0.1467 -0.0727  1.0471
  304MOL0     C40051   5.467   5.144   3.593  0.0595  0.2055 -0.2170
  304MOL0     C40052   5.367   5.242   3.603 -0.3409 -0.0822 -0.8277
  304MOL0     C40053   5.240   5.214   3.550  0.1411  0.6062 -0.2956
  304MOL0     O40054   5.149   5.293   3.617  0.9530 -0.8656 -0.7269
  304MOL0     C40055   5.011   5.269   3.617  0.5400 -0.5850  0.1261
  304MOL0     C40056   4.937   5.366   3.707 -0.5655 -0.4455 -0.1698
  304MOL0     C40057   4.785   5.377   3.676  0.4905 -0.2331  0.2412
  304MOL0     C40058   4.697   5.464   3.764 -0.6099  0.7529  0.1525
  304MOL0     C40059   4.562   5.485   3.695  0.2827 -0.2611  0.2831
  304MOL0     C40060   4.447   5.497   3.652 -0.2044 -0.0005  0.7397
  304MOL0     C40061   5.218   5.109   3.461 -0.8933 -0.5898 -0.0555
  304MOL0     C40062   5.323   5.024   3.439  0.1184  0.6100  0.1177
  304MOL0     H40063   5.932   4.975   3.455  0.5674 -0.7232 -0.4227
  304MOL0     H40064   6.098   4.807   3.529  0.6661  0.1206 -2.4771
  304MOL0     H40065   6.010   4.457   3.434 -0.1358  0.4209  1.2890
  304MOL0     H40066   6.143   4.388   3.521  0.6603 -0.5655 -1.4123
  304MOL0     H40067   6.182   4.646   3.393 -0.9949  0.3694  1.6300
  304MOL0     H40068   6.217   4.507   3.295 -0.5371  1.1171 -0.1298
  304MOL0     H40069   6.349   4.451   3.541  1.9862 -2.3910 -2.8457
  304MOL0     H40070   6.327   4.622   3.557  0.4219 -0.2402  1.2919
  304MOL0     H40071   6.456   4.465   3.320  2.2809  0.4354 -1.2935
  304MOL0     H40072   6.443   4.636   3.323 -2.4152 -0.6708 -0.4309
  304MOL0     H40073   6.577   4.474   3.546 -1.4642 -0.2399  0.0825
  304MOL0     H40074   6.605   4.644   3.520 -2.2979 -0.8079  1.0485
  304MOL0     H40075   6.685   4.581   3.285 -1.3429 -0.3489 -1.2071
  304MOL0     H40076   6.691   4.413   3.338 -1.7468 -0.4580  2.2595
  304MOL0     H40077   6.900   4.570   3.342  1.2597 -1.4238  0.8190
  304MOL0     H40078   6.839   4.640   3.496  1.4569 -0.6279  1.6219
  304MOL0     H40079   6.935   4.355   3.413  0.4821  2.5157 -0.3417
  304MOL0     H40080   6.843   4.381   3.568 -0.5997  0.5952  0.0827
  304MOL0     H40081   7.165   4.491   3.362  1.1254 -0.5724  0.4176
  304MOL0     H40082   7.391   4.677   3.615 -2.4739  2.8387 -2.0201
  304MOL0     H40083   7.388   4.638   3.441 -0.9673 -0.5222 -0.8069
  304MOL0     H40084   7.447   4.421   3.640 -0.1512 -0.3659 -0.2177
  304MOL0     H40085   7.575   4.538   3.578 -0.4119  1.4221  1.7090
  304MOL0     H40086   7.389   4.366   3.398 -2.0250  3.0867  1.2120
  304MOL0     H40087   7.532   4.449   3.358  1.1946  0.1690  0.4903
  304MOL0     H40088   7.585   4.199   3.393 -2.2090  0.0434 -0.8902
  304MOL0     H40089   7.530   4.235   3.569 -1.6216  1.1622 -0.3859
  304MOL0     H40090   7.665   4.066   3.629  0.1852 -0.4194 -0.7031
  304MOL0     H40091   7.856   3.904   3.645  2.5364  0.2271  4.2190
  304MOL0     H40092   8.333   3.870   3.736  2.2472 -0.1776  0.4739
  304MOL0     H40093   8.527   3.728   3.745  0.1863 -2.2485 -0.2553
  304MOL0     H40094   8.715   3.594   3.317 -0.1402 -0.1654  0.0752
  304MOL0     H40095   8.714   3.462   3.422 -0.4256  0.0878 -0.4576
  304MOL0     H40096   8.922   3.685   3.454 -2.6361  1.3529 -0.7417
  304MOL0     H40097   8.949   3.543   3.355 -1.3899  0.5677 -0.4706
  304MOL0     H40098   8.917   3.399   3.560 -0.4804 -1.0117  1.3881
  304MOL0     H40099   8.885   3.551   3.655  1.7526 -1.8097  1.5576
  304MOL0     H40100   9.128   3.469   3.502 -1.2253 -2.2486 -0.7250
  304MOL0     H40101   9.118   3.615   3.617 -1.1202 -0.3863  1.3954
  304MOL0     H40102   9.059   3.322   3.721  0.2948 -0.0368  0.2213
  304MOL0     H40103   9.105   3.457   3.817  5.5983 -2.2688  2.5841
  304MOL0     H40104   9.266   3.337   3.846 -1.6167  0.6157 -0.3302
  304MOL0     H40105   9.335   3.453   3.731 -0.3268  0.4596 -1.2863
  304MOL0     H40106   9.231   3.178   3.667  0.4069 -0.8236 -5.8611
  304MOL0     H40107   9.295   3.281   3.544  0.0887 -0.9204  0.1876
  304MOL0     H40108   9.513   3.301   3.707 -2.9193  2.2622  1.1215
  304MOL0     H40109   9.485   3.175   3.578 -0.2376 -1.4567  1.4847
  304MOL0     H40110   8.560   3.728   3.319 -1.3188  1.4753 -1.1684
  304MOL0     H40111   8.383   3.889   3.312  0.5937  0.5295  0.2868
  304MOL0     H40112   8.120   4.195   3.483 -1.5464  2.0112 -3.2878
  304MOL0     H40113   7.949   4.359   3.463  0.1857 -0.8126 -2.7428
  304MOL0     H40114   5.820   4.565   3.715 -0.0761 -0.4628  0.1576
  304MOL0     H40115   5.636   4.722   3.672 -0.1950  1.7527  2.2101
  304MOL0     H40116   5.562   5.158   3.645 -1.1817  2.7646  1.5523
  304MOL0     H40117   5.392   5.316   3.679  4.4994  0.8258 -2.9356
  304MOL0     H40118   4.996   5.167   3.654 -0.9616  0.9577  4.3821
  304MOL0     H40119   4.968   5.266   3.516 -0.0729 -4.6340  0.3304
  304MOL0     H40120   4.946   5.328   3.809 -0.9256 -4.7599 -1.5343
  304MOL0     H40121   4.977   5.467   3.699  1.8332 -1.4266 -1.5377
  304MOL0     H40122   4.749   5.274   3.683 -0.2983  0.0756  0.8933
  304MOL0     H40123   4.765   5.418   3.576 -0.3607  1.3775  1.0334
  304MOL0     H40124   4.693   5.411   3.859 -0.4351 -1.8095 -1.1720
  304MOL0     H40125   4.743   5.562   3.780 -0.3657  0.4806  1.1447
  304MOL0     H40126   4.347   5.495   3.612 -0.6382 -4.2862  1.6154
  304MOL0     H40127   5.121   5.067   3.437 -0.7279 -0.0306 -1.9012
  304MOL0     H40128   5.303   4.930   3.388  2.5736 -0.6461  1.3060
  305MOL0     O40129   9.401   9.940   9.911 -0.5469  0.0280 -0.6733
  305MOL0     C40130   9.502   9.919   9.973 -0.3425 -0.5780  1.0071
  305MOL0     O40131   9.541   9.974  10.096  0.5328  0.0726  0.3235
  305MOL0     C40132   9.444  10.029  10.176  0.3045 -1.0112 -1.2818
  305MOL0     C40133   9.318   9.979  10.194 -0.5226  0.9215 -0.7374
  305MOL0     C40134   9.230  10.040  10.294  0.4631 -0.4910  1.4393
  305MOL0     C40135   9.276  10.135  10.382  0.9787 -0.0651 -0.0563
  305MOL0     O40136   9.203  10.195  10.486 -0.2830  0.6132 -0.0155
  305MOL0     C40137   9.068  10.162  10.498 -0.0804  0.4357 -0.1469
  305MOL0     C40138   9.004  10.217  10.627 -1.3751 -0.2866 -0.2510
  305MOL0     C40139   8.861  10.170  10.653  0.0499  0.0095  0.2476
  305MOL0     C40140   8.804  10.215  10.793  0.0109 -0.0211  0.5984
  305MOL0     C40141   8.656  10.200  10.801 -0.1219  0.5847 -0.7940
  305MOL0     C40142   8.616  10.049  10.787  0.2168  0.3937  0.0744
  305MOL0     C40143   8.468  10.020  10.783  1.5654  1.0424  0.4051
  305MOL0     C40144   8.459   9.865  10.810 -0.5811 -0.5733  0.7346
  305MOL0     N40145   8.326   9.814  10.835  0.7334 -0.3569  0.6063
  305MOL0     C40146   8.257   9.821  10.950  0.4630  0.2166  0.4522
  305MOL0     C40147   8.136   9.782  10.930 -0.5470 -0.7499  0.1514
  305MOL0     C40148   8.033   9.762  11.041 -1.1051 -0.3902 -0.2207
  305MOL0     C40149   7.980   9.615  11.054  0.0016 -0.8185  0.5886
  305MOL0     C40150   7.944   9.537  10.928 -0.4401 -0.0468 -0.3158
  305MOL0     C40151   7.823   9.597  10.858 -0.0711  0.2552 -0.6705
  305MOL0     O40152   7.811   9.521  10.739  0.0270  0.2412 -0.8334
  305MOL0     C40153   7.754   9.594  10.645 -0.2969 -0.5365 -0.4348
  305MOL0     C40154   7.831   9.688  10.566  0.5339 -0.4155 -0.2798
  305MOL0     C40155   7.766   9.761  10.469  0.3996  0.7400  0.3224
  305MOL0     C40156   7.626   9.743  10.443  0.0749  0.1210 -0.7689
  305MOL0     C40157   7.549   9.820  10.329  0.7849  0.8950 -0.4078
  305MOL0     O40158   7.407   9.809  10.330 -0.0108 -0.0983 -0.2916
  305MOL0     C40159   7.326   9.877  10.240 -0.1097 -0.9501  0.7281
  305MOL0     C40160   7.362   9.981  10.154 -0.5543 -0.4935  0.3638
  305MOL0     C40161   7.271  10.031  10.064 -0.4757  0.3022 -0.2464
  305MOL0     C40162   7.145   9.977  10.050 -0.2960  0.5559  0.7726
  305MOL0     O40163   7.069  10.015   9.948  0.3641  0.4737  0.2798
  305MOL0     C40164   6.996   9.911   9.862 -0.2894 -0.1419 -0.2963
  305MOL0     C40165   6.849   9.881   9.914 -0.4395 -0.2594  0.7101
  305MOL0     C40166   6.755   9.868   9.789  0.7201  0.5245  0.0128
  305MOL0     C40167   6.612   9.852   9.833  0.3262  0.4194  0.4985
  305MOL0     C40168   6.527   9.892   9.719  0.5618  0.5911  0.1359
  305MOL0     C40169   6.377   9.878   9.742  0.0497  0.0226 -0.6419
  305MOL0     C40170   6.295   9.884   9.613 -0.1098  0.1815  0.1128
  305MOL0     C40171   6.157   9.917   9.657 -0.4991  1.0615 -0.1021
  305MOL0    Cl40172   6.064   9.900   9.508  0.3942  0.3188 -0.1864
  305MOL0     C40173   7.104   9.870  10.141 -0.5517  0.2466  0.5375
  305MOL0     C40174   7.202   9.826  10.237  0.5256 -0.0068  0.1176
  305MOL0     O40175   7.614   9.870  10.239 -0.5081  0.3897  0.2539
  305MOL0     C40176   7.548   9.653  10.522 -0.2417 -0.7441  0.0577
  305MOL0     C40177   7.611   9.581  10.622 -0.4941  0.5670 -0.4572
  305MOL0     N40178   8.122   9.757  10.797 -0.9561 -0.6375 -0.4954
  305MOL0     N40179   8.242   9.774  10.738 -0.1356 -0.9151 -0.3240
  305MOL0     C40180   9.407  10.196  10.354  0.3270  0.0484 -0.5282
  305MOL0     C40181   9.482  10.142  10.250 -0.8806  0.3599  1.0565
  305MOL0     C40182   9.614   9.846   9.914 -0.1947 -0.4637  0.2741
  305MOL0     C40183   9.595   9.788   9.785  0.4921 -1.2100 -0.2864
  305MOL0     C40184   9.705   9.719   9.731  0.4795  0.3348 -0.9710
  305MOL0     C40185   9.826   9.710   9.786  0.0049 -0.1531 -0.5861
  305MOL0     O40186   9.920   9.634   9.716  0.4815  0.1322  0.8821
  305MOL0     C40187   9.891   9.497   9.707  0.1552 -0.0405  0.4375
  305MOL0     C40188  10.007   9.414   9.649 -0.3847 -0.0680 -0.3630
  305MOL0     C40189  10.136   9.415   9.732 -0.2986  0.1273 -0.2783
  305MOL0     C40190  10.263   9.336   9.666 -0.4874  0.6639  0.7595
  305MOL0     C40191  10.237   9.191   9.652  0.8193 -0.5596  0.2187
  305MOL0     C40192  10.189   9.083   9.642 -0.9146 -0.0752 -0.7954
  305MOL0     C40193   9.837   9.770   9.916 -0.4018  0.2357  1.3285
  305MOL0     C40194   9.737   9.827   9.982  0.1859  0.1008 -0.8895
  305MOL0     H40195   9.290   9.892  10.136  0.2555  0.1129  0.0702
  305MOL0     H40196   9.126  10.007  10.294  0.4397 -0.6388 -1.4193
  305MOL0     H40197   9.055  10.054  10.506 -0.7946  0.6074  1.2556
  305MOL0     H40198   9.038  10.196  10.398  0.1637  2.6392  0.4755
  305MOL0     H40199   9.013  10.325  10.620  6.4334 -0.3657 -0.4835
  305MOL0     H40200   9.065  10.185  10.712 -1.5711 -0.9987 -0.3686
  305MOL0     H40201   8.870  10.061  10.647  0.2518  0.0773 -0.7714
  305MOL0     H40202   8.794  10.212  10.577 -1.6489 -0.7034  1.2855
  305MOL0     H40203   8.867  10.184  10.876  3.5729 -0.2150 -1.9482
  305MOL0     H40204   8.825  10.323  10.790  1.4893 -0.2872  0.7323
  305MOL0     H40205   8.594  10.240  10.720 -1.3963 -1.3150 -0.8257
  305MOL0     H40206   8.626  10.229  10.902 -0.2807  0.3726 -0.7803
  305MOL0     H40207   8.662   9.998  10.872 -0.8670 -0.2494  0.2905
  305MOL0     H40208   8.653  10.016  10.690 -2.2056 -1.0599 -0.4282
  305MOL0     H40209   8.408  10.069  10.861 -1.2639 -0.4313 -0.6890
  305MOL0     H40210   8.420  10.050  10.689  0.4484 -3.1469 -0.5444
  305MOL0     H40211   8.519   9.849  10.900  0.7977  0.5983  0.0773
  305MOL0     H40212   8.495   9.802  10.729  0.2600  0.9313 -0.1229
  305MOL0     H40213   8.306   9.850  11.043  1.0321  2.4451 -0.4719
  305MOL0     H40214   7.952   9.831  11.017 -2.0752 -1.6270 -0.6483
  305MOL0     H40215   8.086   9.798  11.129  1.6839  2.8266 -2.9105
  305MOL0     H40216   7.895   9.609  11.123  1.4703 -0.8803  2.4633
  305MOL0     H40217   8.059   9.564  11.110  2.6138  2.0195 -0.2239
  305MOL0     H40218   8.029   9.519  10.862 -0.0870  2.0598 -0.5049
  305MOL0     H40219   7.913   9.436  10.957 -2.0272  0.6003  0.3919
  305MOL0     H40220   7.833   9.704  10.838  2.1455 -0.1139 -1.8375
  305MOL0     H40221   7.740   9.579  10.927  0.9546 -1.9468  0.1014
  305MOL0     H40222   7.932   9.707  10.599 -0.5058 -0.1283  3.0880
  305MOL0     H40223   7.816   9.837  10.409  1.3209 -0.1586 -0.0789
  305MOL0     H40224   7.459  10.031  10.155 -0.6029 -0.4068  0.7041
  305MOL0     H40225   7.294  10.120  10.006 -2.4868  0.7389 -0.4655
  305MOL0     H40226   7.062   9.823   9.855  2.1218  1.6015 -0.9589
  305MOL0     H40227   6.989   9.949   9.759  2.2423  1.1686 -0.0707
  305MOL0     H40228   6.816   9.967   9.974  0.3087  0.2668  0.3920
  305MOL0     H40229   6.842   9.791   9.975  1.4832 -0.5167  0.6164
  305MOL0     H40230   6.783   9.789   9.718 -0.0367 -0.3145  0.6231
  305MOL0     H40231   6.762   9.966   9.741  1.1565  1.6781  2.3075
  305MOL0     H40232   6.598   9.756   9.884  1.8502  0.9404  1.9945
  305MOL0     H40233   6.591   9.920   9.916 -0.6578  0.5069  0.1975
  305MOL0     H40234   6.543   9.814   9.644 -2.4028 -0.4419  0.4504
  305MOL0     H40235   6.539   9.991   9.674 -1.6954 -0.3258 -2.8261
  305MOL0     H40236   6.330   9.946   9.814 -1.5436 -0.6341 -1.0043
  305MOL0     H40237   6.355   9.779   9.783 -0.4284 -0.5933 -2.3155
  305MOL0     H40238   6.328   9.961   9.543  1.5534 -0.8930 -0.3358
  305MOL0     H40239   6.290   9.791   9.555  0.8074  0.6079 -0.6641
  305MOL0     H40240   6.163  10.019   9.698  0.6226  0.1397  2.1981
  305MOL0     H40241   6.129   9.857   9.743  3.4997 -0.6977  0.1851
  305MOL0     H40242   6.999   9.841  10.142 -1.0537  1.9081 -0.4861
  305MOL0     H40243   7.175   9.758  10.317 -0.2258  2.5369  2.1641
  305MOL0     H40244   7.441   9.639  10.512 -0.8618  1.3990  2.5274
  305MOL0     H40245   7.559   9.510  10.685  2.6351 -3.3296 -1.8322
  305MOL0     H40246   9.450  10.270  10.421  1.3135  0.2210 -1.3273
  305MOL0     H40247   9.583  10.180  10.238 -1.0772  0.2180 -1.7160
  305MOL0     H40248   9.502   9.786   9.730 -0.3515 -2.1100  1.1187
  305MOL0     H40249   9.683   9.667   9.638  3.7439 -0.8804 -1.1797
  305MOL0     H40250   9.805   9.477   9.642  0.6866 -1.6219  0.1641
  305MOL0     H40251   9.858   9.462   9.805  0.3591 -1.1635  0.1246
  305MOL0     H40252   9.974   9.311   9.632 -1.1241 -0.2470  1.8870
  305MOL0     H40253  10.037   9.456   9.553 -1.5744 -1.5692 -1.4386
  305MOL0     H40254  10.125   9.352   9.821 -0.6749  2.2335  1.2293
  305MOL0     H40255  10.151   9.520   9.758 -3.2284  0.0362  2.3996
  305MOL0     H40256  10.298   9.378   9.571 -0.1632 -1.2286 -0.0005
  305MOL0     H40257  10.347   9.335   9.736  0.0020 -0.6056  0.1790
  305MOL0     H40258  10.125   8.997   9.637 -3.2975  1.6506 -1.9249
  305MOL0     H40259   9.925   9.762   9.978  1.8860  1.3353 -1.5675
  305MOL0     H40260   9.740   9.862  10.085 -1.2036 -0.3712 -0.6727
  306MOL0     O40261  11.080   8.265   0.477  0.1783  0.4235 -0.3283
  306MOL0     C40262  11.051   8.193   0.388  1.3260  0.1828 -0.2701
  306MOL0     O40263  10.932   8.117   0.383 -0.0856 -0.8252 -0.4581
  306MOL0     C40264  10.836   8.122   0.477  1.4670  0.1585  0.3648
  306MOL0     C40265  10.714   8.063   0.439 -0.8544  0.4264 -0.5595
  306MOL0     C40266  10.603   8.047   0.528 -0.3172  0.3448 -0.1180
  306MOL0     C40267  10.622   8.081   0.667 -0.0957  0.2370  0.2238
  306MOL0     O40268  10.506   8.071   0.746 -0.1905  0.9644 -0.3603
  306MOL0     C40269  10.446   8.195   0.782 -0.2129 -0.2711 -0.7550
  306MOL0     C40270  10.317   8.193   0.868 -0.1354  0.9922 -0.0878
  306MOL0     C40271  10.277   8.339   0.908  1.3873 -0.6763 -0.4239
  306MOL0     C40272  10.131   8.346   0.960 -0.3925 -0.6818  0.8912
  306MOL0     C40273  10.102   8.496   1.007  0.5138  0.2666  0.5082
  306MOL0     C40274   9.969   8.524   1.067  0.0221 -0.8095  0.2937
  306MOL0     C40275   9.855   8.508   0.963  0.5663  0.5178  0.6609
  306MOL0     C40276   9.721   8.575   1.019 -0.1262  0.0241  0.1976
  306MOL0     N40277   9.618   8.587   0.919  0.7604  0.1285  0.4151
  306MOL0     C40278   9.535   8.699   0.900 -0.8120 -0.0083 -0.0889
  306MOL0     C40279   9.446   8.659   0.804 -0.5172  0.4630 -0.1864
  306MOL0     C40280   9.351   8.741   0.723 -1.0910 -0.2274  0.3868
  306MOL0     C40281   9.278   8.656   0.616 -0.2692  0.5392  0.1265
  306MOL0     C40282   9.201   8.744   0.524  0.2837  0.3992  0.0141
  306MOL0     C40283   9.085   8.815   0.593  0.4444  0.4092 -0.0005
  306MOL0     O40284   8.991   8.720   0.630 -0.2265  0.0955  0.1306
  306MOL0     C40285   8.860   8.751   0.617  0.2356 -0.2879 -0.0183
  306MOL0     C40286   8.761   8.674   0.545 -0.2196 -0.4126 -0.1805
  306MOL0     C40287   8.628   8.718   0.532  0.4800  0.1163 -0.5426
  306MOL0     C40288   8.589   8.844   0.589  0.5488  0.4488  0.3298
  306MOL0     C40289   8.448   8.887   0.567 -0.2071  0.1974 -0.2814
  306MOL0     O40290   8.417   9.016   0.606 -0.5616 -0.2907 -1.2830
  306MOL0     C40291   8.286   9.043   0.612  0.3006  0.4334 -1.1861
  306MOL0     C40292   8.215   9.078   0.501  0.0779  0.0148  1.0315
  306MOL0     C40293   8.079   9.104   0.506 -0.0599 -0.0362  0.2555
  306MOL0     C40294   8.012   9.110   0.629 -0.8155 -0.2046 -0.5109
  306MOL0     O40295   7.888   9.166   0.620 -0.2102 -0.0157  0.2633
  306MOL0     C40296   7.825   9.200   0.742 -0.3578  0.1279 -0.9773
  306MOL0     C40297   7.731   9.320   0.705  0.1226  0.2399 -0.2941
  306MOL0     C40298   7.604   9.267   0.655  1.2092 -0.7264 -0.4332
  306MOL0     C40299   7.504   9.369   0.608  0.9760  0.3807  0.1784
  306MOL0     C40300   7.371   9.298   0.569 -0.4286  0.1898  0.2933
  306MOL0     C40301   7.278   9.276   0.692 -0.2886  1.2471 -0.0333
  306MOL0     C40302   7.210   9.136   0.696 -0.2371 -1.3424 -0.3196
  306MOL0     C40303   7.116   9.109   0.581 -0.3712 -0.5695  0.5012
  306MOL0    Cl40304   6.973   9.208   0.598 -0.2913 -0.1465  0.2342
  306MOL0     C40305   8.081   9.072   0.743 -0.9079 -0.0251  1.0577
  306MOL0     C40306   8.215   9.040   0.734 -1.8042  0.7574  0.1623
  306MOL0     O40307   8.364   8.811   0.505 -0.6980 -0.0700 -0.6636
  306MOL0     C40308   8.685   8.926   0.661  0.2748  0.1744 -0.2197
  306MOL0     C40309   8.818   8.873   0.669 -0.5309 -0.4027 -0.0455
  306MOL0     N40310   9.463   8.517   0.777  0.1891  0.1686 -0.0390
  306MOL0     N40311   9.573   8.483   0.841 -0.1080 -0.0783 -0.5461
  306MOL0     C40312  10.744   8.144   0.698 -0.7269 -0.5471  0.8036
  306MOL0     C40313  10.846   8.173   0.612 -0.8390  1.0407  0.7076
  306MOL0     C40314  11.168   8.165   0.281 -0.6592 -0.2132 -0.7480
  306MOL0     C40315  11.280   8.253   0.279 -0.2390  0.1061 -0.8202
  306MOL0     C40316  11.376   8.234   0.187 -0.2826 -0.0649 -0.4072
  306MOL0     C40317  11.376   8.135   0.088  0.1459 -0.1905 -0.3060
  306MOL0     O40318  11.489   8.129   0.005  0.0578  0.1187 -0.4651
  306MOL0     C40319  11.514   7.998  -0.063 -0.6128 -1.1279  0.2421
  306MOL0     C40320  11.527   8.031  -0.208 -0.3165  0.6311  0.6898
  306MOL0     C40321  11.412   8.108  -0.265  0.4654 -0.4641  0.8341
  306MOL0     C40322  11.446   8.144  -0.417  0.1314 -0.4576 -0.5608
  306MOL0     C40323  11.318   8.183  -0.478 -0.1036 -0.1039  0.1970
  306MOL0     C40324  11.209   8.211  -0.514  0.1367 -0.6169 -0.4064
  306MOL0     C40325  11.272   8.046   0.090 -0.3340 -1.1105  0.8071
  306MOL0     C40326  11.171   8.064   0.191 -0.3121  0.6428 -0.0014
  306MOL0     H40327  10.688   8.045   0.335 -1.4370  1.4908 -0.6042
  306MOL0     H40328  10.511   8.008   0.485 -0.4068  0.8133 -0.3643
  306MOL0     H40329  10.421   8.247   0.689  3.4589  0.2406 -1.6083
  306MOL0     H40330  10.520   8.251   0.839  1.0541 -2.9016  0.3259
  306MOL0     H40331  10.323   8.128   0.956 -3.0443  0.5142 -0.1442
  306MOL0     H40332  10.238   8.145   0.810  0.9449 -0.7169 -0.2039
  306MOL0     H40333  10.292   8.405   0.822  4.3121  0.9127  1.1516
  306MOL0     H40334  10.347   8.373   0.984 -0.9292 -1.8321  2.4074
  306MOL0     H40335  10.056   8.313   0.888  0.2497 -0.8091  0.2782
  306MOL0     H40336  10.119   8.276   1.043 -1.4811  1.5608  2.7365
  306MOL0     H40337  10.116   8.561   0.920  3.4228 -0.8623  0.0308
  306MOL0     H40338  10.180   8.528   1.076 -0.0860  1.6643  0.5808
  306MOL0     H40339   9.963   8.621   1.117 -1.9192 -1.9464  2.4456
  306MOL0     H40340   9.954   8.449   1.145 -3.0379 -1.5790 -0.8592
  306MOL0     H40341   9.876   8.554   0.867 -1.0373 -0.4170 -0.1771
  306MOL0     H40342   9.840   8.402   0.938  1.4849  0.6400 -0.4771
  306MOL0     H40343   9.743   8.674   1.059 -0.8714 -0.5067  1.9961
  306MOL0     H40344   9.678   8.526   1.107  3.6363 -0.9697  1.6781
  306MOL0     H40345   9.560   8.796   0.940 -1.0401 -0.0707  0.2194
  306MOL0     H40346   9.407   8.827   0.685 -0.5131 -1.0246 -0.6117
  306MOL0     H40347   9.279   8.776   0.797  1.9814 -0.2370  3.6568
  306MOL0     H40348   9.214   8.576   0.654  1.4463 -1.0813 -0.2337
  306MOL0     H40349   9.347   8.599   0.554 -3.1325 -1.1275 -1.7390
  306MOL0     H40350   9.272   8.816   0.482  0.1587  0.1504 -0.6347
  306MOL0     H40351   9.174   8.675   0.444  0.6300 -0.2285  0.4377
  306MOL0     H40352   9.046   8.887   0.521 -0.2316 -0.7071 -0.7662
  306MOL0     H40353   9.116   8.861   0.687 -2.1493 -2.1307  2.3034
  306MOL0     H40354   8.795   8.582   0.497 -0.2649 -2.2697  3.0641
  306MOL0     H40355   8.565   8.652   0.474  0.5962 -0.7725  0.3125
  306MOL0     H40356   8.271   9.082   0.408 -1.2833  2.5913  0.2358
  306MOL0     H40357   8.016   9.128   0.421 -1.3150 -1.5298  0.7249
  306MOL0     H40358   7.898   9.225   0.820 -0.6181 -1.0947 -0.3270
  306MOL0     H40359   7.764   9.116   0.776 -0.9238  1.4829  1.7056
  306MOL0     H40360   7.769   9.387   0.627 -0.8282  2.0466  0.7170
  306MOL0     H40361   7.722   9.385   0.793  1.4351  1.0445 -0.7217
  306MOL0     H40362   7.560   9.210   0.738  1.6409 -1.1952 -0.5235
  306MOL0     H40363   7.631   9.191   0.582  2.7305 -1.1675  0.5333
  306MOL0     H40364   7.495   9.454   0.676 -1.3023 -0.9006  1.6092
  306MOL0     H40365   7.548   9.408   0.516  2.3989  0.6656  0.9555
  306MOL0     H40366   7.385   9.199   0.526 -2.2898 -0.4009  0.9608
  306MOL0     H40367   7.328   9.356   0.487 -1.1578  1.0032  1.2226
  306MOL0     H40368   7.207   9.359   0.691 -1.0315  0.6762 -2.8967
  306MOL0     H40369   7.334   9.264   0.786  0.0144 -0.1522 -0.3655
  306MOL0     H40370   7.275   9.050   0.713 -1.7723 -2.0089  2.9066
  306MOL0     H40371   7.148   9.135   0.786  0.3819  2.8583  0.4061
  306MOL0     H40372   7.094   9.002   0.581  2.7000 -1.2899  0.7432
  306MOL0     H40373   7.169   9.123   0.487  3.1891 -1.3089  2.2520
  306MOL0     H40374   8.030   9.056   0.837 -2.9768  0.4816  0.0687
  306MOL0     H40375   8.283   9.021   0.816 -2.4756 -0.5064  0.4541
  306MOL0     H40376   8.655   9.013   0.718 -1.2200 -0.4777  0.0312
  306MOL0     H40377   8.899   8.935   0.708  1.0262 -1.0090 -2.1120
  306MOL0     H40378  10.751   8.172   0.802  1.4519 -0.0904  0.6021
  306MOL0     H40379  10.938   8.203   0.661 -1.2386  3.1211  0.2535
  306MOL0     H40380  11.279   8.339   0.345  2.0710 -0.8899  0.6266
  306MOL0     H40381  11.457   8.304   0.169  0.9965 -0.4345  3.1963
  306MOL0     H40382  11.441   7.919  -0.045 -1.2828 -0.1977  1.8763
  306MOL0     H40383  11.607   7.956  -0.024 -0.6373 -0.5172  0.9825
  306MOL0     H40384  11.621   8.086  -0.215  0.6466 -0.8889  1.2094
  306MOL0     H40385  11.539   7.939  -0.267 -0.3767  0.3852  1.0556
  306MOL0     H40386  11.395   8.194  -0.200  1.4958  0.9836 -0.7209
  306MOL0     H40387  11.319   8.050  -0.257 -0.2398  0.0482 -2.3186
  306MOL0     H40388  11.523   8.221  -0.416  2.0533 -2.2927  0.8182
  306MOL0     H40389  11.501   8.064  -0.468 -2.5612 -0.1765 -4.3039
  306MOL0     H40390  11.108   8.248  -0.520  0.1258 -0.3687  0.9668
  306MOL0     H40391  11.268   7.970   0.012 -1.1453  1.0368 -1.3822
  306MOL0     H40392  11.087   7.997   0.204  1.1051 -1.3387 -0.5275
  307MOL0     O40393   1.031   2.451   2.554 -0.1025  0.1347 -0.8154
  307MOL0     C40394   0.917   2.486   2.530 -0.3980 -0.4039 -0.2528
  307MOL0     O40395   0.881   2.620   2.522 -0.5629  0.4546 -0.9330
  307MOL0     C40396   0.970   2.713   2.551 -0.4367 -0.5384 -0.1641
  307MOL0     C40397   0.994   2.830   2.473  0.2930 -0.2844 -0.1337
  307MOL0     C40398   1.078   2.926   2.522 -0.6137 -0.0664  0.0935
  307MOL0     C40399   1.134   2.922   2.653  0.7510  0.8976 -0.3252
  307MOL0     O40400   1.219   3.013   2.707 -0.3426  1.2306 -0.2135
  307MOL0     C40401   1.181   3.153   2.690 -0.0218 -0.0986  0.1345
  307MOL0     C40402   1.268   3.217   2.575 -0.5976  0.3530 -0.8012
  307MOL0     C40403   1.414   3.254   2.635  0.3574 -0.3572  1.3525
  307MOL0     C40404   1.517   3.305   2.539  0.0797 -0.2130 -0.6627
  307MOL0     C40405   1.543   3.187   2.442  0.2767 -0.6585  0.0749
  307MOL0     C40406   1.633   3.226   2.328 -0.6854  0.5862 -0.8573
  307MOL0     C40407   1.660   3.104   2.238 -0.0064 -0.2323  0.1572
  307MOL0     C40408   1.698   3.151   2.096 -0.4488 -0.2417 -0.3093
  307MOL0     N40409   1.718   3.030   2.013  0.0570 -0.6544  0.2573
  307MOL0     C40410   1.823   2.948   2.022  0.8813  0.0054 -0.0625
  307MOL0     C40411   1.826   2.865   1.917  0.8598  0.6710  0.0893
  307MOL0     C40412   1.926   2.756   1.907  0.3288  0.8422 -0.9629
  307MOL0     C40413   1.882   2.616   1.972  0.0432  0.5361 -0.9520
  307MOL0     C40414   1.893   2.615   2.124  0.7871 -0.3945  0.1383
  307MOL0     C40415   1.818   2.496   2.174  0.8513 -0.3791  0.2420
  307MOL0     O40416   1.803   2.507   2.317 -0.3231  0.9822 -0.3750
  307MOL0     C40417   1.720   2.433   2.397  0.0580  0.4296  0.3283
  307MOL0     C40418   1.705   2.466   2.529  0.5647 -0.3252  0.4667
  307MOL0     C40419   1.642   2.384   2.627  0.7248 -0.5555  1.6027
  307MOL0     C40420   1.571   2.269   2.577  0.5556 -0.3405 -0.1663
  307MOL0     C40421   1.494   2.181   2.666 -0.6437  0.5612 -0.1906
  307MOL0     O40422   1.467   2.223   2.786  0.6426 -0.3200 -0.6515
  307MOL0     C40423   1.387   2.139   2.861  0.7619 -0.5171 -0.0822
  307MOL0     C40424   1.256   2.114   2.827  0.1824 -0.1328 -0.8249
  307MOL0     C40425   1.164   2.049   2.912 -0.4728 -0.5576 -0.2508
  307MOL0     C40426   1.214   1.992   3.032  0.1067 -0.4045  0.4314
  307MOL0     O40427   1.131   1.928   3.115  0.2280  0.7195 -0.1311
  307MOL0     C40428   0.991   1.905   3.079 -0.2574 -0.3711 -0.7767
  307MOL0     C40429   0.944   1.804   3.181 -0.1639  0.3130  0.8117
  307MOL0     C40430   0.799   1.830   3.219 -0.2543 -0.0691 -1.1967
  307MOL0     C40431   0.706   1.819   3.097 -0.8120  0.1532  0.8460
  307MOL0     C40432   0.557   1.783   3.128 -0.2030  0.2043 -0.1571
  307MOL0     C40433   0.525   1.631   3.148  0.1044 -0.5434  0.0351
  307MOL0     C40434   0.375   1.615   3.175 -0.2477 -0.8557 -0.0128
  307MOL0     C40435   0.327   1.475   3.174  0.6258 -0.5331  0.5268
  307MOL0    Cl40436   0.163   1.450   3.220  0.5831 -0.1624  0.4988
  307MOL0     C40437   1.349   2.001   3.062  0.7694 -0.9288 -0.0746
  307MOL0     C40438   1.432   2.089   2.980  0.5555 -0.2535  0.0557
  307MOL0     O40439   1.469   2.065   2.625  0.1526  0.3443  0.4869
  307MOL0     C40440   1.571   2.246   2.435  0.3268  0.1400 -0.4610
  307MOL0     C40441   1.654   2.313   2.355  0.2733  0.4983 -0.6425
  307MOL0     N40442   1.728   2.909   1.834  0.0823 -0.8468 -0.8488
  307MOL0     N40443   1.664   3.006   1.888  0.1633  0.4322  0.1186
  307MOL0     C40444   1.113   2.804   2.731  1.2085  0.3350 -0.1769
  307MOL0     C40445   1.024   2.708   2.681  0.7505 -0.1248 -0.6095
  307MOL0     C40446   0.817   2.384   2.485 -0.9338 -0.6898 -0.5800
  307MOL0     C40447   0.858   2.251   2.458  0.4399 -1.3990  0.1513
  307MOL0     C40448   0.768   2.160   2.411  0.1334  0.9155 -0.6514
  307MOL0     C40449   0.632   2.201   2.378 -0.6345  0.6548 -1.1790
  307MOL0     O40450   0.541   2.101   2.330 -0.4079  0.1655 -0.4417
  307MOL0     C40451   0.439   2.043   2.409 -0.4630  0.2454 -0.0692
  307MOL0     C40452   0.397   1.908   2.359  0.7793 -0.6579  1.1644
  307MOL0     C40453   0.519   1.824   2.324 -0.4005  0.4861 -0.7585
  307MOL0     C40454   0.480   1.679   2.316 -0.1797  0.3757 -0.8507
  307MOL0     C40455   0.395   1.644   2.194  0.1929 -0.5321  0.1431
  307MOL0     C40456   0.353   1.604   2.088  0.1745  0.7388  0.1818
  307MOL0     C40457   0.591   2.327   2.412  0.0446  0.3488  0.4502
  307MOL0     C40458   0.680   2.422   2.465  0.6147 -0.8536 -0.6189
  307MOL0     H40459   0.937   2.854   2.384 -0.7927  1.3939  0.9572
  307MOL0     H40460   1.093   3.016   2.463  0.5747 -0.5035 -0.3188
  307MOL0     H40461   1.198   3.219   2.776 -3.2805 -0.8221  1.4885
  307MOL0     H40462   1.074   3.167   2.674  0.0509  0.3654  0.0361
  307MOL0     H40463   1.219   3.310   2.547  1.7131  3.0080  2.9865
  307MOL0     H40464   1.267   3.150   2.488 -1.9720 -1.3357  0.4354
  307MOL0     H40465   1.445   3.160   2.681  0.8243 -1.4232 -1.0159
  307MOL0     H40466   1.397   3.328   2.714 -0.2883  4.9973 -3.1844
  307MOL0     H40467   1.469   3.395   2.499  1.0180  0.7104  0.1931
  307MOL0     H40468   1.602   3.348   2.593  2.2584 -2.9644 -1.6639
  307MOL0     H40469   1.450   3.160   2.392  0.9052  1.0657 -2.2304
  307MOL0     H40470   1.580   3.103   2.502 -2.5094 -2.7635 -0.9647
  307MOL0     H40471   1.732   3.256   2.363 -0.8757  0.7924 -0.4833
  307MOL0     H40472   1.586   3.312   2.280 -2.7089  0.6623  1.1011
  307MOL0     H40473   1.749   3.051   2.274  0.0097  1.3079  2.5662
  307MOL0     H40474   1.569   3.044   2.243  1.5091 -2.5581  3.0450
  307MOL0     H40475   1.789   3.211   2.100 -1.4526  1.3584 -0.7383
  307MOL0     H40476   1.627   3.224   2.057 -1.3238 -0.5363  0.6844
  307MOL0     H40477   1.895   2.954   2.103  1.1847  3.1692 -0.4330
  307MOL0     H40478   2.017   2.786   1.960 -0.1586  0.7400 -0.0472
  307MOL0     H40479   1.960   2.751   1.803 -0.0365  0.3166 -1.0604
  307MOL0     H40480   1.954   2.538   1.944  3.3592  2.9256  0.3198
  307MOL0     H40481   1.783   2.587   1.937 -1.1498 -0.3570  2.7366
  307MOL0     H40482   1.996   2.618   2.162  0.5045 -0.8627  0.9721
  307MOL0     H40483   1.840   2.704   2.159  0.3671 -1.2879  1.9016
  307MOL0     H40484   1.858   2.398   2.145  1.0815 -0.4170  0.6742
  307MOL0     H40485   1.721   2.505   2.125 -3.6476 -1.5655  7.4905
  307MOL0     H40486   1.754   2.550   2.576  0.1941 -1.1384  2.3917
  307MOL0     H40487   1.659   2.425   2.726  1.5454  2.2745  0.3779
  307MOL0     H40488   1.221   2.169   2.741  1.3027  0.4371 -0.9476
  307MOL0     H40489   1.070   2.028   2.863  0.4290  0.1608 -2.4345
  307MOL0     H40490   0.981   1.861   2.979  3.9623 -3.9389  0.0452
  307MOL0     H40491   0.937   2.000   3.092 -0.2034 -0.3692 -0.5593
  307MOL0     H40492   0.996   1.798   3.277 -1.8925 -0.0454  1.7732
  307MOL0     H40493   0.949   1.707   3.131 -4.7649  0.7431 -0.9733
  307MOL0     H40494   0.781   1.927   3.267 -1.0135 -0.3708 -0.8451
  307MOL0     H40495   0.769   1.754   3.292 -3.9407  1.2877 -1.0877
  307MOL0     H40496   0.711   1.919   3.052  2.2915 -0.6691 -0.9677
  307MOL0     H40497   0.753   1.758   3.019  0.3100  0.1457  1.5149
  307MOL0     H40498   0.504   1.833   3.047  1.6700  1.5453 -0.6241
  307MOL0     H40499   0.531   1.851   3.210  1.4461  3.1579 -1.9147
  307MOL0     H40500   0.579   1.610   3.241 -4.3354 -0.1134  3.0901
  307MOL0     H40501   0.563   1.572   3.065 -1.4504  0.3596 -1.3891
  307MOL0     H40502   0.352   1.660   3.271 -0.4087 -1.7003  0.3551
  307MOL0     H40503   0.333   1.668   3.089  0.6266 -1.3592 -0.7711
  307MOL0     H40504   0.392   1.423   3.245  3.2250 -0.5945 -1.7023
  307MOL0     H40505   0.337   1.438   3.071  2.7336  1.2825  0.0062
  307MOL0     H40506   1.394   1.967   3.155  1.8758 -2.6946 -1.1917
  307MOL0     H40507   1.531   2.114   3.017  1.1755 -3.4472  0.8790
  307MOL0     H40508   1.517   2.163   2.390 -2.4394  0.5428  1.8180
  307MOL0     H40509   1.655   2.273   2.254 -0.6306 -1.6282  0.1191
  307MOL0     H40510   1.171   2.811   2.823  1.6979  2.0499 -0.5652
  307MOL0     H40511   0.998   2.625   2.746 -2.4571  0.4640 -0.9959
  307MOL0     H40512   0.965   2.236   2.453  0.6840  0.1903 -4.5152
  307MOL0     H40513   0.791   2.058   2.381 -0.3381  0.8211 -0.7066
  307MOL0     H40514   0.352   2.110   2.403 -1.5470 -0.5957  3.6294
  307MOL0     H40515   0.468   2.036   2.514 -0.5809  1.0444  0.0282
  307MOL0     H40516   0.338   1.855   2.435  1.7936 -1.5660  1.3477
  307MOL0     H40517   0.332   1.914   2.271  0.1924  1.9685  1.7143
  307MOL0     H40518   0.593   1.854   2.399 -1.0382  1.4600 -0.4967
  307MOL0     H40519   0.554   1.864   2.229  1.4231  4.0091  1.1674
  307MOL0     H40520   0.571   1.619   2.328 -1.4854 -1.1644  2.8925
  307MOL0     H40521   0.424   1.644   2.404  0.1708  1.1750 -0.2905
  307MOL0     H40522   0.318   1.568   1.993  1.2165 -0.2355  0.1548
  307MOL0     H40523   0.491   2.368   2.404 -0.1833 -0.0110  1.3167
  307MOL0     H40524   0.651   2.521   2.498  2.0484 -0.5804 -0.1575
  308MOL0     O40525  10.456   4.220   0.114 -0.0572 -0.6227  0.9279
  308MOL0     C40526  10.410   4.116   0.150  0.0267 -0.7941  0.1202
  308MOL0     O40527  10.476   3.999   0.155  0.2136  0.0565 -0.4383
  308MOL0     C40528  10.608   4.000   0.150 -0.2587 -0.6453  0.0321
  308MOL0     C40529  10.657   4.017   0.016 -0.5721 -0.0920 -0.2476
  308MOL0     C40530  10.796   4.020  -0.002  0.4367  0.2865  0.3856
  308MOL0     C40531  10.887   4.037   0.106 -0.0656  0.5075 -0.5767
  308MOL0     O40532  11.020   4.060   0.078 -0.3665 -0.0976 -0.1187
  308MOL0     C40533  11.105   4.105   0.183  0.1549 -0.3882  0.1698
  308MOL0     C40534  11.232   4.151   0.120  0.7589 -0.0229  0.1564
  308MOL0     C40535  11.334   4.210   0.228  0.1300 -0.1911 -0.8301
  308MOL0     C40536  11.449   4.282   0.162 -0.7063  0.3081  0.0499
  308MOL0     C40537  11.551   4.175   0.112  0.5620 -0.4252 -0.2128
  308MOL0     C40538  11.676   4.238   0.057  0.6390  0.8871 -0.0937
  308MOL0     C40539  11.753   4.324   0.162 -0.4176 -0.5893 -0.2209
  308MOL0     C40540  11.882   4.370   0.097  0.0768 -0.3849  0.7511
  308MOL0     N40541  11.969   4.267   0.040 -0.0088  0.3009 -1.0842
  308MOL0     C40542  12.030   4.172   0.117  0.0098  0.5254  0.1318
  308MOL0     C40543  12.108   4.105   0.029  0.4603 -0.2047  0.9051
  308MOL0     C40544  12.210   4.004   0.070  0.1830  0.2852 -0.2007
  308MOL0     C40545  12.201   3.857   0.013  0.9388  0.4645 -1.5671
  308MOL0     C40546  12.146   3.762   0.121  0.0260  0.2863  0.2206
  308MOL0     C40547  12.029   3.798   0.215 -0.0847 -1.2920  0.8429
  308MOL0     O40548  12.056   3.881   0.328  0.2943  0.1541  0.1329
  308MOL0     C40549  11.942   3.939   0.380 -0.6294  0.7685  0.8822
  308MOL0     C40550  11.810   3.905   0.356  0.4476  0.5122  0.3698
  308MOL0     C40551  11.705   3.976   0.412  0.1244 -0.6010  0.4182
  308MOL0     C40552  11.731   4.091   0.494  0.6426  0.1629  0.3557
  308MOL0     C40553  11.613   4.139   0.567  0.1336 -0.1716 -0.4905
  308MOL0     O40554  11.495   4.068   0.572  0.3696 -0.8974 -0.0330
  308MOL0     C40555  11.378   4.132   0.595  0.5657  0.7429 -1.0435
  308MOL0     C40556  11.265   4.045   0.604 -0.2564 -0.4365  0.1160
  308MOL0     C40557  11.134   4.092   0.642 -0.2978  0.1367 -0.4858
  308MOL0     C40558  11.122   4.233   0.686  0.0739 -0.0910  0.0186
  308MOL0     O40559  11.012   4.285   0.760 -0.2450 -0.0488  0.0468
  308MOL0     C40560  10.898   4.204   0.783  1.0862 -0.0259  0.1287
  308MOL0     C40561  10.797   4.293   0.856  0.7521 -0.4996 -0.4329
  308MOL0     C40562  10.661   4.221   0.896  0.5957 -0.3569  0.3860
  308MOL0     C40563  10.561   4.330   0.950  0.3162 -0.2152  0.0221
  308MOL0     C40564  10.419   4.274   0.977 -0.4821  0.2081 -0.4368
  308MOL0     C40565  10.331   4.375   1.046  0.8975 -0.7580 -0.1819
  308MOL0     C40566  10.353   4.375   1.192  0.6639 -0.5970 -0.1187
  308MOL0     C40567  10.311   4.244   1.274  0.3690 -0.2348  0.7854
  308MOL0    Cl40568  10.139   4.208   1.268  0.2031  0.1529 -0.2615
  308MOL0     C40569  11.229   4.319   0.663 -0.0830 -0.7771 -0.3471
  308MOL0     C40570  11.360   4.271   0.618  0.1566 -0.1078  0.2184
  308MOL0     O40571  11.633   4.241   0.635 -0.3375 -0.2491 -0.0265
  308MOL0     C40572  11.870   4.120   0.516  0.0839 -1.0557  0.6425
  308MOL0     C40573  11.970   4.042   0.461  0.2648  0.6638  0.2148
  308MOL0     N40574  12.084   4.152  -0.102  2.0083 -0.4826  0.0814
  308MOL0     N40575  12.007   4.260  -0.082  0.5884 -0.2560 -0.6175
  308MOL0     C40576  10.838   4.013   0.239  0.1871  0.6868 -0.1848
  308MOL0     C40577  10.701   3.998   0.263  0.0429  0.0205  0.2869
  308MOL0     C40578  10.268   4.117   0.170 -0.3890 -0.3098 -0.2022
  308MOL0     C40579  10.189   4.003   0.161 -1.0195 -0.0683 -0.7925
  308MOL0     C40580  10.051   4.002   0.168 -0.0283  0.4187  0.2705
  308MOL0     C40581   9.975   4.120   0.185  0.0560 -0.2139  0.4869
  308MOL0     O40582   9.841   4.139   0.182 -0.8168  0.4363 -0.1585
  308MOL0     C40583   9.747   4.034   0.145 -0.2430 -0.1667 -0.2519
  308MOL0     C40584   9.704   3.950   0.275  0.8250 -0.8516  0.5620
  308MOL0     C40585   9.622   4.037   0.364 -0.7390 -0.1913  0.0192
  308MOL0     C40586   9.557   3.944   0.473  0.9872 -0.3781 -0.5202
  308MOL0     C40587   9.437   4.006   0.547 -0.1089  0.4877 -0.5026
  308MOL0     C40588   9.370   4.080   0.619  1.0636  0.1967  0.3877
  308MOL0     C40589  10.055   4.233   0.188 -0.3228 -0.8065  0.4306
  308MOL0     C40590  10.198   4.234   0.180  0.2390 -0.2415 -0.0780
  308MOL0     H40591  10.588   4.009  -0.067 -1.2083 -1.9158  0.4127
  308MOL0     H40592  10.832   4.031  -0.104 -0.9356  0.7606 -0.0784
  308MOL0     H40593  11.124   4.019   0.248  0.1434  0.5897  1.5144
  308MOL0     H40594  11.062   4.182   0.248 -2.6748 -2.0176  0.4139
  308MOL0     H40595  11.210   4.230   0.047  1.5968  1.2272  1.2088
  308MOL0     H40596  11.279   4.073   0.059  0.0386  0.0162 -0.4624
  308MOL0     H40597  11.363   4.135   0.302  1.5197  1.7600  0.6944
  308MOL0     H40598  11.285   4.291   0.285  4.9118  3.5435 -1.4091
  308MOL0     H40599  11.415   4.365   0.100 -1.1296 -0.4490 -0.7699
  308MOL0     H40600  11.505   4.334   0.239  1.2840 -1.1953 -0.2968
  308MOL0     H40601  11.497   4.115   0.038 -0.7789  0.0825  0.3214
  308MOL0     H40602  11.567   4.107   0.196 -2.2537  1.1970  1.8249
  308MOL0     H40603  11.646   4.296  -0.030  2.1215  0.0082 -1.2293
  308MOL0     H40604  11.739   4.159   0.016 -2.0503 -1.2826 -0.3238
  308MOL0     H40605  11.702   4.412   0.201 -2.9101 -2.0032 -0.0308
  308MOL0     H40606  11.787   4.257   0.242 -0.1194  0.3685  0.4608
  308MOL0     H40607  11.936   4.423   0.176  2.2420 -2.8774  1.0645
  308MOL0     H40608  11.853   4.434   0.013 -0.3590 -1.6639 -0.0972
  308MOL0     H40609  12.038   4.145   0.222  0.5058 -0.9028 -0.2571
  308MOL0     H40610  12.214   4.009   0.180 -2.1240 -0.5753 -0.0056
  308MOL0     H40611  12.305   4.042   0.033  0.2341 -1.1276 -1.6323
  308MOL0     H40612  12.301   3.822  -0.012 -0.8247 -5.7204 -1.5422
  308MOL0     H40613  12.139   3.838  -0.076  0.5703 -1.4732 -0.9473
  308MOL0     H40614  12.112   3.671   0.070 -2.4888  1.8053 -1.0016
  308MOL0     H40615  12.239   3.742   0.175  1.4988  0.8832 -1.9682
  308MOL0     H40616  11.996   3.704   0.261 -4.9551  0.0654  0.5808
  308MOL0     H40617  11.950   3.846   0.158  0.9957  0.8319  1.0384
  308MOL0     H40618  11.790   3.819   0.293 -1.0938  2.5425 -2.0756
  308MOL0     H40619  11.607   3.934   0.390 -0.9908  1.9959  0.0979
  308MOL0     H40620  11.285   3.941   0.579  0.3311 -0.0054 -1.2709
  308MOL0     H40621  11.060   4.014   0.654  0.9330 -1.1016 -0.6086
  308MOL0     H40622  10.919   4.108   0.831 -0.7756 -0.7374 -0.3903
  308MOL0     H40623  10.848   4.173   0.690  1.0831 -0.5819  0.3124
  308MOL0     H40624  10.760   4.371   0.788 -4.1821 -1.5368  0.6487
  308MOL0     H40625  10.844   4.348   0.937 -0.5750  3.2196 -1.9822
  308MOL0     H40626  10.687   4.151   0.976  1.0171  0.4100  0.9332
  308MOL0     H40627  10.615   4.172   0.810  0.2387  2.4441 -1.1437
  308MOL0     H40628  10.600   4.370   1.044  1.6847  1.1982 -1.0902
  308MOL0     H40629  10.549   4.405   0.870  2.8578  0.6998  0.4052
  308MOL0     H40630  10.422   4.178   1.030  0.4188  2.1854  3.5217
  308MOL0     H40631  10.385   4.241   0.879  1.2475 -2.2008 -0.2984
  308MOL0     H40632  10.230   4.344   1.017  1.4364 -0.7736 -2.2094
  308MOL0     H40633  10.348   4.476   1.007 -2.7809  0.3013  0.5630
  308MOL0     H40634  10.459   4.389   1.214 -0.0506  2.1507  2.2490
  308MOL0     H40635  10.297   4.456   1.239 -2.1823 -2.4915  0.0242
  308MOL0     H40636  10.337   4.260   1.380 -0.5333 -1.2455  1.1748
  308MOL0     H40637  10.370   4.159   1.241  0.5048  0.9234 -2.2448
  308MOL0     H40638  11.216   4.426   0.672 -2.1512 -0.6574 -3.2985
  308MOL0     H40639  11.438   4.341   0.589 -0.1213 -0.3102 -1.0941
  308MOL0     H40640  11.892   4.204   0.581 -3.1561  0.6214 -0.1988
  308MOL0     H40641  12.074   4.057   0.490  0.7887  2.3002 -2.1855
  308MOL0     H40642  10.910   4.004   0.320  0.1972  1.2584 -0.1262
  308MOL0     H40643  10.648   3.970   0.353 -0.9163 -0.7376 -0.4766
  308MOL0     H40644  10.242   3.910   0.142 -2.0145 -0.8762  0.1838
  308MOL0     H40645   9.993   3.911   0.152  0.7313  0.1601 -1.1802
  308MOL0     H40646   9.777   3.972   0.061  0.2089 -0.1842 -0.0835
  308MOL0     H40647   9.653   4.084   0.120 -1.0300 -2.6413 -2.7101
  308MOL0     H40648   9.640   3.870   0.236 -1.5522  0.7071  1.0423
  308MOL0     H40649   9.792   3.908   0.326  1.6391  0.4796  0.3047
  308MOL0     H40650   9.538   4.093   0.321  0.9075  0.7108 -2.2291
  308MOL0     H40651   9.684   4.125   0.384 -0.4393  0.2889 -2.6816
  308MOL0     H40652   9.518   3.858   0.419  3.7309 -1.5796 -0.7515
  308MOL0     H40653   9.636   3.915   0.543  0.9778 -0.6710 -0.6311
  308MOL0     H40654   9.308   4.135   0.687 -0.3601 -1.7631  0.7624
  308MOL0     H40655  10.003   4.328   0.181 -2.1170 -1.8834 -4.2609
  308MOL0     H40656  10.232   4.337   0.175 -2.2872  0.5901 -2.1277
  309MOL0     O40657   6.297   1.274   7.003  0.0348 -0.7019  0.5362
  309MOL0     C40658   6.223   1.245   6.907  0.2953 -0.5801 -0.1964
  309MOL0     O40659   6.082   1.250   6.908 -0.3315  0.1690 -0.2745
  309MOL0     C40660   6.021   1.233   7.025 -0.1071  0.8033  0.1596
  309MOL0     C40661   6.052   1.157   7.141  0.5091 -0.4903 -0.5849
  309MOL0     C40662   5.960   1.138   7.243 -0.5710  0.0604 -0.0209
  309MOL0     C40663   5.836   1.187   7.235  0.1836  0.4520 -0.5362
  309MOL0     O40664   5.724   1.155   7.316 -0.0801  0.1173 -0.0997
  309MOL0     C40665   5.743   1.049   7.412 -0.3534  0.8217  0.7557
  309MOL0     C40666   5.616   1.033   7.497 -0.1746 -0.1274  0.6932
  309MOL0     C40667   5.555   1.165   7.551 -0.1292  0.3979 -0.4865
  309MOL0     C40668   5.640   1.209   7.670 -0.0729 -0.0343  0.2363
  309MOL0     C40669   5.609   1.356   7.715 -0.4660  0.5357  0.7806
  309MOL0     C40670   5.706   1.396   7.819 -0.1657  0.3903 -0.2222
  309MOL0     C40671   5.746   1.548   7.826 -0.7246 -0.2786 -0.3442
  309MOL0     C40672   5.798   1.606   7.696  0.3575  0.3069  0.1917
  309MOL0     N40673   5.884   1.720   7.729  0.9918 -0.5979 -0.2177
  309MOL0     C40674   5.833   1.823   7.810  0.8916  0.1792  0.9616
  309MOL0     C40675   5.937   1.898   7.832 -0.0540  0.5245 -0.6429
  309MOL0     C40676   5.938   2.036   7.901 -0.4321 -0.1691  1.1614
  309MOL0     C40677   6.081   2.091   7.939  1.1074  0.6378  0.5247
  309MOL0     C40678   6.060   2.231   7.998  0.7121 -0.3598 -0.6042
  309MOL0     C40679   6.184   2.321   8.012 -0.9699 -0.5805  0.6122
  309MOL0     O40680   6.267   2.315   7.891 -0.4193 -0.0482  0.3539
  309MOL0     C40681   6.361   2.411   7.867 -0.4382 -0.2334 -0.2789
  309MOL0     C40682   6.427   2.485   7.968  0.3955  0.4247  0.0188
  309MOL0     C40683   6.509   2.591   7.937 -0.0796  0.1324 -0.2621
  309MOL0     C40684   6.542   2.615   7.795  0.4799  0.4041  0.0487
  309MOL0     C40685   6.638   2.722   7.771  0.4950 -0.2564  0.1087
  309MOL0     O40686   6.679   2.794   7.885  0.7145 -0.0889  0.3278
  309MOL0     C40687   6.766   2.892   7.868 -0.6253  0.3857  0.7303
  309MOL0     C40688   6.737   3.023   7.918  0.0277 -1.0105  0.2049
  309MOL0     C40689   6.839   3.120   7.920  0.3024 -0.0441  0.0883
  309MOL0     C40690   6.964   3.103   7.856  0.4509 -0.0497  0.0432
  309MOL0     O40691   7.057   3.192   7.854  0.9906 -1.1361 -0.1280
  309MOL0     C40692   7.042   3.312   7.942 -0.0043 -0.2981  0.0630
  309MOL0     C40693   7.176   3.375   7.962  1.2358  0.2001  0.9962
  309MOL0     C40694   7.174   3.517   8.015 -0.1601 -0.0953  0.3524
  309MOL0     C40695   7.146   3.620   7.907  0.2868  0.2246  0.6422
  309MOL0     C40696   7.133   3.759   7.973 -0.2902  1.1381 -0.2201
  309MOL0     C40697   7.112   3.857   7.854 -0.6794 -0.4117 -0.5683
  309MOL0     C40698   7.242   3.888   7.772  0.1514  0.1144  0.4530
  309MOL0     C40699   7.220   3.995   7.681 -0.6994 -0.0519  0.5204
  309MOL0    Cl40700   7.143   3.907   7.543 -0.0669 -0.3504 -0.2307
  309MOL0     C40701   6.990   2.974   7.802  0.7565 -1.6442  0.1365
  309MOL0     C40702   6.890   2.878   7.804  0.2293  0.0290  0.4933
  309MOL0     O40703   6.676   2.736   7.660 -0.2518 -0.0117  0.2922
  309MOL0     C40704   6.481   2.534   7.696 -0.7483 -0.0387  1.2312
  309MOL0     C40705   6.389   2.441   7.732 -0.0148 -0.4050  0.0101
  309MOL0     N40706   6.044   1.844   7.769  0.4220  0.1717 -0.2765
  309MOL0     N40707   6.012   1.746   7.697 -0.0595  0.4105  0.3662
  309MOL0     C40708   5.803   1.255   7.122  0.3354  0.3625  0.0211
  309MOL0     C40709   5.889   1.288   7.019 -0.6039  0.8021  0.6154
  309MOL0     C40710   6.309   1.202   6.785  0.5921  0.0006 -0.2173
  309MOL0     C40711   6.439   1.233   6.755 -1.0048  0.5596 -0.7192
  309MOL0     C40712   6.509   1.159   6.663 -0.3114  0.3703 -0.5969
  309MOL0     C40713   6.455   1.052   6.593 -0.6935 -0.2517 -0.2811
  309MOL0     O40714   6.534   0.983   6.509  0.8639  0.7398 -0.1526
  309MOL0     C40715   6.491   0.853   6.464 -0.1713  0.3761 -0.4493
  309MOL0     C40716   6.604   0.774   6.398 -0.8336  0.6868  0.0430
  309MOL0     C40717   6.629   0.830   6.255  0.8380  0.7172  0.4835
  309MOL0     C40718   6.757   0.771   6.201 -0.1351  0.3905  0.0740
  309MOL0     C40719   6.877   0.823   6.267 -0.2877  0.0097  0.5759
  309MOL0     C40720   6.978   0.876   6.317 -0.2216 -0.2347  0.4690
  309MOL0     C40721   6.326   1.030   6.613  0.8842  0.1926 -0.3472
  309MOL0     C40722   6.251   1.105   6.705  0.4187  0.2163 -0.8183
  309MOL0     H40723   6.148   1.106   7.150 -0.0107 -1.2961  0.5658
  309MOL0     H40724   5.977   1.074   7.329 -2.6755 -1.2126 -0.4973
  309MOL0     H40725   5.823   1.084   7.478  0.2654  0.6333  0.1139
  309MOL0     H40726   5.784   0.959   7.366 -1.1240  0.3491  0.9699
  309MOL0     H40727   5.633   0.959   7.577  0.4578 -1.2369 -0.4323
  309MOL0     H40728   5.527   1.005   7.440 -0.3410  0.3002  0.7382
  309MOL0     H40729   5.455   1.139   7.588  0.7622  0.1584  1.9145
  309MOL0     H40730   5.553   1.249   7.481  2.3626  1.3142  0.4400
  309MOL0     H40731   5.620   1.148   7.759 -2.5390  0.8003  0.3242
  309MOL0     H40732   5.747   1.198   7.649  0.2943  0.2393  1.8703
  309MOL0     H40733   5.504   1.353   7.745 -1.1448 -3.6053 -1.2795
  309MOL0     H40734   5.617   1.412   7.621 -0.7011  1.4378  1.2885
  309MOL0     H40735   5.799   1.339   7.808 -0.7175 -0.7813  0.8215
  309MOL0     H40736   5.668   1.362   7.916 -1.9022  1.0341 -0.6278
  309MOL0     H40737   5.668   1.608   7.875 -2.8269 -2.8622 -0.2948
  309MOL0     H40738   5.836   1.552   7.887 -0.4622 -2.5317 -0.5090
  309MOL0     H40739   5.715   1.629   7.628  0.3065 -0.1736  0.0906
  309MOL0     H40740   5.847   1.525   7.641 -0.3223 -0.3996  0.5966
  309MOL0     H40741   5.742   1.844   7.865 -0.5783 -0.3970 -1.1255
  309MOL0     H40742   5.881   2.039   7.994 -0.3209  0.6502  1.2131
  309MOL0     H40743   5.892   2.100   7.825 -1.9067 -0.9162  1.4039
  309MOL0     H40744   6.137   2.098   7.845  2.2463  0.6961  1.1858
  309MOL0     H40745   6.123   2.021   8.012  1.9597 -0.8144 -1.2783
  309MOL0     H40746   5.977   2.275   7.942 -1.0991  0.0733  2.2547
  309MOL0     H40747   6.026   2.232   8.102 -1.2825  1.8830 -1.1864
  309MOL0     H40748   6.249   2.298   8.097 -0.2059  1.9980  0.8373
  309MOL0     H40749   6.149   2.424   8.030 -1.8240 -0.9733  1.2820
  309MOL0     H40750   6.396   2.470   8.071  0.0460 -1.3002 -0.2913
  309MOL0     H40751   6.541   2.650   8.021 -3.1316  1.9477 -0.2094
  309MOL0     H40752   6.648   3.044   7.977  0.3931  0.4229  0.2632
  309MOL0     H40753   6.805   3.203   7.980 -2.5939 -2.2806  1.8241
  309MOL0     H40754   7.010   3.285   8.044  0.3573 -1.1601 -0.0403
  309MOL0     H40755   6.973   3.386   7.902  3.8441  2.8205 -1.3975
  309MOL0     H40756   7.234   3.353   7.871 -0.5051 -1.5441  0.2283
  309MOL0     H40757   7.221   3.318   8.043  2.7195 -0.8961 -0.5200
  309MOL0     H40758   7.260   3.541   8.078  0.9885 -1.1344 -0.7676
  309MOL0     H40759   7.078   3.535   8.063  0.9923  1.0991  2.3607
  309MOL0     H40760   7.217   3.624   7.823 -0.2755  1.3958  0.2001
  309MOL0     H40761   7.053   3.583   7.861  1.4180 -3.0485  0.7164
  309MOL0     H40762   7.224   3.784   8.029  1.6396 -0.1664 -2.5436
  309MOL0     H40763   7.051   3.763   8.044  0.7383  0.3933  1.0629
  309MOL0     H40764   7.076   3.957   7.880  0.1109  0.4107 -2.4447
  309MOL0     H40765   7.041   3.810   7.786 -0.5719 -2.3183  0.5636
  309MOL0     H40766   7.319   3.916   7.845  1.6271 -1.5049 -0.3797
  309MOL0     H40767   7.268   3.795   7.719 -0.7489  0.0802  0.0599
  309MOL0     H40768   7.318   4.037   7.658 -0.5128 -0.8952 -0.3143
  309MOL0     H40769   7.156   4.078   7.711 -2.6447 -0.8760 -1.1048
  309MOL0     H40770   7.084   2.948   7.754 -0.5648 -0.5917 -3.3329
  309MOL0     H40771   6.902   2.783   7.752 -0.5508 -0.3878  1.0428
  309MOL0     H40772   6.527   2.545   7.599 -1.3178 -0.3112  0.9196
  309MOL0     H40773   6.322   2.396   7.660 -0.0956  0.5044 -0.4882
  309MOL0     H40774   5.699   1.285   7.117  1.3221  4.7185  1.2423
  309MOL0     H40775   5.866   1.349   6.932 -0.8547  0.5207  0.4827
  309MOL0     H40776   6.489   1.311   6.812  0.5654 -2.0701  1.7678
  309MOL0     H40777   6.610   1.192   6.644 -0.5626  2.0252  0.7224
  309MOL0     H40778   6.396   0.857   6.409 -0.1813  0.0408 -0.4610
  309MOL0     H40779   6.474   0.796   6.556  4.8400  2.2094  2.0165
  309MOL0     H40780   6.702   0.789   6.445  0.0389  0.8413 -1.7535
  309MOL0     H40781   6.578   0.668   6.400 -1.1470  0.7674  0.3054
  309MOL0     H40782   6.644   0.938   6.259  0.4774  0.7352  2.3778
  309MOL0     H40783   6.548   0.795   6.191  1.9888 -2.7132  0.6738
  309MOL0     H40784   6.743   0.663   6.211 -1.3578  0.2650 -2.3185
  309MOL0     H40785   6.772   0.780   6.093 -0.5561 -3.0169 -0.3933
  309MOL0     H40786   7.064   0.918   6.366 -1.2148 -0.4530  2.4864
  309MOL0     H40787   6.277   0.954   6.553 -1.9720  1.8607 -0.3258
  309MOL0     H40788   6.148   1.071   6.711  0.5169  0.0470 -0.0077
  310MOL0     O40789   7.540   8.832   7.241 -0.4522  0.2163 -0.4014
  310MOL0     C40790   7.649   8.783   7.267 -1.5019 -0.4541  1.0189
  310MOL0     O40791   7.669   8.657   7.318  0.0247 -0.0295 -0.4163
  310MOL0     C40792   7.551   8.581   7.339  0.3563  0.1833 -0.5355
  310MOL0     C40793   7.461   8.545   7.236 -0.2878 -0.2247 -0.1793
  310MOL0     C40794   7.351   8.472   7.258 -0.0794  0.9541  0.3421
  310MOL0     C40795   7.320   8.430   7.393  0.3491  0.6319  0.3546
  310MOL0     O40796   7.215   8.350   7.429 -0.4842  0.4123  0.3713
  310MOL0     C40797   7.096   8.373   7.358  0.4999  0.0640 -0.4790
  310MOL0     C40798   7.007   8.269   7.418  1.0907  0.3458 -0.0299
  310MOL0     C40799   7.047   8.126   7.389  0.1882 -0.5553  0.2451
  310MOL0     C40800   6.960   8.031   7.471 -0.1305 -0.2705 -1.0276
  310MOL0     C40801   6.994   7.887   7.443 -1.4784 -0.3432 -0.4602
  310MOL0     C40802   6.945   7.787   7.561  0.0327  0.2307 -0.1731
  310MOL0     C40803   6.968   7.643   7.527  0.5963 -0.1668 -0.3840
  310MOL0     C40804   7.119   7.601   7.509  0.1753 -0.3234  0.0571
  310MOL0     N40805   7.183   7.630   7.644  0.0021 -0.0423  0.4741
  310MOL0     C40806   7.276   7.734   7.675 -0.4038  1.0533 -0.3349
  310MOL0     C40807   7.283   7.720   7.812  0.2914  0.0060 -1.3227
  310MOL0     C40808   7.379   7.790   7.907  1.2210  0.7280  0.0433
  310MOL0     C40809   7.517   7.746   7.891 -0.6603 -0.2110 -0.2840
  310MOL0     C40810   7.597   7.783   8.027 -0.1400 -0.2933 -0.0906
  310MOL0     C40811   7.748   7.749   7.992 -0.2024  0.8327 -1.3250
  310MOL0     O40812   7.839   7.757   8.109  0.5086 -0.4452 -0.1485
  310MOL0     C40813   7.971   7.752   8.095 -0.0579  0.3393 -0.1853
  310MOL0     C40814   8.042   7.754   8.213  0.5108 -0.2037 -0.1332
  310MOL0     C40815   8.179   7.741   8.211  0.2656 -0.8010 -0.1378
  310MOL0     C40816   8.247   7.752   8.089  0.2975  0.5128 -0.0519
  310MOL0     C40817   8.392   7.745   8.085  0.9327  0.4861 -0.4452
  310MOL0     O40818   8.460   7.760   8.202 -0.6765 -0.6669  0.1394
  310MOL0     C40819   8.591   7.750   8.205 -0.4976 -0.6160 -0.4696
  310MOL0     C40820   8.668   7.629   8.187  0.8497 -0.5079 -0.0284
  310MOL0     C40821   8.801   7.635   8.205 -0.0279  0.4187 -0.6394
  310MOL0     C40822   8.866   7.754   8.237 -0.3308  0.0014 -0.1702
  310MOL0     O40823   8.999   7.736   8.268  0.7497  0.2614 -0.8341
  310MOL0     C40824   9.072   7.843   8.319  0.0411 -0.3037 -0.2816
  310MOL0     C40825   9.222   7.801   8.288  0.5788 -0.3586 -0.5622
  310MOL0     C40826   9.261   7.835   8.149 -0.4063  0.1047 -0.3408
  310MOL0     C40827   9.386   7.762   8.109 -0.6339 -0.1998  0.5771
  310MOL0     C40828   9.497   7.863   8.063  0.4929 -0.7509 -0.2364
  310MOL0     C40829   9.637   7.814   8.084 -0.2239 -0.2573 -0.4385
  310MOL0     C40830   9.661   7.675   8.054 -0.4298  0.2914 -0.1254
  310MOL0     C40831   9.644   7.634   7.914 -0.0958 -0.3401 -0.5427
  310MOL0    Cl40832   9.755   7.726   7.799  0.1973  0.2831 -0.0192
  310MOL0     C40833   8.803   7.880   8.235 -0.1405 -0.3829 -0.5760
  310MOL0     C40834   8.666   7.868   8.221  0.3354  0.4696 -0.8444
  310MOL0     O40835   8.443   7.726   7.978  0.0383  0.5858  0.5093
  310MOL0     C40836   8.180   7.759   7.970  0.8931 -0.2717 -0.4069
  310MOL0     C40837   8.038   7.768   7.972 -0.0823 -0.1571  1.1938
  310MOL0     N40838   7.217   7.606   7.858 -0.7130  0.1433 -0.1080
  310MOL0     N40839   7.168   7.550   7.754 -0.6242 -0.1230  0.3265
  310MOL0     C40840   7.407   8.448   7.492  0.1428 -0.5430 -0.1893
  310MOL0     C40841   7.519   8.526   7.464 -0.3644 -0.2487 -0.3470
  310MOL0     C40842   7.761   8.866   7.255 -0.2326  0.9869  0.2396
  310MOL0     C40843   7.750   9.003   7.218  0.0428  0.4466  0.7200
  310MOL0     C40844   7.873   9.068   7.205  0.2424 -1.3038 -0.1709
  310MOL0     C40845   7.998   9.014   7.235  0.0700 -0.7782  0.5223
  310MOL0     O40846   8.116   9.082   7.214 -0.5619  0.4173 -0.0548
  310MOL0     C40847   8.122   9.223   7.200 -0.3051 -0.5756 -1.0288
  310MOL0     C40848   8.261   9.256   7.197 -0.0916 -0.1410 -0.4096
  310MOL0     C40849   8.282   9.402   7.194 -0.1449  0.4763 -0.4568
  310MOL0     C40850   8.423   9.456   7.181  0.8601 -0.5852  0.6215
  310MOL0     C40851   8.512   9.377   7.092 -0.0546  0.1222  1.0708
  310MOL0     C40852   8.577   9.320   7.002 -1.1031  0.5294 -0.8284
  310MOL0     C40853   8.002   8.884   7.278 -0.2087  0.2446 -0.8103
  310MOL0     C40854   7.888   8.815   7.282 -0.6737  0.1824 -0.2578
  310MOL0     H40855   7.488   8.578   7.137  2.4598 -0.6282  0.3578
  310MOL0     H40856   7.288   8.431   7.181 -1.8445  1.1127  1.6425
  310MOL0     H40857   7.101   8.344   7.253 -0.7322 -1.6365 -0.0954
  310MOL0     H40858   7.065   8.476   7.379  1.0061 -0.3801  3.0058
  310MOL0     H40859   6.906   8.283   7.379  0.2949 -2.7446  0.5908
  310MOL0     H40860   7.023   8.290   7.524 -2.3869  3.1653  0.1476
  310MOL0     H40861   7.150   8.112   7.423  0.3840  0.0598 -0.0615
  310MOL0     H40862   7.027   8.111   7.282  1.3205 -0.9735  0.0718
  310MOL0     H40863   6.976   8.057   7.576 -3.2666 -0.0499 -0.5217
  310MOL0     H40864   6.858   8.053   7.440 -0.3219 -2.3119 -2.0122
  310MOL0     H40865   7.101   7.868   7.426 -0.9433  1.8917  0.0701
  310MOL0     H40866   6.947   7.860   7.348 -1.6509  0.6109 -0.6553
  310MOL0     H40867   6.837   7.805   7.565  0.0479  0.1630  1.1027
  310MOL0     H40868   6.987   7.829   7.653  0.2879 -1.8605  0.7221
  310MOL0     H40869   6.926   7.573   7.599  0.6663  0.4504  0.2685
  310MOL0     H40870   6.910   7.625   7.436 -3.1494 -3.1422  2.2953
  310MOL0     H40871   7.171   7.656   7.430 -0.1849 -3.0118 -2.2383
  310MOL0     H40872   7.119   7.494   7.485 -0.6122 -0.4961  0.7626
  310MOL0     H40873   7.322   7.809   7.611 -0.6126  0.3669 -1.3119
  310MOL0     H40874   7.357   7.764   8.011 -1.2506  0.5503 -0.4706
  310MOL0     H40875   7.362   7.897   7.895 -1.2874  0.0814 -4.2101
  310MOL0     H40876   7.559   7.806   7.809  0.8329  3.4518  2.8652
  310MOL0     H40877   7.530   7.642   7.859  2.9880  0.6776 -2.3613
  310MOL0     H40878   7.587   7.888   8.057  0.0394 -0.3500  0.1697
  310MOL0     H40879   7.567   7.713   8.106 -1.3615 -0.5530 -0.7592
  310MOL0     H40880   7.789   7.814   7.914  3.6593 -0.5520 -0.6325
  310MOL0     H40881   7.749   7.645   7.959 -1.7858  0.9658 -1.8854
  310MOL0     H40882   7.996   7.771   8.310  2.3332  1.2659  0.5263
  310MOL0     H40883   8.224   7.724   8.308 -1.4750 -1.5246  0.6011
  310MOL0     H40884   8.608   7.548   8.146  0.2043  0.1433 -0.4027
  310MOL0     H40885   8.856   7.543   8.188 -1.6135 -0.7711  0.3245
  310MOL0     H40886   9.047   7.858   8.425 -3.8971  2.9855 -1.4099
  310MOL0     H40887   9.051   7.935   8.264  0.6231  0.3164  0.5058
  310MOL0     H40888   9.230   7.697   8.321 -0.0135  0.2735  1.7337
  310MOL0     H40889   9.279   7.864   8.357  0.4543  1.2075 -1.8123
  310MOL0     H40890   9.268   7.944   8.136 -1.8570  0.0755 -1.6061
  310MOL0     H40891   9.181   7.800   8.083 -1.3149 -0.9410  1.2329
  310MOL0     H40892   9.422   7.697   8.190  0.6428  2.0954  1.9540
  310MOL0     H40893   9.377   7.691   8.027  0.9490 -0.2382  0.4107
  310MOL0     H40894   9.481   7.951   8.126 -1.0187 -1.5933  0.6202
  310MOL0     H40895   9.481   7.897   7.961 -1.9035  0.5156  0.4878
  310MOL0     H40896   9.672   7.820   8.187  3.3515  0.2155 -1.5553
  310MOL0     H40897   9.709   7.867   8.021 -0.7290  0.5785 -0.3294
  310MOL0     H40898   9.766   7.651   8.070 -0.5253  0.5758  1.0148
  310MOL0     H40899   9.596   7.609   8.114 -0.0830  0.0302 -0.0319
  310MOL0     H40900   9.545   7.651   7.872 -0.8008  1.0770  1.5484
  310MOL0     H40901   9.669   7.528   7.902 -0.6438 -0.2912 -2.6513
  310MOL0     H40902   8.842   7.978   8.259 -1.1353  0.2628 -1.4939
  310MOL0     H40903   8.597   7.951   8.231 -4.4630 -3.2701  0.2481
  310MOL0     H40904   8.229   7.766   7.874 -2.2539 -0.8074 -2.2179
  310MOL0     H40905   7.991   7.801   7.879  0.8348  2.2871  1.5324
  310MOL0     H40906   7.385   8.407   7.590 -0.1917  0.9621  0.4000
  310MOL0     H40907   7.578   8.553   7.552 -1.3292  1.2415 -0.1221
  310MOL0     H40908   7.659   9.055   7.190  1.6621  3.2644  0.3215
  310MOL0     H40909   7.878   9.163   7.154 -0.3375 -1.4686 -0.5436
  310MOL0     H40910   8.081   9.265   7.292  2.5659 -1.0404  0.5908
  310MOL0     H40911   8.070   9.258   7.111 -3.3085 -2.2788 -0.0664
  310MOL0     H40912   8.301   9.208   7.287  1.1848 -1.7095 -1.7366
  310MOL0     H40913   8.305   9.196   7.116  2.8220  1.4806 -0.1667
  310MOL0     H40914   8.241   9.451   7.283 -4.1724 -2.1636 -0.6012
  310MOL0     H40915   8.232   9.447   7.107  1.1846 -2.4849 -2.9356
  310MOL0     H40916   8.422   9.557   7.139  2.3676 -1.8122 -2.7723
  310MOL0     H40917   8.463   9.462   7.283  2.4802  0.4133 -0.0370
  310MOL0     H40918   8.632   9.261   6.932  2.3026  1.3035  0.9871
  310MOL0     H40919   8.101   8.844   7.300 -1.6708 -1.4893  4.0175
  310MOL0     H40920   7.895   8.708   7.297 -0.7262 -0.0147 -1.5793
  311MOL0     O40921   8.200   3.939   0.001  0.1252  0.5030 -0.3970
  311MOL0     C40922   8.234   4.010   0.092  0.3872 -0.4976 -0.6753
  311MOL0     O40923   8.164   4.063   0.198 -0.0017  0.3926 -0.7121
  311MOL0     C40924   8.024   4.053   0.205 -0.3950  0.5915 -0.9477
  311MOL0     C40925   7.936   4.054   0.099  0.4292 -0.3977 -0.5090
  311MOL0     C40926   7.793   4.033   0.111  0.6355 -0.0633  0.1592
  311MOL0     C40927   7.746   4.013   0.241  0.4694  0.6454  0.0953
  311MOL0     O40928   7.610   3.994   0.261  0.2997  0.1275 -0.0369
  311MOL0     C40929   7.530   4.119   0.269 -0.4421  0.4881 -0.2456
  311MOL0     C40930   7.376   4.096   0.253  0.1290  0.1234  0.2378
  311MOL0     C40931   7.335   4.060   0.114  0.1736  0.7605  0.1125
  311MOL0     C40932   7.307   4.182   0.033  0.3986 -1.3819 -0.4300
  311MOL0     C40933   7.280   4.177  -0.121  0.3555 -0.7663 -0.1619
  311MOL0     C40934   7.179   4.070  -0.163  0.0974 -0.2045 -0.1656
  311MOL0     C40935   7.163   4.066  -0.317 -0.0510  1.1975  0.2576
  311MOL0     C40936   7.080   4.184  -0.369 -1.0050  0.5186  0.0033
  311MOL0     N40937   7.036   4.150  -0.504  0.0544  0.7141  0.4361
  311MOL0     C40938   6.953   4.045  -0.551 -0.0973 -0.6226  0.3236
  311MOL0     C40939   6.917   4.071  -0.684  0.0550  0.6337 -0.7435
  311MOL0     C40940   6.826   3.991  -0.765  1.0056  0.2366  0.3678
  311MOL0     C40941   6.681   4.014  -0.704 -0.6435  0.6354  0.1010
  311MOL0     C40942   6.586   3.906  -0.764 -0.9415  0.6584 -0.5323
  311MOL0     C40943   6.441   3.945  -0.725 -0.3977 -0.4544 -0.2926
  311MOL0     O40944   6.362   3.831  -0.702  0.5089  0.6399  0.6831
  311MOL0     C40945   6.224   3.843  -0.693 -0.3142  0.1147  0.0903
  311MOL0     C40946   6.143   3.946  -0.742 -0.3821  0.0400 -0.1311
  311MOL0     C40947   6.001   3.941  -0.726 -0.9459 -0.2832 -0.7341
  311MOL0     C40948   5.939   3.828  -0.677  0.5079  0.2086  0.0991
  311MOL0     C40949   5.793   3.801  -0.684  0.6569  0.6306  0.6671
  311MOL0     O40950   5.720   3.905  -0.715 -0.2762 -0.1815  0.3224
  311MOL0     C40951   5.583   3.906  -0.719  0.2955  0.3500  0.0567
  311MOL0     C40952   5.538   4.034  -0.757 -0.2578 -0.2822  0.3187
  311MOL0     C40953   5.405   4.053  -0.765  0.7662  0.3678 -0.2020
  311MOL0     C40954   5.303   3.964  -0.742  0.2742 -0.3714  0.0312
  311MOL0     O40955   5.175   4.017  -0.762 -0.0820  1.1053 -0.2803
  311MOL0     C40956   5.064   3.942  -0.811 -0.8449 -0.2339  0.6411
  311MOL0     C40957   4.964   4.034  -0.858  1.1156  1.3261  0.5296
  311MOL0     C40958   4.895   4.081  -0.732  0.3515  0.1006 -0.4808
  311MOL0     C40959   4.779   4.177  -0.756 -0.6903  0.1915 -1.3788
  311MOL0     C40960   4.739   4.245  -0.625  0.7849  0.0833  0.7208
  311MOL0     C40961   4.624   4.340  -0.647  0.1066 -0.1236 -0.6248
  311MOL0     C40962   4.595   4.423  -0.519 -0.2522  0.1308 -0.2043
  311MOL0     C40963   4.493   4.538  -0.537  0.6326 -0.4512  0.1291
  311MOL0    Cl40964   4.552   4.675  -0.639  0.0905 -0.5112 -0.0249
  311MOL0     C40965   5.346   3.833  -0.708 -0.6052  0.5303  0.4239
  311MOL0     C40966   5.488   3.805  -0.704  1.1320  0.7455 -0.4418
  311MOL0     O40967   5.747   3.686  -0.666 -0.7029  0.0860 -0.2554
  311MOL0     C40968   6.020   3.715  -0.632  0.3138 -0.5833  0.1899
  311MOL0     C40969   6.158   3.732  -0.641 -1.5011 -0.0312  0.7404
  311MOL0     N40970   6.972   4.191  -0.712 -0.3138  0.0291  0.5457
  311MOL0     N40971   7.038   4.239  -0.609  0.1015  0.2291  0.1618
  311MOL0     C40972   7.833   4.011   0.350 -0.8178  0.1645 -0.0756
  311MOL0     C40973   7.980   4.025   0.331  0.6568 -0.1251  0.8885
  311MOL0     C40974   8.389   4.043   0.103  1.2020  0.6490  1.8247
  311MOL0     C40975   8.437   4.137   0.189  0.9223 -0.2166 -0.0877
  311MOL0     C40976   8.570   4.177   0.195 -0.5845  0.3205 -0.2170
  311MOL0     C40977   8.668   4.109   0.122 -0.2826 -1.1395  1.3325
  311MOL0     O40978   8.792   4.150   0.139 -0.3536  0.7814 -0.2035
  311MOL0     C40979   8.881   4.171   0.037 -0.4449 -0.0825 -0.4234
  311MOL0     C40980   9.015   4.197   0.108  0.4298  0.7019  0.5793
  311MOL0     C40981   9.127   4.246   0.017 -0.4737  0.6080 -0.1727
  311MOL0     C40982   9.111   4.224  -0.139 -0.0002  0.2229 -0.0460
  311MOL0     C40983   9.240   4.232  -0.203  0.4209  0.1569  0.8579
  311MOL0     C40984   9.350   4.219  -0.251  0.5963  0.2714 -0.0574
  311MOL0     C40985   8.628   4.007   0.036  0.0700  0.0453 -0.0986
  311MOL0     C40986   8.487   3.980   0.030  0.1148 -0.5017  0.4016
  311MOL0     H40987   7.977   4.063  -0.002  3.2257 -0.1085  0.5606
  311MOL0     H40988   7.726   4.033   0.026 -0.1331  2.5630  0.6793
  311MOL0     H40989   7.579   4.180   0.192  3.7727 -3.7242 -1.3660
  311MOL0     H40990   7.541   4.161   0.370 -2.7038 -1.9191  1.1147
  311MOL0     H40991   7.315   4.176   0.297  0.9388  2.1306 -2.0631
  311MOL0     H40992   7.344   4.006   0.307 -0.0711  0.3295  0.4676
  311MOL0     H40993   7.245   3.998   0.118 -0.3409  0.9305 -4.4315
  311MOL0     H40994   7.413   4.006   0.061 -2.4859  0.0145 -3.4662
  311MOL0     H40995   7.226   4.238   0.081  0.0237 -2.2686 -0.0062
  311MOL0     H40996   7.390   4.253   0.043 -1.0104  0.0902  1.7789
  311MOL0     H40997   7.374   4.137  -0.159  1.0889  0.7279  0.0284
  311MOL0     H40998   7.256   4.273  -0.169  1.7753  0.8416  2.1604
  311MOL0     H40999   7.079   4.075  -0.118  0.9165 -2.8488  2.2605
  311MOL0     H41000   7.226   3.978  -0.129  0.8109  1.1708  2.9435
  311MOL0     H41001   7.260   4.043  -0.363 -1.0623 -0.4141 -1.1793
  311MOL0     H41002   7.109   3.973  -0.335  1.7866  0.3782 -1.3903
  311MOL0     H41003   7.147   4.270  -0.368 -0.7048  0.3583  2.9238
  311MOL0     H41004   6.993   4.202  -0.304  0.7150  0.2774  2.5135
  311MOL0     H41005   6.921   3.959  -0.493  0.3267 -0.4389  0.8414
  311MOL0     H41006   6.846   3.884  -0.767 -2.0361 -0.4361 -0.6336
  311MOL0     H41007   6.833   4.016  -0.871  0.7901 -2.7662 -0.4482
  311MOL0     H41008   6.649   4.115  -0.732 -0.6416  0.3716 -0.8900
  311MOL0     H41009   6.675   4.007  -0.595  2.8906 -0.5261  0.3330
  311MOL0     H41010   6.598   3.898  -0.873 -0.8298 -2.1259 -0.3808
  311MOL0     H41011   6.609   3.807  -0.726  1.4866  2.1457  2.2323
  311MOL0     H41012   6.402   4.005  -0.808  0.8129 -0.2725 -0.7495
  311MOL0     H41013   6.447   4.002  -0.632  1.2955 -2.0388  0.6213
  311MOL0     H41014   6.180   4.023  -0.808  0.0716 -2.0896 -2.5016
  311MOL0     H41015   5.935   4.023  -0.754 -1.7464  0.2654  2.4366
  311MOL0     H41016   5.595   4.124  -0.777 -1.3643  0.1023 -1.3059
  311MOL0     H41017   5.359   4.148  -0.791 -2.5075 -0.6277  1.3974
  311MOL0     H41018   5.028   3.864  -0.743 -4.3279  0.5158 -0.1325
  311MOL0     H41019   5.112   3.884  -0.889  0.6123  0.0195  1.3241
  311MOL0     H41020   4.882   3.984  -0.911 -1.1695  0.5343  4.4153
  311MOL0     H41021   4.993   4.114  -0.927  1.1618  1.9046  1.2111
  311MOL0     H41022   4.964   4.140  -0.670 -0.5026  0.8478 -0.2197
  311MOL0     H41023   4.857   3.996  -0.675 -0.6702  2.0322  1.8950
  311MOL0     H41024   4.821   4.250  -0.826 -0.3280 -1.8133 -3.3762
  311MOL0     H41025   4.693   4.132  -0.806 -0.2496 -1.2658 -0.8685
  311MOL0     H41026   4.826   4.290  -0.577  1.0767 -2.0371  2.3508
  311MOL0     H41027   4.705   4.165  -0.559 -1.3839 -0.5171 -0.9870
  311MOL0     H41028   4.535   4.278  -0.664 -0.9897  0.8808  1.2360
  311MOL0     H41029   4.624   4.416  -0.726 -1.6539  0.1140 -0.4427
  311MOL0     H41030   4.553   4.357  -0.443 -2.3662  1.8975  0.2888
  311MOL0     H41031   4.679   4.462  -0.461 -0.9941  1.8386 -0.2009
  311MOL0     H41032   4.467   4.589  -0.443 -1.7108 -2.0254  0.4074
  311MOL0     H41033   4.399   4.497  -0.573 -0.1058  1.5551 -0.4068
  311MOL0     H41034   5.262   3.766  -0.692  0.5034 -1.0605 -0.1694
  311MOL0     H41035   5.518   3.706  -0.672  1.0976  0.9502  0.2338
  311MOL0     H41036   5.971   3.631  -0.583 -0.2333  0.2831  1.1565
  311MOL0     H41037   6.227   3.652  -0.615  0.4786  1.3954  0.1291
  311MOL0     H41038   7.800   3.979   0.448 -0.5047 -1.2556 -0.4125
  311MOL0     H41039   8.044   4.033   0.418  1.9767 -1.0299  0.0458
  311MOL0     H41040   8.363   4.188   0.250  0.4164  0.9462 -1.6220
  311MOL0     H41041   8.594   4.266   0.254  4.2136 -1.6164  1.2241
  311MOL0     H41042   8.849   4.245  -0.037  2.4293  1.5075 -0.1969
  311MOL0     H41043   8.896   4.077  -0.017  0.2859  0.0969 -0.5330
  311MOL0     H41044   8.985   4.262   0.191  4.0726  0.9455  1.8943
  311MOL0     H41045   9.047   4.105   0.159 -2.4876  0.6841  2.5835
  311MOL0     H41046   9.215   4.189   0.050 -0.3455 -0.3006 -1.9419
  311MOL0     H41047   9.153   4.348   0.045 -0.7138  0.9867 -1.2902
  311MOL0     H41048   9.060   4.129  -0.160 -0.6575  0.8952 -1.6528
  311MOL0     H41049   9.057   4.298  -0.199 -1.0476 -2.5089 -2.7251
  311MOL0     H41050   9.449   4.210  -0.292  0.5349 -3.8710  0.3421
  311MOL0     H41051   8.693   3.946  -0.026 -0.4458 -0.6865  0.0784
  311MOL0     H41052   8.470   3.905  -0.048  1.7116  0.1843 -0.6614
  312MOL0     O41053  10.189  10.786  11.055 -0.1499 -0.0318 -0.5514
  312MOL0     C41054  10.214  10.727  11.160 -0.0077 -0.4986  0.7463
  312MOL0     O41055  10.147  10.737  11.279 -0.4869  0.1935  1.0048
  312MOL0     C41056  10.021  10.788  11.282  1.0156  0.2351  0.6090
  312MOL0     C41057   9.922  10.791  11.182  0.5099 -0.1248  0.0530
  312MOL0     C41058   9.802  10.856  11.198  0.1791 -1.0775 -0.1276
  312MOL0     C41059   9.773  10.920  11.322  0.1119 -0.2127 -0.9326
  312MOL0     O41060   9.655  10.979  11.348 -0.2582  0.1443 -0.0753
  312MOL0     C41061   9.566  11.012  11.239  0.1558  0.2640 -0.5301
  312MOL0     C41062   9.439  11.068  11.303 -0.1791 -0.0420  1.5499
  312MOL0     C41063   9.333  11.071  11.192  0.3258 -0.6594  0.1779
  312MOL0     C41064   9.194  11.073  11.242  0.4046  0.5441  0.2353
  312MOL0     C41065   9.088  11.090  11.133 -0.8474 -0.0750  0.1123
  312MOL0     C41066   8.963  11.040  11.188  0.5741 -0.1970 -0.7278
  312MOL0     C41067   8.848  11.055  11.089  0.4166  0.0355 -0.6085
  312MOL0     C41068   8.707  11.073  11.156 -0.2634 -0.4280  0.0308
  312MOL0     N41069   8.675  10.984  11.269 -0.0487 -0.0673  0.3076
  312MOL0     C41070   8.682  11.025  11.404  0.1539  0.9163  0.4934
  312MOL0     C41071   8.610  10.941  11.471  0.6431  0.3827 -0.1165
  312MOL0     C41072   8.571  10.950  11.611  0.2525  0.0742  0.1494
  312MOL0     C41073   8.444  11.038  11.645  0.6145 -0.2533 -0.0581
  312MOL0     C41074   8.424  11.043  11.797 -0.4171  0.6938 -0.3582
  312MOL0     C41075   8.293  11.122  11.830  0.4742 -0.0095  0.5900
  312MOL0     O41076   8.251  11.125  11.971  0.0199  0.1368 -0.5373
  312MOL0     C41077   8.326  11.172  12.077 -0.9144  0.5913  0.9224
  312MOL0     C41078   8.443  11.244  12.041 -0.2155 -0.0623 -0.1577
  312MOL0     C41079   8.522  11.289  12.148 -0.7403 -0.7017 -0.2540
  312MOL0     C41080   8.485  11.262  12.277 -1.0669 -0.8254 -0.8422
  312MOL0     C41081   8.564  11.341  12.383  0.3820  0.0466 -0.2638
  312MOL0     O41082   8.695  11.337  12.379  0.0269 -0.0323  0.3173
  312MOL0     C41083   8.776  11.397  12.467  0.2408  0.5849 -0.5916
  312MOL0     C41084   8.804  11.536  12.449 -0.0732 -0.6987 -0.0382
  312MOL0     C41085   8.894  11.608  12.526  0.6636  0.0499 -0.1393
  312MOL0     C41086   8.960  11.540  12.629 -0.6943  0.6036 -0.8175
  312MOL0     O41087   9.060  11.616  12.690  0.6003  0.0972 -0.3332
  312MOL0     C41088   9.112  11.576  12.821 -0.5123  0.5097  0.0973
  312MOL0     C41089   9.021  11.592  12.942  0.2395 -0.6411  0.1111
  312MOL0     C41090   8.908  11.485  12.965 -0.2600 -0.4086  0.5250
  312MOL0     C41091   8.837  11.515  13.092 -0.8299 -1.0741 -0.5495
  312MOL0     C41092   8.735  11.401  13.112 -0.0368 -0.0107 -0.7397
  312MOL0     C41093   8.639  11.439  13.231 -0.4552  0.7923 -0.9245
  312MOL0     C41094   8.566  11.312  13.279 -0.7735 -0.3391 -1.0932
  312MOL0     C41095   8.442  11.343  13.384 -0.9208  0.4367  0.0731
  312MOL0    Cl41096   8.381  11.190  13.477  0.0207  0.2164  0.0358
  312MOL0     C41097   8.941  11.399  12.649  0.3802 -0.7980  0.1132
  312MOL0     C41098   8.848  11.330  12.568 -0.0743  0.3698 -0.6979
  312MOL0     O41099   8.490  11.388  12.473  0.7501 -0.5752  0.4676
  312MOL0     C41100   8.368  11.188  12.312 -0.8852  0.1012  0.6463
  312MOL0     C41101   8.292  11.132  12.203 -0.1817 -0.2005 -0.1822
  312MOL0     N41102   8.565  10.845  11.382 -0.8029 -0.3750  0.0240
  312MOL0     N41103   8.612  10.862  11.266  0.0026 -0.4193  0.1794
  312MOL0     C41104   9.866  10.915  11.424  0.0538 -0.0388  1.3439
  312MOL0     C41105   9.986  10.848  11.406 -0.1244 -0.2625  0.8102
  312MOL0     C41106  10.333  10.651  11.162  0.7505 -0.8372  0.0724
  312MOL0     C41107  10.446  10.682  11.078  0.9394  0.7492 -0.4277
  312MOL0     C41108  10.561  10.604  11.092 -1.0904  0.2966 -0.6674
  312MOL0     C41109  10.564  10.487  11.173 -0.1743  0.3065 -1.5385
  312MOL0     O41110  10.681  10.412  11.162  0.3936 -0.6475  0.0423
  312MOL0     C41111  10.732  10.342  11.276  0.4133  0.1101 -0.6195
  312MOL0     C41112  10.876  10.403  11.277 -0.5106 -0.5498 -0.8703
  312MOL0     C41113  10.974  10.398  11.156 -0.2013 -0.3027  0.9537
  312MOL0     C41114  11.115  10.448  11.184 -0.0850 -0.9165  0.0186
  312MOL0     C41115  11.177  10.497  11.059  0.7850  0.0171 -0.3815
  312MOL0     C41116  11.237  10.521  10.956 -0.1677  0.1692 -0.2355
  312MOL0     C41117  10.453  10.444  11.240  0.3947 -0.5441 -0.4847
  312MOL0     C41118  10.342  10.534  11.240  0.3647 -0.5236 -1.2791
  312MOL0     H41119   9.935  10.751  11.082 -0.2165 -1.9012  0.6237
  312MOL0     H41120   9.739  10.853  11.110  0.2663  3.8673 -0.6311
  312MOL0     H41121   9.543  10.922  11.181 -0.0737 -0.8027  1.1336
  312MOL0     H41122   9.613  11.093  11.183  0.0100  2.5607  2.4404
  312MOL0     H41123   9.456  11.158  11.364  0.6191 -0.2187  1.6042
  312MOL0     H41124   9.414  10.989  11.375  0.7470 -1.2874  0.5356
  312MOL0     H41125   9.352  10.984  11.129  0.5119 -0.0599 -0.6167
  312MOL0     H41126   9.348  11.157  11.127  0.2217  1.8478  3.1975
  312MOL0     H41127   9.182  10.973  11.283  1.5836  0.1516 -0.3279
  312MOL0     H41128   9.177  11.143  11.325  0.2760  0.7091  0.0719
  312MOL0     H41129   9.111  11.029  11.046 -5.1057  0.0181 -1.2910
  312MOL0     H41130   9.087  11.197  11.110 -2.8056 -0.3797 -1.5156
  312MOL0     H41131   8.945  11.111  11.270  1.3388  0.8770 -1.4593
  312MOL0     H41132   8.963  10.934  11.216 -3.3381 -0.1949 -0.1305
  312MOL0     H41133   8.871  11.136  11.018  0.9514 -3.0346 -4.2801
  312MOL0     H41134   8.822  10.967  11.029 -2.0516  0.5336 -0.3919
  312MOL0     H41135   8.627  11.073  11.081 -0.4483  2.5349  0.1208
  312MOL0     H41136   8.707  11.176  11.191 -3.6929 -0.3803  0.2504
  312MOL0     H41137   8.732  11.115  11.438 -0.0413  0.6399  1.5640
  312MOL0     H41138   8.644  11.009  11.668 -0.8385  0.6478  0.9933
  312MOL0     H41139   8.556  10.851  11.656 -0.3300 -0.0175 -0.2449
  312MOL0     H41140   8.350  11.014  11.595 -0.7956  0.0836  2.2956
  312MOL0     H41141   8.474  11.136  11.609  1.1804  1.0455  3.4942
  312MOL0     H41142   8.401  10.945  11.839  1.4182  1.2237  2.1036
  312MOL0     H41143   8.511  11.083  11.849  0.0573  1.4742 -1.7114
  312MOL0     H41144   8.210  11.094  11.765  0.1637  3.1889 -0.5360
  312MOL0     H41145   8.317  11.225  11.804 -0.3866 -0.0465 -0.4045
  312MOL0     H41146   8.480  11.272  11.943  2.2737 -0.9631  0.4581
  312MOL0     H41147   8.621  11.331  12.130 -0.6316 -0.7735  0.1804
  312MOL0     H41148   8.763  11.596  12.368  0.1726 -0.6281 -0.1129
  312MOL0     H41149   8.916  11.710  12.494 -1.8380  0.1393 -1.8576
  312MOL0     H41150   9.205  11.633  12.831  0.9868 -1.9146  1.1473
  312MOL0     H41151   9.151  11.474  12.808 -0.5922  0.3945  0.7187
  312MOL0     H41152   8.974  11.691  12.938  0.5098 -0.4154  1.7070
  312MOL0     H41153   9.089  11.605  13.027 -1.6220 -1.8137  1.8803
  312MOL0     H41154   8.948  11.384  12.953  0.6981  0.3121 -5.0905
  312MOL0     H41155   8.837  11.506  12.884 -0.8777 -0.2484  1.1076
  312MOL0     H41156   8.905  11.525  13.177  1.3304  1.4828 -2.4030
  312MOL0     H41157   8.788  11.613  13.087 -0.9894 -1.0720  0.7367
  312MOL0     H41158   8.811  11.331  13.146  0.1483 -1.0643 -3.1126
  312MOL0     H41159   8.685  11.370  13.020 -1.6113  0.1737  0.0226
  312MOL0     H41160   8.565  11.511  13.196  0.2892  1.1655 -1.7796
  312MOL0     H41161   8.696  11.473  13.318 -0.3947 -1.5291  0.0359
  312MOL0     H41162   8.537  11.254  13.191  0.0110  1.1102 -2.3450
  312MOL0     H41163   8.648  11.260  13.330 -2.1095 -0.2439  1.2955
  312MOL0     H41164   8.357  11.384  13.328 -2.4838 -2.0813  0.4504
  312MOL0     H41165   8.474  11.413  13.462 -0.4699 -0.8115  1.0446
  312MOL0     H41166   9.000  11.339  12.718  0.2593  0.2446  1.1483
  312MOL0     H41167   8.821  11.226  12.584  0.3036  0.6689  2.4677
  312MOL0     H41168   8.349  11.182  12.418  4.0464  1.6109  1.8806
  312MOL0     H41169   8.195  11.088  12.222  0.5212 -0.2336  4.1303
  312MOL0     H41170   9.847  10.958  11.522 -1.6398  0.1167  0.9839
  312MOL0     H41171  10.054  10.837  11.489 -0.6576  0.8093  1.4081
  312MOL0     H41172  10.439  10.769  11.014 -2.4028 -1.0180 -2.7253
  312MOL0     H41173  10.651  10.638  11.042 -0.7501 -0.3420 -0.5072
  312MOL0     H41174  10.740  10.237  11.247 -0.4522  1.0423 -4.8164
  312MOL0     H41175  10.681  10.361  11.371  1.4859 -1.7845  0.3971
  312MOL0     H41176  10.857  10.509  11.300  0.8295 -0.3021 -0.8279
  312MOL0     H41177  10.932  10.363  11.363  1.2121  0.5247 -1.4261
  312MOL0     H41178  10.934  10.446  11.067 -0.1004 -0.3921  0.8592
  312MOL0     H41179  11.000  10.294  11.131  3.3516  0.4769  0.8928
  312MOL0     H41180  11.111  10.521  11.265  0.0960 -1.2828  0.3622
  312MOL0     H41181  11.183  10.367  11.213  1.3139 -1.2998 -3.7741
  312MOL0     H41182  11.301  10.558  10.878 -0.9782 -2.6144 -2.3678
  312MOL0     H41183  10.439  10.352  11.297 -3.3742 -1.9794 -3.3333
  312MOL0     H41184  10.260  10.501  11.303 -1.1043 -0.0149 -2.8169
  313MOL0     O41185   1.746   7.667   8.897 -0.1337  0.7705 -0.4508
  313MOL0     C41186   1.698   7.627   8.795 -0.4731  0.4044  0.5158
  313MOL0     O41187   1.678   7.498   8.770 -0.1089 -0.3107  0.1589
  313MOL0     C41188   1.731   7.404   8.844  0.1155  0.9155  0.6371
  313MOL0     C41189   1.669   7.376   8.968 -0.4784  0.1994 -0.0217
  313MOL0     C41190   1.699   7.273   9.051 -0.1709 -0.2345 -0.5295
  313MOL0     C41191   1.809   7.194   9.016  0.3004  0.1707 -0.6163
  313MOL0     O41192   1.815   7.078   9.089 -0.4034 -0.6668  0.3809
  313MOL0     C41193   1.944   7.020   9.094  0.1469  0.5346  0.1362
  313MOL0     C41194   1.927   6.885   9.039 -0.1388 -0.3501  0.1088
  313MOL0     C41195   2.056   6.819   9.003  0.3809 -0.0982 -0.3289
  313MOL0     C41196   2.030   6.677   8.945  0.5287  0.0181 -0.7840
  313MOL0     C41197   2.135   6.626   8.833 -0.3363  0.6334  0.7204
  313MOL0     C41198   2.265   6.589   8.905  0.2958  0.0753  0.5587
  313MOL0     C41199   2.238   6.488   9.011  0.6431  0.6961 -1.5425
  313MOL0     C41200   2.366   6.409   9.038 -0.3623 -1.1874  0.1599
  313MOL0     N41201   2.331   6.269   9.079  0.1022  0.4175  0.3455
  313MOL0     C41202   2.252   6.227   9.174  0.4645  0.0697 -0.1494
  313MOL0     C41203   2.230   6.096   9.170  0.5895  0.3744  0.0578
  313MOL0     C41204   2.136   6.010   9.255  0.5177 -0.0217 -0.1639
  313MOL0     C41205   2.156   5.855   9.230  0.4521 -0.2075  0.3255
  313MOL0     C41206   2.257   5.790   9.318 -0.2938 -0.0661  0.1388
  313MOL0     C41207   2.394   5.851   9.302  0.4129  0.1461  0.2117
  313MOL0     O41208   2.481   5.788   9.391  0.3451 -0.1111 -0.8052
  313MOL0     C41209   2.609   5.765   9.355  0.0503  0.6656 -0.5569
  313MOL0     C41210   2.650   5.681   9.258  0.2036  0.8452  0.8810
  313MOL0     C41211   2.781   5.657   9.236  0.3754 -0.6267 -0.0341
  313MOL0     C41212   2.878   5.707   9.319 -0.5057 -0.6136 -0.2335
  313MOL0     C41213   3.011   5.662   9.310 -1.0027 -0.1834  0.0696
  313MOL0     O41214   3.033   5.567   9.201 -0.1944 -0.1553 -0.3260
  313MOL0     C41215   3.156   5.527   9.181 -0.3372  0.6327 -0.0421
  313MOL0     C41216   3.249   5.623   9.134  0.5165 -0.2888  0.4926
  313MOL0     C41217   3.387   5.594   9.111  0.9167  0.4092 -0.2493
  313MOL0     C41218   3.429   5.464   9.130  0.7163  0.6110  0.1095
  313MOL0     O41219   3.560   5.429   9.098  0.1523 -1.4576 -0.9370
  313MOL0     C41220   3.628   5.380   9.220 -0.3811  0.2780 -0.5207
  313MOL0     C41221   3.781   5.412   9.196 -0.0982  0.5461  0.1646
  313MOL0     C41222   3.875   5.396   9.316  0.2603  0.4010  0.6846
  313MOL0     C41223   4.018   5.407   9.277  0.5943 -1.0729  0.0707
  313MOL0     C41224   4.078   5.265   9.236  0.4577 -0.3832  0.0985
  313MOL0     C41225   4.214   5.271   9.168 -0.2559  0.4344  0.1210
  313MOL0     C41226   4.305   5.355   9.264  0.3220 -0.5412  0.6123
  313MOL0     C41227   4.321   5.291   9.396  0.0567  0.3061  0.6177
  313MOL0    Cl41228   4.483   5.354   9.449 -0.1025 -0.3863  0.2813
  313MOL0     C41229   3.337   5.372   9.182 -0.1567 -0.0575 -0.5677
  313MOL0     C41230   3.200   5.392   9.211 -0.0932  0.4017  0.4620
  313MOL0     O41231   3.090   5.687   9.403 -0.4060 -0.1317  0.2037
  313MOL0     C41232   2.841   5.798   9.421  0.3834  0.3278 -0.1739
  313MOL0     C41233   2.705   5.824   9.440 -0.2491 -0.1868 -1.0857
  313MOL0     N41234   2.314   6.058   9.055  0.6895  0.7480 -0.1764
  313MOL0     N41235   2.367   6.161   9.003 -0.9693 -0.1211  0.0349
  313MOL0     C41236   1.877   7.219   8.892 -0.4008  0.2975  0.6118
  313MOL0     C41237   1.838   7.315   8.807  0.5407  0.2435  0.1234
  313MOL0     C41238   1.653   7.721   8.695 -0.4026  0.0942  0.0290
  313MOL0     C41239   1.575   7.677   8.584  0.7340  0.4076 -0.6808
  313MOL0     C41240   1.525   7.765   8.490 -0.3993  0.1330  0.1837
  313MOL0     C41241   1.550   7.898   8.501 -0.4886 -0.8706 -0.0114
  313MOL0     O41242   1.492   7.977   8.401  0.0220 -0.0477 -0.6039
  313MOL0     C41243   1.462   8.119   8.423  0.1653  0.4132  0.3293
  313MOL0     C41244   1.578   8.197   8.378  0.4126 -0.7921  0.4632
  313MOL0     C41245   1.625   8.152   8.244 -0.6717 -0.2925  0.2597
  313MOL0     C41246   1.738   8.242   8.184 -0.0893 -0.1473 -1.0053
  313MOL0     C41247   1.699   8.385   8.178  0.8406 -0.1739 -0.4362
  313MOL0     C41248   1.670   8.507   8.190 -0.0450 -0.7816 -0.2183
  313MOL0     C41249   1.628   7.946   8.612 -0.3635  0.3302 -0.4734
  313MOL0     C41250   1.675   7.856   8.712  1.1401 -0.0658  0.6394
  313MOL0     H41251   1.597   7.448   9.005 -0.4899 -0.5151  1.3843
  313MOL0     H41252   1.636   7.244   9.134  0.0531  0.9179  0.0674
  313MOL0     H41253   1.979   7.025   9.198  2.5493  0.0322 -0.5866
  313MOL0     H41254   2.018   7.071   9.032 -1.3441  1.2445 -1.1287
  313MOL0     H41255   1.854   6.881   8.957  2.2525 -2.3294 -2.0997
  313MOL0     H41256   1.867   6.834   9.115 -3.4062  2.4319 -0.3531
  313MOL0     H41257   2.119   6.821   9.092  1.5424  2.0216 -1.1343
  313MOL0     H41258   2.102   6.884   8.928  0.4698 -2.0520 -2.0586
  313MOL0     H41259   2.016   6.601   9.023 -0.3336  0.1450 -0.8027
  313MOL0     H41260   1.928   6.682   8.906 -0.0462  4.0200  0.7647
  313MOL0     H41261   2.150   6.698   8.752  0.4011  1.3788  1.4890
  313MOL0     H41262   2.095   6.545   8.772  0.4914  1.9664 -1.7156
  313MOL0     H41263   2.305   6.679   8.951 -1.7302  0.3906  1.8592
  313MOL0     H41264   2.335   6.538   8.838  1.1784  0.5419  1.1119
  313MOL0     H41265   2.214   6.528   9.110  2.5255 -2.4346  0.3600
  313MOL0     H41266   2.149   6.428   8.988 -0.0023 -0.1302  2.3852
  313MOL0     H41267   2.432   6.465   9.104  0.2359  0.6188 -1.8466
  313MOL0     H41268   2.419   6.395   8.943 -1.1434 -3.2912 -0.0154
  313MOL0     H41269   2.197   6.291   9.242  1.5285  1.1060 -0.2262
  313MOL0     H41270   2.032   6.027   9.228  1.2141  0.2480 -2.9649
  313MOL0     H41271   2.159   6.039   9.358 -0.3786  1.6069 -0.3848
  313MOL0     H41272   2.193   5.842   9.128  2.2871 -3.1934  1.2212
  313MOL0     H41273   2.058   5.808   9.244  0.9777 -1.1635  0.9401
  313MOL0     H41274   2.222   5.782   9.421  0.7564  1.9808  0.6967
  313MOL0     H41275   2.263   5.694   9.264  1.9103  2.1301 -3.9939
  313MOL0     H41276   2.392   5.959   9.315 -0.1294 -0.1053  2.9130
  313MOL0     H41277   2.422   5.826   9.199  2.6481 -2.6217  1.3391
  313MOL0     H41278   2.571   5.638   9.197  1.2223 -0.5058  0.4646
  313MOL0     H41279   2.809   5.578   9.167  1.7985  0.1327 -0.3715
  313MOL0     H41280   3.215   5.725   9.124 -0.1769 -0.2507  2.7642
  313MOL0     H41281   3.464   5.664   9.079  1.9052 -1.5412 -2.3852
  313MOL0     H41282   3.599   5.277   9.244  0.4368 -0.2109 -1.5901
  313MOL0     H41283   3.607   5.451   9.301  0.6297 -1.4936  1.3793
  313MOL0     H41284   3.782   5.513   9.153  0.4217  0.4182 -0.1417
  313MOL0     H41285   3.812   5.330   9.129  0.1054 -1.0505  2.1151
  313MOL0     H41286   3.849   5.297   9.354 -3.0975  0.5315 -0.8611
  313MOL0     H41287   3.855   5.472   9.392  4.2664  0.4428  1.9391
  313MOL0     H41288   4.034   5.483   9.200 -0.4989 -2.3456 -1.4857
  313MOL0     H41289   4.084   5.444   9.356  1.3395  1.3897 -1.5995
  313MOL0     H41290   4.019   5.239   9.148 -1.8114 -0.6200  1.6060
  313MOL0     H41291   4.065   5.189   9.314  0.6042 -1.1613 -0.6236
  313MOL0     H41292   4.220   5.312   9.066 -0.8809 -2.2718 -1.1164
  313MOL0     H41293   4.244   5.165   9.167 -0.8525  0.2399  1.3861
  313MOL0     H41294   4.405   5.370   9.221 -0.1460 -1.1275 -0.7280
  313MOL0     H41295   4.270   5.458   9.276  1.5826  0.0211 -0.2382
  313MOL0     H41296   4.322   5.182   9.408  0.7763 -0.3760 -3.8959
  313MOL0     H41297   4.241   5.331   9.458 -0.9652  1.1046 -1.1351
  313MOL0     H41298   3.376   5.271   9.192  1.0638  0.5435  1.5641
  313MOL0     H41299   3.128   5.325   9.257 -0.9112 -0.0078 -1.3255
  313MOL0     H41300   2.910   5.841   9.493  0.5214 -0.6658  0.3091
  313MOL0     H41301   2.667   5.888   9.519  1.3449  0.4167 -0.7686
  313MOL0     H41302   1.946   7.149   8.847 -0.2551 -0.0692  1.3850
  313MOL0     H41303   1.885   7.328   8.709  3.4010 -4.1801  0.6043
  313MOL0     H41304   1.545   7.573   8.573  1.9851  0.0819 -1.1694
  313MOL0     H41305   1.484   7.725   8.398 -0.4787  0.0918  0.2366
  313MOL0     H41306   1.453   8.139   8.530 -1.3069  0.6901  0.1745
  313MOL0     H41307   1.367   8.129   8.369  0.5032 -4.4961 -1.7825
  313MOL0     H41308   1.544   8.301   8.386 -1.0952 -1.2775  0.6501
  313MOL0     H41309   1.668   8.191   8.441 -0.5611  3.8893  2.7600
  313MOL0     H41310   1.544   8.159   8.171  0.4087  2.1770 -0.8271
  313MOL0     H41311   1.677   8.056   8.243  0.2853  0.1915  1.2511
  313MOL0     H41312   1.841   8.238   8.221  0.2414  3.3493 -1.1310
  313MOL0     H41313   1.743   8.205   8.081  4.7606  0.8199 -1.3323
  313MOL0     H41314   1.645   8.611   8.198 -4.3089 -1.6486  0.1748
  313MOL0     H41315   1.650   8.052   8.625  0.7560  0.3100 -2.0168
  313MOL0     H41316   1.722   7.902   8.798  1.3805 -0.1633  0.5588
  314MOL0     O41317   5.632   1.840  10.658  0.0546  0.2379 -0.0858
  314MOL0     C41318   5.635   1.950  10.708 -0.7514  0.7616 -0.4087
  314MOL0     O41319   5.539   2.002  10.792  0.5238 -0.2632 -0.1800
  314MOL0     C41320   5.410   1.958  10.790  0.2810  0.4694 -0.3468
  314MOL0     C41321   5.346   1.879  10.684 -0.2141  0.0932 -0.3077
  314MOL0     C41322   5.219   1.834  10.706 -0.0557 -0.3958  0.8794
  314MOL0     C41323   5.148   1.854  10.825 -0.1792  0.0394 -0.1021
  314MOL0     O41324   5.027   1.792  10.814  0.2869 -0.7637  0.1107
  314MOL0     C41325   4.913   1.867  10.864  0.6051  0.4753  0.2227
  314MOL0     C41326   4.791   1.824  10.775  0.3033  0.1123  0.8064
  314MOL0     C41327   4.682   1.930  10.784 -0.1196 -0.6038 -0.3359
  314MOL0     C41328   4.611   1.906  10.922  0.4900 -0.1897 -0.5390
  314MOL0     C41329   4.493   1.992  10.952  0.3303  0.1768 -0.0019
  314MOL0     C41330   4.360   1.916  10.927  0.3651  0.0183 -0.5808
  314MOL0     C41331   4.244   2.017  10.916 -0.3447 -0.2500 -0.4889
  314MOL0     C41332   4.179   2.055  11.057 -0.6019  0.5372  0.3070
  314MOL0     N41333   4.270   2.095  11.160  0.5846 -0.1474  1.0768
  314MOL0     C41334   4.330   2.213  11.148 -0.1052 -0.5202 -0.8084
  314MOL0     C41335   4.428   2.209  11.252  1.1148  0.0717 -0.0515
  314MOL0     C41336   4.542   2.305  11.295 -0.4477 -0.5203 -0.7297
  314MOL0     C41337   4.492   2.432  11.371 -0.0801  0.2722  0.0775
  314MOL0     C41338   4.442   2.391  11.512 -0.1669  0.0774 -0.8425
  314MOL0     C41339   4.384   2.504  11.599 -0.5708  1.1698 -0.0429
  314MOL0     O41340   4.315   2.437  11.711 -0.1130  0.0555  0.1923
  314MOL0     C41341   4.205   2.497  11.773  0.4443  0.0233 -0.3948
  314MOL0     C41342   4.139   2.417  11.863 -0.0846 -0.2956 -0.4883
  314MOL0     C41343   4.028   2.466  11.935 -0.7501  0.3667 -0.9753
  314MOL0     C41344   3.972   2.594  11.911  0.1795  0.0996  0.1882
  314MOL0     C41345   3.861   2.653  11.985  0.4704  0.3121 -0.5446
  314MOL0     O41346   3.820   2.573  12.087 -0.1813  0.4661  0.1573
  314MOL0     C41347   3.709   2.597  12.165  0.2520 -0.6378 -0.5036
  314MOL0     C41348   3.637   2.718  12.181 -0.1348  0.1772  0.2143
  314MOL0     C41349   3.536   2.736  12.285 -0.4654  0.2447  0.3617
  314MOL0     C41350   3.505   2.624  12.363 -0.0613  0.4065 -0.0012
  314MOL0     O41351   3.417   2.631  12.463  0.0656  0.7370 -0.6561
  314MOL0     C41352   3.310   2.727  12.440  0.0628 -0.2790  0.1133
  314MOL0     C41353   3.179   2.699  12.514  0.0214  0.1540  0.9557
  314MOL0     C41354   3.184   2.645  12.664 -0.1666 -0.3579 -0.1048
  314MOL0     C41355   3.267   2.728  12.759 -0.0650 -0.1534  0.5573
  314MOL0     C41356   3.307   2.679  12.894 -0.5130  0.9633 -0.3462
  314MOL0     C41357   3.422   2.748  12.964  0.1859 -0.2657  0.3540
  314MOL0     C41358   3.404   2.892  13.001  0.4828 -0.2442  0.1221
  314MOL0     C41359   3.498   2.945  13.110 -1.0116  0.4128 -0.5885
  314MOL0    Cl41360   3.670   2.907  13.076  0.0085  0.0551 -0.2476
  314MOL0     C41361   3.576   2.501  12.351  0.2618 -0.4837 -0.5343
  314MOL0     C41362   3.672   2.497  12.250 -0.6011  0.4988  0.4276
  314MOL0     O41363   3.791   2.734  11.932 -0.3048 -0.3883 -0.0848
  314MOL0     C41364   4.025   2.670  11.812  0.5108  0.2997  0.5775
  314MOL0     C41365   4.146   2.625  11.737 -0.0472 -0.9677  1.1093
  314MOL0     N41366   4.417   2.088  11.314  0.6717 -0.0037 -0.0359
  314MOL0     N41367   4.313   2.023  11.265 -0.3381  0.2024  0.2836
  314MOL0     C41368   5.210   1.933  10.924 -0.3564  0.8924  0.8500
  314MOL0     C41369   5.334   1.989  10.901  0.5879 -0.3846  0.7491
  314MOL0     C41370   5.764   2.023  10.697  0.3728  0.0092  0.3399
  314MOL0     C41371   5.880   1.953  10.673 -0.0952  0.2688 -0.1201
  314MOL0     C41372   6.002   2.022  10.673  0.3560 -0.0465 -0.3619
  314MOL0     C41373   6.004   2.168  10.692  0.1500  0.4350 -0.5268
  314MOL0     O41374   6.119   2.238  10.702  0.6347 -0.5954 -0.0219
  314MOL0     C41375   6.177   2.253  10.579  0.0658  0.3376 -0.1044
  314MOL0     C41376   6.299   2.349  10.567 -0.3850 -1.0366  0.3002
  314MOL0     C41377   6.276   2.487  10.511  1.4893  0.4106 -0.0515
  314MOL0     C41378   6.157   2.562  10.586  0.1524  0.8243  0.1420
  314MOL0     C41379   6.106   2.657  10.496  0.5540 -0.4204  0.1092
  314MOL0     C41380   6.080   2.749  10.424  0.0737 -0.7372 -0.7528
  314MOL0     C41381   5.884   2.243  10.714  0.4884  0.3287  0.2234
  314MOL0     C41382   5.767   2.162  10.713 -0.2156  0.6572  0.8342
  314MOL0     H41383   5.388   1.855  10.587  0.2931  2.9106 -0.8620
  314MOL0     H41384   5.170   1.779  10.626  0.4028  0.3799  0.0437
  314MOL0     H41385   4.928   1.975  10.856  3.5732  0.0570 -1.2332
  314MOL0     H41386   4.898   1.825  10.964  1.2770 -0.9478 -0.2596
  314MOL0     H41387   4.767   1.720  10.798 -0.4922 -0.2808 -1.5348
  314MOL0     H41388   4.826   1.837  10.672  0.5838  0.9541  1.0036
  314MOL0     H41389   4.612   1.903  10.705 -0.1968  0.0618 -0.5044
  314MOL0     H41390   4.721   2.032  10.773 -0.7328 -0.4084 -0.7295
  314MOL0     H41391   4.568   1.805  10.915  1.9628 -0.7689 -1.7203
  314MOL0     H41392   4.680   1.925  11.005  0.1185  2.8584 -0.8232
  314MOL0     H41393   4.494   2.080  10.887  0.4000  0.5062  0.4462
  314MOL0     H41394   4.509   2.024  11.055 -1.2036  2.8049 -0.4867
  314MOL0     H41395   4.341   1.834  10.996 -3.4832  2.5861  1.8400
  314MOL0     H41396   4.368   1.882  10.824 -1.1047 -2.1574 -0.0329
  314MOL0     H41397   4.280   2.108  10.868 -0.6703  1.0743  1.6213
  314MOL0     H41398   4.177   1.972  10.842 -0.1488  2.3815 -2.3933
  314MOL0     H41399   4.131   1.965  11.095  1.1526 -0.0999  1.1550
  314MOL0     H41400   4.104   2.131  11.033  0.5282  1.5388 -0.1425
  314MOL0     H41401   4.303   2.293  11.080 -0.7982  1.9366  2.0973
  314MOL0     H41402   4.586   2.326  11.198 -2.5827 -2.1495 -2.1650
  314MOL0     H41403   4.623   2.258  11.351  0.9760 -0.0184 -2.3069
  314MOL0     H41404   4.417   2.473  11.302 -0.1071 -0.7493 -0.5181
  314MOL0     H41405   4.582   2.492  11.356  1.7840 -2.7266 -1.8083
  314MOL0     H41406   4.376   2.304  11.511 -2.0889  1.4785 -2.7878
  314MOL0     H41407   4.533   2.367  11.568 -0.7018 -0.9979 -0.3972
  314MOL0     H41408   4.324   2.552  11.520  1.1489 -0.0630 -2.2167
  314MOL0     H41409   4.454   2.580  11.635  0.9150  0.3965 -1.1868
  314MOL0     H41410   4.173   2.315  11.871  4.4746  1.1632  2.0252
  314MOL0     H41411   3.976   2.406  12.010  0.2570  2.0855  1.2215
  314MOL0     H41412   3.664   2.800  12.115  1.8379 -1.5185 -1.1895
  314MOL0     H41413   3.494   2.836  12.290 -2.4134 -0.4232 -1.4419
  314MOL0     H41414   3.289   2.735  12.333 -0.8571 -1.5944  0.1627
  314MOL0     H41415   3.342   2.826  12.473 -3.4378  1.4026 -1.0851
  314MOL0     H41416   3.125   2.619  12.461 -0.0732 -0.1197  1.4603
  314MOL0     H41417   3.111   2.784  12.510  0.1223  0.2151  0.5017
  314MOL0     H41418   3.239   2.552  12.648 -0.9275 -1.0068  0.9337
  314MOL0     H41419   3.082   2.637  12.702 -0.5395  3.0504 -0.0597
  314MOL0     H41420   3.360   2.751  12.705  0.2801  5.1072  2.7743
  314MOL0     H41421   3.214   2.824  12.766 -0.8642 -0.4700 -0.8335
  314MOL0     H41422   3.319   2.570  12.898 -0.9075  0.9340  0.3494
  314MOL0     H41423   3.218   2.691  12.957 -0.7271 -0.8203 -0.2421
  314MOL0     H41424   3.501   2.739  12.889 -0.4182 -2.1230 -0.1098
  314MOL0     H41425   3.452   2.696  13.056  3.3736 -2.0700 -1.5185
  314MOL0     H41426   3.419   2.944  12.907 -0.1163  1.2447  0.8216
  314MOL0     H41427   3.305   2.910  13.043 -0.5410  0.8573 -2.5492
  314MOL0     H41428   3.473   2.919  13.213 -4.0541  0.5762 -1.1676
  314MOL0     H41429   3.497   3.054  13.102 -0.6105  0.6324  1.8114
  314MOL0     H41430   3.562   2.414  12.414  2.3929 -1.7319 -1.6816
  314MOL0     H41431   3.719   2.400  12.234 -1.0550  0.8183 -3.9081
  314MOL0     H41432   3.978   2.761  11.774  0.5381 -0.6237 -1.8421
  314MOL0     H41433   4.181   2.673  11.646 -0.8304 -4.9859 -1.6031
  314MOL0     H41434   5.155   1.946  11.017 -0.0053  0.8160  1.0717
  314MOL0     H41435   5.371   2.050  10.982 -2.2999  0.3106  1.6653
  314MOL0     H41436   5.889   1.847  10.651  0.5351  0.2720  0.1149
  314MOL0     H41437   6.094   1.965  10.668 -0.3587 -1.4313  1.4888
  314MOL0     H41438   6.101   2.293  10.511 -0.3131 -1.1243 -0.5826
  314MOL0     H41439   6.190   2.150  10.545 -1.1660  0.1694 -0.1335
  314MOL0     H41440   6.345   2.367  10.665  2.7414  1.3489 -1.4152
  314MOL0     H41441   6.377   2.304  10.505  1.9470  1.6205  1.0918
  314MOL0     H41442   6.233   2.464  10.413 -3.9981 -0.6729  2.2267
  314MOL0     H41443   6.371   2.542  10.506  2.6063 -1.5495 -1.4713
  314MOL0     H41444   6.072   2.497  10.606  2.1850 -2.4688 -1.1188
  314MOL0     H41445   6.193   2.602  10.681  2.4506  0.5430 -0.5301
  314MOL0     H41446   6.050   2.843  10.380  1.5533  0.8315  1.4004
  314MOL0     H41447   5.882   2.350  10.731 -1.9076  0.5924 -1.3466
  314MOL0     H41448   5.675   2.214  10.736  0.8464  2.6293  0.8621
  315MOL0     O41449   5.997   4.396   4.036  0.8856 -0.4103 -0.1960
  315MOL0     C41450   5.925   4.346   4.126  0.4972 -0.1213 -0.3053
  315MOL0     O41451   5.975   4.274   4.233  0.1283 -0.1818  0.3528
  315MOL0     C41452   6.099   4.304   4.279 -0.2597 -0.1654  0.1769
  315MOL0     C41453   6.175   4.193   4.304 -0.6503  0.8472 -0.2798
  315MOL0     C41454   6.307   4.211   4.347  0.0940  0.2828  0.6136
  315MOL0     C41455   6.368   4.335   4.368  0.3333 -0.2660 -0.0374
  315MOL0     O41456   6.490   4.335   4.429 -0.6471  1.0796  0.2322
  315MOL0     C41457   6.591   4.433   4.392 -0.3823  0.4715  0.7754
  315MOL0     C41458   6.612   4.526   4.508  0.4040 -0.6719  0.3739
  315MOL0     C41459   6.674   4.463   4.631 -0.8439  0.4586 -0.1783
  315MOL0     C41460   6.697   4.540   4.755 -0.2022 -0.4658  0.7128
  315MOL0     C41461   6.829   4.603   4.751  0.5030 -0.3316 -0.6199
  315MOL0     C41462   6.854   4.690   4.877 -0.1585  0.5433  0.1259
  315MOL0     C41463   6.833   4.843   4.864 -0.7766  0.5802  0.0809
  315MOL0     C41464   6.970   4.918   4.859 -0.2710  0.7131  0.0377
  315MOL0     N41465   6.953   5.062   4.875 -0.7157 -0.1371  0.0918
  315MOL0     C41466   6.848   5.148   4.848 -0.0977 -0.2483 -0.3321
  315MOL0     C41467   6.867   5.264   4.927 -0.1810  0.3845 -0.1382
  315MOL0     C41468   6.766   5.371   4.941 -0.5620 -0.5091 -0.3057
  315MOL0     C41469   6.768   5.447   5.079 -0.0504 -0.0138  0.2811
  315MOL0     C41470   6.657   5.549   5.118 -0.3878 -0.7548 -0.0131
  315MOL0     C41471   6.512   5.519   5.078 -0.5606 -0.8670  0.5679
  315MOL0     O41472   6.455   5.414   5.153 -0.5634  0.3110 -0.1366
  315MOL0     C41473   6.314   5.380   5.152 -0.3773  0.8957  0.4212
  315MOL0     C41474   6.282   5.249   5.189 -1.0363 -0.5484 -0.6173
  315MOL0     C41475   6.148   5.211   5.200 -0.5729  0.3877  0.1801
  315MOL0     C41476   6.040   5.294   5.151 -0.3118 -0.1386  0.5708
  315MOL0     C41477   5.914   5.239   5.124  0.0432  0.2540 -0.3990
  315MOL0     O41478   5.810   5.338   5.108 -0.2992 -0.3174  0.1146
  315MOL0     C41479   5.688   5.285   5.064 -0.1899  0.1974 -0.9510
  315MOL0     C41480   5.634   5.351   4.956  1.0546 -0.4490 -0.1171
  315MOL0     C41481   5.496   5.323   4.910 -0.1594  0.6401 -0.0218
  315MOL0     C41482   5.434   5.216   4.975 -0.9813 -0.3078  0.0526
  315MOL0     O41483   5.313   5.178   4.947  0.5788  0.3289 -0.6905
  315MOL0     C41484   5.224   5.282   4.895  0.5267  0.6035  0.3139
  315MOL0     C41485   5.082   5.221   4.903 -0.1842 -0.0845 -0.1062
  315MOL0     C41486   5.060   5.162   5.045  0.2504  0.1363 -0.2782
  315MOL0     C41487   4.920   5.198   5.095 -0.7974 -1.2895 -0.3940
  315MOL0     C41488   4.891   5.111   5.215 -1.0193 -0.8297  0.1925
  315MOL0     C41489   4.759   5.157   5.280 -1.6649 -0.5511 -0.3444
  315MOL0     C41490   4.708   5.062   5.387  0.4740 -0.2023  0.0636
  315MOL0     C41491   4.811   5.008   5.489  0.1676  0.4865  0.3830
  315MOL0    Cl41492   4.896   5.126   5.590  0.2449 -0.1504 -0.2176
  315MOL0     C41493   5.493   5.150   5.081 -0.5861 -0.1048  0.0252
  315MOL0     C41494   5.619   5.186   5.126  0.4158 -0.0494 -0.4388
  315MOL0     O41495   5.893   5.119   5.122 -0.3512 -0.1846  0.8447
  315MOL0     C41496   6.075   5.424   5.107 -0.4685  0.7146  0.3942
  315MOL0     C41497   6.210   5.463   5.112 -0.1035  0.4542  0.6935
  315MOL0     N41498   6.997   5.246   4.974  0.3962 -0.4252  0.2065
  315MOL0     N41499   7.040   5.129   4.949  0.0143  0.0398  0.3374
  315MOL0     C41500   6.289   4.453   4.348  0.5074  0.2544  0.1289
  315MOL0     C41501   6.155   4.438   4.298  0.5901  0.7795 -0.9826
  315MOL0     C41502   5.773   4.338   4.101  0.1149 -0.4978 -0.1336
  315MOL0     C41503   5.696   4.228   4.137  0.5383  0.7742  0.1260
  315MOL0     C41504   5.565   4.217   4.074 -0.2939  0.2304  0.0822
  315MOL0     C41505   5.513   4.327   4.003 -0.3096  0.5307  0.4062
  315MOL0     O41506   5.390   4.327   3.952  0.5655  0.2201  0.9298
  315MOL0     C41507   5.351   4.207   3.877  0.5097  0.1358  0.5610
  315MOL0     C41508   5.351   4.238   3.733  0.0936  0.4790  0.3674
  315MOL0     C41509   5.338   4.116   3.639  0.0580  0.0606  0.0865
  315MOL0     C41510   5.364   4.145   3.491  0.1793 -0.4416  0.7910
  315MOL0     C41511   5.307   4.047   3.399 -1.3561  0.5567  0.7633
  315MOL0     C41512   5.261   3.971   3.321 -0.7879 -0.6570 -0.3939
  315MOL0     C41513   5.596   4.439   3.987  0.5576  0.9831  0.9526
  315MOL0     C41514   5.726   4.442   4.029 -1.0113  1.2007  0.3649
  315MOL0     H41515   6.136   4.093   4.290  2.1898 -0.4469  0.3534
  315MOL0     H41516   6.379   4.130   4.353 -1.0933 -0.9381 -0.7886
  315MOL0     H41517   6.564   4.488   4.302  3.0878  1.1484  0.0130
  315MOL0     H41518   6.680   4.376   4.366 -0.3759  0.3436  1.0713
  315MOL0     H41519   6.517   4.577   4.526 -1.2415 -2.4318 -2.3937
  315MOL0     H41520   6.676   4.609   4.475 -0.3587  0.2996  1.2797
  315MOL0     H41521   6.769   4.425   4.590 -0.6160 -1.1987  1.7502
  315MOL0     H41522   6.621   4.375   4.669  0.4453  0.2126  1.1281
  315MOL0     H41523   6.612   4.609   4.760 -1.9784 -2.5772  1.3108
  315MOL0     H41524   6.692   4.466   4.836  0.3819 -0.4544  0.7657
  315MOL0     H41525   6.840   4.663   4.660 -1.5244  3.8405  1.5904
  315MOL0     H41526   6.904   4.524   4.753  0.6857 -0.1531  0.9005
  315MOL0     H41527   6.945   4.662   4.930  0.4273 -1.2147 -1.6815
  315MOL0     H41528   6.771   4.668   4.945 -0.9630  1.5330 -0.5151
  315MOL0     H41529   6.774   4.865   4.775 -2.0946 -0.7411  0.5833
  315MOL0     H41530   6.776   4.891   4.944 -2.5309  0.1423 -0.8673
  315MOL0     H41531   7.021   4.896   4.764  2.1577 -0.7117  1.5627
  315MOL0     H41532   7.039   4.879   4.934 -0.7349 -0.5127 -0.1513
  315MOL0     H41533   6.775   5.142   4.769 -0.7780 -2.0317  0.3729
  315MOL0     H41534   6.668   5.328   4.922 -1.4852 -0.8434  4.1215
  315MOL0     H41535   6.780   5.447   4.864 -1.9987  1.3670  1.1768
  315MOL0     H41536   6.858   5.508   5.075 -0.3679  0.4357 -0.2424
  315MOL0     H41537   6.778   5.364   5.149 -0.4701 -1.9081 -1.7913
  315MOL0     H41538   6.657   5.554   5.228 -0.6827  0.1300 -0.0463
  315MOL0     H41539   6.691   5.645   5.078 -0.8949 -0.4043  0.3925
  315MOL0     H41540   6.501   5.514   4.969  0.9540 -4.7871  0.4355
  315MOL0     H41541   6.478   5.619   5.109  3.2360  0.7309  0.0975
  315MOL0     H41542   6.369   5.190   5.217  1.3134  2.9570  0.0344
  315MOL0     H41543   6.127   5.108   5.226 -1.1572  0.3488 -0.4303
  315MOL0     H41544   5.700   5.429   4.918  3.8250 -0.7332  3.5799
  315MOL0     H41545   5.451   5.386   4.833 -0.5162  1.0796  0.5413
  315MOL0     H41546   5.249   5.298   4.790 -1.9720 -0.8727 -0.5824
  315MOL0     H41547   5.233   5.379   4.944  1.5884 -0.4379  2.3221
  315MOL0     H41548   5.080   5.140   4.829 -0.0099  1.8221 -2.3186
  315MOL0     H41549   5.018   5.305   4.874 -0.0162  0.6548  1.5386
  315MOL0     H41550   5.135   5.186   5.120  1.1939  0.8224 -1.4122
  315MOL0     H41551   5.066   5.053   5.033  0.5394  0.2933 -1.8241
  315MOL0     H41552   4.922   5.302   5.130  0.3007 -0.1154 -3.5227
  315MOL0     H41553   4.845   5.203   5.016 -2.6389  2.3509  1.3204
  315MOL0     H41554   4.970   5.121   5.289 -2.8014 -0.1377  2.0870
  315MOL0     H41555   4.887   5.006   5.184  2.0658 -0.9439 -0.0523
  315MOL0     H41556   4.689   5.179   5.199 -1.9453 -0.3789 -0.0598
  315MOL0     H41557   4.787   5.251   5.329 -1.1537 -1.2502  0.7267
  315MOL0     H41558   4.621   5.110   5.433 -0.7361  0.2168 -2.4792
  315MOL0     H41559   4.673   4.970   5.340  0.2236  1.5820 -3.6460
  315MOL0     H41560   4.879   4.945   5.431  1.2251  0.2101  1.8722
  315MOL0     H41561   4.756   4.938   5.552 -1.2024 -1.3573 -2.6362
  315MOL0     H41562   5.439   5.077   5.141 -4.4075  0.5121 -2.3035
  315MOL0     H41563   5.651   5.141   5.220  1.1917 -0.1195 -0.7371
  315MOL0     H41564   5.998   5.488   5.065 -0.4314  0.2503 -0.4127
  315MOL0     H41565   6.238   5.562   5.079 -1.4279  0.7210  0.2862
  315MOL0     H41566   6.332   4.551   4.366  0.1710  0.1085  2.0129
  315MOL0     H41567   6.096   4.528   4.282 -1.8111 -0.4182  0.5604
  315MOL0     H41568   5.739   4.148   4.196 -0.8926 -0.8830 -0.9901
  315MOL0     H41569   5.503   4.129   4.088 -0.3101  0.3571  0.8618
  315MOL0     H41570   5.247   4.182   3.899  0.1079  2.2059  1.1723
  315MOL0     H41571   5.416   4.121   3.898  0.0511 -0.3521  0.0381
  315MOL0     H41572   5.270   4.309   3.716 -2.6866 -2.6377 -0.3799
  315MOL0     H41573   5.439   4.296   3.703 -0.1433  1.5783  1.7150
  315MOL0     H41574   5.237   4.080   3.660 -1.0673  2.7452 -0.3634
  315MOL0     H41575   5.407   4.042   3.681  2.7360  2.6588  0.6384
  315MOL0     H41576   5.306   4.237   3.481 -0.8499 -0.8454  2.6367
  315MOL0     H41577   5.466   4.165   3.456 -0.7442  1.4216 -1.0851
  315MOL0     H41578   5.220   3.910   3.243 -0.9448 -3.3670  1.6333
  315MOL0     H41579   5.554   4.530   3.946  1.0305  0.2289 -1.3381
  315MOL0     H41580   5.787   4.530   4.014 -0.3488  0.1979 -4.3001
  316MOL0     O41581   3.639   5.842   3.822  0.5944 -0.4424 -0.4701
  316MOL0     C41582   3.731   5.795   3.881  0.0447 -0.6400  1.3726
  316MOL0     O41583   3.766   5.660   3.899 -0.0023  0.1375  0.0538
  316MOL0     C41584   3.687   5.570   3.829  0.5155  0.5775 -0.5565
  316MOL0     C41585   3.641   5.455   3.892  0.4171  0.0373 -0.0072
  316MOL0     C41586   3.559   5.354   3.830  0.9545  0.4210  0.8476
  316MOL0     C41587   3.524   5.370   3.698  0.6093  0.1041 -0.3079
  316MOL0     O41588   3.441   5.276   3.650  0.0112  0.3264 -0.1033
  316MOL0     C41589   3.375   5.300   3.522  0.1753  1.1980  0.4410
  316MOL0     C41590   3.273   5.406   3.544 -0.5366  0.6392  1.5461
  316MOL0     C41591   3.167   5.388   3.657  0.1441  0.6829  0.5601
  316MOL0     C41592   3.082   5.519   3.677  0.1565  0.2421 -0.1137
  316MOL0     C41593   3.045   5.581   3.542 -0.1177 -0.1446 -0.1253
  316MOL0     C41594   2.990   5.723   3.556 -0.2287  0.3008  0.0479
  316MOL0     C41595   2.840   5.710   3.585 -0.0413  0.4143  0.6353
  316MOL0     C41596   2.754   5.837   3.578 -0.2320 -0.3142  0.8905
  316MOL0     N41597   2.743   5.905   3.714 -0.0030  0.4331  0.6708
  316MOL0     C41598   2.693   5.843   3.827  0.3732 -0.2791 -0.3676
  316MOL0     C41599   2.694   5.934   3.926  0.1205 -0.2264 -0.0456
  316MOL0     C41600   2.651   5.887   4.061  0.0432  0.3091  0.1381
  316MOL0     C41601   2.585   5.996   4.129 -0.1577 -0.1038 -0.7617
  316MOL0     C41602   2.559   5.973   4.287  0.2193 -0.1938 -0.1639
  316MOL0     C41603   2.428   5.905   4.310  0.9153  0.4690  0.4555
  316MOL0     O41604   2.353   5.953   4.426 -0.8698  0.1128  0.3619
  316MOL0     C41605   2.338   5.885   4.540 -0.0287  0.0988  0.0576
  316MOL0     C41606   2.363   5.741   4.546  0.0292 -0.0788  0.2143
  316MOL0     C41607   2.335   5.668   4.663  0.1029  0.2633  0.0903
  316MOL0     C41608   2.284   5.733   4.777  0.2976  0.8673 -0.2588
  316MOL0     C41609   2.258   5.655   4.909 -0.3415  0.1871  1.6070
  316MOL0     O41610   2.295   5.527   4.890  0.7666  0.5771 -0.4790
  316MOL0     C41611   2.282   5.449   5.002  0.3874 -0.0493 -0.5733
  316MOL0     C41612   2.180   5.352   5.017  0.8820  0.1268 -0.1468
  316MOL0     C41613   2.169   5.285   5.134 -0.3748  0.0528  0.9508
  316MOL0     C41614   2.284   5.275   5.230 -0.3822 -1.0135  0.1050
  316MOL0     O41615   2.308   5.184   5.324 -0.2327 -0.0371  0.0930
  316MOL0     C41616   2.203   5.085   5.337 -0.9093 -0.7341 -0.6605
  316MOL0     C41617   2.234   4.997   5.447 -0.9815  0.1902 -0.2321
  316MOL0     C41618   2.343   4.899   5.403  0.6731  0.3640  0.2808
  316MOL0     C41619   2.369   4.782   5.494 -0.0530  0.6270  0.5260
  316MOL0     C41620   2.261   4.681   5.481 -0.3803  0.4968  0.5116
  316MOL0     C41621   2.277   4.582   5.600 -0.0686 -0.7194 -0.4951
  316MOL0     C41622   2.174   4.474   5.620  0.9802  0.1764  0.6461
  316MOL0     C41623   2.170   4.395   5.752 -0.2230  0.0604 -0.5008
  316MOL0    Cl41624   2.031   4.281   5.745  0.1040  0.1129  0.8445
  316MOL0     C41625   2.376   5.378   5.223  0.1777  0.4523 -0.8406
  316MOL0     C41626   2.371   5.466   5.112  0.5348 -0.8213  0.5414
  316MOL0     O41627   2.221   5.715   5.012 -1.1058  0.2096  0.8087
  316MOL0     C41628   2.269   5.872   4.771  0.2537 -0.1464  1.0931
  316MOL0     C41629   2.281   5.943   4.649  1.0365  0.5463 -0.0234
  316MOL0     N41630   2.740   6.052   3.869  0.4931  0.5391 -0.6618
  316MOL0     N41631   2.767   6.039   3.748  0.7272 -0.2095 -0.3308
  316MOL0     C41632   3.595   5.481   3.625  0.3851 -0.0625  0.9771
  316MOL0     C41633   3.663   5.577   3.694 -0.1080 -0.4836 -0.2984
  316MOL0     C41634   3.822   5.891   3.952 -0.0312  0.0108 -0.4321
  316MOL0     C41635   3.891   5.858   4.071  0.3587  0.1045  0.2415
  316MOL0     C41636   3.989   5.944   4.122  0.3746  0.2360  0.3902
  316MOL0     C41637   4.003   6.066   4.060  0.3200 -0.5997  0.2394
  316MOL0     O41638   4.101   6.148   4.114 -0.0806  0.5359 -0.4775
  316MOL0     C41639   4.095   6.284   4.072  0.0158  0.3173  0.4043
  316MOL0     C41640   4.190   6.363   4.159  0.2680 -0.2218 -0.0285
  316MOL0     C41641   4.326   6.405   4.098 -0.2544  0.1486 -0.3106
  316MOL0     C41642   4.403   6.497   4.189 -0.7585 -0.0296  0.6521
  316MOL0     C41643   4.475   6.412   4.292 -0.2040 -0.4952 -0.7987
  316MOL0     C41644   4.536   6.345   4.375 -0.7531 -0.1362  0.2226
  316MOL0     C41645   3.919   6.109   3.948  0.0837  0.9216 -0.3128
  316MOL0     C41646   3.845   6.016   3.891  0.1802 -0.3919 -1.0055
  316MOL0     H41647   3.670   5.423   3.992  0.8102  3.8050  1.2239
  316MOL0     H41648   3.517   5.272   3.887  0.6486 -0.4936 -0.6385
  316MOL0     H41649   3.329   5.206   3.490  3.0724 -0.1542  0.0255
  316MOL0     H41650   3.445   5.335   3.446 -0.1239 -1.2961 -1.1167
  316MOL0     H41651   3.228   5.414   3.445 -2.4840  1.8796  2.4621
  316MOL0     H41652   3.316   5.503   3.571 -1.2274  1.0142  1.3210
  316MOL0     H41653   3.211   5.371   3.756 -0.5337  0.9710  0.9155
  316MOL0     H41654   3.110   5.295   3.652 -0.7364  1.2366  0.1057
  316MOL0     H41655   2.995   5.502   3.740 -1.4695 -0.4544 -2.4189
  316MOL0     H41656   3.157   5.588   3.716 -0.6429  0.7562  0.5312
  316MOL0     H41657   2.969   5.513   3.501 -3.1758  2.3216  1.0270
  316MOL0     H41658   3.125   5.579   3.468  0.2260  0.6172  0.2206
  316MOL0     H41659   2.996   5.769   3.457  0.0744  0.5658  0.1871
  316MOL0     H41660   3.048   5.787   3.622 -0.8390  0.8433  0.0664
  316MOL0     H41661   2.808   5.642   3.506 -0.7357 -0.2864  1.4933
  316MOL0     H41662   2.833   5.667   3.686 -0.2306 -2.0342 -0.3569
  316MOL0     H41663   2.650   5.811   3.557 -0.8468  2.6327 -0.2345
  316MOL0     H41664   2.775   5.900   3.491 -2.7691 -2.1079 -1.1548
  316MOL0     H41665   2.672   5.736   3.831  2.5965 -0.8044 -1.0432
  316MOL0     H41666   2.739   5.850   4.115 -0.7782  1.1060  2.1095
  316MOL0     H41667   2.594   5.794   4.062  3.2147 -1.8439  1.8018
  316MOL0     H41668   2.494   6.021   4.072 -0.3306  0.7863 -0.1031
  316MOL0     H41669   2.654   6.079   4.116  0.1340 -0.0844  0.7931
  316MOL0     H41670   2.645   5.918   4.327  0.9606  0.3960 -0.9078
  316MOL0     H41671   2.562   6.075   4.326  0.1174  0.9129 -2.8572
  316MOL0     H41672   2.450   5.798   4.313  0.1603  0.2370 -1.0069
  316MOL0     H41673   2.368   5.926   4.220  0.4293 -1.2385  0.3375
  316MOL0     H41674   2.396   5.689   4.457  1.1120  1.5205 -0.3494
  316MOL0     H41675   2.341   5.560   4.653 -0.4165  0.3382 -1.2196
  316MOL0     H41676   2.098   5.349   4.946  0.6669  1.9632 -0.0069
  316MOL0     H41677   2.093   5.208   5.145  0.3493 -0.8899 -0.3862
  316MOL0     H41678   2.210   5.030   5.243 -1.8387 -1.5814 -0.2632
  316MOL0     H41679   2.107   5.136   5.353 -0.1941  0.2686  0.6018
  316MOL0     H41680   2.140   4.943   5.462 -0.2074 -1.1155  0.0890
  316MOL0     H41681   2.272   5.062   5.526 -2.2350  0.5918  0.0537
  316MOL0     H41682   2.436   4.955   5.385 -0.4173  1.6028 -1.9051
  316MOL0     H41683   2.318   4.848   5.310  0.8554 -0.7577  0.8234
  316MOL0     H41684   2.457   4.720   5.474 -1.4253 -0.6456 -2.0147
  316MOL0     H41685   2.376   4.817   5.597 -1.3358  1.5216  0.3304
  316MOL0     H41686   2.275   4.623   5.390  0.2869  0.1973  0.7980
  316MOL0     H41687   2.161   4.725   5.486 -0.8448 -0.6502  2.0686
  316MOL0     H41688   2.281   4.646   5.688  4.2984 -1.2939 -0.0049
  316MOL0     H41689   2.373   4.529   5.596 -0.3006 -1.1240 -3.6534
  316MOL0     H41690   2.086   4.538   5.626  0.4981  0.1111 -3.2052
  316MOL0     H41691   2.161   4.401   5.539  0.3108  0.9043  0.0826
  316MOL0     H41692   2.142   4.478   5.818  0.4240 -0.3773  0.3444
  316MOL0     H41693   2.263   4.350   5.788 -1.4817  0.0805  3.1813
  316MOL0     H41694   2.459   5.375   5.291 -1.5934  0.7191  1.4527
  316MOL0     H41695   2.449   5.541   5.104  0.1316 -0.4172  0.3060
  316MOL0     H41696   2.225   5.920   4.858  0.3075  2.2397 -0.1280
  316MOL0     H41697   2.248   6.046   4.641  0.0689  0.2265 -0.3501
  316MOL0     H41698   3.576   5.483   3.518 -2.3738  0.5232  1.3995
  316MOL0     H41699   3.708   5.665   3.649 -0.3321 -0.4390 -0.4404
  316MOL0     H41700   3.879   5.764   4.125  0.2811 -0.7087 -1.1429
  316MOL0     H41701   4.053   5.928   4.208  1.0617  1.1544  0.0662
  316MOL0     H41702   4.000   6.338   4.078 -0.5978 -0.6372 -0.3041
  316MOL0     H41703   4.135   6.284   3.970 -1.1697 -0.6609 -0.0977
  316MOL0     H41704   4.147   6.454   4.201  4.2015  2.8175 -1.9570
  316MOL0     H41705   4.212   6.307   4.250  1.8325  0.3995  0.0032
  316MOL0     H41706   4.321   6.454   4.001  1.1406  0.7206 -0.1292
  316MOL0     H41707   4.379   6.313   4.071 -2.9880 -0.3331 -5.0886
  316MOL0     H41708   4.480   6.550   4.133 -2.1906  0.0054 -1.3927
  316MOL0     H41709   4.340   6.571   4.240 -0.1399 -1.6393  4.0938
  316MOL0     H41710   4.597   6.284   4.438 -0.3228 -0.2304 -0.2808
  316MOL0     H41711   3.931   6.200   3.891  1.4018  0.5022 -0.7579
  316MOL0     H41712   3.778   6.042   3.809  0.1852  1.1894 -0.5375
  317MOL0     O41713   3.937  10.168   0.798 -0.6119  0.6739  0.0253
  317MOL0     C41714   4.046  10.115   0.759  0.4315 -0.4788  0.3123
  317MOL0     O41715   4.152  10.181   0.710 -0.7446 -0.1428 -0.5355
  317MOL0     C41716   4.183  10.304   0.755 -0.1101 -0.2020 -0.7323
  317MOL0     C41717   4.247  10.399   0.676 -0.2430  0.6286  0.5291
  317MOL0     C41718   4.292  10.515   0.722  0.0938  0.2108 -0.3008
  317MOL0     C41719   4.260  10.560   0.853 -0.5640 -0.1843 -0.0779
  317MOL0     O41720   4.320  10.670   0.915  0.3184  0.8136  0.1311
  317MOL0     C41721   4.438  10.715   0.850  0.7147  0.3202 -0.6388
  317MOL0     C41722   4.523  10.803   0.938  0.1850 -0.3689  1.0871
  317MOL0     C41723   4.571  10.731   1.064  0.4137  0.8078 -0.9392
  317MOL0     C41724   4.667  10.823   1.153  0.7475  0.5091 -0.5799
  317MOL0     C41725   4.701  10.767   1.292 -0.0816  0.1630  0.6674
  317MOL0     C41726   4.584  10.743   1.382 -0.4155 -0.0822  0.2170
  317MOL0     C41727   4.614  10.768   1.532 -0.4070 -0.1353  0.1403
  317MOL0     C41728   4.500  10.710   1.610  1.1353  0.2448  0.4836
  317MOL0     N41729   4.540  10.657   1.736  0.4560  0.6983  0.2303
  317MOL0     C41730   4.585  10.719   1.846  0.7189 -0.0144  0.4872
  317MOL0     C41731   4.624  10.622   1.933 -0.0860 -0.0894 -0.7989
  317MOL0     C41732   4.716  10.633   2.057  0.4549  0.2296  1.0548
  317MOL0     C41733   4.675  10.747   2.140  0.5371 -0.1320 -0.8174
  317MOL0     C41734   4.771  10.794   2.250  0.3467  0.5404  0.3403
  317MOL0     C41735   4.755  10.939   2.295 -0.0302  1.2386  0.0026
  317MOL0     O41736   4.618  10.956   2.339 -1.1967  1.2541 -0.5307
  317MOL0     C41737   4.573  11.087   2.359 -0.1745 -0.4150 -0.8167
  317MOL0     C41738   4.429  11.122   2.354 -0.0816 -0.4933 -0.0976
  317MOL0     C41739   4.396  11.261   2.376 -0.7217 -0.2673 -0.4584
  317MOL0     C41740   4.495  11.362   2.373  0.4237 -0.2303 -0.4123
  317MOL0     C41741   4.459  11.503   2.392  1.1311 -0.9665  0.2013
  317MOL0     O41742   4.557  11.584   2.422 -0.8848 -0.9522 -0.1951
  317MOL0     C41743   4.564  11.717   2.388  0.2701 -0.6947 -0.1715
  317MOL0     C41744   4.478  11.790   2.292 -0.1825  0.3847 -0.7428
  317MOL0     C41745   4.490  11.931   2.293  0.0492  0.7530 -0.7466
  317MOL0     C41746   4.601  11.994   2.352 -0.3096  0.4034 -1.0795
  317MOL0     O41747   4.632  12.131   2.345 -0.2167 -0.0149 -0.9738
  317MOL0     C41748   4.538  12.218   2.269 -0.3234 -0.1970  1.2889
  317MOL0     C41749   4.570  12.361   2.277  1.0536 -0.1032  0.8810
  317MOL0     C41750   4.714  12.378   2.251 -0.1417  1.0242  0.1071
  317MOL0     C41751   4.728  12.528   2.213 -0.9777  0.4508 -0.7251
  317MOL0     C41752   4.871  12.562   2.187 -0.9339 -0.4501  0.0351
  317MOL0     C41753   4.894  12.696   2.116 -0.1744 -0.3233 -0.4173
  317MOL0     C41754   5.031  12.752   2.124 -1.4941 -0.3144  0.1182
  317MOL0     C41755   5.038  12.887   2.047  0.0628  0.5583  0.3826
  317MOL0    Cl41756   4.930  13.017   2.100  0.1604  0.2128 -0.1649
  317MOL0     C41757   4.676  11.920   2.441 -0.4163  0.7169 -0.8068
  317MOL0     C41758   4.663  11.786   2.457  0.1140  0.6087  0.5263
  317MOL0     O41759   4.334  11.531   2.373 -0.2058 -0.4441 -0.3424
  317MOL0     C41760   4.625  11.322   2.364 -0.1494  0.5553 -1.4923
  317MOL0     C41761   4.671  11.191   2.374  0.8353 -0.5807 -0.2056
  317MOL0     N41762   4.591  10.507   1.870 -0.2675  0.3902 -0.5394
  317MOL0     N41763   4.542  10.523   1.755  0.3048  0.1483  0.3517
  317MOL0     C41764   4.173  10.480   0.928  0.2015  0.6760 -0.6945
  317MOL0     C41765   4.141  10.355   0.882 -1.4801  0.3503 -0.3097
  317MOL0     C41766   4.057   9.962   0.754  2.0013 -0.6010 -0.3479
  317MOL0     C41767   3.933   9.888   0.766 -0.8509 -1.3744 -0.7459
  317MOL0     C41768   3.926   9.749   0.752  1.2043 -0.0657  0.7228
  317MOL0     C41769   4.043   9.678   0.715 -0.5577 -0.1118  0.3824
  317MOL0     O41770   4.040   9.548   0.674 -0.1868  0.6980 -0.7746
  317MOL0     C41771   4.153   9.466   0.708 -1.5672  0.3232  1.0874
  317MOL0     C41772   4.097   9.324   0.702 -0.5720 -0.1810 -0.0514
  317MOL0     C41773   4.208   9.228   0.741  1.0586  0.4057  0.5757
  317MOL0     C41774   4.276   9.252   0.876 -0.1670  0.2719 -0.5779
  317MOL0     C41775   4.173   9.228   0.986  0.5998  0.6505 -0.6753
  317MOL0     C41776   4.084   9.211   1.069 -0.0829 -0.4746  0.7278
  317MOL0     C41777   4.164   9.749   0.714 -0.5506 -0.0143 -0.1162
  317MOL0     C41778   4.168   9.888   0.724 -0.5438 -0.1283  0.7890
  317MOL0     H41779   4.264  10.372   0.572 -1.4941  0.4018  0.3746
  317MOL0     H41780   4.350  10.569   0.648  0.1922  1.9474  0.9934
  317MOL0     H41781   4.416  10.765   0.755 -1.0197 -0.8339 -0.8907
  317MOL0     H41782   4.496  10.625   0.832  0.0065  0.2022 -2.5710
  317MOL0     H41783   4.470  10.890   0.979  2.2853  0.8504  1.3663
  317MOL0     H41784   4.604  10.846   0.878 -2.3920  2.0202 -1.0170
  317MOL0     H41785   4.630  10.642   1.045  1.8760  1.7223 -0.8555
  317MOL0     H41786   4.477  10.705   1.115 -0.8210  3.6332 -1.5762
  317MOL0     H41787   4.755  10.808   1.090  0.0554  2.1664 -2.0504
  317MOL0     H41788   4.643  10.930   1.157  2.7924  1.0239 -1.0267
  317MOL0     H41789   4.764  10.840   1.344 -2.1605  2.1014  0.5996
  317MOL0     H41790   4.759  10.675   1.279  3.8110  2.5022 -0.0786
  317MOL0     H41791   4.555  10.639   1.362  0.0074 -0.0511 -0.5558
  317MOL0     H41792   4.506  10.810   1.346 -0.7269 -0.6804 -0.2495
  317MOL0     H41793   4.706  10.715   1.558 -1.8047 -0.8762  4.3088
  317MOL0     H41794   4.621  10.875   1.553 -1.1276  0.6085 -2.8712
  317MOL0     H41795   4.452  10.629   1.555  3.6739  0.1632 -1.8126
  317MOL0     H41796   4.424  10.786   1.631  2.4597  1.4420  1.1739
  317MOL0     H41797   4.613  10.824   1.848  2.1937 -0.3142 -1.0307
  317MOL0     H41798   4.818  10.636   2.018  0.2937 -2.7134  0.1631
  317MOL0     H41799   4.715  10.544   2.121 -0.7120  0.1363  0.9283
  317MOL0     H41800   4.576  10.717   2.173  0.8042 -3.9580 -2.9236
  317MOL0     H41801   4.676  10.838   2.079 -0.4584  0.3703 -0.1071
  317MOL0     H41802   4.764  10.734   2.341 -0.0737  0.0898  0.0167
  317MOL0     H41803   4.872  10.781   2.209 -0.2299  0.3941 -1.1175
  317MOL0     H41804   4.785  11.003   2.212  1.1287  0.7667  0.0306
  317MOL0     H41805   4.816  10.952   2.385  0.0627 -0.7556  0.2814
  317MOL0     H41806   4.347  11.053   2.342 -0.3382 -0.3959  1.0455
  317MOL0     H41807   4.296  11.304   2.382 -2.8795 -4.8989  1.6480
  317MOL0     H41808   4.401  11.736   2.238 -2.4156  1.1633  1.5242
  317MOL0     H41809   4.414  11.986   2.237 -1.2236  0.3642  0.5231
  317MOL0     H41810   4.435  12.203   2.300 -0.5072 -0.8388  0.3870
  317MOL0     H41811   4.547  12.195   2.162 -0.2595  0.0092  1.2500
  317MOL0     H41812   4.536  12.396   2.375 -0.6798  1.2383 -0.1476
  317MOL0     H41813   4.504  12.414   2.208  0.4671  1.5406  2.6307
  317MOL0     H41814   4.758  12.319   2.169  2.9192  3.6507 -0.3680
  317MOL0     H41815   4.779  12.344   2.333  0.2047 -0.2415 -0.6482
  317MOL0     H41816   4.663  12.539   2.126 -0.4707  4.7020 -0.7699
  317MOL0     H41817   4.686  12.588   2.294  0.2435 -0.1905  0.4416
  317MOL0     H41818   4.920  12.477   2.139  1.1781 -0.2238  1.6636
  317MOL0     H41819   4.922  12.572   2.283 -2.3284  0.8236  0.6707
  317MOL0     H41820   4.827  12.773   2.154  1.1044  0.8344 -0.4306
  317MOL0     H41821   4.870  12.691   2.010  2.0015  3.8519 -1.3396
  317MOL0     H41822   5.053  12.769   2.230 -2.7081 -1.8930  0.6701
  317MOL0     H41823   5.109  12.686   2.084 -0.9865  1.9261 -2.9485
  317MOL0     H41824   5.014  12.865   1.942 -0.2577 -4.5312  1.2496
  317MOL0     H41825   5.143  12.917   2.040  0.2072 -0.2687 -2.3398
  317MOL0     H41826   4.743  11.980   2.502 -0.5213  0.4862 -0.4625
  317MOL0     H41827   4.728  11.742   2.532  0.6791  0.6938  0.0991
  317MOL0     H41828   4.703  11.396   2.373  1.4185 -1.2261  1.0183
  317MOL0     H41829   4.773  11.170   2.402  0.2050 -1.8762  1.2728
  317MOL0     H41830   4.154  10.510   1.031  2.2552 -3.0022  0.9785
  317MOL0     H41831   4.089  10.302   0.961  2.7698  1.6908  3.7996
  317MOL0     H41832   3.842   9.945   0.782  1.1013  0.8633  4.7856
  317MOL0     H41833   3.830   9.699   0.752  1.5408 -0.7679 -1.0940
  317MOL0     H41834   4.191   9.495   0.807 -2.2144  2.4478  0.7611
  317MOL0     H41835   4.232   9.473   0.633 -0.3045 -2.3663  2.0319
  317MOL0     H41836   4.012   9.320   0.770 -1.3219  3.0809 -0.5859
  317MOL0     H41837   4.055   9.302   0.603  0.6030  1.1997 -0.9058
  317MOL0     H41838   4.275   9.210   0.656 -0.2007 -0.4751 -0.2667
  317MOL0     H41839   4.150   9.136   0.750  0.0561  0.9466 -0.1710
  317MOL0     H41840   4.361   9.183   0.874 -0.6844 -0.4096  0.2894
  317MOL0     H41841   4.315   9.354   0.883 -0.1200  0.3283 -1.4535
  317MOL0     H41842   4.017   9.191   1.151  2.6705 -1.6777  2.8473
  317MOL0     H41843   4.257   9.695   0.698  0.4939  2.6609 -4.6528
  317MOL0     H41844   4.267   9.931   0.712 -1.7185  1.9606 -4.0905
  318MOL0     O41845   9.994   9.913   8.442 -0.2395  0.1232 -0.9961
  318MOL0     C41846  10.079   9.987   8.494  0.1909  0.0674  0.3937
  318MOL0     O41847  10.048  10.095   8.561 -0.2431 -0.6079  0.2478
  318MOL0     C41848   9.915  10.132   8.582 -0.4460 -0.0841  0.1926
  318MOL0     C41849   9.866  10.252   8.534 -0.0271 -0.5429  0.7724
  318MOL0     C41850   9.740  10.296   8.566  0.5224 -0.4282  0.2101
  318MOL0     C41851   9.647  10.211   8.630 -0.4383  0.3953  0.0202
  318MOL0     O41852   9.517  10.252   8.653 -0.3623 -0.4583  0.4297
  318MOL0     C41853   9.421  10.154   8.679 -0.0291  0.2022 -0.4618
  318MOL0     C41854   9.288  10.237   8.676 -0.0942  0.6962 -0.4893
  318MOL0     C41855   9.261  10.293   8.821 -0.5886  0.1273 -0.8964
  318MOL0     C41856   9.204  10.202   8.923 -0.1012  1.3161 -0.8648
  318MOL0     C41857   9.060  10.166   8.897 -0.1969  0.7895  0.4275
  318MOL0     C41858   9.003  10.042   8.981 -0.2495  0.5203  0.5415
  318MOL0     C41859   8.996  10.074   9.129  0.8575  0.6788 -0.3055
  318MOL0     C41860   8.891  10.182   9.166 -0.5334  0.8356  0.7169
  318MOL0     N41861   8.878  10.171   9.308  0.0896 -0.5010 -0.4039
  318MOL0     C41862   8.839  10.275   9.390  0.5467 -0.3283 -0.2881
  318MOL0     C41863   8.840  10.230   9.511 -0.1096 -0.8598 -0.6468
  318MOL0     C41864   8.795  10.305   9.627  0.0337 -0.6853 -0.8335
  318MOL0     C41865   8.633  10.294   9.630  0.1911  0.0127 -0.1470
  318MOL0     C41866   8.584  10.339   9.759  0.5200 -1.1165  0.7467
  318MOL0     C41867   8.629  10.474   9.807 -0.7288  0.1427 -0.3387
  318MOL0     O41868   8.556  10.520   9.919  0.0275 -0.6520 -1.4307
  318MOL0     C41869   8.418  10.525   9.904  0.6709 -0.6685  0.0728
  318MOL0     C41870   8.339  10.429   9.972  0.7175 -0.0964 -0.1927
  318MOL0     C41871   8.199  10.433   9.973 -0.2534  0.8357 -0.4973
  318MOL0     C41872   8.132  10.539   9.909  0.3418 -0.3167 -0.4528
  318MOL0     C41873   7.987  10.540   9.922 -0.4448 -0.1009  0.7563
  318MOL0     O41874   7.920  10.598   9.821 -0.3761 -0.1695  0.5413
  318MOL0     C41875   7.786  10.572   9.825  0.4707 -0.5287  0.8629
  318MOL0     C41876   7.693  10.636   9.908 -0.4003 -0.2532  0.6833
  318MOL0     C41877   7.552  10.611   9.896 -1.1293 -0.4222  0.7282
  318MOL0     C41878   7.510  10.526   9.793 -0.8862  0.1484 -0.4989
  318MOL0     O41879   7.380  10.507   9.780  0.0836  0.1622 -0.3277
  318MOL0     C41880   7.333  10.428   9.668  0.3052 -0.4827  0.3776
  318MOL0     C41881   7.186  10.443   9.640 -0.0274 -0.1121  0.7121
  318MOL0     C41882   7.111  10.396   9.754 -0.3224  0.2840  0.1988
  318MOL0     C41883   6.970  10.366   9.703  0.2260  0.0970  0.2051
  318MOL0     C41884   6.877  10.304   9.810  0.7519 -0.0950 -0.2519
  318MOL0     C41885   6.736  10.297   9.755 -0.5273 -0.3474  0.0629
  318MOL0     C41886   6.643  10.228   9.854 -0.0694 -0.7215 -0.3628
  318MOL0     C41887   6.499  10.291   9.842  0.5166  0.7307  0.6725
  318MOL0    Cl41888   6.408  10.253   9.696  0.1846  0.6166 -0.0404
  318MOL0     C41889   7.606  10.454   9.711  1.2229 -0.6940  0.2297
  318MOL0     C41890   7.737  10.488   9.723 -0.1257 -0.0178  0.1387
  318MOL0     O41891   7.944  10.482  10.015  0.6676  0.3419 -0.6454
  318MOL0     C41892   8.206  10.628   9.832 -0.4052 -0.3453 -0.4084
  318MOL0     C41893   8.344  10.631   9.845  0.2202 -0.1680  0.7245
  318MOL0     N41894   8.888  10.106   9.514 -0.3175  0.6134  0.2113
  318MOL0     N41895   8.900  10.064   9.394  0.4867 -0.2453 -0.0862
  318MOL0     C41896   9.690  10.083   8.669  0.8118  1.1840 -0.0555
  318MOL0     C41897   9.826  10.043   8.650 -0.5704 -1.1667  0.7736
  318MOL0     C41898  10.215   9.956   8.465 -1.6803  0.0514 -1.0243
  318MOL0     C41899  10.249   9.879   8.357 -0.8379 -0.2099  0.4552
  318MOL0     C41900  10.381   9.855   8.326  0.0070  0.6741 -0.0479
  318MOL0     C41901  10.479   9.915   8.409 -1.0156  0.3859  0.2244
  318MOL0     O41902  10.623   9.878   8.389 -1.0412 -0.1770 -0.5653
  318MOL0     C41903  10.670   9.869   8.254  0.2624  0.1362 -0.1575
  318MOL0     C41904  10.820   9.854   8.275  0.4442  0.2542  0.4482
  318MOL0     C41905  10.847   9.712   8.314 -0.5529 -0.5507  1.1281
  318MOL0     C41906  10.995   9.672   8.315  0.6850  0.4155 -0.3391
  318MOL0     C41907  11.005   9.524   8.322  0.9079  0.0172  0.3742
  318MOL0     C41908  11.027   9.404   8.310 -0.0191  1.4882 -0.3809
  318MOL0     C41909  10.444  10.002   8.513  0.6862 -0.5923  0.2645
  318MOL0     C41910  10.314  10.023   8.544  0.5344 -0.0407  0.1796
  318MOL0     H41911   9.934  10.325   8.490  2.3419 -2.6362  0.7309
  318MOL0     H41912   9.699  10.390   8.531 -0.8663 -1.1125 -0.0649
  318MOL0     H41913   9.442  10.111   8.778 -3.0154  0.8029  0.5221
  318MOL0     H41914   9.413  10.083   8.596 -0.7520  1.3998 -1.4317
  318MOL0     H41915   9.210  10.166   8.648 -1.6944  2.0871  0.2095
  318MOL0     H41916   9.276  10.324   8.611  4.0104  1.8455 -0.0365
  318MOL0     H41917   9.196  10.380   8.814  1.9004  2.0151 -2.6785
  318MOL0     H41918   9.354  10.337   8.859 -3.0247  3.9177  1.3436
  318MOL0     H41919   9.253  10.105   8.930 -1.1922  0.8076  0.1418
  318MOL0     H41920   9.216  10.254   9.019 -0.1447 -2.2764  1.2447
  318MOL0     H41921   9.047  10.145   8.790 -4.8437  0.6842  0.8114
  318MOL0     H41922   8.999  10.253   8.924  2.1948  2.0148  2.2428
  318MOL0     H41923   9.078   9.962   8.979 -1.1778 -0.4199  1.2903
  318MOL0     H41924   8.911  10.003   8.935 -0.6203 -1.4531  2.7070
  318MOL0     H41925   8.981   9.982   9.186 -0.9690  1.3167  0.3009
  318MOL0     H41926   9.093  10.116   9.157  0.7704 -0.2349  1.4961
  318MOL0     H41927   8.792  10.151   9.129  1.1284 -0.6962 -2.9342
  318MOL0     H41928   8.908  10.284   9.132 -2.8028  0.9430 -0.3107
  318MOL0     H41929   8.806  10.367   9.343  0.4657  0.5958  1.5012
  318MOL0     H41930   8.819  10.411   9.621 -4.1208  0.6038  1.5427
  318MOL0     H41931   8.853  10.265   9.711  1.7834 -0.8888 -2.0787
  318MOL0     H41932   8.604  10.189   9.618  0.9249 -0.1259 -0.7569
  318MOL0     H41933   8.596  10.355   9.547 -2.9585  1.4035  2.0787
  318MOL0     H41934   8.476  10.327   9.749  0.0073  3.4189 -1.5751
  318MOL0     H41935   8.601  10.270   9.842 -2.1021 -2.0074  0.6384
  318MOL0     H41936   8.623  10.546   9.725  2.2993 -0.4708 -1.1943
  318MOL0     H41937   8.733  10.468   9.839 -1.0049  2.7647  1.3340
  318MOL0     H41938   8.389  10.352  10.030 -1.0712  0.1822  1.8804
  318MOL0     H41939   8.152  10.355  10.032  0.0008  1.0220 -0.0356
  318MOL0     H41940   7.731  10.703   9.984  0.6786 -1.0340  0.8631
  318MOL0     H41941   7.472  10.647   9.958 -0.3715 -0.3235  1.6668
  318MOL0     H41942   7.351  10.322   9.693  1.6517 -1.0179 -2.4645
  318MOL0     H41943   7.373  10.458   9.571 -5.9861 -0.0404 -2.5327
  318MOL0     H41944   7.152  10.381   9.556 -2.9579  1.8715  0.2916
  318MOL0     H41945   7.170  10.547   9.607 -0.4543 -0.1403  0.8283
  318MOL0     H41946   7.095  10.476   9.827 -0.4126 -0.2660  0.7870
  318MOL0     H41947   7.166  10.312   9.796  1.2166  0.6651 -0.9821
  318MOL0     H41948   6.939  10.467   9.675 -0.0994 -0.4692 -1.5896
  318MOL0     H41949   6.974  10.300   9.615  0.6470 -0.5272  0.6836
  318MOL0     H41950   6.887  10.367   9.899 -1.7753  1.3234 -0.8694
  318MOL0     H41951   6.905  10.199   9.821 -0.7859 -0.6177 -0.9924
  318MOL0     H41952   6.728  10.246   9.658 -0.3788 -0.7263  0.2463
  318MOL0     H41953   6.701  10.399   9.739 -0.2839  0.0912  2.0751
  318MOL0     H41954   6.645  10.122   9.829 -1.7037 -0.2222 -3.0946
  318MOL0     H41955   6.660  10.248   9.960  0.5191  1.4548 -0.8179
  318MOL0     H41956   6.496  10.400   9.852  2.9782  1.0226 -0.9383
  318MOL0     H41957   6.447  10.248   9.928 -0.4452  2.2332  0.8937
  318MOL0     H41958   7.578  10.372   9.646 -0.3433 -0.3477  0.4415
  318MOL0     H41959   7.800  10.419   9.667 -0.4252  0.2277 -0.5090
  318MOL0     H41960   8.162  10.712   9.778 -3.1169 -1.2429  0.2233
  318MOL0     H41961   8.394  10.717   9.803 -1.3507  0.2448 -0.3770
  318MOL0     H41962   9.629  10.007   8.718  0.1276  0.7892 -1.4609
  318MOL0     H41963   9.859   9.943   8.674  0.5657 -0.9477  0.1875
  318MOL0     H41964  10.174   9.835   8.293 -0.7686  0.3971 -0.0481
  318MOL0     H41965  10.419   9.801   8.240 -0.2875 -0.0755  0.2897
  318MOL0     H41966  10.646   9.956   8.193  0.2441  0.7450  0.6964
  318MOL0     H41967  10.628   9.777   8.212 -1.4423  0.8338 -0.0459
  318MOL0     H41968  10.878   9.883   8.187  0.6130  1.2509  0.8751
  318MOL0     H41969  10.859   9.912   8.359  1.6859 -3.3501  2.6159
  318MOL0     H41970  10.802   9.635   8.250 -0.5481  2.3671 -2.7151
  318MOL0     H41971  10.819   9.697   8.418 -0.9421 -0.3242  1.0562
  318MOL0     H41972  11.019   9.686   8.209 -0.6921  0.6871 -0.6381
  318MOL0     H41973  11.053   9.721   8.393  0.4403 -0.9217  0.7261
  318MOL0     H41974  11.042   9.302   8.283 -3.6190  0.8894 -0.6676
  318MOL0     H41975  10.528  10.047   8.565  1.8926 -0.8481 -1.3628
  318MOL0     H41976  10.287  10.094   8.621  1.0854 -3.0117  3.3255
  319MOL0     O41977  10.389   9.509   5.728  0.7007  0.0308 -0.2281
  319MOL0     C41978  10.452   9.609   5.693  0.1296  0.7510  0.1919
  319MOL0     O41979  10.403   9.730   5.646  0.4857  0.1650  0.3304
  319MOL0     C41980  10.281   9.785   5.669 -0.0483  0.5390  0.0834
  319MOL0     C41981  10.249   9.901   5.602  0.6174 -0.0829 -0.4893
  319MOL0     C41982  10.115   9.958   5.605  0.7492 -0.3986 -0.7022
  319MOL0     C41983  10.012   9.899   5.682 -0.0467  1.1250 -0.2096
  319MOL0     O41984   9.878   9.950   5.686 -0.4052  0.3584 -1.1086
  319MOL0     C41985   9.857  10.085   5.747 -0.6406  1.5854 -0.7448
  319MOL0     C41986   9.733  10.148   5.684  0.0734 -0.1108 -1.0166
  319MOL0     C41987   9.595  10.089   5.717 -0.2409 -0.4798  0.4815
  319MOL0     C41988   9.574   9.948   5.674 -0.2473  0.2366  0.3266
  319MOL0     C41989   9.427   9.892   5.690  0.6074 -0.4069  0.4956
  319MOL0     C41990   9.398   9.875   5.839  0.1333  0.0410 -0.0865
  319MOL0     C41991   9.461   9.747   5.899 -0.0200  0.3502  1.1872
  319MOL0     C41992   9.408   9.719   6.039  0.3736 -0.2816 -0.8042
  319MOL0     N41993   9.418   9.823   6.143 -0.3355  0.3183  0.4982
  319MOL0     C41994   9.529   9.897   6.172  0.5174  0.6492  1.6590
  319MOL0     C41995   9.485  10.002   6.254  0.5459  0.6375  0.6898
  319MOL0     C41996   9.575  10.118   6.303 -0.3494  0.4316  0.8717
  319MOL0     C41997   9.588  10.135   6.452  1.1035 -0.5184  0.8964
  319MOL0     C41998   9.668  10.031   6.540 -1.0908  1.1217  0.1100
  319MOL0     C41999   9.804  10.003   6.487 -0.1237 -0.6342  1.5614
  319MOL0     O42000   9.883   9.951   6.598  0.0923 -0.8139 -0.1688
  319MOL0     C42001   9.904   9.822   6.584  1.2182  0.4237  0.4351
  319MOL0     C42002  10.040   9.770   6.594  0.2328  0.5726  0.2903
  319MOL0     C42003  10.066   9.633   6.602  0.7779 -0.0272 -0.8172
  319MOL0     C42004   9.966   9.539   6.570 -0.0747  0.3621 -0.0374
  319MOL0     C42005   9.995   9.392   6.569 -0.2198  0.5577 -0.6959
  319MOL0     O42006   9.895   9.308   6.594  0.1755 -0.3997  0.0442
  319MOL0     C42007   9.884   9.170   6.566  0.4342 -0.7540 -0.0300
  319MOL0     C42008   9.753   9.122   6.531 -0.5857  0.0139  0.2905
  319MOL0     C42009   9.738   8.990   6.488 -0.1775  0.4537 -0.0698
  319MOL0     C42010   9.833   8.896   6.489  0.3529 -0.5945  0.4739
  319MOL0     O42011   9.795   8.763   6.463 -0.0183  0.1688  0.2181
  319MOL0     C42012   9.905   8.674   6.415  0.2760  0.5335  0.9091
  319MOL0     C42013   9.843   8.531   6.428  0.3334 -0.5214  0.6406
  319MOL0     C42014   9.728   8.522   6.314  0.0918  1.1273 -0.3064
  319MOL0     C42015   9.669   8.382   6.310  0.7572  0.9062  0.5375
  319MOL0     C42016   9.579   8.355   6.190 -0.1589  1.1888  0.0051
  319MOL0     C42017   9.457   8.279   6.223 -0.5892 -0.0017 -0.9185
  319MOL0     C42018   9.350   8.273   6.113 -0.0040  0.2510 -0.3986
  319MOL0     C42019   9.404   8.237   5.979  0.9498 -0.2697  0.4916
  319MOL0    Cl42020   9.264   8.229   5.855  0.0204  0.0005 -0.2647
  319MOL0     C42021   9.959   8.937   6.539 -0.0759  0.2599  0.6034
  319MOL0     C42022   9.980   9.071   6.579  0.2530  0.1459 -1.3803
  319MOL0     O42023  10.116   9.363   6.569 -0.2655  0.1402  0.2123
  319MOL0     C42024   9.829   9.585   6.556 -0.3719 -1.1076  0.9570
  319MOL0     C42025   9.800   9.726   6.567 -0.8736  0.4199 -0.2139
  319MOL0     N42026   9.351   9.974   6.280 -0.5028 -0.1544  0.3940
  319MOL0     N42027   9.308   9.877   6.215 -0.1964 -0.0867 -0.8631
  319MOL0     C42028  10.050   9.774   5.752  0.1850  0.1258  0.1987
  319MOL0     C42029  10.187   9.730   5.751  1.0736 -0.3894 -0.3705
  319MOL0     C42030  10.600   9.585   5.680  0.3642  1.6794 -0.3745
  319MOL0     C42031  10.662   9.475   5.742 -0.4299  0.2091  1.0064
  319MOL0     C42032  10.801   9.453   5.730  0.1537  0.1493 -0.7834
  319MOL0     C42033  10.886   9.555   5.670  0.3559 -0.0722  0.2056
  319MOL0     O42034  11.017   9.558   5.662  0.0547  0.0386 -0.7528
  319MOL0     C42035  11.092   9.432   5.674 -0.1979 -0.5826 -0.3378
  319MOL0     C42036  11.231   9.450   5.602 -0.5608  0.0955 -0.2897
  319MOL0     C42037  11.336   9.531   5.677 -0.7574 -0.2785  0.7903
  319MOL0     C42038  11.480   9.518   5.635 -0.0077  0.2122  0.3441
  319MOL0     C42039  11.541   9.390   5.669  0.2286 -0.0445 -0.1549
  319MOL0     C42040  11.583   9.287   5.706 -0.1131 -0.5310 -0.1111
  319MOL0     C42041  10.826   9.669   5.614  0.1986  0.0828 -0.5191
  319MOL0     C42042  10.684   9.683   5.620  0.4066 -0.3737  0.8955
  319MOL0     H42043  10.317   9.939   5.527 -0.2501  1.0611 -0.7225
  319MOL0     H42044  10.091  10.047   5.547 -0.3078 -2.1534 -3.1590
  319MOL0     H42045   9.948  10.143   5.731  1.3816 -0.9043  1.0578
  319MOL0     H42046   9.850  10.076   5.855  1.5685  0.6590 -0.6361
  319MOL0     H42047   9.758  10.145   5.577 -2.2790  0.3194 -1.6369
  319MOL0     H42048   9.751  10.248   5.725  1.4207 -0.6009 -0.3424
  319MOL0     H42049   9.518  10.150   5.667  0.2949 -2.2593 -2.8361
  319MOL0     H42050   9.588  10.103   5.825  1.0316  1.6696  0.3429
  319MOL0     H42051   9.602   9.944   5.569 -0.1348 -0.2475  0.3746
  319MOL0     H42052   9.643   9.881   5.726 -3.5970 -3.2591  0.7260
  319MOL0     H42053   9.410   9.800   5.633 -4.8410  1.6358 -1.8435
  319MOL0     H42054   9.354   9.962   5.650  0.9515 -0.4147 -0.1707
  319MOL0     H42055   9.290   9.865   5.855  0.1255 -0.2016 -0.2767
  319MOL0     H42056   9.437   9.952   5.906  1.1257  0.4324 -1.0743
  319MOL0     H42057   9.439   9.664   5.831 -2.0108  0.9156  1.0973
  319MOL0     H42058   9.568   9.752   5.921  0.1594 -1.8746  1.0233
  319MOL0     H42059   9.452   9.625   6.073 -1.9071 -0.7350  1.1405
  319MOL0     H42060   9.301   9.696   6.040  0.3842 -0.3550 -1.0786
  319MOL0     H42061   9.628   9.871   6.138 -0.0947 -0.3067  0.5247
  319MOL0     H42062   9.535  10.210   6.261  0.5678  1.5742  2.3980
  319MOL0     H42063   9.672  10.111   6.253  0.3595 -2.7230  2.3988
  319MOL0     H42064   9.485  10.144   6.489  1.2572  1.6487  0.9259
  319MOL0     H42065   9.639  10.231   6.465  3.9723 -1.2666 -2.9144
  319MOL0     H42066   9.680  10.070   6.641 -2.1493 -1.2337  1.2172
  319MOL0     H42067   9.607   9.940   6.542  1.8439 -1.0571 -1.4348
  319MOL0     H42068   9.847  10.099   6.455 -2.0156 -0.0179  0.6967
  319MOL0     H42069   9.798   9.937   6.400  1.1250  1.2115 -0.0151
  319MOL0     H42070  10.130   9.831   6.594  0.6900  0.1016 -3.1578
  319MOL0     H42071  10.168   9.606   6.625  1.0760  3.3828  2.8525
  319MOL0     H42072   9.666   9.186   6.530 -1.7886 -1.5232  1.2436
  319MOL0     H42073   9.654   8.949   6.433 -0.5004  2.6556 -1.3541
  319MOL0     H42074   9.992   8.690   6.478  1.1059  2.3095 -0.5894
  319MOL0     H42075   9.936   8.686   6.311 -2.8685  0.8301 -0.1250
  319MOL0     H42076   9.812   8.514   6.532  0.6638  1.0507  1.0282
  319MOL0     H42077   9.921   8.458   6.403  0.9123  0.5484 -0.8424
  319MOL0     H42078   9.783   8.542   6.222  0.0629  1.1599 -0.3169
  319MOL0     H42079   9.647   8.594   6.322 -0.2293  0.7793 -0.4200
  319MOL0     H42080   9.748   8.307   6.312 -0.7557 -0.7816  1.7176
  319MOL0     H42081   9.608   8.367   6.400  0.5231  3.7837  0.9525
  319MOL0     H42082   9.642   8.301   6.118  0.2108 -0.7516  1.6983
  319MOL0     H42083   9.556   8.450   6.140  1.3134  0.9830 -1.1182
  319MOL0     H42084   9.412   8.314   6.317  2.0710 -0.2365  0.5478
  319MOL0     H42085   9.485   8.174   6.234  3.4794  0.9672 -0.4801
  319MOL0     H42086   9.278   8.200   6.152 -0.2366  1.3048  1.2504
  319MOL0     H42087   9.297   8.367   6.095  0.0384  0.7525  1.8159
  319MOL0     H42088   9.451   8.139   5.988 -2.7447 -2.1387  1.3523
  319MOL0     H42089   9.483   8.308   5.951  0.3620  0.7230  1.2672
  319MOL0     H42090  10.044   8.871   6.549 -1.4361 -1.6981 -0.0987
  319MOL0     H42091  10.082   9.104   6.594  0.3322  0.1037 -1.8025
  319MOL0     H42092   9.753   9.517   6.521  0.6393 -1.2309 -1.1803
  319MOL0     H42093   9.696   9.756   6.568 -1.1424 -0.4588 -0.7389
  319MOL0     H42094   9.976   9.730   5.817  1.7059 -0.4669  1.5848
  319MOL0     H42095  10.200   9.632   5.796 -1.3232 -1.9972 -2.9064
  319MOL0     H42096  10.606   9.395   5.789 -0.0260 -0.5209  0.2776
  319MOL0     H42097  10.849   9.366   5.773 -1.1123  0.4714  1.4268
  319MOL0     H42098  11.031   9.353   5.628  1.2081 -2.5026  0.9424
  319MOL0     H42099  11.108   9.390   5.773  0.3442 -2.9272 -1.3428
  319MOL0     H42100  11.262   9.345   5.607 -3.3257 -0.8736 -1.6054
  319MOL0     H42101  11.219   9.487   5.500 -5.2772 -3.2539 -1.2789
  319MOL0     H42102  11.333   9.509   5.784 -3.3882  0.7320  0.9832
  319MOL0     H42103  11.314   9.635   5.653 -2.0324 -1.0371 -1.7483
  319MOL0     H42104  11.498   9.547   5.531  0.7246  0.5340  0.5505
  319MOL0     H42105  11.537   9.596   5.686  1.1850 -1.3335  1.4408
  319MOL0     H42106  11.618   9.189   5.729 -1.3407 -1.1453 -0.7866
  319MOL0     H42107  10.888   9.743   5.564 -0.2658  1.3098  0.6556
  319MOL0     H42108  10.642   9.765   5.563  1.2829  0.0213  0.7960
  320MOL0     O42109   1.851   7.323   4.982 -0.8188  0.4953  0.5647
  320MOL0     C42110   1.903   7.411   5.051  1.3994 -0.0790 -0.2634
  320MOL0     O42111   1.864   7.547   5.053 -0.2869  0.2207 -1.5748
  320MOL0     C42112   1.762   7.581   4.965  0.1165 -0.0406  0.3106
  320MOL0     C42113   1.630   7.600   5.006 -0.4598  1.1385 -0.0411
  320MOL0     C42114   1.528   7.630   4.918 -0.3828  0.4785  0.4095
  320MOL0     C42115   1.557   7.656   4.788  0.3661 -1.3668  0.2620
  320MOL0     O42116   1.452   7.682   4.699  1.2414 -0.2455  0.9854
  320MOL0     C42117   1.475   7.700   4.560  0.3736 -0.0764  0.2080
  320MOL0     C42118   1.355   7.647   4.467  0.3779 -0.5826 -1.4433
  320MOL0     C42119   1.223   7.733   4.470 -0.1530 -0.0932 -0.5187
  320MOL0     C42120   1.107   7.665   4.393  0.2081 -0.5796  0.0397
  320MOL0     C42121   0.979   7.759   4.394  0.0984 -0.0795 -0.1206
  320MOL0     C42122   0.861   7.716   4.299 -0.5845  1.4090  0.4689
  320MOL0     C42123   0.732   7.791   4.325 -0.0870  0.3701  0.3690
  320MOL0     C42124   0.626   7.734   4.221  0.4039 -0.1574  0.1117
  320MOL0     N42125   0.524   7.832   4.198  0.0889  0.4888  0.2303
  320MOL0     C42126   0.432   7.823   4.097 -0.0009  0.0212  0.3402
  320MOL0     C42127   0.350   7.929   4.111 -0.2343 -0.2379  0.2822
  320MOL0     C42128   0.227   7.962   4.038  0.0023 -0.4917  0.3390
  320MOL0     C42129   0.264   8.038   3.907 -0.4855 -0.2890 -0.1782
  320MOL0     C42130   0.144   8.091   3.826 -0.4654  0.3188  0.7537
  320MOL0     C42131   0.053   7.976   3.796  0.5226 -0.0263 -0.0984
  320MOL0     O42132  -0.022   8.005   3.675 -0.1408  0.3652  0.0462
  320MOL0     C42133   0.035   8.022   3.550 -1.1497  1.0594 -0.8552
  320MOL0     C42134  -0.039   8.101   3.458 -0.2650 -0.1152  0.0369
  320MOL0     C42135   0.014   8.112   3.328  0.0865  0.0077 -1.2197
  320MOL0     C42136   0.131   8.042   3.289  0.3001  0.1072 -0.1203
  320MOL0     C42137   0.174   8.050   3.146  0.3221  0.0891 -1.1355
  320MOL0     O42138   0.076   8.100   3.059  0.8366  0.3407  0.4215
  320MOL0     C42139   0.118   8.109   2.928 -1.2449  1.0466  0.2554
  320MOL0     C42140   0.170   8.229   2.883  0.0706 -0.7244 -0.8027
  320MOL0     C42141   0.220   8.251   2.750  0.5774  0.9314 -0.2476
  320MOL0     C42142   0.220   8.138   2.655 -0.2716  0.3756 -1.0114
  320MOL0     O42143   0.266   8.156   2.521 -0.5804  0.1361  0.4544
  320MOL0     C42144   0.248   8.053   2.424  1.1869  0.2974  0.3636
  320MOL0     C42145   0.271   8.099   2.281  0.7205 -0.6039  0.3073
  320MOL0     C42146   0.405   8.171   2.231 -0.1615 -1.1598  0.1688
  320MOL0     C42147   0.508   8.071   2.196  1.2754  0.6314  0.2923
  320MOL0     C42148   0.647   8.126   2.170  0.1461 -0.5958 -0.2397
  320MOL0     C42149   0.724   8.165   2.299 -0.2962 -0.6298 -0.5213
  320MOL0     C42150   0.760   8.054   2.393 -0.5422  0.4117  0.7352
  320MOL0     C42151   0.837   7.941   2.324 -0.7746  1.1119  0.5255
  320MOL0    Cl42152   0.724   7.806   2.273 -0.0798  0.1335  0.0203
  320MOL0     C42153   0.187   8.015   2.709  0.1228  0.5440 -0.7376
  320MOL0     C42154   0.127   8.002   2.839 -0.0121  0.1179  0.4957
  320MOL0     O42155   0.283   8.021   3.116  0.6772 -0.5475  0.2569
  320MOL0     C42156   0.210   7.973   3.385  0.7960  1.1446 -1.5231
  320MOL0     C42157   0.155   7.954   3.512 -0.2591 -0.1367 -0.1448
  320MOL0     N42158   0.397   8.006   4.223 -0.7309  0.8902 -0.6966
  320MOL0     N42159   0.503   7.942   4.273  0.9268  0.0610  0.9545
  320MOL0     C42160   1.695   7.651   4.744 -0.1811  0.1435 -0.3184
  320MOL0     C42161   1.798   7.605   4.835  0.1422  0.6525  0.5598
  320MOL0     C42162   2.002   7.372   5.157 -0.0642 -0.8671 -0.7250
  320MOL0     C42163   2.037   7.239   5.191  0.5991  0.0570  0.6059
  320MOL0     C42164   2.113   7.213   5.305  0.0435  0.3229 -0.4521
  320MOL0     C42165   2.174   7.319   5.379  0.6744  0.1656 -0.4274
  320MOL0     O42166   2.253   7.312   5.490  0.1312 -0.0383  0.5905
  320MOL0     C42167   2.321   7.180   5.515 -0.6253 -0.2951  0.6766
  320MOL0     C42168   2.465   7.193   5.571  0.4346  0.0315  0.0278
  320MOL0     C42169   2.479   7.237   5.712  0.4634  1.0307 -0.8041
  320MOL0     C42170   2.393   7.363   5.749  0.2945 -0.2719  0.2973
  320MOL0     C42171   2.416   7.395   5.888 -0.3222 -0.3044  0.1126
  320MOL0     C42172   2.431   7.420   6.007 -0.5034 -0.0247  0.4189
  320MOL0     C42173   2.149   7.450   5.329 -0.3425 -0.3390  0.4163
  320MOL0     C42174   2.062   7.479   5.226 -0.4968 -0.4966  0.5025
  320MOL0     H42175   1.601   7.563   5.103 -1.0826 -0.9983 -0.9904
  320MOL0     H42176   1.422   7.638   4.938 -1.4965 -1.5245 -3.5842
  320MOL0     H42177   1.556   7.636   4.524 -1.1026 -1.2269 -1.2388
  320MOL0     H42178   1.502   7.802   4.532  0.4546  0.0138  0.6100
  320MOL0     H42179   1.337   7.545   4.503  1.9975 -0.0167  1.2596
  320MOL0     H42180   1.392   7.626   4.367 -1.8577 -3.4171 -1.8439
  320MOL0     H42181   1.242   7.828   4.419  0.4449  0.2227  0.2631
  320MOL0     H42182   1.205   7.752   4.576 -0.0502  3.9785 -1.0717
  320MOL0     H42183   1.142   7.656   4.289 -2.2901 -0.4413 -0.8728
  320MOL0     H42184   1.078   7.564   4.425 -2.7513  1.1026  3.3092
  320MOL0     H42185   0.993   7.863   4.364 -2.0330  0.1472 -0.5247
  320MOL0     H42186   0.929   7.759   4.492  2.2103  1.2999  1.0558
  320MOL0     H42187   0.846   7.608   4.299  1.1836  1.1252 -0.0386
  320MOL0     H42188   0.899   7.724   4.196  1.9236 -2.9495  0.7969
  320MOL0     H42189   0.708   7.764   4.428 -0.4350 -2.2316 -0.3218
  320MOL0     H42190   0.766   7.894   4.309  3.3979 -0.7869 -0.6322
  320MOL0     H42191   0.585   7.637   4.253  0.5211 -0.2278  0.0491
  320MOL0     H42192   0.673   7.694   4.131  1.0443  0.8453 -0.0103
  320MOL0     H42193   0.423   7.732   4.039  1.8266 -0.1672  0.2921
  320MOL0     H42194   0.156   8.011   4.105 -0.2756  0.6628 -0.7640
  320MOL0     H42195   0.187   7.862   4.019 -0.3212  0.0261 -1.9459
  320MOL0     H42196   0.329   7.989   3.833 -1.8500  0.8553 -2.2537
  320MOL0     H42197   0.322   8.123   3.943  0.6769 -1.0446 -0.2109
  320MOL0     H42198   0.090   8.176   3.870 -1.2167  1.8259 -2.7163
  320MOL0     H42199   0.173   8.144   3.735 -3.5545  0.1110 -0.4685
  320MOL0     H42200  -0.016   7.956   3.878 -1.7523  0.4407 -1.7931
  320MOL0     H42201   0.110   7.883   3.790 -2.0317 -1.7509  0.8316
  320MOL0     H42202  -0.136   8.142   3.483 -0.7630  0.1786 -2.1813
  320MOL0     H42203  -0.039   8.174   3.256 -1.5759  1.3470  1.0368
  320MOL0     H42204   0.168   8.315   2.948 -2.0475 -1.7955  0.6568
  320MOL0     H42205   0.258   8.348   2.719  2.9450  0.7484  1.7582
  320MOL0     H42206   0.141   8.032   2.437  1.0442 -1.0317 -2.3425
  320MOL0     H42207   0.310   7.966   2.449  0.4411 -0.0928  0.9042
  320MOL0     H42208   0.187   8.167   2.261  0.5027 -0.9908 -0.1250
  320MOL0     H42209   0.244   8.022   2.208 -0.8258  1.4976 -1.4746
  320MOL0     H42210   0.446   8.251   2.294 -0.4219 -0.6532 -0.2948
  320MOL0     H42211   0.381   8.218   2.135 -2.7531 -0.5545  1.0047
  320MOL0     H42212   0.514   8.008   2.285  0.9332  1.8497  1.2077
  320MOL0     H42213   0.475   8.013   2.109 -2.1291 -0.2424  1.9950
  320MOL0     H42214   0.640   8.222   2.118 -0.7020  0.0104  0.9409
  320MOL0     H42215   0.701   8.063   2.099 -1.4828 -0.9549 -1.2013
  320MOL0     H42216   0.672   8.236   2.364  0.3353 -1.6279  1.1354
  320MOL0     H42217   0.816   8.210   2.261 -0.1393 -0.4588  0.0442
  320MOL0     H42218   0.839   8.101   2.454  3.6440  0.5790 -4.1625
  320MOL0     H42219   0.672   8.013   2.443 -1.9869  0.0113 -1.9973
  320MOL0     H42220   0.910   7.903   2.395 -1.1916 -1.0786 -0.1609
  320MOL0     H42221   0.886   7.968   2.231 -2.9914 -0.1046 -1.0979
  320MOL0     H42222   0.174   7.927   2.647 -1.3436  1.3571 -1.6616
  320MOL0     H42223   0.107   7.897   2.860 -1.6673  0.5996  1.4749
  320MOL0     H42224   0.305   7.930   3.355  1.2652  0.5798  0.5948
  320MOL0     H42225   0.208   7.890   3.582 -1.7495  0.7310  1.8282
  320MOL0     H42226   1.721   7.670   4.640  2.0711  2.8804  0.6229
  320MOL0     H42227   1.900   7.587   4.804  0.0180  3.4154 -1.8168
  320MOL0     H42228   2.002   7.159   5.126  1.7599  0.0901 -0.0924
  320MOL0     H42229   2.121   7.108   5.333 -3.2253  0.3172  0.9242
  320MOL0     H42230   2.327   7.122   5.423  2.6501  1.4245 -0.3800
  320MOL0     H42231   2.263   7.115   5.581  3.9214 -5.2656  0.4795
  320MOL0     H42232   2.500   7.090   5.574  0.7795  0.1658  1.1269
  320MOL0     H42233   2.521   7.250   5.496 -2.1005 -0.9654 -2.8242
  320MOL0     H42234   2.584   7.260   5.733  1.0879 -2.9612  1.4813
  320MOL0     H42235   2.448   7.154   5.776  2.1494  1.6394  0.9218
  320MOL0     H42236   2.417   7.454   5.692  0.9994 -0.6242  0.0185
  320MOL0     H42237   2.288   7.336   5.735  0.1603  0.7678 -0.8612
  320MOL0     H42238   2.447   7.450   6.108 -3.1949 -0.5061  1.0918
  320MOL0     H42239   2.193   7.536   5.378 -0.8687  0.0558  0.2057
  320MOL0     H42240   2.038   7.583   5.204 -1.4433  0.2298  4.2094
  321MOL0     O42241   9.526   7.244   2.817 -0.6865  0.0392 -0.0496
  321MOL0     C42242   9.565   7.166   2.737 -0.0605  0.3654  0.4558
  321MOL0     O42243   9.506   7.051   2.701 -0.2955  0.1755 -0.3206
  321MOL0     C42244   9.389   7.010   2.760 -0.4382 -0.0032  0.3273
  321MOL0     C42245   9.394   6.993   2.896  0.9601  0.0444  0.8754
  321MOL0     C42246   9.278   6.938   2.953 -0.9604 -0.5136  0.4323
  321MOL0     C42247   9.161   6.908   2.878 -0.5168  0.5501 -1.2359
  321MOL0     O42248   9.037   6.861   2.928 -0.2027  1.6895 -0.6599
  321MOL0     C42249   9.025   6.846   3.072 -1.5721  1.2020  0.2078
  321MOL0     C42250   8.884   6.799   3.107 -0.0872  0.2487  0.3484
  321MOL0     C42251   8.770   6.874   3.051 -0.3288 -0.2316  0.8089
  321MOL0     C42252   8.649   6.890   3.138  0.6835  0.0748  0.5154
  321MOL0     C42253   8.653   7.014   3.231  0.7015  0.3083 -0.1251
  321MOL0     C42254   8.515   7.037   3.307 -0.0793 -0.2891  0.2006
  321MOL0     C42255   8.507   7.159   3.403 -0.3968  0.3241  0.5265
  321MOL0     C42256   8.369   7.175   3.473 -0.7386 -0.0722  0.2094
  321MOL0     N42257   8.248   7.196   3.393 -0.2609  0.1726  0.2329
  321MOL0     C42258   8.236   7.298   3.307 -0.8066  0.6988  0.7396
  321MOL0     C42259   8.127   7.263   3.243  0.8634  0.7264 -0.6263
  321MOL0     C42260   8.057   7.348   3.146  0.2834  0.1411 -0.1586
  321MOL0     C42261   7.934   7.405   3.200 -0.2304  0.9627  0.2044
  321MOL0     C42262   7.958   7.503   3.317  0.1164  1.1182  0.5144
  321MOL0     C42263   8.016   7.636   3.278 -0.4870 -0.2686 -1.6361
  321MOL0     O42264   8.012   7.729   3.386  0.0284 -0.1074 -0.7923
  321MOL0     C42265   8.001   7.862   3.360  0.0831  0.4040 -0.4804
  321MOL0     C42266   7.945   7.950   3.464  1.0204  0.5117  1.1165
  321MOL0     C42267   7.941   8.091   3.440 -0.1840 -0.0348  0.8785
  321MOL0     C42268   7.997   8.148   3.322 -0.7431  0.0544 -0.4958
  321MOL0     C42269   7.964   8.282   3.282 -0.8514 -0.8265 -1.1010
  321MOL0     O42270   8.031   8.356   3.176 -0.5437 -0.6982 -0.3819
  321MOL0     C42271   7.993   8.491   3.141 -0.4034  0.9791  0.3147
  321MOL0     C42272   7.866   8.541   3.148 -0.5724 -0.7937  0.0262
  321MOL0     C42273   7.846   8.664   3.086  0.2623  0.2220 -1.1906
  321MOL0     C42274   7.950   8.742   3.028  0.7621 -0.4047 -0.2638
  321MOL0     O42275   7.913   8.875   2.996  0.3521  0.6941 -0.1440
  321MOL0     C42276   8.008   8.952   2.922 -0.2528  0.7256  0.2147
  321MOL0     C42277   7.961   9.099   2.908  0.7818 -0.4330  0.7791
  321MOL0     C42278   8.056   9.171   2.812  0.5653 -0.9579  0.4320
  321MOL0     C42279   8.010   9.324   2.807 -0.1343  0.1094  0.4218
  321MOL0     C42280   8.121   9.415   2.750  0.1311 -0.1189 -0.3893
  321MOL0     C42281   8.070   9.557   2.713 -0.1467 -0.7928 -0.1882
  321MOL0     C42282   7.992   9.624   2.825  0.4994 -0.6867  0.0576
  321MOL0     C42283   7.972   9.768   2.786 -0.6602  0.0625 -0.0052
  321MOL0    Cl42284   8.133   9.868   2.833  0.1319  0.1343  0.4064
  321MOL0     C42285   8.082   8.690   3.033 -0.5352 -0.3605 -0.2700
  321MOL0     C42286   8.093   8.560   3.080 -0.3222  0.1714 -1.2246
  321MOL0     O42287   7.872   8.329   3.344  0.2489 -0.1260  0.0072
  321MOL0     C42288   8.059   8.069   3.230  1.1747 -0.4526  0.6793
  321MOL0     C42289   8.067   7.934   3.255 -0.5302  0.7198  0.1419
  321MOL0     N42290   8.081   7.140   3.275 -0.0024 -0.0119 -1.1105
  321MOL0     N42291   8.158   7.098   3.374 -0.7429  0.2061  0.0130
  321MOL0     C42292   9.160   6.943   2.741  0.6098  0.9408  0.1001
  321MOL0     C42293   9.275   6.978   2.678 -0.5214  0.0914 -0.1007
  321MOL0     C42294   9.683   7.220   2.665  0.0693  0.3936 -0.0670
  321MOL0     C42295   9.749   7.339   2.703  0.3833 -0.3067 -0.5650
  321MOL0     C42296   9.858   7.384   2.625 -0.0867  0.2444  0.3698
  321MOL0     C42297   9.911   7.298   2.524  0.1269  0.1835 -0.3868
  321MOL0     O42298  10.032   7.319   2.451  0.3567  0.4123  0.5665
  321MOL0     C42299  10.142   7.357   2.530  0.0982 -0.6835 -0.0602
  321MOL0     C42300  10.252   7.244   2.531  0.7703  0.0638 -0.3378
  321MOL0     C42301  10.283   7.188   2.388 -0.2238 -0.1359  0.1417
  321MOL0     C42302  10.332   7.299   2.293 -1.2518  1.2134  0.9652
  321MOL0     C42303  10.472   7.347   2.325 -0.5551 -0.0109 -0.1771
  321MOL0     C42304  10.573   7.399   2.363 -0.5008  0.4276 -0.7374
  321MOL0     C42305   9.835   7.180   2.485 -0.3164  0.1419  0.3040
  321MOL0     C42306   9.727   7.141   2.553  0.0786  0.3764 -0.4210
  321MOL0     H42307   9.482   7.021   2.954  1.5982 -0.8711  0.3803
  321MOL0     H42308   9.277   6.913   3.059  1.0110  0.9490  0.8331
  321MOL0     H42309   9.034   6.940   3.127  2.5941  0.2769  1.4500
  321MOL0     H42310   9.105   6.780   3.107 -0.9987  1.7167 -0.1162
  321MOL0     H42311   8.879   6.813   3.215  2.4740  4.3699  0.1471
  321MOL0     H42312   8.863   6.696   3.076 -3.5919  1.1070 -0.5551
  321MOL0     H42313   8.750   6.840   2.949 -0.4894 -2.0490  1.4169
  321MOL0     H42314   8.802   6.977   3.033 -0.3919 -0.5227 -1.2588
  321MOL0     H42315   8.563   6.904   3.071  0.4435  1.5147  1.0882
  321MOL0     H42316   8.636   6.805   3.206  1.0798  1.6101  2.6197
  321MOL0     H42317   8.667   7.105   3.173 -0.8121  1.0160  0.5820
  321MOL0     H42318   8.722   6.995   3.313  0.8087  1.0254 -0.0457
  321MOL0     H42319   8.486   6.947   3.361  0.3424 -1.0473 -0.8035
  321MOL0     H42320   8.439   7.050   3.229 -1.4593  2.2450  1.8308
  321MOL0     H42321   8.584   7.147   3.481  1.3850  0.2711 -1.1528
  321MOL0     H42322   8.528   7.255   3.355 -0.9098  0.9869  1.5959
  321MOL0     H42323   8.379   7.253   3.549 -1.6946 -0.5092  0.7837
  321MOL0     H42324   8.363   7.085   3.534  1.8727  0.2323  1.0694
  321MOL0     H42325   8.293   7.390   3.302 -2.8473  2.1183  2.2976
  321MOL0     H42326   8.042   7.283   3.060 -2.6866  2.8720 -1.9163
  321MOL0     H42327   8.114   7.437   3.117 -0.6333  1.7526  2.5396
  321MOL0     H42328   7.865   7.331   3.242 -2.2879  1.5716 -1.9150
  321MOL0     H42329   7.892   7.460   3.116 -1.7619  0.2034  0.4450
  321MOL0     H42330   7.859   7.536   3.351  0.4150  3.7709 -0.8495
  321MOL0     H42331   8.025   7.462   3.392  1.1190  1.1398 -0.3414
  321MOL0     H42332   7.957   7.678   3.196 -0.3606  2.8035 -0.2853
  321MOL0     H42333   8.120   7.636   3.241  0.8218  1.7998  1.5851
  321MOL0     H42334   7.912   7.908   3.558  0.2554 -1.0472  0.2015
  321MOL0     H42335   7.899   8.149   3.521 -1.3023  0.0584  0.2519
  321MOL0     H42336   7.779   8.493   3.190  0.5926 -0.4313  3.1562
  321MOL0     H42337   7.745   8.704   3.080  0.0247  0.5254  2.5097
  321MOL0     H42338   8.016   8.896   2.829  0.2907 -0.1005  0.7360
  321MOL0     H42339   8.103   8.955   2.976 -0.0860 -0.7449  0.0485
  321MOL0     H42340   7.958   9.148   3.006  1.0204 -1.6754  1.4259
  321MOL0     H42341   7.860   9.103   2.867  1.1832  2.1610 -0.1741
  321MOL0     H42342   8.063   9.124   2.713 -0.3385 -0.2658  0.0187
  321MOL0     H42343   8.161   9.173   2.840  1.4596  0.5513 -2.6152
  321MOL0     H42344   7.915   9.339   2.755 -0.2894 -1.1614  0.2952
  321MOL0     H42345   7.979   9.344   2.910 -0.8368 -1.3680  0.5280
  321MOL0     H42346   8.164   9.374   2.658 -0.7996  0.6380 -1.1756
  321MOL0     H42347   8.200   9.432   2.824  0.8170 -0.7263 -0.9555
  321MOL0     H42348   7.994   9.548   2.636  0.4150  1.1545 -1.0364
  321MOL0     H42349   8.160   9.612   2.684 -0.2938  0.3477  1.3749
  321MOL0     H42350   7.889   9.591   2.837 -0.4436  0.4603 -3.4798
  321MOL0     H42351   8.047   9.610   2.918 -0.2145 -2.8594  0.2206
  321MOL0     H42352   7.878   9.802   2.832 -3.0249 -2.3696 -2.6190
  321MOL0     H42353   7.954   9.778   2.679 -1.1717  2.8704  0.2465
  321MOL0     H42354   8.158   8.755   2.991 -1.7193  2.2011  1.3025
  321MOL0     H42355   8.189   8.509   3.080  2.6417  5.0874  0.7807
  321MOL0     H42356   8.094   8.126   3.146 -4.2371 -1.7230 -2.9867
  321MOL0     H42357   8.130   7.877   3.188 -0.7168  1.1733 -0.4254
  321MOL0     H42358   9.068   6.937   2.684  0.3655  0.3934  0.5523
  321MOL0     H42359   9.294   6.985   2.571 -1.5691 -3.0330 -0.6081
  321MOL0     H42360   9.708   7.390   2.790 -1.3260  0.4668 -1.7786
  321MOL0     H42361   9.917   7.474   2.637  2.1075 -0.9450 -0.8028
  321MOL0     H42362  10.098   7.371   2.629 -1.9319 -0.9186 -0.8775
  321MOL0     H42363  10.178   7.454   2.495 -1.0776  0.3880  1.5335
  321MOL0     H42364  10.342   7.284   2.581 -0.3599  1.8428  0.3855
  321MOL0     H42365  10.218   7.164   2.597 -0.0376  1.3618  0.8714
  321MOL0     H42366  10.191   7.139   2.355  0.9926 -2.5234  0.0499
  321MOL0     H42367  10.363   7.118   2.412  1.5863  1.9395  0.5028
  321MOL0     H42368  10.331   7.270   2.187  0.1194  3.2345  0.3425
  321MOL0     H42369  10.265   7.386   2.293  0.7549  3.0103 -3.0380
  321MOL0     H42370  10.653   7.441   2.420 -0.5880 -2.5921  1.8373
  321MOL0     H42371   9.878   7.116   2.408 -0.3250  2.1534 -1.4768
  321MOL0     H42372   9.670   7.058   2.514  0.2258  1.6455 -3.6535
  322MOL0     O42373   8.717   9.959   5.174 -0.6075 -0.3479  0.1559
  322MOL0     C42374   8.736   9.877   5.256 -0.0840  0.0167 -1.2239
  322MOL0     O42375   8.857   9.804   5.271  0.2830 -0.4771 -0.9429
  322MOL0     C42376   8.953   9.852   5.194 -0.1910 -0.1238 -0.0126
  322MOL0     C42377   8.980   9.800   5.066 -1.1324 -0.3859  0.1154
  322MOL0     C42378   9.063   9.863   4.972  0.0622 -0.3053  0.1384
  322MOL0     C42379   9.124   9.983   5.003 -0.3534  0.4871  0.5825
  322MOL0     O42380   9.210  10.039   4.914 -0.1432 -0.9641  0.0485
  322MOL0     C42381   9.287  10.153   4.966  0.0859 -0.1124  0.2354
  322MOL0     C42382   9.416  10.195   4.885  0.6607  0.6721 -0.1406
  322MOL0     C42383   9.495  10.070   4.833  0.0374  0.2086  0.3878
  322MOL0     C42384   9.564  10.001   4.943  0.2324  0.0367  0.1487
  322MOL0     C42385   9.677   9.913   4.888  0.6130 -0.1422 -0.1310
  322MOL0     C42386   9.628   9.800   4.797  0.2460 -0.0034 -0.2657
  322MOL0     C42387   9.743   9.715   4.761 -0.0816  0.0040 -0.3705
  322MOL0     C42388   9.708   9.615   4.654 -0.0760  0.4693  0.1811
  322MOL0     N42389   9.768   9.479   4.666  0.3269 -0.8054  0.3523
  322MOL0     C42390   9.762   9.414   4.792 -1.2000 -0.0747  0.2764
  322MOL0     C42391   9.859   9.320   4.776  0.3632 -0.1345 -0.9306
  322MOL0     C42392   9.882   9.230   4.900  0.2184 -0.7020  0.6073
  322MOL0     C42393   9.803   9.102   4.881  0.4605  0.1747 -0.3300
  322MOL0     C42394   9.842   9.002   4.982 -0.0447  0.0281  0.5512
  322MOL0     C42395   9.848   9.051   5.133 -0.0689 -1.3824 -0.4884
  322MOL0     O42396   9.973   9.120   5.161 -1.0896 -0.5454  0.2427
  322MOL0     C42397  10.093   9.054   5.169 -1.0589 -0.0441 -0.2130
  322MOL0     C42398  10.114   8.920   5.183 -0.7912 -0.6103  0.4233
  322MOL0     C42399  10.242   8.870   5.193 -0.5148 -0.1523 -0.2265
  322MOL0     C42400  10.355   8.957   5.177  0.7600 -0.1996 -0.3134
  322MOL0     C42401  10.493   8.916   5.203  0.8540  0.2481 -0.5180
  322MOL0     O42402  10.514   8.775   5.202 -0.0157  0.4311  0.4433
  322MOL0     C42403  10.629   8.743   5.261  0.3225  1.3176 -0.8311
  322MOL0     C42404  10.753   8.774   5.207  0.6760  0.0928  0.3701
  322MOL0     C42405  10.872   8.725   5.263 -0.0545 -0.4866  0.3492
  322MOL0     C42406  10.874   8.653   5.382  0.6383  0.1807  0.6614
  322MOL0     O42407  10.995   8.616   5.437 -0.1312 -0.8398 -0.7962
  322MOL0     C42408  11.044   8.494   5.384  0.1098 -0.1583  0.1297
  322MOL0     C42409  11.186   8.458   5.439  0.2229  0.1863 -0.0381
  322MOL0     C42410  11.296   8.558   5.421 -0.6249 -0.4044 -0.0327
  322MOL0     C42411  11.425   8.545   5.497  0.4513 -0.0415  0.4175
  322MOL0     C42412  11.406   8.585   5.642  0.4492 -0.8695 -0.5049
  322MOL0     C42413  11.525   8.631   5.723 -0.4059  0.1646  0.0159
  322MOL0     C42414  11.639   8.523   5.737 -0.5975 -0.9479 -0.5982
  322MOL0     C42415  11.750   8.580   5.818 -0.5699  0.4167  0.2408
  322MOL0    Cl42416  11.855   8.464   5.920 -0.0720 -0.0629  0.0955
  322MOL0     C42417  10.751   8.626   5.443  0.5687 -0.3556  0.3712
  322MOL0     C42418  10.629   8.667   5.384 -0.1018  0.1637  0.2200
  322MOL0     O42419  10.581   9.000   5.222 -0.5219  0.4336  0.4400
  322MOL0     C42420  10.333   9.089   5.153 -0.8272 -0.6903  0.0046
  322MOL0     C42421  10.203   9.138   5.157  0.2418 -0.5633 -0.8382
  322MOL0     N42422   9.923   9.338   4.653  0.5532 -0.2164 -0.1018
  322MOL0     N42423   9.862   9.427   4.588 -0.3031  0.2684 -2.1182
  322MOL0     C42424   9.092  10.037   5.134  0.3068 -0.0647  1.4999
  322MOL0     C42425   9.011   9.971   5.232 -0.2057  0.2973 -0.4240
  322MOL0     C42426   8.609   9.835   5.335 -0.3031  0.7036  0.5055
  322MOL0     C42427   8.611   9.707   5.400  0.4244 -0.4381  0.0737
  322MOL0     C42428   8.503   9.676   5.483 -0.1776 -0.2734  0.3405
  322MOL0     C42429   8.391   9.759   5.495 -0.2246  0.1985  0.1388
  322MOL0     O42430   8.299   9.719   5.588  0.1701 -0.8164 -0.2530
  322MOL0     C42431   8.163   9.721   5.549  0.6030 -0.0809 -0.3813
  322MOL0     C42432   8.111   9.587   5.520  1.0169  0.1592 -0.0551
  322MOL0     C42433   8.080   9.491   5.630  0.2188 -0.4633 -0.6457
  322MOL0     C42434   8.054   9.344   5.585 -0.1661  0.5446 -0.4075
  322MOL0     C42435   8.019   9.254   5.692  0.3611 -0.4383 -0.9048
  322MOL0     C42436   7.972   9.183   5.778 -0.5995  0.3651 -0.7350
  322MOL0     C42437   8.387   9.876   5.422  0.4376  0.1513  0.2112
  322MOL0     C42438   8.501   9.909   5.343 -0.2800 -0.1016 -0.3285
  322MOL0     H42439   8.931   9.709   5.032 -2.1841  0.2090  0.0073
  322MOL0     H42440   9.077   9.806   4.880  1.6106 -1.8707  1.2772
  322MOL0     H42441   9.316  10.119   5.066 -2.7047 -1.2819  0.7447
  322MOL0     H42442   9.226  10.243   4.980  2.8172  1.6790  1.5338
  322MOL0     H42443   9.471  10.260   4.955  0.7628 -0.1326  0.5375
  322MOL0     H42444   9.374  10.261   4.808 -1.5045  2.4025  2.3330
  322MOL0     H42445   9.562  10.115   4.759  1.6138 -4.0765 -1.0898
  322MOL0     H42446   9.435   9.997   4.778  1.9394 -0.9688 -0.2033
  322MOL0     H42447   9.612  10.067   5.016  3.0687 -1.1792 -0.4910
  322MOL0     H42448   9.486   9.939   4.989  0.5668 -1.2039 -0.8835
  322MOL0     H42449   9.733   9.889   4.978  0.4809 -0.7628 -0.2040
  322MOL0     H42450   9.747   9.981   4.840  1.8756 -1.6721 -0.5401
  322MOL0     H42451   9.570   9.845   4.716 -1.7946 -2.2354 -0.1429
  322MOL0     H42452   9.558   9.742   4.858  1.8959 -0.6266  1.1144
  322MOL0     H42453   9.829   9.780   4.740  0.8641  0.0678  3.0903
  322MOL0     H42454   9.757   9.664   4.856 -0.4197  3.8096  1.9320
  322MOL0     H42455   9.731   9.653   4.555 -1.9174 -0.6646 -0.7288
  322MOL0     H42456   9.600   9.598   4.649 -0.0690 -0.7270  2.4622
  322MOL0     H42457   9.693   9.415   4.875 -1.7754  0.8361 -0.1820
  322MOL0     H42458   9.858   9.268   5.000 -0.0287 -1.1346  0.7157
  322MOL0     H42459   9.988   9.208   4.895  0.3296  0.0295 -0.5474
  322MOL0     H42460   9.812   9.051   4.784 -1.1560 -0.0604 -0.3834
  322MOL0     H42461   9.697   9.118   4.900  0.1584 -3.4840  2.2376
  322MOL0     H42462   9.758   8.931   4.983 -0.1131  0.0098 -1.4931
  322MOL0     H42463   9.937   8.956   4.950  0.2304 -1.4605  3.2373
  322MOL0     H42464   9.835   8.973   5.209  2.1709  0.1887  1.6943
  322MOL0     H42465   9.769   9.124   5.151  1.6294  0.5036 -0.3372
  322MOL0     H42466  10.022   8.864   5.197 -0.1531 -1.4874  1.2033
  322MOL0     H42467  10.253   8.762   5.204 -1.1443 -0.2520 -0.5299
  322MOL0     H42468  10.762   8.824   5.112  0.8990 -0.2945  0.1831
  322MOL0     H42469  10.958   8.771   5.216 -2.4047  1.3906 -2.4916
  322MOL0     H42470  11.049   8.500   5.275 -0.9559 -0.0281  0.0815
  322MOL0     H42471  10.984   8.405   5.405 -0.1124 -0.9416 -3.1877
  322MOL0     H42472  11.212   8.366   5.385  0.6111 -0.4042  1.1146
  322MOL0     H42473  11.173   8.430   5.544 -0.8248 -2.7422 -0.8361
  322MOL0     H42474  11.253   8.657   5.441  1.2456  0.2729  0.8475
  322MOL0     H42475  11.329   8.561   5.317  1.0151  2.1222  0.4677
  322MOL0     H42476  11.463   8.443   5.491 -0.8937 -0.5620  0.2860
  322MOL0     H42477  11.498   8.619   5.462  0.2172  0.1965  0.4335
  322MOL0     H42478  11.352   8.514   5.706  1.5038 -0.2442  1.1505
  322MOL0     H42479  11.351   8.679   5.646  1.0370 -0.4109 -2.2614
  322MOL0     H42480  11.492   8.657   5.825 -1.4496  1.7592 -0.6849
  322MOL0     H42481  11.570   8.721   5.682  0.5440 -0.3124 -0.0080
  322MOL0     H42482  11.598   8.436   5.787  1.0846 -1.2534  0.3168
  322MOL0     H42483  11.681   8.481   5.645 -0.3027 -1.2344 -0.3321
  322MOL0     H42484  11.703   8.646   5.891 -1.2085 -0.8125  0.9563
  322MOL0     H42485  11.820   8.634   5.753 -0.4855 -0.0991 -0.1071
  322MOL0     H42486  10.740   8.583   5.542 -1.2521 -0.3203  0.2249
  322MOL0     H42487  10.535   8.658   5.438 -0.7375  1.4460 -0.6118
  322MOL0     H42488  10.419   9.153   5.136 -1.8298  0.2990 -1.5628
  322MOL0     H42489  10.184   9.245   5.159 -0.4509 -0.6760  1.6640
  322MOL0     H42490   9.136  10.134   5.156 -0.4688  0.7415 -0.2683
  322MOL0     H42491   8.988  10.013   5.329  0.3059 -1.5199  0.5345
  322MOL0     H42492   8.704   9.651   5.393 -0.5445 -2.4129  1.9576
  322MOL0     H42493   8.510   9.589   5.547  2.7128  0.0982  0.6392
  322MOL0     H42494   8.132   9.795   5.474 -1.9191  1.5586  2.0662
  322MOL0     H42495   8.101   9.751   5.634 -0.4041 -0.1363 -1.0678
  322MOL0     H42496   8.014   9.599   5.471  2.1031 -1.2641 -2.7231
  322MOL0     H42497   8.180   9.536   5.452 -0.0208  0.1284 -1.1193
  322MOL0     H42498   7.994   9.532   5.684  1.6606 -0.1466  1.5634
  322MOL0     H42499   8.159   9.490   5.706  3.6959  1.4137 -3.9076
  322MOL0     H42500   7.980   9.337   5.505 -0.9105  2.2983  0.0718
  322MOL0     H42501   8.148   9.304   5.544  0.8066  0.0017  2.1516
  322MOL0     H42502   7.934   9.132   5.864  0.3053 -1.8700 -1.5720
  322MOL0     H42503   8.297   9.938   5.420 -0.3097 -0.9081  0.0344
  322MOL0     H42504   8.495  10.004   5.291 -1.7855  1.1851  2.0436
  323MOL0     O42505   6.579   1.459  10.666 -0.0165  0.8387  0.3949
  323MOL0     C42506   6.597   1.547  10.578 -0.1036 -0.6538  0.0389
  323MOL0     O42507   6.532   1.545  10.453 -0.2089  0.4190 -0.5998
  323MOL0     C42508   6.451   1.439  10.416 -0.6719 -0.0322  0.5905
  323MOL0     C42509   6.332   1.469  10.351  0.3244 -0.2466  0.1550
  323MOL0     C42510   6.251   1.379  10.294  0.1939 -0.1822  0.1519
  323MOL0     C42511   6.280   1.241  10.304 -0.4291  0.2391 -1.0033
  323MOL0     O42512   6.188   1.148  10.251  0.7581  0.3186  0.4340
  323MOL0     C42513   6.202   1.005  10.250  0.1647 -0.4277 -0.0923
  323MOL0     C42514   6.055   0.942  10.290 -0.7757 -0.4057  0.2577
  323MOL0     C42515   6.018   0.983  10.438 -0.5264 -0.4127 -0.1027
  323MOL0     C42516   5.906   0.907  10.506 -0.2056  0.6781  0.3544
  323MOL0     C42517   5.894   0.946  10.657 -0.3299 -0.1989 -0.1446
  323MOL0     C42518   5.796   0.839  10.724  0.8606  0.6439  0.5746
  323MOL0     C42519   5.746   0.871  10.866  0.5084  0.4938  0.0010
  323MOL0     C42520   5.847   0.873  10.978  0.7182  0.6179  1.1269
  323MOL0     N42521   5.927   0.748  10.999 -0.1842  0.4698  0.0862
  323MOL0     C42522   6.045   0.725  11.057  0.8230 -0.4015  0.7485
  323MOL0     C42523   6.055   0.594  11.080 -0.2634 -0.2952 -0.7154
  323MOL0     C42524   6.169   0.529  11.156  0.0800 -0.7137 -0.5543
  323MOL0     C42525   6.281   0.508  11.065  0.5049  0.8651 -0.4235
  323MOL0     C42526   6.367   0.626  11.077  0.0760 -0.2518  0.9489
  323MOL0     C42527   6.494   0.623  10.987  0.1600  0.6074 -0.5289
  323MOL0     O42528   6.463   0.643  10.847  0.0256  0.3326  0.1259
  323MOL0     C42529   6.554   0.682  10.752 -0.1302  0.0636 -0.4977
  323MOL0     C42530   6.505   0.752  10.636 -0.1523 -0.3218 -0.0085
  323MOL0     C42531   6.592   0.812  10.544  0.4931  0.5629  0.4166
  323MOL0     C42532   6.732   0.797  10.556  0.4855 -0.3496  0.3902
  323MOL0     C42533   6.831   0.868  10.469  0.0256  0.5350  0.3027
  323MOL0     O42534   6.965   0.832  10.459 -0.4769  0.7011 -0.0525
  323MOL0     C42535   7.061   0.891  10.386  0.0512 -0.0875  0.2974
  323MOL0     C42536   7.047   1.012  10.304 -0.0022  0.0372 -0.5256
  323MOL0     C42537   7.157   1.089  10.263 -0.1684 -0.7051  0.5793
  323MOL0     C42538   7.282   1.048  10.287 -0.3982 -0.3996  0.8022
  323MOL0     O42539   7.381   1.138  10.250  0.3271  0.2332 -0.6689
  323MOL0     C42540   7.479   1.072  10.167  0.0372  0.5375  0.6048
  323MOL0     C42541   7.565   1.168  10.082  0.3367  0.1055 -0.1317
  323MOL0     C42542   7.469   1.227   9.977 -0.1327 -0.4387 -0.6193
  323MOL0     C42543   7.542   1.328   9.888  0.4425 -0.7556  0.4213
  323MOL0     C42544   7.460   1.352   9.756  0.0467 -0.2280 -0.0297
  323MOL0     C42545   7.530   1.471   9.679  0.1336 -0.2140  0.2317
  323MOL0     C42546   7.509   1.606   9.739 -0.4855 -0.0225  0.1804
  323MOL0     C42547   7.519   1.722   9.646  0.0044  0.5446 -1.0242
  323MOL0    Cl42548   7.697   1.755   9.614  0.3016  0.0928  0.2663
  323MOL0     C42549   7.305   0.918  10.339 -0.2916 -1.1098  0.3487
  323MOL0     C42550   7.194   0.849  10.393 -0.4967 -0.3951 -0.9501
  323MOL0     O42551   6.778   0.957  10.401  0.2570 -1.0125  0.0636
  323MOL0     C42552   6.778   0.717  10.661  0.3518 -0.0200 -0.6493
  323MOL0     C42553   6.693   0.651  10.756 -0.7221  0.3581  0.5396
  323MOL0     N42554   5.929   0.546  11.060  0.2671  0.6478  0.4753
  323MOL0     N42555   5.863   0.632  10.997 -0.5337 -0.1733  0.7037
  323MOL0     C42556   6.413   1.206  10.355  0.9609 -0.3837  0.5716
  323MOL0     C42557   6.495   1.308  10.409  0.3921 -0.4425  0.2322
  323MOL0     C42558   6.694   1.659  10.619 -0.8444  0.7663  0.4863
  323MOL0     C42559   6.714   1.772  10.533  0.3174 -0.0961 -0.8333
  323MOL0     C42560   6.809   1.872  10.563 -0.5206  0.7675 -0.5218
  323MOL0     C42561   6.888   1.866  10.679  0.1726 -0.0351 -0.1806
  323MOL0     O42562   6.971   1.971  10.695  0.6870  0.6313 -0.0242
  323MOL0     C42563   7.030   1.980  10.824 -0.1513  0.0839 -0.7611
  323MOL0     C42564   7.136   2.092  10.824  0.5765  0.3553 -0.8918
  323MOL0     C42565   7.181   2.139  10.965 -0.3995  1.0723 -0.4671
  323MOL0     C42566   7.325   2.208  10.957  0.7959  0.8579 -0.9039
  323MOL0     C42567   7.330   2.332  10.870 -0.4497 -0.6841  0.5084
  323MOL0     C42568   7.323   2.420  10.777  1.5424  0.7407  0.7577
  323MOL0     C42569   6.862   1.760  10.771 -0.2689  0.4369 -0.6973
  323MOL0     C42570   6.765   1.659  10.740 -0.5676  1.0303  0.3075
  323MOL0     H42571   6.328   1.577  10.355  1.2408 -0.1613 -0.7708
  323MOL0     H42572   6.153   1.411  10.260  1.0396 -0.2247 -2.5531
  323MOL0     H42573   6.272   0.973  10.328  0.7056  2.1152  0.5262
  323MOL0     H42574   6.238   0.958  10.158  3.6371 -0.4830  1.1479
  323MOL0     H42575   6.075   0.835  10.291  0.6504 -0.3318 -3.5152
  323MOL0     H42576   5.976   0.966  10.219  1.4260 -0.5740 -2.4133
  323MOL0     H42577   5.993   1.090  10.443 -0.5329 -0.0301 -4.2666
  323MOL0     H42578   6.108   0.972  10.498 -0.2244 -0.1662 -0.5047
  323MOL0     H42579   5.820   0.948  10.453  0.6712  0.9942 -0.8561
  323MOL0     H42580   5.909   0.798  10.492 -1.5984  0.8648 -1.9630
  323MOL0     H42581   5.850   1.046  10.662 -3.6470 -1.1510 -4.1786
  323MOL0     H42582   5.991   0.933  10.706  0.1086  4.2352  0.6107
  323MOL0     H42583   5.853   0.746  10.722  3.4007  2.1073 -0.3203
  323MOL0     H42584   5.713   0.828  10.654  2.0820  3.9475 -1.6350
  323MOL0     H42585   5.706   0.973  10.861  2.7644  1.4003 -0.9664
  323MOL0     H42586   5.671   0.796  10.893 -0.0459  1.0458  0.0288
  323MOL0     H42587   5.790   0.894  11.069  0.0652  3.5895  0.1514
  323MOL0     H42588   5.922   0.951  10.962  0.7109  0.3950 -0.0886
  323MOL0     H42589   6.112   0.807  11.075  0.9030 -0.5114  0.9511
  323MOL0     H42590   6.136   0.431  11.193  1.2022 -0.1683  2.1336
  323MOL0     H42591   6.187   0.587  11.246 -0.3858 -0.8889 -0.3449
  323MOL0     H42592   6.240   0.504  10.964 -0.1448  3.5489 -0.3357
  323MOL0     H42593   6.333   0.415  11.090 -2.9353 -1.4635 -1.2165
  323MOL0     H42594   6.312   0.717  11.052  0.4627  0.0678  1.2367
  323MOL0     H42595   6.396   0.640  11.182 -0.4912 -2.6325  1.4885
  323MOL0     H42596   6.543   0.528  11.010  0.4520  0.5461 -1.3694
  323MOL0     H42597   6.566   0.702  11.009  0.0399  0.5770 -0.0031
  323MOL0     H42598   6.397   0.755  10.633 -0.1744  1.6535  1.1622
  323MOL0     H42599   6.560   0.868  10.456 -0.2281  0.7310  0.7813
  323MOL0     H42600   6.958   1.072  10.291  1.6158  2.3969 -1.5132
  323MOL0     H42601   7.133   1.190  10.232  0.6114 -0.5821  0.3308
  323MOL0     H42602   7.444   0.996  10.096 -1.6473  2.1260 -0.3521
  323MOL0     H42603   7.552   1.030  10.236  0.6567  0.1466 -0.2603
  323MOL0     H42604   7.655   1.126  10.037 -0.8613  0.7492 -3.3905
  323MOL0     H42605   7.598   1.247  10.150 -0.7318  2.2746 -2.0345
  323MOL0     H42606   7.381   1.266  10.029  1.5190 -0.1542  2.1812
  323MOL0     H42607   7.437   1.150   9.906  1.6155  0.0474 -2.0288
  323MOL0     H42608   7.558   1.425   9.936 -0.1074 -1.7526  2.7403
  323MOL0     H42609   7.641   1.286   9.868 -0.2014 -2.7472  1.1454
  323MOL0     H42610   7.361   1.387   9.789 -0.1955 -2.7012  2.1905
  323MOL0     H42611   7.452   1.264   9.691 -1.9352 -0.3065  0.2495
  323MOL0     H42612   7.480   1.481   9.581  0.3990  2.7903  0.3209
  323MOL0     H42613   7.636   1.447   9.670  0.3376  1.0634 -1.2336
  323MOL0     H42614   7.404   1.600   9.770 -0.3726 -0.4784  0.4721
  323MOL0     H42615   7.570   1.634   9.826 -1.1246  2.5065 -0.0977
  323MOL0     H42616   7.473   1.807   9.698 -1.1362  1.1249 -2.9035
  323MOL0     H42617   7.464   1.696   9.555 -2.3544  0.1735  0.4146
  323MOL0     H42618   7.402   0.871  10.347  1.0921  1.7584  2.1926
  323MOL0     H42619   7.201   0.751  10.439 -1.8731 -0.2974 -0.4777
  323MOL0     H42620   6.885   0.700  10.668  0.1995 -2.2911 -2.5369
  323MOL0     H42621   6.738   0.588  10.832 -1.0747 -0.8435 -0.2208
  323MOL0     H42622   6.449   1.103  10.349  2.9685  0.2867  0.3617
  323MOL0     H42623   6.590   1.279  10.453  0.9782  1.8667  0.6328
  323MOL0     H42624   6.656   1.798  10.445  0.2690  2.7090 -0.0815
  323MOL0     H42625   6.812   1.962  10.503 -2.1421 -0.4153 -2.5003
  323MOL0     H42626   7.083   1.888  10.850 -3.9097 -1.5534  2.0118
  323MOL0     H42627   6.961   2.011  10.903 -2.0810 -1.6453 -1.6794
  323MOL0     H42628   7.227   2.050  10.782 -0.8817 -2.3460 -1.6127
  323MOL0     H42629   7.095   2.174  10.765 -0.4950 -0.6115 -1.5202
  323MOL0     H42630   7.179   2.042  11.016 -0.5077  0.1193 -2.2285
  323MOL0     H42631   7.102   2.200  11.009 -2.4462 -1.9299  0.3314
  323MOL0     H42632   7.360   2.241  11.055 -0.6734  1.8578 -0.6761
  323MOL0     H42633   7.399   2.148  10.905 -0.1372  1.8636 -3.5721
  323MOL0     H42634   7.302   2.492  10.701  0.2084 -0.4312 -0.0381
  323MOL0     H42635   6.913   1.757  10.867  0.1064 -0.2369 -0.9123
  323MOL0     H42636   6.761   1.567  10.798  3.0389  0.8729  0.5845
  324MOL0     O42637   0.260   3.313   5.586 -0.1984 -0.2529 -0.7380
  324MOL0     C42638   0.230   3.211   5.651 -0.0524 -0.1416  0.2154
  324MOL0     O42639   0.136   3.120   5.611 -0.1452  0.3465 -0.5009
  324MOL0     C42640   0.050   3.148   5.514  0.3404  0.7629  0.0523
  324MOL0     C42641   0.071   3.104   5.386 -0.3176  0.5417 -0.0835
  324MOL0     C42642  -0.015   3.136   5.278 -0.4818  0.9549  0.4397
  324MOL0     C42643  -0.130   3.217   5.298 -0.6377 -0.5496 -1.1712
  324MOL0     O42644  -0.202   3.251   5.187  0.0435  0.0944 -0.5389
  324MOL0     C42645  -0.341   3.291   5.198  0.1175 -0.1563 -0.7872
  324MOL0     C42646  -0.409   3.279   5.062 -1.0646 -0.0382 -0.3280
  324MOL0     C42647  -0.537   3.364   5.057 -1.3172 -0.3218 -0.6431
  324MOL0     C42648  -0.620   3.311   4.948  0.5720  0.4039  0.6802
  324MOL0     C42649  -0.718   3.422   4.899  0.6654 -0.4675 -0.3899
  324MOL0     C42650  -0.827   3.456   5.005  0.0061  0.2209 -0.7419
  324MOL0     C42651  -0.929   3.343   5.028  0.7156 -0.2562 -0.3461
  324MOL0     C42652  -0.997   3.284   4.908  0.6678 -0.0485 -0.4297
  324MOL0     N42653  -1.094   3.373   4.833  0.6194  0.8855  1.0666
  324MOL0     C42654  -1.163   3.479   4.889 -0.6406  0.0158 -0.8066
  324MOL0     C42655  -1.238   3.545   4.796  0.0198 -0.1901  0.7117
  324MOL0     C42656  -1.324   3.673   4.801 -0.0557  0.2248 -0.1259
  324MOL0     C42657  -1.472   3.641   4.806  0.4292 -0.2591 -0.1123
  324MOL0     C42658  -1.509   3.567   4.937 -0.3121 -0.3687  0.7881
  324MOL0     C42659  -1.669   3.546   4.939  0.4862  0.7072 -0.3374
  324MOL0     O42660  -1.738   3.657   4.872  0.0974  0.5190 -0.5677
  324MOL0     C42661  -1.862   3.655   4.831  0.9718 -0.5999 -0.1173
  324MOL0     C42662  -1.907   3.759   4.753  1.4550 -0.1252 -1.2298
  324MOL0     C42663  -2.043   3.775   4.722 -0.2773 -0.0238 -0.5184
  324MOL0     C42664  -2.132   3.685   4.768 -0.8487  0.2950  0.9239
  324MOL0     C42665  -2.275   3.710   4.747  0.0940 -0.2369 -1.2912
  324MOL0     O42666  -2.312   3.793   4.647  0.4982  0.9565  0.1218
  324MOL0     C42667  -2.433   3.841   4.636  0.6525  0.5737 -0.3958
  324MOL0     C42668  -2.548   3.761   4.655  0.9294  0.2060  0.2980
  324MOL0     C42669  -2.679   3.809   4.646  0.9128 -0.4677  0.2175
  324MOL0     C42670  -2.691   3.948   4.614 -0.5089  0.1294 -1.0698
  324MOL0     O42671  -2.814   3.991   4.594  0.4753 -0.6101  0.0622
  324MOL0     C42672  -2.838   4.018   4.455  0.2393  0.8213 -0.0234
  324MOL0     C42673  -2.986   4.057   4.451  1.2631  0.3384  0.2342
  324MOL0     C42674  -3.009   4.175   4.550 -0.5123 -0.0117  1.0937
  324MOL0     C42675  -3.134   4.263   4.525 -0.5490 -0.2458 -0.6440
  324MOL0     C42676  -3.268   4.210   4.557 -0.9908  0.4226  0.1470
  324MOL0     C42677  -3.270   4.185   4.711  0.3997 -0.4002 -0.0057
  324MOL0     C42678  -3.268   4.326   4.785 -0.6091  0.3438  0.7374
  324MOL0     C42679  -3.360   4.318   4.905  0.4460  0.5397 -0.2827
  324MOL0    Cl42680  -3.372   4.474   4.971  0.0712  0.0333 -0.0107
  324MOL0     C42681  -2.582   4.028   4.603 -1.0113 -0.2338 -0.4326
  324MOL0     C42682  -2.451   3.973   4.612  0.9226 -0.9600  0.6882
  324MOL0     O42683  -2.347   3.662   4.835  0.3787 -0.3168 -0.1973
  324MOL0     C42684  -2.086   3.575   4.845  0.0341 -0.5727 -0.4699
  324MOL0     C42685  -1.955   3.560   4.882 -0.6334 -0.5616 -1.6255
  324MOL0     N42686  -1.205   3.483   4.677 -0.1960  0.1269  0.2147
  324MOL0     N42687  -1.124   3.387   4.695  0.5577 -0.0259  0.4242
  324MOL0     C42688  -0.146   3.266   5.431  0.6900 -0.5990 -0.3825
  324MOL0     C42689  -0.065   3.225   5.537  0.4796 -0.2606 -0.0016
  324MOL0     C42690   0.329   3.159   5.745  0.0902  0.0658  0.2070
  324MOL0     C42691   0.307   3.041   5.823  0.0853 -0.2088  0.5899
  324MOL0     C42692   0.412   2.978   5.897  0.5953  0.4573 -0.6483
  324MOL0     C42693   0.538   3.036   5.908  0.1362  0.2905  0.2381
  324MOL0     O42694   0.627   2.978   5.993 -0.3568  0.7739  0.0004
  324MOL0     C42695   0.760   3.032   6.013  0.4043 -0.1164 -0.0654
  324MOL0     C42696   0.820   2.944   6.120 -1.3457  1.0179 -1.2764
  324MOL0     C42697   0.937   3.014   6.191  0.3703 -0.1777  0.6744
  324MOL0     C42698   1.012   2.908   6.290 -0.3848 -0.0327 -0.6596
  324MOL0     C42699   1.145   2.965   6.318  0.4343  0.0936  0.3480
  324MOL0     C42700   1.252   3.027   6.329  0.1549  0.2621 -0.2789
  324MOL0     C42701   0.559   3.154   5.838  1.1316  0.7613 -0.1581
  324MOL0     C42702   0.459   3.211   5.763 -0.1852 -0.9997 -0.1664
  324MOL0     H42703   0.154   3.040   5.359  1.8156  3.8168 -2.0162
  324MOL0     H42704  -0.016   3.089   5.180  0.5581 -0.0643  0.8953
  324MOL0     H42705  -0.352   3.391   5.240  1.4036 -0.3763  0.1256
  324MOL0     H42706  -0.396   3.226   5.268 -1.2001 -0.3092 -1.9202
  324MOL0     H42707  -0.423   3.171   5.048 -4.1924  0.1963  0.4225
  324MOL0     H42708  -0.349   3.322   4.981  1.1932 -0.1138  1.2206
  324MOL0     H42709  -0.504   3.466   5.036 -2.4328  0.8276  2.5744
  324MOL0     H42710  -0.593   3.361   5.151  0.5217 -2.2127  0.4508
  324MOL0     H42711  -0.562   3.288   4.859  1.6600  1.0259  1.2110
  324MOL0     H42712  -0.675   3.219   4.970  0.6235 -0.3659 -2.0613
  324MOL0     H42713  -0.756   3.401   4.799  1.5242 -0.0091 -0.8355
  324MOL0     H42714  -0.658   3.512   4.880 -1.6031  0.8140 -2.0278
  324MOL0     H42715  -0.875   3.537   4.950  1.9655  1.2563 -1.0041
  324MOL0     H42716  -0.791   3.500   5.098  1.5550 -0.3589 -1.0456
  324MOL0     H42717  -0.891   3.263   5.092  1.3882 -0.4222 -0.9371
  324MOL0     H42718  -1.014   3.379   5.087  0.3141 -0.8471 -0.5517
  324MOL0     H42719  -1.046   3.188   4.927 -2.1143  0.8095 -2.5147
  324MOL0     H42720  -0.924   3.262   4.830 -0.3334  0.3087 -1.5002
  324MOL0     H42721  -1.155   3.513   4.992  0.3875  4.2506 -2.0392
  324MOL0     H42722  -1.295   3.720   4.706  1.0451  2.5225  1.2752
  324MOL0     H42723  -1.301   3.739   4.884 -0.1429  0.5324 -0.3428
  324MOL0     H42724  -1.495   3.576   4.722  2.4217  0.1439 -1.0245
  324MOL0     H42725  -1.532   3.733   4.802  0.1591 -0.3134  1.8454
  324MOL0     H42726  -1.454   3.473   4.948 -0.5165 -0.3500  2.1220
  324MOL0     H42727  -1.475   3.622   5.025 -0.5187  0.3285  0.4373
  324MOL0     H42728  -1.704   3.537   5.043 -2.0606 -2.6524 -1.2961
  324MOL0     H42729  -1.691   3.454   4.883  2.9754  0.7176 -1.4425
  324MOL0     H42730  -1.839   3.837   4.719 -2.1633  2.5965 -2.8943
  324MOL0     H42731  -2.070   3.862   4.663 -1.3342  0.2144  0.2918
  324MOL0     H42732  -2.554   3.656   4.684 -0.5275 -0.9635 -3.5606
  324MOL0     H42733  -2.764   3.745   4.665 -0.6062  1.3800 -0.1000
  324MOL0     H42734  -2.819   3.927   4.398 -0.3744 -0.1629  1.2843
  324MOL0     H42735  -2.778   4.104   4.423  0.0144  2.1213  2.7673
  324MOL0     H42736  -3.054   3.972   4.466 -0.1418  1.4002  0.1684
  324MOL0     H42737  -3.014   4.095   4.352  0.9708  1.0085  0.5750
  324MOL0     H42738  -2.918   4.235   4.540  0.4137 -1.3957  0.7693
  324MOL0     H42739  -3.005   4.139   4.653  1.6681 -3.2027  0.0768
  324MOL0     H42740  -3.120   4.358   4.578 -2.9236  0.5219 -1.2642
  324MOL0     H42741  -3.135   4.288   4.419 -0.6000 -0.8063 -0.7751
  324MOL0     H42742  -3.288   4.121   4.497  0.0208 -1.0952  1.9627
  324MOL0     H42743  -3.336   4.292   4.531 -3.1196 -1.3369 -0.1261
  324MOL0     H42744  -3.198   4.113   4.752  1.3930  1.4408  1.6583
  324MOL0     H42745  -3.359   4.125   4.731  0.9454 -1.1443  0.2219
  324MOL0     H42746  -3.165   4.355   4.811  0.6676 -0.9507 -2.3434
  324MOL0     H42747  -3.312   4.400   4.718 -0.2544 -1.0928 -1.1793
  324MOL0     H42748  -3.322   4.250   4.981 -1.6039 -1.1449 -0.6666
  324MOL0     H42749  -3.456   4.274   4.876  2.3372 -3.2608 -1.4715
  324MOL0     H42750  -2.601   4.132   4.580  2.5250  0.6948  0.2039
  324MOL0     H42751  -2.368   4.040   4.588  0.4172 -0.9567 -1.2156
  324MOL0     H42752  -2.172   3.511   4.862 -1.4945  1.2571 -0.9110
  324MOL0     H42753  -1.930   3.468   4.934  1.9951 -0.5726 -2.7380
  324MOL0     H42754  -0.230   3.329   5.457 -1.2924 -3.0165 -0.6397
  324MOL0     H42755  -0.083   3.278   5.629  2.9862 -2.2725  1.8141
  324MOL0     H42756   0.212   2.989   5.815 -0.3096  0.5817  0.0337
  324MOL0     H42757   0.398   2.881   5.945  0.6315  0.5241 -0.5017
  324MOL0     H42758   0.763   3.139   6.035  1.6549 -0.2320  0.3801
  324MOL0     H42759   0.833   3.022   5.932  2.2054 -0.0668  1.4825
  324MOL0     H42760   0.743   2.929   6.197 -1.4707 -2.9711 -1.9805
  324MOL0     H42761   0.845   2.853   6.065 -3.2165  0.1889 -0.8354
  324MOL0     H42762   0.898   3.099   6.247 -0.6441  0.8652 -1.5020
  324MOL0     H42763   1.005   3.054   6.114 -0.8748  1.4733  0.3794
  324MOL0     H42764   0.960   2.895   6.386  3.0014  0.4090  1.3916
  324MOL0     H42765   1.019   2.812   6.237 -1.3228 -1.4465  1.6071
  324MOL0     H42766   1.346   3.075   6.348 -1.0924  2.0648  1.7485
  324MOL0     H42767   0.658   3.196   5.830  0.5889  1.9531 -0.9107
  324MOL0     H42768   0.486   3.301   5.709  1.1423 -1.1238  0.2638
  325MOL0     O42769  11.291   8.049   7.545  0.0580  0.1924  0.6120
  325MOL0     C42770  11.204   8.045   7.455  0.0887 -0.3492  0.1585
  325MOL0     O42771  11.173   7.930   7.376  0.1197 -0.2628  0.3517
  325MOL0     C42772  11.206   7.806   7.435  1.0414  0.2127  0.6347
  325MOL0     C42773  11.168   7.759   7.557 -0.0246 -0.2006  0.7230
  325MOL0     C42774  11.214   7.630   7.595  0.2676 -0.7912 -0.2377
  325MOL0     C42775  11.300   7.553   7.517  1.1745 -0.4044 -0.5977
  325MOL0     O42776  11.333   7.423   7.543 -0.2936 -0.2398 -0.2066
  325MOL0     C42777  11.337   7.377   7.681  0.0588 -1.0741  0.2812
  325MOL0     C42778  11.417   7.253   7.685 -0.6866 -0.3760 -1.0543
  325MOL0     C42779  11.435   7.204   7.831 -0.2062 -0.6048  0.4478
  325MOL0     C42780  11.310   7.168   7.915  0.3724  0.4073  0.2843
  325MOL0     C42781  11.290   7.261   8.034  0.3885  0.5941 -0.6394
  325MOL0     C42782  11.174   7.214   8.130  0.6758  0.5876  1.5502
  325MOL0     C42783  11.034   7.238   8.065 -0.7417  0.0147 -0.9259
  325MOL0     C42784  10.927   7.273   8.161  0.4865  0.4956 -0.1812
  325MOL0     N42785  10.892   7.158   8.263  0.1267  0.4520  0.6477
  325MOL0     C42786  10.777   7.160   8.334 -0.3362 -0.1426  0.2338
  325MOL0     C42787  10.773   7.038   8.388  0.3770 -0.0147  0.5350
  325MOL0     C42788  10.671   6.983   8.484 -0.0787 -0.2959  0.3972
  325MOL0     C42789  10.523   6.961   8.452  0.0026 -0.6541  0.4547
  325MOL0     C42790  10.499   6.887   8.316  0.5644  0.2803 -0.2782
  325MOL0     C42791  10.363   6.914   8.258  0.1308  0.1942  0.8675
  325MOL0     O42792  10.257   6.826   8.311  0.0463 -0.2575  0.0756
  325MOL0     C42793  10.138   6.812   8.253  0.8920  0.1200 -0.0705
  325MOL0     C42794  10.100   6.839   8.122  0.4622  0.2978 -0.1109
  325MOL0     C42795   9.963   6.845   8.080  1.0934 -0.3510 -1.1940
  325MOL0     C42796   9.856   6.810   8.173  0.0619 -0.2583 -0.2840
  325MOL0     C42797   9.710   6.804   8.126 -0.1382 -0.0144 -0.5428
  325MOL0     O42798   9.613   6.839   8.221 -0.0592 -0.1188  0.3016
  325MOL0     C42799   9.485   6.854   8.166 -0.5014  0.0859  0.2776
  325MOL0     C42800   9.401   6.743   8.160 -1.2528 -0.1418 -0.1343
  325MOL0     C42801   9.270   6.755   8.108 -0.6070  1.0348  0.7038
  325MOL0     C42802   9.208   6.874   8.092 -0.0687  0.5509  0.1817
  325MOL0     O42803   9.075   6.877   8.058  0.5849  0.6610 -0.7617
  325MOL0     C42804   8.997   6.994   8.057  0.7608  0.0719 -0.1125
  325MOL0     C42805   8.937   7.031   8.197  0.1749 -0.1497  0.2680
  325MOL0     C42806   8.829   6.932   8.243  0.8750  0.0547  0.8450
  325MOL0     C42807   8.866   6.788   8.260  0.4655  0.6309 -0.4713
  325MOL0     C42808   8.778   6.715   8.365  0.0861  0.6121  0.0059
  325MOL0     C42809   8.637   6.680   8.330  0.3728  0.4497 -0.1368
  325MOL0     C42810   8.594   6.576   8.432 -1.0509  0.3477  0.0851
  325MOL0     C42811   8.462   6.498   8.407  0.4086 -0.2479  0.6580
  325MOL0    Cl42812   8.322   6.593   8.432  0.1757  0.3825  0.0569
  325MOL0     C42813   9.283   6.986   8.118  0.1420 -0.1088  0.0745
  325MOL0     C42814   9.420   6.986   8.147  0.5025 -0.1976  0.5916
  325MOL0     O42815   9.685   6.797   8.006  0.1825  0.1998  0.3279
  325MOL0     C42816   9.899   6.789   8.302  0.6619  0.2932  0.2852
  325MOL0     C42817  10.035   6.783   8.342  0.3267  0.0779 -0.1790
  325MOL0     N42818  10.873   6.956   8.334 -0.3806  0.5109  0.1682
  325MOL0     N42819  10.949   7.033   8.271 -0.2138 -0.1541 -0.5697
  325MOL0     C42820  11.347   7.610   7.402 -0.2866  0.3018  0.5140
  325MOL0     C42821  11.307   7.738   7.367 -0.3464  0.6914 -0.3530
  325MOL0     C42822  11.180   8.175   7.391 -0.6548 -0.9468 -0.2401
  325MOL0     C42823  11.243   8.296   7.414  0.2010  0.6522  0.0227
  325MOL0     C42824  11.199   8.425   7.366  0.4402  0.7690 -0.4681
  325MOL0     C42825  11.096   8.424   7.266 -0.7696 -0.6258  0.8417
  325MOL0     O42826  11.034   8.534   7.205  0.4764  0.7087 -0.3268
  325MOL0     C42827  11.061   8.669   7.244 -0.1160  0.0410  0.3537
  325MOL0     C42828  11.030   8.766   7.136 -0.0878  0.8099 -0.5188
  325MOL0     C42829  10.880   8.780   7.102 -0.3348  0.1240 -0.5698
  325MOL0     C42830  10.847   8.909   7.037  0.8902  0.1009 -0.6076
  325MOL0     C42831  10.854   9.018   7.126 -0.5294  0.2179  0.8021
  325MOL0     C42832  10.862   9.105   7.208  0.3137  0.1270  0.7193
  325MOL0     C42833  11.041   8.300   7.231 -0.1682 -0.5615 -0.4054
  325MOL0     C42834  11.083   8.178   7.287  0.0687 -1.0691 -0.8515
  325MOL0     H42835  11.104   7.828   7.611  2.4736  3.2359 -0.3733
  325MOL0     H42836  11.170   7.583   7.682 -1.0273 -0.4382 -0.6694
  325MOL0     H42837  11.234   7.354   7.709 -0.7387  0.3227 -1.3427
  325MOL0     H42838  11.381   7.461   7.736 -2.6769  2.2299 -2.1318
  325MOL0     H42839  11.517   7.282   7.653 -0.2367  0.6698  1.0989
  325MOL0     H42840  11.379   7.178   7.615 -0.6694  1.3027 -2.9755
  325MOL0     H42841  11.479   7.287   7.888 -1.6244  0.0381  0.6675
  325MOL0     H42842  11.507   7.125   7.851  0.4181 -0.2123 -0.2322
  325MOL0     H42843  11.217   7.180   7.858 -0.2392 -0.8350  0.9808
  325MOL0     H42844  11.319   7.064   7.948  1.5388  0.4935  0.2498
  325MOL0     H42845  11.273   7.364   8.003 -1.8888  0.6435  0.5825
  325MOL0     H42846  11.384   7.247   8.089 -0.3428 -1.1516  0.2417
  325MOL0     H42847  11.182   7.263   8.227  1.6734 -0.1282  1.8436
  325MOL0     H42848  11.197   7.108   8.147 -0.1306  0.1031 -0.1757
  325MOL0     H42849  11.060   7.331   8.013 -0.7893 -0.1712 -1.2881
  325MOL0     H42850  11.015   7.157   7.994 -1.3880  2.3127 -3.5541
  325MOL0     H42851  10.841   7.302   8.100 -1.5047  0.3144  2.3694
  325MOL0     H42852  10.952   7.365   8.215 -0.6510 -0.2699  1.7599
  325MOL0     H42853  10.706   7.242   8.343  2.3256  2.1023  3.1826
  325MOL0     H42854  10.675   7.043   8.575 -1.0312  2.6407 -1.3885
  325MOL0     H42855  10.701   6.882   8.516 -1.5967 -0.0573  2.8532
  325MOL0     H42856  10.478   7.060   8.445  2.4051  0.4317 -1.2948
  325MOL0     H42857  10.480   6.908   8.537  1.7856 -0.2671  1.6726
  325MOL0     H42858  10.573   6.924   8.244  0.2335  2.7205  0.5346
  325MOL0     H42859  10.518   6.780   8.326  0.5329  0.3950  1.3007
  325MOL0     H42860  10.386   6.896   8.152  4.1983  3.5472  0.9153
  325MOL0     H42861  10.326   7.017   8.267 -1.3715 -0.2031 -0.3772
  325MOL0     H42862  10.180   6.849   8.050  0.9070  1.1922  0.4905
  325MOL0     H42863   9.938   6.856   7.975 -1.5161  1.3062 -0.5002
  325MOL0     H42864   9.440   6.644   8.185  2.5866  1.0403 -0.6780
  325MOL0     H42865   9.214   6.664   8.086  0.5759  0.6003 -0.6262
  325MOL0     H42866   8.912   6.965   7.995 -0.4688 -0.6901  1.8246
  325MOL0     H42867   9.063   7.065   8.008  2.1988 -0.3624  1.1229
  325MOL0     H42868   8.904   7.135   8.189 -0.5412 -0.3800  0.1535
  325MOL0     H42869   9.016   7.031   8.272 -0.5253 -0.4273  1.0284
  325MOL0     H42870   8.732   6.938   8.191  0.1590 -2.3302  1.8189
  325MOL0     H42871   8.804   6.982   8.337 -0.7032  1.0040 -0.0061
  325MOL0     H42872   8.848   6.728   8.171 -2.2047  1.0086 -0.2894
  325MOL0     H42873   8.972   6.784   8.288  1.3547  2.8686 -3.0902
  325MOL0     H42874   8.791   6.771   8.459  0.2575  0.5235  0.0367
  325MOL0     H42875   8.841   6.626   8.357 -0.4712  0.3997 -3.2611
  325MOL0     H42876   8.622   6.630   8.234 -2.1316 -0.7762  0.7948
  325MOL0     H42877   8.574   6.769   8.321  1.3008  1.5117  2.7416
  325MOL0     H42878   8.663   6.491   8.424 -2.2820 -0.6382 -0.4589
  325MOL0     H42879   8.614   6.616   8.531  1.9491  0.9507 -0.6641
  325MOL0     H42880   8.466   6.414   8.476  0.3651 -0.8242 -0.0252
  325MOL0     H42881   8.452   6.469   8.302 -2.6551 -4.6757  1.8941
  325MOL0     H42882   9.230   7.080   8.106 -0.2374 -0.3340 -0.0139
  325MOL0     H42883   9.477   7.073   8.176  1.0349 -0.5947  0.7569
  325MOL0     H42884   9.820   6.784   8.375 -0.9170  2.0299 -1.2003
  325MOL0     H42885  10.059   6.752   8.443 -2.6036  2.5192  1.4231
  325MOL0     H42886  11.416   7.553   7.341 -2.7787 -0.6168 -1.6326
  325MOL0     H42887  11.340   7.779   7.272  0.9961 -0.2916 -0.3396
  325MOL0     H42888  11.324   8.301   7.486 -1.1604  1.0716  1.5909
  325MOL0     H42889  11.234   8.520   7.406  0.3486  1.5787 -2.1704
  325MOL0     H42890  11.168   8.672   7.267  0.1811 -0.6910 -0.8255
  325MOL0     H42891  11.004   8.691   7.334  0.7238 -1.4224  1.2793
  325MOL0     H42892  11.071   8.860   7.175 -1.6915  2.0288 -1.6735
  325MOL0     H42893  11.092   8.744   7.049 -0.6016 -1.8397 -0.2867
  325MOL0     H42894  10.833   8.769   7.200  0.3717  2.9308  0.1907
  325MOL0     H42895  10.857   8.697   7.034 -0.5111  1.1479 -1.7980
  325MOL0     H42896  10.911   8.930   6.951  0.4767  1.2502 -0.6557
  325MOL0     H42897  10.745   8.906   6.996  0.8150  1.9801 -0.6794
  325MOL0     H42898  10.859   9.172   7.291 -1.3405 -1.4665  2.0506
  325MOL0     H42899  10.960   8.288   7.160  0.5384  2.2370 -1.8480
  325MOL0     H42900  11.035   8.084   7.263 -2.4779 -0.2572  0.6931
  326MOL0     O42901   5.718   2.630   3.767 -0.1889  0.0295  0.3111
  326MOL0     C42902   5.644   2.707   3.831  0.0517 -0.3320  0.4985
  326MOL0     O42903   5.520   2.746   3.796  0.6286 -0.7596  0.6061
  326MOL0     C42904   5.465   2.699   3.689  0.5958  0.0355  0.1715
  326MOL0     C42905   5.374   2.592   3.683  1.4062  0.4055 -0.2447
  326MOL0     C42906   5.325   2.562   3.557 -0.2146 -0.0027  0.1278
  326MOL0     C42907   5.348   2.635   3.434  0.4996 -0.6237 -1.4660
  326MOL0     O42908   5.279   2.597   3.317 -0.0400 -0.3593  0.3635
  326MOL0     C42909   5.153   2.659   3.296 -0.0083 -0.6300  0.1912
  326MOL0     C42910   5.168   2.779   3.198 -0.6586  0.1567 -0.6796
  326MOL0     C42911   5.233   2.738   3.067  0.3651 -0.6758 -0.1304
  326MOL0     C42912   5.157   2.637   2.985  0.7411 -1.1475  0.4046
  326MOL0     C42913   5.203   2.629   2.842 -0.5990 -0.0548 -0.3413
  326MOL0     C42914   5.118   2.554   2.750 -0.1736  0.0479  0.7921
  326MOL0     C42915   5.112   2.404   2.785 -0.1400  1.0168  0.3223
  326MOL0     C42916   5.031   2.319   2.692  0.0911  0.3740  0.6201
  326MOL0     N42917   5.084   2.331   2.557 -0.7782 -0.1493 -0.1270
  326MOL0     C42918   5.182   2.255   2.501 -1.0431 -0.6133  0.4061
  326MOL0     C42919   5.197   2.299   2.371  0.9806 -0.1998 -0.1695
  326MOL0     C42920   5.282   2.216   2.275  0.7512 -0.0838 -0.0095
  326MOL0     C42921   5.251   2.253   2.129 -0.2194 -1.0928 -0.4242
  326MOL0     C42922   5.108   2.207   2.073 -1.1606  0.1741  0.2284
  326MOL0     C42923   5.104   2.052   2.055 -0.1971 -0.1255 -0.4034
  326MOL0     O42924   5.097   1.974   2.173 -0.0974  0.1643  1.0176
  326MOL0     C42925   4.985   1.959   2.247  0.6623 -0.7140  0.0990
  326MOL0     C42926   4.988   1.992   2.384 -0.4189  0.8924  0.5892
  326MOL0     C42927   4.867   2.002   2.451 -0.8949  0.5169 -0.5611
  326MOL0     C42928   4.737   1.977   2.391 -0.4471 -0.4168  0.4734
  326MOL0     C42929   4.602   1.985   2.458 -0.2557 -0.0480 -0.9644
  326MOL0     O42930   4.509   1.902   2.403  0.0672 -0.2182 -0.1621
  326MOL0     C42931   4.385   1.878   2.461 -0.1115 -0.5989 -0.7437
  326MOL0     C42932   4.372   1.808   2.579  0.0681  0.4597 -0.2471
  326MOL0     C42933   4.245   1.778   2.640  0.4072 -0.3193  0.1943
  326MOL0     C42934   4.128   1.828   2.571 -0.1492  0.4403  0.6500
  326MOL0     O42935   4.003   1.818   2.622  0.0896 -0.3359  0.5209
  326MOL0     C42936   3.975   1.756   2.749 -0.3703  0.4874 -0.2054
  326MOL0     C42937   3.976   1.603   2.723 -0.2816  0.3869 -0.6541
  326MOL0     C42938   3.915   1.533   2.844 -0.3129  0.4075  0.4878
  326MOL0     C42939   3.761   1.541   2.835 -0.3036 -0.0645 -0.4174
  326MOL0     C42940   3.705   1.594   2.970 -1.5640 -0.4571 -0.1042
  326MOL0     C42941   3.549   1.574   2.976 -0.4419  0.1694  0.0996
  326MOL0     C42942   3.477   1.684   3.069 -0.3959 -0.0357 -0.1867
  326MOL0     C42943   3.328   1.671   3.049 -0.1880 -0.3243  0.5425
  326MOL0    Cl42944   3.254   1.564   3.171  0.3364 -0.4957  0.3983
  326MOL0     C42945   4.145   1.913   2.462  0.0599  0.1915  0.2440
  326MOL0     C42946   4.267   1.938   2.413 -0.0992  0.0883 -0.7515
  326MOL0     O42947   4.600   2.030   2.575  0.0034 -0.0952 -0.7940
  326MOL0     C42948   4.735   1.973   2.251  0.6391  1.0774 -0.2702
  326MOL0     C42949   4.858   1.963   2.187  0.5318  0.8471  0.6217
  326MOL0     N42950   5.115   2.408   2.360  0.5202 -0.0818  0.4083
  326MOL0     N42951   5.044   2.421   2.466  0.1099 -0.3025 -0.0461
  326MOL0     C42952   5.441   2.741   3.444 -0.1078  0.0825 -0.3205
  326MOL0     C42953   5.498   2.766   3.572 -0.2580  1.0529  0.5884
  326MOL0     C42954   5.690   2.766   3.965  0.0593  0.1310  1.0191
  326MOL0     C42955   5.808   2.731   4.015  0.4250  0.8189  0.2394
  326MOL0     C42956   5.859   2.793   4.126 -0.1399 -1.1558 -0.4127
  326MOL0     C42957   5.791   2.877   4.209 -0.8159 -0.4205  0.4817
  326MOL0     O42958   5.838   2.901   4.339 -0.6316  0.0130 -0.1950
  326MOL0     C42959   5.760   2.982   4.432  0.4796 -0.1146 -0.4029
  326MOL0     C42960   5.820   2.983   4.574 -0.2158 -0.6368  0.2248
  326MOL0     C42961   5.755   3.097   4.660 -0.5295  0.6386 -1.1819
  326MOL0     C42962   5.787   3.074   4.816  0.3296  0.1936 -0.2776
  326MOL0     C42963   5.674   3.123   4.904 -0.1934 -0.1176 -0.7420
  326MOL0     C42964   5.591   3.165   4.977  0.1650  0.7718 -0.3965
  326MOL0     C42965   5.669   2.922   4.158  0.0206  1.2621 -0.2046
  326MOL0     C42966   5.617   2.862   4.036 -0.8799 -0.2502 -0.1198
  326MOL0     H42967   5.350   2.545   3.777  3.8114  2.3234  1.4512
  326MOL0     H42968   5.252   2.482   3.552 -0.8701  0.6192 -0.7219
  326MOL0     H42969   5.111   2.684   3.394  0.6340 -1.4785  0.6981
  326MOL0     H42970   5.079   2.594   3.248 -1.9340 -0.9066  3.2746
  326MOL0     H42971   5.237   2.844   3.252 -0.6939 -0.9253  0.7233
  326MOL0     H42972   5.073   2.832   3.187 -0.4468  0.4738 -1.0216
  326MOL0     H42973   5.332   2.698   3.092  0.3326 -1.1939 -0.8230
  326MOL0     H42974   5.244   2.831   3.011 -0.8188  0.3660  1.2968
  326MOL0     H42975   5.167   2.544   3.042 -0.3223 -0.0327  2.5234
  326MOL0     H42976   5.049   2.653   2.980  0.5892 -2.1689 -0.0440
  326MOL0     H42977   5.305   2.589   2.840 -1.4954 -2.5496 -0.3753
  326MOL0     H42978   5.212   2.733   2.811  1.5780  0.2582  1.1439
  326MOL0     H42979   5.157   2.567   2.649  3.6022  1.8867  2.3066
  326MOL0     H42980   5.016   2.593   2.753  0.3230  2.0493 -2.9094
  326MOL0     H42981   5.209   2.354   2.786 -0.9353 -0.6294  0.3224
  326MOL0     H42982   5.063   2.396   2.883 -1.3980  0.4907 -0.3218
  326MOL0     H42983   4.926   2.348   2.698  0.1510  0.9482 -0.6199
  326MOL0     H42984   5.049   2.216   2.721 -0.5331  0.2992  0.7507
  326MOL0     H42985   5.228   2.164   2.537 -2.0479 -0.4043  2.3709
  326MOL0     H42986   5.278   2.108   2.290 -3.0061 -0.3230 -1.6055
  326MOL0     H42987   5.385   2.252   2.284 -0.0858  2.8020 -0.7327
  326MOL0     H42988   5.323   2.209   2.059 -1.5928 -4.9039  0.3448
  326MOL0     H42989   5.251   2.362   2.116  2.1672 -1.1515 -1.5727
  326MOL0     H42990   5.024   2.246   2.132 -0.7540  1.0548  0.2496
  326MOL0     H42991   5.097   2.251   1.973 -1.0248  1.5391  0.7897
  326MOL0     H42992   5.193   2.021   1.999 -0.3900  0.2359 -0.9227
  326MOL0     H42993   5.027   2.033   1.979  2.3009  0.4495 -3.3128
  326MOL0     H42994   5.092   1.999   2.416  1.3033 -2.6043 -3.1793
  326MOL0     H42995   4.871   2.031   2.556  0.9272 -0.5944 -0.2783
  326MOL0     H42996   4.462   1.780   2.633 -1.5132 -1.8025  1.4063
  326MOL0     H42997   4.259   1.713   2.725 -0.2337  0.7590  1.1447
  326MOL0     H42998   3.880   1.788   2.794 -0.0847 -0.0222  0.7875
  326MOL0     H42999   4.055   1.784   2.818 -0.8542 -1.4958  1.2423
  326MOL0     H43000   4.081   1.574   2.713  0.3689  2.5040 -0.3806
  326MOL0     H43001   3.932   1.570   2.628 -0.3774 -0.9250 -0.1790
  326MOL0     H43002   3.961   1.575   2.933  1.1318  1.8775 -0.8808
  326MOL0     H43003   3.943   1.427   2.834 -2.1709 -0.3927  2.8578
  326MOL0     H43004   3.727   1.611   2.758 -2.5795  0.0297  0.6168
  326MOL0     H43005   3.709   1.450   2.806  0.8943 -1.5903  1.8895
  326MOL0     H43006   3.729   1.701   2.972 -2.2710 -0.3044  0.7735
  326MOL0     H43007   3.745   1.536   3.054 -1.5451  1.0480  0.9532
  326MOL0     H43008   3.529   1.476   3.020  0.8316 -1.3569 -2.5046
  326MOL0     H43009   3.506   1.567   2.876 -3.3437  0.0961  1.2466
  326MOL0     H43010   3.492   1.668   3.176  0.5346 -0.7406 -0.4100
  326MOL0     H43011   3.501   1.786   3.041 -0.2672  0.0020  0.0639
  326MOL0     H43012   3.305   1.647   2.945  1.2998 -2.5008  0.6492
  326MOL0     H43013   3.282   1.766   3.079  1.1642  0.3548  0.5668
  326MOL0     H43014   4.050   1.955   2.430  1.1367  4.1580  1.6820
  326MOL0     H43015   4.278   2.009   2.332 -2.3624 -0.3795 -1.5447
  326MOL0     H43016   4.643   1.977   2.194  1.0974 -2.1583 -1.4220
  326MOL0     H43017   4.861   1.930   2.084  3.8313 -3.6269  1.8261
  326MOL0     H43018   5.458   2.799   3.354  0.4579  2.2483  1.1151
  326MOL0     H43019   5.580   2.837   3.561  1.8334 -1.3180  0.0939
  326MOL0     H43020   5.865   2.651   3.969 -0.9414  0.5442 -1.0460
  326MOL0     H43021   5.957   2.760   4.158  0.8059  0.8419 -1.0906
  326MOL0     H43022   5.659   2.941   4.440  0.7074 -0.6506 -0.2268
  326MOL0     H43023   5.759   3.086   4.398 -1.1197  0.4641  1.2604
  326MOL0     H43024   5.810   2.887   4.625  1.9176 -0.7529  0.5417
  326MOL0     H43025   5.926   3.007   4.562  0.0748 -2.1643 -0.4191
  326MOL0     H43026   5.651   3.064   4.653 -1.3139  1.5946  3.0553
  326MOL0     H43027   5.770   3.201   4.629 -0.7597  0.1348 -3.0964
  326MOL0     H43028   5.807   2.971   4.845 -0.4161  0.3016  0.6816
  326MOL0     H43029   5.877   3.129   4.844  1.0461 -1.5102  0.9495
  326MOL0     H43030   5.519   3.197   5.050  1.4883  2.1728  0.3601
  326MOL0     H43031   5.606   2.997   4.205 -1.0503  2.6745 -3.6056
  326MOL0     H43032   5.527   2.910   3.999 -1.3696  0.5259  1.9486
  327MOL0     O43033   6.613   3.470  10.091  0.0184 -0.1980 -0.9274
  327MOL0     C43034   6.655   3.535  10.187 -0.2413  0.3227  0.4050
  327MOL0     O43035   6.576   3.607  10.265  0.0807  0.0392 -0.4713
  327MOL0     C43036   6.453   3.666  10.236 -0.6705 -0.0301 -0.1205
  327MOL0     C43037   6.384   3.713  10.354  0.1376  0.1241  0.0243
  327MOL0     C43038   6.257   3.769  10.338  0.0634  0.3277  0.6718
  327MOL0     C43039   6.202   3.781  10.212  0.1753 -1.1928 -0.3277
  327MOL0     O43040   6.083   3.840  10.194 -0.0678  1.0098  0.1219
  327MOL0     C43041   5.979   3.740  10.162  0.2248 -0.1053  0.0211
  327MOL0     C43042   5.894   3.791  10.048  0.7523  0.2370  0.1845
  327MOL0     C43043   5.801   3.907  10.092 -0.5440 -0.9078  0.1330
  327MOL0     C43044   5.689   3.859  10.178 -0.0104  0.5684 -0.1384
  327MOL0     C43045   5.592   3.969  10.219  0.8066 -0.4745  0.2274
  327MOL0     C43046   5.486   4.014  10.116  0.4496 -0.0991 -0.5626
  327MOL0     C43047   5.359   4.056  10.194  0.5099 -1.0113 -1.8531
  327MOL0     C43048   5.390   4.194  10.265 -0.2572 -0.3285  0.0236
  327MOL0     N43049   5.385   4.311  10.174 -0.4622 -0.5088  0.4994
  327MOL0     C43050   5.281   4.403  10.147 -0.4918  1.0254 -0.1819
  327MOL0     C43051   5.329   4.493  10.067 -0.5448  0.4672  0.6303
  327MOL0     C43052   5.243   4.594   9.989 -0.3929 -0.7936 -0.0975
  327MOL0     C43053   5.223   4.723  10.084  0.2483  0.4786  0.3982
  327MOL0     C43054   5.169   4.683  10.223  0.4334 -1.1050 -0.6819
  327MOL0     C43055   5.120   4.806  10.291 -0.8739 -0.7621  0.1991
  327MOL0     O43056   5.231   4.896  10.315  0.6021  0.0173 -0.6454
  327MOL0     C43057   5.203   5.005  10.389  0.0605 -0.1972  1.2475
  327MOL0     C43058   5.310   5.078  10.445  0.3659  0.4113  0.0842
  327MOL0     C43059   5.275   5.204  10.523 -0.4613  0.2783 -0.0689
  327MOL0     C43060   5.141   5.257  10.527  0.5145  0.9398  0.1358
  327MOL0     C43061   5.110   5.380  10.584  0.4039 -0.5253  0.0413
  327MOL0     O43062   4.976   5.408  10.617 -0.3910  0.3625  0.7513
  327MOL0     C43063   4.947   5.531  10.667 -0.5734 -0.0189 -0.2295
  327MOL0     C43064   4.964   5.659  10.599  0.0508  0.1817 -0.8435
  327MOL0     C43065   4.923   5.778  10.664  0.0818 -0.0279 -0.4386
  327MOL0     C43066   4.851   5.768  10.790  0.4547  0.6402 -0.3604
  327MOL0     O43067   4.804   5.880  10.850 -0.2170 -0.2792  0.4518
  327MOL0     C43068   4.701   5.883  10.952 -0.7007  0.3761  0.5719
  327MOL0     C43069   4.646   6.024  10.975  0.3565 -0.0388 -0.5299
  327MOL0     C43070   4.533   6.022  11.078 -0.2185 -0.2908 -0.0855
  327MOL0     C43071   4.568   5.956  11.208  0.4692  0.5680 -0.2604
  327MOL0     C43072   4.439   5.963  11.290  0.1529 -0.2347 -0.2266
  327MOL0     C43073   4.438   5.868  11.411 -0.5473  0.2654  0.0871
  327MOL0     C43074   4.311   5.885  11.488  0.2103 -0.7261 -0.3212
  327MOL0     C43075   4.317   5.818  11.621 -0.4141 -0.9642 -0.0181
  327MOL0    Cl43076   4.329   5.640  11.598 -0.1797  0.3475 -0.3598
  327MOL0     C43077   4.849   5.644  10.854  0.7608  0.2980 -0.9020
  327MOL0     C43078   4.891   5.530  10.800  0.0739  0.0810  0.7989
  327MOL0     O43079   5.200   5.459  10.581  0.0776 -0.4594  1.3699
  327MOL0     C43080   5.041   5.177  10.463  0.6485  1.0755  0.1223
  327MOL0     C43081   5.073   5.065  10.389 -0.3334 -0.0158  0.4460
  327MOL0     N43082   5.464   4.467  10.047 -0.4260 -0.2606 -0.4814
  327MOL0     N43083   5.494   4.361  10.103  0.5673 -0.7634  0.6255
  327MOL0     C43084   6.277   3.747  10.100 -0.6821 -0.2755  1.4227
  327MOL0     C43085   6.404   3.681  10.110  0.0420 -1.0852  0.9118
  327MOL0     C43086   6.803   3.550  10.194 -0.5020  0.9243 -0.1525
  327MOL0     C43087   6.880   3.505  10.093  0.1633 -0.6054  0.6272
  327MOL0     C43088   7.018   3.503  10.104  0.0758  0.9339  0.0382
  327MOL0     C43089   7.076   3.529  10.221 -0.2773 -0.0686  0.7697
  327MOL0     O43090   7.210   3.532  10.224 -0.2405 -0.2485  0.1148
  327MOL0     C43091   7.290   3.567  10.337  0.5744 -0.4572 -0.4535
  327MOL0     C43092   7.277   3.456  10.448  0.4824  0.5674  0.0569
  327MOL0     C43093   7.348   3.327  10.405 -0.3594 -0.2940  0.2866
  327MOL0     C43094   7.254   3.213  10.367  0.2084 -0.2361  0.8318
  327MOL0     C43095   7.200   3.152  10.490  0.2896  0.7908  0.0069
  327MOL0     C43096   7.156   3.078  10.584  0.5571 -0.6124  0.1316
  327MOL0     C43097   6.999   3.570  10.331  0.8997  0.1761 -0.0346
  327MOL0     C43098   6.864   3.586  10.312  0.6251 -0.4812 -0.2911
  327MOL0     H43099   6.421   3.698  10.455  2.0593  4.9149  0.3135
  327MOL0     H43100   6.199   3.809  10.420  0.3329  1.1300  0.4785
  327MOL0     H43101   5.912   3.710  10.243  1.0813 -0.4556  0.6157
  327MOL0     H43102   6.035   3.649  10.138  2.5673  1.4517 -0.8101
  327MOL0     H43103   5.825   3.711  10.019 -1.6352  0.8893  3.4579
  327MOL0     H43104   5.958   3.815   9.962 -2.4302 -1.4432 -2.9359
  327MOL0     H43105   5.762   3.964  10.007  1.3437 -0.7546 -0.6954
  327MOL0     H43106   5.869   3.973  10.147  0.7259 -0.4348 -1.8693
  327MOL0     H43107   5.635   3.777  10.131  0.4655  0.4881 -0.5601
  327MOL0     H43108   5.745   3.825  10.265 -0.3936 -3.1630 -1.1784
  327MOL0     H43109   5.635   4.066  10.247 -4.3670  2.2995 -0.2373
  327MOL0     H43110   5.538   3.932  10.307  0.0055 -3.9648 -1.5724
  327MOL0     H43111   5.469   3.943  10.035 -0.4521  1.3500 -1.6912
  327MOL0     H43112   5.509   4.105  10.060 -0.1729 -0.5891 -1.6497
  327MOL0     H43113   5.266   4.063  10.137 -1.5330  0.9580  1.4154
  327MOL0     H43114   5.340   3.992  10.280 -0.2412  1.4654 -0.0489
  327MOL0     H43115   5.488   4.203  10.314 -0.9584  2.8287  1.0546
  327MOL0     H43116   5.311   4.224  10.334  1.3424  1.2938  1.2465
  327MOL0     H43117   5.177   4.385  10.171 -1.9250 -0.4489 -5.9553
  327MOL0     H43118   5.146   4.557   9.955 -2.8117  3.3218  1.5375
  327MOL0     H43119   5.299   4.624   9.900 -1.9241 -0.7586 -1.0851
  327MOL0     H43120   5.153   4.791  10.033  2.3423  2.4432 -0.0396
  327MOL0     H43121   5.318   4.777  10.086 -1.2001  3.2199  0.4234
  327MOL0     H43122   5.093   4.605  10.206  0.1234 -1.3348  1.5302
  327MOL0     H43123   5.243   4.634  10.287 -0.3064  0.6874  1.6659
  327MOL0     H43124   5.090   4.783  10.394  0.7888 -0.8315  0.7027
  327MOL0     H43125   5.045   4.850  10.226 -2.0160 -0.1573  1.8488
  327MOL0     H43126   5.406   5.034  10.426  0.2931  0.0682  0.4918
  327MOL0     H43127   5.350   5.259  10.578 -1.6271  2.8752 -0.9338
  327MOL0     H43128   5.013   5.666  10.502 -0.8326  0.4789 -1.2842
  327MOL0     H43129   4.948   5.875  10.623  0.1977  0.1419  0.0354
  327MOL0     H43130   4.746   5.842  11.042  0.2642  0.8539  0.3143
  327MOL0     H43131   4.625   5.808  10.927 -1.4086  1.1850  0.2455
  327MOL0     H43132   4.621   6.067  10.878  1.6355  0.7046 -0.5609
  327MOL0     H43133   4.731   6.081  11.015  2.5096 -1.1751 -3.1352
  327MOL0     H43134   4.457   5.955  11.036  1.5406 -0.8807 -2.5821
  327MOL0     H43135   4.486   6.121  11.086  3.8190  2.2626 -3.3624
  327MOL0     H43136   4.595   5.851  11.194 -0.5195  0.5471 -2.3274
  327MOL0     H43137   4.659   6.000  11.251  2.5694 -2.4695 -1.2321
  327MOL0     H43138   4.353   5.940  11.226 -0.2414 -2.0262  0.8775
  327MOL0     H43139   4.423   6.066  11.322  2.6827  0.4092 -0.7817
  327MOL0     H43140   4.524   5.887  11.476  0.0971 -3.8188  0.7056
  327MOL0     H43141   4.447   5.769  11.366 -1.6746  0.2864 -0.2233
  327MOL0     H43142   4.292   5.993  11.496 -1.6367 -1.0718  0.6830
  327MOL0     H43143   4.227   5.840  11.433  0.9016 -2.2504 -0.1802
  327MOL0     H43144   4.223   5.847  11.669 -1.8214 -0.4175 -2.9051
  327MOL0     H43145   4.401   5.851  11.683 -0.7240  1.9470 -0.9826
  327MOL0     H43146   4.806   5.632  10.953  1.7295 -3.1165 -0.7737
  327MOL0     H43147   4.873   5.437  10.854  1.3679 -0.6883 -0.0239
  327MOL0     H43148   4.941   5.217  10.450  1.2842  2.2461 -1.5561
  327MOL0     H43149   4.989   5.025  10.332 -2.1312  2.0149  1.5173
  327MOL0     H43150   6.232   3.767  10.003  0.1863  0.3987  1.1525
  327MOL0     H43151   6.452   3.652  10.017 -0.1406  1.4198 -0.0451
  327MOL0     H43152   6.840   3.471   9.999  3.6738 -1.4803 -0.7191
  327MOL0     H43153   7.066   3.456  10.018 -1.5708  2.2438 -1.6686
  327MOL0     H43154   7.261   3.666  10.375  0.0699 -1.3439  1.6223
  327MOL0     H43155   7.392   3.574  10.298  0.7257  1.5678  0.1486
  327MOL0     H43156   7.307   3.491  10.547 -1.1950 -2.0272  1.5832
  327MOL0     H43157   7.171   3.432  10.458  0.4402 -0.3922 -2.1072
  327MOL0     H43158   7.411   3.293  10.487  0.4070 -2.1283 -1.0062
  327MOL0     H43159   7.408   3.350  10.317  1.2724 -1.5925  0.9979
  327MOL0     H43160   7.176   3.254  10.303 -0.4490 -0.8937  1.1935
  327MOL0     H43161   7.311   3.139  10.309 -0.0024  1.7311 -2.0784
  327MOL0     H43162   7.122   3.024  10.670 -1.5564  0.2829 -0.0820
  327MOL0     H43163   7.032   3.599  10.430 -2.0095  0.6779  0.8704
  327MOL0     H43164   6.793   3.635  10.378  0.5385 -0.7681 -0.1682
  328MOL0     O43165   5.177   2.061   6.978  0.9062 -0.4437  0.0628
  328MOL0     C43166   5.126   2.171   6.947 -0.7497 -0.1048 -0.3560
  328MOL0     O43167   5.198   2.269   6.905  0.4286  0.0148 -0.3108
  328MOL0     C43168   5.328   2.263   6.870  0.2097  0.4227 -0.5881
  328MOL0     C43169   5.427   2.216   6.966  0.2217 -0.5135 -1.1980
  328MOL0     C43170   5.554   2.197   6.917 -0.3465 -0.0295  0.6529
  328MOL0     C43171   5.582   2.240   6.782  0.6263  0.7745 -0.8877
  328MOL0     O43172   5.702   2.217   6.739  0.2998 -0.4054 -0.3166
  328MOL0     C43173   5.784   2.328   6.717 -0.1394 -0.8743 -0.3011
  328MOL0     C43174   5.923   2.281   6.680  0.4864 -0.5690 -0.1535
  328MOL0     C43175   5.996   2.210   6.794 -0.0619  0.2663  0.9947
  328MOL0     C43176   6.136   2.191   6.757 -1.1992  0.8178  0.1708
  328MOL0     C43177   6.214   2.141   6.879 -0.3083  0.2175  0.0183
  328MOL0     C43178   6.341   2.062   6.849  0.2418 -0.3013 -0.2105
  328MOL0     C43179   6.397   1.975   6.971 -1.1163  0.9297  0.0920
  328MOL0     C43180   6.507   1.880   6.923  0.4328 -0.3104  0.7062
  328MOL0     N43181   6.636   1.946   6.932 -0.6551  0.7354  0.6719
  328MOL0     C43182   6.747   1.884   6.990  0.0493 -0.0767  0.0859
  328MOL0     C43183   6.837   1.973   7.004 -0.2423 -0.4013 -0.8659
  328MOL0     C43184   6.978   1.963   7.060  0.3996 -0.1307  0.7233
  328MOL0     C43185   6.968   1.923   7.206 -0.7146  0.3181 -0.5032
  328MOL0     C43186   7.066   1.999   7.292 -0.1884  0.2663  0.4777
  328MOL0     C43187   7.031   1.996   7.434 -0.6240  1.2520 -0.8502
  328MOL0     O43188   7.003   1.859   7.477 -0.3271  0.3956 -0.7139
  328MOL0     C43189   6.979   1.845   7.607 -0.4508  0.8032  0.2457
  328MOL0     C43190   6.974   1.948   7.695  0.2302  0.0208 -0.4940
  328MOL0     C43191   6.962   1.922   7.832 -0.6530  0.4481 -0.1061
  328MOL0     C43192   6.966   1.797   7.889  1.1334  0.4234  0.0675
  328MOL0     C43193   6.965   1.773   8.039  0.0258  0.1462 -0.3031
  328MOL0     O43194   7.041   1.664   8.083 -0.8115 -0.4482  0.4272
  328MOL0     C43195   7.053   1.628   8.217  0.1995  0.5522 -0.1265
  328MOL0     C43196   7.075   1.723   8.326 -0.9112 -0.2521  0.2196
  328MOL0     C43197   7.104   1.684   8.451  0.1672 -0.6247 -0.3513
  328MOL0     C43198   7.104   1.544   8.480  0.9069  0.2979 -0.2558
  328MOL0     O43199   7.141   1.488   8.598 -0.2706  0.1754 -0.2633
  328MOL0     C43200   7.166   1.565   8.716 -0.3550 -0.0037 -0.1613
  328MOL0     C43201   7.045   1.621   8.790  0.3827 -0.0903  1.0327
  328MOL0     C43202   7.068   1.684   8.924 -0.1951  0.2679  0.4157
  328MOL0     C43203   7.114   1.590   9.042  1.1261 -0.4489 -0.3967
  328MOL0     C43204   7.204   1.662   9.149  0.7663 -1.0573 -1.2423
  328MOL0     C43205   7.114   1.709   9.273  0.5566  0.8818  0.7782
  328MOL0     C43206   7.202   1.722   9.403  1.8413 -0.2573 -0.6901
  328MOL0     C43207   7.122   1.795   9.516  0.4086 -0.9121  0.5119
  328MOL0    Cl43208   6.946   1.769   9.541 -0.0497 -0.1249  0.1553
  328MOL0     C43209   7.086   1.453   8.378  0.5807  0.2042  0.0108
  328MOL0     C43210   7.050   1.498   8.249  0.3086  0.5358 -0.3800
  328MOL0     O43211   6.902   1.848   8.117  0.4810  0.5065  0.3305
  328MOL0     C43212   6.974   1.688   7.800  0.7006 -0.2196 -0.0788
  328MOL0     C43213   6.974   1.710   7.662  0.3926  0.0365  0.7642
  328MOL0     N43214   6.786   2.095   6.959  0.4730 -0.1497  0.0522
  328MOL0     N43215   6.668   2.080   6.917  0.5492  0.3842  0.0942
  328MOL0     C43216   5.498   2.301   6.695  0.0691 -0.3947  0.2042
  328MOL0     C43217   5.362   2.313   6.739  0.2743  0.0190 -0.6020
  328MOL0     C43218   4.978   2.182   6.942 -0.4056  0.5935  0.7327
  328MOL0     C43219   4.926   2.299   6.882  1.1175  0.2485 -0.3012
  328MOL0     C43220   4.793   2.327   6.899  0.6811  0.9847 -0.0643
  328MOL0     C43221   4.713   2.216   6.940  0.6998  0.6974 -0.3890
  328MOL0     O43222   4.574   2.235   6.929  0.7677 -0.1024 -0.4302
  328MOL0     C43223   4.484   2.125   6.962 -0.0889 -0.1919  0.0274
  328MOL0     C43224   4.355   2.194   6.993 -0.0491 -0.2425 -0.0410
  328MOL0     C43225   4.248   2.094   7.041 -0.5824 -0.4621 -0.1287
  328MOL0     C43226   4.116   2.124   6.992  0.5038 -0.0691  0.2180
  328MOL0     C43227   4.096   2.085   6.854  0.2671 -0.4352  0.6334
  328MOL0     C43228   4.087   2.052   6.738  0.4305  0.0172  0.8571
  328MOL0     C43229   4.765   2.097   6.981  0.6247  0.2383 -0.1486
  328MOL0     C43230   4.897   2.082   6.993 -0.0523 -0.7390 -0.1752
  328MOL0     H43231   5.402   2.200   7.070 -0.9925 -2.7969 -1.7494
  328MOL0     H43232   5.634   2.165   6.983 -0.1145 -0.5540  0.1341
  328MOL0     H43233   5.796   2.397   6.800  0.9458 -1.6870  0.2396
  328MOL0     H43234   5.746   2.382   6.629  1.7076 -0.6621 -1.0170
  328MOL0     H43235   5.992   2.365   6.665 -1.2124  1.0896  0.9515
  328MOL0     H43236   5.915   2.218   6.590  2.0142 -1.3352  0.2137
  328MOL0     H43237   5.938   2.120   6.819  0.8689  0.6255  5.2199
  328MOL0     H43238   5.991   2.268   6.887  0.4672  1.9371  0.0102
  328MOL0     H43239   6.157   2.117   6.679 -0.0671  0.1287  1.1075
  328MOL0     H43240   6.185   2.284   6.725 -1.1425  0.6226 -0.3114
  328MOL0     H43241   6.147   2.075   6.935 -1.4533  1.2094 -0.1341
  328MOL0     H43242   6.228   2.229   6.941 -0.3888 -0.5859  1.2112
  328MOL0     H43243   6.419   2.135   6.824 -0.2748  0.9940  1.7002
  328MOL0     H43244   6.337   1.998   6.760  3.2525 -1.9968  0.7295
  328MOL0     H43245   6.449   2.039   7.042 -0.5490  2.0465 -1.2809
  328MOL0     H43246   6.317   1.921   7.022 -0.5446  1.0015  1.0800
  328MOL0     H43247   6.490   1.839   6.823 -1.7201  0.5816  0.6433
  328MOL0     H43248   6.502   1.787   6.981 -2.1574 -1.3754 -1.0707
  328MOL0     H43249   6.740   1.784   7.033  1.1517  0.9072  2.8080
  328MOL0     H43250   7.016   2.065   7.065  0.5876 -0.1082 -0.7887
  328MOL0     H43251   7.040   1.898   6.998  0.0441 -1.2529  1.4969
  328MOL0     H43252   7.001   1.819   7.208  0.8293  0.7761 -0.6398
  328MOL0     H43253   6.867   1.939   7.244 -0.6913 -0.9026  0.1322
  328MOL0     H43254   7.166   1.957   7.280 -1.6522 -3.5148  0.1869
  328MOL0     H43255   7.067   2.105   7.262  0.9660  0.2819  0.5170
  328MOL0     H43256   6.943   2.057   7.458 -1.3250 -0.8477  2.7901
  328MOL0     H43257   7.113   2.037   7.494  0.4707  1.3125 -2.3585
  328MOL0     H43258   6.966   2.053   7.670  1.7006  1.0719  2.7709
  328MOL0     H43259   6.951   1.999   7.908  0.0379  0.3492  0.0973
  328MOL0     H43260   7.090   1.825   8.292  0.4226 -1.0323 -1.6879
  328MOL0     H43261   7.119   1.757   8.530 -0.1462 -0.3609 -0.5356
  328MOL0     H43262   7.241   1.641   8.692 -0.4417 -0.4104 -1.8962
  328MOL0     H43263   7.224   1.501   8.784  3.0365  1.2921 -1.5724
  328MOL0     H43264   6.978   1.537   8.812 -0.9539  0.2162 -1.5542
  328MOL0     H43265   6.995   1.698   8.732  0.0688 -1.9589 -1.3588
  328MOL0     H43266   6.986   1.748   8.957 -4.6588 -3.5822 -2.0630
  328MOL0     H43267   7.153   1.752   8.910 -1.7429  2.6318  1.7930
  328MOL0     H43268   7.020   1.556   9.087  1.6248 -0.6960  0.4834
  328MOL0     H43269   7.153   1.497   9.000  0.6976 -0.7851 -0.0644
  328MOL0     H43270   7.249   1.755   9.115  1.8517 -1.4102 -0.8152
  328MOL0     H43271   7.281   1.593   9.185  1.5354  0.2158 -0.3782
  328MOL0     H43272   7.035   1.633   9.280  1.7937 -0.3062  2.8023
  328MOL0     H43273   7.055   1.797   9.246 -0.0810 -0.1948 -1.6833
  328MOL0     H43274   7.224   1.623   9.443 -0.9368 -0.3216  0.9373
  328MOL0     H43275   7.296   1.778   9.396  1.3707  1.2521  2.6921
  328MOL0     H43276   7.142   1.902   9.515  3.6634 -1.4013 -1.1110
  328MOL0     H43277   7.164   1.755   9.609  0.9644 -3.4026 -0.7114
  328MOL0     H43278   7.088   1.346   8.393 -0.4065  0.5492  3.9231
  328MOL0     H43279   7.031   1.425   8.171  0.3948  0.0692  0.0355
  328MOL0     H43280   7.000   1.591   7.841 -0.8653 -0.7174 -0.1939
  328MOL0     H43281   6.966   1.629   7.590 -1.6164  3.2893 -3.0864
  328MOL0     H43282   5.536   2.338   6.600  1.0930 -1.1960  0.2905
  328MOL0     H43283   5.281   2.342   6.674 -0.7523 -2.6624 -0.6106
  328MOL0     H43284   4.996   2.369   6.839 -0.0243  1.8139  0.3156
  328MOL0     H43285   4.759   2.427   6.873  2.7262  1.8524  0.4203
  328MOL0     H43286   4.515   2.090   7.060  2.0545  2.3489  0.4056
  328MOL0     H43287   4.479   2.041   6.892  0.4686 -1.4993  1.5172
  328MOL0     H43288   4.372   2.271   7.069 -1.4792 -0.7347  0.8169
  328MOL0     H43289   4.318   2.244   6.903  1.7284 -0.0874 -0.7235
  328MOL0     H43290   4.238   2.104   7.150 -0.7076  0.7086 -0.2380
  328MOL0     H43291   4.276   1.993   7.011  0.5502  0.2190 -1.4901
  328MOL0     H43292   4.036   2.073   7.047  1.1085 -1.4676 -0.1679
  328MOL0     H43293   4.086   2.229   6.999  0.7187  0.2952 -3.0375
  328MOL0     H43294   4.068   2.024   6.637 -0.7612  2.0204  0.4800
  328MOL0     H43295   4.716   2.017   7.035  3.2386 -0.5448  1.2734
  328MOL0     H43296   4.937   2.000   7.052 -1.5010  1.8416  5.0221
  329MOL0     O43297   1.333   0.312   1.703 -0.4100  0.3000  0.3165
  329MOL0     C43298   1.277   0.221   1.762 -0.2787  0.3113  0.4095
  329MOL0     O43299   1.140   0.185   1.741 -0.6542  0.3249 -0.4428
  329MOL0     C43300   1.064   0.256   1.660 -0.1782 -0.1499  0.3627
  329MOL0     C43301   1.051   0.398   1.666  0.6781  1.0846 -0.2713
  329MOL0     C43302   0.972   0.461   1.571  0.0845 -0.5191 -0.1570
  329MOL0     C43303   0.895   0.393   1.479 -0.3626 -0.7389  0.0311
  329MOL0     O43304   0.825   0.476   1.388 -0.5287  0.8614 -0.4080
  329MOL0     C43305   0.750   0.420   1.280 -0.4223 -0.0130 -0.0318
  329MOL0     C43306   0.701   0.539   1.196  0.4084  0.6482  0.0136
  329MOL0     C43307   0.549   0.550   1.187  0.1265  0.7012 -0.0127
  329MOL0     C43308   0.520   0.674   1.102  0.2669  0.0187  0.5007
  329MOL0     C43309   0.377   0.675   1.035 -0.1538  0.8509 -0.2289
  329MOL0     C43310   0.373   0.640   0.885 -0.6267  0.4283 -0.5110
  329MOL0     C43311   0.243   0.573   0.830  0.0779 -0.5814 -0.5424
  329MOL0     C43312   0.128   0.670   0.797  0.6828 -1.4073  0.6352
  329MOL0     N43313   0.176   0.774   0.704  0.0925 -0.3546 -0.0863
  329MOL0     C43314   0.234   0.760   0.581  0.5888  0.9622 -0.4074
  329MOL0     C43315   0.302   0.874   0.551  0.7052  0.1448  0.0728
  329MOL0     C43316   0.391   0.928   0.444  0.0181 -0.0281  0.2896
  329MOL0     C43317   0.432   0.817   0.348  0.4306  0.2247  0.3203
  329MOL0     C43318   0.319   0.757   0.257 -0.3650  0.0634  0.4039
  329MOL0     C43319   0.383   0.693   0.136  0.1061  0.2927 -0.4974
  329MOL0     O43320   0.434   0.786   0.035  0.3637 -0.4612  0.5444
  329MOL0     C43321   0.539   0.739  -0.041 -0.0895 -0.2825  0.1716
  329MOL0     C43322   0.534   0.633  -0.127  0.9287 -0.6455 -0.3838
  329MOL0     C43323   0.634   0.594  -0.215  0.0466 -0.2249 -0.1988
  329MOL0     C43324   0.759   0.658  -0.209  0.1205  0.8716  0.1545
  329MOL0     C43325   0.862   0.650  -0.323  0.8063 -0.2384 -0.5527
  329MOL0     O43326   0.950   0.757  -0.347  0.8193  0.0483 -0.2793
  329MOL0     C43327   1.060   0.722  -0.428  0.6329 -0.3393 -0.6129
  329MOL0     C43328   1.051   0.691  -0.559  0.5106  1.8172  0.4449
  329MOL0     C43329   1.175   0.660  -0.629  0.3245 -0.5289 -0.3009
  329MOL0     C43330   1.303   0.672  -0.570  0.0645  0.3195  0.5227
  329MOL0     O43331   1.422   0.638  -0.633  0.2623  0.1331 -0.1430
  329MOL0     C43332   1.453   0.506  -0.689 -0.3490  0.3089 -0.3088
  329MOL0     C43333   1.541   0.428  -0.599 -0.0912  0.1290  0.0048
  329MOL0     C43334   1.691   0.470  -0.605  0.7209  0.3382 -0.3414
  329MOL0     C43335   1.776   0.412  -0.493  0.3347  0.1930 -0.1707
  329MOL0     C43336   1.908   0.500  -0.465  0.4386 -0.2773 -0.4200
  329MOL0     C43337   2.006   0.509  -0.585 -0.4896 -0.8308  0.1067
  329MOL0     C43338   2.142   0.577  -0.522 -0.2593 -0.8838  0.6761
  329MOL0     C43339   2.122   0.728  -0.494  0.0437 -0.7355  0.4289
  329MOL0    Cl43340   2.279   0.800  -0.439  0.2516 -0.1527 -0.2845
  329MOL0     C43341   1.303   0.704  -0.433 -0.7928  0.1862  0.2992
  329MOL0     C43342   1.189   0.730  -0.367  1.1784  0.9254  0.7565
  329MOL0     O43343   0.861   0.540  -0.386 -0.0840 -0.1231 -0.8469
  329MOL0     C43344   0.771   0.759  -0.106  0.4131  0.3727  1.1459
  329MOL0     C43345   0.663   0.794  -0.017 -0.4296 -0.0938  0.2728
  329MOL0     N43346   0.272   0.962   0.662 -0.2131  0.1246 -0.2806
  329MOL0     N43347   0.198   0.901   0.747  0.6491 -0.3198 -0.8611
  329MOL0     C43348   0.889   0.260   1.488 -0.0450  0.7271 -0.4558
  329MOL0     C43349   0.972   0.188   1.570 -0.5724 -0.8133 -0.6435
  329MOL0     C43350   1.368   0.133   1.841  0.1238  1.0005 -1.0474
  329MOL0     C43351   1.509   0.159   1.864 -0.6826 -0.2339 -0.1872
  329MOL0     C43352   1.592   0.069   1.931 -0.0976 -0.3044  0.1747
  329MOL0     C43353   1.536  -0.045   1.998 -0.1054  0.3373  0.2523
  329MOL0     O43354   1.628  -0.106   2.073 -0.7816  0.5957 -0.2370
  329MOL0     C43355   1.589  -0.232   2.148  0.8680 -0.3732  0.6435
  329MOL0     C43356   1.574  -0.366   2.059 -0.0880 -0.6524 -1.2090
  329MOL0     C43357   1.508  -0.459   2.152  0.3741 -0.0057 -0.1650
  329MOL0     C43358   1.477  -0.593   2.082  0.0657 -0.2365  0.1151
  329MOL0     C43359   1.608  -0.662   2.089  0.2657 -0.4806 -0.3519
  329MOL0     C43360   1.699  -0.740   2.114  0.6556  0.1862  0.2487
  329MOL0     C43361   1.400  -0.056   1.997  0.1070  0.0233 -0.0628
  329MOL0     C43362   1.312   0.025   1.916 -0.1417 -0.1009 -0.1203
  329MOL0     H43363   1.106   0.460   1.736  2.1456  0.8356 -1.1434
  329MOL0     H43364   0.970   0.569   1.569 -0.3157 -0.4973  0.8594
  329MOL0     H43365   0.668   0.365   1.328 -2.1979  1.6509 -1.0036
  329MOL0     H43366   0.797   0.346   1.215  2.6060  1.3875  0.4031
  329MOL0     H43367   0.750   0.535   1.099  0.0429  0.6121 -0.1698
  329MOL0     H43368   0.740   0.630   1.244 -1.2131  1.1313  0.4822
  329MOL0     H43369   0.510   0.562   1.289  0.0996 -2.2849  0.4204
  329MOL0     H43370   0.494   0.466   1.143 -0.1136  1.2885 -0.8467
  329MOL0     H43371   0.515   0.757   1.173 -0.6988 -1.5840  2.4099
  329MOL0     H43372   0.598   0.702   1.031  0.7353  2.3302  1.8500
  329MOL0     H43373   0.336   0.776   1.045  0.5071  1.1137 -0.0800
  329MOL0     H43374   0.320   0.598   1.087  2.8121 -1.0091  0.5348
  329MOL0     H43375   0.456   0.570   0.875 -1.8513 -1.0987 -0.4467
  329MOL0     H43376   0.384   0.736   0.834 -0.4359  1.2859  1.0640
  329MOL0     H43377   0.271   0.517   0.740 -0.2836 -0.8680 -0.4803
  329MOL0     H43378   0.198   0.500   0.899 -4.3167  1.3334 -1.0254
  329MOL0     H43379   0.081   0.709   0.888 -0.3608  3.1756 -1.5726
  329MOL0     H43380   0.050   0.611   0.746 -0.2671  0.6714 -0.4526
  329MOL0     H43381   0.208   0.670   0.527 -0.6825  2.4609 -2.4298
  329MOL0     H43382   0.484   0.961   0.490  0.6156 -0.1405 -0.8050
  329MOL0     H43383   0.350   1.004   0.377 -2.8788 -1.0081  0.7878
  329MOL0     H43384   0.469   0.743   0.420  2.3068  1.7068  0.9494
  329MOL0     H43385   0.518   0.848   0.288 -0.8058  0.1945 -1.5711
  329MOL0     H43386   0.253   0.684   0.305 -0.6577 -0.3103 -0.5453
  329MOL0     H43387   0.258   0.840   0.221  0.2329 -0.0660 -0.9742
  329MOL0     H43388   0.309   0.626   0.090 -2.4356  0.7648  2.5219
  329MOL0     H43389   0.470   0.631   0.158 -1.0917 -1.2357  0.1854
  329MOL0     H43390   0.434   0.592  -0.135  0.7303 -0.2510  0.0243
  329MOL0     H43391   0.622   0.522  -0.295  1.1921 -1.8249  1.0094
  329MOL0     H43392   0.961   0.697  -0.618  2.4403 -0.0947 -3.0216
  329MOL0     H43393   1.164   0.637  -0.735  0.2607  0.2604 -0.4747
  329MOL0     H43394   1.503   0.506  -0.786  2.8976 -0.1928  1.2601
  329MOL0     H43395   1.363   0.443  -0.693 -1.0920  1.4000 -2.4521
  329MOL0     H43396   1.534   0.320  -0.615  0.4765  0.0220  0.4444
  329MOL0     H43397   1.512   0.451  -0.496 -2.6611  0.6922 -0.7733
  329MOL0     H43398   1.695   0.579  -0.598  1.2080  0.2220  2.0724
  329MOL0     H43399   1.723   0.439  -0.705  1.2457 -3.0847  0.7468
  329MOL0     H43400   1.711   0.404  -0.405  1.0998  0.2578  0.4149
  329MOL0     H43401   1.802   0.306  -0.496 -3.0240 -0.8102  1.3152
  329MOL0     H43402   1.954   0.462  -0.374  0.9978 -3.3692 -1.8549
  329MOL0     H43403   1.876   0.603  -0.449  2.5172  0.5763 -1.3746
  329MOL0     H43404   1.970   0.570  -0.669  0.6298  2.1716  1.6538
  329MOL0     H43405   2.023   0.405  -0.615 -0.2086 -1.0758  1.0942
  329MOL0     H43406   2.176   0.513  -0.439  0.6357  1.2677  2.0526
  329MOL0     H43407   2.219   0.578  -0.600  0.8669 -0.0947  1.7485
  329MOL0     H43408   2.064   0.749  -0.404  1.5685  1.1887  1.0412
  329MOL0     H43409   2.085   0.783  -0.582 -1.9271  0.9989  2.2188
  329MOL0     H43410   1.387   0.719  -0.366 -1.0278  2.4267  0.1885
  329MOL0     H43411   1.190   0.762  -0.263 -0.0830  2.6076  0.2929
  329MOL0     H43412   0.870   0.800  -0.090  0.1757  0.6422  1.9877
  329MOL0     H43413   0.671   0.874   0.056  1.1594  0.0460 -0.0189
  329MOL0     H43414   0.823   0.218   1.412 -1.9851  4.3053 -0.9987
  329MOL0     H43415   0.962   0.080   1.573 -0.9821 -0.7643  1.7368
  329MOL0     H43416   1.559   0.249   1.831  1.1699 -0.2067  2.3696
  329MOL0     H43417   1.696   0.095   1.945 -0.3677  0.9324  0.0116
  329MOL0     H43418   1.495  -0.207   2.197  0.1641 -0.6008 -0.5437
  329MOL0     H43419   1.652  -0.248   2.236  0.5509  1.7306  1.3088
  329MOL0     H43420   1.504  -0.354   1.975 -1.8714  1.3920  0.4699
  329MOL0     H43421   1.673  -0.400   2.025  0.2290  0.4201 -1.3956
  329MOL0     H43422   1.412  -0.415   2.182  0.2696 -1.7929  2.4909
  329MOL0     H43423   1.567  -0.467   2.244 -1.3509  1.0008  1.0999
  329MOL0     H43424   1.398  -0.647   2.134  0.0311  1.5363  2.0188
  329MOL0     H43425   1.445  -0.582   1.978 -1.6444  1.1766  0.7312
  329MOL0     H43426   1.786  -0.793   2.147  0.4732 -0.0791  0.3097
  329MOL0     H43427   1.345  -0.134   2.049 -0.0561 -2.3728 -3.4826
  329MOL0     H43428   1.206   0.004   1.905  0.5657 -3.4281 -2.2633
  330MOL0     O43429   9.118   2.273   7.761  0.6881 -0.4858 -0.5228
  330MOL0     C43430   9.026   2.232   7.833 -0.1341  0.2230 -0.1217
  330MOL0     O43431   9.038   2.133   7.934 -0.4603 -0.0475  0.4185
  330MOL0     C43432   9.169   2.120   7.985  0.4961  0.7675 -0.1075
  330MOL0     C43433   9.210   2.183   8.103  0.2671 -0.2008 -0.2428
  330MOL0     C43434   9.341   2.160   8.152 -0.3760  0.8740  0.2440
  330MOL0     C43435   9.426   2.075   8.090 -1.0963  1.0109 -0.2060
  330MOL0     O43436   9.560   2.059   8.109  0.5703  0.2850 -0.5384
  330MOL0     C43437   9.620   2.169   8.180 -0.2942 -0.7974  0.3971
  330MOL0     C43438   9.774   2.154   8.182  0.7963  0.6544  1.0497
  330MOL0     C43439   9.835   2.281   8.254 -0.0309  0.0420 -0.0358
  330MOL0     C43440   9.986   2.278   8.263  0.2162 -0.1011 -0.7583
  330MOL0     C43441  10.038   2.283   8.123 -0.5694  0.2105  0.0257
  330MOL0     C43442  10.183   2.333   8.117 -0.8079 -0.2164  1.1754
  330MOL0     C43443  10.256   2.316   7.982 -0.4433  0.3455  0.0212
  330MOL0     C43444  10.176   2.374   7.866  0.1822 -0.5003  0.4124
  330MOL0     N43445  10.185   2.522   7.864 -0.2304 -0.2729  0.5047
  330MOL0     C43446  10.086   2.614   7.842 -0.0063  0.1499 -0.4746
  330MOL0     C43447  10.147   2.741   7.845 -1.0668 -1.5361  1.0307
  330MOL0     C43448  10.068   2.869   7.809  0.1347 -0.2383 -0.5958
  330MOL0     C43449  10.052   2.948   7.950  0.8110 -0.3520 -1.0101
  330MOL0     C43450  10.008   3.097   7.952  0.1244  0.5736  0.3919
  330MOL0     C43451   9.876   3.119   7.874  0.2116  1.3207 -0.1839
  330MOL0     O43452   9.769   3.135   7.966  0.1639  0.1287 -0.6979
  330MOL0     C43453   9.657   3.181   7.910  1.3584  0.0256  0.3969
  330MOL0     C43454   9.550   3.159   7.991  0.9991  0.7312  0.2664
  330MOL0     C43455   9.419   3.194   7.943 -0.1203 -0.8301  0.1374
  330MOL0     C43456   9.397   3.252   7.818 -0.3989 -0.8034  0.7310
  330MOL0     C43457   9.259   3.287   7.762 -0.1816  0.3451  1.1093
  330MOL0     O43458   9.162   3.301   7.855  0.3293 -0.4581  0.0748
  330MOL0     C43459   9.036   3.346   7.818 -0.0072 -1.2769  0.1871
  330MOL0     C43460   8.956   3.292   7.714 -0.5070 -0.7958 -0.8050
  330MOL0     C43461   8.833   3.346   7.683 -0.0811  0.1289 -0.1673
  330MOL0     C43462   8.784   3.459   7.751 -0.6694 -0.6686 -0.5238
  330MOL0     O43463   8.648   3.494   7.747 -0.4706 -0.0474 -0.9338
  330MOL0     C43464   8.580   3.458   7.626  0.6832 -0.4552  0.3892
  330MOL0     C43465   8.443   3.527   7.622 -0.2374  0.0919  0.4565
  330MOL0     C43466   8.348   3.501   7.503 -0.1494  0.1421  0.0074
  330MOL0     C43467   8.212   3.572   7.524  1.1513  0.3473  0.0985
  330MOL0     C43468   8.104   3.535   7.405 -0.1676  0.1647 -0.4433
  330MOL0     C43469   7.957   3.546   7.426 -0.0448  0.5471 -0.0340
  330MOL0     C43470   7.907   3.691   7.423 -0.4836 -0.6619  0.3272
  330MOL0     C43471   7.754   3.711   7.433 -0.6753  0.0533  0.3229
  330MOL0    Cl43472   7.680   3.644   7.294  0.3612 -0.2298  0.0746
  330MOL0     C43473   8.862   3.514   7.854  0.1905 -0.2069  0.6137
  330MOL0     C43474   8.985   3.463   7.878 -0.2765  0.5718  0.1277
  330MOL0     O43475   9.250   3.294   7.638 -0.1076 -0.5042 -0.7372
  330MOL0     C43476   9.515   3.272   7.743  0.2827 -0.1115  0.4304
  330MOL0     C43477   9.641   3.234   7.786 -0.4069  0.2524 -0.3689
  330MOL0     N43478  10.278   2.719   7.874  0.2799 -1.0289  0.2500
  330MOL0     N43479  10.303   2.594   7.873 -0.4318 -0.7271  0.5174
  330MOL0     C43480   9.368   1.990   7.998 -1.3762 -0.4798  0.5693
  330MOL0     C43481   9.247   2.011   7.948 -0.2103  0.1434  0.3889
  330MOL0     C43482   8.885   2.267   7.802 -0.8807 -0.2232 -0.0817
  330MOL0     C43483   8.782   2.220   7.894 -0.4904 -0.0301 -0.3276
  330MOL0     C43484   8.651   2.258   7.874 -1.0367 -0.0265  0.4782
  330MOL0     C43485   8.614   2.347   7.769  0.8702  0.0906 -0.3967
  330MOL0     O43486   8.489   2.379   7.724  1.0164 -0.0863  0.4355
  330MOL0     C43487   8.381   2.360   7.813  0.1448 -0.2172  0.0786
  330MOL0     C43488   8.322   2.217   7.791  0.5770 -0.0274  0.8194
  330MOL0     C43489   8.208   2.179   7.895 -0.5669 -0.0546 -0.0580
  330MOL0     C43490   8.089   2.274   7.887  0.1369 -0.2994  0.1928
  330MOL0     C43491   7.994   2.254   7.995  0.1928  0.2533 -1.0642
  330MOL0     C43492   7.918   2.249   8.097 -0.2697 -0.1136  0.7966
  330MOL0     C43493   8.715   2.389   7.683 -0.5654  0.7183 -0.6748
  330MOL0     C43494   8.848   2.356   7.695 -0.7494 -0.1611 -0.4853
  330MOL0     H43495   9.144   2.246   8.161 -0.7451 -0.6787 -0.8416
  330MOL0     H43496   9.377   2.217   8.237  2.5213  0.2382 -0.4675
  330MOL0     H43497   9.584   2.169   8.283  1.3275 -0.8327  0.9994
  330MOL0     H43498   9.599   2.264   8.130  1.7036  0.0809  1.1188
  330MOL0     H43499   9.821   2.144   8.084  1.2082 -1.6387  1.4324
  330MOL0     H43500   9.788   2.059   8.235 -2.7035  0.2403  1.4729
  330MOL0     H43501   9.795   2.286   8.356 -1.0412 -2.4843 -0.2345
  330MOL0     H43502   9.802   2.364   8.191  1.4906 -0.7402 -1.9794
  330MOL0     H43503  10.029   2.358   8.323  0.7859  0.3917 -1.7940
  330MOL0     H43504  10.024   2.186   8.308  0.9346 -0.5477 -2.2258
  330MOL0     H43505   9.976   2.345   8.057 -1.3894  0.9705  1.4608
  330MOL0     H43506  10.035   2.186   8.074  0.6225 -0.8382  1.9165
  330MOL0     H43507  10.244   2.288   8.196  1.4812  0.1159 -0.3064
  330MOL0     H43508  10.195   2.440   8.133  2.0979 -0.2574 -0.0225
  330MOL0     H43509  10.355   2.361   7.994 -1.1521  1.5353  1.6563
  330MOL0     H43510  10.278   2.212   7.953  0.6894  1.2801 -2.8376
  330MOL0     H43511  10.071   2.352   7.885  0.4768  0.3392  3.5962
  330MOL0     H43512  10.194   2.326   7.769 -2.0221  0.2853 -0.4399
  330MOL0     H43513   9.980   2.593   7.839 -0.0895  0.3828  0.3347
  330MOL0     H43514   9.972   2.844   7.763  0.4558  0.7995 -1.8911
  330MOL0     H43515  10.127   2.929   7.739  3.0157 -0.7972  1.1993
  330MOL0     H43516  10.148   2.948   8.001  0.7131 -0.9043 -0.8190
  330MOL0     H43517   9.982   2.892   8.013  2.2634  0.3782  1.3432
  330MOL0     H43518   9.992   3.127   8.055 -1.2502  0.4904  0.2245
  330MOL0     H43519  10.100   3.153   7.931  0.3659  0.1126  0.1896
  330MOL0     H43520   9.851   3.039   7.804 -1.9126  1.3277  0.4987
  330MOL0     H43521   9.892   3.215   7.825  0.7849  2.2264  1.6599
  330MOL0     H43522   9.558   3.120   8.091 -1.6091  0.8484  0.5824
  330MOL0     H43523   9.330   3.182   8.003 -1.2151  2.2857 -0.6823
  330MOL0     H43524   8.994   3.203   7.664  1.1303 -0.2953 -0.5218
  330MOL0     H43525   8.772   3.294   7.610  0.7251  2.7843 -2.9172
  330MOL0     H43526   8.562   3.351   7.624  2.4340 -0.7774 -1.9007
  330MOL0     H43527   8.632   3.495   7.537 -2.2413  1.2239 -0.7565
  330MOL0     H43528   8.455   3.635   7.615  0.4574 -0.0851 -2.2007
  330MOL0     H43529   8.399   3.506   7.720  0.8991  1.8587  1.3957
  330MOL0     H43530   8.339   3.393   7.492 -2.6294 -0.1581  3.2777
  330MOL0     H43531   8.385   3.544   7.409  0.4094  1.9344  0.9936
  330MOL0     H43532   8.159   3.549   7.617 -0.1613 -0.3655 -0.7939
  330MOL0     H43533   8.221   3.680   7.539  1.1436 -0.0982  4.9275
  330MOL0     H43534   8.120   3.428   7.395 -2.3095 -0.1490 -1.0089
  330MOL0     H43535   8.140   3.597   7.322 -1.5919  1.9053  0.1753
  330MOL0     H43536   7.934   3.491   7.518  1.2944 -2.0211 -1.1461
  330MOL0     H43537   7.922   3.489   7.339  0.9182  0.8055 -0.6032
  330MOL0     H43538   7.955   3.746   7.504  2.5864  3.7252 -3.9317
  330MOL0     H43539   7.935   3.734   7.327  0.6191  2.4313  1.8847
  330MOL0     H43540   7.739   3.819   7.442 -2.5635 -0.1313 -0.1677
  330MOL0     H43541   7.711   3.667   7.523  1.7598 -2.3249  0.4355
  330MOL0     H43542   8.816   3.593   7.913  2.0305 -1.3634  3.8638
  330MOL0     H43543   9.041   3.529   7.943  0.4794 -0.3697  0.4684
  330MOL0     H43544   9.512   3.328   7.650 -3.1651  1.6511  1.4399
  330MOL0     H43545   9.727   3.245   7.720  1.8281  0.8636  2.4280
  330MOL0     H43546   9.420   1.902   7.960 -1.2050 -0.3996  0.6172
  330MOL0     H43547   9.207   1.933   7.883 -1.6046  2.0626 -1.2146
  330MOL0     H43548   8.807   2.138   7.959  0.2210 -1.4618 -2.2963
  330MOL0     H43549   8.586   2.204   7.943 -2.2719  1.2651  0.3721
  330MOL0     H43550   8.310   2.441   7.794  0.5178 -0.0858 -0.7833
  330MOL0     H43551   8.415   2.374   7.916 -1.1672 -1.7815  0.7741
  330MOL0     H43552   8.274   2.204   7.693 -0.4966 -0.2448  1.3556
  330MOL0     H43553   8.397   2.138   7.801 -0.0178 -0.5092  1.5301
  330MOL0     H43554   8.254   2.173   7.994  2.1584 -0.6795 -1.2676
  330MOL0     H43555   8.158   2.083   7.879 -1.4894  0.4610 -0.3368
  330MOL0     H43556   8.119   2.379   7.882 -3.0286  0.6612 -0.5468
  330MOL0     H43557   8.021   2.246   7.806 -1.7633  0.3353  1.5121
  330MOL0     H43558   7.857   2.249   8.185 -1.3110 -2.1785  0.1409
  330MOL0     H43559   8.698   2.451   7.596  1.8152  0.4308 -1.4231
  330MOL0     H43560   8.924   2.388   7.625  0.0828 -3.6352 -1.3249
  331MOL0     O43561   5.642   3.245  10.344  0.5556  0.0628 -0.1433
  331MOL0     C43562   5.708   3.330  10.400 -1.0669 -0.2694  0.4207
  331MOL0     O43563   5.666   3.455  10.431 -0.1465 -0.8197  0.2037
  331MOL0     C43564   5.527   3.463  10.441 -0.6420  0.3078  0.0814
  331MOL0     C43565   5.461   3.574  10.392  0.9232 -0.1126  0.0171
  331MOL0     C43566   5.326   3.605  10.419 -0.4063 -0.4605 -0.7495
  331MOL0     C43567   5.256   3.528  10.515 -0.3982  0.2994  0.3406
  331MOL0     O43568   5.124   3.552  10.550 -0.1859 -0.9129  0.1904
  331MOL0     C43569   5.067   3.479  10.650  0.1529 -0.6857 -0.8398
  331MOL0     C43570   4.926   3.531  10.681  0.9401 -0.5586  0.3388
  331MOL0     C43571   4.834   3.434  10.768 -0.9195 -0.3402  0.0332
  331MOL0     C43572   4.696   3.485  10.805  0.0587  0.1142  0.7734
  331MOL0     C43573   4.641   3.403  10.925 -0.0571  0.1197 -0.1674
  331MOL0     C43574   4.548   3.496  11.007 -0.3208  0.6013 -1.0042
  331MOL0     C43575   4.463   3.420  11.112  0.6018  0.1813 -0.0741
  331MOL0     C43576   4.358   3.509  11.173 -0.2261 -0.3990 -0.4400
  331MOL0     N43577   4.265   3.446  11.256 -0.3122  0.5451  0.8840
  331MOL0     C43578   4.132   3.458  11.247  0.3028 -0.3924  0.1234
  331MOL0     C43579   4.077   3.413  11.362 -0.0320 -0.8857  0.5706
  331MOL0     C43580   3.933   3.412  11.403  0.4048 -0.1978  0.2316
  331MOL0     C43581   3.883   3.268  11.416  0.1141 -0.0558  0.1257
  331MOL0     C43582   3.741   3.245  11.362 -0.2518  0.1319 -0.4903
  331MOL0     C43583   3.633   3.269  11.469  0.4869  0.1506 -0.7618
  331MOL0     O43584   3.505   3.207  11.421 -0.2290 -0.8232  0.2354
  331MOL0     C43585   3.402   3.258  11.499  0.5667  0.5639  0.3543
  331MOL0     C43586   3.413   3.293  11.632  0.1053  0.4517  0.4032
  331MOL0     C43587   3.298   3.314  11.712 -0.1709  0.6131  0.2221
  331MOL0     C43588   3.166   3.302  11.651  0.1610 -0.1426 -0.6210
  331MOL0     C43589   3.046   3.326  11.724  0.6611  0.3305  0.7673
  331MOL0     O43590   3.049   3.306  11.855  0.2112 -0.0483  0.2523
  331MOL0     C43591   2.927   3.302  11.927  0.1468  0.4513  0.3116
  331MOL0     C43592   2.921   3.392  12.028 -0.8109 -0.2995 -0.0766
  331MOL0     C43593   2.816   3.399  12.114 -0.5818  0.5314  0.2767
  331MOL0     C43594   2.708   3.310  12.098 -0.6191 -0.1368  0.3542
  331MOL0     O43595   2.608   3.307  12.194  0.0852  0.1816 -0.2129
  331MOL0     C43596   2.480   3.289  12.147  0.8818  0.5385  0.5095
  331MOL0     C43597   2.384   3.327  12.254  0.2242 -0.4937 -0.0942
  331MOL0     C43598   2.237   3.341  12.207 -0.4207 -0.2093  0.5284
  331MOL0     C43599   2.158   3.414  12.318  0.2314  0.1850 -0.2896
  331MOL0     C43600   2.025   3.354  12.329 -0.5221  0.0664  0.0197
  331MOL0     C43601   1.945   3.420  12.446 -0.2601 -0.5181 -0.1180
  331MOL0     C43602   1.793   3.393  12.450 -0.9758 -0.6275 -0.1523
  331MOL0     C43603   1.763   3.249  12.408  0.4424 -1.1136 -0.0323
  331MOL0    Cl43604   1.854   3.128  12.513 -0.2536  0.3004 -0.4696
  331MOL0     C43605   2.713   3.207  11.989  0.5013 -0.5373 -0.9433
  331MOL0     C43606   2.824   3.214  11.904 -0.1027  0.1932  0.6413
  331MOL0     O43607   2.951   3.383  11.662 -0.9840 -0.5689 -0.1938
  331MOL0     C43608   3.161   3.292  11.511  0.0798  0.4832 -0.0253
  331MOL0     C43609   3.275   3.269  11.433 -1.2159 -0.8886  0.1637
  331MOL0     N43610   4.185   3.363  11.434 -0.3167  0.1400 -0.0202
  331MOL0     N43611   4.295   3.374  11.366 -0.9009 -0.3083 -0.1447
  331MOL0     C43612   5.334   3.424  10.579  0.9623  0.9024  0.6125
  331MOL0     C43613   5.455   3.380  10.529  0.3906 -0.2133 -0.1079
  331MOL0     C43614   5.849   3.304  10.448  0.1781 -0.1803  0.2296
  331MOL0     C43615   5.925   3.410  10.496  0.0133 -0.3851  0.2902
  331MOL0     C43616   6.061   3.401  10.530  0.3919  1.3549  0.2523
  331MOL0     C43617   6.122   3.269  10.527 -0.2938 -0.5140  0.3547
  331MOL0     O43618   6.253   3.250  10.577 -0.4632  1.2518  0.6359
  331MOL0     C43619   6.337   3.366  10.567 -0.7936 -0.0099 -0.2364
  331MOL0     C43620   6.481   3.327  10.595 -1.0874 -0.2646 -0.2489
  331MOL0     C43621   6.571   3.451  10.613 -0.0540  0.0475 -0.3896
  331MOL0     C43622   6.717   3.436  10.632  0.2419  0.2418  0.0311
  331MOL0     C43623   6.775   3.359  10.522 -0.0580 -0.3660 -1.3256
  331MOL0     C43624   6.862   3.302  10.465 -0.4994  0.4051 -0.0705
  331MOL0     C43625   6.040   3.159  10.493 -0.7892  1.0932 -0.3713
  331MOL0     C43626   5.903   3.173  10.457 -0.1369 -0.2732  0.1022
  331MOL0     H43627   5.533   3.638  10.342  0.9691  0.3877  0.7188
  331MOL0     H43628   5.280   3.696  10.380 -1.7064 -0.3800  0.8653
  331MOL0     H43629   5.115   3.463  10.748  0.0769 -2.1392 -1.0235
  331MOL0     H43630   5.050   3.379  10.608  1.4202 -0.9660 -0.7470
  331MOL0     H43631   4.873   3.536  10.585 -1.4269  1.4056  1.6300
  331MOL0     H43632   4.934   3.634  10.719 -2.1283  0.3092 -1.0180
  331MOL0     H43633   4.884   3.422  10.865  0.1398 -2.3124 -0.7051
  331MOL0     H43634   4.826   3.336  10.721 -1.8037 -0.3371  0.1523
  331MOL0     H43635   4.708   3.590  10.832 -3.0603  1.0944 -1.0641
  331MOL0     H43636   4.638   3.467  10.714  0.0678  2.2326  0.2908
  331MOL0     H43637   4.726   3.360  10.979  0.8213 -2.3827 -3.2259
  331MOL0     H43638   4.572   3.323  10.897 -1.4984  0.9246  0.9491
  331MOL0     H43639   4.487   3.548  10.933  0.6069 -1.5391 -3.4646
  331MOL0     H43640   4.604   3.578  11.053 -2.3685  3.6850 -3.5955
  331MOL0     H43641   4.412   3.337  11.062  0.0612  1.1638 -1.2051
  331MOL0     H43642   4.522   3.371  11.189 -0.6716  1.9207  2.1224
  331MOL0     H43643   4.315   3.568  11.091  3.7212 -0.0787 -2.5038
  331MOL0     H43644   4.417   3.576  11.237  0.3660 -2.2240  1.0170
  331MOL0     H43645   4.081   3.513  11.168 -2.1386 -2.4168  0.1765
  331MOL0     H43646   3.869   3.479  11.344  1.0954 -0.1120 -0.4324
  331MOL0     H43647   3.919   3.455  11.502  0.1733  0.3660 -0.0395
  331MOL0     H43648   3.914   3.235  11.515 -0.0735  0.0197  0.2104
  331MOL0     H43649   3.939   3.206  11.346 -1.5389 -0.3394 -1.0128
  331MOL0     H43650   3.721   3.320  11.285 -0.8175  0.3672 -0.1204
  331MOL0     H43651   3.714   3.146  11.322 -1.8911  1.4778 -2.9971
  331MOL0     H43652   3.618   3.375  11.492  1.5094 -0.4053  3.2353
  331MOL0     H43653   3.669   3.210  11.554 -1.5380 -4.4109 -2.7496
  331MOL0     H43654   3.507   3.299  11.686 -0.0769 -2.6528  1.2970
  331MOL0     H43655   3.297   3.344  11.817  4.3767 -1.3059  1.0434
  331MOL0     H43656   3.009   3.455  12.035  0.6084 -2.2756  1.1985
  331MOL0     H43657   2.814   3.476  12.191  1.7180  0.6632  0.2944
  331MOL0     H43658   2.459   3.188  12.110  1.6419  1.2078 -1.9040
  331MOL0     H43659   2.460   3.360  12.066  0.2837 -0.9349 -0.6796
  331MOL0     H43660   2.410   3.426  12.293 -1.0044 -1.1811  2.7540
  331MOL0     H43661   2.391   3.261  12.340  0.4454  0.1738  0.4092
  331MOL0     H43662   2.198   3.243  12.180 -1.4112 -0.1992  1.8251
  331MOL0     H43663   2.236   3.398  12.114 -1.0507 -1.0488  0.0193
  331MOL0     H43664   2.201   3.414  12.419  2.9429  4.6730 -1.1726
  331MOL0     H43665   2.159   3.519  12.286 -0.0915  0.2871  0.0242
  331MOL0     H43666   2.031   3.245  12.334  1.1548  0.1842  2.5309
  331MOL0     H43667   1.967   3.375  12.239 -2.4653  0.2691  1.2602
  331MOL0     H43668   1.962   3.528  12.436  0.4039 -0.1299  3.7068
  331MOL0     H43669   1.989   3.384  12.539 -3.7825 -3.2978  0.6891
  331MOL0     H43670   1.758   3.416  12.551  0.7254 -0.2039  0.3831
  331MOL0     H43671   1.743   3.467  12.387  2.6239  2.7205  0.5521
  331MOL0     H43672   1.796   3.241  12.304  0.8500 -1.2358  0.1061
  331MOL0     H43673   1.656   3.227  12.402 -0.6663  3.3397 -0.0974
  331MOL0     H43674   2.619   3.156  11.972  0.1388 -0.2573  0.1463
  331MOL0     H43675   2.828   3.154  11.814  2.2891  2.6245 -1.0372
  331MOL0     H43676   3.066   3.298  11.459  1.6981  0.6451 -3.1794
  331MOL0     H43677   3.278   3.253  11.326 -0.1317 -3.7307  0.5324
  331MOL0     H43678   5.290   3.374  10.665  2.2375 -0.6526  0.4083
  331MOL0     H43679   5.509   3.298  10.575  0.3547  0.1020  0.5012
  331MOL0     H43680   5.895   3.514  10.498 -1.1914 -0.6979  2.7585
  331MOL0     H43681   6.104   3.498  10.549  3.7671  0.0191  0.1091
  331MOL0     H43682   6.309   3.447  10.635  0.5892 -1.6607  2.4553
  331MOL0     H43683   6.335   3.410  10.467 -0.0436 -1.1195 -0.7630
  331MOL0     H43684   6.494   3.258  10.679  2.0390 -2.3566 -2.2639
  331MOL0     H43685   6.522   3.274  10.509 -1.2948 -0.3424 -0.3013
  331MOL0     H43686   6.518   3.498  10.696 -4.0225 -0.6043 -2.3260
  331MOL0     H43687   6.568   3.517  10.526  0.5164  3.0336  1.6898
  331MOL0     H43688   6.774   3.528  10.646 -1.8230  1.3968  1.2713
  331MOL0     H43689   6.728   3.385  10.728 -0.9468  2.5147  1.4675
  331MOL0     H43690   6.953   3.256  10.431 -0.0133  1.0427  0.3504
  331MOL0     H43691   6.093   3.067  10.469  1.1871  2.0411  0.1882
  331MOL0     H43692   5.857   3.080  10.425  1.7712 -0.9610 -0.7753
  332MOL0     O43693   0.958   9.355   2.983  0.1526 -0.1479 -0.0604
  332MOL0     C43694   0.959   9.472   2.957 -0.0374 -0.3698 -0.1600
  332MOL0     O43695   0.869   9.557   2.994 -0.4831 -0.3114 -0.0041
  332MOL0     C43696   0.789   9.519   3.097 -0.2243  0.3127  0.3378
  332MOL0     C43697   0.832   9.544   3.226 -0.1879  0.0025  0.8661
  332MOL0     C43698   0.746   9.527   3.332  0.0903 -0.1442  0.2070
  332MOL0     C43699   0.612   9.497   3.315  0.0022 -0.0123 -0.6441
  332MOL0     O43700   0.533   9.489   3.430  0.6005 -0.0497  0.4486
  332MOL0     C43701   0.398   9.539   3.414 -0.2040  0.4695 -0.4353
  332MOL0     C43702   0.318   9.518   3.542 -0.3108 -0.0682 -0.0225
  332MOL0     C43703   0.184   9.597   3.515  0.6871 -0.3847  0.1143
  332MOL0     C43704   0.071   9.583   3.627 -0.1625  0.3010  0.4843
  332MOL0     C43705  -0.057   9.666   3.593 -1.0720 -0.3566 -0.2117
  332MOL0     C43706  -0.150   9.688   3.718 -0.5724  0.0207 -0.0979
  332MOL0     C43707  -0.268   9.769   3.674 -0.0905 -0.2460 -0.4475
  332MOL0     C43708  -0.397   9.755   3.772 -0.5041  1.4971  0.5698
  332MOL0     N43709  -0.489   9.867   3.754  0.3835  0.9465  0.8633
  332MOL0     C43710  -0.485  10.001   3.782  0.3066 -0.2451 -1.0698
  332MOL0     C43711  -0.595  10.055   3.722  0.0125  0.7956 -0.4861
  332MOL0     C43712  -0.635  10.193   3.716 -0.2879 -0.7837 -1.3173
  332MOL0     C43713  -0.723  10.222   3.834  0.2760 -0.5917  1.0785
  332MOL0     C43714  -0.774  10.368   3.826 -0.1223 -0.7128 -0.7808
  332MOL0     C43715  -0.858  10.406   3.948 -0.1811 -0.6695  0.1882
  332MOL0     O43716  -0.772  10.411   4.056 -0.6082  0.1408 -0.1396
  332MOL0     C43717  -0.781  10.512   4.143  0.1671 -0.4791 -0.2404
  332MOL0     C43718  -0.668  10.553   4.217  0.9405  0.5354 -0.3911
  332MOL0     C43719  -0.676  10.649   4.315 -0.1468  0.4763 -0.9554
  332MOL0     C43720  -0.797  10.710   4.351  0.1531  0.4190  0.3714
  332MOL0     C43721  -0.810  10.808   4.449 -0.2570 -0.4951 -0.2268
  332MOL0     O43722  -0.935  10.832   4.508 -0.6626  0.0535 -0.5207
  332MOL0     C43723  -0.978  10.953   4.548 -0.4678  0.0862  0.0851
  332MOL0     C43724  -1.111  10.947   4.587 -0.2957 -0.4043 -0.3294
  332MOL0     C43725  -1.183  11.059   4.628  0.4011 -0.5460  0.0637
  332MOL0     C43726  -1.116  11.186   4.633  0.4906  0.4401  0.1875
  332MOL0     O43727  -1.159  11.302   4.686 -0.2527  0.6898 -0.9092
  332MOL0     C43728  -1.294  11.336   4.645  0.1841  1.0216 -0.2707
  332MOL0     C43729  -1.369  11.446   4.718  0.9586  0.0058  0.1231
  332MOL0     C43730  -1.296  11.577   4.698 -0.9933  0.1388  0.6642
  332MOL0     C43731  -1.340  11.672   4.805  0.5748 -0.6976  0.3464
  332MOL0     C43732  -1.475  11.749   4.763 -0.3129 -0.0144 -0.0259
  332MOL0     C43733  -1.444  11.896   4.740  0.3614 -0.2555  0.2730
  332MOL0     C43734  -1.564  11.987   4.718 -0.5216  0.4324 -0.3187
  332MOL0     C43735  -1.528  12.099   4.619  0.6935  0.5195  0.5031
  332MOL0    Cl43736  -1.675  12.188   4.559 -0.1073  0.0576 -0.5289
  332MOL0     C43737  -0.986  11.190   4.583 -0.1980 -0.0279  0.8475
  332MOL0     C43738  -0.910  11.074   4.554  0.1519 -0.2231  0.8945
  332MOL0     O43739  -0.713  10.882   4.470 -0.4530 -0.5253  0.4615
  332MOL0     C43740  -0.913  10.678   4.274  0.7353  0.3614 -1.0097
  332MOL0     C43741  -0.904  10.575   4.174 -0.9459 -0.8772 -0.2997
  332MOL0     N43742  -0.670   9.948   3.674 -0.7784 -0.0163  0.0319
  332MOL0     N43743  -0.604   9.847   3.692 -0.1372  0.0270 -1.0331
  332MOL0     C43744   0.558   9.482   3.188  0.5524 -0.0066  0.5876
  332MOL0     C43745   0.651   9.494   3.077 -0.3466 -0.0056  0.2374
  332MOL0     C43746   1.071   9.520   2.874 -0.6213 -1.0117  0.6297
  332MOL0     C43747   1.071   9.653   2.832 -0.4993  0.0056 -0.2944
  332MOL0     C43748   1.186   9.704   2.766  0.0159  0.4391 -0.6629
  332MOL0     C43749   1.301   9.634   2.757  0.5651  0.4188  0.0812
  332MOL0     O43750   1.409   9.699   2.705  0.6053  0.1069 -0.3428
  332MOL0     C43751   1.531   9.638   2.704 -0.5313 -0.3082 -0.6861
  332MOL0     C43752   1.582   9.587   2.569 -0.8111  0.1245 -1.1216
  332MOL0     C43753   1.729   9.623   2.537  0.5713 -0.0815 -0.7960
  332MOL0     C43754   1.826   9.536   2.618  0.4330  0.1333 -0.4570
  332MOL0     C43755   1.969   9.541   2.572 -0.7711 -0.1021  0.7074
  332MOL0     C43756   2.079   9.560   2.523 -0.5348 -0.2943 -0.5394
  332MOL0     C43757   1.301   9.497   2.783  0.8167 -0.5232 -0.5464
  332MOL0     C43758   1.185   9.441   2.851  0.4098  0.3251  0.3410
  332MOL0     H43759   0.934   9.580   3.236 -0.0789  0.2584 -0.7641
  332MOL0     H43760   0.792   9.537   3.430  3.4727 -0.8122 -1.1952
  332MOL0     H43761   0.349   9.485   3.332 -0.7863 -3.6365  2.3519
  332MOL0     H43762   0.404   9.645   3.389  1.0233  0.2120 -1.3344
  332MOL0     H43763   0.367   9.565   3.627  1.6899  1.7331 -2.0263
  332MOL0     H43764   0.300   9.411   3.554  2.2688 -0.2373  3.9408
  332MOL0     H43765   0.143   9.561   3.421 -2.4369 -0.6167  1.4284
  332MOL0     H43766   0.212   9.703   3.504 -2.2022  0.2296 -2.9950
  332MOL0     H43767   0.036   9.480   3.640 -0.4531  0.3608  0.2065
  332MOL0     H43768   0.110   9.622   3.721  0.5353  1.5744 -0.3062
  332MOL0     H43769  -0.131   9.616   3.530 -1.2336 -1.3125  0.7094
  332MOL0     H43770  -0.022   9.758   3.545 -2.7795  0.2937 -0.2931
  332MOL0     H43771  -0.108   9.746   3.800  1.5276 -1.5570  0.0470
  332MOL0     H43772  -0.171   9.586   3.752  1.4561  0.0248  1.3872
  332MOL0     H43773  -0.238   9.874   3.664 -0.2781 -0.1243  0.2101
  332MOL0     H43774  -0.299   9.739   3.574 -3.9640  1.1017  0.1472
  332MOL0     H43775  -0.378   9.736   3.878  0.1822  2.8382  0.7141
  332MOL0     H43776  -0.455   9.666   3.748 -1.5998  2.1712  0.6684
  332MOL0     H43777  -0.412  10.049   3.846  0.0304 -0.2770 -0.7311
  332MOL0     H43778  -0.691  10.206   3.623 -0.8454  0.0546 -0.8796
  332MOL0     H43779  -0.545  10.256   3.721  0.9934 -2.5842  0.1086
  332MOL0     H43780  -0.662  10.211   3.924  2.8866 -1.2599 -0.6794
  332MOL0     H43781  -0.810  10.157   3.821 -2.3568  2.3591  2.5317
  332MOL0     H43782  -0.687  10.434   3.826 -0.9678  0.4653  0.7539
  332MOL0     H43783  -0.838  10.391   3.740 -1.4799  1.1190  0.6418
  332MOL0     H43784  -0.943  10.343   3.973  0.3725 -1.9657 -1.0919
  332MOL0     H43785  -0.907  10.502   3.927  0.3260 -0.7813 -1.6435
  332MOL0     H43786  -0.574  10.501   4.198 -0.1581 -0.9559 -1.9583
  332MOL0     H43787  -0.590  10.662   4.381 -0.6247  1.2800 -0.4751
  332MOL0     H43788  -1.156  10.848   4.583 -1.4381 -0.0690  2.3219
  332MOL0     H43789  -1.283  11.038   4.667 -0.1522 -1.8954 -1.8947
  332MOL0     H43790  -1.364  11.252   4.649  0.9082  0.3891 -0.5452
  332MOL0     H43791  -1.288  11.355   4.537 -2.0876 -0.6119 -0.7755
  332MOL0     H43792  -1.377  11.430   4.826  0.4508 -2.3345 -0.2015
  332MOL0     H43793  -1.464  11.463   4.665  1.0968  0.4490  0.0148
  332MOL0     H43794  -1.303  11.623   4.599 -1.6577  1.4355  1.2984
  332MOL0     H43795  -1.189  11.561   4.711 -0.5933  2.2264  0.2113
  332MOL0     H43796  -1.360  11.630   4.904  0.6337  0.7080  0.9771
  332MOL0     H43797  -1.263  11.748   4.816  3.3280 -2.9193 -1.9416
  332MOL0     H43798  -1.558  11.746   4.834  0.5955  0.5642  1.0951
  332MOL0     H43799  -1.516  11.718   4.667 -4.1396 -3.3469  2.3552
  332MOL0     H43800  -1.374  11.903   4.655  1.3914 -1.1923  1.0076
  332MOL0     H43801  -1.388  11.940   4.822  1.1925 -0.2888 -0.2537
  332MOL0     H43802  -1.651  11.927   4.691  0.8713 -0.4038 -3.4014
  332MOL0     H43803  -1.583  12.033   4.815 -0.1676 -1.5889  0.7646
  332MOL0     H43804  -1.506  12.040   4.530  1.6682 -0.4308  1.3445
  332MOL0     H43805  -1.444  12.163   4.645  2.2523 -1.0612 -0.4672
  332MOL0     H43806  -0.927  11.281   4.579  1.0731 -0.8673 -1.8992
  332MOL0     H43807  -0.803  11.088   4.542  0.3938 -3.0054 -0.9444
  332MOL0     H43808  -1.005  10.720   4.314  0.4406 -1.8827  0.8357
  332MOL0     H43809  -0.997  10.554   4.122  0.0374 -0.6485 -2.2509
  332MOL0     H43810   0.456   9.453   3.165  0.6591 -0.2023  0.3536
  332MOL0     H43811   0.628   9.468   2.974 -0.2514  0.2560  0.1479
  332MOL0     H43812   0.979   9.710   2.839  1.4173  3.4166 -0.4964
  332MOL0     H43813   1.184   9.808   2.733 -0.9685  1.1587  1.4026
  332MOL0     H43814   1.541   9.554   2.774 -0.9481 -1.2169 -1.6849
  332MOL0     H43815   1.598   9.713   2.745 -0.9380 -1.6850  2.9442
  332MOL0     H43816   1.561   9.480   2.562 -3.4884  0.4946 -0.0887
  332MOL0     H43817   1.532   9.636   2.485 -1.9582  1.2538  0.1728
  332MOL0     H43818   1.741   9.729   2.561  3.4896 -0.2723 -1.0569
  332MOL0     H43819   1.745   9.606   2.430 -3.0999 -1.8330 -1.2326
  332MOL0     H43820   1.823   9.554   2.726  0.4574 -1.4639 -0.1558
  332MOL0     H43821   1.789   9.434   2.604  0.4025  0.3117 -1.8633
  332MOL0     H43822   2.169   9.581   2.469 -0.3255 -0.3097 -0.2009
  332MOL0     H43823   1.385   9.432   2.764  0.3394 -2.4102  2.8544
  332MOL0     H43824   1.184   9.335   2.876  1.3732  0.0270 -0.7960
  333MOL0     O43825   6.189   3.312   6.595  0.8550  0.7009 -1.0935
  333MOL0     C43826   6.067   3.321   6.610 -0.2914  1.0631 -0.6266
  333MOL0     O43827   5.968   3.288   6.512  0.2967 -0.1591 -0.0912
  333MOL0     C43828   6.011   3.249   6.385  0.7965 -0.1574 -0.3853
  333MOL0     C43829   5.935   3.142   6.322 -1.0228 -0.4338  0.1747
  333MOL0     C43830   5.967   3.092   6.201 -0.2585  0.3107  0.6814
  333MOL0     C43831   6.072   3.145   6.124 -0.1474 -0.2783 -0.9091
  333MOL0     O43832   6.098   3.087   6.007 -0.1673  0.3511  0.0191
  333MOL0     C43833   6.230   3.092   5.951 -0.5220  0.8517 -0.1065
  333MOL0     C43834   6.257   3.033   5.812  0.2930 -0.1275  0.2895
  333MOL0     C43835   6.409   3.050   5.768 -0.4926  0.0269 -0.6937
  333MOL0     C43836   6.501   2.953   5.840 -0.8053  0.4692 -0.3116
  333MOL0     C43837   6.660   2.952   5.804  0.1590 -0.0340 -0.1289
  333MOL0     C43838   6.727   3.029   5.915  0.5778 -0.0535 -0.6746
  333MOL0     C43839   6.877   3.063   5.884 -0.1837  0.2967 -0.6234
  333MOL0     C43840   6.962   2.929   5.898 -0.0408 -0.2923 -0.0039
  333MOL0     N43841   7.111   2.948   5.879 -0.2687 -0.1798 -0.0689
  333MOL0     C43842   7.169   2.944   5.755 -0.1023 -0.2012 -0.9663
  333MOL0     C43843   7.300   2.974   5.779 -0.1069 -0.2584 -0.5902
  333MOL0     C43844   7.410   2.992   5.683  0.3634  0.4438  0.5913
  333MOL0     C43845   7.397   3.115   5.603 -0.1477 -0.1153 -0.4361
  333MOL0     C43846   7.496   3.151   5.500 -0.5635  0.3761  0.0215
  333MOL0     C43847   7.502   3.304   5.499 -0.3311  0.5362 -0.0293
  333MOL0     O43848   7.410   3.337   5.390 -0.5253  0.4181  0.2112
  333MOL0     C43849   7.479   3.365   5.268  0.0869  0.3762  0.0820
  333MOL0     C43850   7.457   3.300   5.145 -0.5175 -0.2494 -0.1985
  333MOL0     C43851   7.522   3.326   5.027 -0.1988  0.0740  0.3751
  333MOL0     C43852   7.615   3.428   5.025 -0.8588  0.6900 -0.1536
  333MOL0     C43853   7.696   3.473   4.906  0.8811  0.4690 -0.3581
  333MOL0     O43854   7.703   3.613   4.888  0.3232 -0.1468 -0.9104
  333MOL0     C43855   7.738   3.646   4.767  0.2584  0.0210  0.3117
  333MOL0     C43856   7.649   3.657   4.656 -0.2485  0.0450 -0.6691
  333MOL0     C43857   7.692   3.694   4.530  0.3745 -0.3769 -0.1430
  333MOL0     C43858   7.827   3.713   4.504 -0.0506 -1.3195 -0.3977
  333MOL0     O43859   7.858   3.741   4.373 -0.0008  0.7150  0.5848
  333MOL0     C43860   7.964   3.669   4.311  0.6465  0.7702 -0.1147
  333MOL0     C43861   8.054   3.773   4.253  0.3289 -0.1580  0.2557
  333MOL0     C43862   8.162   3.714   4.156  0.2875  0.1367 -0.4305
  333MOL0     C43863   8.241   3.598   4.211 -0.1615  0.5685  0.5606
  333MOL0     C43864   8.350   3.551   4.106 -0.1538 -0.1390  0.5387
  333MOL0     C43865   8.405   3.415   4.168  0.2613 -0.9665 -0.1738
  333MOL0     C43866   8.500   3.338   4.071 -0.3580  0.0074 -0.2196
  333MOL0     C43867   8.555   3.212   4.146 -0.2515 -0.6065 -0.3555
  333MOL0    Cl43868   8.728   3.251   4.176  0.2427 -0.1285 -0.4862
  333MOL0     C43869   7.914   3.712   4.619  0.7080 -0.1960  0.3104
  333MOL0     C43870   7.871   3.667   4.747 -0.2012 -0.3191 -0.2736
  333MOL0     O43871   7.726   3.392   4.824 -0.6007  0.3164  0.2308
  333MOL0     C43872   7.645   3.494   5.143 -0.4229 -0.6009  0.1588
  333MOL0     C43873   7.569   3.466   5.259 -0.8377 -0.0962 -0.4044
  333MOL0     N43874   7.316   2.989   5.915 -0.6583  0.8386 -0.5693
  333MOL0     N43875   7.205   2.959   5.972  0.3851  0.0878 -0.2741
  333MOL0     C43876   6.143   3.257   6.186  0.0058 -0.0873  1.6882
  333MOL0     C43877   6.110   3.305   6.310 -0.5132 -0.3211  0.4614
  333MOL0     C43878   6.007   3.363   6.745 -0.6749  0.3750 -0.1617
  333MOL0     C43879   6.076   3.430   6.848 -0.0649  0.1594  0.4480
  333MOL0     C43880   6.015   3.446   6.972 -0.2641  0.2936  0.0287
  333MOL0     C43881   5.887   3.406   6.999  0.0624 -0.4181 -0.8873
  333MOL0     O43882   5.812   3.419   7.118  0.1792  0.5404  0.3494
  333MOL0     C43883   5.871   3.482   7.235 -0.9214  0.1825  0.3292
  333MOL0     C43884   5.772   3.546   7.336 -0.8582  0.0008 -0.3831
  333MOL0     C43885   5.687   3.652   7.270 -0.2863  0.4632 -0.9503
  333MOL0     C43886   5.755   3.788   7.254  0.0514  0.4897  0.6181
  333MOL0     C43887   5.809   3.796   7.114  0.1131 -0.7526 -0.1175
  333MOL0     C43888   5.866   3.786   7.009  1.4368  0.5617  0.1981
  333MOL0     C43889   5.818   3.343   6.893  0.0492 -0.1515 -0.1786
  333MOL0     C43890   5.878   3.320   6.773 -0.2332  0.1110  0.1299
  333MOL0     H43891   5.859   3.095   6.384  0.7319 -3.8821 -0.0185
  333MOL0     H43892   5.914   3.004   6.167  0.4798 -0.0097  0.3302
  333MOL0     H43893   6.295   3.040   6.021 -0.0645 -0.8822 -1.7369
  333MOL0     H43894   6.261   3.197   5.946  0.0307  0.7175  0.4403
  333MOL0     H43895   6.193   3.093   5.746 -1.2918 -2.3476 -0.2893
  333MOL0     H43896   6.216   2.934   5.793 -1.0240  0.5433 -0.5011
  333MOL0     H43897   6.458   3.146   5.789  2.3725 -1.8907  2.3019
  333MOL0     H43898   6.410   3.028   5.661 -0.3804 -0.6841 -0.5515
  333MOL0     H43899   6.489   2.968   5.948  1.0675 -0.2582  0.0428
  333MOL0     H43900   6.463   2.854   5.815 -1.8857  0.5910  0.7446
  333MOL0     H43901   6.679   2.982   5.701 -0.8054 -3.7790 -1.5678
  333MOL0     H43902   6.703   2.852   5.812 -1.2489 -0.7372 -1.0559
  333MOL0     H43903   6.710   2.982   6.013 -0.0119  0.5727 -0.4608
  333MOL0     H43904   6.678   3.127   5.925  0.5551  0.0376 -1.6355
  333MOL0     H43905   6.875   3.111   5.786 -0.3647  1.5478 -0.0326
  333MOL0     H43906   6.921   3.143   5.945  1.3538  2.0904 -3.8107
  333MOL0     H43907   6.932   2.848   5.831  1.4263 -1.3954  0.6118
  333MOL0     H43908   6.954   2.889   6.000  1.5337 -1.8902 -0.4550
  333MOL0     H43909   7.128   2.912   5.659  0.2308  1.3487 -1.6545
  333MOL0     H43910   7.413   2.911   5.609  3.2993  1.8874 -1.0643
  333MOL0     H43911   7.511   2.981   5.724 -0.1681  1.6628  2.3020
  333MOL0     H43912   7.388   3.197   5.674 -0.1512 -1.7275  1.5178
  333MOL0     H43913   7.301   3.114   5.550 -0.0992 -0.6527 -0.5225
  333MOL0     H43914   7.590   3.111   5.537 -1.5503  1.1376  3.7096
  333MOL0     H43915   7.467   3.104   5.405 -2.2252 -2.7631  1.8830
  333MOL0     H43916   7.605   3.327   5.469 -0.6835  2.7470  0.2579
  333MOL0     H43917   7.490   3.359   5.593 -1.7241 -0.3029  0.3030
  333MOL0     H43918   7.379   3.225   5.153 -1.3958  0.6384 -0.2660
  333MOL0     H43919   7.505   3.267   4.937  0.0373  0.3835  0.1248
  333MOL0     H43920   7.544   3.637   4.670  0.0790 -1.2415  0.0991
  333MOL0     H43921   7.622   3.692   4.446  0.4158  0.4780 -0.2155
  333MOL0     H43922   7.920   3.602   4.236  1.2782 -0.0066  0.1852
  333MOL0     H43923   8.008   3.609   4.391 -2.8437  2.0680  3.0848
  333MOL0     H43924   8.095   3.841   4.328  1.5681  2.3086 -2.4488
  333MOL0     H43925   7.988   3.830   4.188 -0.0509 -2.5108 -1.5449
  333MOL0     H43926   8.229   3.796   4.128 -2.8536  2.5756 -1.4414
  333MOL0     H43927   8.120   3.688   4.059  0.1841  0.8971 -0.5975
  333MOL0     H43928   8.290   3.632   4.303 -0.6795  1.5889  0.4827
  333MOL0     H43929   8.179   3.512   4.239  3.6333 -2.2209  1.1090
  333MOL0     H43930   8.436   3.617   4.092 -0.1770 -0.1213  0.4821
  333MOL0     H43931   8.297   3.545   4.011  1.2623  1.4377 -0.4032
  333MOL0     H43932   8.321   3.354   4.204 -1.4312  0.6416 -1.1770
  333MOL0     H43933   8.466   3.433   4.257 -0.4173 -2.3649  0.6134
  333MOL0     H43934   8.429   3.310   3.993  1.2923 -1.1941 -1.3416
  333MOL0     H43935   8.579   3.390   4.016  0.4041 -1.3060 -0.4157
  333MOL0     H43936   8.532   3.116   4.099 -0.3685 -2.7663  3.7062
  333MOL0     H43937   8.511   3.211   4.246  0.1893 -0.5935 -0.1610
  333MOL0     H43938   8.016   3.744   4.600 -0.6619  2.9012 -3.3552
  333MOL0     H43939   7.940   3.658   4.831 -1.3263 -2.3748  0.5010
  333MOL0     H43940   7.717   3.575   5.156 -2.3019  1.1138  0.3681
  333MOL0     H43941   7.588   3.525   5.348 -1.9838 -1.6155  0.8942
  333MOL0     H43942   6.218   3.309   6.127  0.9558 -3.4786 -0.3177
  333MOL0     H43943   6.177   3.378   6.353  2.1707 -1.4697 -1.5272
  333MOL0     H43944   6.178   3.459   6.824  0.8473  0.1101  3.8796
  333MOL0     H43945   6.073   3.501   7.046 -0.7373  1.4582 -0.4441
  333MOL0     H43946   5.947   3.553   7.202  0.6192 -0.6119  2.0048
  333MOL0     H43947   5.925   3.393   7.270  2.3032  1.9828  0.2945
  333MOL0     H43948   5.717   3.471   7.394 -0.2518  1.0893  1.7098
  333MOL0     H43949   5.833   3.605   7.405 -2.6408  1.0001  0.4083
  333MOL0     H43950   5.599   3.673   7.332 -0.3185 -0.1590 -0.7732
  333MOL0     H43951   5.656   3.617   7.171  1.8805  0.0029 -1.5129
  333MOL0     H43952   5.674   3.861   7.254  0.3739  0.8599 -0.0985
  333MOL0     H43953   5.835   3.811   7.325  0.1934 -1.3986  1.1206
  333MOL0     H43954   5.901   3.759   6.911  0.9804  0.6353  0.0143
  333MOL0     H43955   5.713   3.316   6.899 -0.4287  1.7921  1.0670
  333MOL0     H43956   5.823   3.265   6.697  3.2840 -2.6431 -0.6605
  334MOL0     O43957   3.817   0.374   6.555  0.4500 -0.5040  0.3391
  334MOL0     C43958   3.869   0.482   6.545 -0.4676 -0.2306  1.0689
  334MOL0     O43959   3.932   0.536   6.426 -0.5977 -0.5073  0.1784
  334MOL0     C43960   3.932   0.464   6.304 -0.4872 -0.1021 -0.7488
  334MOL0     C43961   3.897   0.532   6.185 -0.4745  0.6097 -0.1866
  334MOL0     C43962   3.867   0.459   6.069 -0.7208 -0.3655  0.4527
  334MOL0     C43963   3.886   0.314   6.061 -0.5676 -0.6845 -0.8831
  334MOL0     O43964   3.860   0.230   5.956  0.4517 -0.3654  0.5170
  334MOL0     C43965   3.796   0.292   5.844 -0.5077 -0.5813 -0.4428
  334MOL0     C43966   3.775   0.195   5.732 -0.6710  0.5264  0.6403
  334MOL0     C43967   3.892   0.142   5.668 -1.5531 -0.2344 -0.0209
  334MOL0     C43968   3.859   0.052   5.546 -0.4771  0.4397 -0.8235
  334MOL0     C43969   3.978  -0.031   5.491 -0.2563 -0.0495 -0.2923
  334MOL0     C43970   4.076   0.059   5.401  0.8364  0.7900  0.0588
  334MOL0     C43971   4.184  -0.038   5.342 -0.1810 -0.1052  0.1271
  334MOL0     C43972   4.146  -0.139   5.235 -0.0169  0.1081 -0.2950
  334MOL0     N43973   4.117  -0.060   5.110 -0.2961 -0.1629  0.4305
  334MOL0     C43974   4.210  -0.012   5.018 -0.0551  0.0617 -0.5551
  334MOL0     C43975   4.127   0.066   4.938 -0.6658  0.4643 -0.5125
  334MOL0     C43976   4.177   0.159   4.828 -0.4938  0.0382 -0.0304
  334MOL0     C43977   4.261   0.090   4.718  0.2948  0.9288 -0.2948
  334MOL0     C43978   4.252   0.163   4.585  0.3829  0.7580  0.6618
  334MOL0     C43979   4.112   0.147   4.506 -0.4301 -0.1557 -0.6070
  334MOL0     O43980   4.113   0.025   4.425 -0.7843  0.4141 -0.1306
  334MOL0     C43981   4.202   0.027   4.315  1.2515  0.9754  0.0079
  334MOL0     C43982   4.260   0.145   4.262  0.3960 -0.0515  0.2725
  334MOL0     C43983   4.337   0.143   4.154 -1.0315 -0.1414  0.4476
  334MOL0     C43984   4.356   0.024   4.074  0.3289  0.2896 -0.7436
  334MOL0     C43985   4.440   0.019   3.952 -0.1476 -0.5986 -0.1986
  334MOL0     O43986   4.439  -0.103   3.886 -0.0816  0.3156 -0.5389
  334MOL0     C43987   4.519  -0.135   3.780  0.5946  0.0593  0.0419
  334MOL0     C43988   4.553  -0.268   3.758 -0.1202  1.0437 -0.1601
  334MOL0     C43989   4.611  -0.318   3.644 -0.3782  0.5337 -0.4686
  334MOL0     C43990   4.640  -0.242   3.533 -0.2496  0.3041  0.2713
  334MOL0     O43991   4.693  -0.289   3.413  0.4445  0.5462  0.3757
  334MOL0     C43992   4.837  -0.271   3.403  0.8630 -0.2394  0.2681
  334MOL0     C43993   4.897  -0.374   3.295 -0.5995  0.3846 -0.0923
  334MOL0     C43994   5.048  -0.360   3.256 -1.2978 -0.6072 -0.2089
  334MOL0     C43995   5.068  -0.396   3.108 -0.1920 -0.8987 -0.3765
  334MOL0     C43996   5.212  -0.382   3.057  0.4644  1.2499  1.0862
  334MOL0     C43997   5.214  -0.414   2.914 -0.0495 -0.0696  0.3384
  334MOL0     C43998   5.343  -0.349   2.855  0.3100  0.2267 -0.1531
  334MOL0     C43999   5.366  -0.401   2.710  0.5589 -0.2242  0.0462
  334MOL0    Cl44000   5.414  -0.571   2.716 -0.2712 -0.0404  0.2558
  334MOL0     C44001   4.611  -0.101   3.560 -0.5683  0.5968  0.3609
  334MOL0     C44002   4.550  -0.048   3.674 -0.0892 -0.0392 -0.8918
  334MOL0     O44003   4.522   0.109   3.927  0.7312 -1.3669  0.1764
  334MOL0     C44004   4.297  -0.096   4.124  0.2187  0.3025 -0.0287
  334MOL0     C44005   4.221  -0.096   4.245 -0.1022 -1.4614 -0.2512
  334MOL0     N44006   3.996   0.037   4.957 -0.7818 -0.1238  0.1926
  334MOL0     N44007   3.989  -0.036   5.066 -0.0755  0.0546 -0.2001
  334MOL0     C44008   3.940   0.267   6.181 -0.4397  1.0773 -0.7104
  334MOL0     C44009   3.953   0.333   6.302 -0.2950 -0.1385  0.3906
  334MOL0     C44010   3.907   0.557   6.669  0.1793  0.8757 -0.4431
  334MOL0     C44011   3.951   0.698   6.666 -0.9534 -0.9992  0.1063
  334MOL0     C44012   3.979   0.773   6.786  0.4105  0.8410  0.9351
  334MOL0     C44013   3.976   0.710   6.908  0.1127  0.3206 -0.1327
  334MOL0     O44014   3.990   0.779   7.021 -0.7422 -0.5432  0.9541
  334MOL0     C44015   3.896   0.884   7.042  0.2841 -0.4498  0.1685
  334MOL0     C44016   3.942   0.962   7.153  0.8411 -0.3488  0.0215
  334MOL0     C44017   3.841   1.068   7.187 -0.6214 -0.4993  0.1186
  334MOL0     C44018   3.891   1.182   7.273  0.5309 -0.0044  0.0187
  334MOL0     C44019   3.783   1.280   7.264  0.2203  0.5992 -0.7269
  334MOL0     C44020   3.694   1.353   7.248 -0.1821 -0.2134  0.6055
  334MOL0     C44021   3.938   0.573   6.914 -0.4878  0.2823 -1.2067
  334MOL0     C44022   3.902   0.498   6.796  0.5190  0.2081 -0.2934
  334MOL0     H44023   3.869   0.637   6.188  2.9545  1.6299  1.2701
  334MOL0     H44024   3.832   0.497   5.973  1.7065 -2.3241 -1.3425
  334MOL0     H44025   3.858   0.375   5.807 -0.1996  0.2490  1.8212
  334MOL0     H44026   3.706   0.346   5.874  1.6085  2.2649  1.2585
  334MOL0     H44027   3.716   0.239   5.652  2.2225  2.8665 -0.3708
  334MOL0     H44028   3.725   0.108   5.775  0.5752 -0.8844 -0.6456
  334MOL0     H44029   3.954   0.080   5.734 -0.1552  0.9818 -0.1382
  334MOL0     H44030   3.966   0.213   5.632  2.5370 -4.4398 -0.9809
  334MOL0     H44031   3.789  -0.026   5.575  1.1109 -0.7020  0.1014
  334MOL0     H44032   3.818   0.110   5.463  1.4342  0.7997 -1.5841
  334MOL0     H44033   3.936  -0.121   5.445  1.1182 -1.2759  0.7673
  334MOL0     H44034   4.039  -0.061   5.577  0.6058  1.5723 -0.2997
  334MOL0     H44035   4.120   0.129   5.472 -0.1187  1.2120  0.2489
  334MOL0     H44036   4.023   0.116   5.325  0.7438 -0.4924 -0.8838
  334MOL0     H44037   4.265   0.024   5.301 -2.7875  2.0056 -2.2631
  334MOL0     H44038   4.224  -0.094   5.427 -0.4652  1.2451  1.1929
  334MOL0     H44039   4.066  -0.206   5.267  1.8477 -2.7895 -1.3173
  334MOL0     H44040   4.233  -0.197   5.205  0.0722  0.5224 -0.8512
  334MOL0     H44041   4.314  -0.041   5.014 -0.0562 -0.6010  2.0626
  334MOL0     H44042   4.248   0.228   4.874 -0.2067 -2.0291  2.9223
  334MOL0     H44043   4.098   0.217   4.779 -0.9173 -2.3420 -2.4270
  334MOL0     H44044   4.230  -0.015   4.713 -2.4228  1.5559  1.5690
  334MOL0     H44045   4.363   0.085   4.757  0.7203 -2.8926 -1.4111
  334MOL0     H44046   4.269   0.269   4.605 -3.0705  1.5673  0.0134
  334MOL0     H44047   4.332   0.125   4.521 -0.8136  0.7402 -0.9134
  334MOL0     H44048   4.097   0.238   4.448 -2.0473 -0.6380 -1.0135
  334MOL0     H44049   4.023   0.140   4.570 -1.6248  3.6313 -1.5757
  334MOL0     H44050   4.252   0.239   4.316 -2.4247 -1.1223  1.9253
  334MOL0     H44051   4.389   0.225   4.105  0.1904 -1.1237  0.0352
  334MOL0     H44052   4.512  -0.346   3.823 -0.8800  1.1306 -0.5242
  334MOL0     H44053   4.631  -0.423   3.624 -2.5324 -0.6967  2.9422
  334MOL0     H44054   4.901  -0.277   3.492  0.6286 -2.6620  0.3179
  334MOL0     H44055   4.862  -0.172   3.364 -0.6606 -0.9171 -2.6772
  334MOL0     H44056   4.829  -0.369   3.209 -2.1664 -1.6027  0.9665
  334MOL0     H44057   4.883  -0.478   3.324  1.8074  0.1131  0.3021
  334MOL0     H44058   5.117  -0.413   3.322  0.1287  0.8788 -0.4577
  334MOL0     H44059   5.064  -0.252   3.256 -3.1960 -0.2493 -2.0356
  334MOL0     H44060   5.032  -0.498   3.091 -1.6564 -0.1250 -2.2649
  334MOL0     H44061   5.008  -0.328   3.047 -0.7529 -2.5738 -1.7839
  334MOL0     H44062   5.282  -0.452   3.102 -1.3704 -0.7184  1.0018
  334MOL0     H44063   5.244  -0.278   3.068 -0.7081  1.7520  0.0320
  334MOL0     H44064   5.134  -0.362   2.863 -0.1072 -1.3464 -0.9284
  334MOL0     H44065   5.206  -0.523   2.903 -0.3429 -0.1506  1.2261
  334MOL0     H44066   5.340  -0.240   2.852  1.7268  0.4693  3.1713
  334MOL0     H44067   5.434  -0.369   2.912 -1.4207  0.5829  2.9396
  334MOL0     H44068   5.450  -0.352   2.659  1.1217 -1.5331 -0.3143
  334MOL0     H44069   5.277  -0.383   2.649  0.9946 -1.9510 -1.1811
  334MOL0     H44070   4.637  -0.032   3.481 -2.0938 -0.2283 -0.9294
  334MOL0     H44071   4.515   0.055   3.674 -3.4724 -1.0367  0.8664
  334MOL0     H44072   4.297  -0.192   4.074  3.9747 -0.0625  0.3743
  334MOL0     H44073   4.197  -0.194   4.285 -0.7856 -0.1275  2.9415
  334MOL0     H44074   3.966   0.163   6.167 -0.4710  0.6467  1.8161
  334MOL0     H44075   3.976   0.277   6.393 -0.5212  0.0158  0.5438
  334MOL0     H44076   3.966   0.749   6.572 -0.2758  1.4542  1.4550
  334MOL0     H44077   4.015   0.875   6.782  1.5798  0.4036 -0.3246
  334MOL0     H44078   3.802   0.833   7.063 -1.6007  2.6277 -0.1847
  334MOL0     H44079   3.880   0.947   6.955 -2.2785 -1.1517  0.0559
  334MOL0     H44080   3.950   0.888   7.233 -0.4185 -2.9308 -2.0933
  334MOL0     H44081   4.039   1.008   7.130  0.1590  1.3731  0.5036
  334MOL0     H44082   3.762   1.018   7.245 -1.5609  0.1037 -0.6072
  334MOL0     H44083   3.790   1.103   7.097 -0.5171 -3.5798 -1.2563
  334MOL0     H44084   3.910   1.162   7.378 -1.0081  2.3180  0.8276
  334MOL0     H44085   3.974   1.223   7.215  1.3460  0.8421  1.7185
  334MOL0     H44086   3.615   1.426   7.244 -1.5494 -1.6685  0.1172
  334MOL0     H44087   3.936   0.530   7.014  0.3175 -2.7572 -2.4055
  334MOL0     H44088   3.872   0.394   6.810  0.6446  0.6079  4.6585
  335MOL0     O44089   4.699   0.892   0.042  0.8082 -0.1474 -0.2093
  335MOL0     C44090   4.693   0.810  -0.046 -0.2541 -0.4953 -0.4018
  335MOL0     O44091   4.577   0.781  -0.120  0.2094  0.3270 -0.6170
  335MOL0     C44092   4.458   0.844  -0.094 -0.1327  0.2416  0.5883
  335MOL0     C44093   4.337   0.770  -0.115 -1.0306  0.5899  0.8350
  335MOL0     C44094   4.216   0.834  -0.098  1.1481 -0.4814  0.2332
  335MOL0     C44095   4.200   0.970  -0.089 -0.2027  0.0492 -0.5219
  335MOL0     O44096   4.072   1.023  -0.079 -1.0749 -0.3158 -0.0794
  335MOL0     C44097   4.034   1.159  -0.102 -0.3591 -0.2053  1.1138
  335MOL0     C44098   3.897   1.150  -0.164  0.5572  0.1617 -0.7253
  335MOL0     C44099   3.838   1.291  -0.216  0.9161 -0.1460  1.1891
  335MOL0     C44100   3.681   1.289  -0.234 -0.3606 -0.2411 -0.3203
  335MOL0     C44101   3.632   1.428  -0.271  0.4374 -0.3823 -0.1235
  335MOL0     C44102   3.476   1.427  -0.277 -0.7638  0.1544 -0.0356
  335MOL0     C44103   3.426   1.569  -0.323 -0.2854  0.4948 -0.1732
  335MOL0     C44104   3.316   1.563  -0.423  0.1013 -0.2451  1.0183
  335MOL0     N44105   3.195   1.514  -0.367 -0.2360  0.0168 -0.5103
  335MOL0     C44106   3.097   1.594  -0.313 -0.0237  0.2780  0.2337
  335MOL0     C44107   3.008   1.524  -0.239 -0.5444  0.1091 -0.8012
  335MOL0     C44108   2.877   1.570  -0.191  0.3771 -0.1759  0.3737
  335MOL0     C44109   2.781   1.562  -0.307 -0.0352 -0.5431 -0.6404
  335MOL0     C44110   2.641   1.586  -0.266  0.2825 -0.2024  0.5321
  335MOL0     C44111   2.605   1.733  -0.253  0.2505  0.0829 -0.2623
  335MOL0     O44112   2.464   1.739  -0.236 -0.1464  0.2971  0.6580
  335MOL0     C44113   2.396   1.865  -0.220 -1.7593 -0.3968 -0.2820
  335MOL0     C44114   2.460   1.988  -0.236 -0.2513  0.0759 -0.2269
  335MOL0     C44115   2.400   2.109  -0.216  0.0984 -0.0150  0.3060
  335MOL0     C44116   2.260   2.107  -0.181  0.7255  0.1217  0.5118
  335MOL0     C44117   2.182   2.230  -0.158  0.5926 -0.4421  0.1610
  335MOL0     O44118   2.048   2.218  -0.119 -0.6823  0.0749 -0.2792
  335MOL0     C44119   1.967   2.328  -0.123 -0.2728 -0.2929  1.3152
  335MOL0     C44120   1.870   2.339  -0.229 -0.8225 -0.4320 -1.5879
  335MOL0     C44121   1.792   2.451  -0.242  0.2428  0.6122 -0.3217
  335MOL0     C44122   1.794   2.551  -0.144  0.1080 -0.1604  0.7070
  335MOL0     O44123   1.711   2.665  -0.156 -0.0976  0.1592 -0.0006
  335MOL0     C44124   1.663   2.700  -0.288  0.3253  0.2344 -0.3908
  335MOL0     C44125   1.605   2.845  -0.279  0.7293  0.2201  0.6720
  335MOL0     C44126   1.518   2.906  -0.398 -0.5040  1.0479  0.3256
  335MOL0     C44127   1.562   2.881  -0.543  0.4127 -0.4074 -0.4427
  335MOL0     C44128   1.493   2.951  -0.659  0.3834  0.8027  0.6232
  335MOL0     C44129   1.509   3.106  -0.660 -0.0930 -0.0968  0.5285
  335MOL0     C44130   1.405   3.188  -0.752 -0.4632  0.8549  0.4413
  335MOL0     C44131   1.393   3.149  -0.895 -0.0158  0.3747  1.5578
  335MOL0    Cl44132   1.271   3.019  -0.912 -0.4973  0.3730  0.1292
  335MOL0     C44133   1.875   2.531  -0.031 -0.0644 -0.7487  0.0113
  335MOL0     C44134   1.966   2.424  -0.017  0.4254  0.9219 -0.0707
  335MOL0     O44135   2.238   2.334  -0.175 -0.5459 -0.8676 -0.1636
  335MOL0     C44136   2.203   1.982  -0.175  0.3164  0.1223 -0.7433
  335MOL0     C44137   2.269   1.865  -0.197 -0.2293 -0.8128 -0.2299
  335MOL0     N44138   3.051   1.394  -0.256 -0.1132 -0.0253  0.2223
  335MOL0     N44139   3.151   1.384  -0.343 -0.0619 -0.3008  0.0134
  335MOL0     C44140   4.318   1.049  -0.069 -0.4577 -0.2420  0.2473
  335MOL0     C44141   4.446   0.982  -0.063 -0.0057 -0.0084  0.7118
  335MOL0     C44142   4.827   0.747  -0.073  0.2418 -0.5799  0.5231
  335MOL0     C44143   4.946   0.782  -0.004  0.8945  0.4295 -0.4257
  335MOL0     C44144   5.072   0.747  -0.047  0.2322 -0.4037  0.9375
  335MOL0     C44145   5.088   0.647  -0.158  0.2965 -0.0594 -0.4046
  335MOL0     O44146   5.203   0.584  -0.203 -0.8085  0.0814 -1.1635
  335MOL0     C44147   5.330   0.626  -0.151  0.2687  0.3869 -1.2058
  335MOL0     C44148   5.349   0.553  -0.015  0.1721 -0.1262 -0.5729
  335MOL0     C44149   5.346   0.398  -0.028 -0.0516 -0.0369  0.4637
  335MOL0     C44150   5.451   0.331   0.067  0.5256 -0.1153 -0.6834
  335MOL0     C44151   5.450   0.379   0.206  0.0677 -0.3680 -0.0577
  335MOL0     C44152   5.435   0.412   0.324 -1.0533 -0.6780  0.8877
  335MOL0     C44153   4.967   0.613  -0.222  0.7138 -0.7014 -0.2694
  335MOL0     C44154   4.844   0.665  -0.182  0.5497  0.9854  0.5745
  335MOL0     H44155   4.344   0.666  -0.143  1.3084  0.8443  0.2928
  335MOL0     H44156   4.127   0.773  -0.103  1.2304 -0.5191 -1.1666
  335MOL0     H44157   4.096   1.219  -0.170 -1.7407  2.8296  2.3226
  335MOL0     H44158   4.039   1.221  -0.012 -0.0478  0.8546  0.3949
  335MOL0     H44159   3.826   1.110  -0.091  1.9655 -1.3699 -0.1185
  335MOL0     H44160   3.905   1.075  -0.244  2.4725 -0.6638  0.1794
  335MOL0     H44161   3.895   1.321  -0.305 -2.4484  0.9742 -0.7474
  335MOL0     H44162   3.847   1.360  -0.132  0.4415 -3.1576  3.9039
  335MOL0     H44163   3.655   1.212  -0.307  0.6988  1.0007 -2.0917
  335MOL0     H44164   3.641   1.270  -0.134 -2.7467  0.1844 -1.1227
  335MOL0     H44165   3.677   1.437  -0.370  3.1894 -2.3911  0.8226
  335MOL0     H44166   3.669   1.505  -0.202 -0.1920  1.2318 -1.5380
  335MOL0     H44167   3.434   1.401  -0.180 -0.2653  1.1276  0.4527
  335MOL0     H44168   3.449   1.340  -0.339  1.3210 -0.7567  0.2196
  335MOL0     H44169   3.391   1.620  -0.232  0.3599 -2.8267  2.0926
  335MOL0     H44170   3.521   1.614  -0.352  1.4873 -1.7198  1.8183
  335MOL0     H44171   3.352   1.491  -0.497  2.2094  2.5701 -0.9315
  335MOL0     H44172   3.308   1.655  -0.482  1.0584 -0.5794  0.3345
  335MOL0     H44173   3.100   1.702  -0.325  4.0926  0.2554 -0.1380
  335MOL0     H44174   2.881   1.667  -0.140 -1.9385 -1.4584  3.3374
  335MOL0     H44175   2.834   1.520  -0.103  1.4923 -0.9644  0.4955
  335MOL0     H44176   2.795   1.465  -0.357 -4.1843 -0.7597 -1.7718
  335MOL0     H44177   2.803   1.641  -0.380 -1.5902  2.5910  2.0049
  335MOL0     H44178   2.571   1.558  -0.346 -0.8797  1.1937  1.0237
  335MOL0     H44179   2.607   1.527  -0.181  0.3929  0.7534  1.2428
  335MOL0     H44180   2.624   1.780  -0.350 -1.5794 -0.4939 -0.9448
  335MOL0     H44181   2.675   1.774  -0.180  0.0807 -0.7140  0.3568
  335MOL0     H44182   2.560   1.980  -0.277  0.8702 -2.5061  2.6004
  335MOL0     H44183   2.452   2.202  -0.236  1.1666 -0.6791 -0.1507
  335MOL0     H44184   1.877   2.263  -0.306 -3.1715 -1.0265 -1.2756
  335MOL0     H44185   1.736   2.467  -0.333  0.0456 -1.0582 -0.5177
  335MOL0     H44186   1.576   2.639  -0.318 -0.6907  1.6026 -0.3234
  335MOL0     H44187   1.739   2.700  -0.366 -1.4116 -0.0189 -2.1672
  335MOL0     H44188   1.689   2.912  -0.257  2.9269 -3.4368  4.8260
  335MOL0     H44189   1.563   2.852  -0.178  2.2021  1.5532  1.2354
  335MOL0     H44190   1.514   3.015  -0.388  0.0397  1.1550 -0.5519
  335MOL0     H44191   1.414   2.875  -0.383  0.9402 -3.2857  3.4372
  335MOL0     H44192   1.670   2.890  -0.559  0.3122  1.4064 -0.3210
  335MOL0     H44193   1.533   2.776  -0.550  0.8741 -0.6434  0.8250
  335MOL0     H44194   1.389   2.921  -0.676  0.9263 -0.0480 -1.5993
  335MOL0     H44195   1.548   2.912  -0.745 -1.0504 -0.3708  0.2007
  335MOL0     H44196   1.612   3.121  -0.694 -0.2613  2.8788  1.1202
  335MOL0     H44197   1.500   3.144  -0.558  0.7282  1.7977 -0.0675
  335MOL0     H44198   1.318   3.176  -0.686  0.9092 -0.3196  2.1294
  335MOL0     H44199   1.452   3.287  -0.758  0.9505  0.1169 -2.3684
  335MOL0     H44200   1.489   3.108  -0.927 -0.2917  1.8408 -1.4603
  335MOL0     H44201   1.370   3.238  -0.955  0.3345  0.7048  1.9100
  335MOL0     H44202   1.881   2.623   0.026  1.3080  0.4895 -1.9942
  335MOL0     H44203   2.032   2.403   0.067 -2.6969  1.3436  2.6875
  335MOL0     H44204   2.098   1.964  -0.155  0.1914  0.1290 -1.3653
  335MOL0     H44205   2.211   1.773  -0.194  1.0141 -1.7044 -2.0917
  335MOL0     H44206   4.294   1.154  -0.057  0.6701 -0.0716  1.2320
  335MOL0     H44207   4.535   1.042  -0.049 -0.8217  1.7739 -1.1742
  335MOL0     H44208   4.929   0.854   0.075 -0.3368 -0.8401  0.5201
  335MOL0     H44209   5.161   0.784   0.002 -0.5983  1.2684  1.2468
  335MOL0     H44210   5.339   0.735  -0.142  1.1724  0.3018 -0.9536
  335MOL0     H44211   5.412   0.587  -0.211  0.8986 -2.1799  1.1021
  335MOL0     H44212   5.436   0.594   0.037 -0.4871  0.5153  0.0406
  335MOL0     H44213   5.268   0.575   0.055  0.3417  1.1368 -0.7479
  335MOL0     H44214   5.372   0.353  -0.124 -1.4705 -1.2856  0.6439
  335MOL0     H44215   5.248   0.354  -0.006 -0.0939  0.2821  0.9361
  335MOL0     H44216   5.428   0.224   0.070 -0.2198  0.0660  0.6363
  335MOL0     H44217   5.552   0.350   0.030  0.9551  1.9967  1.3246
  335MOL0     H44218   5.441   0.441   0.427  0.0820  0.1699  0.6025
  335MOL0     H44219   4.965   0.545  -0.307 -0.4356 -1.1563  0.0948
  335MOL0     H44220   4.760   0.642  -0.245  0.7950  1.7806 -0.0546
  336MOL0     O44221   2.112   9.054   6.925 -1.2411 -0.3540 -0.4833
  336MOL0     C44222   2.091   9.158   6.990 -0.4870 -1.3355  0.3501
  336MOL0     O44223   2.184   9.250   7.026 -0.5783  0.4406 -0.3025
  336MOL0     C44224   2.319   9.213   7.018  0.3160  0.4588  0.6276
  336MOL0     C44225   2.418   9.305   6.980 -0.2716 -0.4522  0.5587
  336MOL0     C44226   2.548   9.268   6.951 -0.3869 -0.3320  0.4129
  336MOL0     C44227   2.602   9.144   6.986  0.2672 -0.5643 -0.0025
  336MOL0     O44228   2.734   9.121   6.956  0.8190 -0.7787 -0.7587
  336MOL0     C44229   2.787   8.987   6.931  0.1457 -0.3975  0.3463
  336MOL0     C44230   2.881   8.925   7.036 -0.2061 -0.3320 -0.4423
  336MOL0     C44231   2.805   8.917   7.173  0.3794 -0.4842 -0.0144
  336MOL0     C44232   2.906   8.897   7.285 -0.4636 -0.0074  1.1578
  336MOL0     C44233   2.843   8.928   7.426  0.2756  0.1423  0.4193
  336MOL0     C44234   2.943   8.947   7.535  0.2138 -0.4485  0.6693
  336MOL0     C44235   2.886   8.990   7.665  0.0820  0.3949  0.3231
  336MOL0     C44236   2.777   8.902   7.718 -0.5899  0.2510 -0.7573
  336MOL0     N44237   2.734   8.949   7.851  0.2351 -0.2978  0.0847
  336MOL0     C44238   2.607   8.985   7.884 -0.4125  0.3721  0.1128
  336MOL0     C44239   2.618   9.000   8.017 -0.3865  0.1110  0.2217
  336MOL0     C44240   2.505   9.045   8.117 -0.2240  0.9866  0.2176
  336MOL0     C44241   2.527   9.199   8.136 -0.9730  0.2025 -0.4112
  336MOL0     C44242   2.434   9.235   8.259  0.4508 -0.2084  0.5557
  336MOL0     C44243   2.409   9.391   8.256 -0.6817 -0.1887  0.1531
  336MOL0     O44244   2.287   9.422   8.321 -0.3366 -0.5485 -0.6634
  336MOL0     C44245   2.254   9.557   8.353  0.3773 -0.1647  0.9502
  336MOL0     C44246   2.339   9.662   8.348  0.2254 -1.1195  0.2010
  336MOL0     C44247   2.289   9.786   8.385 -0.6933 -1.1247  0.0961
  336MOL0     C44248   2.156   9.803   8.429  0.6091 -0.3150  0.4623
  336MOL0     C44249   2.096   9.944   8.437 -1.2587  0.2721 -0.0946
  336MOL0     O44250   1.987   9.957   8.513 -0.0244  0.2392 -0.4377
  336MOL0     C44251   1.914  10.072   8.533  0.0137  0.0854 -0.3535
  336MOL0     C44252   1.964  10.203   8.534  0.5852 -0.5458 -0.0259
  336MOL0     C44253   1.879  10.313   8.549 -0.6263  0.1913  0.3127
  336MOL0     C44254   1.747  10.291   8.555 -0.9641  0.2869 -1.2525
  336MOL0     O44255   1.659  10.396   8.552  0.1933 -0.1931  0.3480
  336MOL0     C44256   1.639  10.467   8.681 -1.5686 -0.4454  0.1087
  336MOL0     C44257   1.527  10.573   8.668 -0.5388 -1.0947  0.7338
  336MOL0     C44258   1.532  10.692   8.760  1.0059 -0.3156 -0.6115
  336MOL0     C44259   1.514  10.647   8.898  0.0458 -0.0433 -0.4831
  336MOL0     C44260   1.526  10.762   9.002  0.1313  0.0654  0.0833
  336MOL0     C44261   1.527  10.701   9.147  0.1697 -0.1207  0.3590
  336MOL0     C44262   1.639  10.593   9.175  0.0859  0.4140  0.1889
  336MOL0     C44263   1.584  10.453   9.217  0.4471 -0.2341  1.1747
  336MOL0    Cl44264   1.507  10.362   9.078 -0.1288  0.3466  0.3441
  336MOL0     C44265   1.693  10.164   8.560  0.9831  0.3554  0.1235
  336MOL0     C44266   1.777  10.052   8.551  0.0884 -0.5823  0.9155
  336MOL0     O44267   2.168  10.036   8.400  0.4121 -0.0338  0.0414
  336MOL0     C44268   2.073   9.688   8.440 -0.2090 -1.1122 -0.7997
  336MOL0     C44269   2.129   9.574   8.398  0.0449 -0.8852 -0.3451
  336MOL0     N44270   2.749   8.966   8.058 -0.4929  0.2141 -0.0938
  336MOL0     N44271   2.824   8.955   7.957 -0.4547 -0.2647  0.4375
  336MOL0     C44272   2.508   9.053   7.037 -0.3250  0.4273 -0.4030
  336MOL0     C44273   2.368   9.086   7.058 -0.6971  0.1198  0.1753
  336MOL0     C44274   1.946   9.204   7.014 -0.6153  0.1400 -0.0106
  336MOL0     C44275   1.926   9.316   7.097 -0.4021 -0.1808  0.5878
  336MOL0     C44276   1.789   9.349   7.118  0.0615 -0.3057 -0.0883
  336MOL0     C44277   1.679   9.283   7.051 -0.4947  0.2916 -0.6166
  336MOL0     O44278   1.552   9.315   7.064  0.6070 -0.2526  0.3734
  336MOL0     C44279   1.526   9.432   7.139 -0.0953 -0.3486 -0.0688
  336MOL0     C44280   1.379   9.472   7.139  0.4871 -0.0112 -0.9228
  336MOL0     C44281   1.335   9.575   7.037 -0.4046  0.1226  0.6279
  336MOL0     C44282   1.233   9.666   7.095  0.6872 -0.4530  0.0961
  336MOL0     C44283   1.260   9.746   7.208 -0.0379 -0.1288  0.8953
  336MOL0     C44284   1.281   9.822   7.297 -0.0482  0.2857 -0.7209
  336MOL0     C44285   1.706   9.160   6.977  0.0656  0.8774  0.1160
  336MOL0     C44286   1.840   9.117   6.962 -0.6301 -0.6494  0.0752
  336MOL0     H44287   2.391   9.410   6.974 -3.3224 -1.2223 -1.4378
  336MOL0     H44288   2.619   9.332   6.899  1.7636 -3.1930 -0.4728
  336MOL0     H44289   2.827   8.982   6.830 -0.4861  1.0961 -0.0053
  336MOL0     H44290   2.697   8.926   6.920 -4.1452  5.3108 -1.2163
  336MOL0     H44291   2.959   9.000   7.045 -1.7815  1.2126  1.4081
  336MOL0     H44292   2.934   8.831   7.018 -0.2382 -0.2212 -1.1279
  336MOL0     H44293   2.728   8.841   7.158 -0.2474  0.0301  0.5743
  336MOL0     H44294   2.760   9.014   7.195 -0.4883 -0.9697  0.3782
  336MOL0     H44295   2.937   8.792   7.289 -0.9798 -0.1808  0.7098
  336MOL0     H44296   2.986   8.969   7.266 -2.6965  2.2075 -0.5268
  336MOL0     H44297   2.768   8.855   7.458 -0.9706  0.6736 -1.1317
  336MOL0     H44298   2.786   9.022   7.419 -0.9066 -0.6259 -0.7735
  336MOL0     H44299   3.015   9.019   7.495  1.8002 -2.1590  0.2513
  336MOL0     H44300   2.999   8.857   7.563  1.9781  0.8414  1.4326
  336MOL0     H44301   2.963   8.999   7.741 -2.5278  0.7930  3.1204
  336MOL0     H44302   2.837   9.088   7.659  0.9013  0.8001  0.0341
  336MOL0     H44303   2.812   8.798   7.714  1.3782  0.9281 -3.5102
  336MOL0     H44304   2.685   8.899   7.660  0.2771 -3.1647 -2.2396
  336MOL0     H44305   2.522   8.982   7.817  1.0509 -3.2517 -1.8563
  336MOL0     H44306   2.512   9.001   8.217 -2.1039  0.7243  0.2772
  336MOL0     H44307   2.403   9.020   8.084 -0.3630  1.4675  0.2832
  336MOL0     H44308   2.494   9.244   8.042 -2.3870 -1.6098 -0.8428
  336MOL0     H44309   2.629   9.226   8.163 -1.1556  2.0658 -1.3971
  336MOL0     H44310   2.332   9.196   8.256 -0.6221  1.5217  5.1997
  336MOL0     H44311   2.470   9.201   8.357  1.3457  1.9363  1.0226
  336MOL0     H44312   2.431   9.433   8.158  1.0127  0.1821  0.6641
  336MOL0     H44313   2.487   9.430   8.321 -1.7989 -1.0917  2.1344
  336MOL0     H44314   2.445   9.663   8.324  0.4691  0.9144  1.1416
  336MOL0     H44315   2.366   9.860   8.364 -1.6403 -0.3785 -0.8800
  336MOL0     H44316   2.069  10.229   8.536  0.8096 -1.4498 -0.0799
  336MOL0     H44317   1.918  10.414   8.547 -1.8061  0.6825 -2.3110
  336MOL0     H44318   1.732  10.520   8.705 -2.8019  1.6488  0.4908
  336MOL0     H44319   1.616  10.398   8.762 -1.0851  0.5659  1.1409
  336MOL0     H44320   1.436  10.512   8.677 -0.0261 -1.9848  0.0530
  336MOL0     H44321   1.538  10.623   8.571  1.9087  2.0720  2.4615
  336MOL0     H44322   1.455  10.767   8.741  0.7596 -0.7129 -1.1995
  336MOL0     H44323   1.624  10.750   8.748  2.6846 -3.2094 -3.2209
  336MOL0     H44324   1.414  10.604   8.901 -0.7763  1.6986 -1.4263
  336MOL0     H44325   1.590  10.570   8.916 -0.5648 -0.1030  2.2702
  336MOL0     H44326   1.443  10.832   8.987 -0.0803 -0.3538 -0.8093
  336MOL0     H44327   1.617  10.818   8.981  0.8327 -1.3178 -0.7645
  336MOL0     H44328   1.427  10.665   9.172 -1.0575  4.4596  3.3881
  336MOL0     H44329   1.547  10.784   9.217  0.8462  0.1155 -0.0982
  336MOL0     H44330   1.707  10.585   9.090  2.2268 -0.9207  1.9191
  336MOL0     H44331   1.704  10.632   9.254  0.9827  2.1045 -1.3243
  336MOL0     H44332   1.513  10.457   9.299 -0.2563 -1.2702  0.6373
  336MOL0     H44333   1.666  10.391   9.253  0.8546  0.0088  0.6806
  336MOL0     H44334   1.586  10.144   8.564  0.9876 -0.2002 -1.8788
  336MOL0     H44335   1.724   9.958   8.546 -4.5095  1.6905  0.9587
  336MOL0     H44336   1.966   9.698   8.459  0.1918  0.4024  0.9675
  336MOL0     H44337   2.068   9.484   8.389  1.6459 -2.0582  0.1169
  336MOL0     H44338   2.536   8.957   7.080  2.8707  1.7556  0.7648
  336MOL0     H44339   2.305   9.011   7.104 -0.0110 -0.7574 -0.2690
  336MOL0     H44340   2.010   9.376   7.132  0.7368 -2.0003  1.1469
  336MOL0     H44341   1.771   9.433   7.184  1.9121 -1.4480  2.0039
  336MOL0     H44342   1.575   9.524   7.105 -1.2343  0.1370 -0.4483
  336MOL0     H44343   1.564   9.426   7.242  1.5330  0.0308 -0.6160
  336MOL0     H44344   1.328   9.377   7.125 -1.1944  0.2531  2.4686
  336MOL0     H44345   1.349   9.498   7.241 -1.5117 -1.3820 -1.1083
  336MOL0     H44346   1.291   9.525   6.950  2.2132 -0.2518 -0.6046
  336MOL0     H44347   1.422   9.633   7.005 -1.1581  3.0695  3.4219
  336MOL0     H44348   1.219   9.736   7.013 -0.6698 -1.1232 -0.2837
  336MOL0     H44349   1.137   9.615   7.112  0.1568  0.9236  1.5231
  336MOL0     H44350   1.307   9.889   7.377  0.4351 -2.2787  1.4409
  336MOL0     H44351   1.625   9.102   6.935  1.8191  1.3756 -4.5190
  336MOL0     H44352   1.867   9.036   6.895 -2.0235 -2.4537  1.5889
  337MOL0     O44353   5.186   5.776   4.879  0.1090  0.2853 -0.5245
  337MOL0     C44354   5.275   5.726   4.816 -0.3139 -0.3808  0.1221
  337MOL0     O44355   5.258   5.628   4.728  0.7124  0.0543  0.1514
  337MOL0     C44356   5.134   5.569   4.698 -0.1757  0.0549  0.2348
  337MOL0     C44357   5.012   5.588   4.759 -0.0564 -1.3136  0.2634
  337MOL0     C44358   4.897   5.523   4.719  0.2643  0.0696  0.3390
  337MOL0     C44359   4.900   5.418   4.624 -0.8553 -0.7043 -0.3917
  337MOL0     O44360   4.794   5.341   4.585  0.6430  0.2121 -0.3901
  337MOL0     C44361   4.669   5.333   4.668  0.0507  0.4608 -0.9018
  337MOL0     C44362   4.552   5.253   4.597  0.2954 -0.4855 -0.4584
  337MOL0     C44363   4.589   5.123   4.535 -0.2788  0.5343  0.3653
  337MOL0     C44364   4.468   5.028   4.521 -0.1198 -0.9703  0.6858
  337MOL0     C44365   4.497   4.882   4.502 -0.1982  0.4900  0.9352
  337MOL0     C44366   4.609   4.862   4.395  0.5044  0.1757 -1.2274
  337MOL0     C44367   4.599   4.735   4.308  0.4314  0.3515 -0.8684
  337MOL0     C44368   4.481   4.740   4.214  0.0227 -0.4602  0.6639
  337MOL0     N44369   4.505   4.844   4.110 -1.1148 -0.1551 -0.0586
  337MOL0     C44370   4.467   4.976   4.112  0.7318 -0.1312  0.8700
  337MOL0     C44371   4.531   5.030   4.006  0.3742  0.0254  1.4230
  337MOL0     C44372   4.513   5.175   3.967 -0.6774  0.1239 -0.0712
  337MOL0     C44373   4.561   5.267   4.078  0.1226  0.7282  0.5502
  337MOL0     C44374   4.709   5.247   4.105 -0.3601  0.2808  0.4691
  337MOL0     C44375   4.762   5.349   4.201 -0.7836  0.3563 -0.0464
  337MOL0     O44376   4.756   5.479   4.130 -0.2471 -0.0790 -0.8011
  337MOL0     C44377   4.793   5.595   4.198 -0.4225 -0.2243 -0.3011
  337MOL0     C44378   4.782   5.711   4.129 -0.0384  0.6679 -1.0658
  337MOL0     C44379   4.834   5.830   4.180 -0.8521 -0.2388 -0.3435
  337MOL0     C44380   4.872   5.843   4.312 -0.9794  0.5937  0.1122
  337MOL0     C44381   4.895   5.971   4.377  0.2037 -0.7824  1.1566
  337MOL0     O44382   4.998   5.974   4.464 -0.2243  0.1950  0.3210
  337MOL0     C44383   5.006   6.076   4.561  0.0633  0.4762 -0.5965
  337MOL0     C44384   5.004   6.210   4.539  0.6790  0.8868  0.3000
  337MOL0     C44385   5.031   6.302   4.648  0.6887  0.1021  0.5001
  337MOL0     C44386   5.054   6.246   4.782 -0.2912 -0.9053  0.3994
  337MOL0     O44387   5.073   6.324   4.899 -0.0730  0.5087 -0.1521
  337MOL0     C44388   5.139   6.451   4.878  1.0783  0.2932  0.0883
  337MOL0     C44389   5.139   6.521   5.016 -0.1465 -0.3149  0.1857
  337MOL0     C44390   5.009   6.555   5.067  0.3376 -0.5722 -0.5086
  337MOL0     C44391   4.998   6.546   5.223  0.7153 -0.2145 -0.5180
  337MOL0     C44392   4.851   6.606   5.240 -0.9605  0.6108 -0.0379
  337MOL0     C44393   4.863   6.750   5.296  1.0676 -0.8236 -0.2901
  337MOL0     C44394   4.770   6.784   5.417  0.0011 -0.0214 -0.0117
  337MOL0     C44395   4.753   6.927   5.440 -0.6952 -0.3557  0.4692
  337MOL0    Cl44396   4.912   7.017   5.450 -0.2879 -0.3963  0.1479
  337MOL0     C44397   5.058   6.106   4.795  0.4660  0.3543 -0.5536
  337MOL0     C44398   5.037   6.023   4.684  0.2641 -0.8702 -0.0443
  337MOL0     O44399   4.829   6.072   4.338 -0.5985 -0.0733 -0.8120
  337MOL0     C44400   4.877   5.725   4.395 -1.1358  0.2094 -0.5524
  337MOL0     C44401   4.851   5.604   4.329  0.1934 -1.5130  0.1015
  337MOL0     N44402   4.603   4.928   3.936  0.8573 -0.4614  0.4820
  337MOL0     N44403   4.589   4.823   4.006 -0.2014  0.2465  0.3966
  337MOL0     C44404   5.021   5.397   4.557  0.6826 -0.5507 -0.0059
  337MOL0     C44405   5.141   5.475   4.590  0.5533  0.2920  0.0467
  337MOL0     C44406   5.405   5.789   4.819 -0.2570  0.0556  0.3596
  337MOL0     C44407   5.438   5.886   4.914 -1.2832 -0.4015 -0.0926
  337MOL0     C44408   5.566   5.935   4.934  0.3941  0.1307  1.3272
  337MOL0     C44409   5.674   5.871   4.872 -0.2000  0.3348  0.4064
  337MOL0     O44410   5.807   5.901   4.885 -0.0299  1.3964 -0.1503
  337MOL0     C44411   5.861   5.909   5.023  1.3308 -0.3365  0.7384
  337MOL0     C44412   5.999   5.970   5.031  0.1264 -0.8165  0.9783
  337MOL0     C44413   6.003   6.103   4.951 -1.3673 -0.9770 -0.6646
  337MOL0     C44414   6.153   6.153   4.933 -0.2894  0.0516 -1.0105
  337MOL0     C44415   6.162   6.285   4.875  0.3159  0.9117  0.5796
  337MOL0     C44416   6.179   6.383   4.805  0.2969 -0.8268 -0.0492
  337MOL0     C44417   5.645   5.777   4.766  0.2514  0.1035  0.3265
  337MOL0     C44418   5.518   5.737   4.740  0.4718 -0.5999 -0.1507
  337MOL0     H44419   4.992   5.659   4.839 -2.0762  1.7138 -2.5910
  337MOL0     H44420   4.807   5.545   4.775  0.5716  1.5429  0.2930
  337MOL0     H44421   4.618   5.429   4.680 -3.7747 -1.2698 -1.7944
  337MOL0     H44422   4.691   5.265   4.751 -0.9924 -0.4998 -1.3868
  337MOL0     H44423   4.499   5.317   4.526 -1.9718  1.5466  2.7789
  337MOL0     H44424   4.469   5.234   4.666  1.9605 -2.4114  1.1340
  337MOL0     H44425   4.660   5.081   4.608  0.2470  0.5541 -0.1307
  337MOL0     H44426   4.646   5.137   4.443 -1.3102 -0.9159 -0.5279
  337MOL0     H44427   4.405   5.023   4.610  1.3438 -2.4535  1.7010
  337MOL0     H44428   4.406   5.062   4.437  0.9168  0.1716  0.3582
  337MOL0     H44429   4.400   4.837   4.475  0.1983  1.1158 -1.8609
  337MOL0     H44430   4.513   4.831   4.597 -3.9871 -1.8271  0.5460
  337MOL0     H44431   4.703   4.861   4.452 -0.1222 -1.1545 -0.1403
  337MOL0     H44432   4.620   4.940   4.319  0.9740  1.0369 -0.3120
  337MOL0     H44433   4.686   4.703   4.250  0.2155  1.6959 -1.9788
  337MOL0     H44434   4.569   4.652   4.372 -0.3433  1.0393 -0.3182
  337MOL0     H44435   4.388   4.772   4.262 -0.4800  2.0207 -1.7295
  337MOL0     H44436   4.470   4.638   4.175 -1.0247  1.0850 -3.5585
  337MOL0     H44437   4.416   5.035   4.188  2.7580  1.2183  1.2651
  337MOL0     H44438   4.411   5.199   3.935  0.2336  2.5280 -1.4439
  337MOL0     H44439   4.577   5.183   3.879 -0.9369  0.4915 -0.2306
  337MOL0     H44440   4.510   5.235   4.170 -2.3626  2.1941 -0.2330
  337MOL0     H44441   4.541   5.374   4.076 -0.9883  0.5362  0.6527
  337MOL0     H44442   4.745   5.153   4.150  3.4682  0.4893 -1.7236
  337MOL0     H44443   4.753   5.258   4.006 -1.7806 -2.9538 -0.6779
  337MOL0     H44444   4.865   5.342   4.237 -1.0087 -1.7044  0.3539
  337MOL0     H44445   4.694   5.351   4.286 -1.2895  1.2386 -0.4597
  337MOL0     H44446   4.749   5.715   4.025 -1.0989 -3.2110 -1.0188
  337MOL0     H44447   4.844   5.914   4.113  1.3888  0.0598  0.2600
  337MOL0     H44448   4.973   6.243   4.440  0.7080  0.2661  0.0823
  337MOL0     H44449   5.024   6.410   4.639 -0.3240  0.1502  1.6043
  337MOL0     H44450   5.081   6.526   4.823  2.5764  1.8139  0.5094
  337MOL0     H44451   5.238   6.441   4.832  1.1162  0.2408  0.1804
  337MOL0     H44452   5.204   6.609   5.008  3.1027 -2.3856  1.5173
  337MOL0     H44453   5.183   6.459   5.095 -1.1550 -1.7425 -0.3445
  337MOL0     H44454   4.926   6.500   5.021 -0.3304 -1.0504  1.1949
  337MOL0     H44455   4.991   6.661   5.046 -0.3387 -0.7403 -0.8394
  337MOL0     H44456   4.991   6.444   5.261  0.6596 -0.1683 -0.4041
  337MOL0     H44457   5.073   6.601   5.281  1.2826 -1.1397 -0.3503
  337MOL0     H44458   4.809   6.542   5.319 -1.4567  0.2565 -0.5772
  337MOL0     H44459   4.789   6.595   5.150 -1.5695 -3.1073  0.6464
  337MOL0     H44460   4.836   6.816   5.213 -4.2266  0.7712  2.2255
  337MOL0     H44461   4.966   6.782   5.314  1.0480  0.1785 -1.7628
  337MOL0     H44462   4.671   6.750   5.386 -0.1875  0.9320 -0.5127
  337MOL0     H44463   4.804   6.728   5.504 -3.1828 -1.2147  0.5823
  337MOL0     H44464   4.703   6.937   5.537 -0.0867 -0.7071  0.8217
  337MOL0     H44465   4.698   6.980   5.361 -0.4354 -1.3208 -0.3744
  337MOL0     H44466   5.093   6.068   4.891  0.3972  0.5307 -0.4598
  337MOL0     H44467   5.055   5.917   4.698 -0.4570 -0.6644  3.2015
  337MOL0     H44468   4.915   5.724   4.497 -0.5356  0.8182 -0.7643
  337MOL0     H44469   4.856   5.509   4.380  0.3852 -0.3224  2.4214
  337MOL0     H44470   5.023   5.311   4.491  1.5256  0.2664 -1.0729
  337MOL0     H44471   5.232   5.444   4.539  1.3067  2.9218 -0.3326
  337MOL0     H44472   5.364   5.937   4.975 -1.4089 -1.0974  0.3436
  337MOL0     H44473   5.595   6.000   5.016  2.4720  0.0208  0.7312
  337MOL0     H44474   5.864   5.810   5.069  0.8805 -2.4385 -3.2651
  337MOL0     H44475   5.792   5.972   5.079  1.2099  0.8272 -0.6609
  337MOL0     H44476   6.024   5.977   5.137  0.6783  1.2637  0.7501
  337MOL0     H44477   6.068   5.902   4.979 -0.0306  0.3691 -0.8718
  337MOL0     H44478   5.942   6.179   5.001  1.9663  2.6104 -1.5965
  337MOL0     H44479   5.968   6.085   4.849  1.0230  0.1248 -1.7511
  337MOL0     H44480   6.188   6.163   5.036 -1.4152 -1.9447 -0.3977
  337MOL0     H44481   6.209   6.074   4.882 -0.2327 -1.5976  1.4596
  337MOL0     H44482   6.185   6.470   4.743 -2.5098  0.7220  1.6813
  337MOL0     H44483   5.737   5.742   4.719  0.0510  0.4502 -0.3213
  337MOL0     H44484   5.513   5.657   4.667  0.6610  0.0960 -0.9344
  338MOL0     O44485   8.045   5.503   8.531  0.3201  0.8364  0.0798
  338MOL0     C44486   8.006   5.384   8.520  0.7727 -0.9855 -0.8518
  338MOL0     O44487   8.055   5.287   8.599 -0.0292 -0.1096 -1.0416
  338MOL0     C44488   8.174   5.295   8.674  0.0763  0.8470  0.5721
  338MOL0     C44489   8.291   5.351   8.627  0.2785  0.1363  0.0923
  338MOL0     C44490   8.415   5.339   8.680 -0.2366  0.6850 -0.0338
  338MOL0     C44491   8.426   5.262   8.802 -1.3631 -0.0981 -0.8337
  338MOL0     O44492   8.536   5.232   8.880  0.1190  0.1393 -0.3722
  338MOL0     C44493   8.659   5.233   8.810  0.0984 -0.2363 -0.7312
  338MOL0     C44494   8.765   5.217   8.917 -0.4441 -0.3283  0.7422
  338MOL0     C44495   8.906   5.204   8.856 -0.4318  1.4237  0.5469
  338MOL0     C44496   9.007   5.148   8.960  0.3207 -0.7890 -0.3146
  338MOL0     C44497   9.155   5.147   8.900 -0.2330 -0.4439  0.6342
  338MOL0     C44498   9.217   5.285   8.852  0.8751  0.0049  0.0911
  338MOL0     C44499   9.366   5.272   8.823 -0.3826 -1.0054  0.3417
  338MOL0     C44500   9.415   5.414   8.772 -0.7615  0.4107 -0.1529
  338MOL0     N44501   9.539   5.420   8.695  0.3258 -0.1162 -0.0875
  338MOL0     C44502   9.665   5.430   8.743 -0.6806  0.2451 -0.0844
  338MOL0     C44503   9.740   5.458   8.631  0.2898 -0.1008  0.9210
  338MOL0     C44504   9.893   5.461   8.615  0.0516  1.3651 -0.0387
  338MOL0     C44505   9.937   5.605   8.645  1.0755  0.3883  0.3330
  338MOL0     C44506  10.080   5.624   8.608 -0.3265 -0.0633  0.4222
  338MOL0     C44507  10.107   5.658   8.460 -0.1354 -0.1003 -0.0681
  338MOL0     O44508  10.250   5.676   8.445  1.0573 -0.5630  0.0278
  338MOL0     C44509  10.316   5.571   8.394 -0.9653  0.6498 -1.2508
  338MOL0     C44510  10.294   5.516   8.272 -0.4222 -0.6715  0.2744
  338MOL0     C44511  10.380   5.418   8.210 -0.3138 -0.3476 -0.1837
  338MOL0     C44512  10.488   5.365   8.287  0.1116 -1.2162 -0.8701
  338MOL0     C44513  10.577   5.267   8.228 -0.3858  0.0639  0.4494
  338MOL0     O44514  10.543   5.228   8.100 -0.0034  0.6021  0.5932
  338MOL0     C44515  10.631   5.137   8.043  0.7565  0.3507  0.7652
  338MOL0     C44516  10.691   5.020   8.097 -0.2392 -0.0758 -0.7512
  338MOL0     C44517  10.764   4.935   8.024 -0.4583 -0.5728  0.7887
  338MOL0     C44518  10.795   4.964   7.891 -0.0510  0.9777  0.1329
  338MOL0     O44519  10.880   4.887   7.816 -0.5765  0.2160 -0.3647
  338MOL0     C44520  10.980   4.817   7.886 -0.6331  0.3771 -0.4176
  338MOL0     C44521  11.093   4.763   7.788  0.1226  0.0552  0.3799
  338MOL0     C44522  11.206   4.685   7.842  0.2469 -0.1989 -0.8353
  338MOL0     C44523  11.313   4.631   7.742  0.2203  0.0709 -0.1416
  338MOL0     C44524  11.416   4.554   7.817  0.6280  0.0719 -0.7096
  338MOL0     C44525  11.464   4.438   7.740  0.6458 -0.7139  0.5959
  338MOL0     C44526  11.570   4.352   7.799 -0.5143 -0.9911 -0.9108
  338MOL0     C44527  11.691   4.428   7.871  0.0492  0.1855  0.2463
  338MOL0    Cl44528  11.763   4.545   7.747 -0.5503  0.2639  0.0827
  338MOL0     C44529  10.741   5.073   7.828 -0.2662 -0.3848 -0.5807
  338MOL0     C44530  10.656   5.158   7.907 -0.8383  1.3707 -0.0995
  338MOL0     O44531  10.667   5.220   8.298 -0.3411  0.1930 -0.5697
  338MOL0     C44532  10.502   5.422   8.416 -0.3613  1.1222 -0.2723
  338MOL0     C44533  10.417   5.521   8.473 -0.1242 -1.0497  0.2928
  338MOL0     N44534   9.656   5.474   8.527  0.7755  0.4985  0.4213
  338MOL0     N44535   9.539   5.451   8.558 -0.4482  0.2581  0.0761
  338MOL0     C44536   8.312   5.198   8.854  0.3229  0.0529 -0.0990
  338MOL0     C44537   8.184   5.217   8.792 -0.5712 -0.1853 -0.5546
  338MOL0     C44538   7.895   5.353   8.425  0.6968  0.1660 -0.1074
  338MOL0     C44539   7.831   5.460   8.356 -0.5398 -0.5284  0.1613
  338MOL0     C44540   7.729   5.437   8.260  0.4853 -0.9482 -0.6031
  338MOL0     C44541   7.675   5.308   8.249 -0.9345  0.2228 -0.3302
  338MOL0     O44542   7.570   5.289   8.164  0.0832 -0.5856 -0.2398
  338MOL0     C44543   7.599   5.289   8.023  0.1882 -0.2250  1.0401
  338MOL0     C44544   7.537   5.431   7.953 -0.1772  0.2831 -0.7888
  338MOL0     C44545   7.386   5.438   7.950 -0.2718  0.3851 -0.0259
  338MOL0     C44546   7.330   5.513   7.830  0.6925 -0.0852  0.9853
  338MOL0     C44547   7.340   5.436   7.708  0.4357 -1.0157 -0.5368
  338MOL0     C44548   7.322   5.368   7.608  0.1796 -0.1880 -0.1279
  338MOL0     C44549   7.737   5.200   8.316  0.0107  0.3461 -0.2779
  338MOL0     C44550   7.850   5.225   8.399 -0.5806 -0.2922  0.1860
  338MOL0     H44551   8.291   5.401   8.531  3.7313 -1.6023 -1.0034
  338MOL0     H44552   8.504   5.380   8.632  1.4154 -0.3299  2.0034
  338MOL0     H44553   8.676   5.324   8.753 -1.3934  0.7605  0.3395
  338MOL0     H44554   8.659   5.152   8.736 -2.5490  0.5760 -1.7303
  338MOL0     H44555   8.743   5.124   8.970 -0.0765 -0.5982  0.4265
  338MOL0     H44556   8.770   5.302   8.986  0.4111  1.9555 -1.9432
  338MOL0     H44557   8.943   5.301   8.822 -1.9590  1.8600  0.0102
  338MOL0     H44558   8.916   5.137   8.770  2.6991  0.8886  1.2096
  338MOL0     H44559   9.005   5.220   9.043  0.0234  0.2150 -1.1705
  338MOL0     H44560   8.977   5.047   8.991 -1.3199 -0.1192  0.4224
  338MOL0     H44561   9.141   5.088   8.809 -2.6815  1.8580 -0.6109
  338MOL0     H44562   9.219   5.092   8.970 -0.9371 -2.8644 -0.4958
  338MOL0     H44563   9.189   5.354   8.933 -0.7036 -1.0906  0.5259
  338MOL0     H44564   9.166   5.307   8.758 -3.2942 -1.7574  1.6789
  338MOL0     H44565   9.423   5.235   8.909  1.0751 -1.3522 -0.7387
  338MOL0     H44566   9.370   5.209   8.733 -3.9620  0.0698 -0.7548
  338MOL0     H44567   9.425   5.478   8.860 -0.9020 -1.6712  1.4370
  338MOL0     H44568   9.335   5.464   8.716 -0.4514  0.7500 -0.3031
  338MOL0     H44569   9.715   5.413   8.838  2.1098 -2.2526 -1.8476
  338MOL0     H44570   9.913   5.429   8.512  0.3141  2.6357 -0.4029
  338MOL0     H44571   9.937   5.400   8.694 -0.7818  1.0627  0.1955
  338MOL0     H44572   9.925   5.632   8.750 -0.6633  0.2576  0.1967
  338MOL0     H44573   9.861   5.673   8.605  0.9879 -0.8129 -1.7051
  338MOL0     H44574  10.116   5.711   8.664  3.3364 -0.5068 -0.9726
  338MOL0     H44575  10.121   5.528   8.642 -0.4650 -0.5783 -0.8197
  338MOL0     H44576  10.066   5.750   8.417  1.0268  0.9152  0.9116
  338MOL0     H44577  10.082   5.563   8.413  1.6016  0.6472 -2.7428
  338MOL0     H44578  10.221   5.557   8.203 -0.8522  0.7476  1.5393
  338MOL0     H44579  10.349   5.384   8.112  2.2436 -1.5506 -0.6593
  338MOL0     H44580  10.661   5.005   8.200  2.3437  2.4206  0.5037
  338MOL0     H44581  10.803   4.851   8.081 -5.1673 -1.7794  2.6914
  338MOL0     H44582  10.936   4.731   7.938  0.6841 -0.3446 -0.4470
  338MOL0     H44583  11.027   4.877   7.964 -2.1554  1.8935 -0.6118
  338MOL0     H44584  11.136   4.846   7.730 -2.4523  1.0450 -0.2656
  338MOL0     H44585  11.040   4.697   7.719  2.6672 -4.2522  2.1109
  338MOL0     H44586  11.167   4.617   7.918 -0.2084 -0.1667 -1.0349
  338MOL0     H44587  11.246   4.762   7.908  0.6728 -1.3238  0.2415
  338MOL0     H44588  11.270   4.561   7.669  0.7986 -2.7468  2.0151
  338MOL0     H44589  11.358   4.725   7.709  1.1341 -0.1129  0.5425
  338MOL0     H44590  11.377   4.528   7.916 -0.3306  0.4931 -0.9606
  338MOL0     H44591  11.501   4.616   7.847  0.8201 -0.5624  0.0989
  338MOL0     H44592  11.499   4.464   7.639  0.3466 -0.3511  0.5843
  338MOL0     H44593  11.376   4.374   7.735  1.6849 -2.1875  0.4515
  338MOL0     H44594  11.521   4.287   7.872  0.9234  1.1331  2.1604
  338MOL0     H44595  11.611   4.283   7.724 -0.2158 -1.8499  0.0166
  338MOL0     H44596  11.765   4.353   7.902 -0.2074  0.5294  1.7880
  338MOL0     H44597  11.672   4.486   7.962  0.1786  3.6718 -1.7881
  338MOL0     H44598  10.764   5.101   7.726  0.1260  2.9322  0.3101
  338MOL0     H44599  10.613   5.248   7.863  3.9705  3.5327 -0.9599
  338MOL0     H44600  10.587   5.386   8.472 -0.2794 -0.9443 -1.5988
  338MOL0     H44601  10.424   5.568   8.570 -2.2381  2.9153 -1.2293
  338MOL0     H44602   8.314   5.129   8.938 -3.0655 -0.1854 -0.0748
  338MOL0     H44603   8.098   5.168   8.837  1.5086 -3.2693  0.4111
  338MOL0     H44604   7.867   5.562   8.349  3.5269 -1.6103  2.2521
  338MOL0     H44605   7.697   5.523   8.202  1.2440  0.1115  0.4963
  338MOL0     H44606   7.544   5.204   7.981  1.3420  0.0121 -1.0813
  338MOL0     H44607   7.705   5.265   8.011 -0.1350 -0.4323 -2.1536
  338MOL0     H44608   7.573   5.514   8.016  0.3036  0.0664 -0.7794
  338MOL0     H44609   7.567   5.431   7.848  0.8271  1.4924 -0.5308
  338MOL0     H44610   7.348   5.491   8.038 -0.6130 -2.5573  1.7721
  338MOL0     H44611   7.353   5.334   7.956  3.7140 -1.0558  0.4592
  338MOL0     H44612   7.224   5.505   7.855  0.8549 -6.6428  1.2360
  338MOL0     H44613   7.374   5.611   7.806  3.7064 -1.7297 -0.8751
  338MOL0     H44614   7.314   5.306   7.521  4.4057  3.5071 -3.6675
  338MOL0     H44615   7.687   5.104   8.314 -0.0149  0.3073  1.3862
  338MOL0     H44616   7.888   5.139   8.453 -0.7483 -1.1231 -0.9734
  339MOL0     O44617   1.508   1.404  11.014  0.8188 -0.4652 -0.3284
  339MOL0     C44618   1.557   1.473  10.925  0.5805  0.4242 -1.5664
  339MOL0     O44619   1.509   1.586  10.861  0.3512  0.4377 -0.2658
  339MOL0     C44620   1.369   1.576  10.847 -0.3280  1.4675 -0.4712
  339MOL0     C44621   1.323   1.592  10.717 -0.1322 -0.0795  0.5444
  339MOL0     C44622   1.182   1.597  10.687 -0.0676 -0.1220  0.6966
  339MOL0     C44623   1.095   1.576  10.789 -0.0258 -1.0263 -0.0230
  339MOL0     O44624   0.969   1.579  10.748  0.6186  0.3651  0.3812
  339MOL0     C44625   0.864   1.530  10.829 -0.2711  0.0354  0.0904
  339MOL0     C44626   0.737   1.542  10.754 -0.2609 -0.3355 -0.8031
  339MOL0     C44627   0.608   1.490  10.827  0.8350 -0.1233 -0.1241
  339MOL0     C44628   0.567   1.580  10.944 -0.4447 -0.4879 -0.1589
  339MOL0     C44629   0.430   1.532  10.996 -0.0113  0.2619 -0.8101
  339MOL0     C44630   0.381   1.625  11.110 -0.6953 -0.2543  0.3069
  339MOL0     C44631   0.281   1.564  11.199  0.8223  0.1429 -0.8492
  339MOL0     C44632   0.249   1.669  11.299  0.2448 -0.1286 -0.6107
  339MOL0     N44633   0.166   1.598  11.399 -0.7694 -0.0206 -1.1408
  339MOL0     C44634   0.057   1.523  11.376 -0.0931 -0.9659 -0.4195
  339MOL0     C44635   0.000   1.486  11.488  0.5716  0.0900 -0.3482
  339MOL0     C44636  -0.129   1.408  11.496 -1.0866 -0.5211 -1.3317
  339MOL0     C44637  -0.230   1.480  11.590 -0.6162 -0.9189  0.1500
  339MOL0     C44638  -0.326   1.383  11.640  0.2156  0.0665  1.0367
  339MOL0     C44639  -0.290   1.291  11.761 -0.0033  0.6053 -0.0851
  339MOL0     O44640  -0.414   1.209  11.762  0.5291 -0.4170  0.0212
  339MOL0     C44641  -0.462   1.169  11.883  0.8800 -0.1134 -0.1320
  339MOL0     C44642  -0.426   1.200  12.022  0.4664  0.1016  0.9904
  339MOL0     C44643  -0.515   1.166  12.134 -0.3929 -0.2658 -0.1010
  339MOL0     C44644  -0.643   1.115  12.103  0.8256 -0.1521 -0.0973
  339MOL0     C44645  -0.746   1.096  12.210 -0.0657  0.3224 -0.0378
  339MOL0     O44646  -0.871   1.050  12.171 -0.0363 -0.0595 -0.8266
  339MOL0     C44647  -0.975   1.103  12.243  0.2861  1.2288 -0.2866
  339MOL0     C44648  -0.970   1.232  12.297 -0.3980  0.0897 -0.2372
  339MOL0     C44649  -1.080   1.292  12.369  0.0397  0.3434 -0.8431
  339MOL0     C44650  -1.189   1.207  12.401  0.4300  0.2075  0.4146
  339MOL0     O44651  -1.289   1.263  12.479  0.6069 -0.2619 -0.3749
  339MOL0     C44652  -1.391   1.182  12.535 -0.1032  0.5366 -0.0307
  339MOL0     C44653  -1.445   1.243  12.664 -0.8413  0.3562 -0.8796
  339MOL0     C44654  -1.485   1.128  12.760 -0.3937  0.2351  0.8036
  339MOL0     C44655  -1.634   1.086  12.737 -1.0011 -0.3998  0.1609
  339MOL0     C44656  -1.677   1.036  12.863 -0.6680 -0.1146 -0.1274
  339MOL0     C44657  -1.831   1.057  12.869 -0.4112 -0.5994  0.2606
  339MOL0     C44658  -1.911   1.005  12.989  0.6792  0.1380  0.2082
  339MOL0     C44659  -1.885   0.859  13.028  0.9859  0.2049  0.7092
  339MOL0    Cl44660  -1.897   0.759  12.881  0.3371 -0.0294 -0.3036
  339MOL0     C44661  -1.189   1.071  12.357  0.0396  0.1420 -0.3479
  339MOL0     C44662  -1.088   1.026  12.268 -0.1423  0.0324 -0.1837
  339MOL0     O44663  -0.716   1.113  12.325 -0.2548 -0.1307  0.0542
  339MOL0     C44664  -0.671   1.072  11.971 -0.5266 -0.6618 -0.2952
  339MOL0     C44665  -0.572   1.088  11.869  0.7364  0.6435 -0.2791
  339MOL0     N44666   0.076   1.536  11.590  0.3497 -0.6851 -0.0981
  339MOL0     N44667   0.182   1.599  11.539 -0.3998  0.0795 -0.0284
  339MOL0     C44668   1.130   1.553  10.918  0.2284  0.7735 -0.3289
  339MOL0     C44669   1.272   1.563  10.955 -0.0263 -0.2393  0.1112
  339MOL0     C44670   1.710   1.457  10.907  0.0393 -0.2739  0.4940
  339MOL0     C44671   1.763   1.331  10.900 -0.4798 -0.2528  0.0202
  339MOL0     C44672   1.900   1.313  10.875  0.0381  0.7802  1.2603
  339MOL0     C44673   1.981   1.417  10.834 -0.6685 -0.7502 -0.3929
  339MOL0     O44674   2.116   1.399  10.798 -0.4723 -0.1004 -0.4963
  339MOL0     C44675   2.119   1.305  10.689 -0.1263  0.1196 -0.0537
  339MOL0     C44676   2.236   1.343  10.597 -0.6806 -0.0501  0.1931
  339MOL0     C44677   2.254   1.224  10.492 -0.0260  0.0047  0.6722
  339MOL0     C44678   2.309   1.094  10.549  0.0417  0.9550  0.8706
  339MOL0     C44679   2.235   0.974  10.509  0.5237  0.1073  0.0125
  339MOL0     C44680   2.175   0.872  10.496  0.5072  0.1328 -0.9389
  339MOL0     C44681   1.929   1.545  10.834  0.1423  0.6788 -0.3588
  339MOL0     C44682   1.796   1.568  10.878  0.4647 -0.5410 -0.0066
  339MOL0     H44683   1.388   1.600  10.630 -0.2081 -0.1413  0.4823
  339MOL0     H44684   1.145   1.582  10.586 -2.6651  1.7583  1.2622
  339MOL0     H44685   0.870   1.584  10.924 -1.0023 -2.6607  1.7920
  339MOL0     H44686   0.889   1.426  10.854  0.5852  0.2193  0.0238
  339MOL0     H44687   0.743   1.495  10.656 -2.5446 -0.1885 -1.0612
  339MOL0     H44688   0.728   1.651  10.743  1.5901 -0.2043 -1.2213
  339MOL0     H44689   0.623   1.387  10.862 -1.4389 -1.1526 -1.8716
  339MOL0     H44690   0.535   1.488  10.745 -3.3473  2.7951  3.0963
  339MOL0     H44691   0.638   1.558  11.024 -1.0809 -0.5095  0.4131
  339MOL0     H44692   0.572   1.684  10.909  1.1876 -0.8280 -1.0239
  339MOL0     H44693   0.432   1.428  11.029 -1.3085  0.2630 -0.6833
  339MOL0     H44694   0.354   1.546  10.919 -0.8704 -0.6792 -0.1553
  339MOL0     H44695   0.348   1.721  11.068  1.0965  0.0254 -0.5428
  339MOL0     H44696   0.470   1.645  11.171  0.0577  1.5004 -1.2745
  339MOL0     H44697   0.188   1.530  11.152  0.2344 -0.4317  0.6537
  339MOL0     H44698   0.338   1.483  11.247 -1.1545  0.5219  2.4713
  339MOL0     H44699   0.186   1.749  11.258  0.1188  0.7034  1.1285
  339MOL0     H44700   0.337   1.710  11.348  0.1657 -3.6166  3.0041
  339MOL0     H44701   0.014   1.495  11.280  1.1599 -1.4404 -0.8637
  339MOL0     H44702  -0.099   1.309  11.532  0.0694  0.4493  0.5480
  339MOL0     H44703  -0.169   1.384  11.397  0.3603 -1.1821 -1.7759
  339MOL0     H44704  -0.300   1.547  11.539 -0.4847 -2.0976 -1.7060
  339MOL0     H44705  -0.169   1.534  11.662  0.6267 -0.1331 -1.4289
  339MOL0     H44706  -0.410   1.445  11.673 -1.8414 -2.8914  1.7561
  339MOL0     H44707  -0.358   1.314  11.561  0.5165 -0.6013  1.4991
  339MOL0     H44708  -0.260   1.359  11.842  1.8399 -0.3729  0.1125
  339MOL0     H44709  -0.197   1.236  11.746 -1.3239 -1.4020 -1.3098
  339MOL0     H44710  -0.338   1.259  12.044  0.9578 -0.6012  0.9440
  339MOL0     H44711  -0.481   1.190  12.234  0.6357  2.4397 -0.9819
  339MOL0     H44712  -0.886   1.301  12.293 -0.5140  0.5296  2.8169
  339MOL0     H44713  -1.091   1.399  12.384 -1.8086 -0.0053  0.5769
  339MOL0     H44714  -1.345   1.091  12.573  1.5864  2.2399  2.3854
  339MOL0     H44715  -1.472   1.168  12.462  1.3085  1.5653 -1.8864
  339MOL0     H44716  -1.528   1.313  12.651 -1.6919 -0.2055  1.1538
  339MOL0     H44717  -1.364   1.306  12.702 -1.0170 -0.0510  0.2203
  339MOL0     H44718  -1.472   1.174  12.858 -1.3844  1.6629  0.2937
  339MOL0     H44719  -1.418   1.041  12.759 -0.2470  0.3253  1.9062
  339MOL0     H44720  -1.695   1.177  12.730 -1.6454 -0.7751  0.7585
  339MOL0     H44721  -1.654   1.022  12.651 -1.7959  2.1575 -1.6909
  339MOL0     H44722  -1.625   1.082  12.947 -0.6438  0.1823 -0.3029
  339MOL0     H44723  -1.652   0.930  12.869  0.8526  0.0991 -1.8869
  339MOL0     H44724  -1.883   1.016  12.782 -1.2016  2.0931 -0.6183
  339MOL0     H44725  -1.838   1.166  12.869  2.6030 -0.3181  1.3181
  339MOL0     H44726  -1.907   1.071  13.075 -1.6623  0.2517  0.2908
  339MOL0     H44727  -2.017   0.991  12.962  1.0907  0.1216 -1.5246
  339MOL0     H44728  -1.965   0.830  13.096 -3.2528  4.1866 -1.9388
  339MOL0     H44729  -1.787   0.845  13.074  1.4010  0.8707  0.0608
  339MOL0     H44730  -1.268   0.997  12.360  1.4595 -1.4401 -0.3354
  339MOL0     H44731  -1.098   0.925  12.228  1.4841 -0.6199  0.9059
  339MOL0     H44732  -0.767   1.028  11.944 -1.1347 -0.9614  2.0925
  339MOL0     H44733  -0.595   1.059  11.767 -1.1803  1.5766 -0.1612
  339MOL0     H44734   1.066   1.544  11.006 -0.0338 -1.3969 -0.7053
  339MOL0     H44735   1.302   1.548  11.058 -1.1118  1.6116  0.7444
  339MOL0     H44736   1.709   1.239  10.922  0.3577 -1.1385 -1.4334
  339MOL0     H44737   1.945   1.214  10.870 -1.0211  0.3194  0.4739
  339MOL0     H44738   2.027   1.307  10.630 -1.8093 -0.0084  2.4144
  339MOL0     H44739   2.135   1.206  10.732  0.4268  1.1518  2.2688
  339MOL0     H44740   2.210   1.436  10.547  1.4818 -0.6796 -2.3599
  339MOL0     H44741   2.329   1.369  10.648 -0.5267 -0.5228  0.1647
  339MOL0     H44742   2.321   1.267  10.417 -2.8135  1.3451 -1.2195
  339MOL0     H44743   2.153   1.215  10.450  0.1841  1.5032 -0.2353
  339MOL0     H44744   2.408   1.073  10.508 -0.2571 -0.5697  0.8821
  339MOL0     H44745   2.330   1.090  10.656 -1.0310  1.5600  1.1171
  339MOL0     H44746   2.111   0.787  10.488  1.3426 -0.6639  0.3497
  339MOL0     H44747   1.983   1.635  10.809  1.0877  0.3728  0.4754
  339MOL0     H44748   1.746   1.664  10.887  1.0925 -0.1343 -0.7299
  340MOL0     O44749   0.749   2.918   1.045  0.4752  0.2329 -0.3720
  340MOL0     C44750   0.707   2.930   0.932 -0.0964  0.2244 -0.2145
  340MOL0     O44751   0.788   2.936   0.822 -0.0260  0.3700  0.2520
  340MOL0     C44752   0.920   2.896   0.834  0.3547 -0.5316 -0.0044
  340MOL0     C44753   0.982   2.812   0.933 -0.1278  0.3219  0.6130
  340MOL0     C44754   1.121   2.794   0.921 -0.2206 -0.2959 -0.0285
  340MOL0     C44755   1.206   2.844   0.819 -0.0028 -0.3454 -1.1924
  340MOL0     O44756   1.340   2.834   0.821  0.5506 -0.3288  0.3013
  340MOL0     C44757   1.409   2.773   0.930  0.3365 -0.5251 -0.4205
  340MOL0     C44758   1.536   2.855   0.942 -0.9571  0.2865  0.6356
  340MOL0     C44759   1.634   2.831   0.822  0.3551 -0.1912  0.5090
  340MOL0     C44760   1.759   2.898   0.856 -0.4552  0.3653 -0.1520
  340MOL0     C44761   1.858   2.900   0.740  0.3302  0.3512  0.7863
  340MOL0     C44762   1.986   2.977   0.774  0.4122 -0.0399  0.8389
  340MOL0     C44763   2.117   2.927   0.712  0.4666  0.0147 -0.8118
  340MOL0     C44764   2.111   2.871   0.571  0.2169 -0.4795 -0.3693
  340MOL0     N44765   2.249   2.820   0.531  0.1573 -0.1937 -0.2113
  340MOL0     C44766   2.365   2.835   0.604 -0.0540  0.1959  0.3552
  340MOL0     C44767   2.458   2.791   0.524 -0.1480  0.1544  0.0874
  340MOL0     C44768   2.603   2.808   0.543 -0.6744  0.1652  0.8942
  340MOL0     C44769   2.666   2.864   0.411  0.7848  1.0783  0.6843
  340MOL0     C44770   2.822   2.873   0.430  0.4919  0.4510  0.4253
  340MOL0     C44771   2.888   2.740   0.432  0.1368 -0.9279 -0.4670
  340MOL0     O44772   3.020   2.757   0.391 -0.5711  0.2771 -0.1005
  340MOL0     C44773   3.038   2.757   0.251  0.4491 -0.3092  0.0745
  340MOL0     C44774   3.086   2.870   0.195 -0.9562 -0.4533  0.6715
  340MOL0     C44775   3.118   2.879   0.060 -0.1350  0.0473 -0.4097
  340MOL0     C44776   3.098   2.769  -0.026  0.0089  0.4234  0.1314
  340MOL0     C44777   3.119   2.767  -0.176  0.9931 -0.6032 -0.7511
  340MOL0     O44778   3.133   2.646  -0.246 -0.6003  0.5236  0.4130
  340MOL0     C44779   3.176   2.626  -0.375 -0.6736  0.9685 -0.7436
  340MOL0     C44780   3.204   2.721  -0.467  1.0345  0.5914 -0.6773
  340MOL0     C44781   3.251   2.682  -0.588 -0.3851  0.6541 -0.0315
  340MOL0     C44782   3.247   2.547  -0.633  0.3631  0.3563 -0.9130
  340MOL0     O44783   3.291   2.490  -0.747  0.1980 -1.1050 -0.4098
  340MOL0     C44784   3.346   2.579  -0.839  1.0147  0.2098  0.5882
  340MOL0     C44785   3.363   2.498  -0.975 -0.9635 -0.4609 -0.6518
  340MOL0     C44786   3.430   2.580  -1.091  0.6014 -0.3633  0.8789
  340MOL0     C44787   3.428   2.502  -1.210  0.2276  0.7197  0.9396
  340MOL0     C44788   3.488   2.561  -1.337  0.9137 -0.1739  0.1525
  340MOL0     C44789   3.490   2.462  -1.452 -1.1348  0.8153  0.7393
  340MOL0     C44790   3.358   2.394  -1.479  1.1355 -0.5692 -0.8745
  340MOL0     C44791   3.330   2.247  -1.440  0.0459  0.6332  0.3537
  340MOL0    Cl44792   3.167   2.204  -1.500 -0.0955  0.6823  0.1499
  340MOL0     C44793   3.202   2.450  -0.547  0.5019 -0.2743 -0.9131
  340MOL0     C44794   3.179   2.484  -0.413  0.2295 -0.6111  0.7966
  340MOL0     O44795   3.136   2.877  -0.220 -0.4361 -0.0476 -0.8516
  340MOL0     C44796   3.068   2.647   0.031  1.0604  0.3500 -0.3375
  340MOL0     C44797   3.024   2.643   0.167  0.2142 -0.1291  0.4757
  340MOL0     N44798   2.401   2.734   0.414 -0.4865 -0.1803 -0.0353
  340MOL0     N44799   2.278   2.754   0.416 -0.3039 -0.4384 -0.0934
  340MOL0     C44800   1.140   2.914   0.717  0.6262 -1.2696 -0.6243
  340MOL0     C44801   0.997   2.938   0.719 -0.9357 -0.0837 -0.1819
  340MOL0     C44802   0.565   2.967   0.921  0.0364  0.5542  0.0351
  340MOL0     C44803   0.534   3.062   0.825 -0.1495 -1.0589 -0.3370
  340MOL0     C44804   0.402   3.116   0.821 -0.9586 -0.1235 -0.1108
  340MOL0     C44805   0.302   3.069   0.910  0.2555 -0.6604  0.0660
  340MOL0     O44806   0.180   3.133   0.923 -0.7236  0.5591  0.5118
  340MOL0     C44807   0.159   3.275   0.912  0.1120  0.3033 -0.0225
  340MOL0     C44808   0.251   3.366   1.001  0.3213  1.3515  0.9827
  340MOL0     C44809   0.244   3.519   0.968  0.3785  0.3825 -0.6825
  340MOL0     C44810   0.342   3.610   1.059  0.5429 -0.2995 -0.3063
  340MOL0     C44811   0.297   3.648   1.194 -0.0082  0.4075  0.1748
  340MOL0     C44812   0.258   3.677   1.303 -0.1907  0.9655 -0.5340
  340MOL0     C44813   0.342   2.979   1.006 -0.0428 -0.0987 -0.7117
  340MOL0     C44814   0.472   2.921   1.017 -0.8936  0.8317 -0.0930
  340MOL0     H44815   0.936   2.765   1.020  0.2680 -1.3627 -0.0510
  340MOL0     H44816   1.157   2.741   1.008 -2.8172  1.4944  2.2961
  340MOL0     H44817   1.450   2.673   0.911  0.7036  0.1676 -4.0665
  340MOL0     H44818   1.345   2.781   1.019 -1.3420  2.9472 -1.7469
  340MOL0     H44819   1.583   2.825   1.036  0.4562  1.6895  0.4184
  340MOL0     H44820   1.518   2.960   0.969  1.2961  1.1711 -1.0513
  340MOL0     H44821   1.592   2.897   0.745 -1.4429 -1.6240  0.2000
  340MOL0     H44822   1.642   2.727   0.790 -2.8005 -0.5013  0.4435
  340MOL0     H44823   1.733   2.996   0.896 -2.9820  0.0521 -0.8420
  340MOL0     H44824   1.800   2.844   0.942  1.0850  1.1663 -0.3586
  340MOL0     H44825   1.805   2.932   0.650  1.7682 -0.9452 -0.5955
  340MOL0     H44826   1.893   2.797   0.724 -0.0515  0.7432 -4.1782
  340MOL0     H44827   2.004   2.961   0.880  1.7139 -3.7202  0.2122
  340MOL0     H44828   1.965   3.082   0.751 -0.2500 -0.8232 -2.7452
  340MOL0     H44829   2.197   3.002   0.716  5.1304 -4.3785 -1.1326
  340MOL0     H44830   2.152   2.845   0.774 -0.1468  1.6524  1.8504
  340MOL0     H44831   2.077   2.947   0.499  1.6835  2.7894  2.1220
  340MOL0     H44832   2.041   2.787   0.558 -0.2364 -0.2905  0.7366
  340MOL0     H44833   2.380   2.886   0.698 -1.2570  1.6625 -0.2069
  340MOL0     H44834   2.646   2.710   0.567  1.0294  0.3884 -1.0341
  340MOL0     H44835   2.635   2.876   0.622  0.6989  0.5649  0.0190
  340MOL0     H44836   2.622   2.961   0.388 -1.2545 -0.0799 -0.5765
  340MOL0     H44837   2.647   2.810   0.318  1.0347  1.2454  0.5353
  340MOL0     H44838   2.866   2.924   0.344 -0.9872  3.1027  1.1201
  340MOL0     H44839   2.841   2.915   0.529 -2.2563  0.5974  0.9869
  340MOL0     H44840   2.830   2.674   0.366  0.8626  0.0157 -2.1017
  340MOL0     H44841   2.877   2.699   0.533 -0.3359 -2.2520 -1.0343
  340MOL0     H44842   3.097   2.960   0.254  1.2006 -0.8799  0.9990
  340MOL0     H44843   3.161   2.974   0.031 -0.2016  0.0686 -0.4390
  340MOL0     H44844   3.211   2.824  -0.434 -0.9498 -0.4846  3.7816
  340MOL0     H44845   3.294   2.753  -0.658 -0.7743  1.6977  0.7628
  340MOL0     H44846   3.445   2.606  -0.800  1.3699  0.8826 -0.6992
  340MOL0     H44847   3.283   2.665  -0.865  0.8711 -0.4806 -1.5835
  340MOL0     H44848   3.261   2.463  -0.991 -1.6040  0.0702  1.8698
  340MOL0     H44849   3.411   2.402  -0.949 -0.9629  0.1513  1.8619
  340MOL0     H44850   3.532   2.611  -1.068  0.5047  1.1798 -0.5555
  340MOL0     H44851   3.369   2.669  -1.109 -1.3102 -1.6197  0.8581
  340MOL0     H44852   3.482   2.409  -1.190 -1.4650 -0.6155 -0.3104
  340MOL0     H44853   3.326   2.476  -1.242 -0.3186 -2.3463  4.4888
  340MOL0     H44854   3.589   2.589  -1.306  0.7429 -0.5418  1.0782
  340MOL0     H44855   3.421   2.644  -1.364 -0.7681 -1.0644  1.4206
  340MOL0     H44856   3.558   2.380  -1.424 -2.5886 -0.1727  1.4867
  340MOL0     H44857   3.530   2.504  -1.545 -0.2762 -2.4738 -0.5406
  340MOL0     H44858   3.286   2.459  -1.429  3.2586  1.3667 -0.1640
  340MOL0     H44859   3.333   2.410  -1.585 -1.3033 -2.5758 -0.7011
  340MOL0     H44860   3.326   2.224  -1.333  2.6843 -0.8699  0.2202
  340MOL0     H44861   3.409   2.186  -1.485 -1.6624 -0.3280 -1.5363
  340MOL0     H44862   3.203   2.350  -0.589  3.0283  0.2569 -2.3105
  340MOL0     H44863   3.149   2.409  -0.341  2.4569 -1.5593  0.8050
  340MOL0     H44864   3.053   2.560  -0.032  1.9510 -0.1598  0.1274
  340MOL0     H44865   3.001   2.544   0.206  2.5059 -1.8474 -2.1136
  340MOL0     H44866   1.208   2.937   0.636  1.9068 -0.5176  0.6329
  340MOL0     H44867   0.952   2.976   0.628  0.5804 -1.5432 -1.6151
  340MOL0     H44868   0.608   3.111   0.763 -0.6360 -0.6566 -0.6125
  340MOL0     H44869   0.381   3.207   0.766 -0.6546 -0.7562 -1.3029
  340MOL0     H44870   0.063   3.309   0.953  0.4448  1.2512  0.0109
  340MOL0     H44871   0.158   3.307   0.808 -2.3994  0.5824  0.0268
  340MOL0     H44872   0.212   3.355   1.103 -0.7312 -0.4873  0.4210
  340MOL0     H44873   0.352   3.327   0.988  0.4606  2.2357 -0.9278
  340MOL0     H44874   0.143   3.561   0.971  0.7203  1.1873  0.6487
  340MOL0     H44875   0.290   3.521   0.869  3.0397 -2.9122  0.2714
  340MOL0     H44876   0.438   3.557   1.060 -1.4194 -4.2997  2.2737
  340MOL0     H44877   0.347   3.712   1.020 -0.8041  1.0146  2.7108
  340MOL0     H44878   0.238   3.692   1.407 -1.1166  0.2463 -0.5909
  340MOL0     H44879   0.277   2.934   1.080 -1.1889  0.4996 -1.3332
  340MOL0     H44880   0.496   2.866   1.107  1.3580 -0.5560 -1.4563
  341MOL0     O44881   4.877   7.164   0.710  0.2895 -0.0977 -0.0941
  341MOL0     C44882   4.946   7.262   0.666  1.1726 -0.8111  0.2929
  341MOL0     O44883   5.074   7.258   0.615 -0.0409  0.2552  0.0194
  341MOL0     C44884   5.161   7.159   0.642  0.1690 -0.7975 -0.9656
  341MOL0     C44885   5.175   7.112   0.768 -0.1934  0.4029 -0.3118
  341MOL0     C44886   5.270   7.010   0.797 -0.1608 -0.3593 -0.2219
  341MOL0     C44887   5.354   6.962   0.705 -0.6952 -0.9260  0.9211
  341MOL0     O44888   5.431   6.850   0.725 -0.2226 -0.2745 -0.1937
  341MOL0     C44889   5.581   6.856   0.711  0.9053  0.5420 -0.8940
  341MOL0     C44890   5.647   6.896   0.847 -0.2873  0.6047 -0.1519
  341MOL0     C44891   5.648   7.044   0.876 -1.0132 -0.3429  0.6587
  341MOL0     C44892   5.723   7.088   1.010 -0.1741  0.1354  0.8835
  341MOL0     C44893   5.875   7.056   0.999  0.5645  0.2482  0.7248
  341MOL0     C44894   5.965   7.164   1.070 -1.3107 -0.0399 -0.2841
  341MOL0     C44895   5.943   7.178   1.218 -0.7359 -0.3354 -0.2902
  341MOL0     C44896   6.046   7.277   1.273 -0.2157 -0.0188 -1.6739
  341MOL0     N44897   6.185   7.231   1.260 -0.8042 -0.6062  0.2415
  341MOL0     C44898   6.257   7.146   1.354  0.6230  0.4312 -0.9094
  341MOL0     C44899   6.390   7.162   1.325 -0.2433  0.9382 -0.7767
  341MOL0     C44900   6.503   7.069   1.357 -0.5819 -0.2008 -0.4703
  341MOL0     C44901   6.559   7.104   1.501  0.2417  0.0179  0.7417
  341MOL0     C44902   6.649   6.993   1.554  0.0564 -0.2289  0.8579
  341MOL0     C44903   6.692   7.014   1.707 -0.3379 -0.0993 -0.0816
  341MOL0     O44904   6.724   7.150   1.730  0.0832  0.5634  0.1743
  341MOL0     C44905   6.852   7.183   1.743 -0.2948  0.2215 -0.6105
  341MOL0     C44906   6.912   7.177   1.871  0.1674  0.6050 -0.8060
  341MOL0     C44907   7.045   7.207   1.883 -0.5211  0.2560  0.7506
  341MOL0     C44908   7.133   7.234   1.773  0.4197  0.0105  0.3967
  341MOL0     C44909   7.270   7.264   1.795 -0.0239 -0.6347 -0.3949
  341MOL0     O44910   7.329   7.193   1.891 -0.2357 -0.7218 -0.3056
  341MOL0     C44911   7.470   7.200   1.915  0.9716 -0.5830 -0.2481
  341MOL0     C44912   7.529   7.241   2.031  0.4669  1.0989  0.1708
  341MOL0     C44913   7.669   7.223   2.045  0.3728 -0.9878 -0.1155
  341MOL0     C44914   7.754   7.180   1.938  0.3228 -0.8757  0.3450
  341MOL0     O44915   7.897   7.162   1.950 -0.2490 -0.8815  0.5249
  341MOL0     C44916   7.947   7.163   2.081  0.2829  1.4248 -0.3208
  341MOL0     C44917   7.980   7.304   2.133 -0.3570  0.2133 -0.2590
  341MOL0     C44918   8.069   7.296   2.260  0.5320 -0.5431 -0.4932
  341MOL0     C44919   8.113   7.440   2.292  0.1120  0.3052  0.2117
  341MOL0     C44920   8.183   7.467   2.430 -0.1434 -0.5599 -0.0830
  341MOL0     C44921   8.339   7.440   2.413  0.2443 -0.8139  0.2548
  341MOL0     C44922   8.417   7.457   2.538 -0.4604 -0.0177  0.4783
  341MOL0     C44923   8.420   7.330   2.628  0.3664  1.0227 -0.8864
  341MOL0    Cl44924   8.259   7.303   2.707  0.4722  0.3500 -0.4546
  341MOL0     C44925   7.693   7.160   1.815 -0.0149  0.4248  0.1016
  341MOL0     C44926   7.553   7.161   1.809 -0.3322 -0.4189  0.2368
  341MOL0     O44927   7.320   7.346   1.715 -0.0424 -0.0625  0.0617
  341MOL0     C44928   7.073   7.227   1.652 -0.2050 -0.4158 -0.0791
  341MOL0     C44929   6.937   7.207   1.632  1.3614 -0.3624  0.0200
  341MOL0     N44930   6.384   7.238   1.212  0.5810 -0.4400 -0.0392
  341MOL0     N44931   6.276   7.302   1.187  0.5153 -0.2664  0.2479
  341MOL0     C44932   5.353   7.023   0.573 -1.0044  0.1991 -0.1008
  341MOL0     C44933   5.264   7.127   0.550 -0.0371  0.4363  0.3194
  341MOL0     C44934   4.871   7.401   0.654  0.2431 -1.0317  0.2520
  341MOL0     C44935   4.734   7.415   0.676  0.1374 -0.1702 -1.2511
  341MOL0     C44936   4.670   7.543   0.680 -0.0864  0.1653  0.5135
  341MOL0     C44937   4.748   7.655   0.657  0.2678 -0.1621  0.0090
  341MOL0     O44938   4.686   7.776   0.665 -0.4107  0.0092 -0.2582
  341MOL0     C44939   4.710   7.836   0.802  0.1946  0.7892  0.3000
  341MOL0     C44940   4.587   7.905   0.868 -0.5763 -0.6533 -0.0279
  341MOL0     C44941   4.474   7.807   0.892  1.0524 -0.1871 -0.0241
  341MOL0     C44942   4.373   7.854   1.006 -0.3517  0.5048  0.3470
  341MOL0     C44943   4.412   7.818   1.142 -0.7738 -0.4644 -1.3410
  341MOL0     C44944   4.440   7.806   1.260 -0.2465 -0.6407 -0.5144
  341MOL0     C44945   4.882   7.638   0.643  0.6555  0.7906  0.1344
  341MOL0     C44946   4.946   7.517   0.639  0.4302 -0.8225 -0.0694
  341MOL0     H44947   5.105   7.138   0.848  0.5766  1.1137  0.1508
  341MOL0     H44948   5.263   6.974   0.899 -1.2906  1.3234  0.3502
  341MOL0     H44949   5.617   6.924   0.634 -0.5472 -0.1733 -2.2605
  341MOL0     H44950   5.615   6.758   0.677  1.4147  0.3498  0.1387
  341MOL0     H44951   5.749   6.858   0.832 -0.5640  0.2028 -1.0678
  341MOL0     H44952   5.601   6.843   0.931  1.4443 -0.2805  0.2971
  341MOL0     H44953   5.544   7.076   0.875 -0.9141  0.1346  2.6066
  341MOL0     H44954   5.700   7.103   0.799 -1.1959  1.3798  1.7924
  341MOL0     H44955   5.700   7.195   1.003 -3.1081 -0.4342  0.4008
  341MOL0     H44956   5.673   7.049   1.099 -0.0438 -3.5500 -0.4884
  341MOL0     H44957   5.905   7.035   0.896 -1.9625 -0.1105  0.0064
  341MOL0     H44958   5.895   6.956   1.040  1.7176 -0.4362 -1.3328
  341MOL0     H44959   5.941   7.259   1.021 -0.2080 -0.5423 -1.8610
  341MOL0     H44960   6.067   7.130   1.051 -1.7397 -3.9846  3.1424
  341MOL0     H44961   5.844   7.224   1.219 -0.9517 -0.7702  0.9921
  341MOL0     H44962   5.942   7.086   1.277 -3.6709 -1.1561 -1.4251
  341MOL0     H44963   6.024   7.277   1.380  1.9104  0.2611 -1.1832
  341MOL0     H44964   6.016   7.377   1.238  0.7610  1.0889  0.4864
  341MOL0     H44965   6.222   7.082   1.434  0.6122  2.5361  0.8377
  341MOL0     H44966   6.567   7.078   1.269 -0.8424  1.1264 -0.5572
  341MOL0     H44967   6.453   6.972   1.348 -0.2416 -0.4814  0.4952
  341MOL0     H44968   6.480   7.119   1.574 -4.0633  0.4657 -3.4762
  341MOL0     H44969   6.613   7.199   1.493  0.3378 -0.0478  0.6077
  341MOL0     H44970   6.612   6.891   1.540  1.3207 -0.3892 -1.8763
  341MOL0     H44971   6.744   7.006   1.502 -0.4032  2.1714  0.5407
  341MOL0     H44972   6.774   6.947   1.736 -2.3675 -2.3396  0.8204
  341MOL0     H44973   6.609   6.980   1.769  0.0934 -2.0277 -0.5025
  341MOL0     H44974   6.868   7.154   1.967 -1.4106  2.6440 -0.9741
  341MOL0     H44975   7.092   7.206   1.981  0.8215  2.4293  0.1848
  341MOL0     H44976   7.476   7.258   2.124  2.0834  0.3229  1.2819
  341MOL0     H44977   7.705   7.239   2.146  1.2022  1.4856 -0.7222
  341MOL0     H44978   8.041   7.107   2.086 -0.9233 -0.5696  0.8775
  341MOL0     H44979   7.883   7.099   2.141  0.9462  0.8362 -0.2333
  341MOL0     H44980   7.885   7.359   2.135 -0.8853 -0.6239 -1.1796
  341MOL0     H44981   8.034   7.353   2.051  1.6886 -0.5560  0.5722
  341MOL0     H44982   8.148   7.221   2.251  1.2934  0.2734 -0.7931
  341MOL0     H44983   8.004   7.260   2.340  2.1364 -4.2246 -0.6672
  341MOL0     H44984   8.180   7.462   2.208 -4.4925  1.2330 -3.7130
  341MOL0     H44985   8.030   7.511   2.291  1.8429  2.4992  2.3372
  341MOL0     H44986   8.123   7.419   2.509 -5.1879  0.5935 -2.7798
  341MOL0     H44987   8.186   7.572   2.460  0.8786 -1.0185  1.5854
  341MOL0     H44988   8.378   7.495   2.327  0.4585  0.7124  1.2981
  341MOL0     H44989   8.353   7.337   2.378 -0.1077 -0.2118 -1.7812
  341MOL0     H44990   8.517   7.470   2.494 -0.8398 -0.8997 -0.6821
  341MOL0     H44991   8.392   7.543   2.601 -2.3733 -0.3393  0.2085
  341MOL0     H44992   8.491   7.349   2.709 -0.6137  2.9458 -0.3973
  341MOL0     H44993   8.440   7.243   2.566 -4.2334 -1.6650  0.9182
  341MOL0     H44994   7.756   7.128   1.732  0.7899 -0.5531  1.0488
  341MOL0     H44995   7.502   7.167   1.713  1.5402 -2.6528 -1.0036
  341MOL0     H44996   7.124   7.265   1.564 -1.3340 -2.0163 -1.5043
  341MOL0     H44997   6.896   7.220   1.532  0.7099  0.3027  0.3657
  341MOL0     H44998   5.430   6.985   0.505  1.1959  0.2525  2.1895
  341MOL0     H44999   5.258   7.170   0.451 -0.3041 -3.2283 -1.4184
  341MOL0     H45000   4.670   7.333   0.709 -0.0598  0.4899  0.0803
  341MOL0     H45001   4.564   7.554   0.699  0.1831  1.2248  1.4625
  341MOL0     H45002   4.791   7.908   0.785  2.3020 -1.8834 -1.9657
  341MOL0     H45003   4.743   7.755   0.868  0.2476 -0.5282 -1.2741
  341MOL0     H45004   4.620   7.941   0.965  1.6756 -5.0138  1.0964
  341MOL0     H45005   4.543   7.988   0.812  2.9831 -0.1904 -2.4472
  341MOL0     H45006   4.516   7.713   0.929  0.7214 -1.5918 -2.9597
  341MOL0     H45007   4.412   7.801   0.802 -1.4747  1.2229  1.5048
  341MOL0     H45008   4.369   7.964   1.009  1.3736  0.5893  0.6798
  341MOL0     H45009   4.273   7.811   0.994  0.4088 -1.2480  0.0305
  341MOL0     H45010   4.474   7.811   1.361  1.4468  1.2508 -1.1229
  341MOL0     H45011   4.940   7.728   0.624 -0.7164  2.4034  2.9208
  341MOL0     H45012   5.052   7.530   0.623 -0.1215  2.9792 -1.6533
  342MOL0     O45013   0.748   3.311   1.775  0.4360  0.9284  0.3220
  342MOL0     C45014   0.705   3.274   1.665 -0.2573 -0.2322  0.6264
  342MOL0     O45015   0.584   3.304   1.610 -0.1659  0.0046 -0.3656
  342MOL0     C45016   0.510   3.399   1.675 -0.4406 -0.1890  0.0265
  342MOL0     C45017   0.500   3.529   1.616  0.1423 -1.1467  0.2864
  342MOL0     C45018   0.418   3.627   1.685 -0.3448  1.2071  0.5153
  342MOL0     C45019   0.363   3.592   1.809 -0.2023 -0.4388 -0.1186
  342MOL0     O45020   0.284   3.679   1.888 -0.7161  0.3471  1.1435
  342MOL0     C45021   0.276   3.826   1.864  0.0210 -0.2581  0.4247
  342MOL0     C45022   0.206   3.882   1.996 -0.0135 -0.7045 -0.3855
  342MOL0     C45023   0.304   3.979   2.073 -0.0888 -0.1064 -0.4214
  342MOL0     C45024   0.245   4.065   2.178  0.4762 -0.2622  0.8610
  342MOL0     C45025   0.348   4.176   2.235  0.5270  0.7645  0.5569
  342MOL0     C45026   0.288   4.248   2.352 -0.0353 -0.6256 -0.3034
  342MOL0     C45027   0.377   4.367   2.381 -0.0597  0.4818  0.2780
  342MOL0     C45028   0.514   4.325   2.439  0.1775  0.3471  0.1181
  342MOL0     N45029   0.520   4.227   2.547  0.3658  0.4580 -0.5598
  342MOL0     C45030   0.446   4.234   2.664 -0.0130  0.3639  0.3375
  342MOL0     C45031   0.487   4.133   2.743 -0.5411 -0.0286 -1.1892
  342MOL0     C45032   0.455   4.131   2.900 -0.6136  0.0017  0.2223
  342MOL0     C45033   0.307   4.160   2.935 -0.7005 -0.0980  0.9953
  342MOL0     C45034   0.293   4.178   3.088  0.0295 -0.5874 -0.7325
  342MOL0     C45035   0.143   4.168   3.128  0.1179 -0.1079 -0.8572
  342MOL0     O45036   0.059   4.259   3.058 -0.6652  0.5202 -0.0216
  342MOL0     C45037  -0.079   4.270   3.068  0.7572  0.8772  0.2971
  342MOL0     C45038  -0.135   4.351   2.969 -0.1095 -0.2126  0.4206
  342MOL0     C45039  -0.282   4.358   2.955  0.2191  0.4184  0.4065
  342MOL0     C45040  -0.363   4.285   3.046  0.7546  0.1086  0.6685
  342MOL0     C45041  -0.510   4.280   3.034 -0.8157 -0.2880  0.3449
  342MOL0     O45042  -0.572   4.279   2.926  0.3106  0.4679  0.1677
  342MOL0     C45043  -0.709   4.284   2.919  0.4969 -0.3788  0.9442
  342MOL0     C45044  -0.796   4.383   2.969 -0.2512  0.4994  0.3998
  342MOL0     C45045  -0.934   4.361   2.956  0.5593  0.1481  0.6236
  342MOL0     C45046  -0.992   4.256   2.887  0.4535  0.6415 -0.8013
  342MOL0     O45047  -1.125   4.227   2.887  0.4013 -0.1457 -0.0775
  342MOL0     C45048  -1.169   4.136   2.992 -0.2220  0.1960 -0.4408
  342MOL0     C45049  -1.311   4.091   2.968  0.4504  0.7802 -0.5394
  342MOL0     C45050  -1.351   4.013   2.842  0.0978  0.7455  0.2566
  342MOL0     C45051  -1.478   3.917   2.876 -0.0856 -0.4145  0.0136
  342MOL0     C45052  -1.517   3.846   2.750  0.2462 -0.6338 -0.2437
  342MOL0     C45053  -1.627   3.733   2.779  0.2561 -0.1985  0.2858
  342MOL0     C45054  -1.673   3.679   2.644  0.1437 -0.0981  0.1686
  342MOL0     C45055  -1.771   3.566   2.666  0.5782 -0.2511  0.2062
  342MOL0    Cl45056  -1.932   3.623   2.731  0.2750  0.2780  0.1924
  342MOL0     C45057  -0.904   4.163   2.835  0.1926  0.5442 -0.0468
  342MOL0     C45058  -0.762   4.179   2.840 -0.4906  0.5074 -0.6665
  342MOL0     O45059  -0.568   4.266   3.145 -0.0444  0.1911 -0.1286
  342MOL0     C45060  -0.296   4.221   3.148 -0.3506 -0.4277 -0.1694
  342MOL0     C45061  -0.158   4.207   3.161  0.0799 -0.2601  0.4975
  342MOL0     N45062   0.586   4.062   2.679  0.5898 -0.1558  0.3826
  342MOL0     N45063   0.602   4.114   2.561  0.1381 -0.8426  0.4223
  342MOL0     C45064   0.375   3.465   1.859  0.0463 -0.2756 -0.8118
  342MOL0     C45065   0.445   3.362   1.785  0.9890 -0.9369 -0.0263
  342MOL0     C45066   0.813   3.224   1.577 -0.3391 -0.4407  0.1389
  342MOL0     C45067   0.953   3.207   1.620 -0.4042  1.6314 -0.0664
  342MOL0     C45068   1.034   3.131   1.538 -0.0887 -0.1589 -0.2548
  342MOL0     C45069   1.002   3.087   1.406  0.1896  0.5668  0.0214
  342MOL0     O45070   1.098   3.027   1.331 -0.2370  0.3323  0.3341
  342MOL0     C45071   1.084   3.021   1.192 -0.2586  0.1732 -0.4196
  342MOL0     C45072   1.142   3.151   1.126 -0.9548 -0.2125 -0.6233
  342MOL0     C45073   1.290   3.156   1.177  0.0787 -0.6080 -0.6935
  342MOL0     C45074   1.360   3.267   1.096  0.1785 -0.8720  0.3993
  342MOL0     C45075   1.376   3.230   0.952 -0.3448 -0.5402  0.3176
  342MOL0     C45076   1.391   3.173   0.845 -0.1481  0.3763 -0.4156
  342MOL0     C45077   0.874   3.116   1.372 -0.1135  0.3959 -0.4968
  342MOL0     C45078   0.784   3.182   1.449 -0.4168 -0.1230  0.6110
  342MOL0     H45079   0.541   3.556   1.519  0.3525  1.4001  0.9994
  342MOL0     H45080   0.409   3.730   1.653 -1.4520  0.7569 -0.6979
  342MOL0     H45081   0.229   3.848   1.768  0.4453 -0.3805  0.1881
  342MOL0     H45082   0.366   3.887   1.858  0.2163 -0.5777  0.0937
  342MOL0     H45083   0.164   3.808   2.064 -0.1090  0.6136  1.0687
  342MOL0     H45084   0.114   3.931   1.961  0.1745 -1.4950 -2.1086
  342MOL0     H45085   0.346   4.041   1.994  2.8286  1.5812  2.2137
  342MOL0     H45086   0.389   3.932   2.123  2.5365  2.6782 -1.9592
  342MOL0     H45087   0.163   4.113   2.124  0.2364 -1.9593 -0.3639
  342MOL0     H45088   0.190   4.014   2.258 -1.0641  1.1864  0.7798
  342MOL0     H45089   0.404   4.235   2.162 -0.2048  0.1950 -0.4923
  342MOL0     H45090   0.426   4.114   2.280  0.6311 -0.9457 -1.7727
  342MOL0     H45091   0.269   4.183   2.438  1.8288 -0.2613  0.4485
  342MOL0     H45092   0.190   4.286   2.325 -1.9216 -3.2542  2.1486
  342MOL0     H45093   0.392   4.422   2.288 -1.1330  1.6383  0.7638
  342MOL0     H45094   0.337   4.442   2.450 -2.7094 -0.6826  0.1360
  342MOL0     H45095   0.558   4.418   2.476  2.9202 -1.4131  1.6903
  342MOL0     H45096   0.581   4.293   2.359  0.6047  1.5694 -0.0261
  342MOL0     H45097   0.381   4.318   2.683  0.8128  1.1208 -0.1479
  342MOL0     H45098   0.519   4.210   2.939  0.5019 -1.2157  0.9143
  342MOL0     H45099   0.474   4.034   2.945 -3.1449 -0.5902  0.1826
  342MOL0     H45100   0.247   4.074   2.904 -0.5144 -0.0785  0.5737
  342MOL0     H45101   0.284   4.256   2.889  1.7628 -1.0328 -2.5991
  342MOL0     H45102   0.353   4.117   3.156  0.6277  0.3143 -0.4209
  342MOL0     H45103   0.321   4.278   3.124  1.1843 -1.0760 -0.2345
  342MOL0     H45104   0.152   4.180   3.237 -1.0847 -1.0659 -0.6392
  342MOL0     H45105   0.100   4.069   3.114 -0.8946 -0.1377  1.7459
  342MOL0     H45106  -0.065   4.409   2.909  0.6839 -1.1158  0.4547
  342MOL0     H45107  -0.325   4.408   2.868  1.2975  2.6117  1.0430
  342MOL0     H45108  -0.757   4.468   3.025 -0.4899  2.4667 -2.1951
  342MOL0     H45109  -1.000   4.422   3.017 -0.4019 -0.6098  0.3638
  342MOL0     H45110  -1.160   4.186   3.089  0.1542 -0.7248  0.0140
  342MOL0     H45111  -1.106   4.047   3.002  0.7459  0.8436 -0.5388
  342MOL0     H45112  -1.391   4.164   2.981  1.4026  1.9295 -0.9635
  342MOL0     H45113  -1.327   4.015   3.046  1.7180  0.5486 -0.4771
  342MOL0     H45114  -1.269   3.961   2.791 -0.4649  0.5523 -0.4644
  342MOL0     H45115  -1.392   4.083   2.768  0.2838 -0.3903 -0.9661
  342MOL0     H45116  -1.459   3.828   2.937 -0.6065 -0.1093  0.6345
  342MOL0     H45117  -1.564   3.970   2.917  2.0220  0.4627  3.7768
  342MOL0     H45118  -1.433   3.790   2.711  1.1801  0.8114 -0.3846
  342MOL0     H45119  -1.558   3.916   2.676  1.9898 -0.2302 -0.8625
  342MOL0     H45120  -1.710   3.766   2.841 -0.6088 -0.8189 -0.5127
  342MOL0     H45121  -1.584   3.649   2.834  0.5456 -0.0065  0.3505
  342MOL0     H45122  -1.714   3.756   2.578  1.5637  1.1487  0.6665
  342MOL0     H45123  -1.599   3.631   2.579 -1.6876 -3.9608  0.6659
  342MOL0     H45124  -1.740   3.488   2.735 -1.0606 -1.9071 -0.8339
  342MOL0     H45125  -1.791   3.514   2.572 -2.0212 -1.9715  1.6121
  342MOL0     H45126  -0.928   4.070   2.784  1.1966  0.6537 -0.7379
  342MOL0     H45127  -0.693   4.107   2.797 -1.2137  0.2128 -1.3525
  342MOL0     H45128  -0.337   4.163   3.229  1.5263 -1.0602  0.3841
  342MOL0     H45129  -0.109   4.144   3.234  1.3277 -1.5904 -1.4026
  342MOL0     H45130   0.327   3.432   1.951  3.1139 -2.4094  0.1709
  342MOL0     H45131   0.446   3.258   1.818  1.1780 -1.0293 -0.3125
  342MOL0     H45132   0.998   3.244   1.712  1.0508 -0.0611 -0.0303
  342MOL0     H45133   1.136   3.125   1.575 -0.2633 -0.9602  0.1253
  342MOL0     H45134   0.980   3.008   1.158 -0.3126  0.4769 -0.3682
  342MOL0     H45135   1.146   2.932   1.178  1.6928  0.5151  4.2002
  342MOL0     H45136   1.137   3.138   1.017 -2.0693  2.2160 -0.9502
  342MOL0     H45137   1.083   3.240   1.150 -0.1733 -0.0112  0.6059
  342MOL0     H45138   1.353   3.067   1.166 -0.7120 -1.8863  3.2909
  342MOL0     H45139   1.294   3.190   1.281  2.0631 -2.1125 -0.2220
  342MOL0     H45140   1.312   3.364   1.111 -0.2829 -0.7381 -1.6513
  342MOL0     H45141   1.458   3.272   1.146 -0.0584 -0.4789  0.8372
  342MOL0     H45142   1.390   3.114   0.756 -1.3915 -1.5416  0.7849
  342MOL0     H45143   0.838   3.091   1.273  0.8022 -0.0898 -0.7194
  342MOL0     H45144   0.684   3.182   1.406 -0.2255  2.2019  0.0087
  343MOL0     O45145   1.129   2.323   9.462 -0.4172  0.8117  0.3619
  343MOL0     C45146   1.050   2.231   9.472 -0.6416  0.7074  0.0302
  343MOL0     O45147   1.003   2.151   9.368 -0.0739  0.1774  0.0886
  343MOL0     C45148   1.057   2.164   9.239 -0.4906  0.2908 -0.1345
  343MOL0     C45149   0.979   2.217   9.141  0.8074  0.2930  0.8409
  343MOL0     C45150   1.022   2.217   9.004  0.1223 -0.0630 -0.0772
  343MOL0     C45151   1.159   2.189   8.975  0.0977  0.1551  0.3649
  343MOL0     O45152   1.201   2.195   8.842  0.7090  0.5288 -0.4537
  343MOL0     C45153   1.332   2.254   8.825 -1.0625  0.0958  0.1124
  343MOL0     C45154   1.411   2.141   8.755 -0.1377  0.2705 -0.7333
  343MOL0     C45155   1.367   2.125   8.608 -0.0062 -0.3293 -0.4107
  343MOL0     C45156   1.383   1.978   8.569  0.4254  0.9413 -0.2498
  343MOL0     C45157   1.325   1.955   8.430  1.2302 -0.3211 -0.4590
  343MOL0     C45158   1.370   1.814   8.376  0.5796 -0.3099  0.6596
  343MOL0     C45159   1.309   1.787   8.239 -0.1580  0.0613 -0.0857
  343MOL0     C45160   1.333   1.634   8.208  0.3223  0.5722  0.1697
  343MOL0     N45161   1.455   1.576   8.263  0.2155 -0.1130 -0.3492
  343MOL0     C45162   1.580   1.582   8.202 -1.2934 -0.2019  0.4783
  343MOL0     C45163   1.664   1.496   8.265  0.0466 -0.3690  0.0571
  343MOL0     C45164   1.806   1.473   8.240 -0.2881  0.2958 -0.6589
  343MOL0     C45165   1.888   1.572   8.324 -0.3555 -0.4615 -0.6236
  343MOL0     C45166   2.039   1.554   8.307 -0.7980  0.0916 -0.5816
  343MOL0     C45167   2.115   1.661   8.398  0.0849 -0.3672  0.5928
  343MOL0     O45168   2.084   1.793   8.362  0.5465 -0.4055  0.2994
  343MOL0     C45169   2.145   1.895   8.420  0.8669  0.9879  1.0361
  343MOL0     C45170   2.096   2.024   8.383  0.8301  0.4120 -0.7313
  343MOL0     C45171   2.137   2.140   8.448 -0.2938  0.0203  0.0213
  343MOL0     C45172   2.246   2.128   8.533 -0.3061 -0.3883  0.7373
  343MOL0     C45173   2.284   2.259   8.607  0.3772  0.8515 -0.2195
  343MOL0     O45174   2.206   2.371   8.587  0.7125 -0.1008 -0.0572
  343MOL0     C45175   2.247   2.487   8.645 -0.1635 -1.3067  0.5390
  343MOL0     C45176   2.377   2.534   8.633  0.7729 -0.0864  0.2513
  343MOL0     C45177   2.414   2.639   8.709  0.0838  0.2856  0.2773
  343MOL0     C45178   2.321   2.718   8.776 -0.3184  0.4290 -0.7744
  343MOL0     O45179   2.373   2.837   8.831 -0.0765 -0.0400  0.1057
  343MOL0     C45180   2.284   2.917   8.917 -0.3148 -0.8070  0.3012
  343MOL0     C45181   2.353   3.046   8.963 -0.5354  0.4208 -0.3530
  343MOL0     C45182   2.401   3.145   8.856 -0.3974 -0.0916  0.3847
  343MOL0     C45183   2.290   3.202   8.771  0.3868 -0.6198 -0.0995
  343MOL0     C45184   2.255   3.111   8.652 -0.0274 -0.0137  0.2088
  343MOL0     C45185   2.320   3.151   8.521  0.2912 -0.2754 -0.1227
  343MOL0     C45186   2.290   3.039   8.418 -0.2463 -0.4253  1.0169
  343MOL0     C45187   2.402   2.943   8.430  0.0546  0.6788  0.1490
  343MOL0    Cl45188   2.555   3.011   8.361 -0.2354  0.2351  0.4073
  343MOL0     C45189   2.191   2.680   8.778 -0.3027 -0.3074 -1.4196
  343MOL0     C45190   2.151   2.563   8.712 -0.8434  0.1895 -0.7558
  343MOL0     O45191   2.375   2.244   8.685 -0.2110  0.1016  0.1217
  343MOL0     C45192   2.313   2.005   8.553 -0.5395 -0.9773 -0.2932
  343MOL0     C45193   2.256   1.887   8.501  0.2946  0.0362 -0.0753
  343MOL0     N45194   1.585   1.439   8.359  0.4667 -0.6621  0.2063
  343MOL0     N45195   1.463   1.474   8.354 -0.4729 -0.1079 -0.3690
  343MOL0     C45196   1.232   2.129   9.076 -0.0336 -0.2904  0.1091
  343MOL0     C45197   1.189   2.120   9.204 -0.1301 -0.0376 -0.6591
  343MOL0     C45198   0.981   2.233   9.599  0.7016  0.3777 -0.3296
  343MOL0     C45199   0.851   2.177   9.602  1.1482 -1.1303 -0.0339
  343MOL0     C45200   0.779   2.167   9.727  0.1442 -1.0337 -0.1110
  343MOL0     C45201   0.835   2.212   9.848 -0.4720  0.2020 -0.6684
  343MOL0     O45202   0.764   2.210   9.969 -0.4089  0.4997 -0.9316
  343MOL0     C45203   0.677   2.100  10.005  0.1385 -0.2911 -0.5265
  343MOL0     C45204   0.547   2.171  10.047  0.4654 -0.2665  0.5959
  343MOL0     C45205   0.428   2.090   9.979  1.2299  0.0382 -0.0041
  343MOL0     C45206   0.311   2.064  10.075  0.0829 -0.2720  0.0536
  343MOL0     C45207   0.338   1.938  10.153 -0.2120  0.6933  0.3407
  343MOL0     C45208   0.362   1.841  10.221  0.7477  0.2318  0.0062
  343MOL0     C45209   0.959   2.278   9.844 -0.2365 -0.5071  0.6110
  343MOL0     C45210   1.030   2.288   9.720  0.0920  0.0761  1.0477
  343MOL0     H45211   0.878   2.247   9.169  1.2233  0.4989  2.1801
  343MOL0     H45212   0.952   2.252   8.928  2.3464  2.1615 -1.2715
  343MOL0     H45213   1.372   2.281   8.924 -2.8378  0.8242  0.6705
  343MOL0     H45214   1.331   2.335   8.752  0.5372  1.0800  1.1075
  343MOL0     H45215   1.390   2.046   8.806  0.5221  1.0804  1.1445
  343MOL0     H45216   1.520   2.152   8.760 -0.1807  0.2466  1.6555
  343MOL0     H45217   1.426   2.193   8.546 -0.1661 -1.8269 -2.3204
  343MOL0     H45218   1.260   2.148   8.601 -0.6191 -1.9985  2.2731
  343MOL0     H45219   1.487   1.947   8.576  0.6469  1.8924  0.9557
  343MOL0     H45220   1.331   1.913   8.639  3.1716 -0.7746  0.3318
  343MOL0     H45221   1.345   2.034   8.357 -0.2645  0.2812 -0.2374
  343MOL0     H45222   1.216   1.962   8.439  1.2570  0.6422 -0.8666
  343MOL0     H45223   1.335   1.740   8.449 -0.9308  0.5872  0.8875
  343MOL0     H45224   1.478   1.801   8.368  0.3716 -1.3893 -0.8092
  343MOL0     H45225   1.208   1.828   8.236  0.7693  2.7291  1.6928
  343MOL0     H45226   1.368   1.836   8.161  2.5805  0.4191  2.0580
  343MOL0     H45227   1.326   1.609   8.102 -3.2017 -1.0537  0.6532
  343MOL0     H45228   1.252   1.575   8.253  0.6903 -0.9558 -1.1056
  343MOL0     H45229   1.609   1.650   8.122 -0.1462 -0.9417  0.2331
  343MOL0     H45230   1.834   1.499   8.138 -0.9191  1.5209 -0.5261
  343MOL0     H45231   1.842   1.372   8.263  0.7916  0.8730  0.2958
  343MOL0     H45232   1.869   1.565   8.431  0.2842  1.7332 -0.3302
  343MOL0     H45233   1.873   1.677   8.296 -0.6782 -0.5145 -0.6532
  343MOL0     H45234   2.061   1.451   8.335  1.6408  0.8130  0.3669
  343MOL0     H45235   2.072   1.574   8.204 -1.2340 -2.6858 -1.3309
  343MOL0     H45236   2.223   1.648   8.384 -0.2830 -2.3645 -0.9097
  343MOL0     H45237   2.089   1.645   8.503 -1.5569 -2.6823 -0.0714
  343MOL0     H45238   2.015   2.021   8.311 -0.6856  0.6290  0.8954
  343MOL0     H45239   2.085   2.236   8.445 -2.1526 -0.8261  2.0989
  343MOL0     H45240   2.456   2.478   8.586  0.4512  1.6263 -2.5139
  343MOL0     H45241   2.517   2.673   8.716  0.6847 -1.3044 -0.3338
  343MOL0     H45242   2.260   2.862   9.008  0.8606 -1.6458  0.1204
  343MOL0     H45243   2.189   2.938   8.867  0.9583  2.5909 -1.0114
  343MOL0     H45244   2.443   3.024   9.022 -1.7595 -1.5332  0.9007
  343MOL0     H45245   2.286   3.101   9.029  2.3101  0.4141  2.8291
  343MOL0     H45246   2.483   3.107   8.794 -2.1567  1.7589 -3.4340
  343MOL0     H45247   2.429   3.232   8.916  5.6466 -2.0153  1.1213
  343MOL0     H45248   2.196   3.221   8.824 -0.1521 -3.0276 -0.0607
  343MOL0     H45249   2.318   3.301   8.734 -0.0700 -0.7239 -0.7464
  343MOL0     H45250   2.147   3.122   8.638  0.2442  0.3259 -2.0223
  343MOL0     H45251   2.284   3.009   8.679  0.2922  0.7353  3.0201
  343MOL0     H45252   2.426   3.176   8.530 -0.0036  1.1741 -0.4498
  343MOL0     H45253   2.264   3.242   8.499 -0.2803 -0.1844  1.5782
  343MOL0     H45254   2.186   3.007   8.429 -1.1935  1.9732 -0.2511
  343MOL0     H45255   2.293   3.087   8.320  1.4952  0.5175  1.4704
  343MOL0     H45256   2.368   2.852   8.380 -1.1557  0.2043  1.7377
  343MOL0     H45257   2.406   2.910   8.535  0.1899 -2.8780 -0.8652
  343MOL0     H45258   2.113   2.734   8.830 -0.9470 -2.2159 -0.2854
  343MOL0     H45259   2.045   2.537   8.710 -1.0244  0.9535 -1.4647
  343MOL0     H45260   2.393   2.003   8.627  0.6101 -1.3511 -1.4910
  343MOL0     H45261   2.298   1.790   8.524  0.2789  0.3734  1.4845
  343MOL0     H45262   1.329   2.094   9.044 -0.2470 -0.1892 -0.6615
  343MOL0     H45263   1.260   2.088   9.279  0.4336  0.5462 -0.9340
  343MOL0     H45264   0.794   2.146   9.516 -0.8032  0.4184  0.6056
  343MOL0     H45265   0.683   2.116   9.733 -1.0302  1.2000  1.5221
  343MOL0     H45266   0.715   2.037  10.086 -4.2543 -1.1614  1.1125
  343MOL0     H45267   0.666   2.029   9.923 -1.4731 -0.5313 -0.1320
  343MOL0     H45268   0.531   2.168  10.155 -3.5626  0.6887  0.2058
  343MOL0     H45269   0.545   2.274  10.009 -0.2691 -0.4602  0.0849
  343MOL0     H45270   0.470   1.995   9.944  1.3152  0.6080 -1.4858
  343MOL0     H45271   0.387   2.155   9.901  0.5040 -1.2145 -0.7094
  343MOL0     H45272   0.288   2.151  10.137 -0.1492  0.2053 -0.6911
  343MOL0     H45273   0.221   2.041  10.017  0.2181 -1.8212  0.4116
  343MOL0     H45274   0.383   1.758  10.286  0.4391  0.0321 -0.1442
  343MOL0     H45275   0.993   2.318   9.939 -4.1072 -2.2167  2.9602
  343MOL0     H45276   1.122   2.342   9.701 -0.1428 -0.3356 -1.6124
  344MOL0     O45277   0.397   2.037   6.465  0.6532 -0.8339 -0.0805
  344MOL0     C45278   0.445   2.136   6.516  0.1101  0.1145 -1.4392
  344MOL0     O45279   0.558   2.136   6.585 -0.1124 -0.1436  0.0300
  344MOL0     C45280   0.623   2.024   6.618 -0.9881  0.1448 -0.2380
  344MOL0     C45281   0.702   1.966   6.521 -0.1930  0.1858 -0.0064
  344MOL0     C45282   0.760   1.840   6.553  0.2898 -0.5312  0.3817
  344MOL0     C45283   0.769   1.795   6.689  0.1414  0.1389 -1.2011
  344MOL0     O45284   0.856   1.692   6.732  0.2497  0.0848  0.6596
  344MOL0     C45285   0.933   1.638   6.624 -1.2646  0.1545  0.9263
  344MOL0     C45286   1.017   1.513   6.661  0.5043  0.3474 -0.3116
  344MOL0     C45287   0.925   1.390   6.686  0.0785  1.0448 -0.2307
  344MOL0     C45288   1.011   1.269   6.733 -0.1642 -0.6007  0.8984
  344MOL0     C45289   1.067   1.187   6.608  0.5210 -0.0385  0.4466
  344MOL0     C45290   1.214   1.161   6.628  0.1895 -0.2064 -0.6261
  344MOL0     C45291   1.299   1.287   6.615  0.2838 -0.8864 -0.2141
  344MOL0     C45292   1.442   1.252   6.624  0.4294  0.1770 -0.2142
  344MOL0     N45293   1.525   1.338   6.539  0.7150  0.1948 -0.5419
  344MOL0     C45294   1.548   1.468   6.566  0.1440  0.2680 -0.5594
  344MOL0     C45295   1.595   1.515   6.447  0.1968  0.2714  0.2848
  344MOL0     C45296   1.621   1.658   6.416 -0.2223  0.7633 -0.0845
  344MOL0     C45297   1.502   1.756   6.441  0.1935  0.3985 -0.1677
  344MOL0     C45298   1.391   1.743   6.335 -0.7947  0.6400 -0.7947
  344MOL0     C45299   1.286   1.856   6.344  0.6830 -0.8538  0.2419
  344MOL0     O45300   1.216   1.857   6.475  0.2446  0.5094 -0.0302
  344MOL0     C45301   1.126   1.960   6.498  0.4645  0.0777  0.1921
  344MOL0     C45302   1.076   1.978   6.622 -0.3774 -0.9530 -0.6099
  344MOL0     C45303   1.002   2.090   6.659  0.5854 -0.4119  0.3226
  344MOL0     C45304   0.977   2.195   6.564 -0.8338  0.4217 -0.0545
  344MOL0     C45305   0.904   2.321   6.597  0.0950 -0.1232 -1.0982
  344MOL0     O45306   0.904   2.346   6.731 -0.3825 -0.4859  0.7332
  344MOL0     C45307   0.831   2.450   6.788  0.5561  0.2909 -0.1172
  344MOL0     C45308   0.862   2.461   6.920 -0.5627  0.5191  0.3834
  344MOL0     C45309   0.819   2.582   6.986  0.2730  0.0739  0.2222
  344MOL0     C45310   0.745   2.683   6.929 -0.5144 -0.1859  0.4560
  344MOL0     O45311   0.726   2.789   7.004 -0.2700 -0.0133 -0.9079
  344MOL0     C45312   0.661   2.893   6.936  0.7295 -0.7913 -0.6153
  344MOL0     C45313   0.679   3.014   7.031  0.1426  0.2299  0.0333
  344MOL0     C45314   0.626   3.140   6.949 -0.2242  0.2147  0.0253
  344MOL0     C45315   0.480   3.159   6.929  0.8221  0.4535  0.4080
  344MOL0     C45316   0.447   3.285   6.868  0.5352 -0.5583 -0.4024
  344MOL0     C45317   0.316   3.283   6.788  0.7316 -0.3825  0.5117
  344MOL0     C45318   0.296   3.413   6.714 -1.0583 -0.4325  0.6011
  344MOL0     C45319   0.153   3.432   6.665  0.3855  0.2721  0.1942
  344MOL0    Cl45320   0.041   3.439   6.810 -0.4156  0.2112 -0.4964
  344MOL0     C45321   0.689   2.651   6.803 -0.7557  0.5560 -0.0784
  344MOL0     C45322   0.736   2.539   6.731 -0.2477  0.3533 -0.6301
  344MOL0     O45323   0.896   2.410   6.516  0.2193 -0.0280 -0.5291
  344MOL0     C45324   1.017   2.166   6.427  0.3578  0.4437  0.1492
  344MOL0     C45325   1.094   2.055   6.392 -0.6346 -0.1239  0.1425
  344MOL0     N45326   1.598   1.420   6.348  0.8598  1.1391 -0.0472
  344MOL0     N45327   1.564   1.309   6.409  0.8470  0.1624 -0.3493
  344MOL0     C45328   0.696   1.866   6.784  0.8757  0.7769  0.8939
  344MOL0     C45329   0.607   1.972   6.736  0.2329  0.0833 -0.2334
  344MOL0     C45330   0.370   2.258   6.532 -0.3035 -0.4941 -0.2464
  344MOL0     C45331   0.432   2.370   6.591 -0.6022 -0.2674  0.2198
  344MOL0     C45332   0.365   2.492   6.599  0.0606 -0.0137 -0.3903
  344MOL0     C45333   0.229   2.504   6.560  0.4536  0.7418 -0.9176
  344MOL0     O45334   0.154   2.617   6.567 -0.6837 -0.1487  0.2594
  344MOL0     C45335   0.224   2.731   6.634  0.6417  1.0010  1.0300
  344MOL0     C45336   0.134   2.847   6.652  0.7538 -0.2167  0.1828
  344MOL0     C45337   0.175   2.965   6.561  0.3629  0.5067 -0.7134
  344MOL0     C45338   0.086   3.092   6.561  0.2054  0.9134 -0.7156
  344MOL0     C45339  -0.038   3.066   6.488  1.3274  0.8083  0.6779
  344MOL0     C45340  -0.139   3.058   6.423 -0.0516  0.0583 -0.2668
  344MOL0     C45341   0.170   2.399   6.488  0.6710 -0.7311 -0.2066
  344MOL0     C45342   0.242   2.275   6.477  0.1777  0.0031 -0.8893
  344MOL0     H45343   0.716   2.013   6.424 -0.3086 -0.7923 -0.5103
  344MOL0     H45344   0.799   1.789   6.465 -0.6345 -0.0203 -0.3376
  344MOL0     H45345   0.996   1.714   6.575 -1.2704 -1.0708 -1.0829
  344MOL0     H45346   0.877   1.591   6.543  0.2888 -2.2222  1.1404
  344MOL0     H45347   1.072   1.540   6.752 -0.4131  2.6093 -0.3563
  344MOL0     H45348   1.098   1.490   6.591  0.5575  0.0128 -0.1444
  344MOL0     H45349   0.867   1.370   6.595  0.5448 -1.2193 -0.0819
  344MOL0     H45350   0.857   1.405   6.770 -4.1781  0.4971 -3.2519
  344MOL0     H45351   1.099   1.305   6.788  0.3801  1.3636 -1.0941
  344MOL0     H45352   0.951   1.197   6.789  0.5535 -1.6117  0.4035
  344MOL0     H45353   1.039   1.243   6.518 -1.7873 -0.0220  1.0880
  344MOL0     H45354   1.008   1.095   6.596  0.9516 -0.1641 -0.7926
  344MOL0     H45355   1.249   1.092   6.551  0.0926 -0.8911 -0.0648
  344MOL0     H45356   1.226   1.124   6.730 -1.3845 -0.3462 -0.4674
  344MOL0     H45357   1.282   1.318   6.512 -1.0709 -1.2351 -0.1149
  344MOL0     H45358   1.278   1.365   6.689 -0.1439  1.0743 -2.2999
  344MOL0     H45359   1.473   1.151   6.595  1.2752  0.7530 -1.3539
  344MOL0     H45360   1.467   1.253   6.731 -1.3023  0.4878  0.2273
  344MOL0     H45361   1.526   1.518   6.660 -1.7973  2.2346 -1.9702
  344MOL0     H45362   1.658   1.672   6.314  3.5304 -1.4690  0.7878
  344MOL0     H45363   1.700   1.700   6.479 -1.7364  3.0974  0.3780
  344MOL0     H45364   1.533   1.856   6.472 -3.3603  2.0005 -1.2526
  344MOL0     H45365   1.461   1.711   6.531  0.1741  0.2881 -0.2321
  344MOL0     H45366   1.435   1.738   6.235  1.3863 -2.8741  0.1478
  344MOL0     H45367   1.339   1.647   6.345  0.0626  0.2825  0.5161
  344MOL0     H45368   1.209   1.845   6.266  0.9695 -1.2610  0.0105
  344MOL0     H45369   1.332   1.954   6.328  0.0393 -0.6765 -0.6445
  344MOL0     H45370   1.100   1.901   6.694  3.1449 -2.5127 -3.1626
  344MOL0     H45371   0.962   2.114   6.757  2.5101 -2.3672  1.6846
  344MOL0     H45372   0.917   2.382   6.971  1.8674 -0.5759 -3.4915
  344MOL0     H45373   0.846   2.582   7.091 -1.4077 -1.4723  0.7139
  344MOL0     H45374   0.554   2.871   6.941  0.4777  0.5918  0.6892
  344MOL0     H45375   0.686   2.902   6.830 -1.3401 -0.8768 -1.1599
  344MOL0     H45376   0.785   3.027   7.056  1.0734 -2.2408 -2.1088
  344MOL0     H45377   0.630   3.004   7.128  1.9218  2.0829  1.2107
  344MOL0     H45378   0.678   3.142   6.853  1.4499 -1.4008  0.8133
  344MOL0     H45379   0.669   3.224   7.004  0.0253 -1.5219  2.6879
  344MOL0     H45380   0.452   3.072   6.870  1.3970 -1.7260  3.1248
  344MOL0     H45381   0.429   3.142   7.024 -3.5249  0.7127 -1.6578
  344MOL0     H45382   0.528   3.316   6.802  1.1762 -2.7273 -0.7299
  344MOL0     H45383   0.453   3.361   6.946  0.0932  0.4634 -1.3455
  344MOL0     H45384   0.234   3.269   6.860 -0.1258  2.0538  0.1015
  344MOL0     H45385   0.307   3.205   6.712 -2.3980 -1.7580  2.0955
  344MOL0     H45386   0.335   3.492   6.779  2.1797 -2.3155  1.2062
  344MOL0     H45387   0.354   3.421   6.622 -1.1469  0.7089  0.6312
  344MOL0     H45388   0.127   3.352   6.596 -0.6331  0.7246  0.0288
  344MOL0     H45389   0.122   3.522   6.612 -2.2208 -0.8709 -0.3951
  344MOL0     H45390   0.613   2.712   6.756 -0.0241  0.6636 -1.1603
  344MOL0     H45391   0.696   2.530   6.630 -2.8571 -0.3362  0.3586
  344MOL0     H45392   0.998   2.240   6.350  2.0028  1.4665  0.6605
  344MOL0     H45393   1.112   2.061   6.286  1.2860 -0.4523  0.4110
  344MOL0     H45394   0.701   1.824   6.883  1.2779 -4.0957 -0.9188
  344MOL0     H45395   0.544   2.012   6.814  0.7592  0.8326 -0.1818
  344MOL0     H45396   0.531   2.367   6.635 -0.1338 -0.9579 -0.8510
  344MOL0     H45397   0.427   2.575   6.631  1.3902 -1.0731 -0.1247
  344MOL0     H45398   0.319   2.760   6.589  0.9166  0.1001  1.0140
  344MOL0     H45399   0.255   2.704   6.735 -0.5550  0.1751  1.2004
  344MOL0     H45400   0.036   2.811   6.620  0.6659 -0.4733  0.7358
  344MOL0     H45401   0.137   2.875   6.758 -1.0106  2.9699 -0.4808
  344MOL0     H45402   0.190   2.932   6.458  3.6089  1.5472 -0.6781
  344MOL0     H45403   0.271   2.992   6.606  0.1582 -0.2469  0.1952
  344MOL0     H45404   0.061   3.121   6.664  0.4357  0.2334 -0.4654
  344MOL0     H45405   0.147   3.170   6.515  0.4940  0.4436 -1.1413
  344MOL0     H45406  -0.222   3.034   6.359 -0.1708  0.6076 -0.3238
  344MOL0     H45407   0.074   2.423   6.444  0.2277 -0.5464  0.8414
  344MOL0     H45408   0.214   2.181   6.430  1.4704  0.1320 -1.9960
  345MOL0     O45409   7.426   7.048   5.504 -0.0241  0.0681 -0.8206
  345MOL0     C45410   7.532   7.045   5.436  0.8723 -0.6174 -0.2489
  345MOL0     O45411   7.559   7.128   5.340 -0.1021  0.1255 -0.6291
  345MOL0     C45412   7.480   7.233   5.316 -0.9035 -0.0088 -1.4110
  345MOL0     C45413   7.454   7.261   5.189  0.0379 -0.2310  0.4201
  345MOL0     C45414   7.398   7.378   5.160  1.1567  0.3689  0.4205
  345MOL0     C45415   7.367   7.483   5.258 -0.6015  0.2030  0.3685
  345MOL0     O45416   7.318   7.606   5.219 -0.0158  0.1359  1.0168
  345MOL0     C45417   7.187   7.614   5.165 -0.8168  0.1646 -0.7730
  345MOL0     C45418   7.181   7.755   5.110 -0.4683  0.0712 -0.0093
  345MOL0     C45419   7.029   7.812   5.099 -0.2873  0.1544  0.1097
  345MOL0     C45420   6.935   7.726   5.003  0.0066 -0.3874 -0.0267
  345MOL0     C45421   6.798   7.694   5.069 -0.1967  0.4957 -0.2295
  345MOL0     C45422   6.807   7.605   5.192  0.2660 -0.2671  0.4144
  345MOL0     C45423   6.661   7.594   5.250 -0.2613  0.2664 -0.4284
  345MOL0     C45424   6.573   7.483   5.181  0.8362  0.3769 -0.3973
  345MOL0     N45425   6.633   7.351   5.224 -0.1473  0.3230  0.2117
  345MOL0     C45426   6.678   7.259   5.132  0.2682  0.5171 -0.8939
  345MOL0     C45427   6.735   7.156   5.207  0.1315 -0.3219 -0.3132
  345MOL0     C45428   6.794   7.032   5.149  1.0280 -0.1098  0.3808
  345MOL0     C45429   6.731   6.984   5.013 -0.2132  1.0516  0.4987
  345MOL0     C45430   6.788   6.842   4.981  0.2986  0.4806  0.5793
  345MOL0     C45431   6.781   6.798   4.832  0.3827 -0.3167  0.5713
  345MOL0     O45432   6.822   6.664   4.818 -1.3117  0.5617  0.1074
  345MOL0     C45433   6.886   6.642   4.698  0.4775  0.0362 -0.1825
  345MOL0     C45434   7.003   6.567   4.699  1.2100  0.3415 -0.0184
  345MOL0     C45435   7.058   6.517   4.585  0.3334  0.5626 -0.0238
  345MOL0     C45436   7.008   6.558   4.458  0.1580 -0.0100 -0.5654
  345MOL0     C45437   7.062   6.501   4.342 -0.1345  0.2301 -0.0192
  345MOL0     O45438   7.162   6.418   4.347 -0.1287 -0.6185 -0.6959
  345MOL0     C45439   7.227   6.379   4.235  0.1935  0.5615  0.4038
  345MOL0     C45440   7.363   6.410   4.229  0.5427 -0.0389  0.6797
  345MOL0     C45441   7.438   6.368   4.112 -0.2645  0.1631 -0.0629
  345MOL0     C45442   7.380   6.290   4.010 -0.1479  0.5542 -0.1539
  345MOL0     O45443   7.461   6.267   3.899 -0.9349 -0.1951  0.0349
  345MOL0     C45444   7.409   6.272   3.774 -0.2173 -1.0884 -1.0152
  345MOL0     C45445   7.509   6.327   3.672  0.2571 -0.3083  0.3158
  345MOL0     C45446   7.640   6.251   3.670  0.1728 -0.1422  0.6170
  345MOL0     C45447   7.721   6.284   3.544 -0.3215  0.6707 -0.2856
  345MOL0     C45448   7.868   6.232   3.578  0.0155 -0.0502  0.0093
  345MOL0     C45449   7.950   6.269   3.458  0.0354 -0.1199  0.0062
  345MOL0     C45450   8.100   6.231   3.465 -0.6466 -0.1044 -0.1386
  345MOL0     C45451   8.173   6.269   3.333 -0.2583 -0.1935 -0.6243
  345MOL0    Cl45452   8.321   6.189   3.367 -0.3676 -0.6102 -0.1386
  345MOL0     C45453   7.244   6.268   4.029  0.0350  0.4736 -0.0743
  345MOL0     C45454   7.171   6.300   4.141 -0.0579  0.1033 -0.0057
  345MOL0     O45455   7.022   6.549   4.243  0.5585 -0.0526 -0.6057
  345MOL0     C45456   6.900   6.643   4.458 -0.4336  0.4957 -0.8998
  345MOL0     C45457   6.842   6.684   4.578  0.3479  0.3278  0.4893
  345MOL0     N45458   6.725   7.192   5.346 -0.2088  1.0720 -0.5741
  345MOL0     N45459   6.665   7.307   5.347 -0.0390 -0.6275 -0.6751
  345MOL0     C45460   7.412   7.451   5.385  1.1231 -0.4028  0.3834
  345MOL0     C45461   7.481   7.336   5.415  0.5356 -0.1655  0.6798
  345MOL0     C45462   7.635   6.945   5.477  0.7783 -0.4563 -0.4370
  345MOL0     C45463   7.755   6.922   5.402 -0.0617  0.3580 -0.6587
  345MOL0     C45464   7.849   6.827   5.444  0.0384 -0.6707 -0.8685
  345MOL0     C45465   7.829   6.759   5.562  0.0429 -0.0890 -1.0393
  345MOL0     O45466   7.910   6.659   5.609 -0.3657  0.0101  0.1534
  345MOL0     C45467   8.049   6.686   5.621 -0.1444  0.5315  1.3436
  345MOL0     C45468   8.112   6.566   5.675  0.4766  0.7750  0.1001
  345MOL0     C45469   8.098   6.448   5.570 -0.1448  0.0868  0.5027
  345MOL0     C45470   8.126   6.469   5.417  1.0278 -0.9485 -0.3690
  345MOL0     C45471   8.260   6.458   5.384  0.0377  0.8883  0.3927
  345MOL0     C45472   8.377   6.456   5.346 -0.2980 -0.9660 -0.8685
  345MOL0     C45473   7.719   6.783   5.648 -0.7199 -0.7093 -0.6870
  345MOL0     C45474   7.625   6.880   5.605 -0.2215 -0.0400 -0.1394
  345MOL0     H45475   7.467   7.186   5.112  0.3188  0.1917  0.0537
  345MOL0     H45476   7.365   7.383   5.057 -1.5375  0.1498  1.1836
  345MOL0     H45477   7.107   7.591   5.235  0.2684  2.1024  1.2236
  345MOL0     H45478   7.170   7.545   5.082  0.9311 -0.0878 -0.9638
  345MOL0     H45479   7.226   7.773   5.013  0.0707  0.6610  0.3368
  345MOL0     H45480   7.231   7.815   5.187  0.2648 -0.7793  0.1893
  345MOL0     H45481   7.033   7.916   5.065 -2.8831  0.9793  1.9468
  345MOL0     H45482   6.987   7.807   5.200  0.0804 -0.2445  0.2458
  345MOL0     H45483   6.922   7.782   4.909  0.0719 -1.1591 -0.5054
  345MOL0     H45484   6.976   7.630   4.970  0.9039 -0.1231  0.2949
  345MOL0     H45485   6.721   7.657   5.001 -2.2349  0.6386  1.8675
  345MOL0     H45486   6.763   7.794   5.096  2.6994  1.7803 -0.8265
  345MOL0     H45487   6.870   7.657   5.264  0.3648  2.0266 -1.2048
  345MOL0     H45488   6.856   7.510   5.168  0.8546 -0.0666  0.7964
  345MOL0     H45489   6.674   7.571   5.356  1.2785 -2.7907 -1.1692
  345MOL0     H45490   6.610   7.688   5.226  0.3018  0.4340 -0.9968
  345MOL0     H45491   6.554   7.504   5.075  0.3581  0.0274 -0.3829
  345MOL0     H45492   6.475   7.491   5.228 -0.0740  0.3600 -2.1800
  345MOL0     H45493   6.666   7.248   5.025 -2.4243 -4.0229 -0.4108
  345MOL0     H45494   6.795   6.954   5.227  2.0821 -0.1993  0.2970
  345MOL0     H45495   6.900   7.051   5.131  0.6692  0.1181 -1.7030
  345MOL0     H45496   6.731   7.048   4.924 -2.7047  0.4510 -0.0089
  345MOL0     H45497   6.624   6.972   5.034  0.1385 -0.3231  1.6869
  345MOL0     H45498   6.894   6.838   5.008  0.2081  0.4139  0.9263
  345MOL0     H45499   6.733   6.771   5.044 -3.3567  1.7607 -0.8793
  345MOL0     H45500   6.847   6.866   4.778 -1.1594  1.3489  0.6749
  345MOL0     H45501   6.683   6.801   4.784  0.5228  0.1901  0.3074
  345MOL0     H45502   7.026   6.511   4.789  1.6148  1.1991  0.4250
  345MOL0     H45503   7.111   6.423   4.598 -1.5670 -0.4422  0.9200
  345MOL0     H45504   7.407   6.469   4.309  1.4290 -0.4009  0.4723
  345MOL0     H45505   7.541   6.405   4.115  0.2593 -1.2714  3.0709
  345MOL0     H45506   7.320   6.335   3.769 -0.1563 -1.0501 -1.7009
  345MOL0     H45507   7.368   6.180   3.732 -1.8996 -1.2493  0.8628
  345MOL0     H45508   7.530   6.433   3.689 -0.3087 -0.0620 -0.4689
  345MOL0     H45509   7.457   6.326   3.576  1.0786  1.2053 -0.1880
  345MOL0     H45510   7.610   6.146   3.680 -0.1282 -0.0019  1.2372
  345MOL0     H45511   7.699   6.271   3.760 -0.5900  2.4264  0.6153
  345MOL0     H45512   7.668   6.232   3.464 -1.5467  1.0620  0.2469
  345MOL0     H45513   7.728   6.390   3.521  0.5700  0.5180 -0.7664
  345MOL0     H45514   7.864   6.123   3.593 -1.9198 -0.1863 -1.1850
  345MOL0     H45515   7.914   6.274   3.668  0.9267  1.7265 -1.2389
  345MOL0     H45516   7.950   6.377   3.445  3.5081  0.0616  0.3870
  345MOL0     H45517   7.903   6.213   3.377  1.2320  0.3066 -1.0308
  345MOL0     H45518   8.142   6.294   3.544 -1.4357  0.6158 -0.2718
  345MOL0     H45519   8.107   6.124   3.486 -0.9578 -0.1821 -0.4162
  345MOL0     H45520   8.196   6.375   3.323  2.7018 -0.1084  4.0390
  345MOL0     H45521   8.119   6.227   3.247 -2.8034 -3.7919  2.3866
  345MOL0     H45522   7.174   6.213   3.967  1.1416 -0.8020 -0.2441
  345MOL0     H45523   7.067   6.268   4.140 -0.4088  1.2129 -1.2496
  345MOL0     H45524   6.860   6.673   4.362  2.5863 -1.1331 -2.8190
  345MOL0     H45525   6.753   6.745   4.565 -0.3684 -0.3076  2.0861
  345MOL0     H45526   7.391   7.532   5.454  0.5304 -0.9075  0.8066
  345MOL0     H45527   7.521   7.337   5.516 -1.2743  0.4001  1.4250
  345MOL0     H45528   7.784   6.969   5.308 -1.0886 -0.5072 -1.4392
  345MOL0     H45529   7.933   6.803   5.380 -1.2050 -4.0287 -1.3936
  345MOL0     H45530   8.062   6.764   5.697 -0.7382  1.2129  0.7581
  345MOL0     H45531   8.104   6.716   5.531 -1.2197 -1.6126 -0.1066
  345MOL0     H45532   8.218   6.595   5.673  0.6427  0.1758 -1.1941
  345MOL0     H45533   8.083   6.533   5.775  0.0481 -3.3269 -1.1706
  345MOL0     H45534   7.994   6.413   5.578 -0.1771  0.0527 -0.0667
  345MOL0     H45535   8.159   6.365   5.606 -1.1082 -0.4724  0.8816
  345MOL0     H45536   8.071   6.397   5.356  0.8400 -1.1474  0.0358
  345MOL0     H45537   8.094   6.569   5.386  1.9805 -0.5821 -0.2038
  345MOL0     H45538   8.479   6.455   5.314  0.7857 -1.6695  2.2861
  345MOL0     H45539   7.710   6.737   5.746  2.0680  0.5129  0.2310
  345MOL0     H45540   7.542   6.913   5.668 -0.1092  0.0912 -0.0571
  346MOL0     O45541   2.059   7.585   4.573  0.8111 -0.0113  0.0310
  346MOL0     C45542   2.097   7.469   4.579  1.0478  0.4697  0.2030
  346MOL0     O45543   2.075   7.371   4.486  0.7597  0.2585 -0.1539
  346MOL0     C45544   1.950   7.372   4.431  0.0599 -0.5132  0.0081
  346MOL0     C45545   1.827   7.390   4.505 -0.2794  0.5220 -0.0669
  346MOL0     C45546   1.706   7.391   4.438 -0.1222  1.0272  0.3926
  346MOL0     C45547   1.695   7.386   4.298 -0.6963 -1.1820  0.5852
  346MOL0     O45548   1.562   7.373   4.258 -0.1375 -0.0318  0.3054
  346MOL0     C45549   1.549   7.375   4.112 -0.5074  0.1822 -0.0947
  346MOL0     C45550   1.404   7.392   4.072  0.1266 -0.2268 -0.8773
  346MOL0     C45551   1.370   7.409   3.921 -0.2521  0.0158 -0.0287
  346MOL0     C45552   1.219   7.372   3.899 -0.8538  0.6977  0.1955
  346MOL0     C45553   1.195   7.223   3.861 -0.1478 -0.2543 -0.6906
  346MOL0     C45554   1.047   7.213   3.827  0.2438  0.1130 -0.1682
  346MOL0     C45555   1.012   7.078   3.767  0.3348  0.8976 -0.9218
  346MOL0     C45556   1.037   6.963   3.857  0.2827  0.3631 -0.5666
  346MOL0     N45557   0.915   6.884   3.896 -0.3639  0.1165 -0.5537
  346MOL0     C45558   0.803   6.929   3.967 -0.5751 -0.1226 -0.1715
  346MOL0     C45559   0.726   6.822   3.980  0.3502  0.4852 -0.1406
  346MOL0     C45560   0.595   6.812   4.055 -0.2073 -0.2931  0.6697
  346MOL0     C45561   0.511   6.934   4.009 -0.5282  0.7594 -1.1485
  346MOL0     C45562   0.459   6.919   3.868 -0.6312 -0.3574  0.3540
  346MOL0     C45563   0.395   7.048   3.827 -0.4107  0.8965  0.2208
  346MOL0     O45564   0.329   7.134   3.923 -0.4772  0.1272  0.3561
  346MOL0     C45565   0.200   7.111   3.961 -0.0312 -1.0959 -0.1953
  346MOL0     C45566   0.125   7.005   3.921  0.6781 -0.4354  0.1712
  346MOL0     C45567   0.000   6.989   3.970  0.2117  0.7118 -0.2389
  346MOL0     C45568  -0.048   7.086   4.068 -0.6071  0.4435 -0.2564
  346MOL0     C45569  -0.188   7.073   4.134 -0.3436 -0.4903 -0.0974
  346MOL0     O45570  -0.254   6.973   4.070 -0.3121 -0.2004  0.5672
  346MOL0     C45571  -0.389   6.979   4.034 -0.4843 -0.6590 -0.6396
  346MOL0     C45572  -0.473   7.084   4.075 -0.0206  0.2958  0.4640
  346MOL0     C45573  -0.609   7.093   4.031 -1.1371 -0.1378 -0.2036
  346MOL0     C45574  -0.655   7.001   3.931  1.4375  0.0796 -0.3428
  346MOL0     O45575  -0.786   7.025   3.894  1.0104 -0.5430  0.7952
  346MOL0     C45576  -0.822   6.967   3.772 -0.9445 -0.0418  0.6818
  346MOL0     C45577  -0.947   7.034   3.724  0.3206  0.2446 -1.6345
  346MOL0     C45578  -0.976   6.992   3.576  0.5725 -0.1955  0.1721
  346MOL0     C45579  -1.134   6.994   3.545  0.4827  0.6297  0.6147
  346MOL0     C45580  -1.209   7.110   3.606 -0.6509  0.1007 -0.3621
  346MOL0     C45581  -1.362   7.078   3.609 -1.2386 -0.7411 -0.0819
  346MOL0     C45582  -1.455   7.200   3.600 -0.2452 -0.6641 -0.9059
  346MOL0     C45583  -1.463   7.290   3.723 -0.1025 -0.2982 -0.5571
  346MOL0    Cl45584  -1.555   7.439   3.692 -0.3321  0.5749 -0.2783
  346MOL0     C45585  -0.562   6.903   3.877 -0.1886 -0.0056  0.1245
  346MOL0     C45586  -0.437   6.887   3.934  0.0908  0.1055 -0.6291
  346MOL0     O45587  -0.225   7.142   4.229  0.2517 -0.2251  0.1257
  346MOL0     C45588   0.039   7.194   4.102 -0.3076  0.5176  0.3256
  346MOL0     C45589   0.158   7.206   4.050 -0.7607  0.4267 -0.1700
  346MOL0     N45590   0.779   6.721   3.900 -0.2901 -0.4326  0.2893
  346MOL0     N45591   0.885   6.759   3.852 -0.6740  0.6876 -0.1394
  346MOL0     C45592   1.817   7.367   4.228  0.1437  0.5776 -0.5785
  346MOL0     C45593   1.942   7.360   4.288 -0.0803 -0.4949 -1.6050
  346MOL0     C45594   2.165   7.432   4.707 -1.0166 -0.1570 -0.4360
  346MOL0     C45595   2.206   7.301   4.739  0.7541 -0.6766 -0.0944
  346MOL0     C45596   2.269   7.274   4.861 -0.6645 -1.1152  0.8106
  346MOL0     C45597   2.310   7.380   4.945  0.5495 -0.3574  0.0016
  346MOL0     O45598   2.381   7.351   5.064  0.2280 -0.4406  0.7275
  346MOL0     C45599   2.520   7.317   5.050 -0.9093  0.5339  0.5747
  346MOL0     C45600   2.593   7.315   5.189  0.3364  0.7564  0.4148
  346MOL0     C45601   2.580   7.443   5.256 -0.7090 -0.5833  0.1918
  346MOL0     C45602   2.625   7.566   5.170 -0.2044  0.0492 -0.1487
  346MOL0     C45603   2.767   7.556   5.136 -0.8692 -1.2949 -0.1106
  346MOL0     C45604   2.877   7.532   5.099  0.3377  1.0965  0.7649
  346MOL0     C45605   2.267   7.508   4.920 -0.0836  0.8221  0.0460
  346MOL0     C45606   2.204   7.534   4.801  0.4570 -0.4633  0.2874
  346MOL0     H45607   1.835   7.396   4.613 -1.0678 -0.5245  0.0634
  346MOL0     H45608   1.615   7.387   4.496  0.8548 -0.4499  1.9111
  346MOL0     H45609   1.583   7.277   4.077  1.7033  0.4063  1.2609
  346MOL0     H45610   1.607   7.451   4.060  0.0311 -1.3688 -1.8792
  346MOL0     H45611   1.350   7.469   4.127  0.3525 -0.4594 -0.3244
  346MOL0     H45612   1.360   7.297   4.103 -0.2679  0.1601 -0.2262
  346MOL0     H45613   1.435   7.347   3.859  0.2315  1.5975 -1.1469
  346MOL0     H45614   1.393   7.514   3.902 -1.9185  1.4163  4.3284
  346MOL0     H45615   1.171   7.398   3.994 -0.5062  0.1287  0.5303
  346MOL0     H45616   1.185   7.430   3.813  1.5853  1.0019 -0.6284
  346MOL0     H45617   1.214   7.164   3.951 -2.1895  2.1613  1.4882
  346MOL0     H45618   1.264   7.201   3.779  0.1796 -4.4618  0.4849
  346MOL0     H45619   1.018   7.297   3.763 -0.5488  0.4236  0.5701
  346MOL0     H45620   0.974   7.227   3.908 -2.2698 -0.7442 -2.1381
  346MOL0     H45621   0.907   7.055   3.747  0.5864 -1.0688 -0.2405
  346MOL0     H45622   1.067   7.071   3.673  2.0126  1.2361 -0.0173
  346MOL0     H45623   1.079   6.983   3.956 -1.1621 -3.4405  1.0047
  346MOL0     H45624   1.115   6.897   3.819 -0.6119 -1.7028  0.9607
  346MOL0     H45625   0.793   7.026   4.014  1.1425  0.8476 -1.6645
  346MOL0     H45626   0.604   6.807   4.164 -2.4259 -1.3460  0.8576
  346MOL0     H45627   0.543   6.719   4.031 -0.7587  0.1045  0.3041
  346MOL0     H45628   0.561   7.030   4.025 -0.1416  0.3613  0.2103
  346MOL0     H45629   0.429   6.938   4.082  1.4283  1.0204  1.1843
  346MOL0     H45630   0.529   6.907   3.785 -2.8741  0.1604 -1.7285
  346MOL0     H45631   0.394   6.831   3.869  0.7590 -1.4106  0.5444
  346MOL0     H45632   0.324   7.021   3.748  0.7815 -1.6394 -0.0689
  346MOL0     H45633   0.473   7.112   3.784 -0.9864  0.7720 -1.0652
  346MOL0     H45634   0.176   6.940   3.851  3.8806  2.0588 -0.0433
  346MOL0     H45635  -0.066   6.915   3.927 -0.2790  2.8488 -3.4589
  346MOL0     H45636  -0.441   7.160   4.146 -2.4607  0.5768  1.3716
  346MOL0     H45637  -0.668   7.168   4.081  1.1392  1.6831 -0.0634
  346MOL0     H45638  -0.844   6.859   3.770 -0.7415 -0.0889 -1.1485
  346MOL0     H45639  -0.740   6.990   3.703  0.1140 -0.9700  1.5957
  346MOL0     H45640  -0.939   7.143   3.735  1.4978 -0.0655  1.7760
  346MOL0     H45641  -1.029   6.994   3.785  0.7889  1.9217  0.2087
  346MOL0     H45642  -0.926   6.898   3.549  1.4312  0.6377 -1.2534
  346MOL0     H45643  -0.936   7.074   3.515  0.9451 -0.4653  0.0472
  346MOL0     H45644  -1.168   6.987   3.441 -3.3650 -0.4397  1.8022
  346MOL0     H45645  -1.172   6.901   3.588  0.8104  0.9697  1.6744
  346MOL0     H45646  -1.199   7.199   3.544  2.4559 -0.9190 -1.4851
  346MOL0     H45647  -1.176   7.138   3.707 -1.0334 -1.4453  0.2183
  346MOL0     H45648  -1.370   7.034   3.709 -4.1942 -0.3493 -0.0343
  346MOL0     H45649  -1.396   7.005   3.535  0.5090 -2.3915  0.6588
  346MOL0     H45650  -1.416   7.258   3.516  0.8050  0.4359  0.3056
  346MOL0     H45651  -1.558   7.181   3.565 -0.7985  1.8301 -0.7827
  346MOL0     H45652  -1.362   7.311   3.759 -0.2215 -1.4226  0.5112
  346MOL0     H45653  -1.520   7.237   3.800 -0.4134 -1.2088 -1.3959
  346MOL0     H45654  -0.597   6.828   3.807  0.8636 -1.0859  0.7101
  346MOL0     H45655  -0.377   6.806   3.894  2.8157  1.4988  0.3511
  346MOL0     H45656   0.000   7.256   4.182  1.9737  1.0071  1.1133
  346MOL0     H45657   0.226   7.287   4.074 -0.8633  0.6252 -0.5289
  346MOL0     H45658   1.812   7.367   4.120  2.5611  2.2629 -0.7676
  346MOL0     H45659   2.029   7.357   4.223  0.8711 -3.0987 -0.3256
  346MOL0     H45660   2.187   7.211   4.681  0.2388 -1.4416  1.2182
  346MOL0     H45661   2.295   7.175   4.897 -0.2006 -1.2064  0.2421
  346MOL0     H45662   2.578   7.391   4.993 -1.0716  1.0321  1.0515
  346MOL0     H45663   2.520   7.223   4.993  0.3089  1.1737 -0.5472
  346MOL0     H45664   2.549   7.235   5.250  0.4359  0.5653  0.2388
  346MOL0     H45665   2.700   7.295   5.192  0.3031  0.5230  3.4736
  346MOL0     H45666   2.636   7.442   5.349  1.2878 -3.9443 -0.8825
  346MOL0     H45667   2.480   7.473   5.291 -0.3104  4.5779 -2.0778
  346MOL0     H45668   2.558   7.573   5.084 -1.1852 -3.0683  0.2324
  346MOL0     H45669   2.595   7.650   5.233  0.5844 -1.7268  2.7992
  346MOL0     H45670   2.971   7.493   5.065 -1.5573 -1.3588 -2.1810
  346MOL0     H45671   2.301   7.587   4.988  2.4822  1.3175 -1.6523
  346MOL0     H45672   2.189   7.640   4.782  1.3279 -0.8915 -3.6292
  347MOL0     O45673   0.713   5.168   7.984 -0.3987 -0.6049 -0.3228
  347MOL0     C45674   0.740   5.123   7.873  0.2432 -1.1692  0.1823
  347MOL0     O45675   0.657   5.048   7.792  0.0643  0.5147  0.2938
  347MOL0     C45676   0.514   5.041   7.814 -0.3994 -0.0867 -0.3433
  347MOL0     C45677   0.437   5.160   7.844 -0.1856  0.1039  0.3023
  347MOL0     C45678   0.298   5.156   7.832 -0.4674 -0.4731 -0.0219
  347MOL0     C45679   0.226   5.045   7.805  0.4622  0.4757 -0.1474
  347MOL0     O45680   0.084   5.031   7.795 -0.6690  0.2810  0.1499
  347MOL0     C45681  -0.001   5.139   7.847  0.5005  0.3674 -0.7660
  347MOL0     C45682  -0.137   5.084   7.891 -0.5825  0.0254  0.4964
  347MOL0     C45683  -0.231   5.180   7.969 -0.2849 -0.2650 -0.8938
  347MOL0     C45684  -0.158   5.262   8.088  1.2041  0.5433  0.5667
  347MOL0     C45685  -0.270   5.330   8.184  0.0383  0.5270  0.8881
  347MOL0     C45686  -0.359   5.419   8.099  1.2920  0.2407  0.0232
  347MOL0     C45687  -0.452   5.508   8.184 -0.4696 -0.3423  1.0274
  347MOL0     C45688  -0.379   5.636   8.217  0.7929  0.4316 -0.0110
  347MOL0     N45689  -0.465   5.727   8.297  0.2647  0.6614  0.7264
  347MOL0     C45690  -0.471   5.735   8.435 -0.0152  0.7710  0.5323
  347MOL0     C45691  -0.574   5.814   8.467  0.5638  0.3804 -0.3577
  347MOL0     C45692  -0.606   5.854   8.609  0.4820 -1.1075  0.2888
  347MOL0     C45693  -0.664   5.742   8.689  0.2237  0.1833 -1.1693
  347MOL0     C45694  -0.588   5.611   8.698  0.4622  0.3642  0.7597
  347MOL0     C45695  -0.646   5.505   8.802  0.1455  0.2908 -0.2762
  347MOL0     O45696  -0.787   5.533   8.799  0.4752 -0.2864 -0.1086
  347MOL0     C45697  -0.878   5.440   8.860 -0.0724 -0.3803  1.2194
  347MOL0     C45698  -0.833   5.315   8.911 -0.2620 -0.7699  1.3718
  347MOL0     C45699  -0.925   5.219   8.941  1.2340  0.1443 -0.6141
  347MOL0     C45700  -1.062   5.241   8.923  0.1532  0.2606  0.0087
  347MOL0     C45701  -1.175   5.150   8.969 -0.2548 -1.4433 -0.2301
  347MOL0     O45702  -1.308   5.192   8.951 -0.0716 -0.5744  0.2822
  347MOL0     C45703  -1.413   5.120   8.995 -0.9542  0.6028 -1.0833
  347MOL0     C45704  -1.528   5.153   8.930  0.7132  0.1732  1.0651
  347MOL0     C45705  -1.646   5.093   8.959  0.1653 -0.7430 -0.0450
  347MOL0     C45706  -1.658   4.999   9.067  0.0559 -0.3822 -0.0122
  347MOL0     O45707  -1.783   4.941   9.092  0.3696  0.0996 -0.3618
  347MOL0     C45708  -1.819   4.920   9.239 -0.0584  0.1153  0.4890
  347MOL0     C45709  -1.937   4.833   9.256  0.9330 -0.5595 -0.8742
  347MOL0     C45710  -1.903   4.686   9.222  0.3618 -0.1016  0.0479
  347MOL0     C45711  -2.010   4.589   9.277  0.0974  0.6599  0.6836
  347MOL0     C45712  -1.991   4.451   9.235  0.8185 -0.6557  0.1200
  347MOL0     C45713  -2.082   4.361   9.314 -0.2913 -0.6802  0.3365
  347MOL0     C45714  -2.088   4.232   9.233 -0.4123 -0.7596  0.3915
  347MOL0     C45715  -2.195   4.133   9.284  0.9335  0.0115 -0.0776
  347MOL0    Cl45716  -2.138   4.044   9.433 -0.9069  0.2630  0.0573
  347MOL0     C45717  -1.539   4.974   9.140 -0.7499  0.2773  0.4395
  347MOL0     C45718  -1.416   5.026   9.100  0.6176 -0.1269  0.7802
  347MOL0     O45719  -1.132   5.049   9.017 -0.5045 -0.4224  0.2045
  347MOL0     C45720  -1.113   5.366   8.864  1.2157 -0.8382  0.1383
  347MOL0     C45721  -1.018   5.464   8.842 -0.9538  0.7716  0.5310
  347MOL0     N45722  -0.645   5.842   8.348  0.0661 -0.0384 -0.1148
  347MOL0     N45723  -0.573   5.793   8.247  0.0730  0.2412  0.1874
  347MOL0     C45724   0.304   4.928   7.779 -0.2621  0.3040 -0.3594
  347MOL0     C45725   0.446   4.928   7.777  0.2579  0.2288 -0.5528
  347MOL0     C45726   0.886   5.140   7.833 -0.1520 -0.1096  0.0338
  347MOL0     C45727   0.972   5.248   7.881  0.1518  0.1511  1.1679
  347MOL0     C45728   1.091   5.272   7.828  0.0395  0.3130 -0.2394
  347MOL0     C45729   1.142   5.189   7.730 -0.9203  0.0533  0.5924
  347MOL0     O45730   1.267   5.211   7.671  0.8243  0.6546  0.2779
  347MOL0     C45731   1.278   5.199   7.523 -0.0026  0.5689 -0.3599
  347MOL0     C45732   1.407   5.275   7.494  1.1055 -0.4305  0.3058
  347MOL0     C45733   1.392   5.416   7.559  0.9628  0.0454 -0.1334
  347MOL0     C45734   1.514   5.503   7.518  0.3348 -0.0046 -0.5168
  347MOL0     C45735   1.485   5.541   7.382 -0.1905 -0.2782 -0.3573
  347MOL0     C45736   1.468   5.557   7.260 -0.5807  1.9319 -0.7057
  347MOL0     C45737   1.068   5.078   7.684  1.0602 -0.1847  0.0072
  347MOL0     C45738   0.940   5.055   7.735 -0.7818 -0.0199  0.1753
  347MOL0     H45739   0.492   5.252   7.861  0.2393 -0.2621  0.9577
  347MOL0     H45740   0.248   5.249   7.857 -1.4113 -0.9225 -0.1912
  347MOL0     H45741  -0.022   5.202   7.759 -2.7939 -1.3736 -1.4004
  347MOL0     H45742   0.044   5.187   7.934  0.8165  2.1667 -1.8655
  347MOL0     H45743  -0.101   5.006   7.958  1.0736  1.7171  1.6577
  347MOL0     H45744  -0.197   5.043   7.809  1.2912 -1.6987 -0.1115
  347MOL0     H45745  -0.322   5.130   8.003 -0.2764 -0.3988 -1.0670
  347MOL0     H45746  -0.268   5.243   7.887  1.3570  0.7151 -0.9338
  347MOL0     H45747  -0.106   5.191   8.153  0.9523  1.2833  1.5978
  347MOL0     H45748  -0.085   5.334   8.050 -1.1628  3.1032  0.5872
  347MOL0     H45749  -0.208   5.376   8.262  0.9664 -1.4591  1.3994
  347MOL0     H45750  -0.336   5.260   8.236  2.8970 -1.4382  2.1533
  347MOL0     H45751  -0.427   5.354   8.043 -0.6447  1.3134  1.0104
  347MOL0     H45752  -0.302   5.479   8.027 -0.1073 -0.7428 -2.0207
  347MOL0     H45753  -0.543   5.540   8.133  0.5760  1.3225  0.1292
  347MOL0     H45754  -0.477   5.465   8.282  0.8090  2.9806  2.9933
  347MOL0     H45755  -0.357   5.685   8.121 -0.3784  0.1572 -0.4281
  347MOL0     H45756  -0.289   5.607   8.273  0.9692 -0.1746 -0.5924
  347MOL0     H45757  -0.397   5.705   8.508 -1.6288 -4.2477  0.4689
  347MOL0     H45758  -0.689   5.926   8.608 -1.2866 -3.0521 -0.3258
  347MOL0     H45759  -0.519   5.878   8.671  0.6386 -4.3683  1.5092
  347MOL0     H45760  -0.764   5.715   8.652 -0.3458  1.4807 -0.6308
  347MOL0     H45761  -0.666   5.791   8.787 -0.2469  2.7932 -2.3991
  347MOL0     H45762  -0.588   5.566   8.598 -1.7536  0.1966  0.8028
  347MOL0     H45763  -0.489   5.653   8.722  1.5227  1.3875 -4.2037
  347MOL0     H45764  -0.615   5.507   8.907 -2.6113 -1.3193  0.6783
  347MOL0     H45765  -0.622   5.402   8.776 -1.1638 -0.1724  0.2610
  347MOL0     H45766  -0.728   5.300   8.933 -0.5084 -2.9655  1.2601
  347MOL0     H45767  -0.896   5.121   8.978 -1.2877 -2.1233 -4.0261
  347MOL0     H45768  -1.537   5.211   8.839  2.3592 -0.8429  0.2021
  347MOL0     H45769  -1.734   5.117   8.900  0.1783  4.3773  1.4858
  347MOL0     H45770  -1.838   5.020   9.279 -1.3185  0.0604  0.0943
  347MOL0     H45771  -1.730   4.889   9.294  0.8253  1.2418 -0.2724
  347MOL0     H45772  -2.022   4.882   9.208  0.5100  0.5071  0.9069
  347MOL0     H45773  -1.970   4.830   9.360  1.2317 -2.4447 -0.8083
  347MOL0     H45774  -1.813   4.649   9.272 -0.4112 -1.7332  0.3049
  347MOL0     H45775  -1.888   4.673   9.115  1.8216 -0.0496  0.2264
  347MOL0     H45776  -2.013   4.592   9.387 -0.0240  1.7694  0.6628
  347MOL0     H45777  -2.107   4.615   9.234  0.6722 -1.5501 -2.2338
  347MOL0     H45778  -1.885   4.424   9.245  0.1891 -4.4179 -1.5507
  347MOL0     H45779  -2.012   4.443   9.128 -1.0322 -2.6270  0.5665
  347MOL0     H45780  -2.183   4.403   9.315 -0.4301 -0.6599 -3.3215
  347MOL0     H45781  -2.028   4.341   9.407  1.1740 -2.5807 -0.8627
  347MOL0     H45782  -2.115   4.257   9.130  1.8575  0.0701 -0.0495
  347MOL0     H45783  -1.996   4.173   9.230  1.4833  1.9415  1.0971
  347MOL0     H45784  -2.217   4.061   9.205 -0.2208  0.6037 -0.3294
  347MOL0     H45785  -2.290   4.182   9.309  0.3687 -1.0921  0.0160
  347MOL0     H45786  -1.530   4.888   9.207 -0.3734 -0.5246 -0.6077
  347MOL0     H45787  -1.334   5.025   9.171  2.1557  1.0773 -0.8919
  347MOL0     H45788  -1.211   5.401   8.836  1.9846  1.9187  0.5749
  347MOL0     H45789  -1.054   5.560   8.806 -1.0274  0.6472  0.2665
  347MOL0     H45790   0.247   4.840   7.750 -1.6312  0.4711  1.6265
  347MOL0     H45791   0.490   4.830   7.763 -0.9271 -0.0568 -2.7303
  347MOL0     H45792   0.959   5.302   7.975  0.7542 -1.1007  2.0056
  347MOL0     H45793   1.143   5.360   7.863  0.1589 -0.8296  2.7666
  347MOL0     H45794   1.200   5.248   7.463  1.0199  1.8838 -0.6592
  347MOL0     H45795   1.291   5.096   7.488  0.7132  0.6215 -0.2572
  347MOL0     H45796   1.495   5.226   7.537  1.3269 -1.7935 -1.5300
  347MOL0     H45797   1.421   5.273   7.385 -0.9837 -1.2452 -0.0020
  347MOL0     H45798   1.380   5.415   7.667 -3.6604 -0.3704 -0.4548
  347MOL0     H45799   1.305   5.468   7.517 -0.3480 -1.9275 -0.0338
  347MOL0     H45800   1.529   5.586   7.587 -2.8766  1.4794 -1.4145
  347MOL0     H45801   1.606   5.443   7.513 -1.0261 -2.6889  2.7764
  347MOL0     H45802   1.458   5.558   7.153 -2.0775 -1.8494 -0.7555
  347MOL0     H45803   1.117   5.005   7.620  0.7310  0.0486 -0.5141
  347MOL0     H45804   0.894   4.961   7.708  2.6929 -1.2661 -1.9825
  348MOL0     O45805   5.213   0.355   2.039  0.6947  0.0777 -0.2514
  348MOL0     C45806   5.247   0.426   1.939 -1.2355  0.0067  0.4486
  348MOL0     O45807   5.340   0.528   1.943 -0.2331  0.0241 -0.0218
  348MOL0     C45808   5.418   0.544   2.053 -0.2039  0.4394  0.2976
  348MOL0     C45809   5.382   0.622   2.164  1.3149 -0.1694 -0.1242
  348MOL0     C45810   5.472   0.648   2.260 -0.3139 -0.0717 -0.9470
  348MOL0     C45811   5.599   0.587   2.264  0.7933  0.3243  0.0008
  348MOL0     O45812   5.685   0.601   2.371 -0.1467 -0.1447  0.2211
  348MOL0     C45813   5.635   0.643   2.501  0.4781 -0.1128 -0.8047
  348MOL0     C45814   5.722   0.589   2.615 -0.1333 -0.3956  0.1753
  348MOL0     C45815   5.655   0.635   2.740 -0.6798 -0.0494 -0.2594
  348MOL0     C45816   5.714   0.595   2.872 -0.9708  0.8018 -0.2267
  348MOL0     C45817   5.733   0.447   2.902 -0.4642 -0.4409  0.5075
  348MOL0     C45818   5.802   0.429   3.038  0.1115  0.2187 -0.5262
  348MOL0     C45819   5.824   0.281   3.075 -0.0264 -0.1688 -1.1179
  348MOL0     C45820   5.904   0.271   3.206  0.1935 -0.0414  0.5595
  348MOL0     N45821   5.908   0.130   3.239 -0.1102  1.2296 -0.2366
  348MOL0     C45822   5.873   0.085   3.366 -0.6518 -0.6513  1.4381
  348MOL0     C45823   5.928  -0.036   3.369  0.3355  0.3178  0.2708
  348MOL0     C45824   5.935  -0.143   3.476 -0.5175  0.1698 -0.3904
  348MOL0     C45825   5.793  -0.185   3.515 -0.7802  0.4479  0.8339
  348MOL0     C45826   5.794  -0.276   3.638 -0.5532  0.9860  0.2871
  348MOL0     C45827   5.896  -0.393   3.618  0.2753  0.7818 -0.8514
  348MOL0     O45828   5.840  -0.516   3.654 -0.4524  0.7957  0.4413
  348MOL0     C45829   5.823  -0.544   3.784  1.1925 -0.3832 -0.4281
  348MOL0     C45830   5.874  -0.469   3.888  0.9644 -0.3730  0.9494
  348MOL0     C45831   5.846  -0.507   4.024 -0.0497  0.0567  0.0239
  348MOL0     C45832   5.774  -0.627   4.048 -0.2265 -0.1112 -0.2297
  348MOL0     C45833   5.723  -0.664   4.190 -0.2327  0.6389 -0.5190
  348MOL0     O45834   5.669  -0.785   4.211  0.3301  0.5944  0.0960
  348MOL0     C45835   5.626  -0.819   4.339 -1.5055  0.2629  0.3016
  348MOL0     C45836   5.517  -0.772   4.397 -0.4846  0.0352 -0.5508
  348MOL0     C45837   5.488  -0.835   4.522 -0.8261  0.0405 -0.1190
  348MOL0     C45838   5.554  -0.949   4.574 -0.4316  0.0638 -0.5535
  348MOL0     O45839   5.510  -1.022   4.678  0.5600 -0.2993 -0.7355
  348MOL0     C45840   5.397  -1.004   4.767  0.6134  0.4213 -0.1319
  348MOL0     C45841   5.282  -1.070   4.697 -0.0387  0.3618 -0.4665
  348MOL0     C45842   5.161  -1.095   4.789 -0.2679  0.3019 -0.4471
  348MOL0     C45843   5.136  -0.976   4.884  0.5710  0.2375  0.2563
  348MOL0     C45844   4.994  -0.977   4.945  0.3313  0.4924 -0.3468
  348MOL0     C45845   4.991  -1.092   5.050 -0.2852  0.2231  0.0184
  348MOL0     C45846   4.871  -1.084   5.135 -0.2342 -0.1968  0.1367
  348MOL0     C45847   4.887  -1.188   5.246  0.0130 -0.3387 -1.2691
  348MOL0    Cl45848   4.726  -1.191   5.328 -0.2156  0.3849 -0.2919
  348MOL0     C45849   5.670  -0.990   4.514 -0.5143  0.6036  0.4523
  348MOL0     C45850   5.699  -0.929   4.392  0.5046  0.2584 -0.8324
  348MOL0     O45851   5.734  -0.582   4.277 -0.0334  0.1110 -0.7859
  348MOL0     C45852   5.719  -0.695   3.940  0.0243  0.7171 -0.3356
  348MOL0     C45853   5.744  -0.656   3.810 -0.4960  0.2586 -0.0125
  348MOL0     N45854   6.005  -0.059   3.254 -0.8422  0.2044 -0.4515
  348MOL0     N45855   5.987   0.040   3.178  0.2842  0.1863 -0.1828
  348MOL0     C45856   5.642   0.517   2.155 -0.7267 -0.6358  0.1803
  348MOL0     C45857   5.549   0.490   2.046 -0.1582 -0.3149  0.1633
  348MOL0     C45858   5.175   0.400   1.814  0.5551 -0.3456 -0.1514
  348MOL0     C45859   5.107   0.281   1.790 -0.3141  0.3479 -0.4357
  348MOL0     C45860   5.027   0.253   1.680  0.7054 -1.1037 -0.2990
  348MOL0     C45861   5.002   0.360   1.596  0.2296 -0.5684 -0.6581
  348MOL0     O45862   4.917   0.372   1.494  0.6615  0.2918  0.0099
  348MOL0     C45863   4.846   0.258   1.438  0.3644 -0.0765  0.0715
  348MOL0     C45864   4.692   0.248   1.472 -0.0456 -0.3623  0.0517
  348MOL0     C45865   4.667   0.251   1.627 -0.3473 -0.7096 -0.4580
  348MOL0     C45866   4.515   0.277   1.646 -0.1619 -0.4430 -0.2593
  348MOL0     C45867   4.496   0.254   1.791  0.4789  0.0090  0.5860
  348MOL0     C45868   4.495   0.268   1.917  0.3553 -0.5155  0.7309
  348MOL0     C45869   5.070   0.478   1.619 -0.2020 -0.2589 -0.5484
  348MOL0     C45870   5.156   0.495   1.717  0.0476 -1.3295 -0.0116
  348MOL0     H45871   5.286   0.673   2.162  1.2835 -0.2529 -1.6949
  348MOL0     H45872   5.430   0.706   2.342 -1.9491 -0.0804 -1.7422
  348MOL0     H45873   5.532   0.604   2.507  0.0484  1.1345  0.5339
  348MOL0     H45874   5.620   0.750   2.516  1.5376 -0.2131  1.3138
  348MOL0     H45875   5.814   0.647   2.607  0.0452 -0.6738  0.1950
  348MOL0     H45876   5.745   0.483   2.601 -3.4348 -1.1717 -0.0528
  348MOL0     H45877   5.549   0.610   2.742 -1.5918  3.2557  0.0562
  348MOL0     H45878   5.666   0.744   2.736  1.4006 -0.2147  0.0222
  348MOL0     H45879   5.813   0.639   2.885 -0.3348  0.8626 -4.0110
  348MOL0     H45880   5.647   0.634   2.948  0.9367 -0.9813  2.5786
  348MOL0     H45881   5.791   0.399   2.822  0.9686  1.8235  0.1123
  348MOL0     H45882   5.636   0.396   2.895 -0.5738 -0.0828 -0.7140
  348MOL0     H45883   5.740   0.457   3.123  2.1292 -2.6531  2.1172
  348MOL0     H45884   5.895   0.488   3.038 -0.5403  1.2833  0.5148
  348MOL0     H45885   5.731   0.223   3.065  0.1900 -0.5832 -0.7534
  348MOL0     H45886   5.885   0.228   3.000  2.0408  0.9515 -0.3046
  348MOL0     H45887   5.855   0.327   3.286  0.3955  1.2691 -0.2207
  348MOL0     H45888   6.004   0.309   3.187 -0.6210  0.7127 -2.6909
  348MOL0     H45889   5.831   0.139   3.450 -2.6189 -3.7302  2.6074
  348MOL0     H45890   5.977  -0.092   3.564 -2.0042  2.7046 -1.0595
  348MOL0     H45891   5.994  -0.229   3.443 -1.3785 -0.3830 -0.5018
  348MOL0     H45892   5.754  -0.245   3.432  0.7280  0.9177 -0.2511
  348MOL0     H45893   5.725  -0.102   3.534 -0.1863  1.7212 -2.0277
  348MOL0     H45894   5.805  -0.221   3.732  0.1436  1.1261  0.1294
  348MOL0     H45895   5.693  -0.311   3.659 -1.2288  3.1616  1.0338
  348MOL0     H45896   5.986  -0.367   3.674 -1.7715  2.8004  1.7589
  348MOL0     H45897   5.930  -0.407   3.515  0.7737  1.4384 -0.7769
  348MOL0     H45898   5.926  -0.375   3.871 -0.0301  0.0591  0.2107
  348MOL0     H45899   5.879  -0.447   4.108 -1.4607  0.7127  0.1367
  348MOL0     H45900   5.469  -0.684   4.355  1.5035 -0.4806 -4.3183
  348MOL0     H45901   5.413  -0.779   4.577  2.4383  2.8381  1.8575
  348MOL0     H45902   5.369  -0.899   4.778 -0.9203  0.2796 -2.0121
  348MOL0     H45903   5.412  -1.049   4.865 -0.5553  0.2706 -0.0024
  348MOL0     H45904   5.328  -1.161   4.657  1.7606  1.5347 -1.2427
  348MOL0     H45905   5.248  -0.998   4.621 -0.9382  2.3258  1.6635
  348MOL0     H45906   5.178  -1.191   4.838 -0.5108  0.6818  0.3844
  348MOL0     H45907   5.071  -1.111   4.729  0.7270 -1.7783 -1.4889
  348MOL0     H45908   5.224  -0.962   4.948  2.7783 -1.8658 -2.0931
  348MOL0     H45909   5.142  -0.893   4.814  1.5988  0.0534  0.1023
  348MOL0     H45910   4.913  -0.982   4.872  0.3298  1.3041 -0.4176
  348MOL0     H45911   4.968  -0.883   4.996 -1.7194 -1.2269  2.0545
  348MOL0     H45912   5.076  -1.101   5.118 -3.0035 -2.0517  3.4900
  348MOL0     H45913   4.997  -1.185   4.992  0.9252  0.9909 -1.1647
  348MOL0     H45914   4.862  -0.982   5.175  1.0758  0.1416 -0.3568
  348MOL0     H45915   4.779  -1.101   5.078 -1.5973 -1.2626  2.5132
  348MOL0     H45916   4.964  -1.158   5.318 -0.6627 -0.7002 -0.3696
  348MOL0     H45917   4.912  -1.291   5.217 -0.8073 -2.2550  3.7550
  348MOL0     H45918   5.731  -1.064   4.565 -2.0288 -1.3004 -0.3680
  348MOL0     H45919   5.789  -0.958   4.340  1.9070  1.0592  1.0498
  348MOL0     H45920   5.642  -0.770   3.959 -0.7279  0.8836 -2.4050
  348MOL0     H45921   5.707  -0.721   3.731  2.6751 -2.6540  0.6968
  348MOL0     H45922   5.742   0.477   2.149  1.0199  3.4026 -4.3014
  348MOL0     H45923   5.586   0.450   1.952  1.7965 -1.6903  1.4525
  348MOL0     H45924   5.097   0.197   1.859 -3.1008  1.7472  1.0503
  348MOL0     H45925   4.958   0.170   1.667 -0.0834 -0.5686  0.3869
  348MOL0     H45926   4.899   0.166   1.463  0.0286 -0.8356 -1.8373
  348MOL0     H45927   4.861   0.261   1.329 -1.1354 -0.2665 -0.1640
  348MOL0     H45928   4.644   0.337   1.431 -0.7402  0.5016  2.5450
  348MOL0     H45929   4.645   0.164   1.420  1.9725  0.0956 -2.7377
  348MOL0     H45930   4.715   0.333   1.683 -0.9184  1.0243 -2.3815
  348MOL0     H45931   4.702   0.154   1.664 -1.2430 -0.8235  0.1113
  348MOL0     H45932   4.487   0.379   1.620 -0.9686 -0.3354  0.9645
  348MOL0     H45933   4.459   0.206   1.584  1.0398  0.3928 -2.3825
  348MOL0     H45934   4.490   0.280   2.023  1.3813  0.8003  0.6482
  348MOL0     H45935   5.058   0.567   1.558 -2.3463  0.8160  1.2671
  348MOL0     H45936   5.213   0.587   1.722  0.8937 -1.8641  0.5513
  349MOL0     O45937   6.393   5.646   7.930  0.3298 -0.1220 -0.1395
  349MOL0     C45938   6.417   5.627   8.048 -0.3498  0.6423  0.2495
  349MOL0     O45939   6.325   5.618   8.153 -0.5165 -0.7430 -0.1326
  349MOL0     C45940   6.202   5.622   8.124  0.5863 -0.5353 -0.7042
  349MOL0     C45941   6.140   5.743   8.080 -0.7987 -0.2885  0.5874
  349MOL0     C45942   6.011   5.743   8.049 -0.0000 -0.0495 -0.7678
  349MOL0     C45943   5.937   5.625   8.070  0.5235  0.4885 -0.4177
  349MOL0     O45944   5.803   5.627   8.038 -0.0544  0.2541  0.0531
  349MOL0     C45945   5.767   5.625   7.902  0.2195 -1.3856  0.0182
  349MOL0     C45946   5.618   5.621   7.913  0.4442  0.3824  0.2134
  349MOL0     C45947   5.549   5.636   7.771 -1.2178  0.2211 -0.2669
  349MOL0     C45948   5.404   5.602   7.787 -0.8456 -0.0709  0.6614
  349MOL0     C45949   5.324   5.584   7.654  0.3676 -0.7847  0.4111
  349MOL0     C45950   5.173   5.533   7.669 -0.5502 -0.0813  0.9533
  349MOL0     C45951   5.129   5.499   7.520 -0.5652 -0.2324  0.4714
  349MOL0     C45952   4.977   5.468   7.514 -0.0696 -1.3131  0.1256
  349MOL0     N45953   4.893   5.588   7.538  0.0598 -0.3335  0.4734
  349MOL0     C45954   4.872   5.698   7.452  0.1994  0.1204  0.0422
  349MOL0     C45955   4.756   5.756   7.493 -0.2553  1.3040  0.3676
  349MOL0     C45956   4.712   5.881   7.422  0.0070  0.2124  0.1428
  349MOL0     C45957   4.571   5.874   7.366 -0.3751 -0.2260  0.4564
  349MOL0     C45958   4.521   6.012   7.310  0.3865 -0.0753  0.2893
  349MOL0     C45959   4.498   6.111   7.430  0.3787  0.1037  0.4946
  349MOL0     O45960   4.423   6.046   7.539  0.0916 -0.4830  0.1544
  349MOL0     C45961   4.449   6.090   7.663  0.1862  0.7357 -0.5670
  349MOL0     C45962   4.511   5.987   7.742 -0.5381 -0.5949 -0.1667
  349MOL0     C45963   4.565   6.023   7.864 -0.4611 -0.8205 -0.2136
  349MOL0     C45964   4.553   6.149   7.920 -0.4205  1.8938 -0.3385
  349MOL0     C45965   4.623   6.180   8.050  0.0960 -0.2094 -0.1752
  349MOL0     O45966   4.686   6.077   8.123 -0.0509 -0.6387  1.0816
  349MOL0     C45967   4.715   6.089   8.257  0.2154  0.4057 -0.5078
  349MOL0     C45968   4.778   6.210   8.298 -0.5020  0.2959  1.0601
  349MOL0     C45969   4.838   6.221   8.432  0.1789  0.5629  0.4535
  349MOL0     C45970   4.814   6.119   8.528 -0.8565 -0.2242 -0.0912
  349MOL0     O45971   4.863   6.132   8.654 -0.1310 -0.6412  0.0882
  349MOL0     C45972   4.820   6.043   8.757  0.6504 -0.0735  0.0118
  349MOL0     C45973   4.864   6.077   8.898 -0.5520 -0.4938 -0.0631
  349MOL0     C45974   4.818   5.980   9.006 -0.9033  0.7351  0.8797
  349MOL0     C45975   4.861   6.001   9.146 -0.0200  0.3599  0.4409
  349MOL0     C45976   5.013   5.969   9.171  0.6140 -1.2282  0.4590
  349MOL0     C45977   5.057   5.833   9.128  0.3789  0.6100 -0.2550
  349MOL0     C45978   5.201   5.807   9.175  0.0417 -0.3144  0.3543
  349MOL0     C45979   5.233   5.654   9.159 -0.2672  0.0329  0.3661
  349MOL0    Cl45980   5.252   5.604   8.994  0.0241 -0.1026  0.6457
  349MOL0     C45981   4.754   5.999   8.482 -0.4857  0.6600  0.2411
  349MOL0     C45982   4.726   5.979   8.344 -0.3554  0.4367  0.4523
  349MOL0     O45983   4.621   6.294   8.083  0.6827 -0.6119 -0.5486
  349MOL0     C45984   4.486   6.243   7.854 -0.4213  0.3678 -0.8741
  349MOL0     C45985   4.441   6.223   7.722 -0.7693  0.2264  1.2680
  349MOL0     N45986   4.718   5.700   7.613  0.5056 -0.0989  0.2960
  349MOL0     N45987   4.806   5.605   7.630  0.2394 -0.0988 -0.3287
  349MOL0     C45988   5.994   5.510   8.111  0.9904  0.8672 -0.1189
  349MOL0     C45989   6.125   5.505   8.137 -0.6031 -0.7619 -0.5491
  349MOL0     C45990   6.565   5.614   8.092 -0.0076  0.2418 -0.4242
  349MOL0     C45991   6.664   5.551   8.020 -0.0018 -0.5418  0.5191
  349MOL0     C45992   6.799   5.545   8.056 -0.5118  0.6851 -0.5486
  349MOL0     C45993   6.834   5.584   8.192 -0.0924 -0.7836  0.3067
  349MOL0     O45994   6.965   5.555   8.226  0.2000  0.3583  0.3518
  349MOL0     C45995   7.005   5.609   8.349 -0.4816  0.0139  0.1061
  349MOL0     C45996   7.144   5.551   8.369 -0.0613 -0.4015  0.3215
  349MOL0     C45997   7.251   5.626   8.292 -0.4092  0.1021  0.5538
  349MOL0     C45998   7.388   5.568   8.318  0.7446 -0.8431  0.3325
  349MOL0     C45999   7.447   5.601   8.447  0.1618 -0.6194 -0.5639
  349MOL0     C46000   7.490   5.622   8.564 -0.5126 -0.3397 -0.0581
  349MOL0     C46001   6.739   5.663   8.261  0.2047 -0.4179  0.1585
  349MOL0     C46002   6.600   5.668   8.216  0.5207 -0.4808 -1.3019
  349MOL0     H46003   6.194   5.836   8.068 -0.0115 -0.7194  0.7460
  349MOL0     H46004   5.959   5.830   8.011 -2.5346 -0.9675  0.3085
  349MOL0     H46005   5.810   5.546   7.839  1.8333  1.7520 -3.1864
  349MOL0     H46006   5.792   5.723   7.861 -1.5218  0.1563  2.4099
  349MOL0     H46007   5.571   5.690   7.983  0.8629  1.1307 -0.2399
  349MOL0     H46008   5.587   5.520   7.943  1.7904 -0.4955 -1.1681
  349MOL0     H46009   5.593   5.558   7.708  0.8047 -0.5506  1.9869
  349MOL0     H46010   5.568   5.733   7.723 -2.4618  0.9596  0.6757
  349MOL0     H46011   5.399   5.503   7.833 -0.8339  0.8236  2.6816
  349MOL0     H46012   5.358   5.674   7.855  0.4860 -2.1768  4.0179
  349MOL0     H46013   5.374   5.507   7.595  0.1306 -1.1570  0.6899
  349MOL0     H46014   5.331   5.674   7.593  0.6117 -0.3734  1.0373
  349MOL0     H46015   5.103   5.596   7.726 -1.0096  0.4678 -0.1930
  349MOL0     H46016   5.174   5.436   7.720 -1.5286 -1.8776 -2.1461
  349MOL0     H46017   5.158   5.571   7.443  1.5242  0.1845  1.5917
  349MOL0     H46018   5.174   5.404   7.492 -1.2368 -0.1880 -0.8874
  349MOL0     H46019   4.954   5.396   7.593  0.0963 -1.6316 -0.1162
  349MOL0     H46020   4.950   5.426   7.417  1.6308  1.4964 -1.6985
  349MOL0     H46021   4.917   5.722   7.357 -2.9047 -1.5827 -2.0600
  349MOL0     H46022   4.781   5.914   7.344 -0.6218  0.7323 -0.2062
  349MOL0     H46023   4.720   5.946   7.509  0.9278  1.8890 -1.1455
  349MOL0     H46024   4.503   5.844   7.446 -1.4426  1.3514  0.1799
  349MOL0     H46025   4.575   5.793   7.292 -1.9023 -0.6649  0.8174
  349MOL0     H46026   4.595   6.060   7.245  0.4650  0.2206  0.5953
  349MOL0     H46027   4.428   5.992   7.256  0.1381 -0.3512  0.8095
  349MOL0     H46028   4.448   6.202   7.396 -0.1773 -1.1063 -2.1952
  349MOL0     H46029   4.592   6.150   7.470 -0.5123  1.9674  0.8569
  349MOL0     H46030   4.523   5.885   7.706 -0.5536 -0.9214  0.7368
  349MOL0     H46031   4.614   5.949   7.927 -1.5345 -2.5803 -1.3677
  349MOL0     H46032   4.802   6.287   8.225 -3.2148  0.4854  0.2533
  349MOL0     H46033   4.903   6.300   8.469 -0.1144  0.0236  2.2228
  349MOL0     H46034   4.859   5.943   8.738  1.5859  0.2065  0.4073
  349MOL0     H46035   4.711   6.038   8.766  0.8171 -0.9609  2.1628
  349MOL0     H46036   4.841   6.182   8.918 -1.0094 -0.9527  2.0559
  349MOL0     H46037   4.973   6.080   8.885 -0.7337  1.2860 -1.7519
  349MOL0     H46038   4.838   5.877   8.974 -2.2595  1.6324 -3.5266
  349MOL0     H46039   4.708   5.982   9.009 -1.0816 -1.5509 -1.2769
  349MOL0     H46040   4.841   6.106   9.171  2.5498  0.1461  4.3498
  349MOL0     H46041   4.802   5.943   9.218  0.7655  1.4230  2.0064
  349MOL0     H46042   5.026   5.989   9.277 -0.6304 -0.5109  0.4938
  349MOL0     H46043   5.074   6.040   9.113 -1.4370  0.9719  0.8664
  349MOL0     H46044   5.054   5.821   9.020 -0.6907  2.0259 -0.4181
  349MOL0     H46045   4.996   5.765   9.188  0.0251  0.4431 -0.8021
  349MOL0     H46046   5.278   5.870   9.129  0.3987 -0.5572  0.6141
  349MOL0     H46047   5.203   5.821   9.283  0.4312 -3.0776  0.7908
  349MOL0     H46048   5.149   5.601   9.205 -0.2213  0.4234  0.9047
  349MOL0     H46049   5.322   5.638   9.220  1.1364  0.7572 -1.4185
  349MOL0     H46050   4.748   5.920   8.556 -0.2134 -0.9070 -1.3395
  349MOL0     H46051   4.686   5.886   8.303  0.3927 -0.7129  2.2386
  349MOL0     H46052   4.473   6.339   7.904  0.6855 -1.3504  3.1459
  349MOL0     H46053   4.377   6.294   7.670 -0.2696 -0.0032  0.3163
  349MOL0     H46054   5.934   5.420   8.117 -0.3820  1.5359 -2.4409
  349MOL0     H46055   6.166   5.404   8.148 -1.9341 -1.3166 -0.4970
  349MOL0     H46056   6.633   5.512   7.923  1.9169  1.5554 -1.0780
  349MOL0     H46057   6.880   5.499   7.999 -0.5868 -0.3723  0.1770
  349MOL0     H46058   6.939   5.574   8.429 -0.9515  0.7867  0.0691
  349MOL0     H46059   7.007   5.719   8.356  1.0467 -0.0971  2.5223
  349MOL0     H46060   7.164   5.569   8.476  0.9629 -0.5075  0.1636
  349MOL0     H46061   7.138   5.442   8.359  1.8685 -0.5562  0.3038
  349MOL0     H46062   7.235   5.731   8.318 -1.6148 -0.1446  0.8986
  349MOL0     H46063   7.234   5.618   8.184  1.9468 -0.6602  0.1876
  349MOL0     H46064   7.380   5.459   8.308  2.0482 -0.7304 -3.4826
  349MOL0     H46065   7.459   5.612   8.248 -0.4477  1.7657  0.6430
  349MOL0     H46066   7.528   5.646   8.661  0.6632  1.8380 -0.9721
  349MOL0     H46067   6.756   5.708   8.358 -0.2349  1.4768 -0.5934
  349MOL0     H46068   6.524   5.720   8.274  2.0792  0.1604  0.2621
  350MOL0     O46069   3.852   3.109   3.722  0.7898 -0.1286  0.8925
  350MOL0     C46070   3.880   3.046   3.827 -0.5331  0.8839 -0.5797
  350MOL0     O46071   3.796   3.005   3.928 -0.6646  0.3505  0.1672
  350MOL0     C46072   3.671   3.055   3.942 -0.4577  0.5824  0.6428
  350MOL0     C46073   3.597   3.127   3.842 -0.3797 -0.3326 -0.1316
  350MOL0     C46074   3.462   3.144   3.847  0.3882 -0.3584  1.2016
  350MOL0     C46075   3.387   3.078   3.943  0.7352  0.0341 -0.5409
  350MOL0     O46076   3.252   3.088   3.958  0.1048  0.3833 -0.1247
  350MOL0     C46077   3.173   3.089   3.839  0.2905  0.3888  0.0551
  350MOL0     C46078   3.022   3.107   3.887 -0.7689 -0.1090  0.7456
  350MOL0     C46079   2.924   3.085   3.774  0.1700  0.2831 -0.7456
  350MOL0     C46080   2.780   3.047   3.821 -0.5133 -0.2337 -0.4495
  350MOL0     C46081   2.678   3.056   3.714  0.6469  0.0077  0.5742
  350MOL0     C46082   2.538   3.031   3.783 -0.5330 -0.5237 -1.0883
  350MOL0     C46083   2.417   3.049   3.686 -0.8901  0.9062 -0.2582
  350MOL0     C46084   2.282   3.066   3.761  0.9784  1.2468  0.1407
  350MOL0     N46085   2.156   3.076   3.674 -0.5646  0.8862  0.7960
  350MOL0     C46086   2.109   2.980   3.597  0.1302  0.3521 -0.0761
  350MOL0     C46087   1.991   3.030   3.544 -0.5045 -0.8319  0.3685
  350MOL0     C46088   1.900   2.951   3.448  0.1956 -0.6908 -0.1027
  350MOL0     C46089   1.938   2.957   3.296  0.8092 -0.7579 -0.4304
  350MOL0     C46090   1.883   3.085   3.235 -0.2769  0.1086 -0.3908
  350MOL0     C46091   1.730   3.077   3.219 -0.8201 -0.2503  0.3546
  350MOL0     O46092   1.684   3.003   3.106 -0.2354 -0.1928  1.4902
  350MOL0     C46093   1.551   2.991   3.102  0.1476  0.5195 -0.2277
  350MOL0     C46094   1.499   2.886   3.187  0.7770  0.0886 -0.2480
  350MOL0     C46095   1.360   2.856   3.173 -0.7490 -0.0844  0.5078
  350MOL0     C46096   1.275   2.933   3.078  0.2458  0.2077 -0.3504
  350MOL0     C46097   1.130   2.917   3.057  0.5978 -0.3060 -0.2210
  350MOL0     O46098   1.073   2.815   3.117 -0.8908  1.2108  0.7817
  350MOL0     C46099   0.939   2.803   3.136  0.2823  0.5800  0.0734
  350MOL0     C46100   0.863   2.901   3.195  0.6395 -0.3739  0.4226
  350MOL0     C46101   0.720   2.891   3.196 -0.0063  0.3484 -0.2571
  350MOL0     C46102   0.657   2.780   3.139 -0.1965  0.3564 -0.4380
  350MOL0     O46103   0.518   2.786   3.146  0.0330  0.0389  0.0215
  350MOL0     C46104   0.431   2.695   3.092 -0.5612 -0.6154  0.9748
  350MOL0     C46105   0.413   2.576   3.179  0.4354  0.4270 -0.3251
  350MOL0     C46106   0.339   2.622   3.312 -0.5591  0.6756 -0.4286
  350MOL0     C46107   0.429   2.683   3.420  0.0064 -0.0481 -0.0257
  350MOL0     C46108   0.351   2.738   3.540  0.1506 -0.4480  0.7553
  350MOL0     C46109   0.244   2.848   3.511 -0.0650  0.4161  0.2455
  350MOL0     C46110   0.315   2.977   3.451 -0.4540 -0.2623  0.2413
  350MOL0     C46111   0.211   3.087   3.416 -0.1595  0.4001  0.8858
  350MOL0    Cl46112   0.109   3.134   3.566 -0.2483  0.2930 -0.2076
  350MOL0     C46113   0.735   2.672   3.086  0.6081  0.7310 -0.8727
  350MOL0     C46114   0.867   2.687   3.084  0.9213  0.0198 -0.3776
  350MOL0     O46115   1.064   3.005   3.000  0.6766  0.6127  0.1725
  350MOL0     C46116   1.330   3.039   3.008 -0.3386 -0.7761  0.0373
  350MOL0     C46117   1.468   3.069   3.026  0.2706  0.0336  0.7411
  350MOL0     N46118   1.985   3.164   3.587 -0.6051  0.6017 -0.1844
  350MOL0     N46119   2.084   3.193   3.662 -0.1350  0.0896 -0.1893
  350MOL0     C46120   3.450   2.990   4.027 -0.3250 -0.2694  0.5783
  350MOL0     C46121   3.590   2.984   4.035  0.7573  0.2834 -0.2741
  350MOL0     C46122   4.012   3.002   3.840 -1.0652  0.5358 -0.9960
  350MOL0     C46123   4.050   2.882   3.913  1.0511 -0.6154  0.3204
  350MOL0     C46124   4.186   2.860   3.939 -0.4494  0.2147  1.3314
  350MOL0     C46125   4.288   2.938   3.880  0.1547  0.1976  0.1021
  350MOL0     O46126   4.423   2.890   3.893 -0.0162 -0.1109  0.6106
  350MOL0     C46127   4.454   2.792   3.989 -0.1391  0.3446 -0.6499
  350MOL0     C46128   4.442   2.637   3.967 -0.8740  0.3657  0.4548
  350MOL0     C46129   4.534   2.595   3.853 -0.8074  0.1777  0.6767
  350MOL0     C46130   4.459   2.519   3.744 -0.8315  0.5179 -0.2736
  350MOL0     C46131   4.331   2.573   3.698 -0.5545 -0.0286 -0.9296
  350MOL0     C46132   4.216   2.605   3.700 -0.3453  0.0373 -0.1382
  350MOL0     C46133   4.251   3.053   3.806 -0.0907 -0.7750 -0.0958
  350MOL0     C46134   4.115   3.076   3.784  0.1165 -0.4468 -1.5052
  350MOL0     H46135   3.637   3.173   3.752 -0.9057 -0.4306 -0.4182
  350MOL0     H46136   3.417   3.208   3.772  0.5616  0.0967  1.4768
  350MOL0     H46137   3.177   2.992   3.788 -1.6565  0.1566  0.2473
  350MOL0     H46138   3.200   3.170   3.771 -0.9620  2.2820  1.6848
  350MOL0     H46139   3.018   3.208   3.927  1.8901  0.3690  0.0507
  350MOL0     H46140   3.004   3.034   3.966  1.7038  1.8925  3.3367
  350MOL0     H46141   2.944   2.995   3.715  0.9722 -1.6747  2.2965
  350MOL0     H46142   2.929   3.174   3.711  1.0850  0.3737 -0.5443
  350MOL0     H46143   2.793   2.949   3.869 -1.3810  1.3729  3.4147
  350MOL0     H46144   2.758   3.116   3.903 -0.7150  1.7436 -2.0828
  350MOL0     H46145   2.704   2.977   3.643 -0.7976 -1.5724  1.7237
  350MOL0     H46146   2.655   3.155   3.674 -5.9330 -1.9080 -1.6995
  350MOL0     H46147   2.527   3.097   3.869 -2.4663 -0.9975 -0.9238
  350MOL0     H46148   2.538   2.925   3.812 -0.0757 -0.9056 -2.3938
  350MOL0     H46149   2.426   3.142   3.628 -0.0679  1.9641  1.4727
  350MOL0     H46150   2.424   2.974   3.607  0.9134  0.3102  0.4062
  350MOL0     H46151   2.290   3.158   3.818  4.8372  0.4601  1.1441
  350MOL0     H46152   2.247   2.989   3.830  0.1750  1.6508  0.1917
  350MOL0     H46153   2.143   2.877   3.589 -2.7039 -0.9987  2.6615
  350MOL0     H46154   1.801   2.988   3.475 -0.3500 -0.2914 -2.4355
  350MOL0     H46155   1.902   2.848   3.485  2.5700  0.1964  2.6445
  350MOL0     H46156   1.876   2.880   3.251  1.5798  0.1442 -3.2126
  350MOL0     H46157   2.042   2.945   3.265  0.1287 -1.2834 -2.6792
  350MOL0     H46158   1.903   3.169   3.302 -2.0528  0.8862 -0.7604
  350MOL0     H46159   1.933   3.112   3.142  1.0496 -0.5966  0.0864
  350MOL0     H46160   1.690   3.177   3.202 -1.2242 -0.8663 -2.8467
  350MOL0     H46161   1.683   3.028   3.305  1.7211 -0.4044  1.7636
  350MOL0     H46162   1.564   2.821   3.245  1.8757 -0.6720 -2.2614
  350MOL0     H46163   1.311   2.788   3.242 -0.4921 -0.8557 -0.0606
  350MOL0     H46164   0.905   2.994   3.232  0.0403  0.1665 -0.2310
  350MOL0     H46165   0.669   2.974   3.243 -1.8606  0.2538 -1.9390
  350MOL0     H46166   0.469   2.665   2.994  1.1513  3.4744  0.1515
  350MOL0     H46167   0.335   2.738   3.060  0.6357 -0.1275 -2.3533
  350MOL0     H46168   0.507   2.523   3.195 -0.3635 -0.6774  0.9697
  350MOL0     H46169   0.349   2.510   3.120 -0.9453  2.8993 -1.7386
  350MOL0     H46170   0.293   2.533   3.355  0.1204  0.5536  0.0642
  350MOL0     H46171   0.260   2.693   3.285 -1.1491 -0.6222 -2.2822
  350MOL0     H46172   0.499   2.605   3.452  0.8316  0.5344 -0.3675
  350MOL0     H46173   0.490   2.766   3.382  1.1419 -0.8017  0.0909
  350MOL0     H46174   0.418   2.779   3.617  2.8786  0.0923 -1.7226
  350MOL0     H46175   0.306   2.649   3.585  0.1390  0.7309  3.2932
  350MOL0     H46176   0.196   2.877   3.604 -0.3609 -1.3066  0.6502
  350MOL0     H46177   0.175   2.812   3.434 -0.3169 -1.9028  1.4926
  350MOL0     H46178   0.383   3.021   3.525 -1.9666  2.0445  0.3752
  350MOL0     H46179   0.379   2.956   3.365 -2.1212  1.0134 -1.3905
  350MOL0     H46180   0.139   3.047   3.344 -1.2434  1.8620  1.1110
  350MOL0     H46181   0.265   3.172   3.374  1.2544 -1.0818 -0.4186
  350MOL0     H46182   0.695   2.574   3.061  0.0536  1.3159 -2.4147
  350MOL0     H46183   0.912   2.600   3.037 -0.8723 -1.4155  0.4535
  350MOL0     H46184   1.268   3.106   2.949 -0.2486 -0.0776  0.7178
  350MOL0     H46185   1.505   3.152   2.967 -4.7213  0.3243 -2.5531
  350MOL0     H46186   3.391   2.928   4.095 -1.0676  2.3920  2.5044
  350MOL0     H46187   3.645   2.925   4.108 -2.0347 -0.6364  1.2044
  350MOL0     H46188   3.978   2.810   3.950  2.0709 -2.1951 -0.6897
  350MOL0     H46189   4.206   2.771   3.998 -2.4818 -0.3281  1.2536
  350MOL0     H46190   4.408   2.811   4.086 -0.2615  0.1916 -0.6771
  350MOL0     H46191   4.560   2.816   4.001 -0.4188  1.9263 -1.1802
  350MOL0     H46192   4.464   2.578   4.057 -2.3997  0.1665  0.7282
  350MOL0     H46193   4.336   2.619   3.944 -0.7438 -0.0516  0.1798
  350MOL0     H46194   4.615   2.534   3.895 -1.4153 -0.1928  1.3309
  350MOL0     H46195   4.582   2.677   3.799 -0.8795 -1.1375 -1.5008
  350MOL0     H46196   4.519   2.491   3.656  1.5681  0.7566  1.1933
  350MOL0     H46197   4.444   2.425   3.797  1.8964  0.5064  0.6147
  350MOL0     H46198   4.119   2.650   3.707 -0.9633 -1.4466  2.0033
  350MOL0     H46199   4.321   3.115   3.751 -2.4848  0.7068 -1.6335
  350MOL0     H46200   4.098   3.171   3.735  2.7578  2.6052  2.7739
  351MOL0     O46201   3.522  11.221   8.520 -0.6041  0.5796  0.1377
  351MOL0     C46202   3.601  11.232   8.418  0.3489 -0.3176 -0.6125
  351MOL0     O46203   3.590  11.163   8.298  0.0136 -0.1772 -0.6128
  351MOL0     C46204   3.494  11.069   8.286 -0.4183  0.3107  0.1028
  351MOL0     C46205   3.364  11.071   8.342  0.7530  0.1245 -0.4760
  351MOL0     C46206   3.266  10.977   8.315 -0.7337  0.2788 -0.6744
  351MOL0     C46207   3.287  10.869   8.240 -0.1353  0.1808  0.8581
  351MOL0     O46208   3.191  10.769   8.213  0.3676 -0.6022 -0.0001
  351MOL0     C46209   3.231  10.661   8.126  0.9089  0.7553  1.1264
  351MOL0     C46210   3.101  10.613   8.049 -1.2784 -0.0809 -1.1655
  351MOL0     C46211   3.095  10.467   7.998  0.2297  0.4577  0.2016
  351MOL0     C46212   3.092  10.355   8.115  0.0038  0.1074 -0.3784
  351MOL0     C46213   3.114  10.207   8.065 -0.2883 -0.0817  0.4450
  351MOL0     C46214   3.073  10.093   8.157  0.1629 -0.4920  0.5566
  351MOL0     C46215   3.156   9.962   8.141 -0.6647 -0.2237  0.9289
  351MOL0     C46216   3.108   9.872   8.022 -0.3021  0.4047 -0.5653
  351MOL0     N46217   3.183   9.755   8.004 -0.6485  0.1421  0.0134
  351MOL0     C46218   3.285   9.733   7.914 -0.3247  0.3652  0.3489
  351MOL0     C46219   3.317   9.601   7.932 -0.0750 -0.4170 -0.2481
  351MOL0     C46220   3.412   9.521   7.847  0.9814  0.2952  0.2707
  351MOL0     C46221   3.512   9.453   7.947  0.1849  0.0669  0.2735
  351MOL0     C46222   3.595   9.346   7.879 -0.2928 -0.4155 -0.0409
  351MOL0     C46223   3.738   9.406   7.856  0.0395 -0.1594  0.7153
  351MOL0     O46224   3.807   9.301   7.789 -0.3422 -0.2475 -0.0751
  351MOL0     C46225   3.935   9.322   7.755  1.1255 -0.7198  0.6352
  351MOL0     C46226   4.012   9.436   7.784 -0.2397 -0.4088 -0.6321
  351MOL0     C46227   4.144   9.447   7.738  0.3224  0.2724 -0.0558
  351MOL0     C46228   4.206   9.333   7.686  0.7391  0.4728 -0.7275
  351MOL0     C46229   4.361   9.336   7.688 -0.2373  0.0269 -0.1572
  351MOL0     O46230   4.423   9.225   7.645  0.2188  0.3333 -0.6223
  351MOL0     C46231   4.563   9.221   7.628 -0.3899  0.7158  0.1452
  351MOL0     C46232   4.651   9.325   7.601  0.3308  0.4383 -0.2746
  351MOL0     C46233   4.792   9.307   7.596 -0.2454 -0.1172  0.9340
  351MOL0     C46234   4.851   9.181   7.578  0.1827 -0.1361 -0.2821
  351MOL0     O46235   4.984   9.170   7.586  0.1349  0.7622  0.0010
  351MOL0     C46236   5.036   9.051   7.515 -1.1322  0.3320  0.3361
  351MOL0     C46237   5.188   9.046   7.492  0.2504 -0.2678 -0.1646
  351MOL0     C46238   5.235   9.160   7.395 -0.1651  0.3093  0.6421
  351MOL0     C46239   5.385   9.142   7.369 -0.6965 -0.6149 -0.4200
  351MOL0     C46240   5.464   9.276   7.344 -0.4924 -0.5966  0.0574
  351MOL0     C46241   5.619   9.251   7.330  0.3782 -0.1747  0.1567
  351MOL0     C46242   5.688   9.216   7.467 -0.6962  1.0456 -0.0896
  351MOL0     C46243   5.634   9.275   7.600 -0.2544  0.3111  0.1462
  351MOL0    Cl46244   5.736   9.224   7.734  0.1242  0.3572 -0.4302
  351MOL0     C46245   4.757   9.075   7.576 -1.1650 -0.4953  0.0869
  351MOL0     C46246   4.623   9.092   7.614 -0.8113  0.7264 -0.1187
  351MOL0     O46247   4.417   9.433   7.733  0.3891  0.3597  0.1264
  351MOL0     C46248   4.127   9.221   7.645 -0.3373  0.8053  0.3080
  351MOL0     C46249   3.989   9.223   7.675 -0.0174 -0.9603 -0.5278
  351MOL0     N46250   3.252   9.562   8.049  0.4098  1.0935 -0.2577
  351MOL0     N46251   3.173   9.652   8.088 -0.2266 -0.9677  0.2732
  351MOL0     C46252   3.411  10.871   8.167  0.1064  0.0029  0.0429
  351MOL0     C46253   3.517  10.971   8.201  0.5662  0.8095 -0.2713
  351MOL0     C46254   3.702  11.345   8.414  0.1722  0.6589  1.1596
  351MOL0     C46255   3.792  11.354   8.304  0.8305  0.2919  0.5501
  351MOL0     C46256   3.878  11.463   8.293 -0.4929 -0.5293  0.3971
  351MOL0     C46257   3.886  11.562   8.386  0.1490  0.4176 -0.6681
  351MOL0     O46258   3.971  11.664   8.367  0.1087 -0.4741  0.2969
  351MOL0     C46259   4.111  11.625   8.379  0.2169  0.0147 -0.1672
  351MOL0     C46260   4.196  11.646   8.257  0.5796 -0.2567  0.0741
  351MOL0     C46261   4.246  11.792   8.231 -0.1773  1.0255 -0.0455
  351MOL0     C46262   4.340  11.799   8.106 -0.3409 -0.1553  0.1672
  351MOL0     C46263   4.484  11.751   8.142 -0.8344  0.6454 -0.1731
  351MOL0     C46264   4.603  11.716   8.150  0.7444  0.5153 -0.4370
  351MOL0     C46265   3.803  11.562   8.494 -0.0296  0.0137 -0.2868
  351MOL0     C46266   3.709  11.448   8.509 -0.2951  0.1481 -0.3878
  351MOL0     H46267   3.325  11.152   8.403 -2.4860  0.9607 -3.3419
  351MOL0     H46268   3.163  10.981   8.348 -1.6396 -3.1408 -2.6152
  351MOL0     H46269   3.275  10.583   8.188  0.6743  0.5514  1.0382
  351MOL0     H46270   3.301  10.691   8.048  0.8328 -2.2528 -0.2326
  351MOL0     H46271   3.108  10.680   7.963 -0.8726  1.7963  0.2557
  351MOL0     H46272   3.010  10.644   8.102 -1.4517 -2.2584 -0.0845
  351MOL0     H46273   3.169  10.435   7.924 -1.8292 -0.6358 -1.5007
  351MOL0     H46274   2.996  10.452   7.954  0.3932 -0.1576  0.0322
  351MOL0     H46275   3.174  10.376   8.185 -0.2061  0.1573 -0.1453
  351MOL0     H46276   2.999  10.366   8.172  0.2453 -1.6756  0.4208
  351MOL0     H46277   3.220  10.203   8.041 -1.0257 -2.7657 -3.2872
  351MOL0     H46278   3.067  10.195   7.967  0.6134  0.0394 -0.0087
  351MOL0     H46279   2.971  10.059   8.139  1.0798 -2.8633 -0.6800
  351MOL0     H46280   3.089  10.130   8.258 -0.6659 -2.2696  1.3938
  351MOL0     H46281   3.265   9.973   8.135 -0.4183 -2.1474  1.2142
  351MOL0     H46282   3.139   9.898   8.228 -2.3854 -1.0642  0.0222
  351MOL0     H46283   3.104   9.932   7.931 -1.1131 -1.5079 -1.8400
  351MOL0     H46284   3.004   9.844   8.043 -0.0047  1.4585  3.2515
  351MOL0     H46285   3.313   9.779   7.820 -0.7039  0.3842  0.2450
  351MOL0     H46286   3.475   9.593   7.794  2.6288 -0.2415  1.4497
  351MOL0     H46287   3.359   9.448   7.785  0.5043 -1.0967  2.2314
  351MOL0     H46288   3.453   9.401   8.023 -1.8678  1.1307 -0.5133
  351MOL0     H46289   3.570   9.534   7.991  4.4216 -2.2189 -0.5217
  351MOL0     H46290   3.628   9.264   7.944  2.7476 -0.7885 -1.8589
  351MOL0     H46291   3.549   9.298   7.792 -1.2200 -1.4651  0.9844
  351MOL0     H46292   3.792   9.428   7.948  1.5068  2.5644 -0.6598
  351MOL0     H46293   3.730   9.501   7.802 -1.9346 -1.5591 -1.7221
  351MOL0     H46294   3.981   9.522   7.842 -1.6181 -0.4129 -1.3309
  351MOL0     H46295   4.200   9.538   7.758  1.8655 -0.2955 -1.5423
  351MOL0     H46296   4.612   9.427   7.599 -3.7081 -0.7955  2.5785
  351MOL0     H46297   4.856   9.394   7.600 -0.1321  0.4605 -4.6629
  351MOL0     H46298   5.000   9.041   7.413  3.1524 -1.0433 -1.2836
  351MOL0     H46299   5.011   8.966   7.581  1.6107 -2.0131 -1.3950
  351MOL0     H46300   5.226   8.946   7.468 -2.2202 -1.7430  1.5306
  351MOL0     H46301   5.217   9.064   7.596 -1.2632 -0.5605  0.3359
  351MOL0     H46302   5.218   9.262   7.431  1.5507  1.1565 -0.7678
  351MOL0     H46303   5.198   9.157   7.292 -1.2970  3.2733  0.8542
  351MOL0     H46304   5.429   9.118   7.466  0.5909  2.6619 -0.0749
  351MOL0     H46305   5.413   9.077   7.286  0.1687 -1.2585  0.3507
  351MOL0     H46306   5.454   9.358   7.417  3.8408 -0.8048  1.2068
  351MOL0     H46307   5.430   9.306   7.245 -4.1125 -1.1151  1.0222
  351MOL0     H46308   5.669   9.332   7.275  0.3636 -2.1055 -2.9300
  351MOL0     H46309   5.638   9.168   7.262  1.0627 -1.1994  1.5501
  351MOL0     H46310   5.671   9.109   7.488  0.0885  0.5378 -1.8920
  351MOL0     H46311   5.796   9.226   7.465 -0.7658  2.7544  1.5743
  351MOL0     H46312   5.526   9.263   7.607 -0.5765  1.9495 -1.2798
  351MOL0     H46313   5.649   9.383   7.588 -0.9855  0.2016 -2.2588
  351MOL0     H46314   4.788   8.971   7.569 -1.1471 -0.4118 -1.1407
  351MOL0     H46315   4.557   9.007   7.622  1.4269 -1.5463 -3.3451
  351MOL0     H46316   4.172   9.138   7.593 -1.2315 -0.7760  1.9542
  351MOL0     H46317   3.918   9.147   7.645 -2.4027  0.8699  0.1128
  351MOL0     H46318   3.449  10.812   8.084 -2.6607  0.7078 -1.8671
  351MOL0     H46319   3.614  10.978   8.152 -0.0843 -0.1104 -1.7552
  351MOL0     H46320   3.782  11.275   8.230 -2.7660  0.1731  0.9495
  351MOL0     H46321   3.938  11.475   8.203 -3.9528  3.3525 -1.6785
  351MOL0     H46322   4.109  11.519   8.404  0.0571 -0.4512 -2.0295
  351MOL0     H46323   4.153  11.683   8.462  0.4945  1.8400 -1.5312
  351MOL0     H46324   4.285  11.582   8.255  0.4988 -0.3664 -1.6762
  351MOL0     H46325   4.134  11.614   8.173  0.0344  0.0783  0.3433
  351MOL0     H46326   4.299  11.832   8.317  0.0402  1.9087 -0.5704
  351MOL0     H46327   4.162  11.861   8.215 -0.2597  0.6975 -1.1886
  351MOL0     H46328   4.302  11.744   8.020 -2.5353 -0.7258  1.4415
  351MOL0     H46329   4.341  11.903   8.071 -4.5323 -0.4201 -1.2670
  351MOL0     H46330   4.708  11.694   8.151  0.3807 -1.4995  1.3461
  351MOL0     H46331   3.805  11.638   8.573  2.2289  0.5457 -0.7945
  351MOL0     H46332   3.647  11.452   8.598  1.4017 -1.8859  0.9815
  352MOL0     O46333  10.187   2.134   2.136  0.4134 -0.5295 -0.3489
  352MOL0     C46334  10.088   2.151   2.201  0.2530  0.2043 -0.2179
  352MOL0     O46335  10.055   2.077   2.305 -0.2861 -0.0137  0.6350
  352MOL0     C46336  10.109   1.966   2.346  0.5728  0.7972 -0.0302
  352MOL0     C46337  10.014   1.881   2.412 -0.8593 -0.4353  0.1621
  352MOL0     C46338  10.054   1.768   2.486  0.7235 -0.7771 -0.0502
  352MOL0     C46339  10.188   1.735   2.479 -0.5939 -0.3265 -0.4977
  352MOL0     O46340  10.242   1.613   2.520  0.1819  0.9045  0.2643
  352MOL0     C46341  10.183   1.548   2.637  0.1437  0.0786 -0.5232
  352MOL0     C46342  10.241   1.404   2.651 -1.2265  0.1778  0.9807
  352MOL0     C46343  10.209   1.336   2.780  0.2456  0.4775  0.0396
  352MOL0     C46344  10.258   1.186   2.781 -1.1115 -0.5899 -0.0426
  352MOL0     C46345  10.257   1.133   2.926 -0.7179  0.8928 -0.0186
  352MOL0     C46346  10.133   1.072   2.969  0.0485  0.0480 -0.1132
  352MOL0     C46347  10.101   0.940   2.910 -0.2585  0.5372  0.7355
  352MOL0     C46348   9.984   0.886   2.973  0.8653 -0.0214 -0.9709
  352MOL0     N46349   9.936   0.764   2.899  0.8662 -0.6138  0.3227
  352MOL0     C46350  10.006   0.649   2.893 -0.1024  0.8504  0.2588
  352MOL0     C46351   9.927   0.553   2.837  0.8004 -0.0610  0.4078
  352MOL0     C46352   9.946   0.404   2.816 -0.1862 -0.3440  0.4700
  352MOL0     C46353   9.898   0.354   2.677  0.4734 -0.1686 -0.4767
  352MOL0     C46354   9.747   0.318   2.678  0.8788 -0.4380 -0.3674
  352MOL0     C46355   9.701   0.274   2.548  0.3564  0.0228  0.2189
  352MOL0     O46356   9.771   0.156   2.496  0.1901  0.6243  0.5365
  352MOL0     C46357   9.813   0.150   2.368 -0.3336 -0.6456 -0.0381
  352MOL0     C46358   9.748   0.057   2.282 -0.5296 -0.9037 -0.0003
  352MOL0     C46359   9.780   0.069   2.143  0.6100  0.8874 -0.6167
  352MOL0     C46360   9.876   0.154   2.089 -0.5185  0.6888 -0.5812
  352MOL0     C46361   9.905   0.162   1.945  0.1924 -0.6365 -0.3198
  352MOL0     O46362   9.996   0.253   1.909 -0.3949 -0.6321 -0.5755
  352MOL0     C46363  10.074   0.234   1.799 -0.3934 -0.1464  0.6470
  352MOL0     C46364  10.097   0.335   1.706  0.4019  0.6213 -0.6690
  352MOL0     C46365  10.182   0.310   1.598 -0.3438  0.2182  0.0408
  352MOL0     C46366  10.230   0.190   1.566 -0.3492  0.0098  0.7040
  352MOL0     O46367  10.309   0.193   1.455 -0.3511 -0.1165 -0.4410
  352MOL0     C46368  10.377   0.064   1.427  0.3105 -1.4235  0.4531
  352MOL0     C46369  10.294  -0.027   1.336 -0.6275  0.5989  0.0148
  352MOL0     C46370  10.385  -0.150   1.296 -0.5429 -0.1333  1.1677
  352MOL0     C46371  10.500  -0.108   1.205 -1.3685 -0.3236  1.0120
  352MOL0     C46372  10.554  -0.225   1.116 -0.2301 -0.4315  0.3383
  352MOL0     C46373  10.448  -0.245   0.997  0.1908  0.2174  0.9302
  352MOL0     C46374  10.491  -0.362   0.895 -0.2600 -0.3083 -0.2539
  352MOL0     C46375  10.402  -0.397   0.766 -0.0519  0.0591 -0.7668
  352MOL0    Cl46376  10.237  -0.424   0.825 -0.0693 -0.4651  0.0945
  352MOL0     C46377  10.195   0.080   1.648  0.4436 -0.4432  0.3051
  352MOL0     C46378  10.122   0.103   1.770  0.3545 -0.2430 -0.2127
  352MOL0     O46379   9.842   0.099   1.870  0.7044 -0.2425  0.5790
  352MOL0     C46380   9.949   0.232   2.186  0.1275 -0.0720  0.1543
  352MOL0     C46381   9.916   0.228   2.321  0.1620 -0.4414  0.4780
  352MOL0     N46382   9.805   0.626   2.814  0.3472  0.3714  0.1364
  352MOL0     N46383   9.820   0.748   2.847  1.4446 -0.7874 -0.6046
  352MOL0     C46384  10.281   1.807   2.390 -0.4971 -0.9463 -0.8116
  352MOL0     C46385  10.245   1.926   2.324  0.5801  0.4439 -1.5576
  352MOL0     C46386   9.981   2.252   2.175 -0.1196  0.3884 -0.7546
  352MOL0     C46387   9.916   2.310   2.288 -0.7423  0.2101  0.9120
  352MOL0     C46388   9.812   2.397   2.275 -0.3576 -0.1234 -0.0941
  352MOL0     C46389   9.757   2.427   2.150  0.7050  0.6187  0.1154
  352MOL0     O46390   9.651   2.514   2.128 -0.3237  0.0309 -0.2823
  352MOL0     C46391   9.628   2.616   2.224 -0.2248 -0.1427  0.0841
  352MOL0     C46392   9.510   2.580   2.316  0.0579  0.1763  0.4327
  352MOL0     C46393   9.374   2.591   2.247  0.1546 -0.1277  0.4880
  352MOL0     C46394   9.251   2.592   2.347  1.0474  0.4014 -0.1441
  352MOL0     C46395   9.117   2.562   2.269  0.5304  0.3021 -0.1863
  352MOL0     C46396   8.999   2.548   2.226  0.6304 -1.0965 -0.9059
  352MOL0     C46397   9.825   2.378   2.042 -0.1132 -1.0115 -0.2605
  352MOL0     C46398   9.928   2.284   2.055  0.2024  0.1985 -0.2098
  352MOL0     H46399   9.909   1.909   2.415 -0.3482  1.6918 -0.2800
  352MOL0     H46400   9.988   1.722   2.559  2.8081  1.9041  3.8699
  352MOL0     H46401  10.074   1.556   2.630  0.2682  4.1323 -0.2638
  352MOL0     H46402  10.228   1.597   2.724  1.4147  0.0650 -1.1458
  352MOL0     H46403  10.350   1.408   2.646 -1.2889  2.6478  0.1795
  352MOL0     H46404  10.208   1.350   2.562 -3.8194  2.5516  0.3624
  352MOL0     H46405  10.104   1.354   2.803  0.6368  1.9229  0.7961
  352MOL0     H46406  10.262   1.383   2.864 -1.1225 -1.2948  2.0178
  352MOL0     H46407  10.211   1.126   2.702  3.4387 -1.7737 -2.1428
  352MOL0     H46408  10.363   1.189   2.751 -1.6694  0.4918 -2.1127
  352MOL0     H46409  10.307   1.205   2.991  1.2597  1.9224 -2.4781
  352MOL0     H46410  10.330   1.051   2.932 -1.6537  0.1365  1.9131
  352MOL0     H46411  10.055   1.143   2.939  0.1831  0.7220  1.0599
  352MOL0     H46412  10.137   1.070   3.078  0.3831  2.6424 -0.0160
  352MOL0     H46413  10.073   0.960   2.806  1.1185  1.9287  0.6059
  352MOL0     H46414  10.185   0.871   2.922  1.4534  2.2167 -0.9468
  352MOL0     H46415   9.903   0.960   2.974  0.8837 -0.0036 -0.0423
  352MOL0     H46416  10.017   0.856   3.073  2.8116  1.4648 -1.1129
  352MOL0     H46417  10.103   0.630   2.938 -0.0470 -3.6035 -1.1867
  352MOL0     H46418   9.895   0.345   2.892  1.2364  1.6489  3.1185
  352MOL0     H46419  10.055   0.392   2.810  0.0937  2.1534 -0.8393
  352MOL0     H46420   9.953   0.260   2.665  1.6209  0.1506  1.7138
  352MOL0     H46421   9.921   0.428   2.600 -3.1605  0.6411 -0.9812
  352MOL0     H46422   9.725   0.251   2.761  0.2141 -0.6221 -0.6880
  352MOL0     H46423   9.693   0.408   2.711  1.3050 -0.4066  0.2792
  352MOL0     H46424   9.711   0.355   2.475 -0.5171  0.7108  0.8287
  352MOL0     H46425   9.593   0.254   2.550 -0.3488  3.1175 -1.0708
  352MOL0     H46426   9.671  -0.005   2.325 -3.3092  1.3357 -1.3816
  352MOL0     H46427   9.739  -0.008   2.079 -0.2943  0.4249  0.4877
  352MOL0     H46428  10.049   0.431   1.724  1.6191  0.7293  2.6437
  352MOL0     H46429  10.206   0.398   1.538 -0.4211 -0.0208 -0.3406
  352MOL0     H46430  10.401   0.023   1.525 -1.6485  2.6510  2.9353
  352MOL0     H46431  10.468   0.084   1.370 -0.1631 -0.3484  0.0297
  352MOL0     H46432  10.251   0.019   1.246 -0.3532  0.4761 -0.1795
  352MOL0     H46433  10.206  -0.055   1.396  0.7663  1.8915  2.8591
  352MOL0     H46434  10.322  -0.209   1.230  2.4739 -1.5064 -0.6784
  352MOL0     H46435  10.434  -0.209   1.374  0.2204 -1.2284 -0.1019
  352MOL0     H46436  10.468  -0.023   1.144  4.3690 -0.0822 -2.3357
  352MOL0     H46437  10.582  -0.063   1.262 -0.3374 -1.0824  0.1839
  352MOL0     H46438  10.552  -0.319   1.172 -2.5588 -1.2556 -0.9827
  352MOL0     H46439  10.656  -0.202   1.083 -0.0455  3.0931  2.8650
  352MOL0     H46440  10.448  -0.149   0.944  0.7090  0.0429  0.6088
  352MOL0     H46441  10.343  -0.266   1.021 -0.8216 -0.2565 -3.1741
  352MOL0     H46442  10.595  -0.361   0.862 -0.8106 -1.8758 -2.2765
  352MOL0     H46443  10.489  -0.456   0.951  1.7817 -1.0681 -1.3411
  352MOL0     H46444  10.431  -0.490   0.716 -1.5358 -3.3528  3.9928
  352MOL0     H46445  10.397  -0.314   0.694  2.5118 -0.9598 -2.2548
  352MOL0     H46446  10.224  -0.023   1.630 -4.2539 -1.8415 -0.5882
  352MOL0     H46447  10.104   0.016   1.834 -0.8982  1.3224  1.6743
  352MOL0     H46448  10.033   0.293   2.153 -0.9733  0.3120 -2.1526
  352MOL0     H46449   9.962   0.296   2.392 -0.7858  0.4017  0.3101
  352MOL0     H46450  10.387   1.787   2.388  0.2374  2.3562 -0.4860
  352MOL0     H46451  10.306   1.996   2.267  0.9361  0.3261 -1.3212
  352MOL0     H46452   9.962   2.297   2.385  1.6906  0.9665 -0.0776
  352MOL0     H46453   9.781   2.443   2.368  0.5187  3.0991 -1.2554
  352MOL0     H46454   9.601   2.710   2.174 -1.7850  1.4642  3.5793
  352MOL0     H46455   9.721   2.639   2.277  2.1206 -2.0556 -2.8431
  352MOL0     H46456   9.528   2.482   2.360 -0.4051  0.1672  0.5989
  352MOL0     H46457   9.518   2.653   2.398  0.7936  2.9876 -1.9610
  352MOL0     H46458   9.367   2.505   2.179 -2.3688  0.0975  0.3906
  352MOL0     H46459   9.365   2.683   2.188  1.0369 -2.6020 -3.9840
  352MOL0     H46460   9.270   2.517   2.423  1.2994 -0.5409 -1.1183
  352MOL0     H46461   9.253   2.691   2.394  0.7215 -0.7217  2.3703
  352MOL0     H46462   8.900   2.542   2.187 -0.2400  0.2703  0.9118
  352MOL0     H46463   9.782   2.407   1.947 -1.3027 -1.3505  0.1518
  352MOL0     H46464   9.947   2.240   1.958 -0.0798 -1.0310  0.2756
  353MOL0     O46465   6.901   9.932   7.693 -0.0705  0.1570  0.1549
  353MOL0     C46466   6.975  10.026   7.682  0.1011  0.2960 -0.5198
  353MOL0     O46467   6.940  10.157   7.678 -0.3614 -0.0427 -0.3176
  353MOL0     C46468   6.809  10.208   7.693  1.0009 -0.3748 -0.2678
  353MOL0     C46469   6.780  10.335   7.634 -0.0584  0.0643 -0.0038
  353MOL0     C46470   6.653  10.393   7.671  0.3566 -0.6823 -0.2285
  353MOL0     C46471   6.564  10.336   7.761 -0.6715 -0.1627 -0.2751
  353MOL0     O46472   6.445  10.397   7.787  0.3846 -0.8982  0.0637
  353MOL0     C46473   6.396  10.408   7.925 -0.0061  0.2514  0.5819
  353MOL0     C46474   6.471  10.522   7.998  1.0483  0.1043 -0.3375
  353MOL0     C46475   6.446  10.648   7.914 -0.4133 -0.5006  0.8615
  353MOL0     C46476   6.295  10.692   7.878 -0.2125  0.6462  0.0045
  353MOL0     C46477   6.283  10.835   7.820  0.6575  0.1185  0.0520
  353MOL0     C46478   6.352  10.860   7.692 -0.9440  0.6264  1.0651
  353MOL0     C46479   6.332  10.754   7.592 -0.7516  0.0828 -0.2935
  353MOL0     C46480   6.190  10.735   7.543 -0.2072  0.8494 -0.6013
  353MOL0     N46481   6.197  10.639   7.432  0.1469 -0.3578  0.1605
  353MOL0     C46482   6.197  10.504   7.430 -0.5336 -0.2008 -0.0844
  353MOL0     C46483   6.162  10.478   7.306 -1.7767  0.1408  0.2015
  353MOL0     C46484   6.141  10.336   7.258 -0.6380 -0.0690 -0.6883
  353MOL0     C46485   5.990  10.311   7.206 -0.0285 -0.5231 -0.6651
  353MOL0     C46486   5.896  10.343   7.324 -0.3064  0.4344 -0.1356
  353MOL0     C46487   5.754  10.289   7.292 -0.2104  0.4782  0.0200
  353MOL0     O46488   5.747  10.148   7.254 -0.0698  0.0679 -0.0471
  353MOL0     C46489   5.642  10.073   7.288 -0.0086 -0.6072 -0.2916
  353MOL0     C46490   5.658   9.951   7.341  0.3678  0.9697  0.0251
  353MOL0     C46491   5.555   9.862   7.377  1.1745 -1.1668  0.1106
  353MOL0     C46492   5.424   9.909   7.341  0.8020  0.0831 -0.3235
  353MOL0     C46493   5.309   9.828   7.351  0.3610  0.7245  0.3579
  353MOL0     O46494   5.183   9.878   7.320 -0.1378 -0.3986 -0.4181
  353MOL0     C46495   5.070   9.814   7.318  1.5368 -0.1821 -0.2959
  353MOL0     C46496   4.953   9.895   7.325  0.2847  0.3632  0.8871
  353MOL0     C46497   4.822   9.840   7.339 -0.0672 -0.2105 -0.1940
  353MOL0     C46498   4.803   9.706   7.349  1.3344  0.2135  0.4800
  353MOL0     O46499   4.680   9.635   7.355 -0.0238  0.2353  0.4086
  353MOL0     C46500   4.563   9.698   7.409 -0.4525  0.4697 -0.0032
  353MOL0     C46501   4.448   9.596   7.427  1.3290  0.3301  1.0070
  353MOL0     C46502   4.363   9.559   7.298  0.0665  0.3976  0.3355
  353MOL0     C46503   4.429   9.458   7.204  0.4993  0.4442 -0.0601
  353MOL0     C46504   4.498   9.333   7.268 -0.4855  0.5358 -0.5358
  353MOL0     C46505   4.530   9.225   7.167 -1.5287 -0.0883 -1.0919
  353MOL0     C46506   4.573   9.101   7.240 -1.2939  0.5708 -0.1320
  353MOL0     C46507   4.654   9.003   7.154 -0.4086 -0.1155 -0.2237
  353MOL0    Cl46508   4.553   8.952   7.017  0.1493  0.0791  0.4007
  353MOL0     C46509   4.916   9.622   7.343 -0.1525  0.2965  0.2522
  353MOL0     C46510   5.047   9.672   7.329 -0.2417 -0.0760  0.5849
  353MOL0     O46511   5.326   9.710   7.385  0.0572 -0.5343 -0.1684
  353MOL0     C46512   5.405  10.044   7.300 -0.5842  0.4069  0.0313
  353MOL0     C46513   5.513  10.123   7.274 -0.8607 -0.0062 -0.5968
  353MOL0     N46514   6.150  10.586   7.225  0.2813 -0.2007 -0.0702
  353MOL0     N46515   6.163  10.685   7.304 -1.2756 -0.2148  0.3609
  353MOL0     C46516   6.586  10.201   7.805 -0.1538  0.2630  0.6331
  353MOL0     C46517   6.702  10.138   7.767 -0.0380  0.4334 -0.2143
  353MOL0     C46518   7.123  10.000   7.673  0.8233  0.4049  0.2354
  353MOL0     C46519   7.159   9.869   7.683  0.2423  0.1167 -0.1752
  353MOL0     C46520   7.293   9.838   7.688 -0.8197 -0.0827  0.7831
  353MOL0     C46521   7.391   9.937   7.675 -0.4215 -0.6213 -0.7203
  353MOL0     O46522   7.528   9.921   7.703 -0.1113  0.0553  0.3069
  353MOL0     C46523   7.586   9.794   7.657 -0.2096 -0.3553 -0.5308
  353MOL0     C46524   7.554   9.758   7.512  0.3960 -0.4933 -0.0557
  353MOL0     C46525   7.667   9.799   7.423  0.1822 -0.2948 -0.3989
  353MOL0     C46526   7.689   9.949   7.415  0.8884 -0.5836  0.1621
  353MOL0     C46527   7.562  10.022   7.368 -0.3619 -0.0009  0.0094
  353MOL0     C46528   7.456  10.070   7.337  0.0997  0.6317  0.1308
  353MOL0     C46529   7.354  10.075   7.655  0.6914  0.2617  0.9507
  353MOL0     C46530   7.217  10.112   7.659 -0.0498 -0.2730 -0.1378
  353MOL0     H46531   6.848  10.394   7.573 -0.2042  0.3692  0.1256
  353MOL0     H46532   6.611  10.488   7.638 -1.9982 -1.9145 -1.0550
  353MOL0     H46533   6.400  10.311   7.976  0.0284 -1.9778 -3.2790
  353MOL0     H46534   6.288  10.422   7.917 -0.1992  0.0095  2.3117
  353MOL0     H46535   6.576  10.495   8.003  1.0770  0.1449 -0.6651
  353MOL0     H46536   6.429  10.543   8.097  0.3762 -2.0007 -0.1223
  353MOL0     H46537   6.493  10.639   7.816 -0.3871 -0.4126  0.8654
  353MOL0     H46538   6.493  10.722   7.980  2.1408 -3.4512  2.6478
  353MOL0     H46539   6.251  10.610   7.821 -3.7431  1.4247  1.3624
  353MOL0     H46540   6.241  10.678   7.971 -1.4627 -0.4355 -0.8454
  353MOL0     H46541   6.319  10.906   7.895  0.2264  1.5144 -1.0166
  353MOL0     H46542   6.177  10.855   7.800  0.5799 -0.0070  0.3410
  353MOL0     H46543   6.459  10.861   7.717 -0.4837  1.7780 -0.7328
  353MOL0     H46544   6.341  10.960   7.649  5.9034  1.1786 -0.5804
  353MOL0     H46545   6.405  10.783   7.515  3.1201  1.9927  3.6960
  353MOL0     H46546   6.358  10.653   7.625 -2.6765 -0.9794 -1.8280
  353MOL0     H46547   6.145  10.831   7.516 -0.0466  1.0648 -0.0998
  353MOL0     H46548   6.126  10.697   7.623  2.0086  3.1165  2.4480
  353MOL0     H46549   6.196  10.452   7.525  1.3226  4.2246  2.6918
  353MOL0     H46550   6.167  10.272   7.342  0.8409 -0.2016 -1.2188
  353MOL0     H46551   6.210  10.312   7.177  1.3984  0.7159  0.7476
  353MOL0     H46552   5.969  10.206   7.181 -3.6866 -0.9562  3.0277
  353MOL0     H46553   5.955  10.382   7.132 -0.7555  1.4065  1.4219
  353MOL0     H46554   5.933  10.289   7.412  2.0570  1.5803 -0.3350
  353MOL0     H46555   5.896  10.448   7.356 -1.5380  0.0613  1.2177
  353MOL0     H46556   5.714  10.351   7.211  0.6653 -1.9552 -2.4274
  353MOL0     H46557   5.679  10.300   7.371 -1.4177 -4.3454 -0.1484
  353MOL0     H46558   5.764   9.932   7.357  0.0849  0.0562  0.8724
  353MOL0     H46559   5.579   9.767   7.423  0.4570 -0.7422  1.4095
  353MOL0     H46560   4.974  10.001   7.316 -1.6354  0.5750 -2.3731
  353MOL0     H46561   4.733   9.901   7.333 -0.8383 -1.0852  1.5278
  353MOL0     H46562   4.530   9.782   7.347 -1.3206  0.7626  0.8170
  353MOL0     H46563   4.588   9.740   7.507  1.2379 -0.9497  0.2229
  353MOL0     H46564   4.371   9.643   7.488 -0.3882 -0.5555 -0.3848
  353MOL0     H46565   4.486   9.508   7.482 -0.5161 -2.5587 -1.9833
  353MOL0     H46566   4.350   9.654   7.246 -1.9824  1.9431  3.4000
  353MOL0     H46567   4.266   9.523   7.333  1.1921 -0.2178  3.1724
  353MOL0     H46568   4.353   9.425   7.134 -0.6481  1.5043  0.6421
  353MOL0     H46569   4.506   9.513   7.149  0.9369 -0.0210  0.0789
  353MOL0     H46570   4.421   9.296   7.336  0.3193  1.3511  0.8730
  353MOL0     H46571   4.588   9.352   7.328  0.6568 -2.5892 -1.0783
  353MOL0     H46572   4.619   9.265   7.118 -0.9696  1.8672  1.3213
  353MOL0     H46573   4.445   9.207   7.100 -1.2973  1.7196 -1.9461
  353MOL0     H46574   4.626   9.116   7.335  2.2799 -1.3694 -1.6362
  353MOL0     H46575   4.478   9.051   7.261 -1.5134  0.3675 -1.5739
  353MOL0     H46576   4.687   8.918   7.214 -1.4573 -1.1433 -1.0361
  353MOL0     H46577   4.747   9.049   7.121  1.0860 -2.8843 -0.1878
  353MOL0     H46578   4.909   9.515   7.359  0.4297  0.1002 -0.7441
  353MOL0     H46579   5.132   9.605   7.327  0.7014  0.9646  2.3303
  353MOL0     H46580   5.306  10.076   7.270 -0.3860  0.5016 -0.5254
  353MOL0     H46581   5.499  10.222   7.233  2.2351  0.1082 -1.6098
  353MOL0     H46582   6.518  10.154   7.875  2.2259 -1.7178  1.7986
  353MOL0     H46583   6.713  10.038   7.808 -0.9185 -0.2619 -1.6135
  353MOL0     H46584   7.092   9.787   7.706  0.3766  0.9939  4.1350
  353MOL0     H46585   7.316   9.735   7.712  0.4909 -0.2468 -1.0049
  353MOL0     H46586   7.552   9.719   7.729  1.8631  0.6443  1.6446
  353MOL0     H46587   7.691   9.807   7.683 -0.6100  0.0232  1.0179
  353MOL0     H46588   7.557   9.649   7.502 -0.5557 -0.3537 -2.2869
  353MOL0     H46589   7.457   9.793   7.477  1.3358  1.1862 -1.0949
  353MOL0     H46590   7.654   9.773   7.318  0.0240  1.5573 -0.8738
  353MOL0     H46591   7.761   9.751   7.455 -0.2989 -0.6997  0.4496
  353MOL0     H46592   7.721   9.987   7.513 -0.4866 -0.0909  0.4598
  353MOL0     H46593   7.764   9.962   7.337  1.7236  0.7557  1.1484
  353MOL0     H46594   7.369  10.124   7.307 -2.3099 -1.5165  2.6694
  353MOL0     H46595   7.415  10.165   7.655  1.3286 -0.1471  0.0062
  353MOL0     H46596   7.183  10.213   7.640 -0.1910 -0.3591 -0.3532
  354MOL0     O46597   3.538   6.509   6.865 -0.8997  0.6699  0.5558
  354MOL0     C46598   3.654   6.508   6.821  0.3174  0.0602  0.2864
  354MOL0     O46599   3.712   6.404   6.759 -0.1069  0.1897  0.6521
  354MOL0     C46600   3.629   6.309   6.699  0.1669  0.1126 -0.0330
  354MOL0     C46601   3.648   6.170   6.732  0.1701 -0.3388 -0.4140
  354MOL0     C46602   3.582   6.076   6.657 -0.3257 -0.3557  1.1528
  354MOL0     C46603   3.484   6.112   6.558  0.2386 -0.5006 -0.2075
  354MOL0     O46604   3.403   6.011   6.508 -0.7411 -0.0768 -0.1371
  354MOL0     C46605   3.458   5.924   6.405  0.5580 -0.8594  0.4685
  354MOL0     C46606   3.340   5.884   6.317 -0.6624 -0.2155  0.1735
  354MOL0     C46607   3.295   5.992   6.225 -0.6131 -0.2919  0.0041
  354MOL0     C46608   3.170   5.948   6.150  0.9716 -0.0348  0.3844
  354MOL0     C46609   3.115   6.062   6.069 -0.9694 -0.2106  0.2620
  354MOL0     C46610   2.996   5.996   5.993 -0.2108  0.0950  0.8685
  354MOL0     C46611   2.884   5.955   6.082  0.1081  0.9734  0.6205
  354MOL0     C46612   2.753   5.996   6.026  0.1468  0.0139 -0.6013
  354MOL0     N46613   2.709   6.128   6.075  0.2585 -0.5122  0.4429
  354MOL0     C46614   2.705   6.237   5.990 -1.0064  0.4947 -0.1157
  354MOL0     C46615   2.639   6.328   6.064 -1.1335 -0.3616  0.2121
  354MOL0     C46616   2.602   6.465   6.037 -0.7638 -0.3062  0.3063
  354MOL0     C46617   2.455   6.497   6.044  0.4138 -0.3202  0.3216
  354MOL0     C46618   2.425   6.645   6.001 -0.0652  0.2306  0.8313
  354MOL0     C46619   2.293   6.710   6.069  0.1887  0.2134  0.0338
  354MOL0     O46620   2.176   6.627   6.035  0.3519 -1.1353 -0.1613
  354MOL0     C46621   2.097   6.654   5.925  0.2650 -0.2869 -0.2830
  354MOL0     C46622   2.081   6.783   5.871 -1.4540 -0.0552  0.2562
  354MOL0     C46623   2.001   6.798   5.762  0.1488  1.0301 -0.3281
  354MOL0     C46624   1.938   6.692   5.695  0.2466 -0.3870  1.0030
  354MOL0     C46625   1.858   6.710   5.580  0.6015 -0.9150 -0.2851
  354MOL0     O46626   1.782   6.599   5.543 -0.1020 -0.0220 -0.3954
  354MOL0     C46627   1.713   6.611   5.441  0.7511 -0.4051  0.6667
  354MOL0     C46628   1.761   6.577   5.321 -0.4243  0.0351  0.2316
  354MOL0     C46629   1.687   6.599   5.204 -0.3653 -0.3493  0.2192
  354MOL0     C46630   1.566   6.661   5.212  0.0705  0.1415  0.6015
  354MOL0     O46631   1.501   6.670   5.092  0.4921  0.1968 -0.4850
  354MOL0     C46632   1.385   6.753   5.090 -0.0114  0.3125 -0.0251
  354MOL0     C46633   1.321   6.751   4.954  0.5468  0.1811  0.3159
  354MOL0     C46634   1.191   6.827   4.946  0.1034 -0.5481  0.5740
  354MOL0     C46635   1.142   6.820   4.802 -0.5951 -0.2111  0.2823
  354MOL0     C46636   0.983   6.838   4.790  0.1422 -0.1518  0.3784
  354MOL0     C46637   0.940   6.842   4.636 -0.0900 -0.5749 -0.7846
  354MOL0     C46638   0.794   6.880   4.613 -0.4851 -0.8563 -0.2197
  354MOL0     C46639   0.729   6.819   4.497  0.4338 -0.6345 -0.8083
  354MOL0    Cl46640   0.811   6.861   4.351 -0.3798  0.2545 -0.0280
  354MOL0     C46641   1.517   6.704   5.334 -0.2887  0.1776  0.0054
  354MOL0     C46642   1.584   6.667   5.451 -0.3697  0.6854 -0.1113
  354MOL0     O46643   1.861   6.813   5.511 -0.2101  0.4100  0.4705
  354MOL0     C46644   1.960   6.561   5.752 -0.1920  0.1722  0.2979
  354MOL0     C46645   2.031   6.553   5.866 -0.1635  0.9167  0.3775
  354MOL0     N46646   2.594   6.263   6.185  0.0651 -0.3751 -0.6530
  354MOL0     N46647   2.647   6.146   6.194  0.4958  0.4691  0.4363
  354MOL0     C46648   3.449   6.254   6.542  0.7545  0.8572  0.6164
  354MOL0     C46649   3.527   6.349   6.604 -0.3803 -0.8880  0.6080
  354MOL0     C46650   3.743   6.624   6.861 -0.1384  0.5175 -0.2676
  354MOL0     C46651   3.876   6.626   6.814 -0.6390 -1.0939  1.6170
  354MOL0     C46652   3.966   6.732   6.841  0.5432  0.3552 -0.2263
  354MOL0     C46653   3.921   6.851   6.897 -0.2698 -0.6726  0.8348
  354MOL0     O46654   4.006   6.953   6.922 -0.1450  1.0176 -1.1447
  354MOL0     C46655   3.988   7.028   7.038 -0.7700 -0.5134 -0.4552
  354MOL0     C46656   4.102   7.130   7.066  0.8124  1.0926 -0.5082
  354MOL0     C46657   4.087   7.206   7.196 -0.4652 -1.2267 -0.3298
  354MOL0     C46658   4.141   7.352   7.193  0.0882 -0.9204  0.9746
  354MOL0     C46659   4.284   7.366   7.226 -0.4900 -0.2070 -0.9202
  354MOL0     C46660   4.398   7.377   7.230 -0.3672 -0.1410  0.1752
  354MOL0     C46661   3.789   6.849   6.942  0.6833 -0.1252 -0.5300
  354MOL0     C46662   3.705   6.739   6.929  0.0815  0.3646  0.4052
  354MOL0     H46663   3.727   6.141   6.801  0.8663  1.5954 -0.3377
  354MOL0     H46664   3.604   5.972   6.681 -0.6579 -0.7492 -0.1496
  354MOL0     H46665   3.502   5.834   6.448 -0.2988 -0.3103  2.6030
  354MOL0     H46666   3.533   5.975   6.344 -1.2001  0.5485 -0.6361
  354MOL0     H46667   3.261   5.859   6.388  0.1266 -0.3190  1.0412
  354MOL0     H46668   3.364   5.801   6.251 -1.0351  0.5354 -0.9327
  354MOL0     H46669   3.373   6.014   6.152 -0.4677 -2.3891 -0.5456
  354MOL0     H46670   3.271   6.075   6.291  1.1048  0.8030 -0.6854
  354MOL0     H46671   3.192   5.860   6.088 -0.1266 -0.0833  0.0393
  354MOL0     H46672   3.095   5.921   6.224 -0.4482 -0.3781 -1.1286
  354MOL0     H46673   3.169   6.113   5.989 -0.2502  1.3410  1.6849
  354MOL0     H46674   3.072   6.136   6.137  1.0885  0.8478  0.4590
  354MOL0     H46675   3.014   5.905   5.934 -4.2579 -0.6393  0.4664
  354MOL0     H46676   2.966   6.070   5.918 -1.4537  0.1947  1.4389
  354MOL0     H46677   2.889   5.846   6.083 -1.5103  0.8334 -1.4766
  354MOL0     H46678   2.884   5.987   6.187 -0.5877 -0.1759  0.9883
  354MOL0     H46679   2.687   5.913   6.054  1.4065 -0.1337  2.2396
  354MOL0     H46680   2.750   5.997   5.917  2.3341 -1.0689 -0.7059
  354MOL0     H46681   2.744   6.250   5.890 -1.6774 -0.0915 -0.4623
  354MOL0     H46682   2.651   6.479   5.941 -3.6455 -3.1091 -1.7766
  354MOL0     H46683   2.648   6.531   6.112  1.3050 -0.2000 -0.9953
  354MOL0     H46684   2.407   6.480   6.141 -2.7519 -5.3547 -1.7170
  354MOL0     H46685   2.401   6.435   5.972 -1.2426  0.0639  1.1892
  354MOL0     H46686   2.512   6.710   6.018 -1.6860  2.5650  0.7045
  354MOL0     H46687   2.411   6.651   5.892  2.0204 -1.3711  0.4026
  354MOL0     H46688   2.282   6.816   6.042  1.0650  0.5786  1.0583
  354MOL0     H46689   2.301   6.708   6.178 -2.2202 -2.2812  0.2979
  354MOL0     H46690   2.136   6.865   5.915  0.4521 -1.6964  1.0743
  354MOL0     H46691   1.984   6.897   5.719 -0.2790  1.5594  1.0203
  354MOL0     H46692   1.863   6.542   5.328  0.5043  2.6406  0.8385
  354MOL0     H46693   1.733   6.553   5.117  1.9795 -2.1301  2.2218
  354MOL0     H46694   1.405   6.857   5.116 -1.3002  0.4935  0.3166
  354MOL0     H46695   1.313   6.706   5.158 -0.4609 -0.5589 -1.0578
  354MOL0     H46696   1.302   6.647   4.926 -1.7626  0.3144  1.2036
  354MOL0     H46697   1.395   6.788   4.882 -1.0865  0.6687 -1.1776
  354MOL0     H46698   1.193   6.929   4.984 -0.7623 -1.2887  2.7879
  354MOL0     H46699   1.116   6.777   5.008 -0.1648 -0.5607  0.2412
  354MOL0     H46700   1.196   6.893   4.741 -2.3820  1.5433  0.6751
  354MOL0     H46701   1.170   6.722   4.764  0.9795  0.1495  0.4433
  354MOL0     H46702   0.954   6.924   4.851 -0.6588 -1.3410  1.7551
  354MOL0     H46703   0.943   6.750   4.841  1.7232 -1.1097  0.0327
  354MOL0     H46704   0.953   6.740   4.598 -0.5452 -1.0543  0.3024
  354MOL0     H46705   0.999   6.919   4.586 -2.8014  1.9327 -0.4280
  354MOL0     H46706   0.735   6.853   4.701 -3.4983  0.0658 -1.8053
  354MOL0     H46707   0.781   6.988   4.605 -0.2123 -0.8133 -0.0776
  354MOL0     H46708   0.629   6.865   4.490  2.1822  3.5777 -1.3722
  354MOL0     H46709   0.726   6.714   4.528 -0.2314  0.0841  1.8546
  354MOL0     H46710   1.420   6.751   5.349 -0.0053  0.8326 -0.1832
  354MOL0     H46711   1.545   6.692   5.549 -0.3768  1.5238 -0.3258
  354MOL0     H46712   1.921   6.470   5.708 -1.1463  0.7207 -0.0109
  354MOL0     H46713   2.034   6.457   5.915  0.0816 -0.5111 -2.2506
  354MOL0     H46714   3.359   6.276   6.486  0.1386  0.8328  1.5568
  354MOL0     H46715   3.507   6.452   6.576  1.6549 -0.8255 -0.8166
  354MOL0     H46716   3.917   6.547   6.752  0.5269 -0.4236  1.5108
  354MOL0     H46717   4.066   6.726   6.801 -0.1843  1.4154 -2.3908
  354MOL0     H46718   3.991   6.961   7.124 -0.0816  2.3630  1.9073
  354MOL0     H46719   3.895   7.085   7.037  0.9393  2.6625 -3.8321
  354MOL0     H46720   4.199   7.079   7.067  0.1792 -0.1993  1.7192
  354MOL0     H46721   4.096   7.197   6.979  1.1121  2.3374  0.3963
  354MOL0     H46722   4.127   7.148   7.280 -3.3534 -1.9475  0.6475
  354MOL0     H46723   3.983   7.212   7.229 -0.6865 -1.2360 -1.0098
  354MOL0     H46724   4.106   7.400   7.101  3.3762  0.7844  0.4287
  354MOL0     H46725   4.085   7.401   7.273  1.2587  0.7306  0.8251
  354MOL0     H46726   4.502   7.394   7.252 -0.0356  1.8565 -2.3598
  354MOL0     H46727   3.740   6.934   6.989  0.2663 -0.1983 -0.8361
  354MOL0     H46728   3.603   6.744   6.964 -0.0963 -0.9245  0.1320
  355MOL0     O46729   1.792   4.559   7.227 -0.7794  0.7359  0.3367
  355MOL0     C46730   1.867   4.543   7.330 -0.0931 -0.8348  0.4193
  355MOL0     O46731   1.833   4.495   7.463  0.0880 -0.1768  1.0204
  355MOL0     C46732   1.720   4.416   7.480  1.0232 -0.3827 -0.3620
  355MOL0     C46733   1.634   4.425   7.594 -0.5974 -0.7245  0.0934
  355MOL0     C46734   1.525   4.329   7.602 -0.5484  0.1818 -0.9151
  355MOL0     C46735   1.495   4.236   7.512 -0.4239 -0.2232 -0.8610
  355MOL0     O46736   1.385   4.161   7.546 -0.5891  0.4425 -0.1404
  355MOL0     C46737   1.365   4.040   7.477 -0.7781 -0.0675 -0.2800
  355MOL0     C46738   1.231   3.982   7.509  0.9067  0.5023  0.2204
  355MOL0     C46739   1.203   3.863   7.420  0.7043 -0.1534 -0.7152
  355MOL0     C46740   1.053   3.855   7.391 -0.1513  0.6291 -0.2592
  355MOL0     C46741   1.009   3.719   7.337  0.2406 -0.3139  0.3775
  355MOL0     C46742   0.861   3.716   7.277  0.1199  0.4995 -0.6928
  355MOL0     C46743   0.827   3.570   7.257 -0.1728  0.0852  0.0478
  355MOL0     C46744   0.689   3.542   7.238  0.0121 -0.6588  0.4533
  355MOL0     N46745   0.632   3.620   7.120 -0.5340  0.1885  0.5879
  355MOL0     C46746   0.560   3.737   7.117  0.6674  0.7498  0.7629
  355MOL0     C46747   0.509   3.745   6.985  0.1164 -0.3433  0.1965
  355MOL0     C46748   0.416   3.838   6.929  0.7242  0.4131 -0.0790
  355MOL0     C46749   0.288   3.762   6.882 -0.5903 -1.3152 -0.5542
  355MOL0     C46750   0.176   3.863   6.872  0.1178 -1.2417 -0.3821
  355MOL0     C46751   0.058   3.812   6.791  1.2753  0.3894  0.3786
  355MOL0     O46752  -0.046   3.904   6.803  0.8783 -1.2031 -0.3711
  355MOL0     C46753  -0.172   3.863   6.792  0.4425 -0.3571 -0.5299
  355MOL0     C46754  -0.224   3.761   6.699  0.0435  0.0020 -0.6801
  355MOL0     C46755  -0.362   3.741   6.698  0.3121 -0.4923  0.5297
  355MOL0     C46756  -0.459   3.818   6.766 -0.1257  0.2062 -0.2657
  355MOL0     C46757  -0.602   3.797   6.751  0.5687  0.1731  0.2122
  355MOL0     O46758  -0.675   3.861   6.852  0.3307  0.1652 -0.8346
  355MOL0     C46759  -0.790   3.797   6.884 -0.2897  0.5549  0.3694
  355MOL0     C46760  -0.802   3.681   6.971  0.5060  1.0235 -0.1817
  355MOL0     C46761  -0.922   3.610   6.983  0.3361  0.3475 -0.0764
  355MOL0     C46762  -1.036   3.665   6.926  0.7365 -0.8596  0.1970
  355MOL0     O46763  -1.171   3.626   6.938 -0.5709 -0.2846  0.8382
  355MOL0     C46764  -1.196   3.537   7.057 -0.3326  0.0258 -0.1848
  355MOL0     C46765  -1.335   3.562   7.102  0.6516 -0.0121  0.3039
  355MOL0     C46766  -1.441   3.561   6.989  0.3451  0.0986 -0.2483
  355MOL0     C46767  -1.588   3.580   7.040 -1.1007 -0.3212  0.3906
  355MOL0     C46768  -1.669   3.552   6.912 -0.3317  0.4520 -0.1553
  355MOL0     C46769  -1.817   3.604   6.932 -0.8324 -0.3097  0.2141
  355MOL0     C46770  -1.904   3.560   6.817 -0.3706  0.2177 -0.7644
  355MOL0     C46771  -2.031   3.648   6.819  0.7940  0.1545 -1.3247
  355MOL0    Cl46772  -2.100   3.631   6.985 -0.3760  0.2691  0.0620
  355MOL0     C46773  -1.026   3.777   6.850  1.5276  0.0609  1.5751
  355MOL0     C46774  -0.905   3.840   6.816 -0.7673 -0.5262 -0.2392
  355MOL0     O46775  -0.650   3.735   6.657 -0.0157  0.1935 -0.1688
  355MOL0     C46776  -0.405   3.912   6.858  0.0437 -0.8640  0.0668
  355MOL0     C46777  -0.268   3.936   6.866  0.3942  0.5064  0.6188
  355MOL0     N46778   0.566   3.640   6.917 -0.0673  0.5826 -0.2773
  355MOL0     N46779   0.635   3.566   6.996 -0.3631  0.6092 -0.3554
  355MOL0     C46780   1.592   4.222   7.411 -0.5663 -0.4369  0.0983
  355MOL0     C46781   1.696   4.306   7.397  0.6340  0.2957  0.0052
  355MOL0     C46782   2.005   4.604   7.320 -0.6031 -0.3778 -0.8716
  355MOL0     C46783   2.059   4.640   7.193 -0.1627  0.5906 -0.3766
  355MOL0     C46784   2.184   4.696   7.179  0.0186 -0.3560 -1.1252
  355MOL0     C46785   2.265   4.739   7.288  0.0312  0.7254  1.0824
  355MOL0     O46786   2.386   4.810   7.266 -0.4088 -0.1391  0.2983
  355MOL0     C46787   2.481   4.794   7.368 -0.1767 -0.2263 -1.1752
  355MOL0     C46788   2.621   4.833   7.320  0.9888 -0.7676 -0.1447
  355MOL0     C46789   2.637   4.990   7.310  0.0807  0.1578 -0.0274
  355MOL0     C46790   2.764   5.027   7.224 -1.0061 -0.8355 -0.6546
  355MOL0     C46791   2.792   5.168   7.232  0.0913 -0.6702 -0.3458
  355MOL0     C46792   2.798   5.289   7.222 -0.1618 -0.1012 -0.1603
  355MOL0     C46793   2.204   4.716   7.421 -0.2414  0.3077  0.9392
  355MOL0     C46794   2.077   4.651   7.432 -0.1340 -0.1128 -0.1663
  355MOL0     H46795   1.635   4.506   7.666 -1.2561 -0.2362 -0.4325
  355MOL0     H46796   1.465   4.343   7.691  6.6510  3.3857  4.3882
  355MOL0     H46797   1.445   3.969   7.500  0.0162  0.3273 -1.7496
  355MOL0     H46798   1.374   4.062   7.371 -2.3256  2.6993  0.0583
  355MOL0     H46799   1.148   4.052   7.504 -2.5025 -3.1778  0.4522
  355MOL0     H46800   1.230   3.942   7.611  0.7245  3.2774  1.3881
  355MOL0     H46801   1.229   3.772   7.474  2.4034 -0.5377 -2.0669
  355MOL0     H46802   1.256   3.850   7.325 -2.5753 -2.9190 -2.3823
  355MOL0     H46803   1.006   3.876   7.487  3.1182 -1.4988  2.0316
  355MOL0     H46804   1.048   3.932   7.314  3.8091  0.0203 -1.3707
  355MOL0     H46805   1.026   3.650   7.420 -2.7174  0.3466  1.6510
  355MOL0     H46806   1.072   3.685   7.254 -0.3014 -1.2104  0.3112
  355MOL0     H46807   0.860   3.780   7.188  1.0900  1.1957 -0.2187
  355MOL0     H46808   0.800   3.757   7.357  0.9372  3.0647 -1.3132
  355MOL0     H46809   0.889   3.527   7.178  0.1597 -2.0650  1.3911
  355MOL0     H46810   0.848   3.521   7.353 -0.8525 -0.1285  0.0907
  355MOL0     H46811   0.637   3.588   7.323  1.2266 -0.7052  1.2560
  355MOL0     H46812   0.651   3.440   7.230  0.1557 -0.6823  0.0237
  355MOL0     H46813   0.553   3.802   7.203 -2.8267 -2.0868  2.8974
  355MOL0     H46814   0.463   3.887   6.843  0.5465  0.6636 -0.0350
  355MOL0     H46815   0.391   3.909   7.009  1.3252  0.7774 -0.2042
  355MOL0     H46816   0.258   3.670   6.932 -1.7323 -0.7698 -0.1932
  355MOL0     H46817   0.305   3.731   6.779 -4.8852 -1.7956 -1.3398
  355MOL0     H46818   0.151   3.890   6.975 -2.0289 -1.0097 -0.9159
  355MOL0     H46819   0.212   3.956   6.827  0.3352 -0.7084  0.8492
  355MOL0     H46820   0.027   3.713   6.825  0.6530 -0.8261 -3.2486
  355MOL0     H46821   0.075   3.796   6.684 -1.9625 -0.0985 -0.1537
  355MOL0     H46822  -0.155   3.705   6.637  0.9806 -1.1692  1.2877
  355MOL0     H46823  -0.393   3.662   6.630  2.5771  0.4513 -1.7505
  355MOL0     H46824  -0.720   3.637   7.027  0.9302  3.0324  0.8490
  355MOL0     H46825  -0.929   3.505   7.010 -1.8576 -0.9191 -4.6329
  355MOL0     H46826  -1.135   3.594   7.128 -1.2327  0.8769 -0.0740
  355MOL0     H46827  -1.169   3.433   7.037 -0.3399  0.0340 -0.2365
  355MOL0     H46828  -1.344   3.663   7.143  0.8285  0.5208 -0.9359
  355MOL0     H46829  -1.347   3.477   7.170 -0.8008 -0.1330 -0.0592
  355MOL0     H46830  -1.436   3.476   6.920  0.2870  0.7403 -1.0722
  355MOL0     H46831  -1.441   3.645   6.919  0.7923 -0.0521 -0.4360
  355MOL0     H46832  -1.621   3.508   7.116 -1.4841  2.2207  2.8019
  355MOL0     H46833  -1.597   3.681   7.082  1.5233  1.7171 -3.3570
  355MOL0     H46834  -1.669   3.444   6.897  0.1953  0.6862 -2.2790
  355MOL0     H46835  -1.621   3.601   6.826  0.4576  0.4858  0.2954
  355MOL0     H46836  -1.825   3.713   6.944 -2.7157 -0.5620  1.5981
  355MOL0     H46837  -1.859   3.568   7.026 -3.5723  3.5218  0.6856
  355MOL0     H46838  -1.861   3.578   6.718  0.1905  4.8937  0.1022
  355MOL0     H46839  -1.918   3.453   6.833  0.0894  0.3595  0.6929
  355MOL0     H46840  -2.118   3.618   6.759 -0.7419  0.4054  0.6873
  355MOL0     H46841  -2.010   3.752   6.793 -0.2961  0.4245 -1.1897
  355MOL0     H46842  -1.113   3.821   6.801  1.6699  1.6041  2.6260
  355MOL0     H46843  -0.901   3.919   6.742  3.5653 -1.4817 -1.3215
  355MOL0     H46844  -0.486   3.953   6.918 -1.6120 -0.0120 -2.5866
  355MOL0     H46845  -0.230   4.008   6.938 -1.9809 -0.5382  3.1062
  355MOL0     H46846   1.590   4.140   7.340 -0.2137  0.6173 -1.1722
  355MOL0     H46847   1.776   4.285   7.327  1.2639  3.0840 -0.2136
  355MOL0     H46848   2.001   4.604   7.109  1.1905 -3.3184  0.1459
  355MOL0     H46849   2.225   4.715   7.080  0.0758 -0.3350 -1.0976
  355MOL0     H46850   2.480   4.687   7.388 -0.8626 -0.2702 -1.4134
  355MOL0     H46851   2.461   4.848   7.461  0.5506  2.1934 -2.3459
  355MOL0     H46852   2.698   4.788   7.384  0.0610 -1.0436  0.8019
  355MOL0     H46853   2.631   4.785   7.222 -2.2082  1.8584 -1.9143
  355MOL0     H46854   2.647   5.039   7.407  0.0925 -0.0074  0.0559
  355MOL0     H46855   2.543   5.028   7.268 -0.4179 -0.3858  0.5860
  355MOL0     H46856   2.839   4.967   7.278 -2.5308 -1.3300  1.0547
  355MOL0     H46857   2.744   4.981   7.127  0.1013  0.6095 -1.5974
  355MOL0     H46858   2.786   5.395   7.229 -2.6299 -0.3807  0.5882
  355MOL0     H46859   2.258   4.751   7.509 -0.1465 -1.2563  1.5358
  355MOL0     H46860   2.034   4.633   7.531 -1.2947  2.3104 -0.1396
  356MOL0     O46861   4.305   7.081   9.976  0.8886 -0.2458 -0.4157
  356MOL0     C46862   4.347   7.167  10.053 -0.7462  0.5293  1.2128
  356MOL0     O46863   4.275   7.270  10.105 -0.2657  0.0890  0.7077
  356MOL0     C46864   4.141   7.291  10.088 -0.2101 -0.3148  0.2761
  356MOL0     C46865   4.078   7.390  10.165 -0.0721 -0.2732  1.0873
  356MOL0     C46866   3.944   7.424  10.152  0.7024  0.0377 -0.6094
  356MOL0     C46867   3.862   7.359  10.056 -0.3930  0.3246 -0.6478
  356MOL0     O46868   3.731   7.389  10.041 -0.7184  0.9306 -0.3179
  356MOL0     C46869   3.647   7.305  10.120  0.2820  0.6242 -0.2533
  356MOL0     C46870   3.506   7.347  10.081  0.0018  0.1965 -0.4019
  356MOL0     C46871   3.467   7.332   9.931  1.4987  0.0852  0.4076
  356MOL0     C46872   3.302   7.328   9.929 -0.8216 -0.6170 -0.0683
  356MOL0     C46873   3.251   7.436   9.829 -0.1651  0.7930 -0.5079
  356MOL0     C46874   3.094   7.422   9.822  0.5135  0.2021  0.4106
  356MOL0     C46875   3.035   7.523   9.731 -0.2654 -0.1210  0.0087
  356MOL0     C46876   3.067   7.662   9.786  0.2997 -0.2568 -0.6771
  356MOL0     N46877   2.982   7.772   9.722 -1.3425  0.6132  0.4319
  356MOL0     C46878   3.029   7.834   9.615  0.0690  0.2456  0.6019
  356MOL0     C46879   2.952   7.946   9.614 -0.1911 -0.4143 -0.0205
  356MOL0     C46880   2.973   8.046   9.505 -0.0205  0.0142 -0.7381
  356MOL0     C46881   2.908   8.183   9.535  0.2516  0.6674  0.1180
  356MOL0     C46882   2.959   8.265   9.420  0.0834 -0.6036  0.8930
  356MOL0     C46883   2.860   8.378   9.381 -0.0610  0.2820  0.7022
  356MOL0     O46884   2.858   8.482   9.476 -0.4741 -0.1741  1.4411
  356MOL0     C46885   2.931   8.593   9.452  0.2296 -0.2579 -0.4219
  356MOL0     C46886   2.910   8.672   9.338 -0.6239 -0.2106 -0.0777
  356MOL0     C46887   2.981   8.782   9.299  0.3294 -1.3486 -0.7749
  356MOL0     C46888   3.083   8.833   9.389  0.0876  0.9488  0.1697
  356MOL0     C46889   3.161   8.955   9.366  0.1579  0.1138 -0.5724
  356MOL0     O46890   3.142   9.019   9.242  0.1273  0.4016 -0.5563
  356MOL0     C46891   3.225   9.128   9.222  0.2435 -0.1170 -0.0338
  356MOL0     C46892   3.192   9.267   9.259 -0.0345  0.0772  0.1511
  356MOL0     C46893   3.296   9.367   9.263 -0.0933  0.8551 -1.3781
  356MOL0     C46894   3.422   9.338   9.212  0.0306 -0.6081  0.2485
  356MOL0     O46895   3.504   9.452   9.223  0.4248  0.1626  0.1593
  356MOL0     C46896   3.642   9.425   9.223  0.6318 -0.2954  0.5969
  356MOL0     C46897   3.708   9.562   9.242  0.0695 -0.4927  0.1258
  356MOL0     C46898   3.744   9.636   9.110  0.3853  0.4193  0.4248
  356MOL0     C46899   3.800   9.767   9.132 -0.3335  0.1099  0.0949
  356MOL0     C46900   3.931   9.760   9.210  0.8478 -0.0556 -1.0424
  356MOL0     C46901   4.035   9.662   9.145  0.7810  0.0566 -0.3746
  356MOL0     C46902   4.183   9.685   9.186  0.3074 -0.2348  1.0699
  356MOL0     C46903   4.266   9.568   9.149 -0.5473  0.4766 -0.7983
  356MOL0    Cl46904   4.414   9.581   9.229 -0.4368 -0.2966 -0.0679
  356MOL0     C46905   3.446   9.209   9.167 -0.4115 -0.4084  0.2672
  356MOL0     C46906   3.355   9.109   9.168  0.5443  0.1438 -0.0221
  356MOL0     O46907   3.237   8.986   9.454  0.1660 -0.6996  1.1989
  356MOL0     C46908   3.115   8.744   9.504 -0.4227  0.6520  0.2718
  356MOL0     C46909   3.038   8.627   9.526  0.0393  0.3269 -1.2015
  356MOL0     N46910   2.857   7.948   9.717  0.1057  1.1830  0.4524
  356MOL0     N46911   2.869   7.832   9.772 -0.4225  0.1365  0.2310
  356MOL0     C46912   3.915   7.259   9.979  0.6478 -0.0862  0.4974
  356MOL0     C46913   4.052   7.227   9.998  0.5591 -0.0700  0.2678
  356MOL0     C46914   4.496   7.162  10.087 -0.1302  0.7832 -0.1568
  356MOL0     C46915   4.583   7.077  10.020  0.2919 -0.7462  0.8057
  356MOL0     C46916   4.715   7.054  10.060  0.5545  0.0357  0.3818
  356MOL0     C46917   4.773   7.138  10.159 -0.2792 -0.8395 -0.5532
  356MOL0     O46918   4.900   7.124  10.193  0.3671 -0.6055  0.2498
  356MOL0     C46919   4.980   7.000  10.173 -0.9216  0.0666 -0.6413
  356MOL0     C46920   5.113   6.994  10.238  0.0810 -0.8682 -0.3469
  356MOL0     C46921   5.096   7.010  10.392 -0.3697 -0.3189  0.0339
  356MOL0     C46922   5.209   6.967  10.476  0.1434  1.3899 -0.7925
  356MOL0     C46923   5.262   6.835  10.458 -0.4421  0.5856  0.2102
  356MOL0     C46924   5.280   6.715  10.439  0.2192  0.0165 -0.3431
  356MOL0     C46925   4.686   7.241  10.220 -0.4331  0.0200 -0.0279
  356MOL0     C46926   4.547   7.248  10.190 -0.4922  0.3067 -0.1425
  356MOL0     H46927   4.139   7.445  10.236  2.7955 -1.6861 -0.1186
  356MOL0     H46928   3.897   7.509  10.202 -4.6025 -2.0082 -1.4730
  356MOL0     H46929   3.656   7.323  10.227 -0.1041 -0.0674 -0.0993
  356MOL0     H46930   3.673   7.201  10.101 -0.8856 -0.1665  2.1450
  356MOL0     H46931   3.498   7.454  10.103 -0.2568  0.6623 -2.5654
  356MOL0     H46932   3.442   7.285  10.144  0.2046 -0.1531 -0.5405
  356MOL0     H46933   3.499   7.240   9.881  1.0743  0.5239 -0.7184
  356MOL0     H46934   3.516   7.405   9.865  0.0561 -0.2752 -1.1273
  356MOL0     H46935   3.276   7.227   9.896  1.7162 -0.8041 -1.7583
  356MOL0     H46936   3.259   7.340  10.029 -1.5555 -1.4961 -0.2529
  356MOL0     H46937   3.285   7.407   9.729 -2.0987 -0.9597 -0.7400
  356MOL0     H46938   3.288   7.530   9.871  2.2764 -1.2335  2.2672
  356MOL0     H46939   3.051   7.428   9.922  0.8476 -1.4451  0.6794
  356MOL0     H46940   3.066   7.320   9.794 -0.3425 -0.2301  2.6721
  356MOL0     H46941   3.081   7.517   9.632 -2.0929 -0.4924 -0.8613
  356MOL0     H46942   2.926   7.515   9.723 -0.4592  1.7621  0.2749
  356MOL0     H46943   3.169   7.696   9.767 -0.3473  1.7534 -0.8946
  356MOL0     H46944   3.050   7.657   9.894 -0.9483 -3.1063 -0.9162
  356MOL0     H46945   3.114   7.811   9.552 -0.0694 -1.0505  0.8479
  356MOL0     H46946   2.931   8.009   9.412 -2.9757  2.4184 -0.5093
  356MOL0     H46947   3.083   8.052   9.503 -0.0182  2.1876  1.0887
  356MOL0     H46948   2.934   8.213   9.637  0.9170 -1.9785  0.8146
  356MOL0     H46949   2.799   8.185   9.535  0.2497  2.7480  0.9363
  356MOL0     H46950   3.058   8.303   9.447  0.8160 -0.7666 -1.4047
  356MOL0     H46951   2.972   8.216   9.324  3.0668 -1.2553  1.5357
  356MOL0     H46952   2.763   8.333   9.361  0.8772 -0.3496 -3.2927
  356MOL0     H46953   2.862   8.419   9.279 -4.6957 -0.7019  0.0016
  356MOL0     H46954   2.839   8.629   9.268 -0.6561  2.1556 -1.6312
  356MOL0     H46955   2.959   8.831   9.204 -0.5658 -1.6305 -0.7190
  356MOL0     H46956   3.091   9.275   9.299  0.0710 -1.7028  0.8465
  356MOL0     H46957   3.282   9.468   9.300 -2.6506  0.5807 -1.4477
  356MOL0     H46958   3.684   9.392   9.127  1.7582  1.2719  0.5089
  356MOL0     H46959   3.680   9.356   9.299 -0.4548 -0.6909  0.7867
  356MOL0     H46960   3.803   9.546   9.294  0.0230 -2.8671 -0.4381
  356MOL0     H46961   3.647   9.625   9.308 -2.6689 -0.0952 -2.5884
  356MOL0     H46962   3.649   9.654   9.060  1.7524  1.9838 -1.8112
  356MOL0     H46963   3.803   9.578   9.039 -3.3531 -0.7449 -2.0096
  356MOL0     H46964   3.823   9.801   9.031 -1.0853 -0.4568 -0.2756
  356MOL0     H46965   3.724   9.834   9.172  0.5524  1.9826 -1.2307
  356MOL0     H46966   3.916   9.742   9.317 -2.6139 -0.2298 -1.4475
  356MOL0     H46967   3.967   9.862   9.195 -1.1109  1.1476  1.4975
  356MOL0     H46968   4.038   9.677   9.036  4.6525  1.8119 -0.1824
  356MOL0     H46969   4.002   9.560   9.167  1.6506 -0.2828 -0.5769
  356MOL0     H46970   4.213   9.774   9.130 -0.1254 -2.1096 -2.4331
  356MOL0     H46971   4.182   9.717   9.290  2.0463  1.9115  0.4934
  356MOL0     H46972   4.284   9.573   9.041  0.2890 -1.1276 -0.7685
  356MOL0     H46973   4.225   9.471   9.178 -1.4879  1.3521  0.9448
  356MOL0     H46974   3.544   9.189   9.125  0.8483  2.5645  1.5480
  356MOL0     H46975   3.379   9.007   9.140  0.4587  0.2369 -0.4449
  356MOL0     H46976   3.189   8.768   9.580 -0.4362  1.2968  0.0890
  356MOL0     H46977   3.041   8.570   9.618  3.6525  2.3314  0.1082
  356MOL0     H46978   3.845   7.207   9.915 -2.5446  2.0974  1.9717
  356MOL0     H46979   4.082   7.153   9.924 -1.0999 -0.0702 -0.4468
  356MOL0     H46980   4.541   7.032   9.930  0.0518  0.3505  0.3480
  356MOL0     H46981   4.769   6.977  10.007  1.1239 -0.2341  1.3304
  356MOL0     H46982   4.999   7.002  10.065 -2.5988  1.7732 -0.9586
  356MOL0     H46983   4.920   6.916  10.210  0.6523 -0.2372  1.4033
  356MOL0     H46984   5.172   6.906  10.209 -0.1497 -1.1169 -0.0721
  356MOL0     H46985   5.158   7.085  10.198 -1.7135  0.2774  0.1522
  356MOL0     H46986   5.004   6.952  10.405 -0.1958 -1.4352 -2.8910
  356MOL0     H46987   5.063   7.111  10.419 -3.6549 -0.7700 -1.7375
  356MOL0     H46988   5.286   7.045  10.476 -1.5341  3.1528  0.9404
  356MOL0     H46989   5.166   6.961  10.577  0.0180  0.1700 -0.9038
  356MOL0     H46990   5.304   6.611  10.431 -0.3659 -0.3286  1.8046
  356MOL0     H46991   4.732   7.305  10.295  5.3092 -1.1578 -2.0122
  356MOL0     H46992   4.472   7.317  10.228 -0.4264  0.6228 -0.5755
  357MOL0     O46993   4.564   2.596   6.825  0.6903 -0.3174 -1.0174
  357MOL0     C46994   4.561   2.721   6.826 -0.4469  0.5738  0.8103
  357MOL0     O46995   4.654   2.799   6.767 -0.0882  0.6755 -0.6766
  357MOL0     C46996   4.777   2.753   6.729  0.6189  0.1137  0.3827
  357MOL0     C46997   4.862   2.698   6.821  0.2896  0.9889  0.7116
  357MOL0     C46998   4.996   2.657   6.790  0.5751  1.2311  0.2223
  357MOL0     C46999   5.035   2.663   6.658 -0.3042 -0.4542 -0.4692
  357MOL0     O47000   5.159   2.607   6.629 -0.6369 -0.0785  0.1201
  357MOL0     C47001   5.231   2.653   6.513 -0.2817  0.1906  0.3592
  357MOL0     C47002   5.247   2.542   6.405  0.2583 -0.5214 -0.3865
  357MOL0     C47003   5.137   2.494   6.317 -0.3768  0.1250 -0.2813
  357MOL0     C47004   5.134   2.341   6.295  0.1712 -0.3783  0.1171
  357MOL0     C47005   5.010   2.311   6.204 -0.5542  0.7223 -0.4453
  357MOL0     C47006   4.981   2.164   6.161 -0.2361  0.8452 -0.7865
  357MOL0     C47007   4.889   2.141   6.044 -0.6504 -0.6577  0.5029
  357MOL0     C47008   4.844   1.994   6.031 -0.0093  0.3817 -0.8734
  357MOL0     N47009   4.947   1.894   6.014 -0.3569  0.3239  0.3995
  357MOL0     C47010   5.038   1.883   5.916 -0.5427 -0.7430 -0.1248
  357MOL0     C47011   5.129   1.790   5.952  1.1333  0.6421  0.2877
  357MOL0     C47012   5.246   1.739   5.873 -0.2771  0.2255 -0.5930
  357MOL0     C47013   5.290   1.851   5.782 -0.2017 -0.7894  0.6716
  357MOL0     C47014   5.435   1.815   5.730  1.4771  0.1407  0.3239
  357MOL0     C47015   5.434   1.685   5.660 -0.2042 -0.7049 -0.7236
  357MOL0     O47016   5.497   1.689   5.524 -0.6731  0.3385 -0.1032
  357MOL0     C47017   5.624   1.721   5.495 -0.7302 -0.3269  0.0939
  357MOL0     C47018   5.650   1.797   5.379 -0.1607 -0.3483 -0.0027
  357MOL0     C47019   5.777   1.857   5.365  0.0165  0.2904 -0.2240
  357MOL0     C47020   5.875   1.844   5.465 -0.8821  0.0293 -0.5969
  357MOL0     C47021   6.001   1.924   5.453  0.1504 -0.2213 -0.6556
  357MOL0     O47022   6.044   1.971   5.338  0.0516  0.0736 -0.2980
  357MOL0     C47023   6.160   2.040   5.344  0.6498 -0.4748 -0.4257
  357MOL0     C47024   6.166   2.173   5.370  0.3370  0.1167 -0.5960
  357MOL0     C47025   6.288   2.232   5.382  0.0326  0.5286  0.1003
  357MOL0     C47026   6.402   2.152   5.376  0.4104 -0.5305  0.2453
  357MOL0     O47027   6.514   2.215   5.431 -0.7157  0.7100  0.0310
  357MOL0     C47028   6.626   2.219   5.341  0.1015  0.2638  0.0291
  357MOL0     C47029   6.711   2.322   5.397 -0.5348 -0.3057  0.1046
  357MOL0     C47030   6.757   2.292   5.537 -0.8495 -0.1229 -0.1730
  357MOL0     C47031   6.870   2.395   5.575 -0.5921 -0.4730  0.1144
  357MOL0     C47032   6.901   2.417   5.735 -0.1431  0.7756  0.6356
  357MOL0     C47033   7.017   2.513   5.761 -0.0107  0.1202 -0.5681
  357MOL0     C47034   7.019   2.535   5.913 -0.8899 -0.0223 -0.3506
  357MOL0     C47035   7.162   2.564   5.951  0.2714 -0.0503 -0.7142
  357MOL0    Cl47036   7.179   2.619   6.131 -0.1156  0.1137 -0.0393
  357MOL0     C47037   6.395   2.021   5.335 -0.4522  0.2672  0.2454
  357MOL0     C47038   6.270   1.961   5.317  0.7173  0.2148  0.3011
  357MOL0     O47039   6.068   1.929   5.558 -0.3542  0.7234  0.7311
  357MOL0     C47040   5.853   1.761   5.579  1.2360  0.6065  0.3888
  357MOL0     C47041   5.723   1.713   5.597  0.6242 -0.3869 -0.0542
  357MOL0     N47042   5.091   1.742   6.075 -0.3484  0.4797 -0.5301
  357MOL0     N47043   4.982   1.805   6.105 -0.6443 -0.8107 -0.1158
  357MOL0     C47044   4.951   2.725   6.564  0.0393 -0.8101  0.8925
  357MOL0     C47045   4.818   2.764   6.598 -0.4017 -0.6707  0.4704
  357MOL0     C47046   4.460   2.804   6.903  1.1269  0.5988 -0.6709
  357MOL0     C47047   4.437   2.943   6.866 -0.0261 -0.2986 -0.8241
  357MOL0     C47048   4.330   3.004   6.920 -0.1418 -0.1128  0.6277
  357MOL0     C47049   4.251   2.949   7.018 -0.6550  0.5115  0.2793
  357MOL0     O47050   4.150   3.039   7.065 -0.6231  0.7697 -0.4758
  357MOL0     C47051   4.058   2.995   7.167 -0.5962  0.0785 -0.0249
  357MOL0     C47052   3.951   3.097   7.199 -0.5789  0.2022  0.3358
  357MOL0     C47053   4.003   3.200   7.306 -0.6891 -0.2087 -0.3868
  357MOL0     C47054   3.911   3.321   7.312  0.2517  0.1442 -0.5789
  357MOL0     C47055   3.782   3.288   7.368 -0.0562 -0.6075  0.0359
  357MOL0     C47056   3.686   3.255   7.426  0.0442 -0.1080  0.7622
  357MOL0     C47057   4.277   2.819   7.064  0.0129  1.2086 -0.0028
  357MOL0     C47058   4.382   2.739   7.008  1.2949 -1.0705  0.4279
  357MOL0     H47059   4.825   2.681   6.922 -4.0344  2.6464 -0.4191
  357MOL0     H47060   5.054   2.609   6.868 -2.3186  0.3111  2.0060
  357MOL0     H47061   5.329   2.696   6.537 -0.6785  1.1667  0.3007
  357MOL0     H47062   5.175   2.733   6.462 -1.8524 -0.0103  1.6578
  357MOL0     H47063   5.294   2.460   6.460  0.0125  1.1152  2.4749
  357MOL0     H47064   5.323   2.581   6.336  2.1341  2.3950  2.9862
  357MOL0     H47065   5.131   2.555   6.227  3.0206  0.0921 -0.6773
  357MOL0     H47066   5.043   2.516   6.368  0.0069  1.2324 -0.0350
  357MOL0     H47067   5.224   2.303   6.245  2.3439  0.1098  3.3564
  357MOL0     H47068   5.129   2.291   6.393 -0.6221  0.3130  0.4405
  357MOL0     H47069   5.029   2.377   6.118 -0.6849 -1.3041 -2.0899
  357MOL0     H47070   4.914   2.341   6.248 -2.8378 -3.7879 -1.7781
  357MOL0     H47071   4.929   2.124   6.248  2.5725  0.9197  1.0356
  357MOL0     H47072   5.075   2.111   6.141 -1.0623 -0.1438 -2.2297
  357MOL0     H47073   4.798   2.194   6.072  0.3197 -0.4829  3.7323
  357MOL0     H47074   4.932   2.176   5.950  1.9978 -1.7736  1.1832
  357MOL0     H47075   4.786   1.988   5.939  1.2804  0.9994 -1.7647
  357MOL0     H47076   4.780   1.967   6.115  0.7977  0.8233 -0.0933
  357MOL0     H47077   5.043   1.946   5.828 -1.3193 -3.9731 -2.6563
  357MOL0     H47078   5.216   1.644   5.827 -1.7616 -0.4962  1.6773
  357MOL0     H47079   5.328   1.722   5.944 -2.5326  1.9341  2.6627
  357MOL0     H47080   5.298   1.946   5.835 -0.1009 -0.8024  0.6811
  357MOL0     H47081   5.231   1.877   5.693 -1.7471  3.1904  2.6286
  357MOL0     H47082   5.459   1.885   5.649  1.6237 -0.5497 -0.2342
  357MOL0     H47083   5.513   1.824   5.806 -1.3575  1.7627  3.3054
  357MOL0     H47084   5.332   1.647   5.643 -0.8489  1.6538 -2.6250
  357MOL0     H47085   5.487   1.608   5.718  2.3771  1.2421 -0.3284
  357MOL0     H47086   5.570   1.809   5.307  0.9529  0.4446 -1.1413
  357MOL0     H47087   5.811   1.919   5.282  0.1451 -0.3048 -0.6247
  357MOL0     H47088   6.073   2.226   5.389  0.3398 -0.6480  2.0522
  357MOL0     H47089   6.295   2.339   5.401 -2.0570  0.6233  0.6921
  357MOL0     H47090   6.588   2.243   5.241 -3.0796  1.8617  1.4388
  357MOL0     H47091   6.681   2.125   5.347 -2.3526 -1.1982  1.2630
  357MOL0     H47092   6.658   2.417   5.392 -2.0546 -1.1731 -0.8294
  357MOL0     H47093   6.801   2.322   5.334 -0.4981 -1.5775  0.1405
  357MOL0     H47094   6.787   2.188   5.549 -0.9624 -0.0852  0.5146
  357MOL0     H47095   6.672   2.305   5.605 -0.9873 -0.8704 -0.1993
  357MOL0     H47096   6.969   2.366   5.538  0.5546  0.6642  2.0852
  357MOL0     H47097   6.842   2.493   5.536  0.4770  0.2041  0.9786
  357MOL0     H47098   6.924   2.318   5.777 -2.6533 -0.5355 -0.8326
  357MOL0     H47099   6.809   2.458   5.778  0.4007 -0.1628  2.8392
  357MOL0     H47100   6.997   2.613   5.722 -0.5229  0.0117 -0.6026
  357MOL0     H47101   7.106   2.486   5.703 -1.4663  0.1394 -2.9529
  357MOL0     H47102   6.955   2.614   5.951 -0.2298  0.4849 -0.2690
  357MOL0     H47103   6.997   2.440   5.963  1.5338 -0.3291  0.2933
  357MOL0     H47104   7.194   2.651   5.893  1.1214 -1.9624 -3.3199
  357MOL0     H47105   7.233   2.486   5.922  2.5084  2.6609 -3.2037
  357MOL0     H47106   6.487   1.967   5.321 -0.4526  0.2454  0.3258
  357MOL0     H47107   6.258   1.856   5.296 -2.9417  0.9942 -2.6563
  357MOL0     H47108   5.936   1.742   5.646  0.8500  2.5537  1.4992
  357MOL0     H47109   5.699   1.672   5.694 -1.0934 -0.5024 -0.5059
  357MOL0     H47110   4.976   2.738   6.459  1.6391 -0.3191  1.3209
  357MOL0     H47111   4.750   2.813   6.529 -1.3088  0.5640  2.1561
  357MOL0     H47112   4.503   2.995   6.798  2.0006 -0.5815  0.8469
  357MOL0     H47113   4.307   3.106   6.892  1.4457 -0.5919 -3.0660
  357MOL0     H47114   4.127   2.975   7.250  0.9214  1.9381 -0.7541
  357MOL0     H47115   4.006   2.901   7.148 -0.0281 -0.8015  2.3798
  357MOL0     H47116   3.919   3.148   7.107  0.4693  0.8280  0.3060
  357MOL0     H47117   3.866   3.039   7.237 -0.1694 -1.2401 -0.8562
  357MOL0     H47118   4.107   3.231   7.288 -1.7467  2.1353 -3.2400
  357MOL0     H47119   4.016   3.149   7.402  0.4423  0.9757  0.1177
  357MOL0     H47120   3.958   3.380   7.391 -1.1878 -2.9054  2.8577
  357MOL0     H47121   3.902   3.376   7.218  1.1087  0.0765 -0.7106
  357MOL0     H47122   3.608   3.212   7.486 -1.6138  0.6364 -0.7569
  357MOL0     H47123   4.220   2.787   7.151  0.0037  2.3160  0.4032
  357MOL0     H47124   4.375   2.634   7.034 -1.8869 -0.8703  0.7267
  358MOL0     O47125   1.518   4.652   2.154  0.0755 -0.3431 -0.2945
  358MOL0     C47126   1.578   4.711   2.066  1.2540  0.1126  0.4592
  358MOL0     O47127   1.517   4.780   1.952  0.7319 -0.5793 -0.7403
  358MOL0     C47128   1.384   4.805   1.945  0.3421 -0.0922 -0.0057
  358MOL0     C47129   1.277   4.742   2.023 -0.3378 -0.8441 -0.0754
  358MOL0     C47130   1.146   4.801   2.004 -0.0799 -0.9920  0.0836
  358MOL0     C47131   1.121   4.916   1.922 -0.7438  0.8459  0.4770
  358MOL0     O47132   0.995   4.970   1.904 -0.0102 -0.3617 -0.6052
  358MOL0     C47133   0.898   4.961   2.010 -0.0944  0.5005  0.1907
  358MOL0     C47134   0.777   5.058   1.986  0.5541  0.5657 -0.7078
  358MOL0     C47135   0.808   5.208   1.995 -0.4001 -0.5933  0.5275
  358MOL0     C47136   0.910   5.236   2.105  0.5038  0.2125  0.4738
  358MOL0     C47137   0.934   5.389   2.126  0.4946  0.3676  0.1889
  358MOL0     C47138   0.811   5.471   2.156  0.6253 -0.5868 -0.1332
  358MOL0     C47139   0.842   5.623   2.188 -0.5439  0.2182  0.5439
  358MOL0     C47140   0.881   5.690   2.057 -1.3763  0.5008 -0.3639
  358MOL0     N47141   0.925   5.828   2.100 -0.0333  0.1620  0.1972
  358MOL0     C47142   1.051   5.862   2.134 -0.0321  0.1985  0.1708
  358MOL0     C47143   1.041   5.988   2.160  0.2841  0.1958  0.0356
  358MOL0     C47144   1.167   6.070   2.200 -0.6052 -0.4062  0.2391
  358MOL0     C47145   1.148   6.216   2.242 -0.2229 -0.3491 -0.5436
  358MOL0     C47146   1.122   6.321   2.133  0.9158  0.1456  1.0811
  358MOL0     C47147   1.120   6.462   2.189  0.3175 -0.2111  0.2371
  358MOL0     O47148   1.048   6.468   2.314 -0.2870  0.0051 -0.1680
  358MOL0     C47149   0.925   6.526   2.312  0.3646 -0.4130 -0.3111
  358MOL0     C47150   0.833   6.514   2.205  0.0550 -1.3908  0.4275
  358MOL0     C47151   0.701   6.563   2.208  0.2155  0.3415 -0.0784
  358MOL0     C47152   0.667   6.636   2.321 -0.0409 -0.0461  0.0311
  358MOL0     C47153   0.534   6.694   2.339 -0.8208 -0.2213  0.3844
  358MOL0     O47154   0.463   6.699   2.224  0.4215 -0.0791  0.5711
  358MOL0     C47155   0.332   6.717   2.240  0.3867 -0.3579  0.9789
  358MOL0     C47156   0.268   6.840   2.270 -0.0910  0.0017  0.1375
  358MOL0     C47157   0.131   6.848   2.280  1.2643  0.4093  0.3210
  358MOL0     C47158   0.050   6.744   2.233  0.0814 -0.6056  0.9036
  358MOL0     O47159  -0.085   6.766   2.201 -0.5796  0.5594 -0.2803
  358MOL0     C47160  -0.133   6.697   2.080 -0.2798 -0.8762  0.4237
  358MOL0     C47161  -0.264   6.770   2.040 -0.4540  0.7082  0.1075
  358MOL0     C47162  -0.395   6.711   2.108 -0.4835 -1.2095  0.7949
  358MOL0     C47163  -0.434   6.570   2.063 -0.2373 -0.6916  0.1030
  358MOL0     C47164  -0.499   6.500   2.190 -0.2558  0.9221  0.7173
  358MOL0     C47165  -0.642   6.544   2.212  0.4179 -0.0128  1.1271
  358MOL0     C47166  -0.713   6.469   2.335 -0.8621  0.3090 -0.8064
  358MOL0     C47167  -0.848   6.509   2.341  0.4933  0.0823  0.4262
  358MOL0    Cl47168  -0.935   6.480   2.182  0.1641  0.3305  0.4393
  358MOL0     C47169   0.112   6.624   2.205 -0.1588  0.6662 -0.4537
  358MOL0     C47170   0.248   6.615   2.207  0.4925  0.1485  0.1743
  358MOL0     O47171   0.488   6.726   2.453 -0.1606 -0.3221 -0.7348
  358MOL0     C47172   0.752   6.637   2.428  0.2218 -0.4985 -0.5253
  358MOL0     C47173   0.881   6.589   2.427  0.5956  0.7482  0.4259
  358MOL0     N47174   0.918   6.033   2.131 -1.2343  0.0864 -0.2681
  358MOL0     N47175   0.840   5.934   2.107 -0.3500 -0.4094 -0.2321
  358MOL0     C47176   1.229   4.976   1.854 -0.6191  0.1810 -0.0363
  358MOL0     C47177   1.358   4.918   1.862  0.2225  0.0022  0.5194
  358MOL0     C47178   1.722   4.697   2.064 -0.2134  0.3501 -0.1778
  358MOL0     C47179   1.800   4.786   1.987  0.5853 -0.1670  0.3845
  358MOL0     C47180   1.932   4.761   1.963 -0.0289  0.7894 -0.8229
  358MOL0     C47181   1.996   4.652   2.018 -0.9171  0.3011  0.6007
  358MOL0     O47182   2.128   4.644   1.995  0.2952 -0.2805  0.0615
  358MOL0     C47183   2.169   4.528   1.921  0.0911 -0.4323  0.6821
  358MOL0     C47184   2.208   4.407   1.999 -0.3822  0.5517 -0.6122
  358MOL0     C47185   2.269   4.299   1.915 -0.2083  0.0722 -0.0886
  358MOL0     C47186   2.327   4.188   1.999 -0.6271 -0.6083 -0.3179
  358MOL0     C47187   2.356   4.074   1.908 -0.4064  0.1984 -0.6408
  358MOL0     C47188   2.394   3.986   1.833 -0.6542 -0.3353  0.1432
  358MOL0     C47189   1.934   4.571   2.097 -0.4684  1.2410 -0.5718
  358MOL0     C47190   1.795   4.586   2.112  0.4940  0.5166 -0.3235
  358MOL0     H47191   1.279   4.669   2.103  0.5476  0.0416  0.7344
  358MOL0     H47192   1.063   4.759   2.059  0.3736 -2.3760 -0.2536
  358MOL0     H47193   0.954   4.981   2.102 -0.4332  2.4973  0.0067
  358MOL0     H47194   0.846   4.864   2.012 -1.8927  1.4300  1.4409
  358MOL0     H47195   0.704   5.040   2.066 -1.4234  0.3010 -2.4847
  358MOL0     H47196   0.729   5.049   1.888 -1.9205 -2.0044  0.5918
  358MOL0     H47197   0.720   5.269   2.016 -1.5645 -0.9460 -2.7123
  358MOL0     H47198   0.865   5.243   1.908 -2.1195  1.4110  0.1337
  358MOL0     H47199   0.880   5.192   2.200 -1.7073  1.5690  0.4680
  358MOL0     H47200   0.997   5.179   2.070 -2.5893 -5.1493  0.3281
  358MOL0     H47201   0.995   5.433   2.046 -0.5727  1.8758  0.1422
  358MOL0     H47202   1.000   5.387   2.213  5.4145 -0.5183 -3.1419
  358MOL0     H47203   0.751   5.436   2.241  1.5246  0.3727  0.9249
  358MOL0     H47204   0.760   5.486   2.060  0.7943  4.0519  0.2807
  358MOL0     H47205   0.757   5.668   2.240 -0.6829  2.8262 -1.7100
  358MOL0     H47206   0.926   5.630   2.259  0.2968  0.0987 -0.4200
  358MOL0     H47207   0.792   5.694   1.993 -2.3792 -0.2357  0.9381
  358MOL0     H47208   0.964   5.647   2.000 -0.7559  0.5912  0.4570
  358MOL0     H47209   1.140   5.800   2.144 -0.2986 -0.1753  0.2541
  358MOL0     H47210   1.236   6.062   2.116  2.1988 -1.1765  2.4781
  358MOL0     H47211   1.211   6.019   2.286 -1.8158  0.6590  1.5535
  358MOL0     H47212   1.249   6.246   2.273  0.1451 -2.8887  0.9808
  358MOL0     H47213   1.064   6.223   2.313 -2.2886 -2.0365 -2.6660
  358MOL0     H47214   1.207   6.314   2.065  0.2955 -0.6267  0.3672
  358MOL0     H47215   1.027   6.308   2.080 -1.4627  1.4204  4.6169
  358MOL0     H47216   1.079   6.525   2.109 -0.9261  0.3252  1.2567
  358MOL0     H47217   1.224   6.494   2.201  0.2992  0.7102 -1.6354
  358MOL0     H47218   0.852   6.443   2.126  0.3156 -1.9431  0.9748
  358MOL0     H47219   0.638   6.561   2.120  2.4351  1.6878 -1.8110
  358MOL0     H47220   0.335   6.923   2.288 -0.1866  0.1415 -0.1498
  358MOL0     H47221   0.071   6.932   2.313  0.7610  0.4537 -0.6542
  358MOL0     H47222  -0.155   6.593   2.106  1.7190 -1.8557 -1.5136
  358MOL0     H47223  -0.061   6.698   1.998 -0.4406 -0.8169  0.2844
  358MOL0     H47224  -0.276   6.767   1.931  0.7854  0.7027 -0.0406
  358MOL0     H47225  -0.261   6.876   2.067 -0.8072  0.4844  1.0475
  358MOL0     H47226  -0.479   6.772   2.074  1.4811  0.2290 -1.8374
  358MOL0     H47227  -0.378   6.717   2.216  1.6070 -1.4987  0.5243
  358MOL0     H47228  -0.502   6.569   1.977 -1.1949 -0.4200  0.8417
  358MOL0     H47229  -0.342   6.520   2.032 -0.0027 -2.4513  3.1795
  358MOL0     H47230  -0.441   6.518   2.281  0.7032 -2.1450  0.8079
  358MOL0     H47231  -0.495   6.395   2.160 -1.8590  0.9426  0.2995
  358MOL0     H47232  -0.689   6.522   2.115 -1.6930  0.0806  2.0738
  358MOL0     H47233  -0.640   6.652   2.228 -2.2253 -0.0142  1.8903
  358MOL0     H47234  -0.700   6.365   2.306  0.1689 -0.5991  2.4578
  358MOL0     H47235  -0.663   6.494   2.429  1.6996 -0.8237 -1.7870
  358MOL0     H47236  -0.860   6.615   2.367 -0.0348 -0.5655  3.0523
  358MOL0     H47237  -0.899   6.453   2.420 -0.5147 -1.2122 -1.0932
  358MOL0     H47238   0.050   6.538   2.182 -0.5945  1.1347 -1.0897
  358MOL0     H47239   0.308   6.534   2.166  1.3236  0.2392  1.1817
  358MOL0     H47240   0.717   6.687   2.518 -1.0912 -2.4224  0.0839
  358MOL0     H47241   0.956   6.608   2.504 -0.0512  2.8451  0.6232
  358MOL0     H47242   1.205   5.058   1.787 -0.1946 -0.9701 -1.6654
  358MOL0     H47243   1.435   4.966   1.804 -1.1579 -0.1843 -1.5547
  358MOL0     H47244   1.758   4.878   1.949 -1.7632 -1.0970  0.5219
  358MOL0     H47245   1.985   4.839   1.910  1.3831 -0.7454 -1.7849
  358MOL0     H47246   2.265   4.559   1.877 -0.9804  0.8389 -0.8907
  358MOL0     H47247   2.098   4.500   1.843 -1.9164  0.6311  2.0589
  358MOL0     H47248   2.267   4.435   2.088  0.2225  0.1664 -0.8864
  358MOL0     H47249   2.111   4.366   2.029 -2.8013  4.1038 -2.9163
  358MOL0     H47250   2.361   4.342   1.873 -0.6194  1.7834  0.6984
  358MOL0     H47251   2.212   4.259   1.830 -4.5393  2.6583  1.2870
  358MOL0     H47252   2.417   4.220   2.052 -2.0587  0.3081  1.6932
  358MOL0     H47253   2.254   4.152   2.073  0.6842 -1.9754  0.3545
  358MOL0     H47254   2.437   3.914   1.767  1.2512  0.0775  0.8604
  358MOL0     H47255   1.977   4.488   2.152 -2.7571  1.8818  2.4735
  358MOL0     H47256   1.742   4.526   2.185 -0.4000 -1.4818 -2.4790
  359MOL0     O47257   1.386  10.407   9.634  0.8206  0.1154  0.2003
  359MOL0     C47258   1.322  10.439   9.734 -0.0984  0.7818  0.4570
  359MOL0     O47259   1.316  10.566   9.781 -0.3025  0.6499  0.3679
  359MOL0     C47260   1.372  10.672   9.710  0.3959  1.1273 -0.1870
  359MOL0     C47261   1.459  10.774   9.759 -0.1917 -0.1454 -0.3557
  359MOL0     C47262   1.512  10.869   9.670  0.1467 -0.5528 -0.3930
  359MOL0     C47263   1.474  10.879   9.537  0.2278  0.6163 -0.1676
  359MOL0     O47264   1.519  10.967   9.448 -0.2912 -0.0239  0.2433
  359MOL0     C47265   1.423  11.063   9.389 -0.2253  0.3306 -0.3110
  359MOL0     C47266   1.486  11.196   9.392  0.0294  1.3376 -0.2974
  359MOL0     C47267   1.410  11.303   9.300  0.3423 -0.3673  0.4007
  359MOL0     C47268   1.256  11.313   9.306  0.9708 -0.1757  0.7556
  359MOL0     C47269   1.198  11.418   9.206 -0.7931  0.7266 -0.6096
  359MOL0     C47270   1.055  11.420   9.232  0.7593 -0.6303 -0.3373
  359MOL0     C47271   0.971  11.478   9.119 -0.6857  0.3208  0.1085
  359MOL0     C47272   0.832  11.529   9.160 -0.2623 -0.6207 -0.5188
  359MOL0     N47273   0.739  11.418   9.161 -0.4895 -0.1481  0.4830
  359MOL0     C47274   0.650  11.388   9.057 -0.1982  0.0179 -0.3967
  359MOL0     C47275   0.583  11.281   9.099  0.3398  0.2179 -0.7085
  359MOL0     C47276   0.493  11.193   9.017  0.2979  0.3908 -0.0414
  359MOL0     C47277   0.366  11.156   9.101  0.4927 -0.9394  0.2616
  359MOL0     C47278   0.398  11.027   9.175  0.3994  0.5055  0.1932
  359MOL0     C47279   0.367  10.905   9.087 -0.1249  0.2328 -0.3141
  359MOL0     O47280   0.344  10.787   9.161  0.8821 -0.3456  0.4169
  359MOL0     C47281   0.350  10.669   9.100  1.0380  0.2172  0.5139
  359MOL0     C47282   0.266  10.574   9.142  0.1298  0.0500  0.6135
  359MOL0     C47283   0.243  10.450   9.072 -1.0110 -1.0780  0.1401
  359MOL0     C47284   0.325  10.417   8.963  0.3806 -0.3762  0.5173
  359MOL0     C47285   0.294  10.286   8.899  0.4399  0.1925  0.1640
  359MOL0     O47286   0.227  10.183   8.965 -0.0663  0.0460  0.4787
  359MOL0     C47287   0.211  10.064   8.899 -0.0031  0.0985 -0.8490
  359MOL0     C47288   0.079  10.021   8.857 -0.9170  0.1704 -0.4161
  359MOL0     C47289   0.067   9.894   8.807 -0.3746  0.3136 -0.5187
  359MOL0     C47290   0.179   9.812   8.776 -0.1177 -0.0213  0.1463
  359MOL0     O47291   0.154   9.691   8.719 -0.7244  0.4356 -0.3416
  359MOL0     C47292   0.258   9.593   8.727  0.3885  0.2930  0.4805
  359MOL0     C47293   0.209   9.448   8.714 -0.3173  0.1582 -0.0792
  359MOL0     C47294   0.071   9.414   8.786  0.2656 -0.7214 -0.3217
  359MOL0     C47295   0.048   9.254   8.791 -0.3621 -0.3920  0.4271
  359MOL0     C47296  -0.073   9.215   8.883  0.4970 -0.0118  0.3469
  359MOL0     C47297  -0.062   9.081   8.964  0.4356 -0.2894 -0.4014
  359MOL0     C47298  -0.062   8.941   8.893  0.0602 -0.5134 -0.2973
  359MOL0     C47299  -0.085   8.839   9.001 -0.1317 -0.2031  0.3716
  359MOL0    Cl47300  -0.072   8.678   8.938 -0.5124 -0.1728  0.3474
  359MOL0     C47301   0.309   9.862   8.813  0.3814  0.4197  0.4413
  359MOL0     C47302   0.316   9.984   8.875  0.2931 -0.3517 -0.0858
  359MOL0     O47303   0.349  10.277   8.786  1.1997  0.2440  0.1238
  359MOL0     C47304   0.415  10.520   8.917  0.4034  0.3674  0.7452
  359MOL0     C47305   0.432  10.640   8.984 -0.3796  0.0637 -1.3327
  359MOL0     N47306   0.604  11.268   9.236 -0.3504 -0.8465  0.2620
  359MOL0     N47307   0.693  11.352   9.265 -0.3450 -0.2131  0.0486
  359MOL0     C47308   1.382  10.790   9.490 -0.0019 -0.1490 -0.1103
  359MOL0     C47309   1.325  10.701   9.580 -0.5017  0.4929  0.0389
  359MOL0     C47310   1.247  10.333   9.817 -0.6409  0.7733 -0.3550
  359MOL0     C47311   1.264  10.196   9.779  0.0057 -0.0637  0.6214
  359MOL0     C47312   1.218  10.101   9.873 -0.7656 -0.5565 -0.7127
  359MOL0     C47313   1.147  10.134   9.987 -0.0255 -0.6441 -0.4348
  359MOL0     O47314   1.111  10.021  10.056 -0.0474  0.8814  0.3286
  359MOL0     C47315   1.020  10.032  10.162  0.1643  0.6144 -0.1211
  359MOL0     C47316   0.992   9.904  10.233 -0.9483 -0.3841  0.4010
  359MOL0     C47317   0.850   9.855  10.219  0.3773 -0.5745 -0.2810
  359MOL0     C47318   0.829   9.740  10.323  0.3902 -0.5249  0.5854
  359MOL0     C47319   0.739   9.787  10.427 -0.3353  0.1176  0.5924
  359MOL0     C47320   0.667   9.834  10.511  0.0803  0.0832  0.2438
  359MOL0     C47321   1.112  10.267  10.013  0.9668 -0.2833 -0.6730
  359MOL0     C47322   1.163  10.366   9.930 -0.7195  0.0293  0.2653
  359MOL0     H47323   1.482  10.758   9.864 -3.0755  2.1913  0.7633
  359MOL0     H47324   1.587  10.937   9.709  0.1466  0.9747 -2.8020
  359MOL0     H47325   1.337  11.067   9.457  0.5370  0.1412  0.6893
  359MOL0     H47326   1.382  11.026   9.295 -3.7524  0.7083  0.9317
  359MOL0     H47327   1.593  11.205   9.368 -0.0584  1.8536 -0.5118
  359MOL0     H47328   1.479  11.233   9.495 -0.5392  0.8797 -0.1710
  359MOL0     H47329   1.417  11.273   9.195 -1.5586 -0.3890  0.2467
  359MOL0     H47330   1.458  11.399   9.320 -0.6203  0.7471 -2.3375
  359MOL0     H47331   1.217  11.216   9.274 -0.6723  1.1174 -1.4508
  359MOL0     H47332   1.222  11.328   9.409  0.9605 -0.7006  0.8324
  359MOL0     H47333   1.230  11.393   9.104 -1.4823  0.1558 -0.6890
  359MOL0     H47334   1.235  11.518   9.230 -0.1976  0.7703 -1.6175
  359MOL0     H47335   1.029  11.475   9.323 -2.6077 -0.2529 -1.3786
  359MOL0     H47336   1.019  11.318   9.248 -1.1564  0.0320 -0.1086
  359MOL0     H47337   1.029  11.566   9.091 -0.5987  0.3004  0.2277
  359MOL0     H47338   0.971  11.395   9.048 -1.3376 -2.1989  2.8346
  359MOL0     H47339   0.801  11.600   9.082  0.6998 -1.6458 -1.8937
  359MOL0     H47340   0.830  11.577   9.258 -3.5943  1.5192 -1.4535
  359MOL0     H47341   0.648  11.447   8.966  2.1786  1.0683  0.1546
  359MOL0     H47342   0.555  11.106   8.991  1.2061  1.0223 -0.0195
  359MOL0     H47343   0.472  11.249   8.926 -0.0004 -0.2788 -0.3925
  359MOL0     H47344   0.284  11.150   9.028  1.8281 -1.2824 -1.2735
  359MOL0     H47345   0.345  11.246   9.160 -1.1348 -1.2887  0.2450
  359MOL0     H47346   0.500  11.034   9.213  1.1748  0.5301 -1.8093
  359MOL0     H47347   0.333  11.031   9.264 -1.0848 -0.4171 -0.7952
  359MOL0     H47348   0.457  10.900   9.026  0.2874  0.7039  0.2439
  359MOL0     H47349   0.282  10.924   9.020  0.7733  2.8870 -0.8124
  359MOL0     H47350   0.215  10.584   9.237  1.0306 -1.9422  1.3493
  359MOL0     H47351   0.156  10.391   9.099 -2.0170  0.1257 -0.3974
  359MOL0     H47352  -0.006  10.087   8.867 -1.4437  0.0241 -3.0339
  359MOL0     H47353  -0.033   9.872   8.772  0.1490 -0.5857 -1.5112
  359MOL0     H47354   0.311   9.600   8.823 -0.0299  1.3020  0.6523
  359MOL0     H47355   0.335   9.604   8.650  0.3792 -1.9353  0.1001
  359MOL0     H47356   0.291   9.381   8.738  0.6380  0.9618 -1.0138
  359MOL0     H47357   0.188   9.434   8.607 -0.1665 -2.4068  0.1675
  359MOL0     H47358  -0.019   9.467   8.753  0.8825  1.8250  1.7370
  359MOL0     H47359   0.098   9.446   8.887 -1.5822 -0.8772  0.2500
  359MOL0     H47360   0.039   9.216   8.689  0.0318 -0.0061  0.2450
  359MOL0     H47361   0.138   9.201   8.823  0.9001 -0.5275 -2.9553
  359MOL0     H47362  -0.146   9.194   8.805  2.3132  0.7490 -1.6813
  359MOL0     H47363  -0.104   9.297   8.949 -0.1506 -0.9862  1.2882
  359MOL0     H47364  -0.124   9.082   9.053  2.2279  0.1331  0.9050
  359MOL0     H47365   0.037   9.092   9.009 -1.0939  1.5660  2.8033
  359MOL0     H47366  -0.144   8.922   8.824 -3.2133 -2.7437  3.7718
  359MOL0     H47367   0.035   8.920   8.846 -0.5950 -0.3320 -1.7775
  359MOL0     H47368  -0.185   8.864   9.037 -0.6074 -1.7829  0.2427
  359MOL0     H47369  -0.019   8.853   9.087  1.1921 -3.8051  0.1019
  359MOL0     H47370   0.401   9.809   8.790 -0.5001 -0.6744 -0.7302
  359MOL0     H47371   0.413  10.029   8.894 -0.9412  2.2528  0.4747
  359MOL0     H47372   0.475  10.491   8.831  1.4496 -0.0761  1.6069
  359MOL0     H47373   0.516  10.697   8.949  0.2605  0.0147  0.0489
  359MOL0     H47374   1.367  10.793   9.383  1.0634 -1.8035 -0.3503
  359MOL0     H47375   1.241  10.643   9.544  1.2177 -1.2372 -1.4751
  359MOL0     H47376   1.326  10.174   9.693  1.2605 -0.3691  1.5763
  359MOL0     H47377   1.233   9.995   9.855  0.6509 -0.6499  0.7928
  359MOL0     H47378   0.926  10.075  10.127  1.5482  4.5373  0.4810
  359MOL0     H47379   1.058  10.090  10.247 -1.0897  0.5563  0.4957
  359MOL0     H47380   1.064   9.825  10.210 -1.0001 -0.1296 -0.6993
  359MOL0     H47381   1.023   9.917  10.337  3.7556 -3.7865 -0.2426
  359MOL0     H47382   0.824   9.823  10.117  0.3443 -2.9895  0.4189
  359MOL0     H47383   0.784   9.938  10.242  2.0971  0.6267  0.5234
  359MOL0     H47384   0.792   9.645  10.283  0.1319 -1.2092  2.3424
  359MOL0     H47385   0.925   9.716  10.370  0.7872 -1.9603 -0.8554
  359MOL0     H47386   0.619   9.882  10.594 -0.3322  0.5011 -0.2305
  359MOL0     H47387   1.046  10.293  10.095  0.2712 -2.3959 -0.5231
  359MOL0     H47388   1.140  10.471   9.941  2.4487  1.6786 -5.3523
  360MOL0     O47389   8.638   5.261   3.635 -0.6247  0.1297  0.4614
  360MOL0     C47390   8.643   5.162   3.563  1.0607 -0.1971  1.0148
  360MOL0     O47391   8.746   5.074   3.561  0.2169  0.2246 -0.5549
  360MOL0     C47392   8.868   5.105   3.618  0.3073  1.2816 -1.0102
  360MOL0     C47393   8.942   5.009   3.688 -0.1355 -0.2264 -0.0813
  360MOL0     C47394   9.066   5.040   3.749 -0.6150 -0.0442  0.0448
  360MOL0     C47395   9.113   5.176   3.751  0.9052  0.5217  0.0355
  360MOL0     O47396   9.225   5.197   3.829  0.3856 -0.3951 -0.0800
  360MOL0     C47397   9.333   5.228   3.741 -0.3364 -0.2136 -0.5650
  360MOL0     C47398   9.461   5.266   3.824  0.0991 -0.2050 -1.0815
  360MOL0     C47399   9.443   5.397   3.906  1.3685  0.4333 -0.6661
  360MOL0     C47400   9.567   5.424   3.996  0.4778 -0.0359  0.4066
  360MOL0     C47401   9.698   5.417   3.914 -0.2975  0.8178 -0.0515
  360MOL0     C47402   9.817   5.455   4.004 -0.8975 -0.2737 -0.1483
  360MOL0     C47403   9.956   5.467   3.943 -0.1649 -0.3123 -0.1897
  360MOL0     C47404  10.057   5.497   4.059  0.4707 -0.1100  0.4450
  360MOL0     N47405  10.177   5.550   3.998  0.6434  0.2915 -0.4531
  360MOL0     C47406  10.291   5.487   3.958 -0.4270  0.1809  0.1161
  360MOL0     C47407  10.381   5.585   3.916 -0.0086  0.5805 -0.1203
  360MOL0     C47408  10.528   5.574   3.859 -0.2317 -0.4943 -0.1888
  360MOL0     C47409  10.539   5.452   3.769 -0.3824 -0.8581 -0.7455
  360MOL0     C47410  10.674   5.442   3.699 -0.6123  0.2683  0.3913
  360MOL0     C47411  10.726   5.291   3.684 -0.4903  0.5195 -0.7721
  360MOL0     O47412  10.864   5.284   3.641  0.0422 -0.1076 -0.0734
  360MOL0     C47413  10.963   5.276   3.733  0.5186 -0.2718 -0.4307
  360MOL0     C47414  11.079   5.333   3.700 -0.6755  0.1043 -0.2218
  360MOL0     C47415  11.189   5.336   3.797  0.5843  0.7485 -1.1959
  360MOL0     C47416  11.174   5.274   3.929  0.3804 -0.0496  0.6849
  360MOL0     C47417  11.267   5.288   4.035  0.5724 -0.0729 -0.8167
  360MOL0     O47418  11.219   5.272   4.165  0.0956 -0.5491  0.1171
  360MOL0     C47419  11.303   5.275   4.268 -0.4367 -0.9709 -0.7629
  360MOL0     C47420  11.423   5.206   4.271 -0.6952 -0.1794 -0.2625
  360MOL0     C47421  11.508   5.202   4.381  0.9525 -0.2191  0.5302
  360MOL0     C47422  11.475   5.271   4.499  0.4800 -0.1113 -0.9266
  360MOL0     O47423  11.549   5.297   4.610  0.1843  0.3957 -0.6184
  360MOL0     C47424  11.681   5.341   4.590 -0.7350 -0.7548 -1.1450
  360MOL0     C47425  11.748   5.326   4.723  0.5731  0.8081 -0.7000
  360MOL0     C47426  11.879   5.401   4.741 -0.8345 -1.0929 -0.0993
  360MOL0     C47427  11.941   5.380   4.878  0.0954 -0.0431  0.0893
  360MOL0     C47428  12.086   5.438   4.884  0.3201  0.1554  1.0365
  360MOL0     C47429  12.155   5.421   5.022  0.0166  0.2867 -0.1793
  360MOL0     C47430  12.291   5.483   5.035 -0.5512 -0.4179  0.4988
  360MOL0     C47431  12.359   5.445   5.168 -0.9681  0.7383 -1.2408
  360MOL0    Cl47432  12.375   5.264   5.171 -0.5555  0.2563  0.0637
  360MOL0     C47433  11.350   5.334   4.499 -0.3597 -0.1630  0.2697
  360MOL0     C47434  11.267   5.332   4.391  0.6278 -0.0693 -0.0476
  360MOL0     O47435  11.379   5.327   4.008 -0.0474  0.0264 -1.0181
  360MOL0     C47436  11.045   5.218   3.957 -0.7542 -0.4279 -0.2073
  360MOL0     C47437  10.946   5.212   3.857 -0.3718 -0.0110 -0.4125
  360MOL0     N47438  10.308   5.702   3.921 -0.5322 -1.1359  1.0940
  360MOL0     N47439  10.189   5.679   3.961  0.2108 -0.0349  0.0737
  360MOL0     C47440   9.043   5.271   3.678 -0.2010  0.2650  0.5380
  360MOL0     C47441   8.927   5.234   3.617 -0.5286 -0.3527  0.1823
  360MOL0     C47442   8.531   5.139   3.469 -0.1476 -0.2832 -0.3897
  360MOL0     C47443   8.546   5.031   3.381 -0.5434  0.7518  0.0418
  360MOL0     C47444   8.431   4.995   3.298 -0.6311 -1.0339  0.0072
  360MOL0     C47445   8.317   5.080   3.292 -0.4935  0.6089  0.0581
  360MOL0     O47446   8.216   5.040   3.214  0.9054  1.1407  0.3755
  360MOL0     C47447   8.106   5.130   3.176 -0.3171 -0.3002  0.7179
  360MOL0     C47448   8.028   5.071   3.060 -0.2065 -0.3880 -0.0060
  360MOL0     C47449   8.103   5.075   2.925  0.4142 -0.4474 -0.1782
  360MOL0     C47450   8.012   5.022   2.807 -1.0106 -0.5436 -0.4769
  360MOL0     C47451   8.098   5.044   2.683  0.4825  1.1812  0.3287
  360MOL0     C47452   8.158   5.061   2.587 -0.7556  0.2488  0.3309
  360MOL0     C47453   8.324   5.202   3.363 -0.6867 -0.1577 -0.4314
  360MOL0     C47454   8.425   5.228   3.454 -0.3708 -0.4007  0.4448
  360MOL0     H47455   8.909   4.906   3.700  0.1521 -0.1377  1.7119
  360MOL0     H47456   9.126   4.977   3.813  3.1689  0.7173 -2.4086
  360MOL0     H47457   9.318   5.314   3.675 -2.2488  0.9788  1.2696
  360MOL0     H47458   9.358   5.137   3.686 -0.8985 -2.0026  1.9424
  360MOL0     H47459   9.552   5.275   3.764  1.0640  0.4030  0.4456
  360MOL0     H47460   9.471   5.180   3.890 -2.2792 -0.1834 -0.6191
  360MOL0     H47461   9.351   5.391   3.965  0.7012  1.9403 -1.4791
  360MOL0     H47462   9.438   5.482   3.837 -0.8631 -0.2727 -1.4883
  360MOL0     H47463   9.546   5.528   4.024 -2.8242  0.0165 -1.7336
  360MOL0     H47464   9.557   5.360   4.084 -2.1660  2.4012  2.0426
  360MOL0     H47465   9.699   5.488   3.831  0.2039  2.8455  1.6077
  360MOL0     H47466   9.721   5.314   3.886 -0.3228  0.6439  0.5516
  360MOL0     H47467   9.824   5.383   4.086 -0.7744  0.4777  0.5143
  360MOL0     H47468   9.788   5.549   4.053 -0.1091 -0.6046  0.9958
  360MOL0     H47469   9.981   5.383   3.879 -2.1853  0.3757 -1.9883
  360MOL0     H47470   9.956   5.558   3.881  1.2092  1.0167  1.6284
  360MOL0     H47471  10.077   5.408   4.119 -0.0427 -0.8388 -0.4436
  360MOL0     H47472  10.025   5.576   4.128  1.0863  1.1781 -0.6920
  360MOL0     H47473  10.312   5.381   3.952  0.9655  0.5081 -5.1569
  360MOL0     H47474  10.590   5.567   3.948 -0.3380 -1.4406 -0.1810
  360MOL0     H47475  10.557   5.669   3.812 -1.3292  0.4312  0.9413
  360MOL0     H47476  10.459   5.450   3.694 -0.3790  1.6224 -0.9026
  360MOL0     H47477  10.522   5.366   3.833  5.1250 -3.2789 -1.9113
  360MOL0     H47478  10.659   5.481   3.598 -3.9687 -2.4593 -0.3421
  360MOL0     H47479  10.756   5.493   3.751  1.4782 -2.5438  0.0417
  360MOL0     H47480  10.661   5.235   3.617  0.7424 -2.4857  0.3398
  360MOL0     H47481  10.721   5.237   3.779 -0.2674  1.6133 -0.1216
  360MOL0     H47482  11.084   5.382   3.603  0.7741  2.4435  0.9518
  360MOL0     H47483  11.279   5.393   3.775  0.8249  0.2713 -1.4635
  360MOL0     H47484  11.460   5.137   4.196 -0.9358 -1.9350  1.1679
  360MOL0     H47485  11.607   5.159   4.374  0.9326 -0.0212 -2.8468
  360MOL0     H47486  11.678   5.446   4.557 -5.5721 -1.5741 -4.3812
  360MOL0     H47487  11.740   5.292   4.513  0.2899  0.3560 -1.1002
  360MOL0     H47488  11.748   5.218   4.740  0.5160  0.9986  0.6258
  360MOL0     H47489  11.676   5.376   4.789  1.2769  2.3500 -1.0579
  360MOL0     H47490  11.866   5.508   4.723 -0.0043 -0.4906  2.4269
  360MOL0     H47491  11.950   5.363   4.668 -0.5860  3.3631 -2.5119
  360MOL0     H47492  11.872   5.426   4.949  0.3027  4.1845 -2.1730
  360MOL0     H47493  11.951   5.272   4.898  1.3691  0.2402  1.1436
  360MOL0     H47494  12.077   5.546   4.868  1.8110  0.1096 -0.3668
  360MOL0     H47495  12.144   5.393   4.803 -1.6741 -1.2270  0.2946
  360MOL0     H47496  12.169   5.313   5.034  2.0909  0.4823 -0.5905
  360MOL0     H47497  12.087   5.451   5.103  0.8486 -0.4311  0.8182
  360MOL0     H47498  12.351   5.454   4.948 -0.9827  0.0490  0.0360
  360MOL0     H47499  12.303   5.592   5.037  0.8984 -0.5418  0.2426
  360MOL0     H47500  12.304   5.475   5.257  0.4348 -0.5839  0.1198
  360MOL0     H47501  12.457   5.490   5.180 -1.6701  1.7511  1.5214
  360MOL0     H47502  11.309   5.388   4.584 -1.2954  0.6480 -0.6640
  360MOL0     H47503  11.165   5.369   4.390  0.4621 -0.4824 -1.6027
  360MOL0     H47504  11.016   5.175   4.052  1.0789  0.5787  0.8648
  360MOL0     H47505  10.855   5.165   3.894  1.9282 -2.7163  2.3112
  360MOL0     H47506   9.078   5.373   3.668 -1.7357  0.7780  0.0701
  360MOL0     H47507   8.876   5.312   3.562 -0.0672  1.4596  2.1635
  360MOL0     H47508   8.624   4.955   3.383  0.0209  1.2051 -1.8955
  360MOL0     H47509   8.453   4.899   3.252  2.0135 -0.5355  0.0824
  360MOL0     H47510   8.151   5.223   3.139  2.3491 -2.3243 -1.5232
  360MOL0     H47511   8.055   5.152   3.270 -2.3409  1.2195 -0.6644
  360MOL0     H47512   7.992   4.969   3.076 -0.9654 -0.1198  0.0272
  360MOL0     H47513   7.941   5.137   3.050 -0.4668 -0.0481  3.3845
  360MOL0     H47514   8.191   5.011   2.940  0.5680 -0.3103 -0.4950
  360MOL0     H47515   8.146   5.172   2.900  3.5702 -1.8135 -0.5187
  360MOL0     H47516   7.981   4.917   2.816 -2.3545 -0.1997 -0.9036
  360MOL0     H47517   7.914   5.068   2.795 -1.8478 -1.8096  1.0740
  360MOL0     H47518   8.220   5.084   2.503 -0.5696  3.2112  1.1456
  360MOL0     H47519   8.242   5.268   3.336 -2.9399 -0.8540  3.7206
  360MOL0     H47520   8.421   5.310   3.524  0.3630 -0.0477  0.0842
  361MOL0     O47521   7.085   0.569   2.304 -0.5549  0.3615 -0.3168
  361MOL0     C47522   7.137   0.653   2.379  0.4984  0.6846 -0.7796
  361MOL0     O47523   7.106   0.662   2.513  0.7885 -0.2931  0.0537
  361MOL0     C47524   7.021   0.576   2.580  0.0974 -0.9192 -0.1237
  361MOL0     C47525   6.955   0.459   2.545  0.7212 -0.2514  0.7315
  361MOL0     C47526   6.866   0.385   2.627  0.2468  0.0201  0.3221
  361MOL0     C47527   6.842   0.431   2.755  0.1365  0.1076 -0.4376
  361MOL0     O47528   6.768   0.346   2.838 -0.1020  0.3926 -0.1331
  361MOL0     C47529   6.720   0.406   2.956 -0.2555  0.0665 -0.1319
  361MOL0     C47530   6.660   0.299   3.038 -0.0626 -0.4007 -0.3408
  361MOL0     C47531   6.591   0.364   3.162 -0.6103 -0.2866  0.1108
  361MOL0     C47532   6.575   0.273   3.284  0.3320  1.4163  0.7275
  361MOL0     C47533   6.460   0.167   3.275  0.1936 -0.0592 -0.4639
  361MOL0     C47534   6.435   0.077   3.391 -0.1268 -0.3896  0.4370
  361MOL0     C47535   6.319  -0.027   3.354 -0.3169 -0.4283 -0.6815
  361MOL0     C47536   6.333  -0.131   3.242 -0.5221 -0.1485 -0.9958
  361MOL0     N47537   6.338  -0.266   3.302  0.4155  0.4060  0.7367
  361MOL0     C47538   6.270  -0.375   3.245  0.6943  0.4292 -0.0687
  361MOL0     C47539   6.295  -0.480   3.326  0.1144  0.0589 -0.7740
  361MOL0     C47540   6.235  -0.622   3.321 -0.5438  0.9423 -0.9028
  361MOL0     C47541   6.095  -0.640   3.370  0.7022  0.6032 -0.3301
  361MOL0     C47542   6.043  -0.785   3.383  0.6562  0.1362 -0.3464
  361MOL0     C47543   5.897  -0.794   3.431  0.1278 -0.1207 -0.4652
  361MOL0     O47544   5.807  -0.720   3.342  0.1387  0.4086 -0.3452
  361MOL0     C47545   5.778  -0.771   3.217  0.6330  0.3141 -0.5700
  361MOL0     C47546   5.775  -0.911   3.187  0.4319  0.4031  0.8021
  361MOL0     C47547   5.713  -0.956   3.072  0.5988 -0.2991  0.9817
  361MOL0     C47548   5.641  -0.878   2.985 -0.0125  0.0034 -0.4320
  361MOL0     C47549   5.547  -0.934   2.887  0.3578 -0.0253 -0.9462
  361MOL0     O47550   5.515  -1.061   2.904 -0.1840  0.0604  0.3333
  361MOL0     C47551   5.394  -1.114   2.846  0.2606  0.4997  0.0819
  361MOL0     C47552   5.387  -1.255   2.823  0.8178  0.3566  0.0594
  361MOL0     C47553   5.278  -1.305   2.755  0.0890 -0.7834  0.0149
  361MOL0     C47554   5.169  -1.236   2.715 -0.4651 -0.9341 -0.1141
  361MOL0     O47555   5.053  -1.287   2.667  1.5857  0.7086  0.5867
  361MOL0     C47556   5.011  -1.424   2.699  0.2961 -0.3474  0.1639
  361MOL0     C47557   5.039  -1.518   2.580 -0.5383 -1.0318  0.3593
  361MOL0     C47558   4.994  -1.469   2.444  0.4267 -0.8861 -0.4397
  361MOL0     C47559   5.037  -1.551   2.326 -0.6128  0.4993 -0.4780
  361MOL0     C47560   5.007  -1.707   2.343 -0.0025  0.2751 -0.8106
  361MOL0     C47561   5.049  -1.793   2.224 -0.8500  0.7754  0.2668
  361MOL0     C47562   5.023  -1.941   2.257  0.2348 -0.5162  0.0054
  361MOL0     C47563   5.033  -2.042   2.141  0.2717  0.5108  0.8747
  361MOL0    Cl47564   4.973  -2.200   2.205 -0.4066 -0.4157  0.1795
  361MOL0     C47565   5.177  -1.100   2.742  0.2442 -0.0761 -0.5882
  361MOL0     C47566   5.289  -1.035   2.804  0.5345 -0.0332 -0.2265
  361MOL0     O47567   5.498  -0.854   2.804 -0.2181  0.1510  0.2515
  361MOL0     C47568   5.653  -0.733   3.003  0.7421  0.3419 -0.4388
  361MOL0     C47569   5.724  -0.685   3.121  0.0947 -0.0613  0.3268
  361MOL0     N47570   6.385  -0.439   3.416 -1.0983 -0.1980  0.7725
  361MOL0     N47571   6.413  -0.313   3.403  0.4748 -0.1027 -0.3569
  361MOL0     C47572   6.903   0.544   2.799 -0.9406 -0.1687 -0.5198
  361MOL0     C47573   6.989   0.618   2.710  1.9093 -0.0282 -0.2266
  361MOL0     C47574   7.223   0.754   2.326  0.1379 -1.1049 -0.2255
  361MOL0     C47575   7.202   0.807   2.196 -0.8719  0.2891  0.1647
  361MOL0     C47576   7.280   0.921   2.161 -0.0515 -0.1692  0.2944
  361MOL0     C47577   7.364   0.987   2.247  0.4200 -0.4625 -1.0089
  361MOL0     O47578   7.422   1.103   2.200 -0.1615 -0.9360 -1.0566
  361MOL0     C47579   7.480   1.195   2.297 -0.1512  0.5649  0.5068
  361MOL0     C47580   7.379   1.304   2.312  0.1751 -0.0074 -0.4492
  361MOL0     C47581   7.328   1.363   2.179  0.1758  0.2993 -0.0593
  361MOL0     C47582   7.436   1.393   2.070  1.0976 -0.2986 -0.8150
  361MOL0     C47583   7.513   1.510   2.105  0.9540 -0.2223 -0.8561
  361MOL0     C47584   7.563   1.616   2.141  0.2739  0.1756  0.4430
  361MOL0     C47585   7.372   0.940   2.382 -0.6513 -0.1390  0.1439
  361MOL0     C47586   7.301   0.822   2.419 -0.1198 -0.8818 -0.1553
  361MOL0     H47587   6.970   0.415   2.446  0.6785  2.4517 -0.5730
  361MOL0     H47588   6.815   0.296   2.593  2.7954 -2.1525  1.7292
  361MOL0     H47589   6.643   0.479   2.927  0.8988  0.7065 -1.7110
  361MOL0     H47590   6.801   0.454   3.012 -0.5391 -2.1437  2.3497
  361MOL0     H47591   6.748   0.242   3.072  0.1867 -1.2253 -2.2252
  361MOL0     H47592   6.592   0.233   2.983  0.0362 -0.6671 -0.1493
  361MOL0     H47593   6.488   0.392   3.139 -0.7784 -1.2313 -0.3336
  361MOL0     H47594   6.653   0.449   3.192  0.1228 -2.0043  4.1042
  361MOL0     H47595   6.664   0.210   3.280  0.8135  2.1144 -2.6087
  361MOL0     H47596   6.564   0.336   3.373 -2.3897  2.0000  0.0736
  361MOL0     H47597   6.464   0.105   3.185 -3.9452 -0.7643 -0.3580
  361MOL0     H47598   6.373   0.232   3.266  0.7073  0.5266 -1.2817
  361MOL0     H47599   6.412   0.138   3.478  0.4924  0.6036 -0.0779
  361MOL0     H47600   6.524   0.020   3.420 -0.8127  0.9062  6.2854
  361MOL0     H47601   6.293  -0.083   3.444 -1.6063  0.6501 -0.3540
  361MOL0     H47602   6.231   0.032   3.326 -3.0189 -3.2017  1.4494
  361MOL0     H47603   6.427  -0.111   3.190 -1.8964  0.3035 -3.4756
  361MOL0     H47604   6.257  -0.125   3.164 -0.6403 -2.1425 -1.1058
  361MOL0     H47605   6.193  -0.373   3.168  0.2158 -0.2469  0.3798
  361MOL0     H47606   6.310  -0.688   3.367 -1.5053  0.2005 -0.3564
  361MOL0     H47607   6.241  -0.648   3.214  2.8445 -0.9496 -0.4170
  361MOL0     H47608   6.024  -0.594   3.300 -0.0727 -1.8986 -1.3002
  361MOL0     H47609   6.082  -0.600   3.471 -0.7384 -1.5659  0.3926
  361MOL0     H47610   6.057  -0.831   3.285  1.3241  2.5033 -1.4190
  361MOL0     H47611   6.096  -0.857   3.446 -0.7365 -2.4847 -1.9657
  361MOL0     H47612   5.894  -0.759   3.534 -0.7170 -0.9735 -0.1865
  361MOL0     H47613   5.864  -0.898   3.437 -1.2912  0.1886 -2.0601
  361MOL0     H47614   5.819  -0.992   3.245  0.1303 -0.3412  0.0103
  361MOL0     H47615   5.710  -1.058   3.036  0.8013  1.4870 -5.1202
  361MOL0     H47616   5.468  -1.323   2.849  0.9490  0.5934  0.2809
  361MOL0     H47617   5.281  -1.406   2.716  1.9899 -0.5901 -0.4722
  361MOL0     H47618   4.904  -1.417   2.724  0.6285  0.4259  1.4561
  361MOL0     H47619   5.062  -1.475   2.781  4.1240 -2.9076 -3.3949
  361MOL0     H47620   4.989  -1.614   2.592  2.6853 -2.8961  0.1901
  361MOL0     H47621   5.147  -1.534   2.577 -0.2574  0.0073  2.5614
  361MOL0     H47622   5.046  -1.373   2.435 -0.4159 -0.4480 -0.6976
  361MOL0     H47623   4.887  -1.447   2.452  0.4228 -0.9904 -0.1998
  361MOL0     H47624   4.993  -1.518   2.232 -2.0413 -2.2525 -0.8723
  361MOL0     H47625   5.145  -1.553   2.313 -0.5889  0.6614 -0.3214
  361MOL0     H47626   4.901  -1.731   2.351 -0.3043 -0.1623 -4.3092
  361MOL0     H47627   5.049  -1.752   2.433  0.5820 -4.7337 -3.2186
  361MOL0     H47628   5.157  -1.795   2.204 -0.8320 -1.8783  0.2709
  361MOL0     H47629   4.996  -1.760   2.134  4.1585  1.8659 -2.7468
  361MOL0     H47630   5.091  -1.970   2.338  1.0319  1.7371  0.2003
  361MOL0     H47631   4.924  -1.951   2.304  0.7107  0.4295  1.2721
  361MOL0     H47632   5.139  -2.066   2.126  0.6185  1.2604  1.9831
  361MOL0     H47633   4.972  -2.012   2.056  1.4492 -0.6895 -0.4398
  361MOL0     H47634   5.083  -1.048   2.728 -0.8148 -1.7293  0.0217
  361MOL0     H47635   5.288  -0.927   2.801  3.1831  0.1667  2.0471
  361MOL0     H47636   5.574  -0.684   2.947  0.6423  0.9575  0.2265
  361MOL0     H47637   5.709  -0.582   3.152 -1.5489  0.4422 -1.8917
  361MOL0     H47638   6.887   0.594   2.894  0.8099  2.7265 -1.6125
  361MOL0     H47639   7.038   0.704   2.755  1.3135  0.6780 -0.9188
  361MOL0     H47640   7.142   0.749   2.127 -1.9235  0.9831  0.4797
  361MOL0     H47641   7.266   0.964   2.062  0.2492  0.9360  0.7264
  361MOL0     H47642   7.577   1.234   2.264 -0.3053  0.7695  0.2899
  361MOL0     H47643   7.496   1.149   2.395 -0.1624  0.4189  0.4402
  361MOL0     H47644   7.307   1.265   2.385 -1.2518 -0.6518 -2.1267
  361MOL0     H47645   7.432   1.384   2.364  2.7893 -2.7592  1.4868
  361MOL0     H47646   7.256   1.438   2.211 -2.5076 -2.3545  0.5333
  361MOL0     H47647   7.255   1.296   2.133  0.7649  0.5375 -1.3924
  361MOL0     H47648   7.502   1.310   2.044  1.5615  0.3005 -1.5906
  361MOL0     H47649   7.380   1.412   1.977  3.4480  0.0004 -2.2618
  361MOL0     H47650   7.621   1.700   2.173  2.1714  0.0990 -2.4064
  361MOL0     H47651   7.430   0.990   2.459 -1.9907  3.0318 -0.7364
  361MOL0     H47652   7.307   0.793   2.524 -1.6672  0.9340  0.5095
  362MOL0     O47653   8.050   4.432   8.084  0.4282  0.1911  0.4750
  362MOL0     C47654   8.126   4.492   8.157  0.7019  0.8017  0.2033
  362MOL0     O47655   8.089   4.601   8.237 -0.6040  0.8653  0.4182
  362MOL0     C47656   7.966   4.641   8.245 -0.4151  0.0011  0.6585
  362MOL0     C47657   7.934   4.749   8.154 -0.3745  0.1582  0.9475
  362MOL0     C47658   7.804   4.784   8.141 -0.6387  0.1639 -0.4661
  362MOL0     C47659   7.700   4.724   8.221  0.4253 -0.7339  0.1056
  362MOL0     O47660   7.578   4.771   8.183 -0.2465  0.2516  0.0428
  362MOL0     C47661   7.471   4.686   8.206 -0.1639 -0.1092 -0.0956
  362MOL0     C47662   7.354   4.729   8.111  0.0575  0.8144 -1.0456
  362MOL0     C47663   7.240   4.635   8.145  0.6302  0.5087  0.2464
  362MOL0     C47664   7.121   4.677   8.050 -0.4449  0.8596 -0.2493
  362MOL0     C47665   6.979   4.636   8.092 -0.0944  0.0845  0.1334
  362MOL0     C47666   6.878   4.643   7.977  0.5444 -0.1244  0.7206
  362MOL0     C47667   6.738   4.582   8.016  0.0616 -0.1002  0.2788
  362MOL0     C47668   6.748   4.449   8.086 -0.0243 -0.1291 -0.2936
  362MOL0     N47669   6.609   4.408   8.115 -0.5100 -0.1961 -0.1003
  362MOL0     C47670   6.524   4.346   8.019  0.2876  0.0845  0.5540
  362MOL0     C47671   6.407   4.321   8.082  0.7307  0.0759  0.2463
  362MOL0     C47672   6.280   4.271   8.014  0.1511 -0.3196  0.9182
  362MOL0     C47673   6.186   4.390   7.978 -0.5222  0.3730 -0.1832
  362MOL0     C47674   6.220   4.467   7.852  0.1629  0.4305 -0.4365
  362MOL0     C47675   6.199   4.384   7.721  0.0777  0.0320 -0.1583
  362MOL0     O47676   6.253   4.458   7.613  0.2783  0.8547 -0.3362
  362MOL0     C47677   6.244   4.397   7.491 -0.0058 -0.3093 -0.0842
  362MOL0     C47678   6.166   4.464   7.397  1.0568 -0.9537 -0.1731
  362MOL0     C47679   6.147   4.401   7.273 -0.3329 -0.0488  0.3885
  362MOL0     C47680   6.193   4.278   7.245  0.1755  0.8123  0.0322
  362MOL0     C47681   6.169   4.222   7.112 -0.1248  0.4538  0.2158
  362MOL0     O47682   6.208   4.094   7.086 -0.0279 -0.2577  0.0728
  362MOL0     C47683   6.172   4.025   6.975  0.4692  0.3774  0.7213
  362MOL0     C47684   6.267   3.926   6.946  0.6470 -0.4026 -1.2366
  362MOL0     C47685   6.255   3.837   6.840  0.3745 -0.5943 -0.0352
  362MOL0     C47686   6.143   3.858   6.747  0.7529 -0.7198 -0.0644
  362MOL0     O47687   6.132   3.781   6.634 -0.8117 -0.4556  0.3988
  362MOL0     C47688   6.005   3.781   6.566  0.0232 -0.7393  0.1658
  362MOL0     C47689   6.020   3.691   6.444  0.6561 -0.1463 -0.4030
  362MOL0     C47690   5.884   3.704   6.351 -0.6158  0.2776  1.1441
  362MOL0     C47691   5.903   3.609   6.226  0.7193  0.5143  0.1279
  362MOL0     C47692   5.794   3.639   6.131 -0.5569  0.2552 -0.2550
  362MOL0     C47693   5.749   3.523   6.056  0.1489  0.8854 -0.1047
  362MOL0     C47694   5.863   3.463   5.971  0.0365 -0.5938  0.2957
  362MOL0     C47695   5.814   3.360   5.865  0.3480  0.1972  0.6142
  362MOL0    Cl47696   5.729   3.447   5.730 -0.0208  0.4987 -0.3888
  362MOL0     C47697   6.052   3.967   6.775 -0.8762 -0.5711 -0.3242
  362MOL0     C47698   6.063   4.048   6.887 -0.4474  0.2626 -0.1809
  362MOL0     O47699   6.103   4.291   7.040 -0.3372  0.0440  0.3503
  362MOL0     C47700   6.269   4.209   7.344  0.1733 -0.2899  0.4106
  362MOL0     C47701   6.296   4.274   7.462  0.2108 -0.3460  0.0217
  362MOL0     N47702   6.417   4.368   8.215 -0.0531 -0.9334  0.2847
  362MOL0     N47703   6.539   4.407   8.235  0.3673 -0.3720 -0.1952
  362MOL0     C47704   7.737   4.615   8.308 -0.6197 -0.5386 -0.1150
  362MOL0     C47705   7.870   4.572   8.320 -0.4726 -0.2625 -0.4421
  362MOL0     C47706   8.271   4.454   8.162  0.3647 -0.9815  0.1874
  362MOL0     C47707   8.323   4.357   8.072  0.0295  0.4594 -0.5842
  362MOL0     C47708   8.461   4.327   8.078 -0.3212  0.1696  0.1208
  362MOL0     C47709   8.551   4.395   8.163  0.5812 -1.3321  0.1254
  362MOL0     O47710   8.678   4.372   8.168  0.1980  0.0932 -0.3733
  362MOL0     C47711   8.744   4.384   8.036  1.4492 -0.8151 -0.4667
  362MOL0     C47712   8.772   4.533   7.988 -0.8918  0.0251  0.0280
  362MOL0     C47713   8.846   4.540   7.855 -0.3694  0.7733  0.6032
  362MOL0     C47714   8.991   4.579   7.853 -0.2890 -0.1088  0.6056
  362MOL0     C47715   9.070   4.519   7.958  0.3281  0.0432  1.2403
  362MOL0     C47716   9.130   4.444   8.039  0.3117 -0.5427 -0.3193
  362MOL0     C47717   8.490   4.478   8.255  0.5439  0.3503 -0.9553
  362MOL0     C47718   8.355   4.516   8.253  0.5675 -0.3471 -0.5265
  362MOL0     H47719   8.011   4.791   8.090  0.0150 -2.1352 -0.1852
  362MOL0     H47720   7.780   4.853   8.060  0.1640 -0.7035 -1.4742
  362MOL0     H47721   7.431   4.692   8.307 -0.1950 -1.2410 -0.0241
  362MOL0     H47722   7.491   4.579   8.190 -2.2291 -0.7656  1.3076
  362MOL0     H47723   7.387   4.712   8.008 -1.1929  0.5123 -1.4216
  362MOL0     H47724   7.335   4.834   8.134  1.7524  0.7907  0.7471
  362MOL0     H47725   7.212   4.634   8.251  1.3690 -2.3071  0.5046
  362MOL0     H47726   7.278   4.533   8.133  1.3532  0.7074  0.7260
  362MOL0     H47727   7.117   4.786   8.034  3.1994  1.4137  1.4207
  362MOL0     H47728   7.147   4.640   7.951  1.9833  0.9733  0.2819
  362MOL0     H47729   6.944   4.701   8.173 -1.6346  1.3315 -1.4554
  362MOL0     H47730   6.984   4.539   8.141  0.3425 -0.0887 -0.2534
  362MOL0     H47731   6.917   4.580   7.897  1.1156  0.7757  0.2775
  362MOL0     H47732   6.877   4.747   7.943  1.1858 -1.6071 -4.6515
  362MOL0     H47733   6.688   4.652   8.084  1.8316  2.1660 -0.6332
  362MOL0     H47734   6.678   4.575   7.925 -1.4771  2.5044  0.9946
  362MOL0     H47735   6.809   4.461   8.176  3.8275  1.5045 -2.8466
  362MOL0     H47736   6.799   4.375   8.024 -0.2799 -0.7411  0.2256
  362MOL0     H47737   6.544   4.345   7.912 -1.6276  3.8008 -0.0245
  362MOL0     H47738   6.237   4.209   8.093  1.6537 -0.0391  1.9974
  362MOL0     H47739   6.293   4.200   7.931 -0.6698 -0.6422  1.0584
  362MOL0     H47740   6.186   4.457   8.065 -1.6476 -2.3520  2.0808
  362MOL0     H47741   6.093   4.334   7.968 -0.0441 -0.9386  2.0418
  362MOL0     H47742   6.146   4.546   7.837  1.5118  1.8258 -0.0398
  362MOL0     H47743   6.319   4.513   7.851  0.3886 -0.0295 -2.4736
  362MOL0     H47744   6.093   4.369   7.702 -0.3396  0.5132  1.6230
  362MOL0     H47745   6.241   4.283   7.723  0.7542  0.3105  0.0415
  362MOL0     H47746   6.122   4.561   7.417 -1.6300 -1.9291 -0.8962
  362MOL0     H47747   6.108   4.477   7.205  0.2467  0.5837  0.7482
  362MOL0     H47748   6.360   3.912   7.000  1.3829  0.5703 -2.2323
  362MOL0     H47749   6.333   3.764   6.825  1.0146 -0.3003  1.6508
  362MOL0     H47750   5.994   3.888   6.544  3.5589 -0.4724 -1.0384
  362MOL0     H47751   5.920   3.752   6.628 -1.7022 -0.5402 -1.9924
  362MOL0     H47752   6.035   3.587   6.473 -0.6028 -0.5343 -1.0462
  362MOL0     H47753   6.102   3.727   6.382  1.4199  0.8950  1.1383
  362MOL0     H47754   5.861   3.810   6.332  1.3481  0.4122 -0.9260
  362MOL0     H47755   5.797   3.663   6.402 -2.1773 -0.4079 -1.8629
  362MOL0     H47756   5.995   3.618   6.167 -1.0526 -0.9805 -3.1104
  362MOL0     H47757   5.892   3.507   6.263 -1.0893  1.2587  1.7779
  362MOL0     H47758   5.831   3.714   6.061  1.9527  0.1261  0.8212
  362MOL0     H47759   5.705   3.682   6.178 -1.7932  1.4028 -3.3563
  362MOL0     H47760   5.666   3.558   5.995 -0.9571 -0.8846  0.3191
  362MOL0     H47761   5.716   3.444   6.124  1.1816  0.7817  0.3011
  362MOL0     H47762   5.922   3.531   5.909  0.0644 -3.4745 -3.1937
  362MOL0     H47763   5.940   3.411   6.028 -0.1179 -2.3777 -1.0421
  362MOL0     H47764   5.733   3.295   5.898 -1.7699  1.5749 -1.5419
  362MOL0     H47765   5.902   3.309   5.824 -1.6897 -1.5236 -1.9368
  362MOL0     H47766   5.965   3.990   6.714 -0.1695  0.8497 -0.8369
  362MOL0     H47767   5.985   4.120   6.909 -0.5264  1.3478 -3.4849
  362MOL0     H47768   6.336   4.124   7.331  1.3528  0.5447  0.8543
  362MOL0     H47769   6.369   4.240   7.535 -1.2641 -1.1196  1.1830
  362MOL0     H47770   7.665   4.564   8.370 -1.1735 -0.9342 -1.0612
  362MOL0     H47771   7.894   4.490   8.388  0.6952  1.2718  1.0933
  362MOL0     H47772   8.259   4.302   8.004  0.9907 -1.6609  0.1375
  362MOL0     H47773   8.497   4.254   8.006  0.7170  1.5700 -0.8407
  362MOL0     H47774   8.691   4.336   7.953  0.1285  2.7390 -1.8364
  362MOL0     H47775   8.841   4.337   8.056  1.0033 -2.4574 -1.8738
  362MOL0     H47776   8.677   4.584   7.967 -0.5228  1.1631  1.0400
  362MOL0     H47777   8.822   4.584   8.070  0.9627 -0.1277 -0.9594
  362MOL0     H47778   8.795   4.613   7.791 -1.6721 -1.0998 -0.5909
  362MOL0     H47779   8.831   4.451   7.793  1.5895  1.6147 -1.2259
  362MOL0     H47780   9.035   4.551   7.757 -1.7444 -1.7097  0.3723
  362MOL0     H47781   9.009   4.687   7.861  1.3131 -0.4195  1.8955
  362MOL0     H47782   9.178   4.376   8.106  1.2045  0.2562 -0.1342
  362MOL0     H47783   8.558   4.519   8.329 -1.7780 -2.2835  3.0653
  362MOL0     H47784   8.319   4.592   8.322  2.3361 -1.2149  1.4625
  363MOL0     O47785   5.873   8.920   3.875 -0.4158 -0.1060  0.2185
  363MOL0     C47786   5.767   8.862   3.873  1.3700  0.2486 -0.1705
  363MOL0     O47787   5.746   8.742   3.810 -0.4421  0.2128  0.5992
  363MOL0     C47788   5.844   8.698   3.723  1.1745 -1.3723  0.4589
  363MOL0     C47789   5.938   8.593   3.753  0.0312 -0.1373  0.0301
  363MOL0     C47790   6.032   8.555   3.657 -0.6529 -0.7267  0.0822
  363MOL0     C47791   6.038   8.599   3.528 -0.1699  0.2503 -0.7696
  363MOL0     O47792   6.126   8.550   3.434  0.6854 -0.5715  0.2853
  363MOL0     C47793   6.083   8.511   3.299 -0.9174 -0.7667  0.7216
  363MOL0     C47794   6.205   8.482   3.201  0.0584 -0.5503 -0.4117
  363MOL0     C47795   6.225   8.331   3.179 -0.1752  0.7566  0.7556
  363MOL0     C47796   6.323   8.299   3.074  0.1944  0.8440 -0.2042
  363MOL0     C47797   6.256   8.293   2.933  0.3021 -0.5722  0.9095
  363MOL0     C47798   6.177   8.173   2.890  0.1608 -0.1532  1.2133
  363MOL0     C47799   6.110   8.180   2.743 -0.0728  0.3002 -0.2180
  363MOL0     C47800   6.217   8.144   2.634  0.8307 -0.8469  0.1906
  363MOL0     N47801   6.144   8.127   2.503 -0.0583  0.2376 -1.1775
  363MOL0     C47802   6.091   8.013   2.452 -0.1868  0.8383 -1.6970
  363MOL0     C47803   6.039   8.045   2.334  0.6299 -0.2518  0.4920
  363MOL0     C47804   5.962   7.955   2.244 -1.6837 -0.1727 -0.0264
  363MOL0     C47805   6.042   7.827   2.217 -0.2142  0.4681 -0.1339
  363MOL0     C47806   6.195   7.830   2.182  0.2964 -0.2388 -0.3425
  363MOL0     C47807   6.248   7.689   2.149  0.3345 -0.6112  0.2096
  363MOL0     O47808   6.231   7.598   2.263 -0.7594 -0.4317 -0.6354
  363MOL0     C47809   6.283   7.643   2.383  0.1863  0.1355  0.2281
  363MOL0     C47810   6.398   7.710   2.404  0.3804  0.4842 -0.4974
  363MOL0     C47811   6.417   7.775   2.530 -0.6836 -0.1793  0.2747
  363MOL0     C47812   6.338   7.752   2.637 -0.2035 -1.8100  0.4196
  363MOL0     C47813   6.381   7.804   2.764 -0.4516 -0.4702 -0.0734
  363MOL0     O47814   6.506   7.848   2.778 -1.6011 -0.5822  0.0327
  363MOL0     C47815   6.543   7.874   2.913  0.3654 -0.2264  0.6129
  363MOL0     C47816   6.544   8.003   2.952 -0.2780  0.3171 -1.1439
  363MOL0     C47817   6.587   8.044   3.083  0.8642  0.7475  1.1234
  363MOL0     C47818   6.602   7.936   3.176 -0.3565  0.2080 -0.4379
  363MOL0     O47819   6.625   7.974   3.305  0.4491  0.6695 -0.1216
  363MOL0     C47820   6.615   7.888   3.421 -0.5697  0.2550 -0.4799
  363MOL0     C47821   6.608   7.962   3.548 -0.5691 -0.4928 -0.2033
  363MOL0     C47822   6.585   7.855   3.649 -0.7071  0.1980 -0.1655
  363MOL0     C47823   6.639   7.887   3.792  0.3185 -1.1437  1.1394
  363MOL0     C47824   6.619   7.774   3.884  0.2293 -0.4104  0.1173
  363MOL0     C47825   6.704   7.787   4.009  0.4200  0.3058  0.3760
  363MOL0     C47826   6.681   7.668   4.110 -0.5996  0.9768 -0.8101
  363MOL0     C47827   6.574   7.700   4.214  0.7038 -0.1458  0.0929
  363MOL0    Cl47828   6.632   7.824   4.332 -0.1490  0.4186 -0.0521
  363MOL0     C47829   6.571   7.802   3.140 -0.1735  0.2140 -0.6926
  363MOL0     C47830   6.545   7.775   3.007 -0.5370  0.8975 -0.1311
  363MOL0     O47831   6.290   7.811   2.842 -0.3361  0.3211 -0.2708
  363MOL0     C47832   6.226   7.668   2.620 -0.1282  0.7681  0.0417
  363MOL0     C47833   6.198   7.618   2.494  0.4410  1.1369 -1.0481
  363MOL0     N47834   6.059   8.178   2.313 -0.3833 -0.6154  0.2285
  363MOL0     N47835   6.112   8.226   2.416 -0.0966  0.0007 -0.0111
  363MOL0     C47836   5.944   8.698   3.496 -0.8080  0.4494  0.1370
  363MOL0     C47837   5.853   8.749   3.587 -0.3372 -0.6284  0.2476
  363MOL0     C47838   5.650   8.919   3.940  1.0430  0.1995 -0.3050
  363MOL0     C47839   5.663   9.036   4.007 -0.7462  0.3492 -0.0748
  363MOL0     C47840   5.561   9.089   4.092 -0.0918 -0.5281  0.5448
  363MOL0     C47841   5.435   9.028   4.082 -0.9216 -0.5183 -0.1445
  363MOL0     O47842   5.336   9.088   4.146  0.9462  0.7519 -0.2048
  363MOL0     C47843   5.204   9.026   4.155 -0.6476  0.2943  0.3344
  363MOL0     C47844   5.208   8.941   4.279 -0.0958  0.1867  0.4861
  363MOL0     C47845   5.085   8.851   4.287 -0.1330  0.2499 -1.1358
  363MOL0     C47846   5.077   8.774   4.418 -0.7058 -0.0108 -0.0886
  363MOL0     C47847   5.148   8.639   4.408  0.0454  0.0218  0.4232
  363MOL0     C47848   5.222   8.540   4.414  0.0431  0.1892  0.0374
  363MOL0     C47849   5.422   8.912   3.997  0.4780  0.5773 -0.3786
  363MOL0     C47850   5.526   8.850   3.933 -1.0077  0.4771 -0.5468
  363MOL0     H47851   5.947   8.560   3.856  3.7907  1.8526  0.5402
  363MOL0     H47852   6.099   8.479   3.696 -0.6700  0.1594  1.9685
  363MOL0     H47853   6.036   8.601   3.258 -2.3936 -0.2320  3.3238
  363MOL0     H47854   6.006   8.434   3.300 -1.6417 -0.0590  0.8686
  363MOL0     H47855   6.295   8.530   3.241  0.4898 -0.3971 -1.5268
  363MOL0     H47856   6.193   8.527   3.102 -0.3340 -2.7263 -1.3994
  363MOL0     H47857   6.133   8.274   3.162  0.5262 -0.6976  1.5651
  363MOL0     H47858   6.266   8.279   3.266  1.3368 -0.2891 -0.5317
  363MOL0     H47859   6.410   8.364   3.088  3.6707 -3.3784  0.3838
  363MOL0     H47860   6.378   8.208   3.102 -0.6354  1.1290  2.5593
  363MOL0     H47861   6.324   8.314   2.850  0.1841 -0.4651  0.8408
  363MOL0     H47862   6.191   8.380   2.926  1.7335  0.4233 -0.9116
  363MOL0     H47863   6.097   8.165   2.964  0.1764  1.0668  1.3824
  363MOL0     H47864   6.241   8.085   2.895  0.1896 -0.4061 -1.6200
  363MOL0     H47865   6.038   8.097   2.739  0.1140  0.1218  0.1555
  363MOL0     H47866   6.057   8.275   2.728 -0.5873  0.1692  0.7105
  363MOL0     H47867   6.280   8.056   2.644 -0.0341 -2.3858 -4.9262
  363MOL0     H47868   6.284   8.229   2.646  0.5178 -0.4155 -0.9067
  363MOL0     H47869   6.113   7.916   2.498  1.6662  2.9472  2.4366
  363MOL0     H47870   5.944   7.992   2.143 -3.3589 -2.4549 -0.6659
  363MOL0     H47871   5.860   7.934   2.279 -1.4694 -1.4235 -0.0848
  363MOL0     H47872   5.990   7.794   2.126  0.5472 -2.2734  0.3346
  363MOL0     H47873   6.021   7.758   2.300  1.7998  0.1849  0.1970
  363MOL0     H47874   6.211   7.901   2.101 -2.1301  0.7782 -0.0181
  363MOL0     H47875   6.245   7.868   2.272  2.3493 -0.2994 -1.4132
  363MOL0     H47876   6.352   7.699   2.116 -0.2954 -2.2592 -2.6652
  363MOL0     H47877   6.186   7.647   2.068  1.0732  0.8582 -1.1811
  363MOL0     H47878   6.471   7.723   2.324 -1.8962  2.7011 -2.3865
  363MOL0     H47879   6.507   7.836   2.535 -1.3606  1.2765 -3.0464
  363MOL0     H47880   6.518   8.079   2.879  2.6933  0.0880 -2.5717
  363MOL0     H47881   6.601   8.148   3.111  1.2693  1.1744 -0.5301
  363MOL0     H47882   6.703   7.824   3.426  0.0384  1.0583 -0.6539
  363MOL0     H47883   6.530   7.819   3.419 -0.2017 -0.4964  3.3515
  363MOL0     H47884   6.529   8.037   3.536 -1.6696 -1.4727  0.6535
  363MOL0     H47885   6.700   8.017   3.568 -1.0824  0.8909 -1.5080
  363MOL0     H47886   6.651   7.774   3.617 -0.4691 -0.4068  1.7476
  363MOL0     H47887   6.485   7.813   3.664  0.5127 -2.2511  1.7863
  363MOL0     H47888   6.745   7.916   3.786 -0.3745  1.3666 -2.2984
  363MOL0     H47889   6.574   7.968   3.826 -2.1249 -1.6301 -1.8819
  363MOL0     H47890   6.632   7.680   3.830  0.8368 -2.2669  3.2763
  363MOL0     H47891   6.513   7.776   3.912  0.0229  0.4255 -0.6810
  363MOL0     H47892   6.671   7.876   4.063 -1.1272 -0.0077  0.0090
  363MOL0     H47893   6.809   7.783   3.981 -0.5345  1.8456 -4.2914
  363MOL0     H47894   6.638   7.578   4.066 -0.1681  0.0563  0.5935
  363MOL0     H47895   6.764   7.629   4.170 -1.4271 -1.0895 -0.9380
  363MOL0     H47896   6.542   7.617   4.277 -1.1357  1.7869  1.8734
  363MOL0     H47897   6.481   7.737   4.171 -1.2484 -1.0041  3.2203
  363MOL0     H47898   6.580   7.726   3.217 -1.0806  1.7859  1.0430
  363MOL0     H47899   6.542   7.670   2.981  1.0205 -0.0359  3.0265
  363MOL0     H47900   6.162   7.626   2.698 -0.7008 -1.6895 -1.6179
  363MOL0     H47901   6.104   7.564   2.488  0.5198  0.5716  1.4341
  363MOL0     H47902   5.938   8.738   3.395 -1.2295 -2.7301 -1.2054
  363MOL0     H47903   5.798   8.840   3.564  0.6237  1.2198  4.3557
  363MOL0     H47904   5.757   9.090   4.006 -0.7388  0.3363 -0.2293
  363MOL0     H47905   5.572   9.180   4.150  1.7214 -0.8416  0.7556
  363MOL0     H47906   5.175   8.974   4.063 -0.9437  3.2181 -1.3701
  363MOL0     H47907   5.125   9.101   4.165 -1.7690 -0.1557 -3.4338
  363MOL0     H47908   5.299   8.884   4.296  1.7647  2.7423 -0.2352
  363MOL0     H47909   5.208   8.999   4.372  2.6869 -2.7629  2.5585
  363MOL0     H47910   5.081   8.784   4.200 -0.3469  0.3514 -1.2054
  363MOL0     H47911   4.992   8.909   4.283 -0.0785  0.3019 -1.9121
  363MOL0     H47912   5.137   8.836   4.485  0.5555  0.8626 -1.9134
  363MOL0     H47913   4.972   8.763   4.444 -0.7058  0.1139 -0.0388
  363MOL0     H47914   5.281   8.452   4.431  3.7183  2.1957 -1.3947
  363MOL0     H47915   5.327   8.861   3.988  0.6749  0.2798 -0.8027
  363MOL0     H47916   5.523   8.756   3.878  1.9883 -0.3078  0.4564
  364MOL0     O47917   0.310   1.232  11.229 -0.1507  0.0166  0.1864
  364MOL0     C47918   0.331   1.233  11.352 -0.0639  0.9207  0.0295
  364MOL0     O47919   0.453   1.267  11.412 -0.1586  0.2697 -0.5260
  364MOL0     C47920   0.567   1.297  11.348 -0.3489  0.0193 -0.2502
  364MOL0     C47921   0.605   1.229  11.236  0.1843  1.4339  0.4764
  364MOL0     C47922   0.738   1.245  11.184  0.8272  0.3112 -0.2639
  364MOL0     C47923   0.826   1.339  11.243  0.6236  0.2108 -0.3369
  364MOL0     O47924   0.949   1.355  11.207 -0.1009 -0.3381 -0.3940
  364MOL0     C47925   1.011   1.236  11.154 -0.7374  0.1133 -0.7369
  364MOL0     C47926   1.168   1.257  11.161 -0.0599 -0.7330  0.3561
  364MOL0     C47927   1.247   1.162  11.064 -0.1958 -0.9851 -0.7448
  364MOL0     C47928   1.230   1.188  10.919 -0.8150  0.3919 -0.2427
  364MOL0     C47929   1.252   1.065  10.841  0.1272  0.1899  1.0116
  364MOL0     C47930   1.261   1.079  10.689  0.4662 -0.6428  1.2068
  364MOL0     C47931   1.359   0.981  10.630 -0.9081  0.7356  0.0985
  364MOL0     C47932   1.368   0.985  10.468  0.0257 -0.0239 -0.2123
  364MOL0     N47933   1.465   0.887  10.427 -0.5330  0.3443  0.3037
  364MOL0     C47934   1.596   0.877  10.459 -0.3606  0.1032 -0.3874
  364MOL0     C47935   1.637   0.753  10.416 -0.6732 -0.4724 -0.4669
  364MOL0     C47936   1.778   0.705  10.426  0.4267  0.1129  0.7727
  364MOL0     C47937   1.861   0.772  10.310 -0.5687  0.0566 -0.1633
  364MOL0     C47938   1.815   0.732  10.163  1.0526  0.6899  0.6805
  364MOL0     C47939   1.925   0.733  10.057 -0.5519 -0.1959 -0.7112
  364MOL0     O47940   1.988   0.863  10.067 -0.2653 -0.1301 -0.2131
  364MOL0     C47941   2.125   0.854  10.041  0.1558 -0.7420 -0.1106
  364MOL0     C47942   2.163   0.827   9.914 -0.2034 -0.3566 -0.3964
  364MOL0     C47943   2.292   0.804   9.881  0.0587 -0.4915  0.6250
  364MOL0     C47944   2.396   0.824   9.971 -0.3881 -0.4537  0.3969
  364MOL0     C47945   2.535   0.793   9.932 -0.5486 -0.1014  0.3222
  364MOL0     O47946   2.556   0.720   9.821 -0.0294 -0.1229 -0.3264
  364MOL0     C47947   2.676   0.702   9.757  1.4600 -0.4601 -1.4366
  364MOL0     C47948   2.658   0.624   9.640 -0.1318 -0.9408 -0.3280
  364MOL0     C47949   2.764   0.608   9.550 -0.5990  0.3664 -0.5416
  364MOL0     C47950   2.899   0.630   9.594  0.2893 -1.1312  0.3043
  364MOL0     O47951   3.010   0.595   9.524  0.7973  0.0552 -0.1030
  364MOL0     C47952   3.010   0.562   9.380  0.6337 -0.2403 -0.0371
  364MOL0     C47953   3.144   0.512   9.329 -0.9271  0.0249 -0.1268
  364MOL0     C47954   3.153   0.533   9.175  0.3132  0.1086  0.4334
  364MOL0     C47955   3.265   0.448   9.116 -0.9013 -0.0402  0.5379
  364MOL0     C47956   3.305   0.501   8.971  0.4808 -0.2942  0.0300
  364MOL0     C47957   3.409   0.428   8.892  0.0635 -0.1993 -0.2940
  364MOL0     C47958   3.431   0.490   8.754  0.3225 -0.4247  1.2400
  364MOL0     C47959   3.549   0.427   8.685  0.8848  0.6590  0.1821
  364MOL0    Cl47960   3.601   0.540   8.548  0.0817  0.2017 -0.3938
  364MOL0     C47961   2.919   0.697   9.708  1.1232 -0.9975  0.4060
  364MOL0     C47962   2.809   0.747   9.787  0.0766 -0.4555  0.8329
  364MOL0     O47963   2.625   0.850  10.005 -0.4476  1.0211  0.5139
  364MOL0     C47964   2.360   0.867  10.099 -0.0885  0.6364 -1.3723
  364MOL0     C47965   2.226   0.879  10.133  0.1150  0.5957 -0.2239
  364MOL0     N47966   1.529   0.681  10.363 -0.4141 -0.3018 -0.5306
  364MOL0     N47967   1.428   0.763  10.370 -0.1540 -0.1146 -0.3333
  364MOL0     C47968   0.780   1.417  11.342  1.0959 -0.3168 -0.2943
  364MOL0     C47969   0.645   1.401  11.394 -0.8149  0.1568 -0.3599
  364MOL0     C47970   0.230   1.172  11.444 -0.0653  0.3199 -0.8288
  364MOL0     C47971   0.224   1.202  11.579  0.2008 -0.4067 -0.3651
  364MOL0     C47972   0.113   1.159  11.652 -0.7764 -0.7163 -0.8281
  364MOL0     C47973   0.020   1.067  11.602  0.5514  0.8316 -0.6450
  364MOL0     O47974  -0.079   1.004  11.674  0.1823 -0.2093  0.7967
  364MOL0     C47975  -0.050   0.972  11.813  0.7398  1.0726 -0.6152
  364MOL0     C47976  -0.114   0.847  11.859 -1.0687  1.6108  0.1352
  364MOL0     C47977  -0.267   0.855  11.868  0.3599 -0.8273 -1.0394
  364MOL0     C47978  -0.330   0.849  11.723  0.0494 -0.4170 -1.0433
  364MOL0     C47979  -0.470   0.803  11.731  0.0056 -0.2055 -0.5828
  364MOL0     C47980  -0.590   0.778  11.733  0.3862  0.0562  0.2482
  364MOL0     C47981   0.027   1.033  11.463 -0.0673 -0.4379  0.1261
  364MOL0     C47982   0.133   1.083  11.387  0.0500  0.2019  0.4343
  364MOL0     H47983   0.535   1.157  11.195  1.8038 -0.4859  0.8769
  364MOL0     H47984   0.767   1.181  11.102 -1.4157  2.3048 -2.8187
  364MOL0     H47985   0.973   1.216  11.053 -2.4159 -0.9613  0.0592
  364MOL0     H47986   0.987   1.144  11.207 -1.0454  1.0623  0.8475
  364MOL0     H47987   1.197   1.239  11.265 -2.8244 -3.7539  0.7418
  364MOL0     H47988   1.186   1.363  11.138 -0.3488 -0.7297  0.1389
  364MOL0     H47989   1.206   1.061  11.078 -0.1960 -0.6273  2.5624
  364MOL0     H47990   1.351   1.153  11.095 -0.2952 -0.2711 -0.1637
  364MOL0     H47991   1.129   1.226  10.898 -1.3976 -1.3329 -0.7463
  364MOL0     H47992   1.308   1.260  10.891  3.4738 -3.4119  0.7162
  364MOL0     H47993   1.173   0.991  10.853  2.0989 -2.1730  0.2435
  364MOL0     H47994   1.343   1.028  10.889 -0.2519 -0.4943  1.2044
  364MOL0     H47995   1.280   1.183  10.661  0.4881 -0.3282  2.3318
  364MOL0     H47996   1.167   1.060  10.636  1.3924 -0.3251 -0.6187
  364MOL0     H47997   1.454   1.006  10.677  0.0874 -2.1628 -0.1971
  364MOL0     H47998   1.339   0.876  10.651  2.0878 -0.5154 -2.5072
  364MOL0     H47999   1.411   1.076  10.425  1.9693 -1.8281 -2.3749
  364MOL0     H48000   1.267   0.963  10.431 -1.7792  3.5462  2.0532
  364MOL0     H48001   1.662   0.958  10.490 -1.0292  0.6098 -0.2529
  364MOL0     H48002   1.766   0.597  10.413 -2.0005  0.5087 -1.1420
  364MOL0     H48003   1.807   0.737  10.526 -3.0781  0.3751  1.8448
  364MOL0     H48004   1.965   0.738  10.319 -1.6397 -3.1529  1.7562
  364MOL0     H48005   1.865   0.881  10.320  0.5958  0.0098 -0.0308
  364MOL0     H48006   1.780   0.629  10.176  1.3478  0.4034 -0.6653
  364MOL0     H48007   1.737   0.795  10.118  0.4883 -1.5220 -1.6764
  364MOL0     H48008   1.881   0.720   9.957 -2.6599 -1.1555  0.2778
  364MOL0     H48009   1.991   0.651  10.086  0.2777  0.7471  0.1408
  364MOL0     H48010   2.082   0.793   9.850 -0.2115  3.1609 -2.5228
  364MOL0     H48011   2.319   0.760   9.786  2.6824 -1.1239  1.5801
  364MOL0     H48012   2.558   0.584   9.628 -0.5668 -0.0984  0.4092
  364MOL0     H48013   2.743   0.579   9.447 -0.4412  0.7898 -0.6957
  364MOL0     H48014   2.971   0.650   9.330  1.5723  1.1018  1.4941
  364MOL0     H48015   2.945   0.477   9.357 -2.3942  1.6169  1.1553
  364MOL0     H48016   3.160   0.409   9.363 -3.7711 -0.4277  0.1344
  364MOL0     H48017   3.215   0.579   9.378 -2.7610  2.0309 -0.0504
  364MOL0     H48018   3.173   0.639   9.156  2.4319 -0.1608  0.8572
  364MOL0     H48019   3.057   0.505   9.132  0.5751  0.4447 -0.4009
  364MOL0     H48020   3.351   0.454   9.184 -0.7814  1.8812  0.2918
  364MOL0     H48021   3.245   0.341   9.107  2.0942 -0.6166 -0.6240
  364MOL0     H48022   3.329   0.608   8.979  0.5852 -0.2469 -0.7845
  364MOL0     H48023   3.211   0.500   8.915  0.8806 -0.2055 -0.6572
  364MOL0     H48024   3.395   0.320   8.883  0.2788 -0.1743 -1.0013
  364MOL0     H48025   3.505   0.434   8.943 -0.3450 -2.6720  0.9121
  364MOL0     H48026   3.338   0.476   8.698  0.9368 -0.1464  0.1131
  364MOL0     H48027   3.451   0.597   8.761  0.6657 -0.4693  0.9945
  364MOL0     H48028   3.520   0.330   8.645  0.4241  1.5353 -1.7216
  364MOL0     H48029   3.625   0.419   8.763 -0.9097  2.9972  2.3396
  364MOL0     H48030   3.019   0.728   9.736  0.8341  0.3609  0.0335
  364MOL0     H48031   2.829   0.805   9.876 -1.0305  2.1195 -0.4941
  364MOL0     H48032   2.441   0.884  10.169 -0.4893 -2.2949 -0.0679
  364MOL0     H48033   2.204   0.911  10.234  0.5128 -2.4507  0.9224
  364MOL0     H48034   0.834   1.501  11.383  0.1665 -1.2806  3.2485
  364MOL0     H48035   0.608   1.466  11.472 -0.9776  0.2392 -0.5055
  364MOL0     H48036   0.306   1.267  11.608  2.1203 -1.5654 -2.7949
  364MOL0     H48037   0.110   1.196  11.754 -1.0153  0.6721 -1.3161
  364MOL0     H48038  -0.084   1.053  11.878  1.0161  2.0013 -1.6053
  364MOL0     H48039   0.059   0.959  11.820  0.7259  0.7760 -0.9134
  364MOL0     H48040  -0.085   0.761  11.798 -2.4413  0.7013  0.7208
  364MOL0     H48041  -0.082   0.825  11.962 -0.8584  1.2150 -0.0125
  364MOL0     H48042  -0.292   0.954  11.907 -2.2569 -1.5582 -0.7090
  364MOL0     H48043  -0.302   0.770  11.927  0.6246 -1.6821 -2.0828
  364MOL0     H48044  -0.316   0.952  11.691 -0.1055  0.0556  0.3381
  364MOL0     H48045  -0.278   0.782  11.653 -2.1420 -1.5345 -1.7032
  364MOL0     H48046  -0.693   0.764  11.759  0.4114 -1.1127 -0.2276
  364MOL0     H48047  -0.023   0.947  11.419 -0.8040 -0.1685  0.4223
  364MOL0     H48048   0.141   1.050  11.284  0.0729  0.4490  0.3574
  365MOL0     O48049   0.027   5.225   7.211  0.7841  0.2332 -0.7781
  365MOL0     C48050   0.071   5.162   7.312  0.4932  0.5123  0.9806
  365MOL0     O48051  -0.009   5.116   7.411  0.0583 -0.1518  0.5013
  365MOL0     C48052  -0.145   5.151   7.426  0.6751  0.1722  0.0728
  365MOL0     C48053  -0.218   5.063   7.499 -0.5305  0.2149  0.4760
  365MOL0     C48054  -0.354   5.082   7.522  0.4342  0.3809  0.1227
  365MOL0     C48055  -0.420   5.185   7.465  0.7127  0.5816 -0.5126
  365MOL0     O48056  -0.554   5.199   7.479 -0.1403 -0.2232 -0.4961
  365MOL0     C48057  -0.638   5.088   7.448 -0.2328  0.3878 -0.0193
  365MOL0     C48058  -0.787   5.108   7.480  0.6027 -0.3789 -0.8693
  365MOL0     C48059  -0.829   5.253   7.491  0.0589  0.0529  0.4754
  365MOL0     C48060  -0.974   5.272   7.507 -0.1456 -0.3423  0.2690
  365MOL0     C48061  -1.037   5.207   7.634 -0.6072  0.2395  0.3630
  365MOL0     C48062  -1.152   5.288   7.693  0.7948 -0.1962  0.4093
  365MOL0     C48063  -1.260   5.324   7.589 -0.4942 -0.5295  0.1856
  365MOL0     C48064  -1.396   5.362   7.642  0.3365  0.0431 -0.8275
  365MOL0     N48065  -1.473   5.423   7.534 -0.4653  0.6892 -0.3846
  365MOL0     C48066  -1.454   5.556   7.497  0.5669  0.6576 -0.4605
  365MOL0     C48067  -1.506   5.561   7.372 -0.3186  0.0239 -0.5691
  365MOL0     C48068  -1.494   5.679   7.279 -0.5356  0.4172 -0.0432
  365MOL0     C48069  -1.402   5.647   7.157 -0.1809  0.3892  0.9507
  365MOL0     C48070  -1.256   5.651   7.190 -0.5224  0.2975  0.0517
  365MOL0     C48071  -1.177   5.647   7.064  0.1360 -0.4196 -1.4080
  365MOL0     O48072  -1.044   5.626   7.098 -0.0099  0.2484 -0.1797
  365MOL0     C48073  -0.947   5.719   7.129  1.0437 -0.3144  1.1197
  365MOL0     C48074  -0.814   5.678   7.115  0.2197  0.9414  0.6723
  365MOL0     C48075  -0.709   5.762   7.145 -0.4667 -1.0955 -1.0762
  365MOL0     C48076  -0.726   5.893   7.198  0.8798  0.0531  0.8843
  365MOL0     C48077  -0.616   5.970   7.254 -0.6544 -0.3458  0.6271
  365MOL0     O48078  -0.633   6.063   7.356 -0.2665  0.4682 -0.1288
  365MOL0     C48079  -0.547   6.138   7.440 -0.4963  0.5174 -0.5733
  365MOL0     C48080  -0.411   6.143   7.429 -0.8491  0.4904  0.2229
  365MOL0     C48081  -0.329   6.232   7.499 -0.0976 -0.2621 -0.1161
  365MOL0     C48082  -0.383   6.298   7.614  0.3025  0.7862  0.1366
  365MOL0     O48083  -0.308   6.384   7.682 -0.0875  0.0403 -0.4970
  365MOL0     C48084  -0.164   6.377   7.680  0.3683 -0.2339  0.3514
  365MOL0     C48085  -0.104   6.480   7.779  0.0443 -0.3580  0.1451
  365MOL0     C48086   0.039   6.455   7.813 -0.7202  0.0367  1.0830
  365MOL0     C48087   0.093   6.544   7.928 -0.9690 -0.4864  0.1548
  365MOL0     C48088   0.229   6.482   7.976  0.8914  0.4252  0.7939
  365MOL0     C48089   0.281   6.556   8.093  0.0413 -0.5869  0.3886
  365MOL0     C48090   0.402   6.465   8.156 -0.2381 -0.5614  0.4353
  365MOL0     C48091   0.512   6.556   8.191 -0.6626  0.0091 -0.2011
  365MOL0    Cl48092   0.447   6.673   8.315 -0.1655 -0.6649 -0.1381
  365MOL0     C48093  -0.522   6.284   7.637  0.6025  0.5898 -0.5502
  365MOL0     C48094  -0.604   6.214   7.546  1.2777 -0.0210  0.9903
  365MOL0     O48095  -0.507   5.947   7.201  0.2083  0.0546  0.7354
  365MOL0     C48096  -0.866   5.927   7.218  0.0002  0.6004  0.3966
  365MOL0     C48097  -0.969   5.846   7.166  0.5563  0.1797  0.0782
  365MOL0     N48098  -1.557   5.435   7.348  0.2142  0.4167  0.4961
  365MOL0     N48099  -1.531   5.350   7.435 -0.1934  0.5258 -0.3614
  365MOL0     C48100  -0.348   5.285   7.395  0.0634 -0.0414 -0.6606
  365MOL0     C48101  -0.209   5.278   7.386 -0.6180  0.4344 -0.7464
  365MOL0     C48102   0.221   5.148   7.306 -0.0823  0.0417 -0.7416
  365MOL0     C48103   0.306   5.200   7.206  0.2249 -0.5504  0.6217
  365MOL0     C48104   0.443   5.188   7.209  0.0183 -0.1811  1.0981
  365MOL0     C48105   0.505   5.119   7.315 -0.2226  0.6873  0.2870
  365MOL0     O48106   0.639   5.102   7.303  0.7394 -0.4432  0.2150
  365MOL0     C48107   0.718   5.026   7.391  0.3619  0.3922  0.2327
  365MOL0     C48108   0.858   5.000   7.347  0.4379 -0.3972  0.4968
  365MOL0     C48109   0.944   5.127   7.366  0.2878  0.3038  0.3855
  365MOL0     C48110   0.948   5.200   7.235  0.1656 -0.3154 -0.3127
  365MOL0     C48111   1.032   5.319   7.241 -0.9684  0.3402 -0.2917
  365MOL0     C48112   1.111   5.415   7.246  0.3791  0.1550 -0.2315
  365MOL0     C48113   0.427   5.075   7.426  0.8642  0.5214  0.3594
  365MOL0     C48114   0.285   5.103   7.425 -0.5808  0.4444 -0.1545
  365MOL0     H48115  -0.170   4.977   7.543 -1.4049  0.6750  2.4754
  365MOL0     H48116  -0.412   5.019   7.590  0.8571 -1.3944 -1.1164
  365MOL0     H48117  -0.602   5.002   7.505 -0.5406  0.3211  0.0785
  365MOL0     H48118  -0.620   5.067   7.342 -0.4635  1.5917 -0.3090
  365MOL0     H48119  -0.816   5.076   7.581 -2.7116  0.8212 -1.3035
  365MOL0     H48120  -0.846   5.058   7.403  1.0438  1.3357 -2.3928
  365MOL0     H48121  -0.807   5.310   7.400 -2.6650 -1.2972 -1.1837
  365MOL0     H48122  -0.783   5.295   7.581 -0.0511  1.4739 -0.1119
  365MOL0     H48123  -0.980   5.381   7.517 -0.2799 -0.4565  1.6096
  365MOL0     H48124  -1.023   5.243   7.413 -2.4088  1.7229  0.7313
  365MOL0     H48125  -0.965   5.207   7.716 -0.9606  3.8174  0.8149
  365MOL0     H48126  -1.072   5.103   7.625 -2.6484  0.8226  0.9753
  365MOL0     H48127  -1.108   5.379   7.736  0.0948 -1.4572  4.2338
  365MOL0     H48128  -1.197   5.226   7.771  0.5912 -0.6032 -0.0303
  365MOL0     H48129  -1.212   5.406   7.535  0.7430 -0.1986  1.7250
  365MOL0     H48130  -1.275   5.244   7.515 -0.6282  0.2151 -0.6172
  365MOL0     H48131  -1.376   5.443   7.712 -1.5535  0.7713 -1.0572
  365MOL0     H48132  -1.451   5.283   7.694 -0.1202  2.2080  2.2117
  365MOL0     H48133  -1.407   5.642   7.543  4.3066  0.4709 -3.4619
  365MOL0     H48134  -1.442   5.763   7.324  2.0475  0.1552 -2.2592
  365MOL0     H48135  -1.596   5.707   7.249 -1.1237 -1.3413  0.1717
  365MOL0     H48136  -1.427   5.715   7.075 -1.4427 -2.5187 -1.2566
  365MOL0     H48137  -1.421   5.545   7.123  0.2535  0.6554 -0.1416
  365MOL0     H48138  -1.231   5.746   7.238 -0.5268 -0.5078  1.6747
  365MOL0     H48139  -1.245   5.571   7.263  2.1540 -0.7358 -1.3507
  365MOL0     H48140  -1.181   5.736   7.000 -0.5460 -0.5434 -1.5486
  365MOL0     H48141  -1.221   5.566   7.004 -1.4022  0.8254 -2.0565
  365MOL0     H48142  -0.795   5.575   7.084  3.5455  1.5852  0.2279
  365MOL0     H48143  -0.611   5.716   7.133  0.3267 -1.0985  3.5254
  365MOL0     H48144  -0.364   6.090   7.346 -1.4726  1.5376 -0.8409
  365MOL0     H48145  -0.229   6.252   7.461 -0.5392  0.1573 -1.1082
  365MOL0     H48146  -0.130   6.393   7.577 -0.1466 -2.3435 -0.1813
  365MOL0     H48147  -0.132   6.276   7.708  3.0880  0.4037 -0.1013
  365MOL0     H48148  -0.151   6.467   7.877  2.2551 -1.5921  1.1108
  365MOL0     H48149  -0.121   6.582   7.743 -4.4917 -1.1916 -0.6730
  365MOL0     H48150   0.092   6.476   7.720 -0.8431  0.9707  1.2138
  365MOL0     H48151   0.056   6.351   7.840  0.7620  0.0366  0.2267
  365MOL0     H48152   0.094   6.647   7.893 -2.9910 -0.4306  0.1286
  365MOL0     H48153   0.022   6.539   8.012  0.2637  2.7455  1.5495
  365MOL0     H48154   0.300   6.482   7.894 -1.4234 -2.0755 -1.4026
  365MOL0     H48155   0.214   6.377   8.001  0.5987 -0.4252 -2.5268
  365MOL0     H48156   0.205   6.572   8.170 -2.1763 -2.6607 -1.1831
  365MOL0     H48157   0.330   6.646   8.055  4.0333 -1.7728  2.2038
  365MOL0     H48158   0.362   6.419   8.247  1.2483  1.5638  2.2528
  365MOL0     H48159   0.443   6.392   8.085  2.3462  1.2530 -0.0890
  365MOL0     H48160   0.563   6.607   8.109  2.8600  0.0327  1.8055
  365MOL0     H48161   0.587   6.506   8.253  0.1892  0.7654 -0.5902
  365MOL0     H48162  -0.569   6.347   7.712  0.3375  0.2409 -0.4196
  365MOL0     H48163  -0.711   6.218   7.563  1.3493  1.8807  1.2260
  365MOL0     H48164  -0.905   6.020   7.259 -1.6082 -0.1964  0.7775
  365MOL0     H48165  -1.070   5.884   7.178 -0.3411 -1.9072 -0.3321
  365MOL0     H48166  -0.398   5.370   7.349 -0.3922 -1.6770 -3.3746
  365MOL0     H48167  -0.154   5.354   7.332  1.4073 -1.1917 -1.1296
  365MOL0     H48168   0.258   5.259   7.129  0.2635 -3.4465 -1.7725
  365MOL0     H48169   0.502   5.225   7.125 -0.3172 -1.3266  0.3310
  365MOL0     H48170   0.674   4.928   7.408  3.4487 -1.6127 -2.3066
  365MOL0     H48171   0.704   5.072   7.490 -1.5563  0.2344  0.0671
  365MOL0     H48172   0.896   4.935   7.426  1.1992 -1.7161 -0.8833
  365MOL0     H48173   0.870   4.956   7.247  1.0638  1.0644 -0.0884
  365MOL0     H48174   1.042   5.086   7.393 -1.4026 -2.0021  3.7869
  365MOL0     H48175   0.917   5.186   7.455  1.2462  1.0186  0.2180
  365MOL0     H48176   0.978   5.134   7.153 -2.0302  0.4963 -1.8630
  365MOL0     H48177   0.851   5.243   7.206  0.0006  1.4883  2.4825
  365MOL0     H48178   1.178   5.498   7.251 -0.1409  0.5293  0.9764
  365MOL0     H48179   0.470   5.021   7.509 -0.3243 -2.1188 -0.6203
  365MOL0     H48180   0.223   5.072   7.509  0.3617 -2.7561 -0.5053
  366MOL0     O48181   5.644   5.753   6.933  0.5559  0.6148 -0.1762
  366MOL0     C48182   5.606   5.649   6.975 -0.4636 -0.6225 -0.0080
  366MOL0     O48183   5.505   5.627   7.065  0.2658  0.0846  0.4343
  366MOL0     C48184   5.419   5.731   7.091  0.8974  0.7661 -0.0687
  366MOL0     C48185   5.338   5.792   6.995  0.4942 -1.1927  0.2055
  366MOL0     C48186   5.232   5.879   7.025 -1.3001  0.2502 -0.1431
  366MOL0     C48187   5.207   5.907   7.162  0.2531  0.5093  0.7437
  366MOL0     O48188   5.105   5.996   7.179 -0.3726 -0.0735  0.3244
  366MOL0     C48189   5.073   6.050   7.311  0.4085  0.3381 -0.0161
  366MOL0     C48190   5.164   6.165   7.345 -0.0173 -0.3239  0.1107
  366MOL0     C48191   5.093   6.300   7.320  0.2751 -0.9451  0.8598
  366MOL0     C48192   5.166   6.418   7.396 -0.7760  0.6698  0.8303
  366MOL0     C48193   5.296   6.436   7.326 -0.4354 -1.1727  1.0318
  366MOL0     C48194   5.326   6.591   7.359  0.1310  0.1044 -0.3113
  366MOL0     C48195   5.440   6.639   7.267  0.9589  0.3666  0.1728
  366MOL0     C48196   5.479   6.786   7.301 -0.2807 -0.6105  0.1916
  366MOL0     N48197   5.514   6.818   7.443 -0.0973  0.0263  0.8232
  366MOL0     C48198   5.634   6.876   7.491  0.7236 -0.2523  0.9007
  366MOL0     C48199   5.607   6.924   7.613 -0.0951 -0.1768  0.9532
  366MOL0     C48200   5.695   7.008   7.695 -0.4588  0.4403 -0.1273
  366MOL0     C48201   5.732   7.145   7.637  0.5141  0.3371  0.4902
  366MOL0     C48202   5.793   7.243   7.731 -0.4417  0.2439 -0.1740
  366MOL0     C48203   5.687   7.309   7.809  0.8014 -0.2364  0.7707
  366MOL0     O48204   5.750   7.420   7.888 -0.9361 -0.3650 -0.1923
  366MOL0     C48205   5.679   7.543   7.918 -0.1879  0.4098  0.4543
  366MOL0     C48206   5.764   7.649   7.933 -0.4666 -0.9935  0.0276
  366MOL0     C48207   5.709   7.773   7.963 -1.3376  0.3387  1.4036
  366MOL0     C48208   5.576   7.777   8.003  0.5169 -1.5502  0.9218
  366MOL0     C48209   5.522   7.899   8.053  0.9428 -0.5205 -0.4763
  366MOL0     O48210   5.389   7.926   8.035 -0.7911 -0.4064 -0.4371
  366MOL0     C48211   5.342   8.031   8.103  0.3088  0.5828  0.0815
  366MOL0     C48212   5.355   8.165   8.067  0.8541 -0.8280  0.5828
  366MOL0     C48213   5.301   8.266   8.145  0.3765 -0.3267 -0.0139
  366MOL0     C48214   5.212   8.239   8.248  0.4103 -1.2289 -0.1685
  366MOL0     O48215   5.143   8.338   8.320 -0.7723 -0.2781  0.2757
  366MOL0     C48216   5.212   8.461   8.347  0.6763 -0.2698 -0.3603
  366MOL0     C48217   5.128   8.536   8.444  0.4272 -0.4201  0.2211
  366MOL0     C48218   5.200   8.660   8.510  0.3327  0.3392 -0.1929
  366MOL0     C48219   5.320   8.619   8.598  0.4916 -0.2591 -1.4952
  366MOL0     C48220   5.378   8.712   8.697  0.0238 -0.2337  0.9501
  366MOL0     C48221   5.291   8.741   8.818  0.1581  0.4111 -0.4179
  366MOL0     C48222   5.360   8.735   8.956  0.3567  0.0446 -0.3154
  366MOL0     C48223   5.371   8.589   9.004 -0.3044  0.9067 -0.0231
  366MOL0    Cl48224   5.207   8.520   9.038  0.2357  0.0358 -0.2549
  366MOL0     C48225   5.201   8.110   8.286  0.4239 -0.7466  0.3169
  366MOL0     C48226   5.260   8.004   8.212 -0.9603 -0.2043 -1.4316
  366MOL0     O48227   5.599   7.978   8.103 -0.2632 -0.4340  0.4400
  366MOL0     C48228   5.488   7.669   7.986  0.2235  0.1287 -0.3602
  366MOL0     C48229   5.543   7.553   7.945 -0.5837 -0.7674  0.3709
  366MOL0     N48230   5.487   6.885   7.651 -0.4915  0.2474 -0.2566
  366MOL0     N48231   5.426   6.823   7.547 -1.0427 -0.1370 -0.4038
  366MOL0     C48232   5.280   5.846   7.266 -0.2859  0.3448 -0.0639
  366MOL0     C48233   5.381   5.751   7.229  0.3655 -0.6158 -0.0515
  366MOL0     C48234   5.689   5.533   6.939 -0.2374  0.6116 -0.1079
  366MOL0     C48235   5.770   5.537   6.819  0.6349 -0.0754 -0.1294
  366MOL0     C48236   5.846   5.428   6.775  0.0544  0.2686 -0.1229
  366MOL0     C48237   5.855   5.311   6.851 -0.1097  0.9895  0.0303
  366MOL0     O48238   5.921   5.195   6.811  0.6897  0.0964 -0.1299
  366MOL0     C48239   6.021   5.196   6.709 -0.1304 -0.0697  0.1450
  366MOL0     C48240   6.022   5.059   6.647 -0.5578  0.3527  1.0018
  366MOL0     C48241   6.032   4.943   6.744  0.3223 -0.3845 -0.3384
  366MOL0     C48242   6.035   4.813   6.668  0.1766  0.8940  0.7835
  366MOL0     C48243   6.025   4.698   6.758  0.1799 -1.3591 -0.2596
  366MOL0     C48244   6.017   4.600   6.821 -0.6590  0.6569  0.2818
  366MOL0     C48245   5.782   5.308   6.970 -0.4359 -0.5623 -0.0580
  366MOL0     C48246   5.695   5.414   7.018 -1.0651 -0.8139 -0.6921
  366MOL0     H48247   5.346   5.763   6.890 -2.4748  0.2362 -0.5137
  366MOL0     H48248   5.183   5.933   6.944 -0.3046  3.0201  1.0028
  366MOL0     H48249   5.066   5.980   7.394 -0.0565 -1.5874 -1.5896
  366MOL0     H48250   4.971   6.089   7.302  0.3117 -0.4119 -3.9494
  366MOL0     H48251   5.257   6.159   7.287  1.3661 -0.4513  2.2324
  366MOL0     H48252   5.192   6.152   7.450  1.8208 -3.6115 -0.6213
  366MOL0     H48253   4.993   6.297   7.366 -0.0045  2.2207  0.6575
  366MOL0     H48254   5.083   6.322   7.213  1.5136 -3.2620  0.1953
  366MOL0     H48255   5.108   6.510   7.401 -0.8729  0.5401  3.9893
  366MOL0     H48256   5.179   6.399   7.503  2.2928 -3.7182 -0.0368
  366MOL0     H48257   5.300   6.425   7.217 -0.9528  1.0413  0.7393
  366MOL0     H48258   5.371   6.371   7.372  0.4357 -0.1448  1.0885
  366MOL0     H48259   5.370   6.584   7.459 -0.0422 -0.8696 -0.2969
  366MOL0     H48260   5.242   6.661   7.371  0.2523 -0.0035  1.5029
  366MOL0     H48261   5.523   6.571   7.288  3.1154  3.7590  4.1436
  366MOL0     H48262   5.404   6.632   7.164 -3.3231  0.6898  1.4249
  366MOL0     H48263   5.400   6.859   7.282  0.3770  1.0020  3.1171
  366MOL0     H48264   5.571   6.802   7.244  0.0970 -2.5471  0.1754
  366MOL0     H48265   5.725   6.894   7.435  1.7268  1.2888  2.8883
  366MOL0     H48266   5.783   6.946   7.711  0.9504  2.3441 -0.1595
  366MOL0     H48267   5.655   7.032   7.795  0.0621  3.1964 -0.5053
  366MOL0     H48268   5.640   7.189   7.597  1.5324  3.0487  0.9218
  366MOL0     H48269   5.795   7.134   7.549 -0.0611 -2.1211  0.2975
  366MOL0     H48270   5.879   7.198   7.782 -1.0418 -1.9916 -1.0348
  366MOL0     H48271   5.838   7.325   7.674  0.8900  0.5030  1.1841
  366MOL0     H48272   5.645   7.239   7.883 -0.9687  1.4962  1.4782
  366MOL0     H48273   5.602   7.344   7.749  0.9870  0.1289  0.7208
  366MOL0     H48274   5.869   7.644   7.909 -0.9751 -1.7699 -2.3749
  366MOL0     H48275   5.757   7.870   7.957  1.4086 -0.9989 -0.1976
  366MOL0     H48276   5.417   8.189   7.981  2.3135 -1.5233  1.3853
  366MOL0     H48277   5.295   8.367   8.105  1.0032 -0.2706  0.0291
  366MOL0     H48278   5.221   8.510   8.250  1.5041 -0.7497 -0.5354
  366MOL0     H48279   5.317   8.456   8.379  0.0919  0.2928  1.8468
  366MOL0     H48280   5.093   8.469   8.524 -0.5531  1.4575  1.4410
  366MOL0     H48281   5.038   8.573   8.394  0.9764  2.4194  1.1389
  366MOL0     H48282   5.131   8.718   8.572  1.7457  2.6791 -0.6872
  366MOL0     H48283   5.235   8.731   8.434 -0.5218 -1.9572 -2.8801
  366MOL0     H48284   5.290   8.529   8.653  0.7088  0.4144 -0.2340
  366MOL0     H48285   5.401   8.597   8.528  0.3735  3.4411 -2.9956
  366MOL0     H48286   5.404   8.804   8.644  2.9056 -1.4577  0.0087
  366MOL0     H48287   5.478   8.677   8.727  0.0046  0.5362  1.9537
  366MOL0     H48288   5.214   8.663   8.818  1.2823 -0.7941  1.7662
  366MOL0     H48289   5.237   8.836   8.807  1.0860  1.1538  1.1040
  366MOL0     H48290   5.460   8.781   8.951  1.9258 -3.2184 -2.6669
  366MOL0     H48291   5.307   8.793   9.032  1.8986  0.2925  0.6211
  366MOL0     H48292   5.423   8.565   9.098  0.3605 -1.5018 -0.9300
  366MOL0     H48293   5.403   8.536   8.914 -2.6015  1.8858 -1.5037
  366MOL0     H48294   5.149   8.088   8.378 -1.5195 -0.1805 -0.5946
  366MOL0     H48295   5.256   7.900   8.244 -0.0821 -0.7432 -2.9366
  366MOL0     H48296   5.380   7.667   7.998 -0.0328 -0.0622 -2.4440
  366MOL0     H48297   5.478   7.467   7.935  0.5240 -1.7820  1.4505
  366MOL0     H48298   5.253   5.855   7.371 -0.1512 -2.9973  0.3725
  366MOL0     H48299   5.426   5.692   7.309  0.4488 -1.6904 -0.8600
  366MOL0     H48300   5.775   5.631   6.766  0.4714  0.8799  1.4802
  366MOL0     H48301   5.894   5.458   6.682  0.3206  0.5119  0.0878
  366MOL0     H48302   6.120   5.228   6.743  0.3841  1.8267 -2.7691
  366MOL0     H48303   5.998   5.266   6.628  1.6912 -1.6565 -1.8562
  366MOL0     H48304   5.927   5.044   6.594 -1.6060 -1.8622  3.3008
  366MOL0     H48305   6.102   5.055   6.573 -0.2333  0.3232  1.3517
  366MOL0     H48306   5.945   4.934   6.809  0.2725  1.9487  0.0015
  366MOL0     H48307   6.115   4.953   6.815  0.9249 -1.3167 -0.8793
  366MOL0     H48308   5.958   4.802   6.591  2.3177  0.8372 -1.5049
  366MOL0     H48309   6.130   4.792   6.617 -1.5027 -3.1995 -1.1117
  366MOL0     H48310   6.019   4.519   6.892 -1.1655  1.7992  1.6538
  366MOL0     H48311   5.800   5.215   7.024  0.6282 -1.7629 -2.2879
  366MOL0     H48312   5.640   5.411   7.111  0.4366  0.3761  0.2672
  367MOL0     O48313   5.531   4.354   2.734 -0.0048 -0.3252 -0.6398
  367MOL0     C48314   5.509   4.326   2.615 -0.2487  0.2113  0.1542
  367MOL0     O48315   5.599   4.262   2.539 -0.3967  0.1503  0.7663
  367MOL0     C48316   5.720   4.233   2.596 -1.1080  1.1833  0.3962
  367MOL0     C48317   5.816   4.338   2.607 -0.6075  0.0929  0.3963
  367MOL0     C48318   5.941   4.316   2.670  0.2981 -0.4134  0.4041
  367MOL0     C48319   5.976   4.186   2.712  0.3074 -0.2220  0.1808
  367MOL0     O48320   6.089   4.159   2.780 -0.5269 -0.7276 -0.2865
  367MOL0     C48321   6.184   4.255   2.820 -0.6935 -0.3964 -0.1181
  367MOL0     C48322   6.312   4.182   2.852  0.0318  0.6945 -0.4586
  367MOL0     C48323   6.407   4.260   2.936 -0.4744 -0.7048  0.0978
  367MOL0     C48324   6.488   4.167   3.020 -0.2786 -0.5425 -0.1184
  367MOL0     C48325   6.621   4.212   3.064 -0.3713 -0.7671 -0.8087
  367MOL0     C48326   6.736   4.208   2.969 -0.2189 -0.7147 -0.6161
  367MOL0     C48327   6.863   4.274   3.028 -0.2018 -0.3047  0.3401
  367MOL0     C48328   6.974   4.291   2.917 -0.7941  0.8740  0.1901
  367MOL0     N48329   7.099   4.359   2.965  1.4653  0.0835 -0.3527
  367MOL0     C48330   7.124   4.492   2.948 -0.2948  0.1483  0.0425
  367MOL0     C48331   7.216   4.548   3.035  0.2285  0.0707  0.1411
  367MOL0     C48332   7.256   4.690   3.043  0.6772 -0.4588 -0.2230
  367MOL0     C48333   7.188   4.757   3.171 -0.3020  0.0786  0.3600
  367MOL0     C48334   7.242   4.897   3.164  0.1834 -0.1049 -0.0838
  367MOL0     C48335   7.213   4.965   3.298  1.0272  0.0341 -0.9274
  367MOL0     O48336   7.080   4.919   3.352  0.0447 -0.1464  0.0904
  367MOL0     C48337   6.964   4.958   3.296 -0.1404  1.4201  0.2654
  367MOL0     C48338   6.855   4.906   3.355 -0.1332  0.3228  0.2218
  367MOL0     C48339   6.731   4.927   3.305  0.2512  0.0478  0.2483
  367MOL0     C48340   6.706   5.017   3.202 -0.3577 -0.2619 -0.4164
  367MOL0     C48341   6.567   5.031   3.146 -0.1590  0.2877  0.2499
  367MOL0     O48342   6.466   4.991   3.210 -0.2992 -0.5754 -0.3383
  367MOL0     C48343   6.326   4.999   3.185  0.4849 -0.1842  0.2335
  367MOL0     C48344   6.262   5.101   3.104 -0.4442 -0.0203 -0.2459
  367MOL0     C48345   6.132   5.129   3.098  0.3723 -1.3233  1.2155
  367MOL0     C48346   6.044   5.032   3.135  0.5474 -0.2840 -0.1511
  367MOL0     O48347   5.909   5.059   3.114 -0.2340 -0.1552  0.4982
  367MOL0     C48348   5.814   4.966   3.146 -0.2336 -0.1443  0.3903
  367MOL0     C48349   5.669   5.032   3.153 -0.8571  0.7476  0.1719
  367MOL0     C48350   5.618   5.086   3.016  0.2603 -0.6921  0.5171
  367MOL0     C48351   5.476   5.139   3.029 -0.2742  0.7778  0.3392
  367MOL0     C48352   5.413   5.214   2.911 -0.1484 -0.0637  0.2323
  367MOL0     C48353   5.266   5.252   2.936 -1.5582 -0.1852  0.5456
  367MOL0     C48354   5.190   5.258   2.798 -0.0099  0.1646 -0.7326
  367MOL0     C48355   5.034   5.264   2.819 -0.7015  0.2192  0.3733
  367MOL0    Cl48356   5.005   5.408   2.922  0.3463 -0.1607  0.1283
  367MOL0     C48357   6.094   4.909   3.201 -0.2804  0.6310  0.3979
  367MOL0     C48358   6.235   4.900   3.228 -0.0519  0.0205 -0.1046
  367MOL0     O48359   6.563   5.056   3.024 -0.2896  0.3299 -0.4978
  367MOL0     C48360   6.816   5.083   3.151 -0.1219 -0.0304 -0.5995
  367MOL0     C48361   6.947   5.050   3.197  0.4167  0.3295  0.2162
  367MOL0     N48362   7.244   4.430   3.110 -0.0942  1.3624 -0.7312
  367MOL0     N48363   7.184   4.320   3.071  0.6549  0.1266  0.5016
  367MOL0     C48364   5.884   4.084   2.685  0.0323  0.2436  0.1493
  367MOL0     C48365   5.762   4.106   2.639 -0.0914  0.8454 -0.2743
  367MOL0     C48366   5.385   4.382   2.557 -0.1400  0.3085  0.1639
  367MOL0     C48367   5.295   4.458   2.634 -1.2855  0.5874 -0.0240
  367MOL0     C48368   5.183   4.510   2.576  0.5425  0.4614 -0.3403
  367MOL0     C48369   5.155   4.503   2.443 -0.6415  0.7986 -0.1350
  367MOL0     O48370   5.052   4.570   2.383  0.6595  0.3545 -0.4825
  367MOL0     C48371   5.091   4.649   2.272 -0.0586  0.0327  1.2347
  367MOL0     C48372   4.984   4.761   2.253  0.4139 -0.2942  0.2551
  367MOL0     C48373   4.851   4.698   2.203  0.4700  0.9584  0.5370
  367MOL0     C48374   4.747   4.793   2.147  0.3671 -0.7744  0.3946
  367MOL0     C48375   4.794   4.889   2.050  0.1425  0.5566  0.7093
  367MOL0     C48376   4.824   4.960   1.959  0.9160 -0.3688  0.4359
  367MOL0     C48377   5.236   4.427   2.370 -0.0245 -0.4926 -0.0389
  367MOL0     C48378   5.360   4.372   2.423  0.7472  0.8751  0.4144
  367MOL0     H48379   5.793   4.443   2.588  0.8928  0.9158  2.7092
  367MOL0     H48380   6.005   4.401   2.690 -1.5409  0.4982  2.9527
  367MOL0     H48381   6.161   4.320   2.905 -0.9407  0.1837 -0.6186
  367MOL0     H48382   6.220   4.320   2.740 -0.5624 -1.3300 -0.8275
  367MOL0     H48383   6.362   4.149   2.761 -2.4681  0.3545 -1.7808
  367MOL0     H48384   6.289   4.086   2.901 -0.3398  0.0868 -1.7932
  367MOL0     H48385   6.355   4.331   3.001 -1.3707  2.2625 -3.5027
  367MOL0     H48386   6.479   4.319   2.878  0.5082 -2.5265 -0.6075
  367MOL0     H48387   6.427   4.160   3.111  0.5453 -0.8872  0.4158
  367MOL0     H48388   6.492   4.077   2.959  0.6957  1.1615 -2.7014
  367MOL0     H48389   6.655   4.157   3.152 -1.1370  0.9903  0.6666
  367MOL0     H48390   6.603   4.313   3.102  0.1970 -2.4417  4.7052
  367MOL0     H48391   6.703   4.268   2.884 -1.3963  1.7064  1.4007
  367MOL0     H48392   6.772   4.108   2.945  2.9081 -0.4524  2.2607
  367MOL0     H48393   6.833   4.369   3.073 -2.5717 -0.5249 -0.6584
  367MOL0     H48394   6.923   4.212   3.095 -0.8936 -3.3515 -1.6662
  367MOL0     H48395   6.931   4.330   2.824  0.1597  0.2019 -0.5516
  367MOL0     H48396   7.017   4.197   2.882 -2.8630  0.7898 -2.3938
  367MOL0     H48397   7.089   4.559   2.869  1.5709  2.5599  1.0956
  367MOL0     H48398   7.229   4.742   2.951 -0.2254  0.0220  0.2969
  367MOL0     H48399   7.364   4.696   3.058  0.5476 -0.0323  0.6287
  367MOL0     H48400   7.208   4.703   3.263  0.7669 -3.2007 -1.6150
  367MOL0     H48401   7.081   4.763   3.147 -0.3336  3.7955  0.8230
  367MOL0     H48402   7.347   4.898   3.133  0.3134  1.2236  0.3474
  367MOL0     H48403   7.191   4.960   3.090 -0.7276  1.9543  2.1742
  367MOL0     H48404   7.191   5.071   3.283  1.1459  0.8094  3.3456
  367MOL0     H48405   7.287   4.956   3.377  0.5392 -1.4951 -0.6152
  367MOL0     H48406   6.870   4.843   3.442  0.7185  0.6019  0.2922
  367MOL0     H48407   6.659   4.858   3.348  1.6356 -2.3076 -0.9817
  367MOL0     H48408   6.332   5.167   3.053 -1.2526  0.8833 -0.2046
  367MOL0     H48409   6.096   5.217   3.046  1.1637 -0.0942  2.6396
  367MOL0     H48410   5.839   4.924   3.244 -0.7993 -0.4142  0.4177
  367MOL0     H48411   5.811   4.883   3.075  3.9241  0.2213 -0.4548
  367MOL0     H48412   5.662   5.120   3.217  0.4007  0.6038  0.5541
  367MOL0     H48413   5.611   4.946   3.187  0.7830 -2.9985 -5.2231
  367MOL0     H48414   5.609   5.015   2.933 -0.8020 -0.3978  0.3707
  367MOL0     H48415   5.675   5.175   2.987  2.4189 -1.8096  1.1272
  367MOL0     H48416   5.411   5.054   3.049  0.8658 -0.1477  0.2259
  367MOL0     H48417   5.472   5.209   3.113  1.6668  0.4608  0.7508
  367MOL0     H48418   5.429   5.161   2.817  2.4062  0.6459  0.1878
  367MOL0     H48419   5.461   5.313   2.905 -2.9411  1.3809  0.0598
  367MOL0     H48420   5.257   5.342   2.997 -1.1106 -0.4014  0.9430
  367MOL0     H48421   5.214   5.169   2.984 -1.6637 -1.5908 -1.8597
  367MOL0     H48422   5.224   5.349   2.748 -2.3673  1.2688 -0.4588
  367MOL0     H48423   5.219   5.164   2.750  2.7796  0.2104  0.6422
  367MOL0     H48424   5.002   5.176   2.876 -2.6536  1.1055  0.7418
  367MOL0     H48425   4.974   5.280   2.729 -0.9539  0.4288  0.5772
  367MOL0     H48426   6.027   4.829   3.231  0.5433  0.5338  2.0707
  367MOL0     H48427   6.279   4.817   3.283  0.4275  0.4450  0.1625
  367MOL0     H48428   6.808   5.155   3.070  3.9241  0.2712 -0.9178
  367MOL0     H48429   7.029   5.096   3.143  0.8987  1.1468  1.5780
  367MOL0     H48430   5.911   3.983   2.716 -2.4880 -0.0960  1.5049
  367MOL0     H48431   5.689   4.026   2.652 -0.2466  1.1183  0.5953
  367MOL0     H48432   5.314   4.467   2.740 -0.0893 -5.4427  0.6313
  367MOL0     H48433   5.126   4.576   2.641  2.1869  1.6012 -0.0143
  367MOL0     H48434   5.103   4.585   2.184  0.6251 -0.0665  1.3915
  367MOL0     H48435   5.187   4.702   2.280  0.2590 -0.1869 -0.6503
  367MOL0     H48436   4.972   4.798   2.355  0.0813  1.0652 -0.2517
  367MOL0     H48437   5.026   4.838   2.187  2.2274 -2.2517 -1.0052
  367MOL0     H48438   4.808   4.633   2.279  1.0237 -2.4333 -1.7840
  367MOL0     H48439   4.881   4.638   2.116  0.2099 -3.2646  3.0531
  367MOL0     H48440   4.664   4.730   2.112 -0.0727  0.9347 -1.8908
  367MOL0     H48441   4.698   4.852   2.224 -1.9498 -0.3700 -1.2594
  367MOL0     H48442   4.838   5.035   1.884 -1.3058 -2.9466 -2.7890
  367MOL0     H48443   5.216   4.411   2.264 -4.7356  1.9995  0.2063
  367MOL0     H48444   5.430   4.319   2.359 -0.5563  0.2331 -0.5208
  368MOL0     O48445   9.457   7.500  10.785  0.4347  0.1485 -0.6753
  368MOL0     C48446   9.413   7.599  10.735 -0.0584 -0.0801 -0.0402
  368MOL0     O48447   9.318   7.607  10.639  0.5480 -0.1737  0.6193
  368MOL0     C48448   9.224   7.509  10.619 -0.2997  0.0402 -0.1054
  368MOL0     C48449   9.122   7.540  10.526 -0.3854 -0.0712 -0.4352
  368MOL0     C48450   9.017   7.451  10.493 -0.6472 -0.8309 -0.6192
  368MOL0     C48451   9.015   7.320  10.547 -1.5818  0.3641 -0.3506
  368MOL0     O48452   8.911   7.228  10.531  0.0075  0.0313 -0.0912
  368MOL0     C48453   8.855   7.208  10.396  0.2449  0.0329 -0.0692
  368MOL0     C48454   8.711   7.151  10.406 -0.3213  0.6746 -0.0070
  368MOL0     C48455   8.625   7.233  10.308  0.0879  0.1908 -0.2397
  368MOL0     C48456   8.477   7.193  10.330 -0.6338 -0.8763  0.1316
  368MOL0     C48457   8.390   7.265  10.231  0.4564  1.0150  0.2005
  368MOL0     C48458   8.248   7.205  10.232  0.2062 -0.1169  0.1710
  368MOL0     C48459   8.157   7.269  10.123  0.1119  0.2586  0.1574
  368MOL0     C48460   8.114   7.415  10.141 -0.0840  0.5543  0.1663
  368MOL0     N48461   8.014   7.417  10.247  0.8606  0.1344  0.0797
  368MOL0     C48462   7.878   7.409  10.227 -0.3564  1.0135 -0.8982
  368MOL0     C48463   7.822   7.417  10.351 -0.4522 -0.2504  0.2498
  368MOL0     C48464   7.675   7.383  10.384  0.9671  0.6297  0.7830
  368MOL0     C48465   7.600   7.500  10.437 -0.4472  0.2034 -0.5067
  368MOL0     C48466   7.447   7.474  10.458 -0.1973  0.5843  0.9907
  368MOL0     C48467   7.348   7.561  10.373 -0.6632  0.0856  0.2114
  368MOL0     O48468   7.344   7.702  10.407  0.2490  0.2310  0.3950
  368MOL0     C48469   7.253   7.775  10.331 -0.9002  0.9744 -0.9383
  368MOL0     C48470   7.214   7.893  10.387  0.9941 -0.8271 -0.2156
  368MOL0     C48471   7.104   7.976  10.352  0.6654 -0.3958 -1.1625
  368MOL0     C48472   7.033   7.940  10.238 -0.3904 -0.0902  0.2575
  368MOL0     C48473   6.934   8.033  10.186 -0.2321 -0.6520  0.5694
  368MOL0     O48474   6.878   8.013  10.056 -0.2373 -0.0529  0.3740
  368MOL0     C48475   6.790   8.102  10.007  1.0386 -0.3695 -0.2504
  368MOL0     C48476   6.842   8.208   9.934 -0.0597  0.0259  0.7333
  368MOL0     C48477   6.761   8.305   9.879  0.5904  0.0980 -0.1955
  368MOL0     C48478   6.624   8.302   9.909  0.0137 -1.0299  0.5232
  368MOL0     O48479   6.549   8.411   9.874 -1.3966  0.1628  0.0871
  368MOL0     C48480   6.409   8.400   9.837 -0.5704  0.3201 -0.3671
  368MOL0     C48481   6.383   8.505   9.728  0.5514  0.1968 -0.2982
  368MOL0     C48482   6.240   8.491   9.670  0.5310  0.0107  0.2076
  368MOL0     C48483   6.195   8.624   9.606  0.4814 -0.0088 -0.2962
  368MOL0     C48484   6.052   8.602   9.558  0.2089  0.4523  0.7072
  368MOL0     C48485   6.001   8.705   9.461 -0.0489  0.0886 -0.6521
  368MOL0     C48486   5.848   8.706   9.483 -1.1181  0.8562 -0.2043
  368MOL0     C48487   5.791   8.769   9.356 -0.4981 -0.0547 -0.5216
  368MOL0    Cl48488   5.853   8.929   9.338  0.7185 -0.2378 -0.5236
  368MOL0     C48489   6.573   8.189   9.964 -0.1176 -0.0316 -0.7178
  368MOL0     C48490   6.655   8.094  10.019  0.2678 -0.2083  0.5454
  368MOL0     O48491   6.905   8.125  10.263 -0.0173 -0.0132 -0.4241
  368MOL0     C48492   7.075   7.815  10.174 -0.1817 -0.2609 -0.0514
  368MOL0     C48493   7.173   7.736  10.224 -0.0723  0.0448  0.0023
  368MOL0     N48494   7.929   7.429  10.441  0.1945 -0.7618  0.6179
  368MOL0     N48495   8.043   7.417  10.375  0.5376 -0.3542  0.6362
  368MOL0     C48496   9.122   7.289  10.638  0.2398  0.7677 -0.5139
  368MOL0     C48497   9.223   7.381  10.674 -0.1440  0.4488 -0.5337
  368MOL0     C48498   9.496   7.724  10.739 -0.9594 -0.2286  0.4490
  368MOL0     C48499   9.611   7.720  10.816  0.0178  0.2538 -0.2105
  368MOL0     C48500   9.695   7.830  10.810 -0.2089 -0.4803 -0.1167
  368MOL0     C48501   9.674   7.943  10.733  0.1173 -0.8150 -0.5287
  368MOL0     O48502   9.758   8.050  10.741 -0.8388  0.2175 -0.0281
  368MOL0     C48503   9.737   8.172  10.663  0.5044  0.2906 -0.9366
  368MOL0     C48504   9.859   8.199  10.594 -1.2837 -0.5327 -0.4243
  368MOL0     C48505   9.990   8.213  10.669  0.5102  0.2243 -0.3137
  368MOL0     C48506  10.114   8.260  10.598  0.1512 -0.0547 -0.3473
  368MOL0     C48507  10.233   8.253  10.687 -0.0433 -0.6595 -0.0242
  368MOL0     C48508  10.324   8.255  10.763 -0.1240 -1.0253  0.4598
  368MOL0     C48509   9.566   7.941  10.649  1.1061 -0.0634 -0.6598
  368MOL0     C48510   9.473   7.834  10.655 -0.2273  1.1379 -0.2475
  368MOL0     H48511   9.122   7.642  10.491  0.1495  1.1781  2.8660
  368MOL0     H48512   8.932   7.482  10.433 -0.6577 -1.0302 -0.7062
  368MOL0     H48513   8.926   7.145  10.342  0.4458  1.1650 -1.1755
  368MOL0     H48514   8.870   7.305  10.348  1.8711  1.3470  2.8593
  368MOL0     H48515   8.677   7.174  10.507 -3.2562 -2.0483 -0.2234
  368MOL0     H48516   8.730   7.044  10.399  1.1934  0.8502  0.9364
  368MOL0     H48517   8.660   7.211  10.207  0.6220  1.3677 -0.3264
  368MOL0     H48518   8.637   7.342  10.309 -0.8974  0.3194 -1.0600
  368MOL0     H48519   8.470   7.084  10.317  2.0239 -0.8537 -2.2977
  368MOL0     H48520   8.449   7.225  10.431  1.3120 -0.2981  0.5127
  368MOL0     H48521   8.435   7.265  10.131  0.9650 -0.9173  0.3852
  368MOL0     H48522   8.373   7.368  10.263  0.6950  0.4886  2.1554
  368MOL0     H48523   8.203   7.215  10.331  0.5556 -3.4729  0.7540
  368MOL0     H48524   8.248   7.096  10.228 -0.9723 -0.2082  1.7022
  368MOL0     H48525   8.206   7.264  10.026  0.3994 -2.2077  0.3655
  368MOL0     H48526   8.074   7.199  10.109 -0.4457  1.2994 -2.1269
  368MOL0     H48527   8.071   7.454  10.049  0.7754 -0.5301 -0.7204
  368MOL0     H48528   8.197   7.479  10.171 -1.1783  2.1928 -0.1872
  368MOL0     H48529   7.813   7.386  10.142 -0.2001 -1.3018 -0.4654
  368MOL0     H48530   7.678   7.299  10.453 -2.9376 -0.8947 -0.6385
  368MOL0     H48531   7.634   7.345  10.290  6.0671  0.4916 -1.7408
  368MOL0     H48532   7.611   7.590  10.376 -2.5672  1.7344  1.2244
  368MOL0     H48533   7.644   7.526  10.533  0.8705  0.0578 -1.0417
  368MOL0     H48534   7.430   7.370  10.430 -0.3880  0.8538  0.0307
  368MOL0     H48535   7.407   7.484  10.559 -0.7746  0.9849  0.7349
  368MOL0     H48536   7.248   7.517  10.366 -0.4360 -0.3345 -0.5326
  368MOL0     H48537   7.384   7.558  10.270 -1.3851  0.4017 -0.0521
  368MOL0     H48538   7.276   7.937  10.465  1.5826  1.9128 -2.0832
  368MOL0     H48539   7.091   8.074  10.397  0.0833 -0.8740 -0.2383
  368MOL0     H48540   6.950   8.219   9.935 -0.1884  1.6943  2.3955
  368MOL0     H48541   6.809   8.387   9.826 -1.9462 -0.1036 -3.1054
  368MOL0     H48542   6.349   8.422   9.926 -1.0131  0.8669 -0.7907
  368MOL0     H48543   6.390   8.303   9.792 -0.5143 -0.3213  0.9426
  368MOL0     H48544   6.454   8.492   9.646  0.4933 -0.8532 -0.1905
  368MOL0     H48545   6.400   8.606   9.768 -0.3731  1.1584 -2.1713
  368MOL0     H48546   6.161   8.471   9.743  0.3700  0.6601  0.2201
  368MOL0     H48547   6.246   8.410   9.597  1.7192 -0.3809  0.7099
  368MOL0     H48548   6.193   8.702   9.683 -1.3741  2.4802 -2.6499
  368MOL0     H48549   6.265   8.648   9.525 -0.7598 -1.5083 -1.9026
  368MOL0     H48550   5.995   8.607   9.651 -1.9652 -0.5669 -0.4864
  368MOL0     H48551   6.041   8.504   9.510 -2.4725  1.4532 -0.9952
  368MOL0     H48552   6.036   8.694   9.358  0.0837 -3.9496 -0.3254
  368MOL0     H48553   6.043   8.801   9.490 -0.6981  0.4849 -0.9886
  368MOL0     H48554   5.803   8.607   9.496  0.9478 -0.2799 -1.2094
  368MOL0     H48555   5.817   8.766   9.569  0.9736 -0.9952  2.0161
  368MOL0     H48556   5.682   8.769   9.366 -0.4793  1.7074 -0.0102
  368MOL0     H48557   5.808   8.721   9.259 -0.5738  0.8912 -1.0156
  368MOL0     H48558   6.468   8.173   9.988  0.4692  0.3163  2.5157
  368MOL0     H48559   6.604   8.011  10.066  3.7315 -4.4860 -2.4914
  368MOL0     H48560   7.028   7.790  10.079 -0.0857 -3.3571  0.6277
  368MOL0     H48561   7.192   7.642  10.174 -0.4076  0.0002 -0.0437
  368MOL0     H48562   9.105   7.192  10.684  1.1363  2.2371  3.1936
  368MOL0     H48563   9.299   7.344  10.741  2.3225  3.0417 -1.6945
  368MOL0     H48564   9.623   7.643  10.891 -0.8529  1.5207  1.2767
  368MOL0     H48565   9.787   7.832  10.867  0.2993  3.1388 -0.8682
  368MOL0     H48566   9.720   8.259  10.727  1.2111  0.1631 -0.5594
  368MOL0     H48567   9.653   8.161  10.594  0.9079  1.5883 -1.6703
  368MOL0     H48568   9.881   8.121  10.520 -1.7781  0.0170 -1.1680
  368MOL0     H48569   9.849   8.295  10.542  2.2629  0.7470  0.9421
  368MOL0     H48570  10.015   8.122  10.723  2.0680 -0.1664 -1.6392
  368MOL0     H48571   9.956   8.286  10.744 -1.1199  1.4707 -2.1398
  368MOL0     H48572  10.124   8.197  10.510 -0.9993 -0.0312 -0.5070
  368MOL0     H48573  10.099   8.368  10.589 -3.2168 -0.2437  1.3140
  368MOL0     H48574  10.409   8.264  10.828  0.0396  2.8767 -0.0777
  368MOL0     H48575   9.525   8.015  10.581 -0.8186  0.6135  1.1271
  368MOL0     H48576   9.383   7.831  10.594  0.8542 -2.0172 -1.9054
  369MOL0     O48577   5.169  11.188   6.771  0.1167  0.1235  0.8812
  369MOL0     C48578   5.253  11.100   6.739 -0.1357  0.2960  0.7168
  369MOL0     O48579   5.265  10.971   6.800 -1.1517  0.6226  0.0615
  369MOL0     C48580   5.183  10.952   6.900 -0.4433  0.3486 -0.4086
  369MOL0     C48581   5.231  10.888   7.025  0.0661  0.2521  0.4473
  369MOL0     C48582   5.153  10.857   7.128 -0.6395 -0.6303 -0.2514
  369MOL0     C48583   5.014  10.874   7.122 -0.3022  1.6427  0.1266
  369MOL0     O48584   4.938  10.844   7.232  1.0172 -0.0146  0.1991
  369MOL0     C48585   4.800  10.803   7.211 -1.2562  0.6681 -0.4343
  369MOL0     C48586   4.715  10.772   7.340  0.3278  0.3955  0.0166
  369MOL0     C48587   4.696  10.908   7.410 -0.2539 -0.9271  0.3956
  369MOL0     C48588   4.604  10.898   7.533 -0.0190  0.0762  0.0499
  369MOL0     C48589   4.557  11.025   7.609 -0.3012  0.3034  0.9007
  369MOL0     C48590   4.486  11.117   7.504  0.4784 -0.6685  0.2233
  369MOL0     C48591   4.382  11.215   7.577  0.3308  1.1919  0.0444
  369MOL0     C48592   4.436  11.309   7.689  0.5730 -1.3611  0.2163
  369MOL0     N48593   4.336  11.390   7.764  0.8483  0.0930  0.2706
  369MOL0     C48594   4.238  11.473   7.713  0.1320 -0.1288  1.0745
  369MOL0     C48595   4.175  11.519   7.828 -0.4090 -0.2778  0.5998
  369MOL0     C48596   4.063  11.614   7.820  0.0014  0.2771  0.3146
  369MOL0     C48597   4.113  11.729   7.730  0.7064 -0.5246  0.2755
  369MOL0     C48598   4.024  11.847   7.728  0.9338 -0.6608  0.5902
  369MOL0     C48599   3.887  11.821   7.670  0.3514 -0.7594 -0.6185
  369MOL0     O48600   3.780  11.776   7.763 -0.6609  1.0036 -0.0700
  369MOL0     C48601   3.703  11.665   7.742  0.0851 -0.6070  0.4755
  369MOL0     C48602   3.669  11.591   7.856  0.5439  0.4205  0.1531
  369MOL0     C48603   3.593  11.470   7.845  0.5773 -0.5380 -1.0007
  369MOL0     C48604   3.559  11.426   7.716  0.6177  0.7586 -0.0804
  369MOL0     C48605   3.497  11.290   7.706  0.2677 -1.2543 -0.2913
  369MOL0     O48606   3.495  11.206   7.816  0.1435 -0.7739 -0.1520
  369MOL0     C48607   3.461  11.078   7.795 -0.6218  0.7536  0.8917
  369MOL0     C48608   3.351  11.032   7.873 -1.0174  0.4835  0.1472
  369MOL0     C48609   3.307  10.901   7.852 -0.1250  0.2306 -1.1084
  369MOL0     C48610   3.364  10.818   7.755  0.8294  0.8680  1.2366
  369MOL0     O48611   3.296  10.702   7.724  0.6463 -0.2090  0.1298
  369MOL0     C48612   3.334  10.636   7.598 -0.1016  0.0278  1.2055
  369MOL0     C48613   3.255  10.508   7.564  0.1625  0.2434 -0.4765
  369MOL0     C48614   3.107  10.540   7.557 -0.5753 -0.9932 -0.2107
  369MOL0     C48615   3.025  10.408   7.573 -0.5742 -0.6245 -0.4603
  369MOL0     C48616   2.880  10.431   7.590  0.2211  0.2967 -0.9330
  369MOL0     C48617   2.778  10.313   7.588  0.0898 -0.2513 -0.0599
  369MOL0     C48618   2.798  10.231   7.719 -0.4158 -0.0712 -0.8687
  369MOL0     C48619   2.692  10.277   7.820  0.6918  1.1623  0.8790
  369MOL0    Cl48620   2.729  10.204   7.990 -0.0384  0.0530 -0.3127
  369MOL0     C48621   3.485  10.857   7.690  0.3744 -0.3820 -0.2990
  369MOL0     C48622   3.527  10.990   7.706 -0.2242 -0.3401 -0.4528
  369MOL0     O48623   3.457  11.257   7.599 -0.4507 -0.3998 -0.2796
  369MOL0     C48624   3.591  11.498   7.606 -0.2466  0.0118 -0.3661
  369MOL0     C48625   3.665  11.616   7.618 -0.2415  0.6050  0.5232
  369MOL0     N48626   4.245  11.476   7.936  0.7105  0.5833 -0.4859
  369MOL0     N48627   4.329  11.388   7.898 -0.3306  0.1925 -0.1199
  369MOL0     C48628   4.959  10.922   7.005 -0.7345  0.3841 -0.0569
  369MOL0     C48629   5.043  10.963   6.896 -0.1661  0.1665 -0.3087
  369MOL0     C48630   5.319  11.118   6.607 -0.3741 -0.5510 -0.4324
  369MOL0     C48631   5.271  11.204   6.508  0.4726  0.4640 -0.3602
  369MOL0     C48632   5.332  11.220   6.381  0.3050 -0.5622 -0.2332
  369MOL0     C48633   5.459  11.151   6.363  0.0329  0.4928 -0.3818
  369MOL0     O48634   5.523  11.163   6.238  0.4406 -0.2396 -0.5710
  369MOL0     C48635   5.567  11.299   6.204 -0.0298  0.6147 -0.1780
  369MOL0     C48636   5.719  11.305   6.173  0.6212 -0.2294  0.1137
  369MOL0     C48637   5.808  11.254   6.277 -1.2238  1.0595  0.0405
  369MOL0     C48638   5.954  11.259   6.230 -0.1390 -0.2552 -0.2032
  369MOL0     C48639   6.043  11.188   6.322 -0.3931 -0.1042 -0.5293
  369MOL0     C48640   6.119  11.116   6.391  0.6323 -1.6782  0.2499
  369MOL0     C48641   5.507  11.059   6.464  0.1770 -0.6442  1.2209
  369MOL0     C48642   5.437  11.045   6.584  0.8772 -1.4689  0.1409
  369MOL0     H48643   5.340  10.890   7.026  0.1114  2.2558 -0.9832
  369MOL0     H48644   5.201  10.827   7.221 -1.1057  1.5417  0.7496
  369MOL0     H48645   4.813  10.707   7.162 -2.2867 -0.6365  1.6887
  369MOL0     H48646   4.749  10.878   7.150 -1.9218  1.2147  0.7627
  369MOL0     H48647   4.768  10.694   7.396 -0.5410  1.1240  1.9033
  369MOL0     H48648   4.614  10.743   7.309  0.1644  2.2870 -1.4041
  369MOL0     H48649   4.650  10.968   7.331  1.0415  0.0386  0.3342
  369MOL0     H48650   4.792  10.954   7.437  0.4483 -2.3799  0.4842
  369MOL0     H48651   4.514  10.843   7.504 -0.9051  1.4885 -0.0237
  369MOL0     H48652   4.646  10.825   7.602 -1.0162  0.7486  1.4264
  369MOL0     H48653   4.648  11.053   7.663  2.0505 -2.9808 -0.9324
  369MOL0     H48654   4.485  10.989   7.682 -1.4541 -2.1640 -1.2774
  369MOL0     H48655   4.434  11.046   7.439 -0.8422 -1.7642  2.3566
  369MOL0     H48656   4.565  11.173   7.452 -1.4233  1.7421 -0.2410
  369MOL0     H48657   4.334  11.279   7.502  2.4376  0.4226 -2.0790
  369MOL0     H48658   4.299  11.161   7.624  1.4369 -0.5045  0.1453
  369MOL0     H48659   4.508  11.375   7.639 -0.1216 -0.5321  0.2748
  369MOL0     H48660   4.505  11.250   7.749  3.6284  1.9566  0.2881
  369MOL0     H48661   4.214  11.494   7.610  2.7492 -0.2903  0.3656
  369MOL0     H48662   4.027  11.649   7.917 -0.5974  3.5265 -0.9429
  369MOL0     H48663   3.979  11.571   7.764 -0.3802  4.1060 -2.4679
  369MOL0     H48664   4.135  11.701   7.627  0.8434 -1.8062  0.6354
  369MOL0     H48665   4.197  11.756   7.794 -0.8580 -0.3525  2.3557
  369MOL0     H48666   4.020  11.917   7.811 -1.8513 -2.1728  1.8666
  369MOL0     H48667   4.079  11.908   7.655  2.7720 -2.2277  0.5835
  369MOL0     H48668   3.896  11.747   7.590 -0.3155 -1.9799  0.4001
  369MOL0     H48669   3.841  11.908   7.622 -2.3967 -1.5925  0.2807
  369MOL0     H48670   3.706  11.624   7.953 -1.0888  0.7855  0.6851
  369MOL0     H48671   3.548  11.441   7.939 -1.8624  0.4523 -1.7871
  369MOL0     H48672   3.315  11.109   7.940  4.0762  2.7285  0.7560
  369MOL0     H48673   3.232  10.879   7.927  1.2043  1.6843  0.7545
  369MOL0     H48674   3.439  10.606   7.597 -0.3011 -0.7165 -0.8067
  369MOL0     H48675   3.322  10.718   7.527  0.2038 -0.3107  0.7614
  369MOL0     H48676   3.275  10.420   7.626  0.8035  0.2012 -0.7326
  369MOL0     H48677   3.291  10.483   7.463  0.3552  0.0560 -0.3628
  369MOL0     H48678   3.093  10.581   7.457  0.5034 -0.1162 -0.0177
  369MOL0     H48679   3.084  10.624   7.623  1.2691 -0.8161  0.2746
  369MOL0     H48680   3.042  10.348   7.483  0.8758 -0.7541 -0.1202
  369MOL0     H48681   3.072  10.354   7.656  4.4316  3.5159 -0.1090
  369MOL0     H48682   2.853  10.490   7.502  0.4232 -2.7491 -3.2137
  369MOL0     H48683   2.856  10.487   7.681 -3.1621  0.2978 -1.6809
  369MOL0     H48684   2.811  10.240   7.513  0.0972  1.9440 -2.3035
  369MOL0     H48685   2.679  10.356   7.576  0.9629  1.5590 -1.1376
  369MOL0     H48686   2.792  10.123   7.708 -2.6008 -0.3081  1.5907
  369MOL0     H48687   2.895  10.257   7.763 -1.9188  1.3911  1.9117
  369MOL0     H48688   2.595  10.236   7.790  1.7727 -2.4038  1.7322
  369MOL0     H48689   2.685  10.386   7.824  1.7756  1.2690  0.3662
  369MOL0     H48690   3.539  10.792   7.623 -0.3374 -1.5290  0.2131
  369MOL0     H48691   3.611  11.026   7.648  0.1336  0.5643  0.5916
  369MOL0     H48692   3.562  11.453   7.512  1.4575 -2.8663  0.3731
  369MOL0     H48693   3.679  11.677   7.529 -1.5656 -2.2820 -1.8311
  369MOL0     H48694   4.857  10.958   7.006 -0.6616  0.5937 -0.3798
  369MOL0     H48695   4.988  10.994   6.808 -0.6660 -1.7896 -0.7350
  369MOL0     H48696   5.185  11.263   6.538 -0.4098 -0.4752 -0.9762
  369MOL0     H48697   5.285  11.280   6.304  0.5165  2.1037  1.5895
  369MOL0     H48698   5.540  11.361   6.290  0.4726 -1.8478  1.8838
  369MOL0     H48699   5.513  11.333   6.115 -1.7557  0.3999  0.7375
  369MOL0     H48700   5.742  11.249   6.082  0.3248 -0.7611  0.3612
  369MOL0     H48701   5.729  11.413   6.161 -2.0300  0.0381 -0.1350
  369MOL0     H48702   5.790  11.147   6.293  1.1844  0.6844  0.7728
  369MOL0     H48703   5.795  11.301   6.375 -1.8527 -0.5235  0.7570
  369MOL0     H48704   5.953  11.222   6.127 -2.8729 -2.0442  0.3619
  369MOL0     H48705   5.982  11.365   6.226  0.4338 -0.3333  1.2415
  369MOL0     H48706   6.183  11.067   6.462  1.1026 -2.1591 -0.4882
  369MOL0     H48707   5.593  10.994   6.449 -2.4743 -4.2483  0.3288
  369MOL0     H48708   5.487  10.974   6.650  0.5620 -0.4688  1.5017
  370MOL0     O48709   1.928   4.861   5.488  0.0962 -0.7993 -0.0235
  370MOL0     C48710   1.832   4.783   5.507 -0.3334  0.1559 -0.3697
  370MOL0     O48711   1.741   4.748   5.418 -0.7536  0.2600  0.5944
  370MOL0     C48712   1.736   4.821   5.297 -0.8910 -0.4554  0.2522
  370MOL0     C48713   1.737   4.964   5.297  0.4283  0.4245 -0.1691
  370MOL0     C48714   1.765   5.038   5.188  0.5414 -0.3859 -0.1520
  370MOL0     C48715   1.774   4.974   5.068  0.4241 -0.2446  0.5780
  370MOL0     O48716   1.811   5.041   4.954  0.3421 -0.5334  0.0568
  370MOL0     C48717   1.773   4.981   4.827  0.2245 -1.2384 -0.5536
  370MOL0     C48718   1.788   5.072   4.700 -0.6326  0.5948  0.1194
  370MOL0     C48719   1.944   5.083   4.671 -0.1106  0.5880 -0.7081
  370MOL0     C48720   1.973   5.170   4.547 -0.0457  0.0807 -0.1020
  370MOL0     C48721   2.121   5.155   4.510  0.0008  0.3233  0.0078
  370MOL0     C48722   2.138   5.231   4.375  0.1029  0.2135 -0.6325
  370MOL0     C48723   2.271   5.211   4.302  0.4044  0.2066  0.6567
  370MOL0     C48724   2.279   5.067   4.256 -1.4275 -0.3940 -1.1433
  370MOL0     N48725   2.397   5.038   4.182 -0.5811 -0.2593  0.2436
  370MOL0     C48726   2.508   4.975   4.228 -0.1545  0.1761  0.5931
  370MOL0     C48727   2.569   4.949   4.111 -0.5384 -0.0786  0.2341
  370MOL0     C48728   2.703   4.882   4.079  0.3265  0.0485  0.5344
  370MOL0     C48729   2.802   4.973   3.997  0.1915 -0.6189 -0.5302
  370MOL0     C48730   2.928   4.910   3.932  0.0245 -0.2795 -0.6921
  370MOL0     C48731   3.024   4.824   4.027 -0.2685 -0.8100 -0.8814
  370MOL0     O48732   3.098   4.920   4.103 -0.3576 -0.2471 -0.3078
  370MOL0     C48733   3.232   4.962   4.083  0.7437 -0.5056 -0.0006
  370MOL0     C48734   3.293   4.950   3.960 -0.2552  0.4663 -0.0159
  370MOL0     C48735   3.432   4.966   3.939  1.0910  0.7781 -0.3491
  370MOL0     C48736   3.511   5.008   4.047  0.3469 -0.8396 -0.3470
  370MOL0     C48737   3.653   5.024   4.027 -0.3590  0.1999 -0.3409
  370MOL0     O48738   3.695   4.981   3.904  0.9132  0.3977  0.2711
  370MOL0     C48739   3.824   5.003   3.874 -0.4446  1.0216 -0.6099
  370MOL0     C48740   3.884   5.124   3.852  0.2253  0.6791  0.5804
  370MOL0     C48741   4.024   5.131   3.820 -0.1756 -0.7148  0.8283
  370MOL0     C48742   4.095   5.020   3.792  0.1222  0.2306  0.5682
  370MOL0     O48743   4.224   5.035   3.750  0.2706 -0.2856 -1.2254
  370MOL0     C48744   4.309   4.931   3.692  0.0802 -0.1992  0.2718
  370MOL0     C48745   4.426   4.980   3.616 -0.3205  0.5570  0.2761
  370MOL0     C48746   4.387   5.070   3.500  0.3859  0.3633 -1.7805
  370MOL0     C48747   4.510   5.127   3.435  0.0991 -0.2833 -0.3001
  370MOL0     C48748   4.481   5.220   3.323  0.4716 -0.8039  0.6074
  370MOL0     C48749   4.605   5.270   3.244 -0.1541  0.0541 -0.2436
  370MOL0     C48750   4.693   5.154   3.189  0.5786 -0.1881  0.6256
  370MOL0     C48751   4.821   5.192   3.126  0.3576  0.5697  0.6698
  370MOL0    Cl48752   4.936   5.269   3.239  0.0254  0.1354  0.5813
  370MOL0     C48753   4.044   4.902   3.827  0.4140  0.2141  0.1260
  370MOL0     C48754   3.905   4.887   3.860  0.0584  0.5388 -0.1177
  370MOL0     O48755   3.721   5.081   4.110 -0.2868 -0.8817 -0.7813
  370MOL0     C48756   3.455   5.018   4.182 -0.0610  0.2038  0.1898
  370MOL0     C48757   3.320   5.001   4.194  0.1505 -0.0428  0.6913
  370MOL0     N48758   2.500   5.002   3.999 -0.9862 -0.1823  0.7133
  370MOL0     N48759   2.411   5.070   4.049  0.2761 -0.3502 -0.4763
  370MOL0     C48760   1.752   4.834   5.060  0.7372 -0.1248 -0.8032
  370MOL0     C48761   1.739   4.757   5.171 -0.7851 -0.1054 -0.0292
  370MOL0     C48762   1.841   4.707   5.640 -0.3852  0.4661  0.0297
  370MOL0     C48763   1.755   4.599   5.671  0.3800 -0.1293  0.3498
  370MOL0     C48764   1.774   4.525   5.781 -0.2769  0.2543 -0.7698
  370MOL0     C48765   1.880   4.557   5.871 -0.2110 -0.5243  0.7905
  370MOL0     O48766   1.896   4.493   5.989 -0.2045 -0.1286  0.0768
  370MOL0     C48767   1.788   4.408   6.044  0.0022 -0.1976 -0.2659
  370MOL0     C48768   1.843   4.350   6.182  0.4348 -0.6163 -0.0315
  370MOL0     C48769   1.964   4.249   6.184  0.3508  1.0528  0.3886
  370MOL0     C48770   1.924   4.108   6.124  0.1768  0.6833 -0.9035
  370MOL0     C48771   2.027   4.005   6.133  0.5338 -0.3963  0.7638
  370MOL0     C48772   2.101   3.911   6.150  0.3232  0.6681  0.1673
  370MOL0     C48773   1.954   4.669   5.845  1.0392 -0.3144 -0.5013
  370MOL0     C48774   1.948   4.737   5.732  0.0747 -0.6458  0.4591
  370MOL0     H48775   1.729   5.013   5.394 -0.5351  2.1112 -1.0485
  370MOL0     H48776   1.766   5.146   5.190 -5.0188  0.0674 -2.5688
  370MOL0     H48777   1.665   4.963   4.829  0.4041 -2.7194 -2.2683
  370MOL0     H48778   1.826   4.886   4.829  2.6502  0.0228  1.5450
  370MOL0     H48779   1.741   5.170   4.705  0.8186  1.4745 -2.0495
  370MOL0     H48780   1.741   5.024   4.613 -4.1277 -0.4424  2.3631
  370MOL0     H48781   1.975   4.978   4.669 -1.5787 -0.0955  3.1778
  370MOL0     H48782   2.002   5.111   4.759 -1.8287 -1.4951  1.1831
  370MOL0     H48783   1.913   5.142   4.460  1.8414 -0.1628 -1.3933
  370MOL0     H48784   1.946   5.271   4.579  1.3719  0.4716 -0.0568
  370MOL0     H48785   2.146   5.049   4.496 -0.9602  0.4018 -3.1734
  370MOL0     H48786   2.196   5.196   4.578 -0.9760  0.4258  1.0566
  370MOL0     H48787   2.128   5.337   4.401  1.6054 -0.1418  1.6543
  370MOL0     H48788   2.054   5.202   4.311 -2.2082  0.5044  2.0734
  370MOL0     H48789   2.280   5.272   4.212  0.2886 -0.2824  0.3098
  370MOL0     H48790   2.349   5.231   4.375 -0.2474 -1.1811  1.7778
  370MOL0     H48791   2.198   5.050   4.185  0.1987 -1.7026 -2.8099
  370MOL0     H48792   2.275   4.998   4.340 -0.3493 -0.6976 -1.3171
  370MOL0     H48793   2.534   4.943   4.329  2.4566 -0.1626 -0.0989
  370MOL0     H48794   2.692   4.792   4.018 -1.4060  2.2039 -2.6193
  370MOL0     H48795   2.743   4.854   4.177 -1.9761 -0.0480  1.5116
  370MOL0     H48796   2.819   5.062   4.057 -0.0712 -1.7652  1.3123
  370MOL0     H48797   2.747   5.017   3.913 -1.4170 -0.3498  0.6255
  370MOL0     H48798   2.899   4.836   3.857  0.8188 -1.7450  0.3804
  370MOL0     H48799   2.983   4.988   3.880 -0.0502  0.1617 -0.1187
  370MOL0     H48800   3.088   4.756   3.970  1.4980 -1.0876  1.2932
  370MOL0     H48801   2.951   4.774   4.091 -1.9212  0.0645 -2.0238
  370MOL0     H48802   3.232   4.909   3.881 -0.3606 -0.5931  0.5962
  370MOL0     H48803   3.467   4.952   3.837 -1.3524  0.0879 -1.1658
  370MOL0     H48804   3.820   5.210   3.872 -1.0511  0.0328 -0.4788
  370MOL0     H48805   4.075   5.226   3.806  0.9217 -1.0514  2.2101
  370MOL0     H48806   4.255   4.872   3.617  0.6725 -1.0806  0.5201
  370MOL0     H48807   4.344   4.872   3.778  1.9728  0.9394  0.3465
  370MOL0     H48808   4.484   4.894   3.580 -0.5012  1.3623 -2.1454
  370MOL0     H48809   4.496   5.033   3.681  2.5338 -0.9215 -1.3799
  370MOL0     H48810   4.324   5.151   3.538 -0.7156 -1.2226 -0.0708
  370MOL0     H48811   4.342   4.998   3.431 -0.1929 -4.2664  2.8388
  370MOL0     H48812   4.561   5.182   3.514 -2.3325 -0.0868  1.2571
  370MOL0     H48813   4.575   5.044   3.406 -0.7995 -2.2001  2.6610
  370MOL0     H48814   4.427   5.309   3.357  0.2580 -1.2009  1.3420
  370MOL0     H48815   4.414   5.160   3.260  2.5955 -2.3410 -0.3047
  370MOL0     H48816   4.662   5.342   3.303 -1.5520  1.2952 -0.3491
  370MOL0     H48817   4.562   5.324   3.160  1.1122  2.0488  0.3319
  370MOL0     H48818   4.731   5.097   3.274  2.4154  0.2652  0.1470
  370MOL0     H48819   4.639   5.090   3.119  0.4105  2.2249 -1.5861
  370MOL0     H48820   4.800   5.260   3.043  2.2157  2.2014  1.4279
  370MOL0     H48821   4.874   5.102   3.096  1.6102  0.3488  3.2873
  370MOL0     H48822   4.094   4.806   3.815  0.8001  0.7039 -3.0261
  370MOL0     H48823   3.869   4.785   3.872 -0.7268  0.8585  0.2916
  370MOL0     H48824   3.521   5.035   4.266  2.3189  0.4081 -1.6457
  370MOL0     H48825   3.278   5.002   4.294 -0.4604 -0.5079  0.4458
  370MOL0     H48826   1.741   4.780   4.966 -1.9846  0.0766 -0.6730
  370MOL0     H48827   1.743   4.649   5.159  2.1558  0.1755 -3.3022
  370MOL0     H48828   1.664   4.575   5.617 -0.2888  2.4742  0.1954
  370MOL0     H48829   1.706   4.443   5.805  2.7269 -2.7447 -1.6992
  370MOL0     H48830   1.770   4.323   5.978 -2.0097  0.6896 -0.9407
  370MOL0     H48831   1.692   4.459   6.058  0.4567  1.3044 -2.1418
  370MOL0     H48832   1.851   4.438   6.247  0.6127 -2.0716  2.0376
  370MOL0     H48833   1.760   4.295   6.227  0.0279 -1.2275 -1.4807
  370MOL0     H48834   1.973   4.224   6.290 -0.7603  1.6611  0.6501
  370MOL0     H48835   2.058   4.276   6.136  2.5890 -4.1947  1.0485
  370MOL0     H48836   1.845   4.069   6.188  1.4895  1.4932  1.3554
  370MOL0     H48837   1.888   4.120   6.021 -2.5725  2.3083  0.1611
  370MOL0     H48838   2.158   3.823   6.172 -1.6521 -0.3720  1.4065
  370MOL0     H48839   2.030   4.702   5.915  0.9667  1.0502 -1.0386
  370MOL0     H48840   2.020   4.817   5.712 -0.0671 -0.9218 -1.3207
  371MOL0     O48841   7.149   7.620   8.867 -0.0104  0.2545 -0.0142
  371MOL0     C48842   7.170   7.743   8.844 -0.4675 -0.2637 -0.6643
  371MOL0     O48843   7.081   7.833   8.780 -0.0765  0.0996 -0.1434
  371MOL0     C48844   6.955   7.793   8.744  1.0042 -0.3566 -0.3018
  371MOL0     C48845   6.883   7.673   8.768 -0.1077  0.3057 -0.1805
  371MOL0     C48846   6.758   7.653   8.711  0.5327 -0.6748 -0.3729
  371MOL0     C48847   6.700   7.748   8.626 -0.2486  1.0414  0.1357
  371MOL0     O48848   6.575   7.722   8.592 -0.1744  0.1967  0.4392
  371MOL0     C48849   6.536   7.722   8.450  0.1302  0.2365 -0.3011
  371MOL0     C48850   6.591   7.603   8.371 -0.1406 -0.4724 -1.2591
  371MOL0     C48851   6.503   7.479   8.390  0.1896  0.8480 -0.5434
  371MOL0     C48852   6.366   7.488   8.319 -0.2500 -0.0565 -0.6040
  371MOL0     C48853   6.264   7.375   8.355  0.3858 -1.5704  0.6459
  371MOL0     C48854   6.140   7.339   8.264 -0.3607 -1.6306 -1.2092
  371MOL0     C48855   6.181   7.308   8.122  0.7918 -0.4130  1.0714
  371MOL0     C48856   6.062   7.274   8.019  0.7526  0.1095 -0.4000
  371MOL0     N48857   5.984   7.149   8.070 -0.0120 -0.9277  0.9840
  371MOL0     C48858   5.851   7.141   8.102 -0.3690  0.2024 -0.2550
  371MOL0     C48859   5.832   7.011   8.107 -0.8223  0.2471  0.8111
  371MOL0     C48860   5.708   6.943   8.160 -0.0945  0.8241  0.1345
  371MOL0     C48861   5.594   6.962   8.051 -0.4861  0.3378 -0.4105
  371MOL0     C48862   5.451   6.923   8.101 -0.0867 -0.7753 -0.7714
  371MOL0     C48863   5.344   6.893   7.995 -0.1379 -0.1630  1.2895
  371MOL0     O48864   5.214   6.885   8.053  0.1396  0.2294 -0.2062
  371MOL0     C48865   5.111   6.843   7.975 -0.0029 -0.4822 -0.5656
  371MOL0     C48866   4.988   6.843   8.034 -0.0202  0.2386  0.0095
  371MOL0     C48867   4.876   6.781   7.971 -0.5015  0.4026  0.5755
  371MOL0     C48868   4.894   6.730   7.840 -0.2966  0.8687 -0.2956
  371MOL0     C48869   4.781   6.675   7.768 -0.3882 -0.2831  0.1460
  371MOL0     O48870   4.811   6.599   7.662  0.2772 -0.4313  0.5856
  371MOL0     C48871   4.715   6.551   7.571 -0.6536  0.9072 -0.5327
  371MOL0     C48872   4.774   6.504   7.451  0.3017  0.2522  0.7919
  371MOL0     C48873   4.689   6.450   7.348 -0.7103 -0.4151 -0.0802
  371MOL0     C48874   4.551   6.471   7.359 -0.1818 -0.7246  0.1409
  371MOL0     O48875   4.465   6.443   7.265  0.2190 -0.7903  0.1042
  371MOL0     C48876   4.503   6.437   7.125  0.3113 -0.8974  0.2360
  371MOL0     C48877   4.388   6.417   7.036  0.1015 -0.7865 -0.0115
  371MOL0     C48878   4.288   6.529   7.020  0.0587 -1.6694 -0.5256
  371MOL0     C48879   4.210   6.556   7.149 -0.2049  0.1471 -0.6398
  371MOL0     C48880   4.088   6.644   7.125 -0.2386  0.4546 -0.0149
  371MOL0     C48881   3.991   6.658   7.247 -0.1933  0.8100 -0.6444
  371MOL0     C48882   4.053   6.756   7.346  0.2404  0.3465  0.9186
  371MOL0     C48883   3.989   6.749   7.483  0.3478 -0.3278  0.1640
  371MOL0    Cl48884   3.813   6.808   7.472 -0.2049  0.0797 -0.0295
  371MOL0     C48885   4.496   6.535   7.471 -0.4422 -0.1211 -0.2253
  371MOL0     C48886   4.578   6.559   7.584  0.1764  1.0257 -0.5208
  371MOL0     O48887   4.676   6.721   7.812  0.0880  1.2153 -0.2854
  371MOL0     C48888   5.023   6.732   7.783  0.0696 -0.0334 -0.7747
  371MOL0     C48889   5.129   6.789   7.850 -0.3919  0.4565 -0.1364
  371MOL0     N48890   5.952   6.939   8.090 -0.0794 -0.3596  0.4964
  371MOL0     N48891   6.045   7.026   8.059  0.0704 -0.0772  0.2154
  371MOL0     C48892   6.767   7.863   8.593 -0.3140 -0.0521 -0.9820
  371MOL0     C48893   6.889   7.897   8.653 -0.0509  0.6729 -0.3348
  371MOL0     C48894   7.298   7.802   8.883  0.0634 -0.5846 -0.9673
  371MOL0     C48895   7.312   7.945   8.859 -0.0011 -0.3405  0.6064
  371MOL0     C48896   7.446   7.997   8.884  0.6008  0.3403 -0.5974
  371MOL0     C48897   7.552   7.916   8.925 -0.1927 -0.1508  0.2403
  371MOL0     O48898   7.668   7.974   8.956 -0.5667 -0.8777  0.2938
  371MOL0     C48899   7.788   7.898   8.963 -0.3652 -0.2095  0.2265
  371MOL0     C48900   7.896   8.000   8.983 -0.7258  0.1819 -0.4571
  371MOL0     C48901   8.041   7.953   8.991 -0.3094 -0.2410  0.0143
  371MOL0     C48902   8.073   7.834   8.897 -0.0538  0.6607  0.8165
  371MOL0     C48903   8.035   7.706   8.941 -0.2741  0.3993 -0.1376
  371MOL0     C48904   7.993   7.598   8.976 -0.6073 -0.7189  0.5720
  371MOL0     C48905   7.528   7.783   8.956  0.1814  0.3337 -0.2248
  371MOL0     C48906   7.408   7.723   8.925 -0.3804  0.5823  0.4334
  371MOL0     H48907   6.924   7.597   8.833  0.3992 -2.1940 -3.1671
  371MOL0     H48908   6.704   7.559   8.713 -0.3954 -0.2892 -3.2576
  371MOL0     H48909   6.565   7.809   8.392  0.0407 -0.5009 -1.4834
  371MOL0     H48910   6.427   7.729   8.455  0.0194  0.1306 -2.0041
  371MOL0     H48911   6.694   7.584   8.403 -0.3562  1.6671  1.0568
  371MOL0     H48912   6.604   7.625   8.265  0.5992  1.0725 -0.8744
  371MOL0     H48913   6.493   7.470   8.499  0.2932  0.5149 -0.5589
  371MOL0     H48914   6.543   7.387   8.346 -1.5535  0.2102 -0.8616
  371MOL0     H48915   6.317   7.582   8.345 -0.7680 -1.1120  2.7401
  371MOL0     H48916   6.381   7.480   8.211 -1.3673 -0.7279 -0.7311
  371MOL0     H48917   6.234   7.384   8.460 -0.1335 -0.9852  0.4570
  371MOL0     H48918   6.330   7.289   8.368  0.9794 -0.6984  4.7148
  371MOL0     H48919   6.060   7.413   8.273  1.0099 -0.2672  0.3855
  371MOL0     H48920   6.095   7.246   8.302 -4.2065  0.8140  0.9364
  371MOL0     H48921   6.240   7.393   8.086 -1.9516  1.0053 -0.4157
  371MOL0     H48922   6.238   7.215   8.125 -0.9393 -1.5780  0.1103
  371MOL0     H48923   6.092   7.243   7.919  2.8702 -1.4724  0.6516
  371MOL0     H48924   6.006   7.367   8.008  2.2325  1.0671 -0.1065
  371MOL0     H48925   5.786   7.221   8.134 -1.5835 -0.9928  0.4033
  371MOL0     H48926   5.694   6.989   8.259 -0.3895 -1.1386  1.0506
  371MOL0     H48927   5.727   6.839   8.185 -0.0709  0.9971  0.8835
  371MOL0     H48928   5.627   6.908   7.962  0.0396 -0.7689  0.4282
  371MOL0     H48929   5.593   7.069   8.028 -0.0481  0.8189  1.6176
  371MOL0     H48930   5.472   6.837   8.166 -0.9385 -1.4436 -1.3555
  371MOL0     H48931   5.407   7.003   8.161 -2.6675 -0.4966 -2.8713
  371MOL0     H48932   5.355   6.795   7.948  1.3066  0.4312  0.3187
  371MOL0     H48933   5.348   6.966   7.913  2.3840 -0.4589  1.0682
  371MOL0     H48934   4.971   6.895   8.127 -2.0529  1.9138 -1.1985
  371MOL0     H48935   4.783   6.777   8.025 -0.2189  0.7162  1.0902
  371MOL0     H48936   4.881   6.513   7.438  0.4132  0.1547  1.6251
  371MOL0     H48937   4.747   6.414   7.263 -0.3419  0.8330 -0.3903
  371MOL0     H48938   4.559   6.343   7.123 -1.9036 -2.2693 -0.9080
  371MOL0     H48939   4.563   6.526   7.103  1.1887 -1.3896  0.5557
  371MOL0     H48940   4.326   6.341   7.084  0.8940  1.0286  4.3944
  371MOL0     H48941   4.426   6.391   6.937  4.7829 -2.3653  1.9251
  371MOL0     H48942   4.225   6.506   6.933  0.4480 -0.7707 -1.0731
  371MOL0     H48943   4.356   6.614   7.005 -0.7811 -0.8073  0.4345
  371MOL0     H48944   4.164   6.465   7.189 -0.0881  0.4887  0.2951
  371MOL0     H48945   4.273   6.604   7.225  2.2153 -0.9334 -1.8615
  371MOL0     H48946   4.039   6.588   7.046 -5.0049  1.0196  2.2021
  371MOL0     H48947   4.119   6.746   7.100  0.7963 -0.1518 -1.3190
  371MOL0     H48948   3.982   6.557   7.288  1.4601  0.6488 -0.6142
  371MOL0     H48949   3.894   6.689   7.207 -0.7840 -0.6355 -0.4132
  371MOL0     H48950   4.159   6.732   7.348  0.2591  0.3494  0.2070
  371MOL0     H48951   4.053   6.858   7.307  2.7022  0.9473  2.2835
  371MOL0     H48952   4.048   6.811   7.551  1.0764 -0.8343  0.0090
  371MOL0     H48953   3.994   6.644   7.515  1.8656 -0.2816  0.1346
  371MOL0     H48954   4.389   6.557   7.471 -0.9153 -2.2497 -0.0608
  371MOL0     H48955   4.535   6.606   7.672  3.4262 -0.1597  1.8993
  371MOL0     H48956   5.055   6.692   7.687  6.3150 -1.4277  1.3523
  371MOL0     H48957   5.219   6.799   7.791 -0.6819  1.3691 -0.4360
  371MOL0     H48958   6.710   7.932   8.532 -1.7065  1.0429  1.4210
  371MOL0     H48959   6.931   7.995   8.632 -3.2590  2.7007  1.8152
  371MOL0     H48960   7.232   7.997   8.807  1.5472  0.6529 -0.9096
  371MOL0     H48961   7.473   8.101   8.868 -1.1090  0.8442 -0.3696
  371MOL0     H48962   7.812   7.827   8.883 -0.2276 -1.8144  1.6147
  371MOL0     H48963   7.795   7.839   9.055  2.7599 -1.8403 -0.9090
  371MOL0     H48964   7.901   8.069   8.899 -2.4023  1.7906  0.6724
  371MOL0     H48965   7.869   8.066   9.067  1.6420  1.5574 -0.6782
  371MOL0     H48966   8.059   7.911   9.091  2.2121 -1.6632 -0.9494
  371MOL0     H48967   8.109   8.035   8.966 -0.9655  0.4006  0.2746
  371MOL0     H48968   8.032   7.853   8.798 -1.4586  0.9359  1.4206
  371MOL0     H48969   8.182   7.835   8.889 -0.0490  1.9381  0.7852
  371MOL0     H48970   7.956   7.502   9.006 -2.2761 -1.1782 -2.4977
  371MOL0     H48971   7.610   7.719   8.987  0.2732 -0.1139 -1.3764
  371MOL0     H48972   7.400   7.616   8.942 -3.1102  1.0618  2.9982
  372MOL0     O48973   9.098   7.267   8.693  0.2561 -0.4207 -0.3082
  372MOL0     C48974   9.154   7.182   8.765  0.3259 -1.0883 -0.5712
  372MOL0     O48975   9.086   7.107   8.857  0.3247 -0.5875  0.5079
  372MOL0     C48976   8.961   7.126   8.888  1.0646  0.5601 -0.9046
  372MOL0     C48977   8.905   7.243   8.948 -0.7134  0.4641 -0.3263
  372MOL0     C48978   8.770   7.254   8.981  0.2355  0.5371 -0.1167
  372MOL0     C48979   8.675   7.159   8.942 -0.4347  0.1055 -0.3276
  372MOL0     O48980   8.542   7.187   8.962  0.3480 -0.3264 -0.0990
  372MOL0     C48981   8.453   7.079   8.978 -0.1018  0.6539  0.3496
  372MOL0     C48982   8.308   7.113   8.961 -0.0930 -0.5171  0.6861
  372MOL0     C48983   8.274   7.229   9.053  0.5896 -1.3895 -0.1603
  372MOL0     C48984   8.132   7.215   9.112  0.8699  0.0875  0.1471
  372MOL0     C48985   8.114   7.319   9.224 -0.2640 -0.2665  0.0678
  372MOL0     C48986   7.987   7.313   9.292 -0.2017 -0.4330  0.6056
  372MOL0     C48987   7.995   7.208   9.401  0.0437  1.0217  0.3717
  372MOL0     C48988   7.862   7.182   9.484 -1.0105 -0.1731 -0.9442
  372MOL0     N48989   7.880   7.128   9.620 -0.6767 -0.4944 -0.1952
  372MOL0     C48990   7.908   6.995   9.661 -0.3009 -0.4690  0.5424
  372MOL0     C48991   7.929   7.003   9.792 -0.1741  0.1419 -0.2474
  372MOL0     C48992   7.974   6.895   9.886  1.6817 -0.7988 -0.1653
  372MOL0     C48993   8.101   6.909   9.969 -0.1760 -0.8764 -0.5471
  372MOL0     C48994   8.229   6.947   9.906 -1.1949 -0.0373  0.6434
  372MOL0     C48995   8.361   6.944   9.983 -0.4880 -0.3317 -0.1648
  372MOL0     O48996   8.472   6.929   9.898 -0.1226  0.6746  0.3550
  372MOL0     C48997   8.594   6.917   9.960  0.6830 -0.2437  0.6490
  372MOL0     C48998   8.679   7.027   9.985 -0.0729  0.1339  0.0509
  372MOL0     C48999   8.800   6.991  10.051  0.2493  0.2197  0.1643
  372MOL0     C49000   8.838   6.854  10.086  0.4983 -0.2643 -0.5014
  372MOL0     C49001   8.967   6.818  10.149 -0.6916  0.2908  0.5927
  372MOL0     O49002   9.036   6.930  10.187  0.0242  0.1323  0.1423
  372MOL0     C49003   9.165   6.916  10.237  0.1961 -0.7361 -0.6049
  372MOL0     C49004   9.194   6.808  10.325 -0.2541  0.2593  0.5490
  372MOL0     C49005   9.320   6.802  10.390  0.2234 -0.0680 -0.4146
  372MOL0     C49006   9.414   6.895  10.360 -0.3836 -0.8346 -0.2017
  372MOL0     O49007   9.535   6.889  10.422 -0.2393 -0.2024 -0.0791
  372MOL0     C49008   9.628   6.826  10.333  0.5778 -0.5601 -0.0275
  372MOL0     C49009   9.768   6.817  10.400 -0.3187  0.3553  0.4753
  372MOL0     C49010   9.828   6.945  10.462 -0.0007 -0.3318 -0.0126
  372MOL0     C49011   9.967   6.905  10.516 -0.2981 -0.5469 -0.7654
  372MOL0     C49012  10.000   7.004  10.631 -0.4969  0.6790 -0.7001
  372MOL0     C49013  10.139   6.993  10.691 -0.1030  0.0552 -0.1131
  372MOL0     C49014  10.129   6.908  10.822 -0.5306 -1.0078  0.3231
  372MOL0     C49015  10.274   6.877  10.866  0.6718 -0.2944 -0.2793
  372MOL0    Cl49016  10.289   6.771  11.010  0.0915 -0.0213 -0.3575
  372MOL0     C49017   9.392   6.993  10.263  0.3681  0.0138 -0.2997
  372MOL0     C49018   9.269   7.006  10.202  0.1964  0.2230 -0.2613
  372MOL0     O49019   9.010   6.708  10.148 -0.5373 -0.3340  0.4243
  372MOL0     C49020   8.745   6.756  10.068 -0.3598  0.2482  0.9814
  372MOL0     C49021   8.619   6.793  10.016  0.1297  0.2861 -0.1244
  372MOL0     N49022   7.927   7.134   9.834 -0.4259  0.0506 -0.0856
  372MOL0     N49023   7.895   7.210   9.725  0.0370  0.4956  0.5845
  372MOL0     C49024   8.730   7.045   8.880 -0.8885  0.0068  0.1979
  372MOL0     C49025   8.872   7.024   8.867 -0.2657 -0.0647 -0.3662
  372MOL0     C49026   9.294   7.136   8.737 -0.5821 -0.0327 -0.4832
  372MOL0     C49027   9.372   7.073   8.829  0.2566  0.6438  0.0177
  372MOL0     C49028   9.508   7.033   8.793 -0.7854 -0.0337 -0.4723
  372MOL0     C49029   9.557   7.072   8.662 -0.1295  0.3977 -0.8797
  372MOL0     O49030   9.687   7.063   8.618  0.0304  0.1289  0.0483
  372MOL0     C49031   9.790   7.019   8.706 -0.2298  0.7801 -0.0676
  372MOL0     C49032   9.923   7.020   8.629 -0.0136 -0.5090 -0.1369
  372MOL0     C49033  10.046   6.988   8.722 -0.3531 -1.2270  0.3927
  372MOL0     C49034  10.187   7.002   8.658  0.0687 -0.0276  0.3084
  372MOL0     C49035  10.295   6.967   8.752 -1.1088 -0.2705  0.8051
  372MOL0     C49036  10.379   6.929   8.831  0.6364 -0.7272 -0.0368
  372MOL0     C49037   9.472   7.136   8.575 -0.8796 -0.2329  0.4018
  372MOL0     C49038   9.344   7.169   8.608  0.9827 -0.0584 -0.4785
  372MOL0     H49039   8.980   7.314   8.981  2.5688 -2.5477 -0.6761
  372MOL0     H49040   8.732   7.345   9.026 -0.6006 -0.8137  2.0683
  372MOL0     H49041   8.473   7.048   9.081  1.3321  2.5137  0.6818
  372MOL0     H49042   8.481   6.999   8.910 -2.2018  0.7119 -0.6595
  372MOL0     H49043   8.242   7.031   8.991  0.4476 -1.1904  0.0759
  372MOL0     H49044   8.291   7.141   8.856  1.4632  2.0614  1.0413
  372MOL0     H49045   8.291   7.324   9.002 -1.7466  0.0781  1.5722
  372MOL0     H49046   8.347   7.230   9.135  0.7852  0.3175 -0.3255
  372MOL0     H49047   8.065   7.230   9.027  1.7937  0.2157 -0.5737
  372MOL0     H49048   8.108   7.115   9.150  0.1232 -0.2848 -1.2411
  372MOL0     H49049   8.113   7.418   9.177 -2.1411 -1.4762 -2.6973
  372MOL0     H49050   8.190   7.317   9.303 -2.5807  1.0914  2.4624
  372MOL0     H49051   7.911   7.289   9.217 -2.0350 -1.8233  2.7657
  372MOL0     H49052   7.965   7.413   9.329  0.0501  1.1459 -3.0404
  372MOL0     H49053   8.023   7.112   9.358 -2.3828  0.5370 -0.2530
  372MOL0     H49054   8.067   7.238   9.478  1.5213 -1.2537 -0.0360
  372MOL0     H49055   7.797   7.120   9.421 -0.7913  1.6946 -3.1431
  372MOL0     H49056   7.812   7.277   9.505  3.0994  1.9624  0.1967
  372MOL0     H49057   7.907   6.909   9.595 -2.5694  1.1224 -1.6601
  372MOL0     H49058   7.980   6.816   9.810 -2.4266 -0.4074 -1.1428
  372MOL0     H49059   7.894   6.866   9.955  2.0835 -3.5356 -0.7310
  372MOL0     H49060   8.114   6.826  10.040 -0.5063  0.3679  1.0140
  372MOL0     H49061   8.082   6.988  10.042  1.5201 -0.8162 -0.1287
  372MOL0     H49062   8.237   6.884   9.817 -2.9278 -1.4245  1.4193
  372MOL0     H49063   8.225   7.051   9.871 -0.6585 -0.2315 -0.0171
  372MOL0     H49064   8.357   6.855  10.047  2.6135 -0.2725  0.2907
  372MOL0     H49065   8.372   7.032  10.047  2.0965 -1.1063  0.5833
  372MOL0     H49066   8.639   7.125   9.963  1.2871  1.0283  1.3364
  372MOL0     H49067   8.871   7.071  10.070  0.6027  0.1950 -0.9772
  372MOL0     H49068   9.116   6.734  10.340 -1.6467  1.5532 -0.0811
  372MOL0     H49069   9.348   6.720  10.455 -2.3498  1.9054  3.6275
  372MOL0     H49070   9.652   6.899  10.255 -1.1958  3.1072  2.5777
  372MOL0     H49071   9.589   6.730  10.298  0.7351 -0.4249 -0.5811
  372MOL0     H49072   9.840   6.773  10.330  0.5014  1.2861  0.7262
  372MOL0     H49073   9.749   6.739  10.475  1.6814 -1.6640 -0.9699
  372MOL0     H49074   9.769   6.997  10.539  1.6679 -0.2800  1.2865
  372MOL0     H49075   9.851   7.018  10.385 -2.1953 -1.7419 -2.1580
  372MOL0     H49076   9.969   6.801  10.549 -2.6378 -0.5588 -0.4709
  372MOL0     H49077  10.043   6.900  10.437  1.9319 -4.2202  1.3595
  372MOL0     H49078   9.920   6.988  10.704 -2.2135 -1.8334 -2.9421
  372MOL0     H49079   9.997   7.104  10.587  3.2331  0.0503 -2.7966
  372MOL0     H49080  10.169   7.092  10.725 -0.9985  0.7899 -1.3917
  372MOL0     H49081  10.218   6.969  10.618 -0.3053  1.1336 -0.6989
  372MOL0     H49082  10.073   6.960  10.900 -1.4780 -0.3424 -0.7768
  372MOL0     H49083  10.065   6.823  10.796  1.2984 -2.9784  1.8286
  372MOL0     H49084  10.323   6.974  10.884  2.3827 -1.2302  0.3251
  372MOL0     H49085  10.333   6.833  10.786  1.7665 -0.5280  0.6291
  372MOL0     H49086   9.468   7.069  10.248 -0.4844  1.4922  2.2079
  372MOL0     H49087   9.237   7.071  10.122 -0.4490 -1.4141 -1.3889
  372MOL0     H49088   8.747   6.657  10.112 -0.1436  0.9334  2.5722
  372MOL0     H49089   8.545   6.714  10.008  0.2944  0.3045 -2.4752
  372MOL0     H49090   8.679   6.954   8.850 -1.3645  0.0880  0.7550
  372MOL0     H49091   8.910   6.932   8.823 -0.9320 -0.9541  0.8473
  372MOL0     H49092   9.340   7.053   8.931 -1.8866  1.2059 -0.5045
  372MOL0     H49093   9.565   6.981   8.868 -2.5215 -1.2879  0.0374
  372MOL0     H49094   9.766   6.919   8.742 -0.1571  1.1588  1.0973
  372MOL0     H49095   9.804   7.091   8.788  4.3904 -0.0001  0.1073
  372MOL0     H49096   9.926   6.945   8.549  2.0508 -1.6686  0.9395
  372MOL0     H49097   9.932   7.119   8.584  0.7154 -0.7652 -0.5706
  372MOL0     H49098  10.045   6.892   8.774  0.6669 -1.0432  0.7809
  372MOL0     H49099  10.054   7.076   8.788  2.4159 -1.6288  0.7293
  372MOL0     H49100  10.189   6.940   8.568 -0.2280  3.2258 -2.0939
  372MOL0     H49101  10.207   7.106   8.631 -0.7654  0.5393  1.7492
  372MOL0     H49102  10.459   6.895   8.894 -0.8844 -1.0206  1.8272
  372MOL0     H49103   9.497   7.172   8.476 -0.5050 -0.1230  0.5375
  372MOL0     H49104   9.291   7.231   8.535  1.4967 -1.6100 -2.2386
  373MOL0     O49105   6.987   9.832   0.653  0.6424  0.3455  0.3710
  373MOL0     C49106   6.958   9.840   0.771 -0.0791 -0.4765  0.0503
  373MOL0     O49107   7.046   9.829   0.878  0.7902 -0.2459 -0.0687
  373MOL0     C49108   7.179   9.800   0.866 -0.0383  0.3291  0.2613
  373MOL0     C49109   7.241   9.720   0.957 -1.1188  0.4229 -0.0420
  373MOL0     C49110   7.378   9.688   0.948  0.4010 -1.5138 -0.5292
  373MOL0     C49111   7.455   9.742   0.846  0.0606  1.0278  0.3169
  373MOL0     O49112   7.584   9.713   0.864 -0.1763 -0.2058  0.0594
  373MOL0     C49113   7.668   9.724   0.757 -0.7271 -0.3138  0.4544
  373MOL0     C49114   7.812   9.707   0.813 -0.1382 -0.0469 -0.8754
  373MOL0     C49115   7.913   9.766   0.721 -0.7554 -0.0892 -0.0371
  373MOL0     C49116   8.043   9.809   0.796 -0.0882  0.0633 -0.3384
  373MOL0     C49117   8.144   9.890   0.715  0.2692 -0.1809  0.4614
  373MOL0     C49118   8.261   9.945   0.800 -0.7620 -0.6263 -0.2380
  373MOL0     C49119   8.369  10.004   0.705  0.4346  1.2082  0.4323
  373MOL0     C49120   8.499  10.062   0.774 -0.6231 -0.6080 -0.6920
  373MOL0     N49121   8.580   9.967   0.842  0.0884  0.0012  0.3514
  373MOL0     C49122   8.584   9.936   0.976  0.2477  0.1661 -0.0314
  373MOL0     C49123   8.674   9.838   0.995 -0.5824  0.0592  0.3243
  373MOL0     C49124   8.711   9.777   1.121 -0.5653  0.3573 -0.1522
  373MOL0     C49125   8.628   9.640   1.151  0.2523 -0.2460 -0.4348
  373MOL0     C49126   8.472   9.656   1.141 -0.7795  0.1634  0.5126
  373MOL0     C49127   8.410   9.530   1.201  0.1454  0.5544 -0.4779
  373MOL0     O49128   8.264   9.552   1.214  0.0862  0.3358 -0.4671
  373MOL0     C49129   8.175   9.443   1.210 -0.3403 -0.1899 -0.2108
  373MOL0     C49130   8.215   9.302   1.241  0.4507 -1.0448 -0.5497
  373MOL0     C49131   8.119   9.211   1.227 -0.6042 -0.2529 -0.2597
  373MOL0     C49132   7.982   9.229   1.214 -0.0190 -0.8564  0.1890
  373MOL0     C49133   7.874   9.125   1.215 -0.3095 -0.0854 -0.1793
  373MOL0     O49134   7.744   9.168   1.177 -0.0417  0.1524 -0.2458
  373MOL0     C49135   7.651   9.078   1.138 -1.1837  1.0954  0.9594
  373MOL0     C49136   7.568   9.109   1.029  0.3076 -0.6251  0.3532
  373MOL0     C49137   7.466   9.025   0.991 -0.5903  0.3812  0.3989
  373MOL0     C49138   7.430   8.913   1.068 -0.2369 -0.0530 -0.4797
  373MOL0     O49139   7.331   8.823   1.028  0.6513  0.4306  0.8914
  373MOL0     C49140   7.213   8.850   0.941  0.2070 -0.4619  0.6959
  373MOL0     C49141   7.101   8.756   0.980 -0.5919 -0.5813 -0.5503
  373MOL0     C49142   6.966   8.794   0.927 -0.2014  0.5642  0.6096
  373MOL0     C49143   6.970   8.762   0.776  0.7862  0.4382 -0.2086
  373MOL0     C49144   6.835   8.770   0.708  0.0402  1.0694  1.1179
  373MOL0     C49145   6.845   8.764   0.559 -0.1235  0.1065  0.2249
  373MOL0     C49146   6.714   8.784   0.481  0.3319 -0.8034  0.4841
  373MOL0     C49147   6.627   8.655   0.459 -1.1983 -0.5358  0.2175
  373MOL0    Cl49148   6.520   8.705   0.329  0.6496 -0.0475  0.1429
  373MOL0     C49149   7.518   8.876   1.169  0.8859  0.0751  0.2157
  373MOL0     C49150   7.633   8.950   1.208  0.1772  0.1566  0.7638
  373MOL0     O49151   7.908   9.013   1.240 -0.1112  0.0083 -0.5917
  373MOL0     C49152   7.943   9.366   1.186 -0.0913  0.4532 -0.8114
  373MOL0     C49153   8.036   9.469   1.181 -0.5332 -0.2791 -0.4507
  373MOL0     N49154   8.720   9.803   0.877 -0.9246 -0.5188 -0.2958
  373MOL0     N49155   8.667   9.880   0.789 -0.4662 -0.6309 -0.2425
  373MOL0     C49156   7.386   9.813   0.744 -0.0894 -0.0039 -0.7533
  373MOL0     C49157   7.258   9.843   0.761 -0.5345 -0.0605 -0.4394
  373MOL0     C49158   6.819   9.846   0.791  0.7963 -0.0213 -0.3648
  373MOL0     C49159   6.742   9.941   0.715  0.3169  0.1437 -0.0474
  373MOL0     C49160   6.604   9.940   0.733 -1.2537  0.8040 -0.4402
  373MOL0     C49161   6.540   9.858   0.831  0.6584 -0.4713  0.4437
  373MOL0     O49162   6.408   9.863   0.865 -0.0995 -0.0346  0.1229
  373MOL0     C49163   6.338   9.990   0.847  0.2982 -0.1373  0.0846
  373MOL0     C49164   6.230   9.971   0.737  0.8920 -0.2156  0.4334
  373MOL0     C49165   6.190  10.112   0.675 -0.2873 -0.7265  0.2641
  373MOL0     C49166   6.100  10.089   0.548  0.5921  0.1608  0.2331
  373MOL0     C49167   6.079  10.214   0.470 -0.1882 -0.3884  0.2850
  373MOL0     C49168   6.061  10.312   0.406  0.5504 -0.9090 -0.0072
  373MOL0     C49169   6.621   9.776   0.915 -0.0639  0.3550 -0.8176
  373MOL0     C49170   6.756   9.777   0.894 -0.0848 -1.2552 -0.4826
  373MOL0     H49171   7.184   9.672   1.036  1.3782  1.3997  2.5653
  373MOL0     H49172   7.440   9.635   1.019  0.0821 -2.3066 -0.8314
  373MOL0     H49173   7.656   9.821   0.707 -0.9861 -1.5286 -2.0054
  373MOL0     H49174   7.658   9.645   0.681 -1.7929  0.1192  0.1206
  373MOL0     H49175   7.840   9.603   0.832  2.5090  0.2434 -2.5521
  373MOL0     H49176   7.815   9.749   0.914  0.7108  2.5938 -1.9010
  373MOL0     H49177   7.870   9.855   0.674 -0.2039  1.5108  2.3025
  373MOL0     H49178   7.945   9.695   0.644  2.3394  1.4738 -0.3517
  373MOL0     H49179   8.013   9.875   0.878  4.5462  1.2492  0.7066
  373MOL0     H49180   8.091   9.725   0.846 -1.1525  0.6184  1.7398
  373MOL0     H49181   8.100   9.977   0.666  0.3081  0.9659  2.3649
  373MOL0     H49182   8.173   9.818   0.639  0.6279  0.3282  0.1060
  373MOL0     H49183   8.300   9.868   0.867 -5.1806 -2.6497  0.4068
  373MOL0     H49184   8.220  10.022   0.865 -1.4765  0.7390 -2.2046
  373MOL0     H49185   8.404   9.928   0.635 -0.9513  1.2781 -0.3566
  373MOL0     H49186   8.332  10.087   0.645  2.1679  1.4533 -0.3649
  373MOL0     H49187   8.465  10.134   0.850  2.0593  0.6746 -0.5661
  373MOL0     H49188   8.558  10.118   0.700  1.2794 -1.2285  0.2800
  373MOL0     H49189   8.536   9.990   1.058 -1.1096  1.3678 -1.5520
  373MOL0     H49190   8.688   9.843   1.205  3.5146  2.0526 -0.1646
  373MOL0     H49191   8.817   9.750   1.122 -0.9368 -1.9615 -3.7877
  373MOL0     H49192   8.659   9.596   1.246  3.1235  1.6915 -0.3229
  373MOL0     H49193   8.657   9.566   1.075 -1.8714 -1.8535  0.2371
  373MOL0     H49194   8.441   9.746   1.194  0.0166 -0.3101  1.8499
  373MOL0     H49195   8.460   9.662   1.032 -0.1528 -2.3038  0.2314
  373MOL0     H49196   8.454   9.504   1.297  1.3218  2.4011 -0.4618
  373MOL0     H49197   8.435   9.443   1.140  2.1951  1.1737 -0.5728
  373MOL0     H49198   8.320   9.284   1.260  0.1026 -2.5752 -0.0039
  373MOL0     H49199   8.147   9.107   1.238  0.9879 -0.0058 -1.5456
  373MOL0     H49200   7.575   9.199   0.969  0.8326 -0.0702  1.2243
  373MOL0     H49201   7.408   9.065   0.909 -1.4360  1.0035  1.2697
  373MOL0     H49202   7.249   8.824   0.841  2.6940 -0.2757  1.4679
  373MOL0     H49203   7.185   8.955   0.954 -0.7619 -0.5755 -0.3000
  373MOL0     H49204   7.098   8.744   1.089  1.5890 -3.1713 -0.6530
  373MOL0     H49205   7.129   8.655   0.949  0.4426  0.6057 -3.9261
  373MOL0     H49206   6.946   8.900   0.947  1.2292  0.8109  0.8392
  373MOL0     H49207   6.887   8.736   0.975 -1.1954 -0.3198 -1.8958
  373MOL0     H49208   7.033   8.826   0.714  2.9332 -2.9963 -1.8952
  373MOL0     H49209   7.015   8.664   0.760 -0.5278  0.1258 -2.3724
  373MOL0     H49210   6.792   8.869   0.728 -0.4833  1.5657 -1.9757
  373MOL0     H49211   6.773   8.691   0.751 -0.2937  0.7636  0.0963
  373MOL0     H49212   6.891   8.669   0.530 -1.6078 -0.9676  1.2005
  373MOL0     H49213   6.909   8.847   0.529 -0.0844  0.9999  2.6087
  373MOL0     H49214   6.655   8.860   0.534  0.6263 -0.3596  0.1886
  373MOL0     H49215   6.741   8.823   0.382  0.2855  0.4342  0.9355
  373MOL0     H49216   6.585   8.614   0.552  0.5011 -3.4700 -0.1855
  373MOL0     H49217   6.694   8.575   0.426  3.5406  3.5273 -1.1824
  373MOL0     H49218   7.493   8.786   1.224  0.2873 -1.1791 -1.9851
  373MOL0     H49219   7.686   8.918   1.297 -0.7427  1.8978  1.9935
  373MOL0     H49220   7.840   9.398   1.173 -0.5105 -0.8729 -0.8771
  373MOL0     H49221   8.007   9.572   1.165  0.7007  0.2558  0.5279
  373MOL0     H49222   7.443   9.844   0.657  0.5330  0.6388 -0.1331
  373MOL0     H49223   7.224   9.910   0.683  0.1544 -1.4694 -2.0060
  373MOL0     H49224   6.787  10.000   0.636  0.7167 -2.0354 -1.5420
  373MOL0     H49225   6.544  10.003   0.669 -1.2999  0.6664 -0.5328
  373MOL0     H49226   6.409  10.070   0.824  2.0396 -1.7453 -0.3821
  373MOL0     H49227   6.292  10.027   0.939  1.9156 -0.3109  0.9996
  373MOL0     H49228   6.270   9.911   0.654 -2.2223  0.2173 -1.5666
  373MOL0     H49229   6.141   9.912   0.762  0.2647  0.2763 -0.5716
  373MOL0     H49230   6.280  10.168   0.648 -0.9107 -0.6941 -1.9808
  373MOL0     H49231   6.132  10.173   0.744  1.5225 -1.5235  2.6390
  373MOL0     H49232   6.130  10.017   0.471  0.6112  0.3848  0.0295
  373MOL0     H49233   6.006  10.057   0.593  0.3624  2.9722  1.9750
  373MOL0     H49234   6.059  10.409   0.359 -0.7811 -2.0779 -2.5540
  373MOL0     H49235   6.594   9.710   0.997  3.4941  0.9415  1.0196
  373MOL0     H49236   6.828   9.731   0.960  0.3017 -2.6970 -1.8408
  374MOL0     O49237   0.883   3.568   4.855  0.0691  0.8809  0.2833
  374MOL0     C49238   0.969   3.533   4.936  0.1349 -0.5656  0.2275
  374MOL0     O49239   1.015   3.621   5.029  0.3449 -0.1528  0.4969
  374MOL0     C49240   0.948   3.735   5.076  0.1329 -0.5969 -1.0787
  374MOL0     C49241   1.031   3.825   5.153 -0.0915 -0.2050  0.6099
  374MOL0     C49242   0.974   3.938   5.224  1.6385  1.0008 -0.2472
  374MOL0     C49243   0.824   3.961   5.207  0.9910  1.0775 -0.1071
  374MOL0     O49244   0.745   4.069   5.261  0.2291 -0.1665 -0.1891
  374MOL0     C49245   0.815   4.171   5.342  0.1687  0.9309  0.2845
  374MOL0     C49246   0.905   4.255   5.256  0.5158 -0.5620 -0.5620
  374MOL0     C49247   0.840   4.391   5.215  0.5423  0.2088 -0.6957
  374MOL0     C49248   0.914   4.441   5.092 -0.0400 -0.8357 -0.3835
  374MOL0     C49249   0.839   4.410   4.965 -0.2654  0.2605  0.2204
  374MOL0     C49250   0.706   4.490   4.943  0.9198 -0.5402 -0.1365
  374MOL0     C49251   0.588   4.391   4.906 -0.0100 -0.0743  0.2006
  374MOL0     C49252   0.616   4.298   4.780  0.9232  0.0426 -0.3084
  374MOL0     N49253   0.483   4.256   4.730 -0.8428  0.0150 -0.5590
  374MOL0     C49254   0.398   4.176   4.798  0.0350 -0.1541  0.6061
  374MOL0     C49255   0.289   4.175   4.712 -0.4259 -0.2088 -0.4076
  374MOL0     C49256   0.166   4.119   4.770  0.2125 -0.2013 -0.2440
  374MOL0     C49257   0.155   3.975   4.748 -0.1713  0.6834 -0.6023
  374MOL0     C49258   0.108   3.927   4.611  0.2953  0.3987 -0.6203
  374MOL0     C49259   0.146   3.792   4.568 -0.0632 -0.5932 -0.7741
  374MOL0     O49260   0.063   3.756   4.461  0.2469 -0.5625  0.4522
  374MOL0     C49261   0.065   3.625   4.423  0.2291 -0.1002  0.3040
  374MOL0     C49262  -0.030   3.581   4.333  0.4020  0.4101 -0.2264
  374MOL0     C49263  -0.039   3.446   4.294 -0.4344  0.0152  1.1068
  374MOL0     C49264   0.058   3.352   4.339  0.3780  0.4165  0.8577
  374MOL0     C49265   0.067   3.217   4.280  0.4232 -0.2564  1.2624
  374MOL0     O49266   0.178   3.146   4.272 -1.1203 -0.6561  0.1698
  374MOL0     C49267   0.238   3.121   4.151  1.0681 -0.3345  0.3445
  374MOL0     C49268   0.192   3.162   4.015 -0.2833  0.5924 -0.8781
  374MOL0     C49269   0.277   3.141   3.901  0.7653 -0.8440  0.2029
  374MOL0     C49270   0.382   3.049   3.911  0.2379  0.7578  0.0520
  374MOL0     O49271   0.452   3.014   3.799  0.0016  0.2982  0.0324
  374MOL0     C49272   0.580   3.076   3.784  0.8592 -0.6365 -0.2474
  374MOL0     C49273   0.569   3.218   3.718  1.0575  0.0689  0.0660
  374MOL0     C49274   0.717   3.269   3.699 -0.4936 -0.0542  0.6850
  374MOL0     C49275   0.808   3.185   3.606 -0.0832  0.0948 -0.2516
  374MOL0     C49276   0.931   3.268   3.567 -0.5623 -1.0639  0.1960
  374MOL0     C49277   1.022   3.167   3.497  0.4932 -0.4654  0.3346
  374MOL0     C49278   1.160   3.231   3.452 -0.4216 -0.0162 -0.4425
  374MOL0     C49279   1.231   3.135   3.349 -0.3060  0.4064 -0.2268
  374MOL0    Cl49280   1.299   2.992   3.452 -0.0402 -0.5598 -0.0028
  374MOL0     C49281   0.412   3.005   4.038 -0.1225  0.3665 -0.9064
  374MOL0     C49282   0.356   3.056   4.154  1.0052  0.9012  0.6284
  374MOL0     O49283  -0.041   3.170   4.236 -0.2112  0.6479  0.1454
  374MOL0     C49284   0.151   3.395   4.438 -0.6067  0.4022  0.6237
  374MOL0     C49285   0.149   3.531   4.480 -0.8143 -0.2478  0.5005
  374MOL0     N49286   0.323   4.231   4.592  0.8183 -0.8098 -0.1738
  374MOL0     N49287   0.446   4.278   4.607  0.4354 -0.5281 -1.1667
  374MOL0     C49288   0.746   3.866   5.138  0.5526 -0.3334 -1.2470
  374MOL0     C49289   0.812   3.759   5.077  0.6506 -0.0827 -0.3599
  374MOL0     C49290   1.046   3.406   4.912  0.0901 -0.1734 -0.9461
  374MOL0     C49291   1.129   3.368   5.015  0.3625  0.1519 -0.2946
  374MOL0     C49292   1.217   3.266   4.990 -0.8492 -0.4101 -0.4110
  374MOL0     C49293   1.206   3.189   4.874  0.5595 -0.2751 -0.2422
  374MOL0     O49294   1.273   3.066   4.854  0.2069 -0.1627 -0.5283
  374MOL0     C49295   1.407   3.040   4.902 -0.3840  0.4182  0.0893
  374MOL0     C49296   1.509   3.147   4.868  0.0955  0.2535  0.2627
  374MOL0     C49297   1.626   3.158   4.975  0.2462 -0.2376  0.1203
  374MOL0     C49298   1.581   3.224   5.104 -0.7458 -0.3946 -0.4019
  374MOL0     C49299   1.690   3.246   5.201  0.3487 -0.3337  0.2701
  374MOL0     C49300   1.776   3.248   5.278  0.5421 -1.4734 -0.4443
  374MOL0     C49301   1.114   3.224   4.775  0.1801  0.5042 -0.0723
  374MOL0     C49302   1.033   3.333   4.796 -1.2313 -0.7587  0.2298
  374MOL0     H49303   1.137   3.800   5.149 -0.1927 -0.9221  1.8488
  374MOL0     H49304   1.042   4.006   5.275  0.7785  2.6282 -1.2047
  374MOL0     H49305   0.872   4.125   5.424 -0.4208  0.2545  0.3242
  374MOL0     H49306   0.734   4.232   5.382 -1.6066  0.3271 -2.1436
  374MOL0     H49307   0.936   4.197   5.168 -1.1326 -1.8885 -0.3212
  374MOL0     H49308   0.998   4.279   5.307  0.0508  0.6746 -0.2609
  374MOL0     H49309   0.835   4.465   5.296 -4.5864  2.9298 -2.9891
  374MOL0     H49310   0.734   4.381   5.187  0.3354  1.2203 -0.3322
  374MOL0     H49311   0.927   4.549   5.095 -0.7824 -0.7442 -0.3910
  374MOL0     H49312   1.012   4.395   5.078  0.2532 -0.1810 -0.5102
  374MOL0     H49313   0.827   4.301   4.965  1.4782  0.0286 -0.0165
  374MOL0     H49314   0.898   4.437   4.876  0.3209 -1.6494 -0.0142
  374MOL0     H49315   0.712   4.562   4.861 -2.4710  0.8547  0.6272
  374MOL0     H49316   0.677   4.548   5.031  1.2002  1.0653 -1.0514
  374MOL0     H49317   0.564   4.330   4.993 -1.6793  3.2228  2.2571
  374MOL0     H49318   0.507   4.462   4.890  0.5666  1.5008  3.5240
  374MOL0     H49319   0.674   4.212   4.815 -2.2387 -1.9866  0.2971
  374MOL0     H49320   0.671   4.349   4.700  0.2658 -1.2577 -1.6365
  374MOL0     H49321   0.406   4.128   4.895  1.1487  2.1233  1.7169
  374MOL0     H49322   0.078   4.161   4.719  0.8287 -1.6684 -2.6565
  374MOL0     H49323   0.158   4.141   4.877 -1.7780  0.4680 -0.4669
  374MOL0     H49324   0.088   3.938   4.826 -2.0199  0.9123 -2.0023
  374MOL0     H49325   0.257   3.937   4.754 -0.1559  0.6681 -0.9338
  374MOL0     H49326  -0.001   3.937   4.617  0.3283  0.5617 -0.3002
  374MOL0     H49327   0.151   3.993   4.535 -0.3465  0.1445 -1.2177
  374MOL0     H49328   0.133   3.732   4.659  5.0791  0.0377  0.7338
  374MOL0     H49329   0.254   3.783   4.550  1.7122  1.9185  5.6010
  374MOL0     H49330  -0.097   3.660   4.301  1.3395  2.1743  1.9458
  374MOL0     H49331  -0.108   3.420   4.215  0.7446  0.1935 -0.0083
  374MOL0     H49332   0.098   3.217   4.014 -1.1643 -0.8052  0.6128
  374MOL0     H49333   0.264   3.171   3.798  0.4335 -4.2514 -0.8866
  374MOL0     H49334   0.626   3.004   3.716  0.4895 -1.8138  0.7274
  374MOL0     H49335   0.633   3.071   3.879  0.1393 -2.2057  0.1062
  374MOL0     H49336   0.518   3.283   3.790  2.4976  2.0846 -0.6339
  374MOL0     H49337   0.513   3.213   3.625  3.6583 -3.8069 -1.5202
  374MOL0     H49338   0.758   3.269   3.801  0.7412 -1.0418  0.2028
  374MOL0     H49339   0.721   3.374   3.670  1.9740 -0.0310  0.8736
  374MOL0     H49340   0.848   3.104   3.668  3.2097  0.5728 -1.5533
  374MOL0     H49341   0.756   3.157   3.514 -1.3435  1.0746  0.1322
  374MOL0     H49342   0.992   3.303   3.650 -1.7338  2.4907 -0.2904
  374MOL0     H49343   0.904   3.358   3.510 -3.9479 -1.5775  0.7720
  374MOL0     H49344   0.964   3.140   3.409  1.8421  0.5429 -0.9082
  374MOL0     H49345   1.035   3.073   3.552  0.1811 -0.2514  0.7788
  374MOL0     H49346   1.152   3.334   3.416  4.1686  0.9415  0.6810
  374MOL0     H49347   1.216   3.243   3.546 -3.2557 -0.4333  1.4356
  374MOL0     H49348   1.322   3.177   3.305  0.0504 -1.3863 -1.2550
  374MOL0     H49349   1.159   3.107   3.272 -3.4412 -0.7661  2.8106
  374MOL0     H49350   0.499   2.940   4.045 -1.5452 -1.5024  0.5976
  374MOL0     H49351   0.395   3.035   4.253 -2.9723 -0.1699  2.1252
  374MOL0     H49352   0.229   3.333   4.481  0.2795  2.0977  1.5587
  374MOL0     H49353   0.231   3.572   4.538  1.3320 -2.9376 -0.4243
  374MOL0     H49354   0.638   3.866   5.130  0.3192 -0.8513  1.1871
  374MOL0     H49355   0.757   3.691   5.012 -0.0367 -2.3855  2.4382
  374MOL0     H49356   1.123   3.428   5.106  1.7474  0.2763 -0.2662
  374MOL0     H49357   1.295   3.243   5.062 -0.0218  1.3014 -0.7166
  374MOL0     H49358   1.449   2.948   4.861  0.1254  0.4323  0.5748
  374MOL0     H49359   1.391   3.033   5.010 -1.7888 -0.1463 -0.1313
  374MOL0     H49360   1.540   3.118   4.767 -2.1286 -2.8766  0.3156
  374MOL0     H49361   1.462   3.244   4.854 -0.6145 -0.2317 -0.8135
  374MOL0     H49362   1.709   3.211   4.926 -0.9702  0.6951 -1.0304
  374MOL0     H49363   1.653   3.053   4.986 -2.3794 -1.1633 -1.3596
  374MOL0     H49364   1.536   3.322   5.085 -2.6117 -1.2923 -0.8576
  374MOL0     H49365   1.513   3.153   5.153  0.1502 -1.3480 -0.4985
  374MOL0     H49366   1.857   3.259   5.347 -0.2108  0.0226  0.2633
  374MOL0     H49367   1.117   3.163   4.686  1.7554 -1.5848  1.2961
  374MOL0     H49368   0.974   3.360   4.710 -0.2089 -3.9502 -1.6583
  375MOL0     O49369   9.980  10.957   2.043  1.1202  0.2358  0.1116
  375MOL0     C49370  10.036  11.063   2.062 -0.4804 -0.1082  0.3766
  375MOL0     O49371  10.099  11.147   1.965 -0.2718 -0.1230  0.0889
  375MOL0     C49372  10.089  11.099   1.837  0.1441 -1.0114 -0.6416
  375MOL0     C49373   9.986  11.133   1.752  1.0379  0.4435  0.4973
  375MOL0     C49374   9.981  11.095   1.623 -0.1505  0.1078  0.4043
  375MOL0     C49375  10.095  11.030   1.564 -0.8471  0.1963 -0.5988
  375MOL0     O49376  10.102  10.987   1.435 -0.3877  0.3989 -0.4804
  375MOL0     C49377  10.017  11.053   1.343  0.0627 -0.3103  0.5797
  375MOL0     C49378  10.051  10.990   1.214 -1.0126 -0.3426  0.4960
  375MOL0     C49379   9.964  11.033   1.089 -0.7081 -0.0453 -0.7919
  375MOL0     C49380   9.828  10.953   1.101 -1.0713  0.7594  0.3725
  375MOL0     C49381   9.728  10.988   0.984 -0.3051  0.6318 -0.1478
  375MOL0     C49382   9.691  11.135   0.979  0.2786  1.1421  0.6620
  375MOL0     C49383   9.600  11.145   0.858 -0.3793 -0.4025  0.9669
  375MOL0     C49384   9.497  11.257   0.854 -0.0465 -0.1904  0.1731
  375MOL0     N49385   9.431  11.265   0.722 -0.4507 -0.3465  0.1292
  375MOL0     C49386   9.436  11.376   0.636 -0.4147 -0.0070  0.4742
  375MOL0     C49387   9.326  11.363   0.560  0.2651 -0.1255 -1.0368
  375MOL0     C49388   9.271  11.447   0.450  0.8343 -0.3547  0.2257
  375MOL0     C49389   9.383  11.540   0.402 -0.1337  0.5426 -0.1599
  375MOL0     C49390   9.501  11.466   0.329  0.0028 -0.3080  0.7676
  375MOL0     C49391   9.459  11.380   0.219  0.4112 -0.2932 -0.2412
  375MOL0     O49392   9.401  11.450   0.103  0.7905 -0.5851  0.0788
  375MOL0     C49393   9.272  11.472   0.071 -0.1022  0.6782  0.1020
  375MOL0     C49394   9.179  11.368   0.101  0.6207 -0.8839  0.4920
  375MOL0     C49395   9.051  11.383   0.043 -0.3938  0.6348  0.1726
  375MOL0     C49396   9.022  11.497  -0.033  0.1977  0.2345  0.2501
  375MOL0     C49397   8.894  11.515  -0.080  0.0337 -0.6226 -0.2966
  375MOL0     O49398   8.847  11.649  -0.078 -0.5727 -0.4510 -0.0523
  375MOL0     C49399   8.714  11.681  -0.097  0.6461 -1.1170  0.2910
  375MOL0     C49400   8.681  11.809  -0.150 -0.1820  0.6208  0.2036
  375MOL0     C49401   8.550  11.837  -0.205  1.4187  1.6939  0.3896
  375MOL0     C49402   8.439  11.749  -0.177 -0.3135  0.0557  0.3514
  375MOL0     O49403   8.314  11.777  -0.215 -0.3357 -0.0220 -0.9086
  375MOL0     C49404   8.290  11.886  -0.312 -0.5650 -0.4465  0.0354
  375MOL0     C49405   8.220  11.818  -0.422  1.1211 -0.0296  1.2054
  375MOL0     C49406   8.069  11.798  -0.385 -0.2814 -0.0955  0.6510
  375MOL0     C49407   7.985  11.774  -0.515 -0.0474 -0.4348  0.4378
  375MOL0     C49408   7.837  11.797  -0.506  0.7450 -0.1426  0.7076
  375MOL0     C49409   7.766  11.735  -0.386 -0.0454  0.2958 -0.4884
  375MOL0     C49410   7.789  11.577  -0.376 -0.5869 -0.9540 -0.5511
  375MOL0     C49411   7.742  11.502  -0.498 -0.5998 -0.6712  0.0295
  375MOL0    Cl49412   7.682  11.346  -0.428 -0.3168  0.3951 -0.2366
  375MOL0     C49413   8.474  11.628  -0.110  0.5185  0.8202  0.7911
  375MOL0     C49414   8.605  11.597  -0.058  0.0357  0.2200 -0.0425
  375MOL0     O49415   8.832  11.419  -0.129 -0.3664  0.0140 -0.7276
  375MOL0     C49416   9.117  11.600  -0.059 -0.2890 -0.3626 -0.3416
  375MOL0     C49417   9.243  11.582  -0.002  0.5945 -0.4678 -0.3077
  375MOL0     N49418   9.257  11.249   0.604  0.6796 -0.0342  0.2339
  375MOL0     N49419   9.316  11.193   0.704 -0.4780 -0.0562  0.1263
  375MOL0     C49420  10.199  10.994   1.654 -0.0869 -0.2882 -0.6083
  375MOL0     C49421  10.191  11.024   1.783  0.5549  0.0122 -0.2246
  375MOL0     C49422  10.064  11.114   2.198  1.1240 -0.6892 -0.9769
  375MOL0     C49423  10.142  11.225   2.230 -0.6109 -0.1438  0.2149
  375MOL0     C49424  10.185  11.246   2.365 -0.9991 -0.5644 -0.5025
  375MOL0     C49425  10.141  11.158   2.467  0.9040  0.4597  0.0742
  375MOL0     O49426  10.188  11.167   2.593  0.3125  0.5172 -0.1499
  375MOL0     C49427  10.081  11.167   2.693 -0.0276 -0.4570  0.2876
  375MOL0     C49428  10.107  11.281   2.795  0.8141 -0.2154  0.0409
  375MOL0     C49429  10.004  11.311   2.900  0.5010 -0.3010 -0.6732
  375MOL0     C49430  10.039  11.425   2.989  0.5054 -0.2251 -0.0996
  375MOL0     C49431  10.154  11.393   3.076  0.1036  0.3978 -0.8254
  375MOL0     C49432  10.239  11.378   3.159  0.4894  0.1141 -0.2613
  375MOL0     C49433  10.048  11.060   2.441 -0.1840  0.9685 -0.3555
  375MOL0     C49434  10.015  11.038   2.308  0.4882  0.0299 -1.1680
  375MOL0     H49435   9.902  11.190   1.791 -0.6502 -1.2401 -0.4851
  375MOL0     H49436   9.899  11.132   1.562  0.0124  1.4366  0.9511
  375MOL0     H49437  10.044  11.157   1.361 -1.2187  0.1699 -0.1655
  375MOL0     H49438   9.910  11.041   1.365  0.0247  1.6469  1.6852
  375MOL0     H49439  10.049  10.880   1.216  1.4082 -0.4942 -1.1343
  375MOL0     H49440  10.157  11.011   1.194 -1.2810 -0.8739 -1.7906
  375MOL0     H49441  10.016  11.018   0.994  0.3172  1.4179 -0.4809
  375MOL0     H49442   9.951  11.141   1.099  1.7446  0.0932  2.5284
  375MOL0     H49443   9.846  10.845   1.102  2.8270  1.2630 -0.9090
  375MOL0     H49444   9.778  10.982   1.194  1.8002  2.2886  1.5536
  375MOL0     H49445   9.634  10.932   0.987 -0.9539  1.4495 -2.6697
  375MOL0     H49446   9.770  10.968   0.885 -0.3952 -0.9999  0.1196
  375MOL0     H49447   9.773  11.206   0.975 -0.9579  2.5759 -0.4887
  375MOL0     H49448   9.618  11.163   1.055  0.0781 -0.3897  1.0775
  375MOL0     H49449   9.672  11.149   0.775 -0.4198 -1.1220  0.8931
  375MOL0     H49450   9.541  11.054   0.844 -2.5310  1.2101 -1.3342
  375MOL0     H49451   9.542  11.353   0.880  0.8559 -0.2781 -0.9488
  375MOL0     H49452   9.427  11.226   0.931  0.0588  0.4475  0.5296
  375MOL0     H49453   9.508  11.457   0.638  1.4617 -1.5897  2.5842
  375MOL0     H49454   9.176  11.489   0.487  0.3185 -0.0505 -1.3572
  375MOL0     H49455   9.240  11.378   0.372 -0.8267 -1.2197  1.5877
  375MOL0     H49456   9.442  11.588   0.480  0.2231 -0.6206  0.3156
  375MOL0     H49457   9.342  11.610   0.329  0.7271  0.9533 -0.2623
  375MOL0     H49458   9.571  11.542   0.295 -1.8816  0.6992 -1.0996
  375MOL0     H49459   9.551  11.394   0.395  2.7160 -2.1829 -2.9656
  375MOL0     H49460   9.405  11.296   0.263  3.2099 -0.4868  3.3847
  375MOL0     H49461   9.556  11.349   0.181 -0.3715  0.8547 -3.4640
  375MOL0     H49462   9.208  11.278   0.154 -1.1451 -1.1942  0.9742
  375MOL0     H49463   8.975  11.312   0.073 -1.6181  1.4199 -0.9613
  375MOL0     H49464   8.763  11.877  -0.169  0.6435 -0.9014 -2.0399
  375MOL0     H49465   8.553  11.937  -0.248 -0.4467  0.4883 -2.9267
  375MOL0     H49466   8.383  11.924  -0.354 -0.2504 -0.8343  0.3734
  375MOL0     H49467   8.230  11.967  -0.269 -0.2116 -0.3403  0.3376
  375MOL0     H49468   8.263  11.724  -0.460  1.7861  0.0643  1.7077
  375MOL0     H49469   8.238  11.887  -0.505  2.3738 -1.2929  0.3641
  375MOL0     H49470   8.041  11.888  -0.330  1.1150  0.5086  0.3942
  375MOL0     H49471   8.067  11.709  -0.322 -0.5094 -1.3192 -1.0278
  375MOL0     H49472   8.029  11.844  -0.585 -0.4694  1.9583  2.4249
  375MOL0     H49473   8.004  11.672  -0.549 -3.0871 -1.1115  0.4829
  375MOL0     H49474   7.792  11.765  -0.601 -0.5274  2.8796  0.2039
  375MOL0     H49475   7.815  11.903  -0.497  1.3007  0.2807 -1.9030
  375MOL0     H49476   7.662  11.769  -0.397  0.6063  2.7279  0.2498
  375MOL0     H49477   7.802  11.786  -0.296  2.3181  0.2490 -1.3579
  375MOL0     H49478   7.890  11.559  -0.337 -0.6591  0.2260  0.2050
  375MOL0     H49479   7.721  11.562  -0.292 -0.0644  0.4974  0.1607
  375MOL0     H49480   7.840  11.484  -0.544  0.6374 -1.3032  2.7003
  375MOL0     H49481   7.680  11.556  -0.571  1.8920  2.2937 -0.1067
  375MOL0     H49482   8.388  11.567  -0.082  1.1682 -0.2484  0.5091
  375MOL0     H49483   8.641  11.508  -0.007 -0.3542  1.3948  2.4227
  375MOL0     H49484   9.091  11.685  -0.120 -0.9081 -0.3852 -0.1151
  375MOL0     H49485   9.319  11.659  -0.011 -1.4192  2.6480  5.2106
  375MOL0     H49486  10.285  10.935   1.624 -0.0342 -0.7693  0.4464
  375MOL0     H49487  10.273  11.002   1.850  0.2353 -0.6288 -0.0330
  375MOL0     H49488  10.185  11.277   2.146 -0.0083  0.9951  1.1935
  375MOL0     H49489  10.263  11.316   2.393  0.2116 -1.9226 -0.3171
  375MOL0     H49490  10.080  11.067   2.738 -0.2948 -0.4498  0.2984
  375MOL0     H49491   9.981  11.192   2.656 -0.3332 -1.3456  0.4994
  375MOL0     H49492  10.201  11.266   2.850  0.3524  1.5525  1.3906
  375MOL0     H49493  10.117  11.376   2.742  1.4597  1.4506  2.9365
  375MOL0     H49494   9.991  11.220   2.960  2.5680  0.4107  1.0151
  375MOL0     H49495   9.915  11.336   2.842 -1.9011 -0.2723  2.7586
  375MOL0     H49496  10.067  11.511   2.929 -0.8287 -0.1141 -0.5954
  375MOL0     H49497   9.957  11.470   3.047  2.1764  2.9829 -0.0009
  375MOL0     H49498  10.311  11.367   3.238  1.3758  1.7718 -0.7692
  375MOL0     H49499  10.009  10.987   2.511  0.1864  0.4023 -0.7288
  375MOL0     H49500   9.927  10.974   2.303 -0.0741  0.6673  0.0391
  376MOL0     O49501   6.876   9.179   1.202 -0.0325 -0.0806  0.0887
  376MOL0     C49502   6.901   9.184   1.082 -0.0335  0.3464 -0.1690
  376MOL0     O49503   7.026   9.191   1.028 -0.3837 -0.1739 -0.4106
  376MOL0     C49504   7.132   9.208   1.120  0.2712 -0.2738 -0.8122
  376MOL0     C49505   7.184   9.104   1.204  1.2318 -0.1954  1.0322
  376MOL0     C49506   7.296   9.124   1.283  0.1274 -0.2275  0.0450
  376MOL0     C49507   7.362   9.247   1.285 -0.9272  0.5218  0.5654
  376MOL0     O49508   7.468   9.293   1.361 -0.1598  0.5666  0.0727
  376MOL0     C49509   7.529   9.218   1.462  0.2216  1.0890 -0.7245
  376MOL0     C49510   7.597   9.320   1.556  0.1393 -0.8264  0.3461
  376MOL0     C49511   7.742   9.335   1.516  0.0010  0.0179 -0.8911
  376MOL0     C49512   7.813   9.449   1.590  0.9301  0.8958 -0.0584
  376MOL0     C49513   7.965   9.451   1.566  0.3193  0.6970 -1.0248
  376MOL0     C49514   8.024   9.579   1.625 -0.6148  0.1458 -0.0205
  376MOL0     C49515   8.169   9.587   1.595 -0.2257  0.7385 -0.2095
  376MOL0     C49516   8.223   9.716   1.657  0.2877 -0.9793 -0.2085
  376MOL0     N49517   8.368   9.726   1.636 -0.5705  0.3166 -0.5547
  376MOL0     C49518   8.474   9.680   1.723  0.6725 -0.4264 -0.3210
  376MOL0     C49519   8.579   9.719   1.647  0.1226 -0.6795 -0.0238
  376MOL0     C49520   8.721   9.727   1.671 -0.6846 -0.1012  0.4768
  376MOL0     C49521   8.751   9.724   1.826 -0.5386 -0.5204  1.0331
  376MOL0     C49522   8.899   9.737   1.860  0.8187 -0.5343  0.1208
  376MOL0     C49523   8.946   9.885   1.840 -0.8047 -0.6651  0.0372
  376MOL0     O49524   9.081   9.895   1.874  0.6573 -0.3386 -0.3121
  376MOL0     C49525   9.121   9.990   1.960 -0.7159 -0.2804  0.3755
  376MOL0     C49526   9.231  10.075   1.925 -0.4689 -0.9110 -0.7307
  376MOL0     C49527   9.262  10.176   2.010 -0.2382 -1.2502 -0.4040
  376MOL0     C49528   9.204  10.199   2.140  0.0044  0.4546 -0.6735
  376MOL0     C49529   9.248  10.304   2.232 -0.3597 -0.2191 -0.1979
  376MOL0     O49530   9.199  10.299   2.363 -0.9293  0.0053  0.1861
  376MOL0     C49531   9.226  10.400   2.442 -0.4795 -0.1656 -0.5843
  376MOL0     C49532   9.363  10.436   2.478 -0.2833 -0.4709  0.3708
  376MOL0     C49533   9.389  10.530   2.577  0.3706 -0.0347 -0.2453
  376MOL0     C49534   9.280  10.584   2.651 -0.4811 -0.1083  0.2291
  376MOL0     O49535   9.312  10.670   2.747  0.0303 -0.0096  0.0409
  376MOL0     C49536   9.205  10.753   2.798  0.3137  0.1161 -0.3491
  376MOL0     C49537   9.261  10.816   2.922 -0.5762 -0.1519 -1.3494
  376MOL0     C49538   9.172  10.921   2.984  0.3483 -0.8973  0.3285
  376MOL0     C49539   9.211  10.967   3.121 -0.5834  0.0732 -0.9022
  376MOL0     C49540   9.140  11.091   3.167  0.7002 -0.0300 -0.2345
  376MOL0     C49541   9.165  11.118   3.317 -0.0679  0.6208 -0.1741
  376MOL0     C49542   9.117  11.263   3.348 -0.2375  0.8576  0.8988
  376MOL0     C49543   9.129  11.275   3.502 -0.5595 -0.6390 -0.5912
  376MOL0    Cl49544   9.298  11.269   3.560 -0.0509  0.1846 -0.2291
  376MOL0     C49545   9.151  10.542   2.624  1.2908 -0.2925  0.1123
  376MOL0     C49546   9.126  10.453   2.517  1.0539 -0.6415  1.2391
  376MOL0     O49547   9.321  10.390   2.181 -0.2867 -0.6951  0.6191
  376MOL0     C49548   9.097  10.103   2.177  0.0542 -0.4252 -0.5622
  376MOL0     C49549   9.063   9.996   2.087 -0.4349  0.3151  0.4183
  376MOL0     N49550   8.537   9.779   1.525 -0.0051 -0.1758 -0.6483
  376MOL0     N49551   8.408   9.787   1.528  0.5022 -0.8234 -0.0602
  376MOL0     C49552   7.314   9.352   1.207 -0.1525  0.2289  1.6565
  376MOL0     C49553   7.202   9.333   1.126  1.0639 -0.8055  0.1136
  376MOL0     C49554   6.791   9.143   1.002 -0.5563  0.4488  0.2118
  376MOL0     C49555   6.794   9.180   0.867 -0.3127  0.0650  0.2561
  376MOL0     C49556   6.709   9.128   0.775  0.5389  0.0018 -0.3419
  376MOL0     C49557   6.597   9.049   0.816  1.0903  0.5801  0.1058
  376MOL0     O49558   6.511   8.992   0.722 -0.1287  0.0123 -0.4532
  376MOL0     C49559   6.401   9.078   0.687 -0.3180  0.0660 -0.2623
  376MOL0     C49560   6.304   9.098   0.795 -0.5671  0.3113  0.2655
  376MOL0     C49561   6.181   9.176   0.748  0.3563 -0.3984  1.0708
  376MOL0     C49562   6.091   9.101   0.652 -0.2424 -0.0568  0.4015
  376MOL0     C49563   6.036   8.984   0.720 -0.1236  0.3480 -0.8479
  376MOL0     C49564   6.011   8.883   0.780 -0.2975 -0.1155 -0.6799
  376MOL0     C49565   6.583   9.019   0.956  0.1317 -0.0712  0.8799
  376MOL0     C49566   6.679   9.067   1.048 -0.1995 -0.6747  0.1228
  376MOL0     H49567   7.130   9.012   1.185 -0.3864  0.5457  1.7985
  376MOL0     H49568   7.344   9.044   1.339 -0.1604  0.7511  1.7442
  376MOL0     H49569   7.600   9.150   1.414  3.6084  3.5197  0.4083
  376MOL0     H49570   7.453   9.162   1.518  0.8616  0.7648 -0.1572
  376MOL0     H49571   7.591   9.298   1.663  3.5281  2.7260  1.5139
  376MOL0     H49572   7.551   9.419   1.550  0.3958 -0.7592 -0.6144
  376MOL0     H49573   7.741   9.337   1.406 -1.7981 -0.4477 -0.9214
  376MOL0     H49574   7.793   9.241   1.540  0.2372  0.2617 -0.4475
  376MOL0     H49575   7.772   9.537   1.540 -1.2460  0.1302  0.2673
  376MOL0     H49576   7.781   9.445   1.695  0.1001  1.7779 -0.2582
  376MOL0     H49577   7.974   9.437   1.458 -2.0296  0.4344 -1.2474
  376MOL0     H49578   8.003   9.363   1.618  0.7568  2.1057  1.1977
  376MOL0     H49579   8.003   9.591   1.731  1.0705  0.6170  0.2894
  376MOL0     H49580   7.974   9.650   1.559 -1.7944 -1.6950 -1.2285
  376MOL0     H49581   8.229   9.499   1.623 -0.2700  0.5970 -0.5496
  376MOL0     H49582   8.189   9.596   1.488  3.4241  0.7816  0.3631
  376MOL0     H49583   8.195   9.735   1.761 -1.2532 -0.3223 -0.7147
  376MOL0     H49584   8.168   9.793   1.603 -1.5649 -1.8040  0.3982
  376MOL0     H49585   8.465   9.635   1.822  1.7068  1.6752  0.8088
  376MOL0     H49586   8.756   9.823   1.631  2.5192 -1.1686  0.4459
  376MOL0     H49587   8.764   9.648   1.608 -0.0827  0.7791 -0.2416
  376MOL0     H49588   8.719   9.624   1.856 -2.1537 -0.6941 -1.0098
  376MOL0     H49589   8.687   9.796   1.879 -0.3740  0.6032 -0.2319
  376MOL0     H49590   8.911   9.714   1.966 -1.7322 -0.2916  0.5369
  376MOL0     H49591   8.964   9.669   1.804  0.2906  0.6702 -2.0922
  376MOL0     H49592   8.890   9.962   1.894 -2.3804  1.2256 -3.9277
  376MOL0     H49593   8.933   9.904   1.733 -2.6078  1.4576  0.5637
  376MOL0     H49594   9.290  10.062   1.835  0.3022 -0.5244 -0.2886
  376MOL0     H49595   9.342  10.240   1.973  0.9870 -3.4232 -1.7360
  376MOL0     H49596   9.438  10.386   2.418 -1.5444  0.8768 -2.5102
  376MOL0     H49597   9.487  10.565   2.606  0.3313 -1.3180  1.5600
  376MOL0     H49598   9.113  10.704   2.832  1.1985 -0.0309  1.9636
  376MOL0     H49599   9.184  10.828   2.721 -0.8801  0.9958  0.7775
  376MOL0     H49600   9.362  10.850   2.899 -0.7900 -0.9018 -3.5902
  376MOL0     H49601   9.274  10.743   3.003  2.4551  0.4075 -1.2214
  376MOL0     H49602   9.069  10.887   2.994  1.2185 -3.3160  2.1063
  376MOL0     H49603   9.185  11.012   2.924  1.5291 -2.1900 -1.4495
  376MOL0     H49604   9.182  10.883   3.184 -1.5318  1.6192  0.8190
  376MOL0     H49605   9.319  10.983   3.126 -0.1096 -2.9409  1.0881
  376MOL0     H49606   9.031  11.077   3.165  0.8923 -2.2653  1.2331
  376MOL0     H49607   9.171  11.175   3.104 -0.6855  2.1832  1.8447
  376MOL0     H49608   9.272  11.107   3.334  0.6083 -1.0384 -4.2985
  376MOL0     H49609   9.117  11.043   3.381  1.2495 -1.4061 -1.4420
  376MOL0     H49610   9.160  11.340   3.284 -0.6082  2.1755  2.1637
  376MOL0     H49611   9.010  11.269   3.327 -0.4248 -0.7904  1.2549
  376MOL0     H49612   9.058  11.207   3.550 -2.1058 -1.5254 -3.8791
  376MOL0     H49613   9.097  11.379   3.514 -1.2907 -0.8858 -0.3301
  376MOL0     H49614   9.070  10.588   2.679  1.0903 -0.0666 -0.3625
  376MOL0     H49615   9.029  10.422   2.480  2.1939 -2.2909 -0.5127
  376MOL0     H49616   9.058  10.120   2.277  1.3229  2.6162 -0.4958
  376MOL0     H49617   8.988   9.921   2.108  0.8035 -1.8065 -2.1052
  376MOL0     H49618   7.361   9.449   1.215 -3.3859  2.0230  0.5581
  376MOL0     H49619   7.171   9.422   1.072  1.5527 -0.0140  1.1144
  376MOL0     H49620   6.867   9.247   0.823 -0.9400  1.4138  1.2031
  376MOL0     H49621   6.711   9.155   0.670 -1.2706  1.8149  0.0260
  376MOL0     H49622   6.352   9.014   0.612 -0.5437 -5.0669  3.6625
  376MOL0     H49623   6.440   9.163   0.631 -0.8390  0.4546 -0.0515
  376MOL0     H49624   6.275   9.000   0.835  1.0013 -2.9019 -5.3569
  376MOL0     H49625   6.359   9.157   0.868 -1.2194  1.5208 -0.1965
  376MOL0     H49626   6.216   9.264   0.694 -1.4689 -0.1246  0.2593
  376MOL0     H49627   6.127   9.212   0.836 -1.8245  0.4796 -0.5308
  376MOL0     H49628   6.013   9.169   0.619  1.9175  2.4100  0.0059
  376MOL0     H49629   6.157   9.074   0.569  1.4428  0.6466  1.4337
  376MOL0     H49630   5.982   8.796   0.835  1.8446 -1.5471 -1.6937
  376MOL0     H49631   6.508   8.946   0.988  1.2023 -1.1563  0.9705
  376MOL0     H49632   6.675   9.036   1.152 -0.6609  0.9202  0.6093
  377MOL0     O49633   2.762   4.462   7.160 -0.2464 -0.6150  1.4153
  377MOL0     C49634   2.640   4.480   7.156 -0.4285 -0.6130 -0.5379
  377MOL0     O49635   2.572   4.576   7.088  0.1763 -0.2800 -0.4995
  377MOL0     C49636   2.632   4.644   6.989  0.4704 -0.0312  0.9082
  377MOL0     C49637   2.757   4.638   6.927 -0.8366  0.5012  0.1385
  377MOL0     C49638   2.795   4.712   6.807 -0.0691  0.0312 -0.4080
  377MOL0     C49639   2.711   4.806   6.749 -0.0122  0.1384  0.3451
  377MOL0     O49640   2.738   4.881   6.636 -0.5030  0.0474  0.3824
  377MOL0     C49641   2.870   4.937   6.604 -0.5738 -0.6913  0.4013
  377MOL0     C49642   2.855   5.096   6.579  0.6512  0.5955 -0.4609
  377MOL0     C49643   2.785   5.161   6.701  0.7798 -0.5827 -0.3706
  377MOL0     C49644   2.749   5.308   6.659  0.1095 -0.3975  0.3142
  377MOL0     C49645   2.690   5.388   6.776  0.4738 -0.4324 -0.2790
  377MOL0     C49646   2.568   5.311   6.844 -0.3357 -0.4017 -0.6212
  377MOL0     C49647   2.494   5.394   6.949 -0.4083 -0.1901 -0.1036
  377MOL0     C49648   2.370   5.331   7.013  0.8986 -0.5431  0.0110
  377MOL0     N49649   2.369   5.298   7.158  0.4734 -0.5143  0.0944
  377MOL0     C49650   2.338   5.178   7.211 -0.6007 -0.5080 -0.4084
  377MOL0     C49651   2.331   5.216   7.339 -0.1837  0.7792 -0.1901
  377MOL0     C49652   2.280   5.121   7.446  0.2576 -0.0635  0.7994
  377MOL0     C49653   2.370   5.110   7.570 -1.2204  0.4838  0.4421
  377MOL0     C49654   2.304   5.046   7.689 -0.7548 -0.8378  0.2648
  377MOL0     C49655   2.212   5.136   7.768 -1.3928 -0.5513  1.4371
  377MOL0     O49656   2.086   5.165   7.692  1.0248 -0.0633 -0.1328
  377MOL0     C49657   1.977   5.087   7.730 -0.2088 -0.6261  0.0469
  377MOL0     C49658   1.882   5.132   7.815 -0.6355 -0.4610 -0.5906
  377MOL0     C49659   1.774   5.060   7.848  0.8901  0.3218 -0.4043
  377MOL0     C49660   1.749   4.935   7.780  0.4852  1.4476  0.0857
  377MOL0     C49661   1.630   4.865   7.824 -0.9735  0.0739  1.0456
  377MOL0     O49662   1.541   4.937   7.902 -0.3823  0.2665 -0.7740
  377MOL0     C49663   1.421   4.883   7.957  0.0617  0.7170  0.1379
  377MOL0     C49664   1.316   4.970   7.951 -0.0658 -0.5747  0.7127
  377MOL0     C49665   1.190   4.939   7.992 -0.9945 -0.2057 -0.2650
  377MOL0     C49666   1.164   4.799   8.040 -0.1096 -0.8009 -0.6817
  377MOL0     O49667   1.040   4.745   8.079  1.0200  0.7002  0.3797
  377MOL0     C49668   0.930   4.835   8.080 -0.7010  0.6308  0.6617
  377MOL0     C49669   0.806   4.761   8.127  1.0777 -0.2994 -0.8252
  377MOL0     C49670   0.669   4.830   8.108 -0.5977 -0.4517  1.0436
  377MOL0     C49671   0.560   4.720   8.141  0.2021 -0.7279 -0.3217
  377MOL0     C49672   0.425   4.750   8.131 -0.3642  0.3914 -0.0989
  377MOL0     C49673   0.393   4.872   8.218 -0.0073  0.3139  0.4957
  377MOL0     C49674   0.240   4.874   8.239 -0.3967  0.3615  0.0794
  377MOL0     C49675   0.161   4.872   8.104 -0.0741  0.6227  0.2674
  377MOL0    Cl49676  -0.001   4.808   8.143 -0.0180  0.0508  0.3467
  377MOL0     C49677   1.274   4.710   8.051 -0.2342  0.0213 -0.3919
  377MOL0     C49678   1.401   4.752   8.012  0.6849 -0.2657  0.4040
  377MOL0     O49679   1.616   4.746   7.788  0.7376  0.3813  0.6255
  377MOL0     C49680   1.837   4.890   7.692 -0.3648 -0.0437 -0.4820
  377MOL0     C49681   1.958   4.959   7.677 -0.8338 -0.8339  0.6495
  377MOL0     N49682   2.368   5.349   7.361  0.1377  0.3288 -0.2104
  377MOL0     N49683   2.394   5.398   7.248  0.2620  0.3251 -0.8072
  377MOL0     C49684   2.595   4.827   6.820  0.2570  0.0932 -0.7199
  377MOL0     C49685   2.551   4.751   6.925  0.1291  0.3261  0.3607
  377MOL0     C49686   2.550   4.396   7.251  0.4067 -0.6082  0.0334
  377MOL0     C49687   2.594   4.308   7.349 -0.6552  0.9140 -0.3448
  377MOL0     C49688   2.510   4.243   7.432  0.3897  0.7033  0.8540
  377MOL0     C49689   2.374   4.265   7.421 -0.0118 -1.1002 -0.3208
  377MOL0     O49690   2.290   4.197   7.496  1.2045 -0.3529 -0.6890
  377MOL0     C49691   2.246   4.269   7.610  0.5041  0.1524 -0.4946
  377MOL0     C49692   2.101   4.258   7.633  0.3452 -0.0018 -0.0267
  377MOL0     C49693   2.057   4.113   7.651  0.1403 -0.3437 -0.0331
  377MOL0     C49694   1.897   4.128   7.670 -0.8073 -0.1845 -0.2696
  377MOL0     C49695   1.843   3.993   7.681  0.8491 -0.1670 -1.3124
  377MOL0     C49696   1.779   3.891   7.698 -0.7136 -0.1002  0.0598
  377MOL0     C49697   2.321   4.366   7.331  0.7331  0.2096 -0.2673
  377MOL0     C49698   2.418   4.421   7.245  0.8916 -0.0306  0.1884
  377MOL0     H49699   2.826   4.566   6.970 -2.5892 -2.0678 -1.0713
  377MOL0     H49700   2.892   4.693   6.760  0.3737  3.2338 -1.0466
  377MOL0     H49701   2.903   4.882   6.516 -1.2425  0.2250 -0.4381
  377MOL0     H49702   2.933   4.925   6.693 -0.6106  2.5446  1.0052
  377MOL0     H49703   2.795   5.125   6.492 -0.4048  1.3410  0.4796
  377MOL0     H49704   2.951   5.147   6.569 -0.5140  3.0819  0.2164
  377MOL0     H49705   2.859   5.163   6.781  1.0055  1.4609 -0.5805
  377MOL0     H49706   2.691   5.116   6.733 -0.8677  4.0108  2.2688
  377MOL0     H49707   2.839   5.366   6.638 -0.2996  2.3415  4.8353
  377MOL0     H49708   2.678   5.310   6.575 -0.8622  3.3050  1.0160
  377MOL0     H49709   2.657   5.488   6.747 -2.1901 -0.4977  2.1003
  377MOL0     H49710   2.769   5.401   6.851  0.1259  2.3540 -0.3028
  377MOL0     H49711   2.612   5.219   6.884  1.1676  1.4574  2.4110
  377MOL0     H49712   2.490   5.293   6.770  0.6039  0.7619 -1.9666
  377MOL0     H49713   2.562   5.434   7.025  3.7701 -0.5923 -3.2309
  377MOL0     H49714   2.451   5.481   6.898 -1.7198 -1.1645 -0.7110
  377MOL0     H49715   2.347   5.236   6.964  1.7796 -1.1217  0.6845
  377MOL0     H49716   2.289   5.402   6.995 -0.2768 -1.8362  0.1078
  377MOL0     H49717   2.308   5.081   7.172 -0.1865 -2.1318  2.9894
  377MOL0     H49718   2.247   5.022   7.411  3.3049 -0.9316  0.0085
  377MOL0     H49719   2.186   5.165   7.479 -2.8988 -2.0220 -4.3362
  377MOL0     H49720   2.416   5.206   7.597 -0.8575  0.7009 -0.8798
  377MOL0     H49721   2.457   5.047   7.545 -0.5893  0.8480  1.6615
  377MOL0     H49722   2.260   4.961   7.637  1.8454 -1.1339 -1.6496
  377MOL0     H49723   2.380   5.005   7.756  0.6741  0.0870 -0.7054
  377MOL0     H49724   2.254   5.235   7.789 -4.1470  1.1859 -0.5772
  377MOL0     H49725   2.197   5.094   7.868  0.5330 -0.8912  1.6258
  377MOL0     H49726   1.891   5.227   7.867  1.2958 -0.8388 -0.1368
  377MOL0     H49727   1.708   5.111   7.917 -0.9996  0.6182 -2.3259
  377MOL0     H49728   1.339   5.071   7.918 -0.0585  0.4857  3.6092
  377MOL0     H49729   1.102   5.002   7.985 -1.1389 -0.4872 -1.0885
  377MOL0     H49730   0.909   4.863   7.976 -2.2718 -2.0321  0.1899
  377MOL0     H49731   0.950   4.922   8.144  1.4851 -0.1145  1.0750
  377MOL0     H49732   0.822   4.737   8.232  1.0038 -1.1898 -1.0060
  377MOL0     H49733   0.800   4.660   8.084 -1.6070  1.6631 -6.0084
  377MOL0     H49734   0.652   4.874   8.010  0.2189  0.3440  1.2437
  377MOL0     H49735   0.682   4.919   8.171  1.3232  0.4672 -0.5335
  377MOL0     H49736   0.562   4.641   8.066  1.1918  0.7282 -1.8862
  377MOL0     H49737   0.578   4.684   8.243  1.3519 -0.1617 -0.3103
  377MOL0     H49738   0.368   4.661   8.157  0.7953 -0.1995  0.4596
  377MOL0     H49739   0.403   4.767   8.025  0.6641  0.2671 -0.3412
  377MOL0     H49740   0.434   4.957   8.163 -1.6703 -0.7572 -2.6258
  377MOL0     H49741   0.439   4.857   8.317 -2.5116 -2.7118  1.3381
  377MOL0     H49742   0.211   4.790   8.303 -0.3871  0.6011  0.3972
  377MOL0     H49743   0.205   4.958   8.300 -5.6817 -1.1385 -0.3198
  377MOL0     H49744   0.212   4.808   8.032  0.6888  1.0050  0.4566
  377MOL0     H49745   0.160   4.975   8.066  1.8014  0.4555 -0.2909
  377MOL0     H49746   1.261   4.609   8.091  2.5394  0.0823  0.9750
  377MOL0     H49747   1.474   4.672   8.021 -0.3339 -1.7511 -2.9952
  377MOL0     H49748   1.832   4.788   7.656  2.6806 -0.8267  0.9195
  377MOL0     H49749   2.031   4.928   7.603 -0.8315  4.1496 -1.8524
  377MOL0     H49750   2.528   4.905   6.785  2.6516  2.1274 -1.0397
  377MOL0     H49751   2.454   4.780   6.964  0.3602  0.3834  0.8937
  377MOL0     H49752   2.701   4.291   7.357 -0.6693  0.4352 -1.0325
  377MOL0     H49753   2.546   4.179   7.511 -3.5174 -2.7325  0.2088
  377MOL0     H49754   2.281   4.373   7.599 -0.0141  0.0315 -5.0366
  377MOL0     H49755   2.293   4.243   7.706  0.4026 -1.8299 -0.9585
  377MOL0     H49756   2.066   4.314   7.719 -1.9046  1.6109 -1.8576
  377MOL0     H49757   2.054   4.294   7.540  0.9313  0.4368 -0.1633
  377MOL0     H49758   2.107   4.074   7.739  0.0452 -1.0346 -0.2801
  377MOL0     H49759   2.092   4.060   7.562 -0.0084  0.8044 -0.8014
  377MOL0     H49760   1.869   4.191   7.755 -0.8295 -0.2129 -0.2557
  377MOL0     H49761   1.850   4.170   7.581 -1.3945 -0.8898 -0.3090
  377MOL0     H49762   1.722   3.801   7.693  0.7830 -1.0695 -0.2830
  377MOL0     H49763   2.216   4.394   7.334  0.7411  0.2184 -0.0737
  377MOL0     H49764   2.378   4.499   7.181 -1.3781 -0.8601  0.5050
  378MOL0     O49765   3.113   3.495   5.481 -0.4738  0.1461  0.0906
  378MOL0     C49766   3.092   3.581   5.567 -0.1180 -0.0335 -0.2872
  378MOL0     O49767   3.194   3.668   5.618 -0.0699 -0.4948 -0.7202
  378MOL0     C49768   3.250   3.749   5.524 -0.0766  0.0247  0.7906
  378MOL0     C49769   3.174   3.808   5.420  0.7867  0.2757 -0.8134
  378MOL0     C49770   3.234   3.890   5.324  0.4417  0.6476 -0.3075
  378MOL0     C49771   3.375   3.908   5.323  0.0689  0.4054  0.1509
  378MOL0     O49772   3.419   3.989   5.220 -0.1874  0.7942 -0.6805
  378MOL0     C49773   3.558   4.021   5.199  0.3121  0.4636 -1.2486
  378MOL0     C49774   3.578   4.139   5.100  0.2895  0.4284  0.4716
  378MOL0     C49775   3.536   4.112   4.957  0.4672  0.5920  0.4727
  378MOL0     C49776   3.551   4.240   4.867 -0.0777  1.1570  0.1425
  378MOL0     C49777   3.521   4.213   4.719 -0.7817  0.2281  0.3924
  378MOL0     C49778   3.372   4.206   4.703 -0.4424 -0.8661  0.7067
  378MOL0     C49779   3.345   4.164   4.556  0.2723 -0.2075 -0.4215
  378MOL0     C49780   3.321   4.008   4.542  0.3217  0.2522 -0.1040
  378MOL0     N49781   3.446   3.922   4.545 -0.2395  0.6523 -0.7014
  378MOL0     C49782   3.460   3.826   4.646  0.3252 -0.7699 -0.0992
  378MOL0     C49783   3.578   3.765   4.616  1.2547  0.0884  0.3850
  378MOL0     C49784   3.630   3.638   4.678  0.7089 -0.5999 -0.9175
  378MOL0     C49785   3.609   3.508   4.605 -0.8939  0.4878  1.0926
  378MOL0     C49786   3.465   3.465   4.601  0.3418 -0.5862 -0.1419
  378MOL0     C49787   3.418   3.417   4.732 -0.0194 -0.0740 -1.0053
  378MOL0     O49788   3.387   3.276   4.734 -0.2598 -0.5443 -0.6516
  378MOL0     C49789   3.255   3.244   4.713 -0.3532  0.8574  0.6104
  378MOL0     C49790   3.157   3.335   4.662 -0.1242 -0.9788 -0.5307
  378MOL0     C49791   3.023   3.296   4.645 -0.9128  1.6031  0.0030
  378MOL0     C49792   2.980   3.170   4.685  0.2933  1.6808  0.1856
  378MOL0     C49793   2.833   3.135   4.671 -0.7233  0.4311  0.0998
  378MOL0     O49794   2.751   3.225   4.624 -0.0369 -0.9662 -0.5140
  378MOL0     C49795   2.618   3.207   4.657 -0.4214  0.9975  0.8378
  378MOL0     C49796   2.571   3.161   4.781  0.1193  0.1605  0.5216
  378MOL0     C49797   2.427   3.154   4.807  0.1500 -0.4265  0.0573
  378MOL0     C49798   2.335   3.200   4.714 -0.3578 -0.7583 -0.8167
  378MOL0     O49799   2.206   3.203   4.748  1.0500  1.1041  0.2614
  378MOL0     C49800   2.106   3.244   4.653  1.0593 -1.5748 -1.0692
  378MOL0     C49801   1.963   3.231   4.723 -0.1192 -0.6024 -0.0886
  378MOL0     C49802   1.846   3.232   4.625 -0.1231 -0.0548 -0.9052
  378MOL0     C49803   1.816   3.101   4.555 -0.7899 -0.4055  0.2691
  378MOL0     C49804   1.737   3.123   4.426  0.6954 -0.6008  0.0407
  378MOL0     C49805   1.586   3.164   4.440 -0.8049 -0.4522 -0.1855
  378MOL0     C49806   1.524   3.179   4.297 -0.0244  0.4520 -0.2044
  378MOL0     C49807   1.394   3.260   4.289  0.2011  1.4116 -0.3346
  378MOL0    Cl49808   1.280   3.190   4.414 -0.1173 -0.3617  0.2922
  378MOL0     C49809   2.379   3.236   4.588  0.8585 -0.7423  0.0531
  378MOL0     C49810   2.519   3.234   4.556 -0.7488 -0.0844  0.0772
  378MOL0     O49811   2.807   3.020   4.703  0.3221 -0.5026  0.3553
  378MOL0     C49812   3.081   3.080   4.723  0.1225  0.1243  0.2686
  378MOL0     C49813   3.216   3.114   4.732  0.2005  1.5885  0.2676
  378MOL0     N49814   3.632   3.834   4.505 -0.2203 -0.0259  0.1289
  378MOL0     N49815   3.555   3.924   4.466 -0.0123 -0.9957 -0.4954
  378MOL0     C49816   3.445   3.850   5.426 -0.1492 -0.6325 -0.4136
  378MOL0     C49817   3.382   3.778   5.531 -0.0609  0.6834  0.2868
  378MOL0     C49818   2.957   3.587   5.631  0.3799  0.0204  0.3866
  378MOL0     C49819   2.862   3.486   5.603 -0.0150 -0.3159  0.1357
  378MOL0     C49820   2.741   3.493   5.661  0.8362 -0.1921 -0.0638
  378MOL0     C49821   2.691   3.603   5.744 -0.5621 -0.2175  0.5557
  378MOL0     O49822   2.571   3.592   5.796 -0.3335 -0.3008 -0.1199
  378MOL0     C49823   2.501   3.704   5.865  0.5995 -0.0946 -0.2485
  378MOL0     C49824   2.443   3.813   5.778 -0.2096  0.6007  0.7847
  378MOL0     C49825   2.324   3.879   5.863 -0.6753 -0.3230 -0.0897
  378MOL0     C49826   2.280   4.013   5.802 -0.6030  1.0078 -0.7164
  378MOL0     C49827   2.402   4.094   5.798  0.1583  0.3522 -1.3274
  378MOL0     C49828   2.507   4.166   5.815 -0.1343  0.4957 -0.1008
  378MOL0     C49829   2.787   3.707   5.759  0.1056 -0.0034 -0.6806
  378MOL0     C49830   2.906   3.703   5.692  0.8687 -0.7907  0.4345
  378MOL0     H49831   3.065   3.806   5.426  0.8773 -0.2963  2.0983
  378MOL0     H49832   3.160   3.938   5.260  1.6322 -0.6566 -2.7968
  378MOL0     H49833   3.606   3.931   5.158  2.2844  1.4919 -1.3230
  378MOL0     H49834   3.605   4.046   5.294 -2.7089 -1.4098  0.9181
  378MOL0     H49835   3.684   4.166   5.099  0.3314  0.3361  1.6492
  378MOL0     H49836   3.515   4.220   5.138  1.8567  1.8504  0.1885
  378MOL0     H49837   3.435   4.070   4.953  0.2052  1.0367  1.8286
  378MOL0     H49838   3.602   4.036   4.916 -3.2144 -0.4945 -4.4048
  378MOL0     H49839   3.484   4.317   4.907 -2.7634 -0.1967 -1.4544
  378MOL0     H49840   3.653   4.277   4.877 -0.4655  2.6992 -1.1563
  378MOL0     H49841   3.569   4.121   4.686  1.3825  1.4407 -0.0301
  378MOL0     H49842   3.564   4.295   4.660  1.0606  0.8314  2.4346
  378MOL0     H49843   3.326   4.304   4.721 -1.4205 -0.8314 -1.6141
  378MOL0     H49844   3.326   4.133   4.770  0.2834 -0.5350  1.5791
  378MOL0     H49845   3.255   4.212   4.516 -1.3826  0.2567  3.4349
  378MOL0     H49846   3.438   4.185   4.502  1.9708 -2.9608  1.2278
  378MOL0     H49847   3.292   3.980   4.440  1.4577 -1.6203  0.0546
  378MOL0     H49848   3.238   3.968   4.602  0.0175 -0.5850 -1.0474
  378MOL0     H49849   3.386   3.806   4.723  0.3300  0.7452  0.3352
  378MOL0     H49850   3.591   3.629   4.780  0.4377  2.6037 -0.6455
  378MOL0     H49851   3.738   3.648   4.687  0.3829  1.8586  1.6334
  378MOL0     H49852   3.673   3.426   4.639  2.4307  2.2769 -0.4720
  378MOL0     H49853   3.646   3.529   4.504  1.1844  2.5693  2.2131
  378MOL0     H49854   3.403   3.548   4.568 -0.4247 -1.6793 -1.5214
  378MOL0     H49855   3.440   3.386   4.529  0.0909 -1.9348  1.3650
  378MOL0     H49856   3.336   3.480   4.769 -1.4484 -0.3959 -3.4432
  378MOL0     H49857   3.505   3.423   4.798 -1.3892 -1.4590  1.0577
  378MOL0     H49858   3.181   3.436   4.632 -1.8922  0.4438  2.3263
  378MOL0     H49859   2.955   3.367   4.600  0.5558  3.4091  0.5041
  378MOL0     H49860   2.648   3.127   4.850  3.5570  2.9493 -1.6004
  378MOL0     H49861   2.395   3.140   4.910 -0.9539  1.0234 -0.0523
  378MOL0     H49862   2.107   3.196   4.555  2.9837 -3.0461 -0.3913
  378MOL0     H49863   2.125   3.351   4.640  1.7323 -1.6304 -0.5643
  378MOL0     H49864   1.952   3.308   4.799 -2.9146  0.8053 -1.7516
  378MOL0     H49865   1.955   3.130   4.765 -0.7054 -0.5316 -0.0240
  378MOL0     H49866   1.871   3.314   4.557  2.3580 -1.1683 -1.4693
  378MOL0     H49867   1.755   3.255   4.682  1.4833 -0.1430  1.8877
  378MOL0     H49868   1.913   3.063   4.521 -0.0417 -1.7721  3.5709
  378MOL0     H49869   1.775   3.028   4.625 -1.0877 -0.8844 -0.3891
  378MOL0     H49870   1.745   3.023   4.384  0.7046  0.6141 -3.0864
  378MOL0     H49871   1.785   3.192   4.356 -2.2727  1.3747 -0.2289
  378MOL0     H49872   1.581   3.263   4.487 -1.4329 -1.3190  1.6698
  378MOL0     H49873   1.551   3.087   4.510  2.8039  0.4759  3.0490
  378MOL0     H49874   1.591   3.238   4.233  0.3869  1.4447  1.1026
  378MOL0     H49875   1.521   3.080   4.250  0.0007 -0.0323  0.7885
  378MOL0     H49876   1.341   3.247   4.194 -1.7468 -0.3172  0.9049
  378MOL0     H49877   1.429   3.364   4.292  2.2047  0.9582 -3.2244
  378MOL0     H49878   2.303   3.271   4.519  0.5930  0.2466  0.8351
  378MOL0     H49879   2.563   3.268   4.462  1.4689  0.7626  1.3351
  378MOL0     H49880   3.056   2.977   4.746  0.0880  0.3636  1.3437
  378MOL0     H49881   3.298   3.048   4.757 -0.7346  0.6215  0.8810
  378MOL0     H49882   3.553   3.866   5.425 -0.0024 -1.1284  1.8852
  378MOL0     H49883   3.428   3.735   5.619 -1.2355  1.4617  1.3210
  378MOL0     H49884   2.889   3.399   5.543  0.2117  1.4602 -2.4995
  378MOL0     H49885   2.676   3.407   5.661  1.0875 -0.4352 -2.1416
  378MOL0     H49886   2.573   3.746   5.935  3.5200 -3.3878 -0.9423
  378MOL0     H49887   2.415   3.660   5.917 -1.1885 -0.1266 -2.9922
  378MOL0     H49888   2.522   3.879   5.743  0.9472  0.1533  2.4307
  378MOL0     H49889   2.399   3.772   5.687 -0.7143  1.6805  0.5303
  378MOL0     H49890   2.364   3.899   5.963  0.3139 -3.1781  0.1580
  378MOL0     H49891   2.237   3.818   5.888 -1.7909  1.7790  1.4870
  378MOL0     H49892   2.231   4.002   5.705 -1.3562  3.0431 -0.6195
  378MOL0     H49893   2.208   4.059   5.870 -1.4177 -2.2044  0.7328
  378MOL0     H49894   2.587   4.235   5.832  0.2402 -0.5599  3.0051
  378MOL0     H49895   2.775   3.794   5.823  1.5313 -0.9585  0.9358
  378MOL0     H49896   2.977   3.781   5.716 -0.0967 -0.7027  3.4242
  379MOL0     O49897   6.712   8.257   1.710 -0.2630  0.2835 -0.9405
  379MOL0     C49898   6.784   8.333   1.648 -0.2446  1.0898 -1.1716
  379MOL0     O49899   6.759   8.385   1.524 -0.7099 -0.0419 -0.4484
  379MOL0     C49900   6.644   8.360   1.460  0.0917  0.1579  0.4164
  379MOL0     C49901   6.656   8.299   1.331 -0.7819  0.1801 -0.1297
  379MOL0     C49902   6.540   8.260   1.254  0.9293 -0.4802  0.7288
  379MOL0     C49903   6.409   8.286   1.315 -0.1983 -0.3647 -0.3316
  379MOL0     O49904   6.296   8.252   1.244  0.4818 -0.3337  0.6857
  379MOL0     C49905   6.180   8.191   1.306 -0.1198  0.0750 -0.5907
  379MOL0     C49906   6.205   8.058   1.380  0.1384  0.4939  0.1841
  379MOL0     C49907   6.272   7.963   1.281 -0.8767  0.2423  0.2813
  379MOL0     C49908   6.347   7.850   1.359 -0.4546  0.6005 -0.3120
  379MOL0     C49909   6.401   7.732   1.265 -0.0038  0.3175  0.4385
  379MOL0     C49910   6.393   7.591   1.311 -0.8026 -0.1588 -0.2344
  379MOL0     C49911   6.457   7.575   1.446  0.0416  0.2445 -0.3431
  379MOL0     C49912   6.380   7.486   1.549 -0.9008  0.1221 -0.4034
  379MOL0     N49913   6.248   7.534   1.558 -0.5693 -0.3563  0.2667
  379MOL0     C49914   6.211   7.640   1.637  0.0077 -0.8290  1.1113
  379MOL0     C49915   6.080   7.652   1.628 -0.3000 -0.3769  0.0682
  379MOL0     C49916   6.004   7.762   1.695 -0.5579 -0.3116  0.4876
  379MOL0     C49917   5.918   7.856   1.607  0.2310  0.7588  0.0716
  379MOL0     C49918   5.830   7.946   1.691 -0.2885  0.1994  0.8352
  379MOL0     C49919   5.712   8.016   1.611 -0.5500 -0.5110  0.3773
  379MOL0     O49920   5.774   8.091   1.501  0.2474  0.8052 -0.2099
  379MOL0     C49921   5.690   8.184   1.448  0.0951 -0.0269 -0.5380
  379MOL0     C49922   5.557   8.215   1.480  0.3074  0.2505 -0.1203
  379MOL0     C49923   5.483   8.316   1.423 -0.1315 -0.3524  0.7305
  379MOL0     C49924   5.536   8.396   1.314  0.2964  0.1065  0.4936
  379MOL0     C49925   5.465   8.518   1.261 -0.4734 -0.2991 -0.3113
  379MOL0     O49926   5.338   8.542   1.294  0.2367 -0.7009  0.7422
  379MOL0     C49927   5.284   8.664   1.273  0.3812  0.5648  0.3091
  379MOL0     C49928   5.225   8.737   1.382 -0.0191  0.4684  0.2691
  379MOL0     C49929   5.167   8.863   1.368  0.8665  0.0348  0.0778
  379MOL0     C49930   5.167   8.924   1.242 -0.6800 -0.9821 -0.0203
  379MOL0     O49931   5.109   9.054   1.223  0.2483  0.4969 -0.4046
  379MOL0     C49932   5.051   9.128   1.328 -0.0800  0.6764  0.8262
  379MOL0     C49933   5.043   9.272   1.273  0.0425 -0.1133  0.5854
  379MOL0     C49934   5.000   9.359   1.393  0.3673 -0.3585  0.6975
  379MOL0     C49935   4.959   9.498   1.348 -0.3114 -0.3901  0.5425
  379MOL0     C49936   4.812   9.537   1.391 -0.3316  0.6586 -0.1333
  379MOL0     C49937   4.787   9.680   1.335  1.2421 -0.3587  0.1637
  379MOL0     C49938   4.644   9.733   1.365  0.8976  0.3743  0.5214
  379MOL0     C49939   4.614   9.775   1.505  0.7310  0.5799 -0.7584
  379MOL0    Cl49940   4.436   9.760   1.542  0.1103 -0.2909 -0.7896
  379MOL0     C49941   5.220   8.853   1.138 -0.3490 -0.1729 -0.0406
  379MOL0     C49942   5.271   8.722   1.151  0.9998  0.9631  0.2595
  379MOL0     O49943   5.526   8.578   1.173  0.2008  0.4722  0.3279
  379MOL0     C49944   5.669   8.367   1.281  0.7229  0.4614 -0.6100
  379MOL0     C49945   5.747   8.270   1.352 -0.6644 -1.0518 -0.1137
  379MOL0     N49946   6.025   7.550   1.553 -1.0343  0.4563  0.2975
  379MOL0     N49947   6.136   7.475   1.518  0.7988 -0.9128 -0.4153
  379MOL0     C49948   6.407   8.335   1.447 -0.0732 -0.3903 -0.2283
  379MOL0     C49949   6.520   8.385   1.506  0.1369 -0.0216 -1.4255
  379MOL0     C49950   6.900   8.382   1.728  0.3773  0.0192 -0.3388
  379MOL0     C49951   6.935   8.510   1.709 -0.1601  0.0911  0.6144
  379MOL0     C49952   7.045   8.563   1.780 -0.8995 -0.2298  0.2920
  379MOL0     C49953   7.110   8.487   1.872 -0.5372 -0.3836 -0.7544
  379MOL0     O49954   7.211   8.559   1.926 -0.0434  0.7599 -0.0015
  379MOL0     C49955   7.286   8.500   2.030  1.0238 -0.4684 -0.4776
  379MOL0     C49956   7.227   8.522   2.175  0.1760  0.3355  0.1019
  379MOL0     C49957   7.226   8.672   2.205  0.1697 -0.4035 -0.4699
  379MOL0     C49958   7.353   8.737   2.213 -1.2078 -1.3836  0.6267
  379MOL0     C49959   7.455   8.665   2.290 -0.3805  0.1588  1.0753
  379MOL0     C49960   7.541   8.604   2.343  0.3894  0.7875 -0.2213
  379MOL0     C49961   7.066   8.355   1.903  0.8703 -0.3965 -0.1160
  379MOL0     C49962   6.952   8.305   1.831 -0.4850 -0.6923 -0.5201
  379MOL0     H49963   6.753   8.291   1.281  0.2763  1.8257  1.5252
  379MOL0     H49964   6.543   8.222   1.152  0.5791  0.8627  0.1859
  379MOL0     H49965   6.126   8.171   1.213 -0.7774  0.5381 -0.3238
  379MOL0     H49966   6.123   8.264   1.364 -0.4984 -0.1458 -0.6812
  379MOL0     H49967   6.104   8.021   1.403  0.7260 -0.3905  1.4795
  379MOL0     H49968   6.268   8.076   1.467 -0.0433  0.9354  0.2278
  379MOL0     H49969   6.343   8.012   1.213 -1.4782  1.5350  0.5455
  379MOL0     H49970   6.200   7.928   1.207  0.2721  0.7292 -1.1092
  379MOL0     H49971   6.427   7.892   1.422 -0.8331  0.5091  0.2363
  379MOL0     H49972   6.272   7.814   1.430  1.1705 -1.7524  0.3239
  379MOL0     H49973   6.508   7.744   1.249  0.7683 -3.7718  1.3836
  379MOL0     H49974   6.351   7.745   1.168  0.1549 -0.5473  0.2273
  379MOL0     H49975   6.464   7.531   1.253  2.7889  1.4694  2.1536
  379MOL0     H49976   6.292   7.549   1.307 -0.6480 -0.5414 -3.9511
  379MOL0     H49977   6.549   7.517   1.445 -1.1174 -1.6632 -0.4868
  379MOL0     H49978   6.481   7.672   1.491 -0.3872  1.1410 -1.9683
  379MOL0     H49979   6.431   7.484   1.645 -1.6950  1.8979  0.0963
  379MOL0     H49980   6.372   7.378   1.528 -0.8685 -0.2011  1.1555
  379MOL0     H49981   6.275   7.720   1.674  0.1284 -0.6551  0.5313
  379MOL0     H49982   6.069   7.816   1.764 -1.9564  2.6939 -0.3650
  379MOL0     H49983   5.923   7.706   1.742 -1.5499 -0.1050 -0.9025
  379MOL0     H49984   5.860   7.784   1.550  0.3407 -0.9202  1.9499
  379MOL0     H49985   5.990   7.909   1.544  1.6302 -1.0680  0.0501
  379MOL0     H49986   5.799   7.891   1.781 -1.9889  0.6173  0.5512
  379MOL0     H49987   5.899   8.019   1.734  0.8419 -0.3014 -0.0812
  379MOL0     H49988   5.655   8.082   1.678  2.5287  0.3863  2.3586
  379MOL0     H49989   5.639   7.940   1.582 -0.8061 -0.7855  1.6465
  379MOL0     H49990   5.506   8.158   1.557 -1.1781  4.3119  2.2428
  379MOL0     H49991   5.378   8.311   1.454  0.4497 -0.4056  2.8733
  379MOL0     H49992   5.245   8.686   1.476 -0.4869 -3.4947 -1.5887
  379MOL0     H49993   5.138   8.917   1.458  1.7193 -2.2409  1.8165
  379MOL0     H49994   5.111   9.124   1.419 -0.9119 -5.8991  1.5355
  379MOL0     H49995   4.949   9.095   1.350 -0.0523  1.8170  2.8996
  379MOL0     H49996   4.969   9.273   1.193  1.7449  2.9084 -1.1094
  379MOL0     H49997   5.137   9.316   1.237  0.3036 -1.8150 -1.0225
  379MOL0     H49998   5.095   9.373   1.447  0.4365 -0.4378  0.5958
  379MOL0     H49999   4.927   9.299   1.449 -1.1919  0.2798 -0.5842
  379MOL0     H50000   5.016   9.560   1.418 -2.7395 -1.7981  4.0007
  379MOL0     H50001   4.986   9.522   1.244  1.6116 -2.4597  0.4925
  379MOL0     H50002   4.793   9.529   1.499 -1.0846  1.2144 -0.2132
  379MOL0     H50003   4.742   9.471   1.339  0.0620 -0.5650  0.8529
  379MOL0     H50004   4.804   9.675   1.227 -0.0336 -0.2450 -0.0619
  379MOL0     H50005   4.872   9.741   1.366  0.6384  1.5682 -1.7734
  379MOL0     H50006   4.612   9.817   1.303 -1.7704  1.7767  3.5054
  379MOL0     H50007   4.585   9.648   1.328  1.7621  1.0613 -2.8348
  379MOL0     H50008   4.637   9.882   1.516 -2.5452  1.2465  0.8162
  379MOL0     H50009   4.674   9.712   1.570  1.1220 -1.1181 -2.6884
  379MOL0     H50010   5.221   8.902   1.041 -1.5884 -1.2334 -0.6183
  379MOL0     H50011   5.304   8.661   1.068  2.7310  0.8062  1.0091
  379MOL0     H50012   5.714   8.420   1.198  0.0021  1.7972 -0.1620
  379MOL0     H50013   5.848   8.263   1.313  0.0492  4.4959 -0.1033
  379MOL0     H50014   6.310   8.351   1.492  0.4757  1.1699  0.5012
  379MOL0     H50015   6.505   8.449   1.592 -0.3524 -0.2413 -1.3472
  379MOL0     H50016   6.887   8.576   1.637  1.9030  3.4044  1.9821
  379MOL0     H50017   7.088   8.654   1.740 -1.5672 -1.2435 -2.9743
  379MOL0     H50018   7.382   8.553   2.023  2.0383 -2.1843 -0.2240
  379MOL0     H50019   7.298   8.393   2.007 -1.8584 -0.8159 -0.7159
  379MOL0     H50020   7.124   8.485   2.185  0.1954  0.6260  1.7375
  379MOL0     H50021   7.291   8.473   2.249 -0.4024 -0.6111 -0.0084
  379MOL0     H50022   7.172   8.687   2.298  2.7863  1.4451  0.8755
  379MOL0     H50023   7.168   8.722   2.127 -0.9529 -0.9604 -0.0208
  379MOL0     H50024   7.393   8.768   2.116 -2.8360  2.2549  0.9414
  379MOL0     H50025   7.340   8.833   2.264  0.8098  0.0806 -1.3946
  379MOL0     H50026   7.608   8.533   2.386  0.3076  0.6892 -0.2562
  379MOL0     H50027   7.117   8.310   1.987  0.5923  0.5935  0.6097
  379MOL0     H50028   6.913   8.205   1.847  0.4850 -0.9762  0.1647
  380MOL0     O50029   9.095   3.826   7.994  0.6477  0.1069 -0.1787
  380MOL0     C50030   9.085   3.948   7.980 -0.3875 -0.2536  0.0757
  380MOL0     O50031   8.974   4.025   7.972  0.4293  0.7642 -0.9154
  380MOL0     C50032   8.856   3.953   7.978  0.4452  0.5711  0.1867
  380MOL0     C50033   8.765   4.006   8.064  0.0309  0.7503 -0.2631
  380MOL0     C50034   8.631   3.958   8.074 -0.4594  0.2768  1.0175
  380MOL0     C50035   8.585   3.860   7.982  0.3499 -0.8223  0.6333
  380MOL0     O50036   8.450   3.828   7.983 -0.6288  0.5194 -0.0555
  380MOL0     C50037   8.392   3.769   7.865  0.2682 -0.4278  1.0754
  380MOL0     C50038   8.232   3.781   7.879 -0.2524  0.0857  0.5566
  380MOL0     C50039   8.186   3.682   7.982 -0.5256 -1.1009 -0.2576
  380MOL0     C50040   8.035   3.686   7.997  0.9320 -1.1179 -0.3389
  380MOL0     C50041   7.964   3.600   7.891 -0.3778  0.3373  0.7059
  380MOL0     C50042   7.826   3.655   7.852 -1.3520 -0.0253  0.5428
  380MOL0     C50043   7.731   3.644   7.974  0.3673  0.0613  0.5183
  380MOL0     C50044   7.592   3.695   7.950  0.3773  0.2351 -0.3232
  380MOL0     N50045   7.535   3.634   7.834 -0.0777  0.8568  0.9120
  380MOL0     C50046   7.486   3.509   7.812 -1.0246  0.1507 -1.0808
  380MOL0     C50047   7.436   3.515   7.687 -0.4076 -0.1591  0.2554
  380MOL0     C50048   7.371   3.397   7.610  0.0568 -0.9227 -0.5447
  380MOL0     C50049   7.220   3.423   7.577  0.3270  0.3804  0.5622
  380MOL0     C50050   7.187   3.555   7.499 -0.4975  0.1827  0.0564
  380MOL0     C50051   7.255   3.562   7.368  0.5291 -0.2327 -0.2867
  380MOL0     O50052   7.217   3.450   7.282 -0.9744  0.1648 -0.2623
  380MOL0     C50053   7.287   3.437   7.163  0.5287 -0.1297 -0.3938
  380MOL0     C50054   7.379   3.530   7.114 -0.1280 -0.0448  0.0134
  380MOL0     C50055   7.443   3.516   6.995  0.2680 -0.4629  0.7077
  380MOL0     C50056   7.405   3.414   6.909 -0.9852  0.6120 -0.3181
  380MOL0     C50057   7.459   3.407   6.774  0.7517 -0.3041 -0.7403
  380MOL0     O50058   7.567   3.488   6.746 -0.0958  0.1330 -0.1448
  380MOL0     C50059   7.615   3.491   6.611  0.2739 -0.6707  0.3512
  380MOL0     C50060   7.590   3.602   6.530 -0.8515  0.3460 -0.2812
  380MOL0     C50061   7.642   3.610   6.399  0.2189  1.2639 -0.0304
  380MOL0     C50062   7.737   3.509   6.353  0.5112  0.6294 -0.5092
  380MOL0     O50063   7.814   3.523   6.233  1.0015  1.0883 -0.4150
  380MOL0     C50064   7.849   3.654   6.199 -0.3655  0.4330 -0.4104
  380MOL0     C50065   7.900   3.647   6.057  0.3639 -0.0873  0.3152
  380MOL0     C50066   7.986   3.760   6.009  0.7801  0.9240 -0.3340
  380MOL0     C50067   8.023   3.723   5.861 -0.5414  0.4842 -0.3638
  380MOL0     C50068   8.068   3.850   5.787  0.6738  0.8824  0.0492
  380MOL0     C50069   8.069   3.824   5.635 -0.3096 -0.1876 -0.1591
  380MOL0     C50070   8.148   3.701   5.589 -0.7116 -0.3572 -0.1756
  380MOL0     C50071   8.160   3.709   5.444  0.5516  0.1861  0.5503
  380MOL0    Cl50072   8.298   3.602   5.386 -0.3039 -0.2495 -0.4592
  380MOL0     C50073   7.767   3.397   6.441  1.0738  0.3800 -0.8826
  380MOL0     C50074   7.708   3.396   6.573  0.1774  1.7123 -0.2041
  380MOL0     O50075   7.408   3.322   6.696  0.4842  0.0632 -0.2893
  380MOL0     C50076   7.308   3.320   6.955 -0.1149  1.0679 -0.0566
  380MOL0     C50077   7.261   3.327   7.087 -0.4591  0.2732 -0.8544
  380MOL0     N50078   7.459   3.636   7.633  1.1844 -0.6729  0.4339
  380MOL0     N50079   7.506   3.706   7.726 -0.1519 -0.0168  0.6514
  380MOL0     C50080   8.671   3.822   7.880 -0.5432 -0.5698 -0.2541
  380MOL0     C50081   8.811   3.853   7.882 -0.3538  0.3284  0.7137
  380MOL0     C50082   9.214   4.027   7.957 -0.0656  0.7382 -0.2083
  380MOL0     C50083   9.206   4.162   7.913 -0.2237 -0.3220 -0.1168
  380MOL0     C50084   9.330   4.232   7.888 -0.6841  0.4231 -0.1965
  380MOL0     C50085   9.450   4.162   7.899 -0.0153  0.0277  0.0019
  380MOL0     O50086   9.572   4.223   7.901  0.3603 -0.7676 -0.6053
  380MOL0     C50087   9.595   4.344   7.981  0.2352  0.3614  0.0841
  380MOL0     C50088   9.695   4.422   7.889  0.4121 -0.4422  0.3564
  380MOL0     C50089   9.613   4.530   7.816 -0.1999 -1.1498  0.2524
  380MOL0     C50090   9.612   4.659   7.892  0.3449 -0.5387  0.7220
  380MOL0     C50091   9.530   4.755   7.818 -0.0294 -0.2006  0.1751
  380MOL0     C50092   9.469   4.845   7.749 -0.7082  1.1504 -0.0317
  380MOL0     C50093   9.455   4.034   7.920  0.6803  0.5510  0.2342
  380MOL0     C50094   9.344   3.965   7.953 -0.1372  1.0228  0.6201
  380MOL0     H50095   8.788   4.089   8.130 -0.9242  1.1835 -0.4641
  380MOL0     H50096   8.563   3.994   8.150  0.3092  2.5471  0.7178
  380MOL0     H50097   8.423   3.664   7.859 -1.9549 -1.1887  1.9252
  380MOL0     H50098   8.429   3.829   7.781  0.7925  0.3727  1.8597
  380MOL0     H50099   8.184   3.768   7.782 -4.2293 -2.1079  2.5703
  380MOL0     H50100   8.202   3.883   7.907 -2.2000  0.3187 -2.0371
  380MOL0     H50101   8.233   3.698   8.080  1.6030 -6.1772 -0.1341
  380MOL0     H50102   8.223   3.581   7.964  1.0918 -0.5041 -0.5189
  380MOL0     H50103   8.021   3.650   8.099 -1.6003 -0.0329 -0.2323
  380MOL0     H50104   7.994   3.788   7.990 -1.2624 -1.8337  1.2568
  380MOL0     H50105   7.975   3.498   7.931 -1.3433 -1.5432 -3.2699
  380MOL0     H50106   8.029   3.624   7.807  0.2478  1.8996  1.5932
  380MOL0     H50107   7.791   3.602   7.762 -0.5031  0.7689 -0.2736
  380MOL0     H50108   7.835   3.760   7.821 -1.7309  0.6974  2.7271
  380MOL0     H50109   7.731   3.544   8.019  1.8867  0.2794  1.0567
  380MOL0     H50110   7.780   3.705   8.051  1.3905  1.5826 -1.2675
  380MOL0     H50111   7.595   3.803   7.933 -0.2677  0.1579 -0.9604
  380MOL0     H50112   7.525   3.669   8.032 -0.7621 -0.2694 -1.3884
  380MOL0     H50113   7.468   3.421   7.873 -2.7910  1.5194  0.4570
  380MOL0     H50114   7.374   3.297   7.656  2.9185 -1.8093 -2.3981
  380MOL0     H50115   7.430   3.378   7.520 -0.4684 -1.3255 -0.8173
  380MOL0     H50116   7.157   3.420   7.667 -0.7089  2.0482 -0.0750
  380MOL0     H50117   7.185   3.345   7.509  0.1624  1.8427 -1.0756
  380MOL0     H50118   7.081   3.576   7.484 -0.1078  2.4651  0.0551
  380MOL0     H50119   7.204   3.642   7.563 -1.9828  0.6272 -0.1155
  380MOL0     H50120   7.363   3.566   7.386  0.7753 -1.2071 -1.3798
  380MOL0     H50121   7.230   3.656   7.319 -4.0031 -1.8079 -1.5723
  380MOL0     H50122   7.394   3.619   7.175 -2.3678  0.3155  0.1353
  380MOL0     H50123   7.527   3.581   6.977  0.6727 -0.1460  3.3415
  380MOL0     H50124   7.522   3.681   6.557  1.7533  2.9046 -0.6790
  380MOL0     H50125   7.610   3.695   6.339  0.9752  1.5005 -0.1116
  380MOL0     H50126   7.933   3.673   6.266  2.2967 -0.8390 -3.1616
  380MOL0     H50127   7.777   3.732   6.222 -0.4721  0.3310 -0.3934
  380MOL0     H50128   7.813   3.637   5.992  1.4792 -0.3067 -1.1894
  380MOL0     H50129   7.958   3.555   6.043 -2.7508 -2.1119 -0.3126
  380MOL0     H50130   8.075   3.783   6.069  0.5778 -0.1106  0.3959
  380MOL0     H50131   7.921   3.847   6.009 -3.6594 -2.0390  1.7187
  380MOL0     H50132   8.107   3.653   5.863 -1.9245 -1.2324  1.6944
  380MOL0     H50133   7.934   3.676   5.818 -0.5872  1.3178 -1.2070
  380MOL0     H50134   8.167   3.873   5.828 -0.3915 -2.0954  5.1653
  380MOL0     H50135   8.015   3.945   5.803  2.2297  1.8571 -0.2757
  380MOL0     H50136   8.094   3.907   5.569 -3.5003 -0.5783 -2.0594
  380MOL0     H50137   7.967   3.800   5.605 -0.6301 -0.9840  1.4677
  380MOL0     H50138   8.245   3.712   5.637  0.4629  1.2451 -2.7075
  380MOL0     H50139   8.108   3.604   5.619  0.1459 -0.5550  0.3409
  380MOL0     H50140   8.174   3.810   5.404 -1.3533  0.8583  1.4459
  380MOL0     H50141   8.067   3.674   5.397 -0.7312  3.0627  0.7247
  380MOL0     H50142   7.835   3.316   6.417  0.0420 -1.2745  1.4815
  380MOL0     H50143   7.728   3.314   6.642 -1.3551  1.1480 -0.3792
  380MOL0     H50144   7.278   3.237   6.893  1.3916  1.2959 -1.1556
  380MOL0     H50145   7.199   3.254   7.140  1.2612  1.6496  3.5270
  380MOL0     H50146   8.643   3.768   7.791 -2.9886  4.1740 -2.7518
  380MOL0     H50147   8.875   3.818   7.801 -1.3357  3.0950 -1.4602
  380MOL0     H50148   9.115   4.221   7.911  0.1461  0.2453 -1.2085
  380MOL0     H50149   9.332   4.340   7.877 -1.4102  0.5202  0.5378
  380MOL0     H50150   9.635   4.335   8.083 -3.1020  1.1509  1.6003
  380MOL0     H50151   9.504   4.401   8.000 -0.0677 -0.3390  0.7836
  380MOL0     H50152   9.773   4.467   7.951 -0.1109 -0.8331  1.3137
  380MOL0     H50153   9.727   4.360   7.805 -1.3520  1.2401 -1.6527
  380MOL0     H50154   9.512   4.489   7.802 -0.3736 -0.4870 -0.4765
  380MOL0     H50155   9.668   4.542   7.722  3.7530 -2.4663  2.1688
  380MOL0     H50156   9.570   4.645   7.992 -1.4124  0.5197  0.1745
  380MOL0     H50157   9.716   4.686   7.907  0.2862 -0.8884  1.8594
  380MOL0     H50158   9.425   4.924   7.692 -0.1708  0.9204 -0.7748
  380MOL0     H50159   9.547   3.976   7.917  0.2176 -0.3101  1.7384
  380MOL0     H50160   9.347   3.858   7.967  0.3235  1.0254  0.5622
  381MOL0     O50161   3.202   1.086   5.622 -0.1706 -0.2377  0.3148
  381MOL0     C50162   3.248   1.148   5.516 -0.0197 -0.5947  0.3705
  381MOL0     O50163   3.190   1.252   5.448  0.4332 -0.7515  0.2456
  381MOL0     C50164   3.063   1.307   5.474  0.5869 -0.1019 -0.2643
  381MOL0     C50165   3.009   1.315   5.604  1.0526 -0.8597 -0.0378
  381MOL0     C50166   2.875   1.361   5.629 -0.0633  0.2756  0.0355
  381MOL0     C50167   2.792   1.387   5.516 -0.5556 -0.3882 -0.1487
  381MOL0     O50168   2.666   1.436   5.533 -0.0551 -0.2029  0.2166
  381MOL0     C50169   2.657   1.583   5.533  0.0476 -0.2306  0.2879
  381MOL0     C50170   2.533   1.639   5.601 -0.5087  0.3145  0.3070
  381MOL0     C50171   2.403   1.592   5.529  0.4450 -0.4708  0.2940
  381MOL0     C50172   2.355   1.673   5.410  0.5062 -0.2519 -0.2618
  381MOL0     C50173   2.256   1.604   5.316 -0.2303  0.3776 -0.3367
  381MOL0     C50174   2.120   1.591   5.396  1.1438 -0.4756 -0.8483
  381MOL0     C50175   1.997   1.504   5.327 -0.3124 -0.6037 -0.0144
  381MOL0     C50176   1.972   1.531   5.180 -0.9504 -0.2672 -0.7177
  381MOL0     N50177   1.845   1.475   5.139 -0.2540 -0.0434  0.5190
  381MOL0     C50178   1.832   1.352   5.087 -0.0610 -0.2847  1.3526
  381MOL0     C50179   1.719   1.361   5.015 -0.6925 -0.8434  0.2947
  381MOL0     C50180   1.644   1.249   4.944 -0.1993 -0.3188  0.2096
  381MOL0     C50181   1.504   1.288   4.905 -1.1218  0.5918  0.0042
  381MOL0     C50182   1.463   1.195   4.788 -0.1757 -0.5991  1.8295
  381MOL0     C50183   1.341   1.250   4.714 -0.4428  0.7995  0.5854
  381MOL0     O50184   1.237   1.266   4.805  1.0960 -0.5415  0.3806
  381MOL0     C50185   1.125   1.185   4.786 -0.5460 -0.4613 -0.4429
  381MOL0     C50186   1.001   1.247   4.760 -0.2781  0.6320  0.5246
  381MOL0     C50187   0.884   1.167   4.746 -0.5933 -0.3728 -0.3005
  381MOL0     C50188   0.891   1.033   4.759 -0.5941  1.0681  0.3803
  381MOL0     C50189   0.778   0.936   4.739 -0.4889 -0.4361 -1.0226
  381MOL0     O50190   0.650   0.989   4.734  0.2322  0.4024 -1.0173
  381MOL0     C50191   0.545   0.907   4.730 -0.1162 -0.2356  0.5544
  381MOL0     C50192   0.441   0.946   4.655  0.4141 -0.0807  0.5183
  381MOL0     C50193   0.319   0.875   4.643 -0.1914  0.5278 -0.1980
  381MOL0     C50194   0.306   0.761   4.726  0.2149  0.1785 -0.4271
  381MOL0     O50195   0.200   0.671   4.722  0.3918 -0.1917  0.8378
  381MOL0     C50196   0.084   0.706   4.653  0.0980 -0.2624 -0.3371
  381MOL0     C50197  -0.008   0.585   4.686  0.2781 -0.1516  0.9311
  381MOL0     C50198  -0.142   0.603   4.621 -0.3673  0.3012 -0.2820
  381MOL0     C50199  -0.145   0.600   4.468  0.0715  0.4993 -0.2088
  381MOL0     C50200  -0.297   0.627   4.436 -0.4091 -0.0360 -0.0394
  381MOL0     C50201  -0.316   0.631   4.287  0.0092 -0.0010  0.1704
  381MOL0     C50202  -0.466   0.665   4.258 -0.1533 -0.2604  0.5820
  381MOL0     C50203  -0.490   0.653   4.102  0.3906 -0.0283  0.5660
  381MOL0    Cl50204  -0.472   0.483   4.033  0.0725 -0.1952  0.1002
  381MOL0     C50205   0.415   0.716   4.799  0.5546 -0.3247 -0.4418
  381MOL0     C50206   0.529   0.794   4.809  0.3613  0.7129  0.5067
  381MOL0     O50207   0.805   0.818   4.724 -0.7633  1.0082  0.5363
  381MOL0     C50208   1.022   0.976   4.788  0.5688  0.4357  0.3490
  381MOL0     C50209   1.138   1.050   4.800 -0.0805  0.2208  0.5797
  381MOL0     N50210   1.658   1.484   5.045 -0.3354  0.1884  0.6846
  381MOL0     N50211   1.736   1.556   5.119  0.1075  0.0912  0.0447
  381MOL0     C50212   2.846   1.370   5.386 -0.6869  0.2033 -0.1240
  381MOL0     C50213   2.982   1.336   5.362  0.2611  0.4503 -0.7014
  381MOL0     C50214   3.381   1.110   5.462  0.1309 -0.1966 -0.0971
  381MOL0     C50215   3.429   1.184   5.355  0.2242  0.5981 -0.0396
  381MOL0     C50216   3.541   1.139   5.295  0.8959 -1.3248  1.0126
  381MOL0     C50217   3.614   1.029   5.334 -0.3396  0.3542 -0.3108
  381MOL0     O50218   3.735   0.998   5.263 -0.0073 -0.6493 -0.3401
  381MOL0     C50219   3.715   0.867   5.206  0.1283  0.2933  0.8664
  381MOL0     C50220   3.632   0.850   5.077  0.2969 -0.0901  0.3618
  381MOL0     C50221   3.702   0.921   4.956 -0.4133 -0.6148  0.2394
  381MOL0     C50222   3.596   0.931   4.842 -0.0505 -0.2335  1.0922
  381MOL0     C50223   3.659   0.993   4.718  0.0085 -0.0349 -0.0785
  381MOL0     C50224   3.715   1.046   4.623  0.6100 -0.6605 -0.1799
  381MOL0     C50225   3.571   0.966   5.454 -0.1451  0.5401  0.2709
  381MOL0     C50226   3.459   1.008   5.524 -0.4174  0.6736 -0.5080
  381MOL0     H50227   3.067   1.290   5.692  2.0784  1.3964  0.0005
  381MOL0     H50228   2.825   1.379   5.724  2.2092 -0.2846  1.4018
  381MOL0     H50229   2.640   1.627   5.434 -4.2243 -0.6096  0.6884
  381MOL0     H50230   2.754   1.621   5.567  1.2902 -0.1846 -2.8580
  381MOL0     H50231   2.526   1.747   5.609 -0.9587  0.3311 -0.2652
  381MOL0     H50232   2.537   1.603   5.704  0.6002  0.7059  0.4150
  381MOL0     H50233   2.328   1.608   5.608 -1.4411 -1.2877 -1.2608
  381MOL0     H50234   2.404   1.484   5.511 -4.8156 -1.6428  4.2407
  381MOL0     H50235   2.330   1.777   5.433  2.9982 -0.2366  3.1449
  381MOL0     H50236   2.446   1.689   5.350  1.2576 -0.3531  0.8081
  381MOL0     H50237   2.285   1.500   5.296 -4.3977 -1.4431  1.7288
  381MOL0     H50238   2.229   1.660   5.226 -2.8774 -0.2818 -0.0617
  381MOL0     H50239   2.090   1.695   5.411  4.0047  0.0809  2.3290
  381MOL0     H50240   2.136   1.558   5.500  2.6962  0.2724 -0.8321
  381MOL0     H50241   2.032   1.400   5.327  0.8448 -0.3177 -3.3363
  381MOL0     H50242   1.907   1.518   5.389  1.0486  3.2790  1.3608
  381MOL0     H50243   2.055   1.487   5.124  0.0861  1.5662 -0.7068
  381MOL0     H50244   1.977   1.638   5.158  0.5262  0.0492  0.9332
  381MOL0     H50245   1.903   1.271   5.076  2.1507  1.9222 -2.6227
  381MOL0     H50246   1.637   1.165   5.013 -0.2250 -0.6903 -0.2373
  381MOL0     H50247   1.706   1.227   4.857 -1.2905 -0.5111 -0.5447
  381MOL0     H50248   1.489   1.387   4.861  0.0673 -0.4504 -3.0576
  381MOL0     H50249   1.429   1.270   4.983 -1.4552  0.8601 -0.2502
  381MOL0     H50250   1.539   1.201   4.710 -0.5851  0.0736  1.4736
  381MOL0     H50251   1.447   1.091   4.816 -2.2262 -1.0193 -0.5308
  381MOL0     H50252   1.315   1.173   4.640 -1.0960  3.6521 -2.3765
  381MOL0     H50253   1.367   1.344   4.665 -1.2204  0.3509 -0.7273
  381MOL0     H50254   0.996   1.355   4.755  2.6201  0.7680 -2.0104
  381MOL0     H50255   0.787   1.213   4.729 -1.2319 -1.8470 -0.8675
  381MOL0     H50256   0.450   1.044   4.610 -0.2203 -0.4646 -0.4900
  381MOL0     H50257   0.236   0.921   4.590  0.9910  3.5920  0.4077
  381MOL0     H50258   0.104   0.706   4.546  1.5500  1.3914 -0.1177
  381MOL0     H50259   0.033   0.797   4.686  1.0538  0.3633 -0.5293
  381MOL0     H50260  -0.032   0.575   4.792 -0.4028  0.1213  0.8076
  381MOL0     H50261   0.045   0.493   4.659  1.3777 -0.1670  2.9454
  381MOL0     H50262  -0.192   0.698   4.639 -0.1456  0.7455 -1.8396
  381MOL0     H50263  -0.203   0.522   4.663  0.3551 -1.6065 -2.6543
  381MOL0     H50264  -0.071   0.666   4.422  1.3661 -0.1671  0.8729
  381MOL0     H50265  -0.125   0.497   4.438 -0.8377 -0.0166  0.8974
  381MOL0     H50266  -0.332   0.728   4.462 -0.3842  1.7057 -5.4307
  381MOL0     H50267  -0.359   0.543   4.467 -1.1459  0.5284  0.0293
  381MOL0     H50268  -0.277   0.543   4.236  0.8070  1.0045 -1.0256
  381MOL0     H50269  -0.238   0.700   4.253  0.6100  1.1883  3.5678
  381MOL0     H50270  -0.542   0.608   4.313  1.3326 -3.8452 -0.8273
  381MOL0     H50271  -0.491   0.769   4.285  0.0550  0.4057 -1.6139
  381MOL0     H50272  -0.411   0.704   4.047  0.4967 -1.4122 -0.6193
  381MOL0     H50273  -0.593   0.681   4.076  0.2772 -1.7783 -1.1242
  381MOL0     H50274   0.407   0.625   4.857 -3.2829  0.4122  0.4803
  381MOL0     H50275   0.609   0.766   4.877  0.6292  0.5743  0.1384
  381MOL0     H50276   1.033   0.869   4.801  0.8335  0.6969  2.6455
  381MOL0     H50277   1.238   1.008   4.804  1.7578  4.1525  0.8562
  381MOL0     H50278   2.796   1.388   5.291  0.0347 -3.2789 -1.2871
  381MOL0     H50279   3.017   1.315   5.261 -2.3675 -0.0335 -1.6171
  381MOL0     H50280   3.376   1.270   5.317 -0.4557  0.5586  0.7980
  381MOL0     H50281   3.581   1.219   5.234 -0.5900 -0.6800  0.8448
  381MOL0     H50282   3.665   0.810   5.285 -0.8610  2.9813  2.3272
  381MOL0     H50283   3.815   0.823   5.198  0.1785  0.4776  0.4294
  381MOL0     H50284   3.631   0.743   5.053  0.7137 -0.4288  1.7652
  381MOL0     H50285   3.533   0.888   5.101 -0.5971  0.5912 -3.6153
  381MOL0     H50286   3.791   0.866   4.923  1.3224  1.5275  1.0647
  381MOL0     H50287   3.722   1.025   4.984 -4.6040 -0.1026  1.9863
  381MOL0     H50288   3.549   0.835   4.817  2.0482 -0.5043 -2.3018
  381MOL0     H50289   3.520   1.003   4.875  1.2272  1.4428  0.4898
  381MOL0     H50290   3.773   1.098   4.549  1.8398 -0.1868  1.0874
  381MOL0     H50291   3.631   0.881   5.484 -1.5148  0.4255  2.9763
  381MOL0     H50292   3.429   0.964   5.619 -1.2777  0.8211 -0.6961
  382MOL0     O50293   6.891   8.581  10.909 -0.5984  1.3208  0.5868
  382MOL0     C50294   6.937   8.569  11.023  0.5256  0.1168  0.2067
  382MOL0     O50295   6.859   8.575  11.127  0.5145  0.2188  0.2270
  382MOL0     C50296   6.729   8.626  11.112 -1.2198 -0.9599  0.9384
  382MOL0     C50297   6.615   8.561  11.173 -0.2303 -1.0512 -0.3057
  382MOL0     C50298   6.494   8.633  11.182 -0.1807  0.2825  0.1437
  382MOL0     C50299   6.473   8.761  11.118  1.3402  0.5631 -0.3270
  382MOL0     O50300   6.353   8.821  11.110 -0.6948 -0.2209 -0.0936
  382MOL0     C50301   6.250   8.783  11.190 -0.5301  0.5064  0.8889
  382MOL0     C50302   6.120   8.865  11.156 -0.0409  0.0431  0.2318
  382MOL0     C50303   6.003   8.846  11.251  0.8862 -0.6937  0.5496
  382MOL0     C50304   5.868   8.907  11.194  0.3846  0.9135  0.3017
  382MOL0     C50305   5.760   8.877  11.292 -0.3375  0.0813 -0.1307
  382MOL0     C50306   5.615   8.916  11.246  0.8157 -0.2704  0.9689
  382MOL0     C50307   5.610   9.057  11.206  0.2020 -0.0789 -0.3478
  382MOL0     C50308   5.472   9.086  11.159  0.3516  0.3931 -0.2461
  382MOL0     N50309   5.447   9.230  11.128 -1.1444 -0.2724  0.0542
  382MOL0     C50310   5.454   9.272  10.998  0.1264 -0.1144  0.4166
  382MOL0     C50311   5.444   9.406  11.011  0.5415  0.3209 -0.1881
  382MOL0     C50312   5.431   9.504  10.885 -0.1377 -0.3808  0.3294
  382MOL0     C50313   5.293   9.504  10.815 -0.4365  0.0444 -1.5826
  382MOL0     C50314   5.306   9.559  10.670  0.3576  0.7119  0.2820
  382MOL0     C50315   5.164   9.598  10.614  1.1574  0.5051  0.5035
  382MOL0     O50316   5.113   9.717  10.670  0.3644 -0.2793 -0.0607
  382MOL0     C50317   4.980   9.717  10.678  0.4971 -0.4469  0.3586
  382MOL0     C50318   4.936   9.725  10.810  0.1278 -0.0740  0.6983
  382MOL0     C50319   4.798   9.710  10.834 -0.6698 -0.2219  0.1399
  382MOL0     C50320   4.709   9.695  10.734 -0.1573 -0.1784 -0.0495
  382MOL0     C50321   4.568   9.687  10.752 -0.8740  0.0995 -0.2722
  382MOL0     O50322   4.527   9.642  10.875  0.4464 -0.1685 -0.1420
  382MOL0     C50323   4.396   9.630  10.907  0.2521 -0.1926 -0.3830
  382MOL0     C50324   4.273   9.622  10.841 -0.7948 -0.1542 -0.1444
  382MOL0     C50325   4.151   9.618  10.908  0.0718  0.4657  0.7692
  382MOL0     C50326   4.149   9.625  11.047  0.1753 -0.6282  0.4580
  382MOL0     O50327   4.025   9.626  11.111  0.3047 -0.0194 -0.2764
  382MOL0     C50328   4.022   9.568  11.236  0.2762  0.5642 -0.1013
  382MOL0     C50329   3.897   9.479  11.262  0.2710  0.9737  0.8200
  382MOL0     C50330   3.778   9.573  11.279  1.0903  0.1809  1.1620
  382MOL0     C50331   3.657   9.507  11.332  0.4197 -0.3584 -0.8316
  382MOL0     C50332   3.551   9.606  11.376  0.2328 -0.9651  0.0408
  382MOL0     C50333   3.583   9.683  11.502 -0.6088 -0.6921  0.6331
  382MOL0     C50334   3.463   9.705  11.598 -1.1043 -0.4525  0.0696
  382MOL0     C50335   3.355   9.797  11.540 -0.6400 -0.1196  0.5951
  382MOL0    Cl50336   3.201   9.833  11.639  0.2649  0.4115 -0.2074
  382MOL0     C50337   4.269   9.632  11.118  0.3989 -0.8589  0.2200
  382MOL0     C50338   4.387   9.633  11.045  0.3273  0.0980 -0.0517
  382MOL0     O50339   4.496   9.729  10.671  0.5484 -0.0013  0.3100
  382MOL0     C50340   4.756   9.700  10.597  0.0196 -0.0312 -0.6332
  382MOL0     C50341   4.897   9.708  10.568  0.0681 -0.5921  0.5734
  382MOL0     N50342   5.427   9.434  11.143  0.3611  0.3907  0.6535
  382MOL0     N50343   5.433   9.332  11.214  0.4726 -0.6596 -0.8548
  382MOL0     C50344   6.585   8.811  11.054 -1.1777 -0.0987  0.7215
  382MOL0     C50345   6.709   8.748  11.058  1.0423 -0.0989  0.8298
  382MOL0     C50346   7.083   8.541  11.030  0.0509 -0.1470 -0.4668
  382MOL0     C50347   7.136   8.519  11.151 -0.2873  0.2679 -0.7878
  382MOL0     C50348   7.276   8.495  11.162 -1.0253  0.3278  0.2019
  382MOL0     C50349   7.356   8.482  11.058 -0.2960  0.3499 -0.0483
  382MOL0     O50350   7.494   8.465  11.076  0.4753  0.0415 -0.1567
  382MOL0     C50351   7.589   8.459  10.972 -0.1882 -0.6641 -0.3819
  382MOL0     C50352   7.728   8.435  11.042 -0.1220 -0.0748  0.4235
  382MOL0     C50353   7.824   8.396  10.933  0.4348  0.1903 -0.1375
  382MOL0     C50354   7.961   8.397  10.993 -0.8690  0.0914  0.7131
  382MOL0     C50355   8.000   8.531  11.035 -0.4648  0.3521  0.7186
  382MOL0     C50356   8.019   8.635  11.087  0.1812  0.0756 -1.1946
  382MOL0     C50357   7.304   8.508  10.934  0.1853 -0.7303 -0.2561
  382MOL0     C50358   7.167   8.526  10.911 -0.6556 -0.3431 -0.9145
  382MOL0     H50359   6.618   8.460  11.212 -0.4514  0.0149  2.7033
  382MOL0     H50360   6.410   8.587  11.234  0.4460  1.3758  2.2291
  382MOL0     H50361   6.265   8.795  11.298 -1.3132 -1.6667  1.3002
  382MOL0     H50362   6.228   8.678  11.167 -0.7751  0.5892  0.7427
  382MOL0     H50363   6.090   8.848  11.052 -1.4426  0.6005  0.5295
  382MOL0     H50364   6.146   8.970  11.136 -2.7993  0.5258 -1.3465
  382MOL0     H50365   6.027   8.911  11.337  2.6226  0.3509 -0.6462
  382MOL0     H50366   5.982   8.744  11.284  1.3111 -0.1055  2.8624
  382MOL0     H50367   5.876   9.014  11.173 -1.1111  1.0954  0.5288
  382MOL0     H50368   5.860   8.855  11.098  3.1540 -0.6494  0.8328
  382MOL0     H50369   5.769   8.920  11.392  3.4410  0.5638 -0.5400
  382MOL0     H50370   5.762   8.769  11.307  1.2312  0.1652  0.4233
  382MOL0     H50371   5.545   8.886  11.324 -0.9578 -2.6295 -1.3564
  382MOL0     H50372   5.583   8.861  11.157 -0.6633  0.4697  1.0111
  382MOL0     H50373   5.635   9.125  11.288 -2.1185  1.3134 -0.6874
  382MOL0     H50374   5.671   9.090  11.121 -1.2245 -1.5564 -2.0294
  382MOL0     H50375   5.411   9.061  11.247 -0.5812  3.6826  0.1780
  382MOL0     H50376   5.443   9.030  11.069  1.2196  0.6643 -0.6955
  382MOL0     H50377   5.455   9.224  10.901  3.5621 -1.0440  0.7735
  382MOL0     H50378   5.515   9.482  10.818  1.8984 -0.1712  2.6807
  382MOL0     H50379   5.451   9.603  10.926 -0.4162 -0.8337  1.6288
  382MOL0     H50380   5.226   9.554  10.885 -0.5577 -3.0863  0.7385
  382MOL0     H50381   5.255   9.402  10.807 -0.3749  0.0054 -1.3564
  382MOL0     H50382   5.372   9.643  10.645 -0.3412  0.4531 -2.8645
  382MOL0     H50383   5.336   9.476  10.606 -0.7560  0.1898  0.4197
  382MOL0     H50384   5.093   9.518  10.638 -2.7705  3.1482 -1.2582
  382MOL0     H50385   5.164   9.604  10.504 -1.6275  4.8070  0.4926
  382MOL0     H50386   5.009   9.720  10.890 -0.1402  1.1999  1.0379
  382MOL0     H50387   4.767   9.692  10.936 -1.7717 -2.4049 -0.5246
  382MOL0     H50388   4.267   9.623  10.732  1.6814  1.5374 -0.3587
  382MOL0     H50389   4.056   9.612  10.856 -0.0848  4.3401  0.2539
  382MOL0     H50390   4.034   9.643  11.314  0.2059  0.5111 -0.0399
  382MOL0     H50391   4.104   9.496  11.238 -0.3058 -0.1063 -0.0037
  382MOL0     H50392   3.919   9.417  11.350 -1.8443  1.0701  1.4555
  382MOL0     H50393   3.891   9.411  11.178  0.1291 -0.5916  2.0541
  382MOL0     H50394   3.763   9.621  11.181  1.4914  0.1337  1.0788
  382MOL0     H50395   3.806   9.645  11.356 -2.5684 -0.3699  3.2288
  382MOL0     H50396   3.609   9.432  11.267  0.4190  0.7231 -2.1237
  382MOL0     H50397   3.699   9.453  11.417 -0.7768  1.8389  1.2438
  382MOL0     H50398   3.461   9.548  11.399 -0.1452 -1.1627 -1.7365
  382MOL0     H50399   3.528   9.664  11.286 -1.7757  1.5488  2.0745
  382MOL0     H50400   3.625   9.780  11.474  0.3219 -1.4828 -0.8553
  382MOL0     H50401   3.663   9.627  11.550  0.7013  0.3982 -0.2042
  382MOL0     H50402   3.407   9.612  11.614 -1.3904 -0.4424 -0.8217
  382MOL0     H50403   3.487   9.745  11.697 -2.9468  0.5693  0.1321
  382MOL0     H50404   3.325   9.774  11.438  2.0247 -0.8378 -0.1208
  382MOL0     H50405   3.407   9.892  11.524 -0.1756 -0.1909  1.5929
  382MOL0     H50406   4.282   9.645  11.225 -1.0077 -2.7627  0.6884
  382MOL0     H50407   4.480   9.640  11.101  1.3035  1.1478 -1.7398
  382MOL0     H50408   4.683   9.695  10.517 -0.9699 -2.0752  0.3302
  382MOL0     H50409   4.941   9.700  10.469  0.0276 -2.3456  0.6536
  382MOL0     H50410   6.574   8.907  11.005  2.0536 -0.7985 -1.7936
  382MOL0     H50411   6.788   8.810  11.017 -0.3507  0.8208 -0.5839
  382MOL0     H50412   7.073   8.521  11.240 -1.6512 -0.3726 -1.6955
  382MOL0     H50413   7.330   8.497  11.256  5.9397  2.5654 -3.0976
  382MOL0     H50414   7.576   8.557  10.928  0.6767  1.3219  3.3395
  382MOL0     H50415   7.568   8.377  10.902 -1.1161 -0.4874 -0.3182
  382MOL0     H50416   7.761   8.525  11.095  1.4826 -1.9661  2.9191
  382MOL0     H50417   7.725   8.364  11.126  0.4065 -0.2043  0.3373
  382MOL0     H50418   7.810   8.456  10.844 -3.0222 -3.7426 -2.6238
  382MOL0     H50419   7.802   8.295  10.896 -1.3103  0.6363 -0.3934
  382MOL0     H50420   7.979   8.326  11.074  1.2653  1.4288  1.4942
  382MOL0     H50421   8.031   8.378  10.911  0.2800  3.0346  0.8800
  382MOL0     H50422   8.016   8.723  11.148 -3.9065 -0.1313 -0.8428
  382MOL0     H50423   7.375   8.502  10.852  0.2096 -2.2350 -0.1650
  382MOL0     H50424   7.131   8.543  10.810  0.9415 -0.2951 -1.5109
  383MOL0     O50425   2.881   1.499  10.158 -0.2104  0.4815 -0.8888
  383MOL0     C50426   2.855   1.386  10.111 -0.0357 -0.3070 -0.8099
  383MOL0     O50427   2.946   1.304  10.046 -0.2622  0.3542  0.0262
  383MOL0     C50428   3.080   1.330  10.049  0.6265 -0.0771 -0.7063
  383MOL0     C50429   3.156   1.317   9.932  1.1083  0.3939  0.2735
  383MOL0     C50430   3.292   1.340   9.936  0.2772  0.1860  0.1979
  383MOL0     C50431   3.354   1.392  10.053  0.8308 -0.1920  0.0183
  383MOL0     O50432   3.484   1.433  10.065  0.6148  0.5201  0.0246
  383MOL0     C50433   3.576   1.379   9.979  0.0430  0.3156  0.1334
  383MOL0     C50434   3.714   1.440  10.021  0.4109  0.2632 -0.2510
  383MOL0     C50435   3.718   1.589   9.994 -0.0348 -0.7085  0.8315
  383MOL0     C50436   3.825   1.663  10.065 -0.8794  0.2881  0.0320
  383MOL0     C50437   3.846   1.805  10.020 -0.3976 -0.0948  0.7254
  383MOL0     C50438   3.971   1.864  10.088  0.7020  0.3746  1.5756
  383MOL0     C50439   3.988   2.008  10.038  0.5986  0.0414 -0.3564
  383MOL0     C50440   4.123   2.066  10.086 -0.0459  0.0217  0.6080
  383MOL0     N50441   4.118   2.215  10.070 -0.2225  0.5765 -0.1135
  383MOL0     C50442   4.068   2.302   9.984  0.4811  0.1870 -0.3329
  383MOL0     C50443   4.102   2.427  10.018  0.8839  0.2406  0.1266
  383MOL0     C50444   4.051   2.554   9.956  0.4790  0.5648  0.4278
  383MOL0     C50445   3.907   2.576   9.990 -0.2555 -0.6871  0.2407
  383MOL0     C50446   3.869   2.583  10.140  0.1086  0.4249 -0.2344
  383MOL0     C50447   3.818   2.722  10.196  0.0815 -0.3210  0.1158
  383MOL0     O50448   3.777   2.707  10.326  0.0259 -0.0674 -0.4079
  383MOL0     C50449   3.736   2.817  10.403  0.2816  0.2259 -0.1309
  383MOL0     C50450   3.703   2.789  10.531  0.6365 -0.4594  0.1935
  383MOL0     C50451   3.620   2.882  10.605  0.1351  1.1177  0.0688
  383MOL0     C50452   3.582   3.006  10.550 -0.4139 -0.3861 -0.3727
  383MOL0     C50453   3.493   3.097  10.627 -0.0638  0.6415 -0.3007
  383MOL0     O50454   3.475   3.064  10.757  0.0297  0.2535  0.8184
  383MOL0     C50455   3.431   3.163  10.836 -0.1379  0.2415 -1.5738
  383MOL0     C50456   3.324   3.148  10.923 -0.2202 -0.8798  0.1996
  383MOL0     C50457   3.291   3.251  11.009 -0.2951 -0.1514 -0.2541
  383MOL0     C50458   3.364   3.372  11.007  0.6192 -0.5842 -0.8990
  383MOL0     O50459   3.333   3.460  11.108 -0.1489  0.5138 -0.2627
  383MOL0     C50460   3.423   3.572  11.126  1.0186 -0.4201  0.4015
  383MOL0     C50461   3.390   3.659  11.250 -0.4645  0.5361 -0.1088
  383MOL0     C50462   3.228   3.675  11.261  0.2324 -0.2707 -0.4438
  383MOL0     C50463   3.189   3.762  11.389 -0.1958 -0.2667  0.5066
  383MOL0     C50464   3.040   3.803  11.366  0.4585  0.2189  0.0388
  383MOL0     C50465   3.003   3.874  11.484  0.2543 -0.0886 -0.4612
  383MOL0     C50466   2.852   3.915  11.485  0.6927 -0.8126 -0.1210
  383MOL0     C50467   2.807   3.992  11.606 -0.9060  0.2014  0.4150
  383MOL0    Cl50468   2.629   4.011  11.632 -0.2871  0.2840 -0.8803
  383MOL0     C50469   3.476   3.389  10.919  0.4166 -0.6678  0.2843
  383MOL0     C50470   3.499   3.283  10.829 -0.2082 -0.6160 -0.2280
  383MOL0     O50471   3.443   3.188  10.571 -0.0589 -0.3387  0.3329
  383MOL0     C50472   3.623   3.037  10.420  0.0730  0.1937 -0.1297
  383MOL0     C50473   3.708   2.946  10.353  0.1825  0.7416 -0.4863
  383MOL0     N50474   4.182   2.415  10.135 -0.1216 -0.1595 -0.2842
  383MOL0     N50475   4.182   2.294  10.172  0.3342  0.2408  0.1852
  383MOL0     C50476   3.281   1.405  10.175 -0.4011  0.0069  0.4922
  383MOL0     C50477   3.148   1.373  10.166 -0.9547 -0.0906 -0.2762
  383MOL0     C50478   2.712   1.341  10.132 -0.4697 -0.0744  0.3509
  383MOL0     C50479   2.668   1.226  10.063 -0.3467 -0.5694 -0.2478
  383MOL0     C50480   2.535   1.186  10.066 -0.2821 -0.2896 -0.2555
  383MOL0     C50481   2.452   1.248  10.154  0.1478  0.0933 -0.1539
  383MOL0     O50482   2.320   1.215  10.164 -0.4367  0.2561  0.3108
  383MOL0     C50483   2.221   1.309  10.133  0.6406 -0.5415 -0.2191
  383MOL0     C50484   2.105   1.249  10.060  1.1125  0.1091  0.4356
  383MOL0     C50485   2.139   1.210   9.922  0.4642  1.3354 -0.0572
  383MOL0     C50486   2.088   1.298   9.813 -0.2485 -0.3302  0.6559
  383MOL0     C50487   1.945   1.327   9.817 -0.0818  0.1983 -0.2955
  383MOL0     C50488   1.830   1.332   9.843  0.2225 -0.2577 -0.2897
  383MOL0     C50489   2.505   1.356  10.232  0.3106 -0.7691  0.5460
  383MOL0     C50490   2.627   1.412  10.208  0.3265  0.1330  0.6533
  383MOL0     H50491   3.099   1.289   9.844  0.2482  2.2717  0.1695
  383MOL0     H50492   3.329   1.313   9.838 -2.0607 -0.1893 -0.6492
  383MOL0     H50493   3.548   1.400   9.875  3.0403  1.8936 -0.4884
  383MOL0     H50494   3.576   1.273  10.003 -0.4032  0.3509  0.3043
  383MOL0     H50495   3.787   1.383   9.963 -0.6953  1.5078 -3.0121
  383MOL0     H50496   3.729   1.419  10.128  0.0813 -0.4359 -0.3351
  383MOL0     H50497   3.624   1.641  10.014  2.1087  5.0041 -1.6774
  383MOL0     H50498   3.740   1.592   9.887 -2.2230  0.4667  0.3723
  383MOL0     H50499   3.805   1.658  10.173 -0.9302 -0.4736 -0.0079
  383MOL0     H50500   3.917   1.608  10.045 -1.6349  0.1106 -3.6215
  383MOL0     H50501   3.769   1.872  10.059  0.2863 -0.2002  2.3465
  383MOL0     H50502   3.852   1.809   9.911 -5.6952 -0.6853  0.1660
  383MOL0     H50503   4.064   1.812  10.065 -0.6277 -1.7232  0.6010
  383MOL0     H50504   3.950   1.875  10.195  1.2207 -0.7390  1.7961
  383MOL0     H50505   3.981   2.008   9.929 -4.1928 -1.4922 -0.2671
  383MOL0     H50506   3.905   2.065  10.079  0.8841 -0.7345  1.4047
  383MOL0     H50507   4.201   2.015  10.029 -1.7496 -0.6634 -1.2122
  383MOL0     H50508   4.146   2.037  10.188 -1.0691 -1.0135  0.5542
  383MOL0     H50509   4.007   2.281   9.896 -0.2418  0.2234  0.1546
  383MOL0     H50510   4.045   2.535   9.848 -0.0994 -2.0993  0.8696
  383MOL0     H50511   4.118   2.632   9.992  0.5766 -0.2758  2.1499
  383MOL0     H50512   3.848   2.505   9.933  2.5449 -2.0477 -1.1575
  383MOL0     H50513   3.887   2.673   9.943 -0.6524 -0.5572  0.6680
  383MOL0     H50514   3.794   2.504  10.152  0.3758  0.2290  0.1891
  383MOL0     H50515   3.955   2.568  10.207  0.1589  3.0944  0.3903
  383MOL0     H50516   3.737   2.765  10.136  0.1858  0.5891  0.6186
  383MOL0     H50517   3.896   2.797  10.178 -2.6634  2.8507  0.6029
  383MOL0     H50518   3.728   2.697  10.583  0.3143  0.6483  2.4210
  383MOL0     H50519   3.584   2.838  10.697  3.2606 -1.6051  0.1908
  383MOL0     H50520   3.265   3.057  10.907  1.8534 -2.2036 -0.3218
  383MOL0     H50521   3.224   3.239  11.093 -0.5957 -2.5571 -0.7655
  383MOL0     H50522   3.409   3.642  11.043  2.6315 -0.9354 -0.3460
  383MOL0     H50523   3.527   3.539  11.135  0.7403 -2.0985 -1.6020
  383MOL0     H50524   3.432   3.759  11.236 -1.3953  0.8194 -1.0179
  383MOL0     H50525   3.416   3.601  11.339  3.4195  0.1702 -1.2732
  383MOL0     H50526   3.175   3.582  11.285  2.4663 -1.0244  2.1322
  383MOL0     H50527   3.193   3.723  11.170  1.2897  1.2601 -0.0758
  383MOL0     H50528   3.203   3.700  11.478  1.5158 -0.4248  0.1686
  383MOL0     H50529   3.248   3.854  11.400 -0.3602 -0.0866 -0.0925
  383MOL0     H50530   2.981   3.713  11.344  3.2629 -1.1894 -2.5840
  383MOL0     H50531   3.023   3.876  11.286  0.6222  1.3192  0.9819
  383MOL0     H50532   3.076   3.954  11.503  0.6115 -1.0253  2.5439
  383MOL0     H50533   3.028   3.806  11.566 -2.1452  0.4647  0.8052
  383MOL0     H50534   2.823   3.978  11.400 -0.0943  1.5551  1.7721
  383MOL0     H50535   2.789   3.827  11.474  0.3877 -0.6262  0.1134
  383MOL0     H50536   2.861   4.087  11.605 -0.0329 -0.2882 -0.9474
  383MOL0     H50537   2.843   3.937  11.694 -1.7389  0.4468  0.9156
  383MOL0     H50538   3.527   3.483  10.903 -1.4792  0.0888 -2.0092
  383MOL0     H50539   3.584   3.297  10.763  0.9606  0.7406  1.4710
  383MOL0     H50540   3.590   3.124  10.364  2.0930  0.2464 -1.3279
  383MOL0     H50541   3.730   2.982  10.254  0.7831  2.5009  0.2567
  383MOL0     H50542   3.330   1.439  10.266 -0.4237  0.1726  0.4445
  383MOL0     H50543   3.098   1.392  10.260 -1.3610  3.0853 -1.0149
  383MOL0     H50544   2.736   1.161  10.008  2.0493 -0.4826  2.3762
  383MOL0     H50545   2.488   1.112  10.002 -1.1150  0.2751 -0.3199
  383MOL0     H50546   2.262   1.394  10.077 -0.3317  2.0683  2.7613
  383MOL0     H50547   2.194   1.358  10.226  2.3162  0.0163  0.0203
  383MOL0     H50548   2.072   1.165  10.121 -3.5321  1.1362 -0.2498
  383MOL0     H50549   2.014   1.309  10.058  1.3152  0.4078 -1.0062
  383MOL0     H50550   2.096   1.110   9.915 -0.2779  1.5881  0.7044
  383MOL0     H50551   2.246   1.193   9.914 -0.0262 -1.3051 -2.9505
  383MOL0     H50552   2.146   1.390   9.804 -1.4886  0.3588 -1.1535
  383MOL0     H50553   2.092   1.244   9.718 -0.0849 -1.6768  1.4002
  383MOL0     H50554   1.731   1.342   9.881  1.2311 -1.3155  2.9157
  383MOL0     H50555   2.454   1.400  10.318  1.4519  0.8692  0.4284
  383MOL0     H50556   2.653   1.509  10.248 -0.3558  1.9448 -2.9271
  384MOL0     O50557  10.820   9.842   9.304 -0.4486  0.3470  0.4504
  384MOL0     C50558  10.840   9.960   9.289 -0.1898  0.1754  0.2457
  384MOL0     O50559  10.765  10.044   9.207  0.1519 -0.0673 -0.4614
  384MOL0     C50560  10.668   9.999   9.122 -0.6386 -0.3459  0.0186
  384MOL0     C50561  10.686   9.887   9.041 -0.0911  0.6254 -0.5734
  384MOL0     C50562  10.591   9.849   8.945  1.2782  0.5595 -0.1088
  384MOL0     C50563  10.482   9.926   8.919 -0.4225 -0.4535  0.3562
  384MOL0     O50564  10.386   9.901   8.828 -0.0230 -0.1032 -0.2466
  384MOL0     C50565  10.358   9.758   8.798 -0.4670 -0.6412  0.6143
  384MOL0     C50566  10.206   9.745   8.783  0.4423 -0.6592  0.2722
  384MOL0     C50567  10.132   9.754   8.918  0.0369 -0.1050  0.2991
  384MOL0     C50568   9.985   9.696   8.899  0.6400 -0.5850 -0.6681
  384MOL0     C50569   9.890   9.699   9.024 -1.3896 -1.1432  0.2427
  384MOL0     C50570   9.747   9.647   9.008  0.6954  0.5477  1.0913
  384MOL0     C50571   9.632   9.728   9.074  0.1389  0.0527 -0.8320
  384MOL0     C50572   9.630   9.727   9.221 -0.3399 -0.1507 -0.0198
  384MOL0     N50573   9.511   9.798   9.274  0.3074 -0.2175 -0.4838
  384MOL0     C50574   9.506   9.929   9.326  0.1197  1.2389  1.1799
  384MOL0     C50575   9.388   9.942   9.385 -0.2732 -0.4544  0.0318
  384MOL0     C50576   9.335  10.065   9.451 -0.2221  0.0319 -0.1282
  384MOL0     C50577   9.302  10.030   9.595  0.4800 -0.1061 -0.8258
  384MOL0     C50578   9.245  10.151   9.667  0.5036 -0.8194 -0.9564
  384MOL0     C50579   9.169  10.120   9.782  0.5271  0.1155 -0.1043
  384MOL0     O50580   9.142  10.247   9.839  0.5847  0.9310  0.3058
  384MOL0     C50581   9.046  10.268   9.932 -0.4246 -0.5278  0.6506
  384MOL0     C50582   8.958  10.166   9.985 -0.4379 -0.0143  0.2043
  384MOL0     C50583   8.856  10.210  10.072  0.1092 -0.4680  1.2034
  384MOL0     C50584   8.834  10.345  10.109  0.8697  0.9097  0.4022
  384MOL0     C50585   8.730  10.383  10.210 -0.1770 -0.2546  0.6419
  384MOL0     O50586   8.696  10.519  10.221  0.1239  0.5291  0.1790
  384MOL0     C50587   8.588  10.541  10.307 -0.3679 -0.2694 -0.7858
  384MOL0     C50588   8.558  10.476  10.430  1.1373  0.1014 -0.3454
  384MOL0     C50589   8.440  10.525  10.499 -0.1167  0.6834 -0.3204
  384MOL0     C50590   8.351  10.612  10.429  0.5885  0.6507  0.2582
  384MOL0     O50591   8.235  10.656  10.484 -0.1614  0.1060  0.2515
  384MOL0     C50592   8.147  10.557  10.536 -1.0481  0.0064  0.3463
  384MOL0     C50593   8.099  10.449  10.439  0.0561  0.2853  0.2142
  384MOL0     C50594   8.002  10.344  10.496 -0.2864 -0.7304  0.4353
  384MOL0     C50595   8.083  10.249  10.590  0.9345 -0.7611  0.2879
  384MOL0     C50596   8.006  10.125  10.635 -0.3475  0.6589 -0.0623
  384MOL0     C50597   7.902  10.172  10.744 -0.1428  0.2892  0.4282
  384MOL0     C50598   7.841  10.073  10.829 -0.0762 -0.1260 -0.2761
  384MOL0     C50599   7.739   9.997  10.741 -0.1443  0.4236 -0.0043
  384MOL0    Cl50600   7.604  10.087  10.672  0.0416 -0.3201  0.1237
  384MOL0     C50601   8.387  10.660  10.309  0.3601 -0.5595  0.7197
  384MOL0     C50602   8.511  10.632  10.256  0.0051 -0.7845 -0.1254
  384MOL0     O50603   8.659  10.285  10.250 -0.3201 -0.4122  0.0159
  384MOL0     C50604   8.927  10.441  10.061  0.1869  0.2122  0.3195
  384MOL0     C50605   9.024  10.405   9.966  1.0298  0.1757  0.2345
  384MOL0     N50606   9.329   9.827   9.387  0.6844  0.5253 -0.1625
  384MOL0     N50607   9.398   9.736   9.325  0.7130 -0.6713  0.6127
  384MOL0     C50608  10.462  10.034   9.007 -0.5149  0.0603 -0.2903
  384MOL0     C50609  10.559  10.076   9.098 -0.6722 -0.5240  0.0359
  384MOL0     C50610  10.941  10.029   9.382 -0.1790 -0.3819  0.0954
  384MOL0     C50611  11.049   9.954   9.419 -0.4350  0.1901  0.4130
  384MOL0     C50612  11.154   9.992   9.497 -0.6435  0.6675  0.2765
  384MOL0     C50613  11.139  10.116   9.558  0.4909 -0.1989  0.2353
  384MOL0     O50614  11.243  10.160   9.636 -1.1402 -0.6708 -0.4247
  384MOL0     C50615  11.284  10.302   9.634  0.4897 -0.0323 -0.3317
  384MOL0     C50616  11.276  10.360   9.779  0.3561  0.9038  0.0381
  384MOL0     C50617  11.316  10.509   9.782  0.7250  0.4816 -0.7096
  384MOL0     C50618  11.252  10.582   9.902 -0.7109 -0.7752  0.1302
  384MOL0     C50619  11.109  10.628   9.872 -0.0958 -0.2596  1.0878
  384MOL0     C50620  10.996  10.665   9.847 -0.9621 -0.7326  1.1644
  384MOL0     C50621  11.020  10.189   9.535  0.2414 -0.0683 -0.2799
  384MOL0     C50622  10.923  10.154   9.442 -0.2773  0.1373 -0.5260
  384MOL0     H50623  10.778   9.831   9.056 -0.6251 -0.1606 -0.1990
  384MOL0     H50624  10.616   9.757   8.892 -1.2938  1.2881 -2.8632
  384MOL0     H50625  10.410   9.692   8.868  0.5632 -2.5823 -1.8033
  384MOL0     H50626  10.401   9.729   8.701 -0.6025 -2.8292  1.1405
  384MOL0     H50627  10.189   9.651   8.730  3.3460  0.9141 -4.0435
  384MOL0     H50628  10.170   9.829   8.722  0.9184 -0.5084  0.1993
  384MOL0     H50629  10.130   9.857   8.955  0.9071  0.0910 -0.1899
  384MOL0     H50630  10.184   9.699   8.997 -0.6701 -0.3323  0.6176
  384MOL0     H50631   9.938   9.758   8.822  0.9803  0.0679 -0.3556
  384MOL0     H50632   9.982   9.592   8.866 -0.0776 -1.0682  0.8473
  384MOL0     H50633   9.883   9.799   9.067 -0.7749 -0.6038 -0.8727
  384MOL0     H50634   9.937   9.635   9.099 -2.9576 -0.8291  1.5719
  384MOL0     H50635   9.749   9.548   9.053  0.7660  1.2643  2.7373
  384MOL0     H50636   9.717   9.636   8.903  1.6370  0.7135  0.7893
  384MOL0     H50637   9.624   9.834   9.049  3.0387  0.8725  1.1352
  384MOL0     H50638   9.544   9.677   9.034  1.9619 -2.4262 -1.9193
  384MOL0     H50639   9.720   9.777   9.258  0.0858  0.2701 -1.5658
  384MOL0     H50640   9.633   9.628   9.267 -1.6770 -0.0692  0.2948
  384MOL0     H50641   9.581  10.008   9.320  0.8330  0.4407 -1.3641
  384MOL0     H50642   9.244  10.100   9.401  0.1375 -2.2474 -2.5827
  384MOL0     H50643   9.412  10.142   9.458  1.6252 -1.7762  0.3035
  384MOL0     H50644   9.383   9.976   9.645 -1.2681 -0.2398  2.1138
  384MOL0     H50645   9.216   9.963   9.603  0.4304  0.1687  1.5265
  384MOL0     H50646   9.334  10.210   9.692 -0.9611  0.2980  2.1085
  384MOL0     H50647   9.178  10.208   9.603 -1.3044 -1.4675  0.2934
  384MOL0     H50648   9.223  10.058   9.854  4.2513  1.6692 -1.2877
  384MOL0     H50649   9.077  10.073   9.750  1.3012 -0.6681 -1.2242
  384MOL0     H50650   8.962  10.061   9.960  1.7579 -0.3589  1.7318
  384MOL0     H50651   8.783  10.136  10.106 -0.8522 -2.0560 -3.5543
  384MOL0     H50652   8.624  10.400  10.471 -0.5912 -2.5163 -2.0600
  384MOL0     H50653   8.425  10.480  10.596 -2.8753 -0.7820 -1.3024
  384MOL0     H50654   8.069  10.618  10.581 -2.3161 -0.2042 -1.4827
  384MOL0     H50655   8.194  10.495  10.613 -1.0435 -0.9131 -0.3756
  384MOL0     H50656   8.188  10.393  10.408  2.0534  3.3789 -0.0215
  384MOL0     H50657   8.056  10.497  10.351 -1.0907 -1.7368 -0.4073
  384MOL0     H50658   7.978  10.280  10.411  1.5625  0.6362 -1.1972
  384MOL0     H50659   7.906  10.378  10.537 -2.1806 -3.1109 -1.7260
  384MOL0     H50660   8.174  10.210  10.544  0.7187 -1.8701  0.7668
  384MOL0     H50661   8.121  10.306  10.675 -0.8143  0.0481  0.5688
  384MOL0     H50662   8.076  10.065  10.695 -1.3245  2.3242  2.9460
  384MOL0     H50663   7.960  10.085  10.544  0.5659  1.7276 -1.0093
  384MOL0     H50664   7.820  10.233  10.706 -0.3822 -1.5734 -2.3073
  384MOL0     H50665   7.955  10.241  10.810  2.3700 -1.4105  0.3469
  384MOL0     H50666   7.908  10.003  10.879 -1.0976 -1.6970 -1.0396
  384MOL0     H50667   7.782  10.139  10.893 -0.0662  1.4695 -1.8400
  384MOL0     H50668   7.691   9.919  10.801 -0.1931 -0.6703 -1.4120
  384MOL0     H50669   7.797   9.953  10.660  1.8197  0.2393  1.4292
  384MOL0     H50670   8.316  10.728  10.264 -0.4476  1.6907  4.9490
  384MOL0     H50671   8.542  10.668  10.159  0.7838 -0.3941  0.2569
  384MOL0     H50672   8.917  10.548  10.077 -0.0365  0.6958 -2.4547
  384MOL0     H50673   9.099  10.470   9.922  4.8583 -1.7220  3.2339
  384MOL0     H50674  10.368  10.087   8.998  0.6074  2.2640  0.2949
  384MOL0     H50675  10.544  10.167   9.155  0.3019 -1.2032  1.4490
  384MOL0     H50676  11.048   9.857   9.370 -1.5592 -0.0647  0.9119
  384MOL0     H50677  11.242   9.933   9.518 -0.2620  0.1418 -2.4151
  384MOL0     H50678  11.228  10.355   9.556 -0.1254 -1.9795 -1.2655
  384MOL0     H50679  11.387  10.321   9.602 -0.4662  5.0406 -1.2042
  384MOL0     H50680  11.179  10.356   9.830 -0.7440  3.3630 -1.6492
  384MOL0     H50681  11.344  10.293   9.833  1.1108  2.7871  1.5515
  384MOL0     H50682  11.280  10.560   9.692 -0.6025  0.8351 -0.0171
  384MOL0     H50683  11.423  10.514   9.800  0.9049 -4.4975  0.9596
  384MOL0     H50684  11.240  10.510   9.983 -1.7227 -0.9089 -0.1178
  384MOL0     H50685  11.312  10.668   9.931  0.4821 -1.1502 -1.0936
  384MOL0     H50686  10.906  10.712   9.814 -0.3934 -0.1437  0.4090
  384MOL0     H50687  11.010  10.285   9.584 -0.1143 -1.5255  2.7114
  384MOL0     H50688  10.844  10.220   9.408 -0.5234  0.7843  1.1991
  385MOL0     O50689   1.215   4.871  10.252 -0.4636  0.8094 -0.4697
  385MOL0     C50690   1.114   4.900  10.316 -0.0947 -0.0341  0.3005
  385MOL0     O50691   1.066   5.029  10.348  0.1792  0.2283  0.1746
  385MOL0     C50692   1.155   5.130  10.327  0.9192 -0.5635  0.6549
  385MOL0     C50693   1.236   5.193  10.429 -0.6224  0.9102 -0.1265
  385MOL0     C50694   1.318   5.308  10.391 -0.6156  1.1689 -0.2385
  385MOL0     C50695   1.328   5.351  10.259  0.6536  0.5230  0.2024
  385MOL0     O50696   1.416   5.454  10.225 -0.4563  0.2696 -0.1165
  385MOL0     C50697   1.451   5.458  10.088 -0.4355  0.2474  0.1292
  385MOL0     C50698   1.576   5.543  10.062  0.4043  0.9673 -0.1080
  385MOL0     C50699   1.536   5.689  10.055 -0.1160 -0.6315  0.0670
  385MOL0     C50700   1.658   5.776  10.017 -0.3821 -0.0361 -0.2626
  385MOL0     C50701   1.623   5.903   9.957  0.6925 -0.4392  0.2971
  385MOL0     C50702   1.566   6.008  10.054 -0.2416 -0.6957 -0.3535
  385MOL0     C50703   1.657   6.038  10.171  0.7846 -0.9470  0.2021
  385MOL0     C50704   1.800   6.085  10.128 -0.3043 -0.0729 -0.0777
  385MOL0     N50705   1.793   6.213  10.058 -0.2070 -0.1935 -0.6300
  385MOL0     C50706   1.744   6.340  10.110 -0.1134  0.3642  0.5232
  385MOL0     C50707   1.784   6.424  10.018  0.0055  0.3669 -0.3184
  385MOL0     C50708   1.745   6.574  10.016 -0.5116  0.0196  0.5472
  385MOL0     C50709   1.595   6.609  10.029 -0.1708  0.8747 -0.5847
  385MOL0     C50710   1.495   6.546   9.916  0.7156 -0.0178 -0.4239
  385MOL0     C50711   1.463   6.391   9.931  0.8876  0.0844  0.7292
  385MOL0     O50712   1.365   6.360   9.832 -0.6430 -0.2452 -0.4248
  385MOL0     C50713   1.289   6.244   9.850 -0.2794 -0.4029  0.3614
  385MOL0     C50714   1.200   6.213   9.745  0.4079 -0.4111 -0.3777
  385MOL0     C50715   1.094   6.123   9.772 -0.2708 -0.0212 -0.1937
  385MOL0     C50716   1.084   6.061   9.901 -0.2876  0.0942  0.5215
  385MOL0     C50717   0.964   5.971   9.931 -0.3947 -0.6403 -0.1111
  385MOL0     O50718   0.878   5.955   9.824 -0.4864 -0.4542 -0.2520
  385MOL0     C50719   0.772   5.864   9.841  0.1857 -0.3719  0.5516
  385MOL0     C50720   0.652   5.896   9.775  0.8702 -0.1784 -0.2165
  385MOL0     C50721   0.536   5.807   9.787  0.2387 -0.6042 -0.3119
  385MOL0     C50722   0.552   5.680   9.858 -0.0041 -0.1407  1.3032
  385MOL0     O50723   0.455   5.581   9.853 -0.3884  0.2464 -0.2734
  385MOL0     C50724   0.339   5.605   9.774 -0.8747 -0.2368 -1.1936
  385MOL0     C50725   0.243   5.487   9.775 -0.1404 -0.7833 -0.4514
  385MOL0     C50726   0.276   5.374   9.690  0.0440  0.0373  0.3568
  385MOL0     C50727   0.187   5.254   9.715  0.0969  0.0529  0.5726
  385MOL0     C50728   0.242   5.121   9.679 -0.0734 -0.0370  1.1561
  385MOL0     C50729   0.132   5.021   9.670  0.6690 -0.5778 -0.1008
  385MOL0     C50730   0.186   4.875   9.664 -1.7863  0.3793 -0.2603
  385MOL0     C50731   0.135   4.775   9.768 -0.3230 -0.5459  0.3070
  385MOL0    Cl50732   0.118   4.602   9.728 -0.0418 -0.0160 -0.2823
  385MOL0     C50733   0.679   5.654   9.906  1.0446  0.2456 -0.2784
  385MOL0     C50734   0.780   5.741   9.910 -0.1382  0.4735  0.0272
  385MOL0     O50735   0.956   5.925  10.042 -0.1929  0.0223 -0.4767
  385MOL0     C50736   1.178   6.090   9.999  1.0070 -0.7150  0.6885
  385MOL0     C50737   1.276   6.187   9.977  0.3971  0.9505  0.1208
  385MOL0     N50738   1.850   6.358   9.920 -0.1587  0.3421  0.7477
  385MOL0     N50739   1.845   6.226   9.937 -0.3625 -0.3468  1.4616
  385MOL0     C50740   1.254   5.274  10.163 -0.5158  0.0092  1.3977
  385MOL0     C50741   1.168   5.177  10.199  0.9833 -0.4250 -0.3642
  385MOL0     C50742   1.036   4.792  10.370  0.3786 -0.3112 -0.0384
  385MOL0     C50743   1.089   4.663  10.397  0.1759 -0.4345  0.6226
  385MOL0     C50744   1.012   4.558  10.455 -0.1423 -0.7264 -1.1305
  385MOL0     C50745   0.880   4.592  10.507 -0.6590  0.7836  0.0043
  385MOL0     O50746   0.801   4.508  10.578 -0.1055  0.6629 -0.4150
  385MOL0     C50747   0.811   4.364  10.544 -0.0625  0.5266 -1.2290
  385MOL0     C50748   0.703   4.283  10.617  0.8618  0.6663  0.6413
  385MOL0     C50749   0.562   4.319  10.555  0.4266  0.3104  1.0143
  385MOL0     C50750   0.515   4.455  10.611  0.4276 -0.3694 -0.2204
  385MOL0     C50751   0.364   4.459  10.600 -0.0236  0.3070 -0.0581
  385MOL0     C50752   0.247   4.451  10.591  0.7057  0.0647 -0.0110
  385MOL0     C50753   0.826   4.720  10.485  0.9443  0.0217  0.2474
  385MOL0     C50754   0.902   4.809  10.413  0.2494 -0.8316  0.8863
  385MOL0     H50755   1.224   5.159  10.532  0.0055 -0.2014 -0.4054
  385MOL0     H50756   1.388   5.357  10.458 -2.3950 -0.6024  3.1772
  385MOL0     H50757   1.376   5.498  10.019  0.8831  3.8806  0.5816
  385MOL0     H50758   1.477   5.357  10.055 -0.2252  0.5055 -0.5027
  385MOL0     H50759   1.626   5.507   9.971  0.7976  1.4227 -0.0706
  385MOL0     H50760   1.647   5.528  10.143  0.0788 -2.1851 -0.2506
  385MOL0     H50761   1.507   5.723  10.155  1.5036 -0.2975  0.4543
  385MOL0     H50762   1.467   5.698   9.971  0.9704 -0.3136 -0.8176
  385MOL0     H50763   1.725   5.803  10.100 -2.5573  0.1104  1.5702
  385MOL0     H50764   1.721   5.730   9.941 -0.7865  1.6517 -1.6993
  385MOL0     H50765   1.550   5.879   9.879  0.4533 -2.1884  1.0247
  385MOL0     H50766   1.702   5.958   9.904  0.3632 -0.3834 -0.1448
  385MOL0     H50767   1.468   5.979  10.093 -0.2113  2.3404  2.4651
  385MOL0     H50768   1.546   6.096   9.993 -1.7476 -2.0805 -1.9680
  385MOL0     H50769   1.613   6.122  10.226  2.2082 -1.8330  2.9130
  385MOL0     H50770   1.664   5.951  10.237 -0.4828 -1.0685  0.2056
  385MOL0     H50771   1.853   6.019  10.060  1.8813  3.0080 -1.6208
  385MOL0     H50772   1.860   6.099  10.219 -2.1445 -2.6293  1.6833
  385MOL0     H50773   1.689   6.347  10.204  1.4386 -1.3650  1.6253
  385MOL0     H50774   1.779   6.608   9.917  1.2163 -2.1966  0.2922
  385MOL0     H50775   1.803   6.624  10.094 -2.7979  4.4138 -0.2594
  385MOL0     H50776   1.590   6.714  10.002 -0.7536  0.5438 -1.8258
  385MOL0     H50777   1.557   6.602  10.131  0.9982  1.1357 -0.1105
  385MOL0     H50778   1.398   6.596   9.920  0.3663 -0.7448  0.6976
  385MOL0     H50779   1.540   6.564   9.818  1.3087  2.4249  0.2348
  385MOL0     H50780   1.437   6.377  10.037  0.4684  0.4598  0.6813
  385MOL0     H50781   1.544   6.319   9.915 -1.3723 -2.8832  1.8263
  385MOL0     H50782   1.193   6.280   9.660 -1.5400  1.9698  1.5248
  385MOL0     H50783   1.026   6.102   9.691 -0.6224 -2.4093  0.6402
  385MOL0     H50784   0.639   5.987   9.717  1.4991  2.6223  3.5637
  385MOL0     H50785   0.444   5.839   9.738 -0.6710 -1.7118  0.5982
  385MOL0     H50786   0.359   5.637   9.671  2.5652 -0.1785 -0.6017
  385MOL0     H50787   0.291   5.690   9.823 -0.3042  0.0490 -1.1287
  385MOL0     H50788   0.145   5.530   9.753 -0.1998 -0.7514 -0.1362
  385MOL0     H50789   0.248   5.443   9.876  1.0269 -1.8513 -0.9335
  385MOL0     H50790   0.383   5.356   9.699  0.8594  4.6131  2.5564
  385MOL0     H50791   0.264   5.398   9.584  1.9573  0.7791  0.2792
  385MOL0     H50792   0.177   5.238   9.823 -1.3986 -1.2815  0.2616
  385MOL0     H50793   0.096   5.293   9.669  0.9942  6.8284  3.2748
  385MOL0     H50794   0.312   5.083   9.755  0.0932 -2.5301 -0.1443
  385MOL0     H50795   0.294   5.121   9.584 -0.6945 -3.0577  0.7347
  385MOL0     H50796   0.079   5.047   9.578  1.7814 -0.8374 -0.8281
  385MOL0     H50797   0.066   5.030   9.757  0.7787  3.4791 -0.2649
  385MOL0     H50798   0.153   4.827   9.571  2.9314 -1.1889 -1.4163
  385MOL0     H50799   0.295   4.879   9.663 -1.7425 -0.6672 -1.2787
  385MOL0     H50800   0.035   4.815   9.790  0.3831  1.3070  0.3867
  385MOL0     H50801   0.200   4.795   9.854  0.1306  1.7688 -0.5079
  385MOL0     H50802   0.689   5.565   9.968 -1.1378  0.5219  0.5816
  385MOL0     H50803   0.868   5.706   9.964 -0.4829 -0.5736 -0.0725
  385MOL0     H50804   1.181   6.037  10.094 -1.1735 -1.5868  0.3294
  385MOL0     H50805   1.347   6.206  10.057  0.7129 -0.2689  0.1483
  385MOL0     H50806   1.268   5.290  10.056 -0.5789 -3.2418  0.8231
  385MOL0     H50807   1.106   5.135  10.121 -0.9254  1.0164  0.3094
  385MOL0     H50808   1.188   4.647  10.353 -0.2198  0.8659 -0.8262
  385MOL0     H50809   1.062   4.462  10.467  1.2500  0.0311 -0.6333
  385MOL0     H50810   0.915   4.347  10.572  0.1197  3.0193 -0.1171
  385MOL0     H50811   0.799   4.346  10.437 -1.0893 -1.2081 -0.8559
  385MOL0     H50812   0.719   4.176  10.602 -0.5935  0.0528  3.0316
  385MOL0     H50813   0.700   4.308  10.723  0.1093 -0.6790  0.9541
  385MOL0     H50814   0.491   4.236  10.568  2.6224 -1.7406  0.7297
  385MOL0     H50815   0.562   4.327  10.446  0.9015 -0.1839  0.9739
  385MOL0     H50816   0.555   4.468  10.712  0.8781 -1.0747 -0.2980
  385MOL0     H50817   0.551   4.538  10.550  0.5215 -0.3870 -0.1881
  385MOL0     H50818   0.141   4.439  10.581  0.7193 -1.9177  1.6488
  385MOL0     H50819   0.726   4.745  10.521  0.1002 -2.0206 -0.5511
  385MOL0     H50820   0.850   4.902  10.393  1.0570  0.6352  4.8038
  386MOL0     O50821   2.848   5.385   4.746  0.3087 -0.2368 -0.0759
  386MOL0     C50822   2.776   5.462   4.685 -0.2810 -0.2775  0.5930
  386MOL0     O50823   2.639   5.457   4.696  0.8974  0.0115  0.2544
  386MOL0     C50824   2.575   5.342   4.739  0.2437  0.7655  0.0835
  386MOL0     C50825   2.501   5.269   4.657  0.4505  1.3836  0.8048
  386MOL0     C50826   2.448   5.148   4.698 -0.2903  0.4577 -0.4068
  386MOL0     C50827   2.454   5.102   4.830  1.1080 -0.1552  0.6084
  386MOL0     O50828   2.394   4.985   4.843  1.0032  0.1509 -0.3358
  386MOL0     C50829   2.345   4.948   4.973 -0.0348  0.2877 -0.0321
  386MOL0     C50830   2.246   4.833   4.951  0.2734  0.6021 -0.7622
  386MOL0     C50831   2.207   4.762   5.080 -0.0771  0.8597 -0.0717
  386MOL0     C50832   2.112   4.646   5.043  0.0714  0.4838 -1.2616
  386MOL0     C50833   2.068   4.570   5.169 -0.0666 -0.1915 -0.3336
  386MOL0     C50834   1.975   4.444   5.139 -0.8091  0.1935  0.3340
  386MOL0     C50835   1.946   4.370   5.270  0.1634 -0.2049 -0.1612
  386MOL0     C50836   1.839   4.264   5.243  0.3583  1.1716  0.2268
  386MOL0     N50837   1.830   4.166   5.356  0.1039 -0.0184  0.6723
  386MOL0     C50838   1.804   4.199   5.490 -0.8072 -0.5227  0.1275
  386MOL0     C50839   1.800   4.079   5.553  0.6990 -1.1419  0.1170
  386MOL0     C50840   1.767   4.062   5.701 -0.3288 -0.0118  0.3398
  386MOL0     C50841   1.627   4.022   5.734  0.0178 -0.8327  0.8298
  386MOL0     C50842   1.629   4.002   5.889  0.0375  0.4638 -0.3932
  386MOL0     C50843   1.498   3.946   5.939  0.5433 -0.0473 -0.1853
  386MOL0     O50844   1.388   4.038   5.914  0.0567 -0.0981  0.5910
  386MOL0     C50845   1.275   4.011   5.989  0.0379  0.4289 -0.6334
  386MOL0     C50846   1.170   3.924   5.943 -0.1303 -0.6411  1.3684
  386MOL0     C50847   1.047   3.915   6.018 -0.6933 -0.5143  0.2869
  386MOL0     C50848   1.025   3.997   6.128  0.2742  0.0940  1.1585
  386MOL0     C50849   0.906   3.991   6.213 -0.2854 -0.2508  0.3656
  386MOL0     O50850   0.889   4.089   6.313 -0.6137 -0.3472 -0.3682
  386MOL0     C50851   0.757   4.118   6.350 -0.2047  0.3081  1.3429
  386MOL0     C50852   0.706   4.086   6.476  0.3799 -0.6027  0.0562
  386MOL0     C50853   0.574   4.114   6.510  0.0071 -0.3470 -0.3756
  386MOL0     C50854   0.486   4.176   6.412 -0.0305 -0.3440 -0.3141
  386MOL0     O50855   0.359   4.209   6.428 -0.0732  0.0838  0.8965
  386MOL0     C50856   0.297   4.144   6.540  0.0289 -0.7998  0.6005
  386MOL0     C50857   0.147   4.160   6.533  0.7046 -0.2495 -0.6718
  386MOL0     C50858   0.107   4.300   6.535  0.8658 -0.6774 -0.2643
  386MOL0     C50859  -0.040   4.319   6.492  0.6817 -1.6163  0.5578
  386MOL0     C50860  -0.155   4.286   6.590 -0.2567 -0.2004  0.8708
  386MOL0     C50861  -0.299   4.268   6.519 -0.1225 -0.3308  0.7079
  386MOL0     C50862  -0.377   4.196   6.636 -0.1009 -0.3679 -0.4181
  386MOL0     C50863  -0.526   4.218   6.635  0.3763  0.4088 -0.0616
  386MOL0    Cl50864  -0.606   4.158   6.496  0.3313  0.1281  0.1670
  386MOL0     C50865   0.537   4.200   6.283 -0.1788  0.5471 -0.4536
  386MOL0     C50866   0.672   4.169   6.255  0.5638 -0.0296  0.3928
  386MOL0     O50867   0.823   3.900   6.188 -0.6800 -0.4708  0.3542
  386MOL0     C50868   1.128   4.084   6.166 -0.1438  0.2360 -0.2988
  386MOL0     C50869   1.252   4.099   6.103 -0.1881 -1.3575  0.4232
  386MOL0     N50870   1.822   3.978   5.453  0.4384 -0.2385  0.1866
  386MOL0     N50871   1.844   4.030   5.337 -0.1069  0.4742 -0.9422
  386MOL0     C50872   2.518   5.183   4.927  0.3338 -0.4716 -1.1247
  386MOL0     C50873   2.574   5.311   4.881  0.7028  0.0786 -0.3275
  386MOL0     C50874   2.836   5.563   4.596 -0.8166  1.0053  0.6209
  386MOL0     C50875   2.971   5.552   4.567  0.0727  0.0904  0.0406
  386MOL0     C50876   3.028   5.642   4.480  0.1104  0.1631 -0.5076
  386MOL0     C50877   2.969   5.756   4.431  0.4299  0.4465  0.9712
  386MOL0     O50878   3.040   5.855   4.362  0.3118 -1.4836  0.2097
  386MOL0     C50879   3.002   5.869   4.224  0.3768  0.9027  0.2006
  386MOL0     C50880   3.121   5.942   4.154  1.3453 -0.3735  0.1022
  386MOL0     C50881   3.082   6.033   4.038  0.4542 -0.1849  0.7817
  386MOL0     C50882   3.074   5.953   3.890 -0.2605 -0.4122 -1.1345
  386MOL0     C50883   3.188   5.884   3.844  0.1787  0.8045  0.3279
  386MOL0     C50884   3.281   5.814   3.794 -0.4205  0.5428  0.3043
  386MOL0     C50885   2.838   5.777   4.467  0.6349  1.0524  0.0042
  386MOL0     C50886   2.773   5.679   4.547  0.5312  0.1445  0.0022
  386MOL0     H50887   2.500   5.306   4.555  0.6753 -0.5708  0.0554
  386MOL0     H50888   2.389   5.090   4.628 -2.4357  3.1205 -0.9902
  386MOL0     H50889   2.298   5.034   5.020  3.6866  3.5136 -1.5891
  386MOL0     H50890   2.433   4.908   5.025  0.4982  2.2208  0.6240
  386MOL0     H50891   2.285   4.754   4.886  4.0442 -1.1888  3.1103
  386MOL0     H50892   2.159   4.869   4.896  1.5857  1.6769 -2.2382
  386MOL0     H50893   2.166   4.838   5.148 -0.2803 -0.0678  0.8691
  386MOL0     H50894   2.296   4.715   5.123  1.0406  2.2458 -0.7815
  386MOL0     H50895   2.021   4.684   4.997 -1.0770 -1.8645 -1.0757
  386MOL0     H50896   2.158   4.579   4.969  1.5605  0.5666 -0.4619
  386MOL0     H50897   2.029   4.643   5.240  2.7934  0.8388  0.2926
  386MOL0     H50898   2.158   4.528   5.215  1.1180  0.0243 -2.3332
  386MOL0     H50899   2.034   4.381   5.071  1.3784  1.3762  1.0303
  386MOL0     H50900   1.876   4.466   5.099 -0.6154 -1.8314 -1.4576
  386MOL0     H50901   2.039   4.324   5.304  1.1418  0.7425 -1.4291
  386MOL0     H50902   1.918   4.426   5.360  0.5848  0.8286 -0.6481
  386MOL0     H50903   1.869   4.208   5.154 -3.3530 -1.1870  0.2500
  386MOL0     H50904   1.738   4.306   5.243 -0.4080 -0.5885  0.4718
  386MOL0     H50905   1.767   4.295   5.526  2.8775  1.2244 -0.3167
  386MOL0     H50906   1.788   4.150   5.762 -0.4873 -1.9972  3.4920
  386MOL0     H50907   1.840   3.993   5.744  2.1637  4.4101  4.0783
  386MOL0     H50908   1.603   3.930   5.680 -3.2326 -0.1191  0.8830
  386MOL0     H50909   1.566   4.109   5.710 -1.2732 -2.1386 -0.8124
  386MOL0     H50910   1.711   3.931   5.910 -1.3800 -0.9736  0.5453
  386MOL0     H50911   1.645   4.097   5.940 -2.4464  0.1166  1.1944
  386MOL0     H50912   1.511   3.932   6.047 -0.5776  0.5240  0.0283
  386MOL0     H50913   1.485   3.845   5.898  1.1309 -1.1648  2.1845
  386MOL0     H50914   1.189   3.863   5.855  2.2169  1.7513  0.0846
  386MOL0     H50915   0.967   3.856   5.975  0.6381 -1.5709 -0.8698
  386MOL0     H50916   0.761   4.046   6.560  0.6917  1.9186  1.1452
  386MOL0     H50917   0.543   4.079   6.608  0.6223 -0.0626 -0.0709
  386MOL0     H50918   0.326   4.179   6.640  0.6649  0.5309 -0.0194
  386MOL0     H50919   0.317   4.038   6.525  0.3703 -0.5773 -0.6112
  386MOL0     H50920   0.100   4.095   6.608  1.3408 -0.2982 -0.3140
  386MOL0     H50921   0.118   4.114   6.438  0.2656  2.0252 -1.7043
  386MOL0     H50922   0.165   4.352   6.458 -1.8177  0.0874 -1.9290
  386MOL0     H50923   0.128   4.355   6.627 -2.2553  2.0261 -0.9701
  386MOL0     H50924  -0.054   4.424   6.465 -0.5678 -2.3414 -1.8605
  386MOL0     H50925  -0.069   4.264   6.402  2.1259 -1.0260 -0.3148
  386MOL0     H50926  -0.153   4.366   6.663  1.1328 -0.8757  1.6056
  386MOL0     H50927  -0.119   4.192   6.632  1.1572  1.2041  2.9450
  386MOL0     H50928  -0.285   4.212   6.426  2.2118  1.9665 -0.4322
  386MOL0     H50929  -0.340   4.367   6.502 -2.0383 -1.2896 -0.6331
  386MOL0     H50930  -0.354   4.091   6.617  0.1221  0.0479 -2.7589
  386MOL0     H50931  -0.338   4.227   6.733  1.8276 -0.5384 -1.0957
  386MOL0     H50932  -0.529   4.327   6.647  0.6900  0.3660  0.4371
  386MOL0     H50933  -0.564   4.163   6.721  0.6062  1.5530  0.7938
  386MOL0     H50934   0.475   4.239   6.203 -0.1637  0.0610 -0.7075
  386MOL0     H50935   0.703   4.188   6.153 -0.9857  1.0078  0.0805
  386MOL0     H50936   1.110   4.148   6.251  0.4440 -0.8696  0.6826
  386MOL0     H50937   1.330   4.172   6.125 -0.9607  0.6631 -2.8762
  386MOL0     H50938   2.532   5.151   5.030  4.0460  0.3198 -1.2450
  386MOL0     H50939   2.611   5.393   4.942  1.6050  1.5512 -2.7390
  386MOL0     H50940   3.036   5.472   4.599 -0.8384  0.4176  2.9901
  386MOL0     H50941   3.126   5.623   4.436  0.0591 -1.6963  0.0713
  386MOL0     H50942   2.909   5.926   4.236 -1.5281 -2.3476  2.6910
  386MOL0     H50943   2.978   5.778   4.168  1.9350 -0.1930  1.2107
  386MOL0     H50944   3.174   6.005   4.226 -0.1612  1.6789 -0.4725
  386MOL0     H50945   3.184   5.861   4.116 -0.7946 -2.5833  0.9821
  386MOL0     H50946   3.159   6.111   4.034 -0.3886  0.6398  0.2065
  386MOL0     H50947   2.992   6.094   4.052  0.4517  0.5782 -1.9762
  386MOL0     H50948   2.983   5.894   3.899 -1.5325  1.6581  0.4910
  386MOL0     H50949   3.041   6.030   3.820 -1.6433 -0.2808 -0.3777
  386MOL0     H50950   3.350   5.755   3.739 -1.4052  0.4633 -0.8893
  386MOL0     H50951   2.807   5.880   4.456 -0.8543  0.3564 -5.2406
  386MOL0     H50952   2.667   5.692   4.566  0.4069 -1.9016  1.0251
  387MOL0     O50953   0.678  10.206  10.712 -0.4422 -0.5068  0.0578
  387MOL0     C50954   0.797  10.224  10.725 -0.4050 -0.2483  0.3818
  387MOL0     O50955   0.878  10.289  10.633 -0.0581 -0.2104 -0.1595
  387MOL0     C50956   0.828  10.320  10.503 -0.3293  0.5002 -0.7745
  387MOL0     C50957   0.773  10.227  10.418  0.7349  0.1540  0.6353
  387MOL0     C50958   0.735  10.260  10.289 -0.5238  0.5191 -0.0398
  387MOL0     C50959   0.764  10.390  10.240 -0.2106 -0.4959  0.3317
  387MOL0     O50960   0.722  10.420  10.110  0.3718  0.4856  0.2208
  387MOL0     C50961   0.602  10.359  10.056 -0.1165  0.7175 -0.6090
  387MOL0     C50962   0.587  10.404   9.909 -0.0341  0.1549 -0.7205
  387MOL0     C50963   0.684  10.336   9.809 -0.2165  0.4160  0.7226
  387MOL0     C50964   0.618  10.207   9.754 -0.0599 -0.0144  0.5768
  387MOL0     C50965   0.699  10.152   9.634  0.5600  0.3474 -0.0442
  387MOL0     C50966   0.854  10.157   9.660 -0.1695 -0.7854  1.0915
  387MOL0     C50967   0.931  10.066   9.558  0.1820 -0.0515 -0.3414
  387MOL0     C50968   0.963  10.149   9.434  0.5828  0.3258  0.1739
  387MOL0     N50969   1.031  10.064   9.337  0.7706  0.2195  0.3803
  387MOL0     C50970   0.976   9.951   9.274  0.5698  0.9074 -0.2833
  387MOL0     C50971   1.062   9.905   9.181  0.0760  0.2973 -0.7910
  387MOL0     C50972   1.060   9.785   9.091 -0.2841  0.9054  1.1021
  387MOL0     C50973   0.951   9.782   8.988 -0.6160 -1.0032 -0.7141
  387MOL0     C50974   0.944   9.650   8.912 -0.4892  0.3869  0.3103
  387MOL0     C50975   0.879   9.541   8.985  0.2783  0.4182  0.3485
  387MOL0     O50976   0.744   9.575   8.969  0.1753  0.2377 -0.0644
  387MOL0     C50977   0.639   9.489   9.012  0.7878  0.4748  0.2852
  387MOL0     C50978   0.656   9.350   9.051  0.1310 -0.5639 -0.2759
  387MOL0     C50979   0.545   9.279   9.094 -0.3385  0.1428  0.0504
  387MOL0     C50980   0.414   9.336   9.108  0.3585 -0.2208 -0.7605
  387MOL0     C50981   0.296   9.259   9.151  0.1437 -0.4601 -0.2600
  387MOL0     O50982   0.319   9.124   9.163  0.4597  0.4671 -0.3448
  387MOL0     C50983   0.239   9.026   9.217 -0.4914 -0.0464  0.6633
  387MOL0     C50984   0.284   8.903   9.191 -0.9717  0.7212  0.2255
  387MOL0     C50985   0.213   8.797   9.247 -0.2131  0.7926 -0.5072
  387MOL0     C50986   0.107   8.817   9.340  0.0407  0.4738 -0.6010
  387MOL0     O50987   0.057   8.702   9.392 -0.0466  0.5890 -0.0378
  387MOL0     C50988  -0.072   8.717   9.454  0.5098  0.1541 -0.6709
  387MOL0     C50989  -0.068   8.767   9.604 -0.2122 -0.0581 -0.4107
  387MOL0     C50990  -0.027   8.642   9.687 -0.7612 -0.2829 -0.9330
  387MOL0     C50991  -0.102   8.625   9.817 -0.5988  0.7468  0.5871
  387MOL0     C50992  -0.104   8.749   9.911 -0.5515  0.9865 -0.0313
  387MOL0     C50993  -0.170   8.708  10.050 -0.2858 -0.1956  0.0081
  387MOL0     C50994  -0.136   8.827  10.143 -0.1066 -0.4058 -0.1000
  387MOL0     C50995  -0.242   8.855  10.250  1.1617 -0.1807  0.4515
  387MOL0    Cl50996  -0.405   8.894  10.182  0.4794  0.2186  0.2927
  387MOL0     C50997   0.070   8.950   9.371  0.6751 -0.0341 -0.1986
  387MOL0     C50998   0.139   9.050   9.307  0.5483 -0.5748 -0.5424
  387MOL0     O50999   0.188   9.315   9.169  0.5178  0.3345 -0.1975
  387MOL0     C51000   0.405   9.475   9.080  0.5002  0.6243  0.3499
  387MOL0     C51001   0.512   9.550   9.032 -0.1714 -0.9766  0.7439
  387MOL0     N51002   1.177   9.983   9.194 -0.1222 -0.0658 -0.3850
  387MOL0     N51003   1.154  10.072   9.286 -0.4143 -0.5202  0.0765
  387MOL0     C51004   0.837  10.480  10.323  0.0318  1.2745 -0.0240
  387MOL0     C51005   0.862  10.445  10.453 -0.0406  1.1613 -0.5372
  387MOL0     C51006   0.858  10.176  10.845 -0.4945 -0.0318 -1.0711
  387MOL0     C51007   0.990  10.208  10.872 -0.6921 -1.1489  0.1853
  387MOL0     C51008   1.055  10.188  10.990 -0.4228 -0.7087  0.3027
  387MOL0     C51009   0.979  10.127  11.093  0.1410  0.1605 -0.3628
  387MOL0     O51010   1.028  10.104  11.219 -0.5349  0.4202  0.9423
  387MOL0     C51011   1.173  10.087  11.236  0.0646  0.3660 -0.6470
  387MOL0     C51012   1.240   9.964  11.162  0.3852 -0.2806 -0.1947
  387MOL0     C51013   1.161   9.837  11.180  0.9028 -0.2952  0.5880
  387MOL0     C51014   1.133   9.794  11.329 -0.3416  1.0466 -0.5984
  387MOL0     C51015   1.261   9.775  11.403 -0.9630  0.3072  0.5629
  387MOL0     C51016   1.375   9.759  11.447 -0.3953 -0.2553  0.7700
  387MOL0     C51017   0.848  10.086  11.070 -1.2553 -0.5765 -1.2099
  387MOL0     C51018   0.785  10.112  10.945 -0.0626  0.1263 -0.8212
  387MOL0     H51019   0.744  10.128  10.453 -0.6720 -0.2039 -1.3464
  387MOL0     H51020   0.698  10.188  10.218 -1.1874  3.8025 -3.3408
  387MOL0     H51021   0.511  10.382  10.111 -0.3835 -1.4901 -0.0059
  387MOL0     H51022   0.604  10.249  10.059 -2.2503  0.6584 -0.2132
  387MOL0     H51023   0.591  10.514   9.905  0.7062  0.4319  3.3967
  387MOL0     H51024   0.485  10.373   9.885  0.6624 -2.0385 -1.0403
  387MOL0     H51025   0.777  10.306   9.858 -0.2346 -4.4979 -1.6663
  387MOL0     H51026   0.695  10.402   9.722 -0.4136  0.5070  0.7673
  387MOL0     H51027   0.615  10.126   9.827  2.8401  2.1762  3.4366
  387MOL0     H51028   0.517  10.230   9.719 -0.3507 -3.5316 -1.3376
  387MOL0     H51029   0.687  10.195   9.534  1.4180  2.3333  0.6642
  387MOL0     H51030   0.657  10.052   9.619  0.9065  0.5024 -2.5616
  387MOL0     H51031   0.871  10.113   9.759  0.2669 -1.3041  0.7916
  387MOL0     H51032   0.900  10.256   9.659 -0.3313 -0.6915  1.9958
  387MOL0     H51033   1.027  10.040   9.604  0.3316  1.7324  0.4305
  387MOL0     H51034   0.867   9.980   9.539  2.9597 -1.5699 -3.9322
  387MOL0     H51035   1.022  10.237   9.461  2.3252 -0.3349 -1.2024
  387MOL0     H51036   0.869  10.177   9.385 -0.6475  0.4730  2.5160
  387MOL0     H51037   0.892   9.893   9.311  0.8073  1.2576  0.8338
  387MOL0     H51038   1.042   9.702   9.161 -0.0750 -1.6996 -1.7346
  387MOL0     H51039   1.156   9.770   9.042  0.3688 -5.6341  3.4269
  387MOL0     H51040   0.955   9.873   8.927 -2.6052 -0.5472 -0.2515
  387MOL0     H51041   0.860   9.802   9.045 -0.6323  2.8895 -1.8341
  387MOL0     H51042   0.895   9.656   8.815 -2.2203 -1.5290  0.9952
  387MOL0     H51043   1.049   9.626   8.891 -0.0928  3.0709 -1.2576
  387MOL0     H51044   0.904   9.530   9.091  0.1514  1.2036  0.4638
  387MOL0     H51045   0.902   9.449   8.931 -1.6992  1.1965 -2.0223
  387MOL0     H51046   0.740   9.283   9.038  1.9120  1.8056 -1.8420
  387MOL0     H51047   0.574   9.179   9.125  1.9429  1.7197  3.7735
  387MOL0     H51048   0.368   8.882   9.126  0.8940 -2.2511  3.2250
  387MOL0     H51049   0.242   8.695   9.224  1.1472  1.1642 -0.5522
  387MOL0     H51050  -0.117   8.618   9.454  2.1926 -0.6521 -1.1122
  387MOL0     H51051  -0.135   8.772   9.384  2.2049 -0.7718 -3.0536
  387MOL0     H51052  -0.161   8.814   9.638 -0.4827 -1.3012  0.6300
  387MOL0     H51053   0.007   8.844   9.622 -1.3981  1.3101 -1.0704
  387MOL0     H51054   0.077   8.659   9.715 -0.9675 -1.9513  1.0402
  387MOL0     H51055  -0.037   8.548   9.631 -0.6128 -0.5234 -0.5592
  387MOL0     H51056  -0.201   8.585   9.796  0.4649 -0.8218 -1.8672
  387MOL0     H51057  -0.055   8.537   9.862 -1.4367  0.4245  0.8540
  387MOL0     H51058  -0.164   8.823   9.857 -0.4894  2.2172  1.4978
  387MOL0     H51059  -0.000   8.778   9.927 -0.8577  2.7973 -1.0254
  387MOL0     H51060  -0.121   8.619  10.091  1.0279 -0.3682 -1.8339
  387MOL0     H51061  -0.274   8.675  10.041 -0.8173  1.1159  1.1133
  387MOL0     H51062  -0.039   8.810  10.193 -0.2694  1.2183  0.8483
  387MOL0     H51063  -0.121   8.917  10.083  0.9933  0.9795  2.1131
  387MOL0     H51064  -0.204   8.925  10.324  1.2599 -0.5216  0.7297
  387MOL0     H51065  -0.263   8.755  10.291  1.7809 -1.3308 -1.8353
  387MOL0     H51066  -0.010   8.967   9.443 -0.1878 -1.8361 -0.6695
  387MOL0     H51067   0.106   9.150   9.330  0.5356 -0.8657  0.7968
  387MOL0     H51068   0.307   9.518   9.097  0.3830  0.5684 -0.1725
  387MOL0     H51069   0.511   9.653   8.999  0.2232 -1.9496 -2.6133
  387MOL0     H51070   0.868  10.577  10.286 -1.3301  0.5292 -3.4529
  387MOL0     H51071   0.914  10.490  10.537  0.6789 -3.9515  2.0953
  387MOL0     H51072   1.054  10.260  10.801  0.2118 -2.1897  0.2187
  387MOL0     H51073   1.157  10.225  11.000 -0.8910  0.7441 -0.0384
  387MOL0     H51074   1.199  10.087  11.342  3.5713 -1.4505 -1.3874
  387MOL0     H51075   1.220  10.181  11.206 -1.4621  2.3624  2.5665
  387MOL0     H51076   1.240   9.993  11.056  2.1109  1.5805  0.2662
  387MOL0     H51077   1.340   9.965  11.206 -2.3378  0.1368  7.4154
  387MOL0     H51078   1.204   9.753  11.126 -1.8078  0.1278 -2.5057
  387MOL0     H51079   1.064   9.865  11.137  0.4225  3.5966  3.5612
  387MOL0     H51080   1.076   9.865  11.389 -1.0363  0.5342 -0.6424
  387MOL0     H51081   1.082   9.698  11.334 -1.0246  1.4246 -0.2007
  387MOL0     H51082   1.476   9.756  11.482  0.1375 -2.0616 -0.7395
  387MOL0     H51083   0.796  10.021  11.140  1.5995 -3.4497 -1.4815
  387MOL0     H51084   0.685  10.072  10.928 -0.0196  0.8172 -2.9721
  388MOL0     O51085   9.251   1.416   4.853  0.8931 -0.2748 -0.1612
  388MOL0     C51086   9.252   1.305   4.798  0.0660 -0.5532 -0.2778
  388MOL0     O51087   9.143   1.223   4.783  0.1681  0.1248 -0.0854
  388MOL0     C51088   9.017   1.247   4.826 -0.8450 -0.5787  0.7205
  388MOL0     C51089   8.961   1.160   4.918  0.7012 -0.6861  0.5381
  388MOL0     C51090   8.827   1.165   4.946  0.1508  0.5691 -0.6151
  388MOL0     C51091   8.743   1.265   4.897  0.1530  0.6666  0.3946
  388MOL0     O51092   8.610   1.290   4.934 -0.0093 -0.0425  0.2131
  388MOL0     C51093   8.574   1.211   5.041 -0.4148  0.1770  0.3441
  388MOL0     C51094   8.425   1.231   5.046 -1.1556  0.1346 -0.1267
  388MOL0     C51095   8.362   1.150   5.168  0.2204 -0.8565  0.2866
  388MOL0     C51096   8.214   1.187   5.192 -0.6592  0.1209 -0.5095
  388MOL0     C51097   8.167   1.093   5.301 -0.0490  0.0580 -0.0129
  388MOL0     C51098   8.026   1.117   5.344 -0.1051 -0.4832  0.3594
  388MOL0     C51099   7.927   1.098   5.228 -0.2372 -0.2554 -0.1100
  388MOL0     C51100   7.793   1.064   5.286  0.7835 -0.4407 -1.0994
  388MOL0     N51101   7.682   1.069   5.189 -0.3010  0.0986  0.8095
  388MOL0     C51102   7.667   1.141   5.064  0.5632  0.5293  0.1365
  388MOL0     C51103   7.572   1.080   4.992  0.1190  0.4512 -0.1192
  388MOL0     C51104   7.514   1.115   4.856  0.3139 -0.5553  0.0602
  388MOL0     C51105   7.383   1.176   4.898  0.8361 -0.2542 -0.0379
  388MOL0     C51106   7.316   1.229   4.772  0.2143  0.4495  0.0283
  388MOL0     C51107   7.273   1.117   4.675 -0.1708 -0.3629 -0.2820
  388MOL0     O51108   7.225   1.001   4.748  0.1719 -0.1192  0.0518
  388MOL0     C51109   7.097   1.008   4.799 -0.1693  0.5650 -0.0896
  388MOL0     C51110   7.005   0.973   4.702 -0.5075 -0.8829  0.8187
  388MOL0     C51111   6.869   0.997   4.716  0.1388 -0.1835 -0.9566
  388MOL0     C51112   6.829   1.050   4.842  0.1792 -0.1070  0.3476
  388MOL0     C51113   6.688   1.073   4.872  1.0687  0.6936  0.6867
  388MOL0     O51114   6.655   1.106   4.996 -0.3095  0.7598 -0.5690
  388MOL0     C51115   6.518   1.104   5.033  0.4361  1.0392  0.0719
  388MOL0     C51116   6.423   1.190   4.993  0.3254  1.1041  0.4424
  388MOL0     C51117   6.288   1.178   5.019  0.6055  0.3291  0.7833
  388MOL0     C51118   6.245   1.064   5.088 -0.3126 -0.3175 -0.2862
  388MOL0     O51119   6.116   1.036   5.133 -0.1215  0.5787  0.2265
  388MOL0     C51120   6.009   1.111   5.082 -0.1597  0.3758  0.5646
  388MOL0     C51121   5.885   1.030   5.098 -0.6787  1.0736  0.0015
  388MOL0     C51122   5.865   0.997   5.242  1.4793 -0.3250 -1.2040
  388MOL0     C51123   5.741   0.916   5.262 -0.3339 -0.4754 -0.5537
  388MOL0     C51124   5.724   0.878   5.406 -0.2079  0.5821  0.1357
  388MOL0     C51125   5.600   0.784   5.426 -0.7106 -0.2707  0.4180
  388MOL0     C51126   5.603   0.696   5.551  0.2844  0.2797  0.0560
  388MOL0     C51127   5.694   0.572   5.530  1.1458  0.2120 -0.0851
  388MOL0    Cl51128   5.695   0.455   5.663  0.3506 -0.2771  0.1905
  388MOL0     C51129   6.345   0.971   5.136 -0.4202 -0.3154  0.0323
  388MOL0     C51130   6.479   0.996   5.113 -0.4328 -0.4999 -0.9614
  388MOL0     O51131   6.607   1.046   4.780  0.2620  0.4077  0.3440
  388MOL0     C51132   6.917   1.068   4.943 -0.2204  0.1551  0.3290
  388MOL0     C51133   7.053   1.063   4.920  0.9742  0.5690  0.6941
  388MOL0     N51134   7.524   0.975   5.063  0.7953 -0.4347 -0.1101
  388MOL0     N51135   7.594   0.973   5.175 -0.1815  0.5401 -0.5028
  388MOL0     C51136   8.803   1.360   4.812 -0.0415  0.9839 -0.1586
  388MOL0     C51137   8.939   1.342   4.763 -0.5146  0.4092 -0.8967
  388MOL0     C51138   9.383   1.269   4.752  0.3790  0.0246  0.0220
  388MOL0     C51139   9.498   1.340   4.776  1.3078  0.7629  0.6374
  388MOL0     C51140   9.622   1.326   4.702 -0.2209  0.5522  0.1366
  388MOL0     C51141   9.631   1.220   4.610 -0.3250 -1.1761  0.1985
  388MOL0     O51142   9.747   1.175   4.551 -0.0468 -0.9240  0.1757
  388MOL0     C51143   9.850   1.282   4.534  0.7241 -0.5515  1.0548
  388MOL0     C51144   9.950   1.236   4.430 -0.1460 -0.2381  0.1384
  388MOL0     C51145  10.018   1.099   4.471 -0.1926 -0.1285 -0.3391
  388MOL0     C51146  10.107   1.101   4.602  0.5431 -0.0079 -0.0801
  388MOL0     C51147  10.159   0.962   4.626  0.9124 -0.3228 -0.1649
  388MOL0     C51148  10.194   0.845   4.655  0.1654  0.1252 -0.7085
  388MOL0     C51149   9.520   1.134   4.596 -0.3995 -0.5259 -0.0507
  388MOL0     C51150   9.390   1.160   4.661 -0.3248  0.6175 -0.0698
  388MOL0     H51151   9.021   1.090   4.974  2.1753  1.3954  1.7068
  388MOL0     H51152   8.787   1.095   5.018 -1.7961  1.4829 -0.7537
  388MOL0     H51153   8.630   1.241   5.130  1.4249  0.2133 -0.7640
  388MOL0     H51154   8.585   1.103   5.024 -0.4186  0.0070  1.3549
  388MOL0     H51155   8.385   1.198   4.949 -3.1036 -0.4494  0.8251
  388MOL0     H51156   8.418   1.339   5.060 -0.5465  0.2431 -0.6337
  388MOL0     H51157   8.423   1.170   5.257 -0.4950  0.4370  0.5176
  388MOL0     H51158   8.366   1.042   5.154  2.3327 -0.3961 -4.2100
  388MOL0     H51159   8.201   1.291   5.222 -2.1736 -1.0811  3.6657
  388MOL0     H51160   8.170   1.178   5.092 -0.5473 -4.0919 -0.3452
  388MOL0     H51161   8.234   1.100   5.387 -1.2543  1.3977  0.8662
  388MOL0     H51162   8.167   0.992   5.258 -1.0544  0.4932 -1.1001
  388MOL0     H51163   8.010   1.220   5.377  0.9851 -0.4033  0.6827
  388MOL0     H51164   7.998   1.045   5.421  2.2288 -2.7435 -0.7857
  388MOL0     H51165   7.934   1.183   5.159  1.2917 -0.8599 -0.7349
  388MOL0     H51166   7.952   1.008   5.171  0.6069 -1.2719  1.7590
  388MOL0     H51167   7.752   1.114   5.374 -2.8442  0.2676 -2.9677
  388MOL0     H51168   7.809   0.960   5.317  3.0489 -0.0664 -0.8854
  388MOL0     H51169   7.722   1.226   5.026  1.5856  0.3020  1.0809
  388MOL0     H51170   7.500   1.020   4.803 -2.2185 -1.2559  1.8233
  388MOL0     H51171   7.572   1.184   4.795  0.2627 -2.4327 -2.2472
  388MOL0     H51172   7.408   1.262   4.960  1.2261  0.9372 -1.7548
  388MOL0     H51173   7.312   1.108   4.946 -1.3345  0.2008 -2.3408
  388MOL0     H51174   7.230   1.286   4.808  1.7416  2.4587  0.7504
  388MOL0     H51175   7.384   1.296   4.718  1.3829 -0.0908  0.7723
  388MOL0     H51176   7.362   1.089   4.618  0.6011  0.4107  0.5248
  388MOL0     H51177   7.190   1.156   4.615  1.3276  1.0592 -1.5579
  388MOL0     H51178   7.038   0.970   4.599 -0.8013 -0.5314  0.7111
  388MOL0     H51179   6.798   0.985   4.635  0.3776  0.0095 -1.1933
  388MOL0     H51180   6.461   1.279   4.943  0.2390 -0.1962 -2.0551
  388MOL0     H51181   6.218   1.249   4.975  2.6358  2.8617  1.4532
  388MOL0     H51182   6.017   1.139   4.976 -1.6934  2.4970  0.9370
  388MOL0     H51183   5.995   1.207   5.133 -0.0692  1.8010 -1.8906
  388MOL0     H51184   5.903   0.942   5.035 -1.0217  0.9729  0.0433
  388MOL0     H51185   5.800   1.085   5.057 -3.0089 -1.7525  0.6339
  388MOL0     H51186   5.862   1.099   5.281 -1.2891 -0.8742  0.2659
  388MOL0     H51187   5.951   0.945   5.286  1.6483 -0.3743 -1.5890
  388MOL0     H51188   5.656   0.977   5.232  0.0822  2.1371  2.9813
  388MOL0     H51189   5.750   0.825   5.201 -0.5142 -1.0725  0.2899
  388MOL0     H51190   5.718   0.969   5.465  1.3174  0.4978  0.4776
  388MOL0     H51191   5.816   0.823   5.429 -0.9565 -0.8331 -0.1365
  388MOL0     H51192   5.582   0.714   5.344 -1.2208 -2.6424  2.4489
  388MOL0     H51193   5.517   0.855   5.439 -0.3106  0.1598  0.6562
  388MOL0     H51194   5.624   0.743   5.647 -0.1551  0.7201 -0.0576
  388MOL0     H51195   5.501   0.659   5.564 -1.0923  2.5972 -2.8516
  388MOL0     H51196   5.796   0.606   5.509  1.4514 -1.1463 -0.9018
  388MOL0     H51197   5.665   0.515   5.442  2.0726  0.2437 -0.4211
  388MOL0     H51198   6.304   0.894   5.200  0.4482 -0.3991  0.5018
  388MOL0     H51199   6.554   0.933   5.159  0.3952  1.3060  0.2533
  388MOL0     H51200   6.891   1.098   5.044  1.4442  0.8222  0.5986
  388MOL0     H51201   7.115   1.103   5.000  0.2659 -0.9538  2.0906
  388MOL0     H51202   8.745   1.441   4.768 -2.8927 -0.4212  0.7371
  388MOL0     H51203   8.979   1.408   4.686  1.5644  1.7330  1.1332
  388MOL0     H51204   9.497   1.415   4.855  2.6112  0.1587  1.2611
  388MOL0     H51205   9.710   1.384   4.727  0.6667 -0.8958  0.5115
  388MOL0     H51206   9.891   1.298   4.634 -1.5430 -0.0161  1.9658
  388MOL0     H51207   9.802   1.376   4.504 -1.2085 -2.0577 -0.8862
  388MOL0     H51208   9.916   1.230   4.326 -1.3971  1.0969  0.4383
  388MOL0     H51209  10.028   1.313   4.422 -0.8422  0.4083 -0.7134
  388MOL0     H51210  10.079   1.064   4.387  2.0742 -1.3698  1.6704
  388MOL0     H51211   9.936   1.028   4.481  0.3223 -0.9846 -1.9394
  388MOL0     H51212  10.199   1.162   4.601  0.1600  0.6713  1.9645
  388MOL0     H51213  10.041   1.133   4.682 -0.0236 -0.3661 -0.4019
  388MOL0     H51214  10.215   0.741   4.669 -0.9410  0.0251  0.4061
  388MOL0     H51215   9.536   1.061   4.518  1.3905  0.4045 -0.6206
  388MOL0     H51216   9.314   1.092   4.624 -1.1324  0.6115  1.5397
  389MOL0     O51217   9.962   8.095   4.193 -0.4888  0.0768 -0.9192
  389MOL0     C51218   9.977   7.994   4.269  0.2282  0.2197 -0.0309
  389MOL0     O51219   9.899   7.888   4.262  0.2734 -0.8253 -0.4535
  389MOL0     C51220   9.786   7.889   4.176  0.3115  0.5943 -0.0637
  389MOL0     C51221   9.783   7.829   4.050  0.0869  0.1732  0.0063
  389MOL0     C51222   9.668   7.827   3.967 -0.5652  1.0610 -0.1446
  389MOL0     C51223   9.562   7.897   4.016  0.4489 -0.3178  1.1306
  389MOL0     O51224   9.455   7.909   3.922  0.2519  0.1013  0.3300
  389MOL0     C51225   9.325   7.880   3.966  0.0821  0.5898  0.2122
  389MOL0     C51226   9.260   7.816   3.842  0.3480 -0.8776 -0.0387
  389MOL0     C51227   9.334   7.698   3.784  0.4826  0.0370  0.5723
  389MOL0     C51228   9.234   7.586   3.734 -0.3334  0.2118  0.2856
  389MOL0     C51229   9.310   7.478   3.651 -0.3282  0.2179  0.0407
  389MOL0     C51230   9.413   7.398   3.735  0.6671  0.3965  1.0225
  389MOL0     C51231   9.343   7.290   3.826 -0.4783 -0.4145 -0.4590
  389MOL0     C51232   9.430   7.244   3.942 -0.1437 -0.5622  0.6251
  389MOL0     N51233   9.405   7.334   4.057 -0.3036  0.8957 -0.9832
  389MOL0     C51234   9.474   7.443   4.093  0.1067 -0.4623  0.1311
  389MOL0     C51235   9.420   7.484   4.207  0.5079 -0.2554 -1.0883
  389MOL0     C51236   9.476   7.605   4.277  0.2459 -0.7352  0.4604
  389MOL0     C51237   9.627   7.582   4.306  0.2304 -0.2552  0.9547
  389MOL0     C51238   9.668   7.453   4.374 -0.2918  0.1394  0.6845
  389MOL0     C51239   9.811   7.461   4.438 -0.9271  0.3021 -0.5138
  389MOL0     O51240   9.906   7.477   4.331  0.5560  0.4781  0.1625
  389MOL0     C51241  10.040   7.479   4.367  0.0818 -1.2151 -0.3434
  389MOL0     C51242  10.121   7.567   4.279  0.0330  0.4761 -0.1699
  389MOL0     C51243  10.261   7.576   4.294 -0.4835  0.2179 -0.6136
  389MOL0     C51244  10.319   7.507   4.403  0.0247 -0.2534 -0.5813
  389MOL0     C51245  10.459   7.529   4.434  0.8938  0.4366  0.7506
  389MOL0     O51246  10.537   7.627   4.374 -0.3174  0.3635 -0.3214
  389MOL0     C51247  10.667   7.643   4.427 -0.4831  0.7836  0.0718
  389MOL0     C51248  10.776   7.570   4.373 -0.2812 -0.2185  0.3030
  389MOL0     C51249  10.908   7.581   4.427 -0.2965  0.3627  0.9407
  389MOL0     C51250  10.926   7.676   4.522 -0.1053 -0.0982 -0.0390
  389MOL0     O51251  11.054   7.661   4.564  0.5852 -0.6443 -0.3966
  389MOL0     C51252  11.111   7.776   4.622  1.1345 -0.6304 -0.2691
  389MOL0     C51253  11.268   7.770   4.612  0.9206  0.1860 -0.1800
  389MOL0     C51254  11.327   7.649   4.692  0.6021 -0.3305 -0.4322
  389MOL0     C51255  11.285   7.647   4.840 -0.1685  0.5399  1.0113
  389MOL0     C51256  11.372   7.554   4.920 -0.4939 -0.5347  0.0567
  389MOL0     C51257  11.328   7.528   5.068  0.5446  0.3589  0.1153
  389MOL0     C51258  11.360   7.648   5.163  0.2288  0.0674 -1.2153
  389MOL0     C51259  11.312   7.615   5.306  0.3920  0.3185  0.2002
  389MOL0    Cl51260  11.144   7.677   5.332  0.4029 -0.0898  0.6588
  389MOL0     C51261  10.827   7.740   4.597  0.6757 -0.0777  0.0792
  389MOL0     C51262  10.697   7.730   4.538 -1.2988 -1.4658 -0.6314
  389MOL0     O51263  10.501   7.453   4.522 -0.3705  0.0533 -0.2201
  389MOL0     C51264  10.235   7.423   4.488 -0.1646  0.1288 -0.0967
  389MOL0     C51265  10.103   7.413   4.471  0.6993 -0.3700  0.0688
  389MOL0     N51266   9.320   7.390   4.247 -0.1439 -0.1370 -0.1948
  389MOL0     N51267   9.308   7.309   4.151 -0.6957  0.1686 -0.3529
  389MOL0     C51268   9.561   7.956   4.140 -0.2784  0.8439 -0.4034
  389MOL0     C51269   9.670   7.950   4.219  0.0523 -0.0882  0.6717
  389MOL0     C51270  10.074   7.980   4.378 -0.2529  0.4882  1.1395
  389MOL0     C51271  10.070   7.862   4.466 -0.4881 -0.6670  0.0235
  389MOL0     C51272  10.164   7.856   4.573 -0.0488  0.4254  0.0966
  389MOL0     C51273  10.250   7.956   4.606 -0.7111 -0.7836  0.5930
  389MOL0     O51274  10.311   7.953   4.734 -0.3191 -0.0417 -0.2259
  389MOL0     C51275  10.368   8.059   4.806  0.3721 -0.0063 -0.2044
  389MOL0     C51276  10.503   8.109   4.757  0.7454 -0.0196  0.9675
  389MOL0     C51277  10.608   8.003   4.791 -0.7702 -0.4013  0.1277
  389MOL0     C51278  10.638   7.985   4.948  0.2859  1.6713 -0.1813
  389MOL0     C51279  10.771   7.911   4.959  0.5465  0.4169  0.0090
  389MOL0     C51280  10.878   7.856   4.968 -0.3457  0.3378  0.0488
  389MOL0     C51281  10.248   8.069   4.520  0.5503 -1.4338 -0.5923
  389MOL0     C51282  10.168   8.082   4.404 -0.5291  0.6062 -0.1888
  389MOL0     H51283   9.876   7.775   4.033  1.5001  1.8785  1.8371
  389MOL0     H51284   9.679   7.787   3.867  0.7750  0.7053  0.1213
  389MOL0     H51285   9.270   7.972   3.984 -0.1832  0.4219  0.2739
  389MOL0     H51286   9.322   7.804   4.045  0.2180  1.2861  0.9027
  389MOL0     H51287   9.235   7.901   3.778 -1.1849  0.9388  2.7594
  389MOL0     H51288   9.168   7.771   3.882  1.8428 -2.2365  2.1234
  389MOL0     H51289   9.390   7.651   3.865 -1.6611 -0.9421  1.5558
  389MOL0     H51290   9.397   7.730   3.700  1.8088  3.3208  2.5872
  389MOL0     H51291   9.174   7.537   3.812 -0.4292  0.0912  0.1353
  389MOL0     H51292   9.155   7.618   3.666 -2.3006 -3.4042  0.6072
  389MOL0     H51293   9.372   7.532   3.579 -1.6659  0.9177 -0.6340
  389MOL0     H51294   9.245   7.419   3.585  0.6772  2.3826 -3.1468
  389MOL0     H51295   9.487   7.455   3.793  2.2147  1.2586 -1.6379
  389MOL0     H51296   9.481   7.337   3.674 -0.5399 -1.8041  1.7585
  389MOL0     H51297   9.249   7.330   3.867 -1.3574 -3.2256  0.4846
  389MOL0     H51298   9.299   7.206   3.772 -2.8513  1.5346 -1.8099
  389MOL0     H51299   9.538   7.238   3.926  0.3000 -0.7098  3.1471
  389MOL0     H51300   9.404   7.148   3.987  2.4112 -2.9685 -2.5639
  389MOL0     H51301   9.567   7.488   4.059  0.6820 -0.7120  1.3389
  389MOL0     H51302   9.430   7.609   4.377  0.4178 -2.9092  0.6885
  389MOL0     H51303   9.458   7.693   4.216 -1.8426 -2.8074 -2.1827
  389MOL0     H51304   9.657   7.672   4.362  0.4951  0.1997  0.0920
  389MOL0     H51305   9.679   7.574   4.211  1.1629  0.5793  1.3806
  389MOL0     H51306   9.599   7.437   4.456 -1.6339 -1.7444 -0.7324
  389MOL0     H51307   9.668   7.378   4.295  3.1811  1.9305 -1.2827
  389MOL0     H51308   9.843   7.368   4.485 -1.4204 -0.6420 -1.9713
  389MOL0     H51309   9.827   7.541   4.510 -0.9004  1.1902 -1.4788
  389MOL0     H51310  10.070   7.624   4.203  0.0517  2.0623  0.9491
  389MOL0     H51311  10.321   7.637   4.227  0.6157 -0.1084  0.0450
  389MOL0     H51312  10.741   7.498   4.299  0.8710 -0.5923  0.0927
  389MOL0     H51313  10.989   7.518   4.392 -0.2077  1.0626 -0.1851
  389MOL0     H51314  11.089   7.792   4.728 -1.3010 -0.4540 -0.7499
  389MOL0     H51315  11.079   7.870   4.575  1.1091 -0.7361 -0.4661
  389MOL0     H51316  11.315   7.864   4.643 -0.5847  0.0909  2.7378
  389MOL0     H51317  11.292   7.767   4.505  0.5483 -0.1126 -0.2563
  389MOL0     H51318  11.435   7.652   4.680  0.7940 -1.4308  0.7680
  389MOL0     H51319  11.270   7.563   4.653 -2.1684  0.7673  0.8811
  389MOL0     H51320  11.265   7.740   4.894 -2.7670  0.3338  0.5256
  389MOL0     H51321  11.187   7.598   4.844  1.7605 -4.0811 -0.9357
  389MOL0     H51322  11.470   7.603   4.921 -1.3511  1.5166 -2.7630
  389MOL0     H51323  11.377   7.462   4.860  0.5708  0.2855 -1.1703
  389MOL0     H51324  11.380   7.438   5.101  0.6642 -0.2097 -1.5073
  389MOL0     H51325  11.221   7.508   5.074  1.0540 -3.5854 -0.9731
  389MOL0     H51326  11.469   7.653   5.171  0.1945 -1.2148  0.8099
  389MOL0     H51327  11.334   7.748   5.126 -1.8851 -0.7526 -2.0591
  389MOL0     H51328  11.371   7.663   5.384 -1.0601  1.0964  0.8651
  389MOL0     H51329  11.319   7.507   5.322  2.1538  0.2405 -0.8437
  389MOL0     H51330  10.850   7.795   4.688  1.0082  1.8747 -1.1240
  389MOL0     H51331  10.616   7.785   4.583 -1.3540 -2.0552  0.0118
  389MOL0     H51332  10.290   7.364   4.561 -0.4852 -0.8265 -0.6169
  389MOL0     H51333  10.053   7.344   4.538  0.5722 -0.2170  0.1312
  389MOL0     H51334   9.467   7.998   4.173  0.7152  2.0824  0.9735
  389MOL0     H51335   9.661   7.996   4.317  0.9312  0.4190  0.5313
  389MOL0     H51336   9.990   7.793   4.442  0.4195 -1.5167 -0.6528
  389MOL0     H51337  10.150   7.772   4.640 -0.8241  1.1529  0.8723
  389MOL0     H51338  10.379   8.026   4.909 -0.0106 -0.2917 -0.2535
  389MOL0     H51339  10.295   8.140   4.802 -0.6088 -0.9066 -2.5416
  389MOL0     H51340  10.508   8.121   4.648  2.3791  3.1277  1.2715
  389MOL0     H51341  10.521   8.208   4.799 -1.0478 -0.0955  2.0365
  389MOL0     H51342  10.702   8.036   4.743 -0.7876  2.5656  1.9024
  389MOL0     H51343  10.567   7.907   4.757 -3.2226  0.9889 -1.1422
  389MOL0     H51344  10.652   8.078   5.003  1.1001  1.0050  0.7677
  389MOL0     H51345  10.552   7.936   4.997 -1.7796  2.2854 -2.9637
  389MOL0     H51346  10.970   7.801   4.971 -1.5296 -1.6947  1.1657
  389MOL0     H51347  10.298   8.160   4.550  0.5662 -1.2402 -1.1904
  389MOL0     H51348  10.174   8.168   4.338 -2.0433  1.7660  1.0992
  390MOL0     O51349   1.005  10.039   2.923 -0.5317 -0.7613  0.3587
  390MOL0     C51350   1.019  10.161   2.942 -0.0279 -0.4041  1.2242
  390MOL0     O51351   1.146  10.236   2.935 -0.1125 -0.1375  0.3609
  390MOL0     C51352   1.267  10.174   2.933  0.2924  0.1081  0.3526
  390MOL0     C51353   1.371  10.218   3.012  0.7195 -0.1338 -0.0300
  390MOL0     C51354   1.492  10.141   3.015  0.6549 -0.8896  0.4269
  390MOL0     C51355   1.514  10.037   2.915 -0.2030 -0.4269  0.0593
  390MOL0     O51356   1.632   9.967   2.898 -0.5955 -0.5571  0.3946
  390MOL0     C51357   1.742  10.023   2.965  0.2498 -0.9832 -0.0089
  390MOL0     C51358   1.866   9.944   2.932 -0.3289  0.2102  0.9072
  390MOL0     C51359   1.855   9.797   2.994 -0.0693  0.0913 -0.5510
  390MOL0     C51360   1.969   9.705   2.955  0.2229 -1.0591  0.4137
  390MOL0     C51361   2.083   9.719   3.059  0.1114 -0.0537  0.7131
  390MOL0     C51362   2.184   9.609   3.052 -0.8290 -0.6571  0.4273
  390MOL0     C51363   2.245   9.587   2.909 -0.6982 -0.4924  0.2868
  390MOL0     C51364   2.347   9.474   2.921  0.3530  0.0178 -0.2265
  390MOL0     N51365   2.472   9.521   2.987 -0.1325 -0.1367  0.5483
  390MOL0     C51366   2.548   9.626   2.950  0.4909  0.3171 -0.1591
  390MOL0     C51367   2.642   9.637   3.049 -0.7909  0.1518 -0.5893
  390MOL0     C51368   2.777   9.704   3.034  0.4914 -0.4944 -0.4709
  390MOL0     C51369   2.884   9.603   3.024 -0.1041  0.8845 -0.7266
  390MOL0     C51370   3.013   9.682   3.035 -0.3104  0.0227 -0.1088
  390MOL0     C51371   3.132   9.625   2.961 -0.6564 -0.7358  0.5024
  390MOL0     O51372   3.160   9.502   3.033  0.8321 -0.1045  0.8389
  390MOL0     C51373   3.253   9.499   3.125 -0.1585  1.4780  0.0065
  390MOL0     C51374   3.315   9.378   3.144  0.0690  1.2254  0.2133
  390MOL0     C51375   3.415   9.351   3.236 -0.0278  0.1554  0.0893
  390MOL0     C51376   3.461   9.456   3.318  0.2972 -1.5921 -0.5122
  390MOL0     C51377   3.550   9.433   3.429  0.1379 -0.3435 -0.0124
  390MOL0     O51378   3.585   9.301   3.452  0.6954 -0.4970  0.1241
  390MOL0     C51379   3.678   9.285   3.553  0.5617  0.1186  0.0401
  390MOL0     C51380   3.655   9.289   3.697  0.5478 -0.0684  0.6500
  390MOL0     C51381   3.762   9.280   3.775 -0.0221 -0.7049  0.4508
  390MOL0     C51382   3.895   9.267   3.738  1.2836 -0.2999  1.2475
  390MOL0     O51383   3.992   9.256   3.834  1.1661  0.1656 -0.3882
  390MOL0     C51384   4.131   9.234   3.798  0.4615  0.2234 -0.5819
  390MOL0     C51385   4.169   9.079   3.784  0.8283 -0.3892  0.2658
  390MOL0     C51386   4.296   9.040   3.862  0.3190  0.2232  0.0613
  390MOL0     C51387   4.431   9.088   3.785  0.5551 -0.5661 -0.4455
  390MOL0     C51388   4.545   9.132   3.876 -0.3436 -0.1310 -0.6523
  390MOL0     C51389   4.598   9.032   3.981 -1.3574 -0.1723  0.6247
  390MOL0     C51390   4.671   9.084   4.096  0.1456 -0.2945 -0.7220
  390MOL0     C51391   4.812   9.141   4.061  0.3880  0.1031  0.7853
  390MOL0    Cl51392   4.917   9.043   3.962 -0.9517 -0.1484 -0.0364
  390MOL0     C51393   3.916   9.261   3.603  0.5308 -0.0310 -0.1617
  390MOL0     C51394   3.810   9.261   3.510 -0.7305 -0.3835  0.1578
  390MOL0     O51395   3.592   9.535   3.492  0.3281  0.4995 -0.1803
  390MOL0     C51396   3.399   9.580   3.299  0.0759  0.3447  0.8674
  390MOL0     C51397   3.297   9.604   3.204 -0.1704  0.9476 -0.2810
  390MOL0     N51398   2.604   9.550   3.147  0.3189 -0.0773  0.1089
  390MOL0     N51399   2.506   9.477   3.114  0.2270 -1.0060 -0.2760
  390MOL0     C51400   1.417  10.022   2.822 -0.5239  0.8276 -0.4177
  390MOL0     C51401   1.294  10.073   2.840  0.4267 -0.6147 -0.1134
  390MOL0     C51402   0.898  10.237   2.973  0.2655 -0.2727 -0.3931
  390MOL0     C51403   0.786  10.179   3.033  0.8199 -0.3642 -0.2823
  390MOL0     C51404   0.668  10.255   3.061  0.6478  0.1339  0.6821
  390MOL0     C51405   0.653  10.389   3.021 -0.1728  0.1825 -0.0126
  390MOL0     O51406   0.534  10.451   3.048  0.4372 -0.0184 -0.4170
  390MOL0     C51407   0.527  10.588   3.011 -0.0750 -0.7270 -0.1993
  390MOL0     C51408   0.384  10.640   3.014 -1.6294 -0.0706  0.4902
  390MOL0     C51409   0.315  10.575   2.889 -0.3538 -0.1789 -0.2209
  390MOL0     C51410   0.173  10.561   2.912 -0.0767  0.8156 -0.1662
  390MOL0     C51411   0.104  10.690   2.938 -1.1879 -0.2390  0.7183
  390MOL0     C51412   0.058  10.802   2.931 -0.0896 -0.8919  0.6660
  390MOL0     C51413   0.772  10.449   2.961  1.0484  0.0480  1.1032
  390MOL0     C51414   0.886  10.370   2.937 -0.1833 -0.1075 -0.1719
  390MOL0     H51415   1.370  10.307   3.075  2.9557 -1.6481  2.4019
  390MOL0     H51416   1.574  10.190   3.066 -2.3579  0.7670  4.1309
  390MOL0     H51417   1.723  10.027   3.073  0.3579 -0.1546 -0.0177
  390MOL0     H51418   1.769  10.121   2.925 -1.8707  0.1755  1.2339
  390MOL0     H51419   1.960   9.986   2.969  1.3060 -1.4240 -1.0865
  390MOL0     H51420   1.874   9.955   2.823 -0.5828  0.2514  0.8922
  390MOL0     H51421   1.765   9.755   2.948 -3.3676  1.9073  3.4857
  390MOL0     H51422   1.833   9.800   3.102 -0.6870  1.3682 -0.6926
  390MOL0     H51423   1.921   9.607   2.958 -3.8958  0.7609  0.2005
  390MOL0     H51424   2.004   9.722   2.853 -0.3345  0.8727  0.5127
  390MOL0     H51425   2.050   9.720   3.163  0.2391  0.3049  0.7529
  390MOL0     H51426   2.142   9.810   3.041  0.6414 -0.9991 -3.6983
  390MOL0     H51427   2.133   9.516   3.077 -0.5734 -0.5803  1.2583
  390MOL0     H51428   2.257   9.636   3.129 -3.2810  0.4359  2.5118
  390MOL0     H51429   2.164   9.565   2.839 -0.2971  2.0901 -1.1254
  390MOL0     H51430   2.302   9.671   2.869 -0.9552 -1.9776 -3.5707
  390MOL0     H51431   2.382   9.451   2.820 -0.0576  0.6199 -0.5108
  390MOL0     H51432   2.308   9.389   2.977  0.9194 -0.3305 -0.3576
  390MOL0     H51433   2.545   9.680   2.856 -0.0875  0.3723 -0.1087
  390MOL0     H51434   2.795   9.756   3.129  3.1910 -1.6826 -0.2298
  390MOL0     H51435   2.776   9.769   2.946 -0.7018 -1.2152 -1.0092
  390MOL0     H51436   2.864   9.550   2.931 -0.0132 -0.4821  0.0048
  390MOL0     H51437   2.889   9.523   3.099 -0.0455 -0.9284 -2.5954
  390MOL0     H51438   3.000   9.783   2.994  1.7426  0.1566 -0.5517
  390MOL0     H51439   3.028   9.686   3.143  2.4059  0.4483 -0.4089
  390MOL0     H51440   3.211   9.700   2.969 -0.6922 -0.7817  1.3650
  390MOL0     H51441   3.128   9.609   2.853 -1.8430 -1.0466  0.5882
  390MOL0     H51442   3.281   9.295   3.084  5.0324 -0.8561 -0.1885
  390MOL0     H51443   3.456   9.250   3.234 -2.5948 -0.9793 -1.5002
  390MOL0     H51444   3.553   9.311   3.726 -0.3401 -3.3621  0.4220
  390MOL0     H51445   3.760   9.281   3.883  2.7789  0.3507  0.5745
  390MOL0     H51446   4.191   9.275   3.879 -0.9516  1.3865 -0.0757
  390MOL0     H51447   4.155   9.288   3.705  1.1508 -0.2578 -0.6927
  390MOL0     H51448   4.167   9.054   3.678 -1.2428  0.0521  0.1466
  390MOL0     H51449   4.079   9.026   3.818 -0.0752 -0.5725 -2.2002
  390MOL0     H51450   4.303   8.937   3.898 -0.0661 -0.5357 -1.9064
  390MOL0     H51451   4.287   9.102   3.951  0.4681  0.3259  0.0055
  390MOL0     H51452   4.475   8.997   3.743  0.7631 -1.0305  0.7460
  390MOL0     H51453   4.417   9.165   3.709  0.9569  0.0406  0.0859
  390MOL0     H51454   4.503   9.209   3.943  0.5069  0.2762 -0.5733
  390MOL0     H51455   4.631   9.176   3.826 -1.4487  1.3361 -1.3673
  390MOL0     H51456   4.657   8.957   3.928 -1.1294 -1.1694  2.2397
  390MOL0     H51457   4.519   8.968   4.023 -0.5128 -0.2601  2.1337
  390MOL0     H51458   4.616   9.167   4.141  1.7308 -1.3147  3.5468
  390MOL0     H51459   4.680   9.018   4.182 -2.7827  1.3993  1.0223
  390MOL0     H51460   4.862   9.141   4.158 -0.7546 -0.8698  1.4007
  390MOL0     H51461   4.802   9.234   4.004  2.3660 -0.6487 -0.9276
  390MOL0     H51462   4.016   9.262   3.559  0.5424  0.0073 -0.1343
  390MOL0     H51463   3.833   9.245   3.406  0.1922 -0.4132  0.3535
  390MOL0     H51464   3.415   9.669   3.358 -0.2122 -0.5128  2.2907
  390MOL0     H51465   3.243   9.697   3.192  2.0823  2.3949  0.3597
  390MOL0     H51466   1.432   9.948   2.745  0.8765  0.7757 -0.1172
  390MOL0     H51467   1.203  10.039   2.791 -1.9633  2.2733  1.9729
  390MOL0     H51468   0.787  10.078   3.073 -1.5665 -0.0329  0.8132
  390MOL0     H51469   0.582  10.215   3.114  1.5224 -1.1923  1.1394
  390MOL0     H51470   0.560  10.617   2.911 -0.8936  1.2477  0.0617
  390MOL0     H51471   0.590  10.639   3.084  0.6589  1.4614 -2.2403
  390MOL0     H51472   0.341  10.610   3.110 -1.0720  3.5601  2.0629
  390MOL0     H51473   0.379  10.749   3.018 -2.1561 -0.1152  1.0941
  390MOL0     H51474   0.367  10.481   2.868  2.9376  1.2081  0.9783
  390MOL0     H51475   0.324  10.631   2.796 -1.7417  0.2358 -0.1221
  390MOL0     H51476   0.123  10.517   2.826 -0.7987  0.9418  0.1788
  390MOL0     H51477   0.151  10.488   2.991  0.4348  0.1078 -0.6730
  390MOL0     H51478   0.014  10.899   2.938 -0.2112 -0.8750 -0.3107
  390MOL0     H51479   0.773  10.555   2.937 -4.1272  0.4583  1.4957
  390MOL0     H51480   0.964  10.424   2.884  0.2343 -1.9069 -1.4987
  391MOL0     O51481  11.347   0.624   0.084  0.2450 -1.0249  0.5507
  391MOL0     C51482  11.308   0.567  -0.016 -0.0997  0.3463  0.8511
  391MOL0     O51483  11.203   0.488  -0.033 -0.1423  0.4348  0.4626
  391MOL0     C51484  11.130   0.466   0.079  0.4438 -0.6056 -1.5922
  391MOL0     C51485  11.163   0.369   0.176 -0.2137  0.2765  0.8096
  391MOL0     C51486  11.072   0.339   0.277  0.5973 -0.3039  0.8127
  391MOL0     C51487  10.943   0.399   0.281  0.9360  0.6774 -0.9122
  391MOL0     O51488  10.849   0.358   0.374  0.3046 -0.1414 -0.1730
  391MOL0     C51489  10.771   0.451   0.439 -0.4744 -0.5099 -0.4084
  391MOL0     C51490  10.702   0.386   0.558 -0.5127 -0.7584  0.3730
  391MOL0     C51491  10.599   0.476   0.638  0.4898 -0.1072 -0.2388
  391MOL0     C51492  10.464   0.487   0.561 -0.3161 -0.0364 -0.1482
  391MOL0     C51493  10.368   0.581   0.636  0.2719 -0.4974 -0.5066
  391MOL0     C51494  10.240   0.608   0.556 -0.7630 -1.1960  1.1295
  391MOL0     C51495  10.142   0.694   0.642  0.9231 -0.0157 -0.8250
  391MOL0     C51496  10.063   0.610   0.734  0.1662  0.2838 -0.8941
  391MOL0     N51497   9.981   0.691   0.818  0.3197 -0.2611 -0.5763
  391MOL0     C51498   9.998   0.713   0.959  0.5733  0.5939  0.3625
  391MOL0     C51499   9.892   0.790   0.987 -0.1335  0.8672  0.2517
  391MOL0     C51500   9.856   0.807   1.124  0.5865 -0.9009  0.3150
  391MOL0     C51501   9.700   0.811   1.148  0.2431  0.7570 -0.1490
  391MOL0     C51502   9.637   0.683   1.096  0.1205 -0.1441  0.1899
  391MOL0     C51503   9.488   0.690   1.077 -0.0632 -0.7046 -0.2535
  391MOL0     O51504   9.431   0.697   1.205  0.7856  0.6526 -0.6049
  391MOL0     C51505   9.291   0.706   1.213  0.2515  0.6416  1.1998
  391MOL0     C51506   9.204   0.606   1.151  0.6934  0.0615  0.5379
  391MOL0     C51507   9.070   0.623   1.148  0.1393  0.0198 -0.0809
  391MOL0     C51508   9.008   0.722   1.222 -0.7231  0.8288  0.2116
  391MOL0     C51509   8.861   0.744   1.198  0.3990  0.4425  0.5217
  391MOL0     O51510   8.781   0.635   1.162 -0.2390  0.4390 -0.1873
  391MOL0     C51511   8.644   0.631   1.129 -0.0023  0.2722 -0.0536
  391MOL0     C51512   8.599   0.506   1.103  0.1115  0.3043  0.4289
  391MOL0     C51513   8.468   0.485   1.063  0.9934  1.1101  0.4700
  391MOL0     C51514   8.375   0.588   1.053 -0.2302  0.5114 -0.6915
  391MOL0     O51515   8.242   0.573   1.004  0.4553 -0.2596  0.0311
  391MOL0     C51516   8.162   0.696   0.974 -0.9101 -0.1644  0.2875
  391MOL0     C51517   8.045   0.667   0.869 -0.0326  0.4561 -0.5497
  391MOL0     C51518   7.973   0.792   0.832 -0.4836 -0.8620 -0.1777
  391MOL0     C51519   7.882   0.781   0.708  0.1222  0.1532 -0.2270
  391MOL0     C51520   7.836   0.915   0.654  1.0337  0.3271  0.4774
  391MOL0     C51521   7.934   1.037   0.632  0.0190  0.5872  1.1193
  391MOL0     C51522   8.039   1.020   0.525 -0.8511  0.0826 -0.7977
  391MOL0     C51523   8.116   1.154   0.508 -0.1167  0.4901  0.4284
  391MOL0    Cl51524   7.992   1.262   0.431 -0.1081  0.2148  0.5098
  391MOL0     C51525   8.417   0.715   1.100  0.0174 -0.0312 -0.3901
  391MOL0     C51526   8.548   0.737   1.141 -0.9081 -0.5142  0.2515
  391MOL0     O51527   8.822   0.853   1.229  0.3687 -0.3009  0.2793
  391MOL0     C51528   9.096   0.805   1.299  0.0472 -0.5979  0.0842
  391MOL0     C51529   9.233   0.802   1.285  0.1632  0.5406  0.0796
  391MOL0     N51530   9.822   0.835   0.871 -0.7458  0.1581  0.8872
  391MOL0     N51531   9.873   0.776   0.770  0.4924  0.0167  0.3961
  391MOL0     C51532  10.912   0.488   0.193  0.5531  0.0649 -0.1720
  391MOL0     C51533  11.007   0.527   0.098 -0.1287 -0.7835 -0.1872
  391MOL0     C51534  11.397   0.592  -0.137 -0.4005 -0.0536 -0.3760
  391MOL0     C51535  11.486   0.694  -0.140 -1.2516 -0.4913 -0.0803
  391MOL0     C51536  11.575   0.704  -0.242  0.3695 -0.3842 -0.5651
  391MOL0     C51537  11.565   0.610  -0.345 -0.4364  0.3090 -0.4141
  391MOL0     O51538  11.655   0.620  -0.449 -0.1262 -0.0297  0.2859
  391MOL0     C51539  11.720   0.513  -0.517 -0.4421  0.4266 -0.4401
  391MOL0     C51540  11.816   0.569  -0.618  0.1294  0.5704 -0.1807
  391MOL0     C51541  11.924   0.666  -0.556  0.0467 -0.0880  0.0702
  391MOL0     C51542  12.043   0.701  -0.652 -0.7214 -0.6332 -0.1806
  391MOL0     C51543  11.993   0.751  -0.778 -0.6148 -1.6557  0.4697
  391MOL0     C51544  11.943   0.796  -0.879 -0.3040  0.6165  0.1320
  391MOL0     C51545  11.462   0.519  -0.353  0.5822  0.1625  0.5041
  391MOL0     C51546  11.372   0.515  -0.249 -0.2737  0.3993 -1.0565
  391MOL0     H51547  11.253   0.309   0.187 -0.6268 -0.0247  2.9401
  391MOL0     H51548  11.093   0.269   0.357 -2.4146  0.1133  2.1440
  391MOL0     H51549  10.699   0.503   0.375 -3.0518  1.4833  3.6753
  391MOL0     H51550  10.837   0.528   0.478 -0.8428  0.5045 -1.7193
  391MOL0     H51551  10.781   0.362   0.629  1.0892 -1.3955 -1.5309
  391MOL0     H51552  10.665   0.290   0.520 -0.5326 -0.0347 -1.5774
  391MOL0     H51553  10.639   0.577   0.655  1.1926  0.2473 -3.2492
  391MOL0     H51554  10.588   0.426   0.734  2.0996  1.0723  0.6125
  391MOL0     H51555  10.487   0.520   0.460  0.1929  0.2304  0.0462
  391MOL0     H51556  10.415   0.391   0.545 -2.2563  1.2090 -2.0763
  391MOL0     H51557  10.424   0.669   0.669  1.8498 -2.1850  1.6452
  391MOL0     H51558  10.342   0.549   0.738  0.2795  1.5963  0.2005
  391MOL0     H51559  10.185   0.525   0.510 -0.0420 -1.9599  1.6017
  391MOL0     H51560  10.271   0.674   0.475 -4.3373 -0.6005  0.1012
  391MOL0     H51561  10.201   0.771   0.693  0.6405 -0.6163  0.4539
  391MOL0     H51562  10.065   0.742   0.581 -1.4538 -2.1696  0.2897
  391MOL0     H51563  10.125   0.556   0.806 -1.1071  0.7297  0.5941
  391MOL0     H51564  10.010   0.528   0.684  1.9047 -0.7655 -1.1275
  391MOL0     H51565  10.077   0.666   1.018  1.7693  1.0115 -0.8687
  391MOL0     H51566   9.895   0.895   1.175 -2.9969  2.5722 -2.3561
  391MOL0     H51567   9.889   0.713   1.171 -0.4203 -0.3255  2.2974
  391MOL0     H51568   9.655   0.899   1.101  1.4328  2.0730  1.0603
  391MOL0     H51569   9.680   0.808   1.255 -0.5585  2.6114 -0.2131
  391MOL0     H51570   9.690   0.656   1.005 -2.2310 -1.3418 -0.9201
  391MOL0     H51571   9.648   0.607   1.175 -0.2069 -0.1269  0.2577
  391MOL0     H51572   9.462   0.594   1.031  1.1786 -1.5941  0.8304
  391MOL0     H51573   9.451   0.773   1.016  1.8115 -0.0079 -0.4996
  391MOL0     H51574   9.240   0.532   1.080 -1.0549  1.8670 -2.4730
  391MOL0     H51575   9.021   0.552   1.082 -0.5347 -2.8691  3.2223
  391MOL0     H51576   8.665   0.420   1.106  3.7050  2.8826  1.5022
  391MOL0     H51577   8.431   0.385   1.046  1.3437  0.9275  0.7869
  391MOL0     H51578   8.226   0.775   0.934  1.4863 -1.5886  1.0669
  391MOL0     H51579   8.119   0.730   1.068  2.4956  0.6918  1.6861
  391MOL0     H51580   7.966   0.600   0.903  1.1905 -1.2258 -0.8750
  391MOL0     H51581   8.093   0.620   0.783  1.4044  0.5132  0.1715
  391MOL0     H51582   8.048   0.867   0.807  0.7763 -2.4516 -1.3961
  391MOL0     H51583   7.903   0.821   0.911  0.9652 -1.7988  1.5280
  391MOL0     H51584   7.926   0.722   0.627 -1.0770 -0.0503 -0.7373
  391MOL0     H51585   7.803   0.712   0.740  0.4752 -0.2645 -0.2369
  391MOL0     H51586   7.770   0.948   0.735 -0.5298 -0.7013 -0.3117
  391MOL0     H51587   7.767   0.894   0.572  1.2737 -2.8836  0.9612
  391MOL0     H51588   7.979   1.061   0.728  1.4509  0.8448  0.4114
  391MOL0     H51589   7.863   1.117   0.608  2.5797  2.0161 -2.7229
  391MOL0     H51590   8.113   0.941   0.544 -0.9883  0.4114  1.4501
  391MOL0     H51591   7.996   0.989   0.429 -0.3449 -1.8027 -0.4498
  391MOL0     H51592   8.206   1.157   0.445 -1.2828  0.6296 -1.3156
  391MOL0     H51593   8.137   1.189   0.609  0.1128  2.1295 -0.1562
  391MOL0     H51594   8.350   0.799   1.110 -2.1769 -1.7072 -0.2266
  391MOL0     H51595   8.589   0.837   1.152 -1.4236 -0.1034 -1.2546
  391MOL0     H51596   9.055   0.886   1.359  3.8148  0.4862  1.4276
  391MOL0     H51597   9.285   0.881   1.337 -0.0785  0.2277  0.8125
  391MOL0     H51598  10.816   0.538   0.194  0.4426 -0.1517  0.0842
  391MOL0     H51599  10.969   0.598   0.026 -0.5229 -2.7973 -2.0661
  391MOL0     H51600  11.500   0.765  -0.060  3.8338 -0.5099 -0.6765
  391MOL0     H51601  11.652   0.779  -0.224 -1.4921  1.6734 -0.7166
  391MOL0     H51602  11.649   0.441  -0.557 -0.1507 -0.3477  0.4177
  391MOL0     H51603  11.785   0.458  -0.449 -2.2484  0.6582  1.6034
  391MOL0     H51604  11.876   0.481  -0.643 -0.1525 -1.2509  4.5149
  391MOL0     H51605  11.765   0.614  -0.704  1.6445 -0.4283 -1.6600
  391MOL0     H51606  11.968   0.612  -0.471 -1.0708 -2.5882 -0.8624
  391MOL0     H51607  11.879   0.761  -0.523 -2.6005 -0.9785 -0.7550
  391MOL0     H51608  12.110   0.783  -0.623 -2.6009  0.0359  2.7280
  391MOL0     H51609  12.098   0.607  -0.667  1.6107  1.0568 -3.5313
  391MOL0     H51610  11.891   0.836  -0.963  0.8948  3.5086  0.6303
  391MOL0     H51611  11.453   0.447  -0.434 -1.8215 -2.0113  2.5510
  391MOL0     H51612  11.290   0.444  -0.253 -1.3804  1.6280 -0.8624
  392MOL0     O51613  11.170   3.181   9.344  0.8846  0.6312  0.4397
  392MOL0     C51614  11.118   3.097   9.404 -0.0921  0.4565 -0.6316
  392MOL0     O51615  11.084   2.973   9.352  0.6115 -0.4900  0.0135
  392MOL0     C51616  11.030   2.959   9.228 -0.6471  0.1585 -0.4215
  392MOL0     C51617  11.021   2.829   9.180 -0.2043 -0.7814  0.2466
  392MOL0     C51618  10.952   2.799   9.058 -1.4857  0.4657  0.1454
  392MOL0     C51619  10.891   2.899   8.990 -0.1155  0.2581  0.8382
  392MOL0     O51620  10.838   2.892   8.862 -0.6939  0.1827 -0.1882
  392MOL0     C51621  10.805   2.766   8.816 -0.0668 -0.0546  0.5313
  392MOL0     C51622  10.704   2.780   8.715  0.2109 -0.2961  0.3686
  392MOL0     C51623  10.575   2.831   8.767  0.3562  0.9020 -0.1486
  392MOL0     C51624  10.528   2.978   8.748 -0.8576 -0.4636  0.2818
  392MOL0     C51625  10.399   3.017   8.837 -0.3778  0.0545  0.4062
  392MOL0     C51626  10.284   2.939   8.759 -0.3447 -0.0032 -0.1805
  392MOL0     C51627  10.146   2.993   8.800  0.3265 -0.0198  0.6498
  392MOL0     C51628  10.096   2.914   8.926 -1.1713  0.1968 -0.3619
  392MOL0     N51629  10.145   2.966   9.049  0.1156  0.3727 -0.2098
  392MOL0     C51630  10.099   3.076   9.114 -0.2649  0.2903 -0.7791
  392MOL0     C51631  10.163   3.085   9.237  0.0317  0.2002  0.5406
  392MOL0     C51632  10.145   3.183   9.347 -0.6775 -0.1987 -0.5733
  392MOL0     C51633  10.038   3.147   9.453  0.3794  0.3297  0.2142
  392MOL0     C51634   9.906   3.116   9.388  0.5760  0.5405 -0.1674
  392MOL0     C51635   9.780   3.141   9.480  0.0580 -0.1915 -0.2967
  392MOL0     O51636   9.763   3.280   9.515  1.0606 -0.2470  0.2067
  392MOL0     C51637   9.640   3.325   9.570  0.2616 -0.6252 -0.3676
  392MOL0     C51638   9.632   3.449   9.632 -0.1033 -0.4778 -0.1174
  392MOL0     C51639   9.508   3.509   9.654 -0.9920  0.8601  0.0974
  392MOL0     C51640   9.381   3.445   9.627 -0.2426 -0.7938 -0.1336
  392MOL0     C51641   9.253   3.494   9.668  1.7853 -0.4023 -0.7785
  392MOL0     O51642   9.145   3.419   9.638 -0.1365 -0.6105  0.1202
  392MOL0     C51643   9.021   3.481   9.621  0.3052  0.3578  0.0160
  392MOL0     C51644   8.913   3.389   9.646 -0.7244  0.0393  0.0957
  392MOL0     C51645   8.777   3.437   9.639 -0.3109  0.9818  0.5277
  392MOL0     C51646   8.749   3.553   9.582 -1.1521  0.5849 -0.3579
  392MOL0     O51647   8.626   3.582   9.571  0.7352  0.1863  0.7070
  392MOL0     C51648   8.574   3.575   9.438  0.3053  0.2589  1.0304
  392MOL0     C51649   8.420   3.564   9.448  0.5428  0.1229 -0.0891
  392MOL0     C51650   8.345   3.566   9.315  0.4522 -0.8051  0.3648
  392MOL0     C51651   8.199   3.537   9.334  0.4305 -0.6253  0.7523
  392MOL0     C51652   8.176   3.383   9.337 -0.7005 -0.5978  0.5853
  392MOL0     C51653   8.051   3.355   9.420  0.2962 -0.2714 -0.8793
  392MOL0     C51654   7.929   3.399   9.349  0.4763 -0.1368 -0.7921
  392MOL0     C51655   7.795   3.361   9.418 -0.8172  0.2777  0.1721
  392MOL0    Cl51656   7.644   3.411   9.327 -0.0472  0.2303  0.0089
  392MOL0     C51657   8.860   3.645   9.555  0.5323 -0.3879  1.2988
  392MOL0     C51658   8.992   3.606   9.576  0.4319 -0.4778 -0.4003
  392MOL0     O51659   9.253   3.595   9.744  0.1066  0.3031 -0.1571
  392MOL0     C51660   9.392   3.327   9.564  0.4165  0.8239 -0.2113
  392MOL0     C51661   9.513   3.266   9.543  0.5506  0.5134  0.2596
  392MOL0     N51662  10.241   2.973   9.241 -1.3741  0.9323  0.5148
  392MOL0     N51663  10.228   2.894   9.135  0.4804  0.7009  1.0006
  392MOL0     C51664  10.908   3.030   9.037  0.1578 -0.0385  0.0576
  392MOL0     C51665  10.964   3.060   9.158  0.2153 -0.2446  0.6767
  392MOL0     C51666  11.098   3.114   9.552 -0.4265 -0.6152  0.4054
  392MOL0     C51667  11.165   3.218   9.629  0.7777 -0.8960  0.7610
  392MOL0     C51668  11.131   3.236   9.762  0.3750  0.6898 -1.0925
  392MOL0     C51669  11.038   3.161   9.823  1.4259  0.9735  0.2985
  392MOL0     O51670  11.007   3.182   9.956  0.3418 -1.1138  0.0917
  392MOL0     C51671  10.885   3.248   9.979  0.4053 -0.4796  0.2256
  392MOL0     C51672  10.761   3.153  10.000  0.4815 -0.0907  0.3787
  392MOL0     C51673  10.799   3.056  10.116  0.5880  0.1348 -0.0771
  392MOL0     C51674  10.692   2.962  10.165 -0.0888  0.7824 -1.1360
  392MOL0     C51675  10.727   2.900  10.293  0.1729  0.0342  0.7179
  392MOL0     C51676  10.720   2.838  10.389 -0.4709  0.4411 -0.0110
  392MOL0     C51677  10.986   3.044   9.755  0.3692 -0.1429  0.5980
  392MOL0     C51678  11.019   3.023   9.622  0.1960 -0.2446  0.1882
  392MOL0     H51679  11.080   2.752   9.231 -0.1735 -0.9923 -0.1043
  392MOL0     H51680  10.956   2.699   9.016 -0.1176 -0.3995  2.2122
  392MOL0     H51681  10.768   2.696   8.892 -1.8886 -1.6149 -1.6446
  392MOL0     H51682  10.890   2.710   8.778 -1.0167 -1.0673 -0.1681
  392MOL0     H51683  10.693   2.674   8.689  2.1889 -1.3431  3.2755
  392MOL0     H51684  10.742   2.834   8.628  1.5667 -0.7331  0.6645
  392MOL0     H51685  10.569   2.802   8.872 -1.5842  0.2407 -0.3998
  392MOL0     H51686  10.488   2.778   8.726 -2.6559  2.3370  3.7657
  392MOL0     H51687  10.605   3.047   8.783 -0.0222 -0.8721 -0.6786
  392MOL0     H51688  10.505   2.994   8.642 -2.1340  0.8713  0.7337
  392MOL0     H51689  10.385   3.124   8.823 -0.0105 -0.0364 -0.7910
  392MOL0     H51690  10.412   2.986   8.941  0.8597 -1.2793 -0.0981
  392MOL0     H51691  10.296   2.833   8.782 -0.7714 -0.0509 -0.1671
  392MOL0     H51692  10.302   2.961   8.653  1.1055  2.5516  0.5062
  392MOL0     H51693  10.138   3.100   8.818  1.3261 -0.2350  2.5761
  392MOL0     H51694  10.086   2.972   8.711  1.6363 -2.8053  0.3186
  392MOL0     H51695  10.116   2.807   8.920  2.0138  0.4454  2.7640
  392MOL0     H51696   9.987   2.927   8.933 -1.3207 -1.3233  0.5500
  392MOL0     H51697  10.037   3.156   9.073  1.7979  4.0539  2.6463
  392MOL0     H51698  10.109   3.272   9.295  0.4743 -0.8201 -2.5224
  392MOL0     H51699  10.242   3.187   9.398 -0.9678  0.6103 -0.0766
  392MOL0     H51700  10.019   3.229   9.523  0.3035 -0.6549  1.3952
  392MOL0     H51701  10.073   3.061   9.510 -0.6098  0.3495  0.8763
  392MOL0     H51702   9.892   3.161   9.289  0.3424  0.6715 -0.0752
  392MOL0     H51703   9.897   3.011   9.358  2.1432 -0.5268  2.6820
  392MOL0     H51704   9.787   3.081   9.571 -1.1036  1.0512  0.6581
  392MOL0     H51705   9.695   3.116   9.416 -0.2373  1.4472 -0.5912
  392MOL0     H51706   9.730   3.488   9.659  0.9092 -4.2288  2.4010
  392MOL0     H51707   9.509   3.604   9.708 -3.1781  1.4785 -0.8249
  392MOL0     H51708   8.959   3.294   9.666  0.8585  0.9700  1.0504
  392MOL0     H51709   8.703   3.362   9.664  2.7331 -2.4769 -0.0759
  392MOL0     H51710   8.613   3.486   9.387 -0.2165 -0.4980  1.9085
  392MOL0     H51711   8.594   3.667   9.382 -3.1803  0.4296 -0.1805
  392MOL0     H51712   8.379   3.640   9.514  0.0646 -1.8554  2.0044
  392MOL0     H51713   8.408   3.470   9.502  0.7370  0.7517  1.0634
  392MOL0     H51714   8.390   3.499   9.240 -0.1739  0.5718 -1.3079
  392MOL0     H51715   8.361   3.669   9.281  1.3454 -1.1986 -0.4852
  392MOL0     H51716   8.170   3.579   9.430 -0.4394 -2.9404  1.5927
  392MOL0     H51717   8.143   3.589   9.256  1.3162 -1.6752 -0.6343
  392MOL0     H51718   8.269   3.342   9.378  0.1469  0.4198 -0.2626
  392MOL0     H51719   8.180   3.322   9.246  0.4800  2.4322 -1.5426
  392MOL0     H51720   8.056   3.392   9.523 -2.6910  1.4216 -1.2456
  392MOL0     H51721   8.049   3.246   9.432 -0.7037 -0.6228 -3.5205
  392MOL0     H51722   7.931   3.508   9.336  1.5739 -0.2495 -1.7667
  392MOL0     H51723   7.930   3.358   9.248 -0.1171  2.1757 -1.8163
  392MOL0     H51724   7.794   3.407   9.517  1.7379  1.4885 -0.2604
  392MOL0     H51725   7.807   3.253   9.423 -0.7643  0.2283 -0.8198
  392MOL0     H51726   8.840   3.743   9.514 -1.4688 -1.0738  0.5316
  392MOL0     H51727   9.069   3.682   9.567 -1.4148  2.4440  4.6692
  392MOL0     H51728   9.304   3.283   9.519  2.3982 -0.1620 -3.5047
  392MOL0     H51729   9.503   3.177   9.483 -1.8584  2.7541 -3.0007
  392MOL0     H51730  10.847   3.100   8.980 -0.5667 -0.3281  0.4601
  392MOL0     H51731  10.954   3.159   9.201  0.7376 -0.4947  1.3929
  392MOL0     H51732  11.246   3.273   9.581 -0.1072 -1.2644 -1.2833
  392MOL0     H51733  11.196   3.306   9.814 -0.1539  4.0355 -4.5121
  392MOL0     H51734  10.861   3.330   9.910 -0.8075  0.2985  1.5377
  392MOL0     H51735  10.906   3.298  10.074 -1.5697 -2.0329  1.5419
  392MOL0     H51736  10.670   3.213  10.009 -0.5497 -1.6710  0.8596
  392MOL0     H51737  10.755   3.096   9.907 -1.8466  3.2102 -1.7482
  392MOL0     H51738  10.826   3.107  10.209  0.8388 -1.4808  0.7659
  392MOL0     H51739  10.889   3.003  10.085  2.0484  1.1306  2.2400
  392MOL0     H51740  10.608   3.027  10.191 -2.0698 -1.4214 -1.7847
  392MOL0     H51741  10.671   2.884  10.092 -0.9139 -1.4284  1.2891
  392MOL0     H51742  10.719   2.780  10.479  0.8013  0.6152  0.1269
  392MOL0     H51743  10.932   2.963   9.803  0.8941 -1.8436 -1.5202
  392MOL0     H51744  10.990   2.925   9.585  1.8852 -0.7573  0.1332
  393MOL0     O51745  11.120   8.169   6.085 -0.5327 -0.2339 -0.1558
  393MOL0     C51746  11.171   8.279   6.127 -0.0097 -0.0499 -0.7391
  393MOL0     O51747  11.307   8.310   6.128  0.0227 -0.1457 -0.0677
  393MOL0     C51748  11.394   8.230   6.050  0.4080  0.8028 -0.1110
  393MOL0     C51749  11.365   8.187   5.912  0.0585 -0.5666  0.1926
  393MOL0     C51750  11.463   8.127   5.834 -0.1053 -0.0721 -0.6823
  393MOL0     C51751  11.592   8.092   5.883 -0.1600 -0.0269 -0.1378
  393MOL0     O51752  11.691   8.029   5.805 -0.5371  0.0181 -0.9666
  393MOL0     C51753  11.827   8.011   5.851  0.8366  0.8387 -0.0458
  393MOL0     C51754  11.932   7.999   5.742 -0.0842 -0.3371  0.1301
  393MOL0     C51755  11.935   8.129   5.672  0.5459  0.3408 -0.0237
  393MOL0     C51756  12.060   8.148   5.580  0.1460 -0.1382  0.0211
  393MOL0     C51757  12.051   8.055   5.448 -0.0440 -0.2374 -0.3481
  393MOL0     C51758  12.110   8.091   5.307 -1.2254 -0.7754  0.1764
  393MOL0     C51759  12.089   7.973   5.209  0.4191  0.5872 -0.3605
  393MOL0     C51760  12.136   8.020   5.078  0.2209  0.4313  0.3739
  393MOL0     N51761  12.185   7.921   4.993  0.4857  1.0946  1.0606
  393MOL0     C51762  12.315   7.887   4.962 -0.6737  0.8677 -0.8922
  393MOL0     C51763  12.307   7.772   4.891  1.1332 -0.4947 -0.1385
  393MOL0     C51764  12.415   7.683   4.846 -0.3171 -0.6817  0.2561
  393MOL0     C51765  12.462   7.597   4.965 -0.4418  0.2051  0.8727
  393MOL0     C51766  12.377   7.477   4.983  0.1776 -1.2588  0.0796
  393MOL0     C51767  12.432   7.387   5.091 -0.0914  0.6957 -0.6078
  393MOL0     O51768  12.453   7.457   5.211 -0.1730  0.2603  0.1608
  393MOL0     C51769  12.511   7.393   5.318  0.1535 -0.2303  0.6806
  393MOL0     C51770  12.517   7.260   5.337 -0.7859 -0.2107  0.0387
  393MOL0     C51771  12.582   7.209   5.454  0.4771  0.1245 -0.7602
  393MOL0     C51772  12.633   7.292   5.561 -0.6122 -0.0047  0.1574
  393MOL0     C51773  12.698   7.228   5.675 -0.1714 -0.1048  0.2629
  393MOL0     O51774  12.743   7.102   5.657  0.9108  0.1863 -0.4058
  393MOL0     C51775  12.770   7.017   5.764  0.9316 -0.2103  0.3731
  393MOL0     C51776  12.727   7.031   5.896 -0.1042 -0.6259 -0.9387
  393MOL0     C51777  12.760   6.944   5.998 -0.6977  0.2008  0.0008
  393MOL0     C51778  12.837   6.828   5.962 -0.5959 -0.5543 -0.4874
  393MOL0     O51779  12.882   6.722   6.044 -0.7175  0.1756 -0.1088
  393MOL0     C51780  12.804   6.674   6.157  0.7106 -0.2867 -0.0275
  393MOL0     C51781  12.875   6.574   6.244 -0.7416  0.6074  0.7656
  393MOL0     C51782  12.819   6.580   6.389 -0.1430 -0.4580  0.2099
  393MOL0     C51783  12.881   6.470   6.478 -0.1481 -0.0182 -0.5848
  393MOL0     C51784  12.846   6.501   6.625 -0.4890 -0.2069  0.5861
  393MOL0     C51785  12.932   6.415   6.715 -0.3103 -0.0316  0.0259
  393MOL0     C51786  12.915   6.470   6.860 -0.3395 -0.6943  0.4964
  393MOL0     C51787  12.785   6.455   6.921  0.3738 -0.0333 -0.1383
  393MOL0    Cl51788  12.767   6.284   6.973  0.2874 -0.3055 -0.2246
  393MOL0     C51789  12.872   6.805   5.827  0.7600  0.3815 -0.6434
  393MOL0     C51790  12.835   6.900   5.732 -0.6274  0.9715  1.0308
  393MOL0     O51791  12.727   7.301   5.769  0.1562 -0.1682 -0.3992
  393MOL0     C51792  12.618   7.427   5.536  0.1642  0.5099 -0.1092
  393MOL0     C51793  12.558   7.477   5.412 -0.4748 -0.0297 -1.0033
  393MOL0     N51794  12.176   7.738   4.861 -0.1214  0.1610 -0.7179
  393MOL0     N51795  12.105   7.834   4.917 -0.1999 -0.3044 -0.0023
  393MOL0     C51796  11.620   8.130   6.019 -0.0518 -0.2572  0.3626
  393MOL0     C51797  11.519   8.199   6.098 -0.8139 -0.6215  0.2161
  393MOL0     C51798  11.076   8.378   6.182  0.4283  0.4826 -0.6583
  393MOL0     C51799  10.957   8.336   6.240 -0.6787  0.1580  0.4313
  393MOL0     C51800  10.859   8.429   6.282  0.1558 -0.4545  0.3264
  393MOL0     C51801  10.889   8.576   6.278 -0.7515  0.4390  0.4837
  393MOL0     O51802  10.796   8.648   6.349 -0.8343  0.0505 -1.0072
  393MOL0     C51803  10.823   8.782   6.389 -0.6973 -0.2099 -0.4591
  393MOL0     C51804  10.698   8.827   6.461 -0.1297 -0.1885  0.3828
  393MOL0     C51805  10.671   8.746   6.588  0.1252  1.2484 -0.1469
  393MOL0     C51806  10.543   8.801   6.673 -0.0576 -0.0214  0.4288
  393MOL0     C51807  10.427   8.717   6.652  0.3470  0.0313  0.6719
  393MOL0     C51808  10.330   8.646   6.618 -0.2492  0.9215  0.8678
  393MOL0     C51809  11.010   8.616   6.226 -0.3552  0.3394  0.3937
  393MOL0     C51810  11.100   8.518   6.180 -0.8682 -0.2342 -0.3691
  393MOL0     H51811  11.266   8.210   5.874 -0.3677 -3.3669 -0.5768
  393MOL0     H51812  11.450   8.111   5.727 -2.9713 -0.5709 -0.3387
  393MOL0     H51813  11.822   7.913   5.900 -2.2912  0.4839 -0.8510
  393MOL0     H51814  11.855   8.077   5.934 -2.9741  1.3227  1.0129
  393MOL0     H51815  11.906   7.938   5.655  0.0172  1.9459 -1.5949
  393MOL0     H51816  12.024   7.968   5.792 -0.7130  0.3984  1.7989
  393MOL0     H51817  11.950   8.207   5.748  1.0677 -0.1905  0.4363
  393MOL0     H51818  11.845   8.149   5.613  0.5939  0.2105 -0.1430
  393MOL0     H51819  12.061   8.253   5.548 -1.0288 -0.7638 -2.2617
  393MOL0     H51820  12.154   8.132   5.634  0.9591  0.0616 -1.2848
  393MOL0     H51821  11.942   8.058   5.443 -0.1265  2.6483  0.8497
  393MOL0     H51822  12.082   7.954   5.477 -4.4368 -1.0054  2.6904
  393MOL0     H51823  12.217   8.117   5.311 -1.6536  1.3750 -0.9289
  393MOL0     H51824  12.053   8.175   5.268 -1.9462 -1.0796  0.5651
  393MOL0     H51825  12.141   7.886   5.250 -1.2576 -0.6662 -0.7991
  393MOL0     H51826  11.982   7.954   5.199  0.7818 -0.7605 -2.0982
  393MOL0     H51827  12.215   8.091   5.104  1.4543 -1.2828  1.4565
  393MOL0     H51828  12.057   8.071   5.022  1.0726 -0.2784 -1.5599
  393MOL0     H51829  12.400   7.940   5.004 -1.7518  1.3813  0.7415
  393MOL0     H51830  12.499   7.746   4.815 -0.9315  0.4857  0.8864
  393MOL0     H51831  12.384   7.628   4.757  1.8300 -0.4577 -0.6980
  393MOL0     H51832  12.453   7.667   5.048 -5.6210  0.9888 -0.0215
  393MOL0     H51833  12.564   7.564   4.941 -0.1054  1.2490  0.8292
  393MOL0     H51834  12.274   7.502   5.007 -0.5135 -1.8219 -2.0815
  393MOL0     H51835  12.367   7.418   4.891 -1.2610  1.9171 -1.9939
  393MOL0     H51836  12.526   7.343   5.058  1.7181  3.6962  0.1299
  393MOL0     H51837  12.360   7.306   5.102  0.7450 -0.3940 -2.6312
  393MOL0     H51838  12.474   7.193   5.263  0.8863 -1.9961  0.5916
  393MOL0     H51839  12.590   7.101   5.459  1.8445  0.2705  0.9739
  393MOL0     H51840  12.673   7.122   5.923 -0.3706 -1.0480 -0.0112
  393MOL0     H51841  12.734   6.973   6.100 -1.0647  2.0477 -0.5740
  393MOL0     H51842  12.704   6.634   6.139  1.3999 -2.3458  0.4510
  393MOL0     H51843  12.806   6.765   6.218  1.2784  0.3626 -0.9917
  393MOL0     H51844  12.980   6.603   6.237 -0.6243  0.7010  2.6367
  393MOL0     H51845  12.857   6.470   6.215  0.9211  0.3114  0.6818
  393MOL0     H51846  12.710   6.587   6.390 -0.2407 -0.7442 -2.3589
  393MOL0     H51847  12.861   6.672   6.430 -0.9127 -0.6401  1.4703
  393MOL0     H51848  12.850   6.372   6.442 -3.2348  0.2019  1.1175
  393MOL0     H51849  12.989   6.487   6.468 -0.0324 -0.1982  0.2895
  393MOL0     H51850  12.741   6.482   6.649 -0.4061  0.6589  1.6776
  393MOL0     H51851  12.866   6.603   6.657 -0.9073  0.1962 -0.3928
  393MOL0     H51852  13.029   6.433   6.669  0.3354  1.4409  1.8292
  393MOL0     H51853  12.918   6.306   6.718  2.8732 -0.5807  3.9645
  393MOL0     H51854  12.995   6.422   6.917  0.9738 -1.3659 -1.7615
  393MOL0     H51855  12.948   6.574   6.867  1.6236 -1.3142  1.0652
  393MOL0     H51856  12.698   6.486   6.864 -0.7198  0.0052  1.4988
  393MOL0     H51857  12.784   6.513   7.013 -1.4802 -0.1312 -0.0691
  393MOL0     H51858  12.932   6.717   5.804 -0.9232 -1.0899  0.2655
  393MOL0     H51859  12.863   6.872   5.631  2.0244 -2.5300  2.5121
  393MOL0     H51860  12.647   7.504   5.606 -0.3692  0.4583  0.1747
  393MOL0     H51861  12.545   7.583   5.398 -2.0749  0.1570  1.3720
  393MOL0     H51862  11.714   8.099   6.064  0.9205 -1.8662 -2.4565
  393MOL0     H51863  11.547   8.230   6.198  0.8154 -1.3156  0.0209
  393MOL0     H51864  10.924   8.235   6.263 -0.7222 -0.2475 -1.2850
  393MOL0     H51865  10.776   8.395   6.343  0.5932 -1.5841  0.3181
  393MOL0     H51866  10.856   8.848   6.308  2.1532  1.9093  2.1727
  393MOL0     H51867  10.902   8.785   6.464 -2.0133 -0.0491  0.9821
  393MOL0     H51868  10.718   8.931   6.489 -0.0483 -0.6750  2.2689
  393MOL0     H51869  10.607   8.813   6.402  0.9178 -0.3970 -1.2577
  393MOL0     H51870  10.761   8.753   6.650  1.6016 -1.1748 -1.8385
  393MOL0     H51871  10.641   8.644   6.564  0.1220  1.1879  0.1091
  393MOL0     H51872  10.576   8.791   6.778 -4.2094 -2.4522  1.7440
  393MOL0     H51873  10.520   8.904   6.648 -0.6581 -0.3915 -0.5678
  393MOL0     H51874  10.245   8.590   6.585  0.1054  2.2474 -2.7273
  393MOL0     H51875  11.033   8.722   6.236 -0.8709  0.3871  1.1057
  393MOL0     H51876  11.190   8.557   6.135  0.0332  0.8557  2.1836
  394MOL0     O51877  10.589   9.772   2.325 -0.4410 -0.4584 -0.2174
  394MOL0     C51878  10.682   9.751   2.246  0.0467 -0.7380 -0.0554
  394MOL0     O51879  10.742   9.629   2.240  0.2377  0.1403  0.0283
  394MOL0     C51880  10.679   9.526   2.308 -0.3541  0.7285  0.4122
  394MOL0     C51881  10.572   9.450   2.253 -0.2573 -0.4118  0.2016
  394MOL0     C51882  10.517   9.353   2.335 -0.6114  0.0336 -0.6747
  394MOL0     C51883  10.574   9.321   2.465  0.9472 -0.3642  0.3031
  394MOL0     O51884  10.511   9.222   2.547 -0.4924 -0.3782 -0.7009
  394MOL0     C51885  10.598   9.114   2.592  0.0559 -0.5010 -0.0066
  394MOL0     C51886  10.520   8.980   2.601  0.1090  0.2464 -1.1847
  394MOL0     C51887  10.492   8.894   2.469 -0.8714 -0.5157 -0.4271
  394MOL0     C51888  10.425   8.979   2.359 -0.0592  0.2268 -0.6372
  394MOL0     C51889  10.395   8.889   2.242 -0.4586 -0.4137  0.8593
  394MOL0     C51890  10.302   8.966   2.152 -0.2721  0.2031 -0.3998
  394MOL0     C51891  10.296   8.893   2.019 -0.4029  0.8642 -0.0741
  394MOL0     C51892  10.179   8.940   1.941  1.0050  1.1380  0.2602
  394MOL0     N51893  10.048   8.903   2.005  0.1487  0.5151 -0.9107
  394MOL0     C51894  10.006   8.780   2.015  0.5217  0.0253 -0.2976
  394MOL0     C51895   9.879   8.785   2.060  0.8978  0.1999 -0.2311
  394MOL0     C51896   9.802   8.663   2.089  0.5364  0.8908  0.1032
  394MOL0     C51897   9.658   8.696   2.112  0.0139  0.0008 -0.5982
  394MOL0     C51898   9.653   8.746   2.266  0.1970 -0.5632 -0.2467
  394MOL0     C51899   9.516   8.789   2.305 -0.2836  0.4854  0.5044
  394MOL0     O51900   9.515   8.812   2.442  0.1675  0.1844  0.7141
  394MOL0     C51901   9.396   8.794   2.515  1.0162 -0.3471 -0.6352
  394MOL0     C51902   9.411   8.748   2.649 -0.7504  0.7397  0.5014
  394MOL0     C51903   9.297   8.708   2.728  0.3696  0.1134  0.3918
  394MOL0     C51904   9.182   8.697   2.658  1.1412 -0.0817  0.3578
  394MOL0     C51905   9.064   8.649   2.728 -0.3473 -0.3376  0.2993
  394MOL0     O51906   8.941   8.682   2.670 -0.0995 -0.4976 -0.5923
  394MOL0     C51907   8.826   8.622   2.714 -0.5296 -0.2565  0.5329
  394MOL0     C51908   8.770   8.505   2.669  0.8757  0.3639 -0.0954
  394MOL0     C51909   8.645   8.460   2.713  0.2229 -0.7140  0.3020
  394MOL0     C51910   8.575   8.530   2.807 -0.1420 -0.9817 -0.1310
  394MOL0     O51911   8.455   8.471   2.856 -1.0489 -0.2624  0.2025
  394MOL0     C51912   8.336   8.546   2.841 -0.5409  0.2919  0.2258
  394MOL0     C51913   8.287   8.556   2.693 -0.2638  0.3294  0.5190
  394MOL0     C51914   8.198   8.443   2.651  0.6938 -0.5412  0.1303
  394MOL0     C51915   8.041   8.439   2.709 -1.0206 -0.1103 -0.1528
  394MOL0     C51916   7.989   8.308   2.713  0.3310 -0.4180  0.5942
  394MOL0     C51917   7.850   8.315   2.787  0.9332 -0.2672 -0.4334
  394MOL0     C51918   7.723   8.372   2.703 -0.8573  0.7789  0.2156
  394MOL0     C51919   7.609   8.414   2.790 -0.4461  0.9398 -0.0189
  394MOL0    Cl51920   7.578   8.280   2.900  0.0746  0.3660 -0.1993
  394MOL0     C51921   8.632   8.651   2.865  0.6616  0.5938 -0.5672
  394MOL0     C51922   8.752   8.698   2.810 -0.6570  0.1892 -0.2038
  394MOL0     O51923   9.079   8.580   2.828  0.3604  0.4154 -0.7483
  394MOL0     C51924   9.162   8.744   2.531 -0.0494 -1.0128  1.2291
  394MOL0     C51925   9.268   8.795   2.465  0.4413 -0.4199  0.4451
  394MOL0     N51926   9.852   8.915   2.087  0.6396 -0.0709  0.1314
  394MOL0     N51927   9.952   8.990   2.053 -0.0127 -0.1064 -0.1915
  394MOL0     C51928  10.694   9.391   2.503  0.6207  0.2814 -0.2963
  394MOL0     C51929  10.748   9.487   2.418 -0.1342 -0.0029 -0.4909
  394MOL0     C51930  10.726   9.876   2.180  0.0150  0.0166  0.3555
  394MOL0     C51931  10.863   9.895   2.153  0.2519 -0.2928 -1.0044
  394MOL0     C51932  10.912  10.009   2.098 -0.1496  0.2341  0.0976
  394MOL0     C51933  10.829  10.099   2.039 -0.2013 -0.3250 -1.9279
  394MOL0     O51934  10.891  10.207   1.979  0.2599  0.8443  0.1347
  394MOL0     C51935  10.815  10.323   1.939 -0.1007 -0.6304  0.8372
  394MOL0     C51936  10.898  10.445   1.898 -0.2133  1.0155  0.5583
  394MOL0     C51937  10.801  10.565   1.865 -0.6964 -0.2612 -0.6768
  394MOL0     C51938  10.880  10.691   1.816 -0.6134  0.3008 -0.2223
  394MOL0     C51939  10.973  10.663   1.709 -0.6078  0.2534  0.1823
  394MOL0     C51940  11.056  10.637   1.623 -0.0872 -0.4618  0.3736
  394MOL0     C51941  10.695  10.071   2.033  0.2197  0.1100 -0.5185
  394MOL0     C51942  10.639   9.967   2.109  1.6575  0.5323  0.1137
  394MOL0     H51943  10.537   9.461   2.151  0.2047  0.9251  0.1664
  394MOL0     H51944  10.428   9.301   2.302 -2.2216  2.7147 -0.8702
  394MOL0     H51945  10.629   9.135   2.695 -0.6868 -0.6214  0.2488
  394MOL0     H51946  10.688   9.107   2.530  0.1921 -1.4840  0.2951
  394MOL0     H51947  10.421   9.009   2.637 -0.5940 -1.7424 -1.3935
  394MOL0     H51948  10.569   8.912   2.672 -2.1395  2.9193  3.3972
  394MOL0     H51949  10.422   8.811   2.486 -1.1782  0.1330  1.6704
  394MOL0     H51950  10.586   8.853   2.430 -0.0925  1.0035 -0.2230
  394MOL0     H51951  10.338   9.020   2.412 -0.8614 -2.2982  0.1578
  394MOL0     H51952  10.490   9.055   2.315 -1.3996  1.0353 -1.2969
  394MOL0     H51953  10.340   8.799   2.272  1.6600 -2.2914 -0.4810
  394MOL0     H51954  10.492   8.855   2.204 -0.7424 -0.4370  0.1221
  394MOL0     H51955  10.338   9.068   2.135  1.1620 -0.2185 -0.0451
  394MOL0     H51956  10.199   8.962   2.190 -1.0023 -1.1525 -2.3384
  394MOL0     H51957  10.386   8.904   1.957 -1.3031 -2.0282 -2.1188
  394MOL0     H51958  10.292   8.785   2.033 -0.8776  0.9628  0.5889
  394MOL0     H51959  10.187   8.887   1.846  2.0593 -0.1026  1.0005
  394MOL0     H51960  10.188   9.046   1.918 -0.6904  1.1926 -0.2879
  394MOL0     H51961  10.064   8.690   1.997  3.8562  1.4367  2.3246
  394MOL0     H51962   9.827   8.615   2.184 -2.8289 -0.0496  0.6416
  394MOL0     H51963   9.817   8.585   2.014  0.3294 -2.0529  2.8723
  394MOL0     H51964   9.597   8.609   2.085 -1.3114  1.1290 -1.3402
  394MOL0     H51965   9.621   8.770   2.041 -1.6251 -1.4091 -1.2772
  394MOL0     H51966   9.690   8.671   2.337  2.9877 -0.5854 -1.6079
  394MOL0     H51967   9.729   8.823   2.277  0.0952 -0.3784 -0.8007
  394MOL0     H51968   9.447   8.707   2.285 -0.0911  0.0660  1.5355
  394MOL0     H51969   9.496   8.879   2.247 -0.3423 -0.0425 -0.3204
  394MOL0     H51970   9.513   8.745   2.687 -0.9399  4.0879  1.5730
  394MOL0     H51971   9.312   8.647   2.817  0.4192  1.1443  1.1172
  394MOL0     H51972   8.819   8.435   2.602  0.1642  1.7296 -2.1716
  394MOL0     H51973   8.608   8.363   2.681  3.8109 -2.1372 -0.0391
  394MOL0     H51974   8.340   8.648   2.881 -2.9475  0.0020  1.4089
  394MOL0     H51975   8.271   8.491   2.909  1.4807  0.5993  2.5656
  394MOL0     H51976   8.370   8.563   2.622 -0.5027 -0.1613  0.1897
  394MOL0     H51977   8.225   8.646   2.692  0.9005  1.1567  0.6322
  394MOL0     H51978   8.244   8.350   2.687  1.2068 -0.8287 -1.2124
  394MOL0     H51979   8.189   8.435   2.542 -3.0443  1.0017  0.1865
  394MOL0     H51980   8.043   8.496   2.802  0.2964  0.7472 -0.6812
  394MOL0     H51981   7.970   8.484   2.638 -2.9703  0.4122  2.0239
  394MOL0     H51982   8.058   8.254   2.779 -0.5857 -0.3289  1.6524
  394MOL0     H51983   7.989   8.260   2.615  1.3191 -1.1065  0.9131
  394MOL0     H51984   7.858   8.361   2.886  0.4920 -3.0060  0.9740
  394MOL0     H51985   7.817   8.215   2.817 -1.6355  0.4917 -0.4748
  394MOL0     H51986   7.762   8.464   2.657  2.2129 -0.4382  0.1200
  394MOL0     H51987   7.689   8.297   2.631  1.8034 -0.4175  0.0746
  394MOL0     H51988   7.527   8.451   2.728  0.0332  0.3829 -1.0260
  394MOL0     H51989   7.643   8.495   2.856  1.0604  1.6846 -1.6151
  394MOL0     H51990   8.575   8.714   2.932  2.0439  0.8442  0.4136
  394MOL0     H51991   8.784   8.793   2.851 -1.2732 -0.1040  0.9852
  394MOL0     H51992   9.063   8.732   2.487  0.5837 -3.3466  0.3253
  394MOL0     H51993   9.243   8.825   2.363 -2.1206  1.6294  1.5549
  394MOL0     H51994  10.744   9.368   2.597  1.6115  1.4451 -0.5184
  394MOL0     H51995  10.835   9.541   2.455 -1.8805  0.2612  3.8627
  394MOL0     H51996  10.919   9.809   2.189  0.5647 -0.8261 -2.6822
  394MOL0     H51997  11.019  10.026   2.090  0.0031 -1.1509 -1.1708
  394MOL0     H51998  10.744  10.349   2.018 -3.8542 -1.6514 -1.9225
  394MOL0     H51999  10.757  10.302   1.849  2.4755  2.5005 -1.8162
  394MOL0     H52000  10.970  10.473   1.976  0.8752  1.4093 -0.5489
  394MOL0     H52001  10.961  10.428   1.810 -0.7460  2.1450 -0.0775
  394MOL0     H52002  10.766  10.588   1.966  4.1907  3.5785  0.5011
  394MOL0     H52003  10.716  10.540   1.800 -0.3708  1.6419 -1.8894
  394MOL0     H52004  10.814  10.773   1.788  1.6449  2.0251 -0.7109
  394MOL0     H52005  10.938  10.743   1.893  1.5294  0.7070 -1.9974
  394MOL0     H52006  11.118  10.629   1.537 -0.1472 -3.6160  0.5174
  394MOL0     H52007  10.627  10.143   1.989  0.2394  1.0091  0.8401
  394MOL0     H52008  10.531   9.956   2.118  1.9163 -0.1843  3.9223
  395MOL0     O52009   2.598   9.597   4.324  0.4992  0.9412 -0.2332
  395MOL0     C52010   2.714   9.553   4.308 -0.0298  1.0693  0.8829
  395MOL0     O52011   2.751   9.447   4.227 -0.1240  0.0960 -0.3241
  395MOL0     C52012   2.645   9.382   4.163 -0.1648 -0.0619 -0.7881
  395MOL0     C52013   2.682   9.317   4.041  0.1665  0.2864 -0.0093
  395MOL0     C52014   2.590   9.261   3.961  0.4931  1.1483  0.1402
  395MOL0     C52015   2.453   9.261   3.993 -0.1405  0.2293 -0.1770
  395MOL0     O52016   2.366   9.195   3.906 -0.7528 -0.0927  0.8469
  395MOL0     C52017   2.223   9.216   3.898 -0.1780 -0.4237 -0.5691
  395MOL0     C52018   2.171   9.122   3.798  0.1557 -0.4791 -0.3358
  395MOL0     C52019   2.023   9.165   3.744  0.6229  0.7344 -0.7757
  395MOL0     C52020   1.959   9.043   3.672  0.4043 -0.3609 -0.0515
  395MOL0     C52021   1.816   9.057   3.615 -0.5830 -0.2743  0.0353
  395MOL0     C52022   1.812   9.159   3.499 -0.2937  0.3706 -0.3327
  395MOL0     C52023   1.670   9.176   3.439 -0.5816 -0.4191 -0.4345
  395MOL0     C52024   1.618   9.050   3.360 -0.0629 -0.0420  0.2754
  395MOL0     N52025   1.723   8.972   3.293  0.9441  0.5292 -0.5513
  395MOL0     C52026   1.800   8.863   3.337 -0.2587  0.3254  0.2796
  395MOL0     C52027   1.860   8.823   3.223  0.9985  0.4339  0.4560
  395MOL0     C52028   1.957   8.700   3.215 -0.0465 -0.0481 -0.8550
  395MOL0     C52029   2.082   8.727   3.300  0.2307 -0.1212  0.1228
  395MOL0     C52030   2.138   8.866   3.262 -0.1959 -0.0841 -0.2105
  395MOL0     C52031   2.277   8.884   3.311  0.3824  0.4045  0.0785
  395MOL0     O52032   2.289   8.875   3.454 -0.0992 -0.1465  0.8448
  395MOL0     C52033   2.412   8.892   3.505  1.1840  0.6250 -1.0652
  395MOL0     C52034   2.524   8.909   3.435  0.1440 -0.3182  0.9057
  395MOL0     C52035   2.649   8.918   3.502  0.0517  0.5325  0.2504
  395MOL0     C52036   2.660   8.931   3.647  0.1918  0.0299 -0.3401
  395MOL0     C52037   2.797   8.954   3.707 -0.3718  0.5701  0.3897
  395MOL0     O52038   2.816   8.946   3.844 -0.2981 -0.0666  0.1343
  395MOL0     C52039   2.922   9.009   3.911 -0.4336  0.1095 -0.6277
  395MOL0     C52040   2.998   9.127   3.873  0.4546  0.3302 -0.1500
  395MOL0     C52041   3.073   9.201   3.962  1.0156  0.2577 -0.7039
  395MOL0     C52042   3.071   9.164   4.093 -0.2160  0.6437  0.1393
  395MOL0     O52043   3.127   9.237   4.194 -0.3131 -0.5769 -0.9217
  395MOL0     C52044   3.266   9.242   4.176 -0.2178 -0.2259 -0.7063
  395MOL0     C52045   3.317   9.377   4.145 -0.3154  0.1185  0.6008
  395MOL0     C52046   3.472   9.400   4.159  0.5808 -0.6424  0.7593
  395MOL0     C52047   3.535   9.543   4.123 -0.6632 -0.2033 -0.4802
  395MOL0     C52048   3.616   9.537   3.991 -0.5054  0.3420  0.5555
  395MOL0     C52049   3.657   9.675   3.959 -0.1671  0.6366 -0.3742
  395MOL0     C52050   3.741   9.677   3.827  0.3256  0.7704  0.0757
  395MOL0     C52051   3.785   9.818   3.794  1.0166  0.8138  0.5336
  395MOL0    Cl52052   3.633   9.918   3.757  0.6451 -0.2217 -0.4003
  395MOL0     C52053   2.976   9.071   4.145 -0.0361 -0.1971  0.1275
  395MOL0     C52054   2.919   8.985   4.054  0.3365  0.5345  0.4377
  395MOL0     O52055   2.882   8.975   3.629 -1.0495  0.4793 -0.4063
  395MOL0     C52056   2.543   8.906   3.715  0.5533  0.8961  0.2028
  395MOL0     C52057   2.426   8.880   3.646 -0.0942  1.1311 -0.3322
  395MOL0     N52058   1.832   8.910   3.118  0.4467  0.0304  0.4972
  395MOL0     N52059   1.746   9.000   3.156 -0.7183  0.4884  0.0650
  395MOL0     C52060   2.415   9.322   4.114  0.5802 -0.2278  0.6481
  395MOL0     C52061   2.513   9.373   4.204  0.7296 -0.7965  0.4342
  395MOL0     C52062   2.825   9.632   4.336 -0.6307  0.6801 -0.0456
  395MOL0     C52063   2.954   9.580   4.347  0.2775 -0.4625  0.1231
  395MOL0     C52064   3.067   9.664   4.373 -0.2109 -0.1531  0.7699
  395MOL0     C52065   3.057   9.802   4.393 -0.4320  0.2212  0.0332
  395MOL0     O52066   3.171   9.884   4.415 -0.2428 -0.1995  0.9590
  395MOL0     C52067   3.285   9.822   4.459 -0.2220 -0.1638 -0.3115
  395MOL0     C52068   3.381   9.929   4.517  0.0231  0.0634 -1.1902
  395MOL0     C52069   3.354   9.989   4.654  0.4719 -0.0976 -0.0828
  395MOL0     C52070   3.245  10.088   4.664 -0.0025  0.3724  0.7122
  395MOL0     C52071   3.221  10.107   4.809  0.1588 -0.0685 -0.3197
  395MOL0     C52072   3.198  10.115   4.929  1.1809  0.0025  1.3039
  395MOL0     C52073   2.924   9.854   4.384  0.7013  0.1850  0.3246
  395MOL0     C52074   2.816   9.768   4.357  0.0485  0.4699 -0.4493
  395MOL0     H52075   2.782   9.303   4.003  0.0959 -0.6295  0.1281
  395MOL0     H52076   2.621   9.212   3.870 -3.9425  1.5559 -1.8716
  395MOL0     H52077   2.203   9.313   3.851 -0.9341 -0.1968  0.1788
  395MOL0     H52078   2.168   9.199   3.991 -1.9869  1.2174 -1.2606
  395MOL0     H52079   2.170   9.021   3.839  0.9299 -0.1762  0.4429
  395MOL0     H52080   2.231   9.114   3.706 -0.6429  0.7851 -0.9918
  395MOL0     H52081   2.037   9.245   3.670 -0.2515  0.4066 -1.3055
  395MOL0     H52082   1.951   9.199   3.819 -1.6244 -1.2111 -1.9040
  395MOL0     H52083   2.028   9.041   3.587 -0.3464 -0.0166 -0.6852
  395MOL0     H52084   1.947   8.951   3.730 -3.9969 -1.5285 -2.3141
  395MOL0     H52085   1.743   9.095   3.687 -1.6147  0.7832 -1.5098
  395MOL0     H52086   1.796   8.959   3.571  2.3633  0.2165 -2.7849
  395MOL0     H52087   1.872   9.125   3.414 -2.3036  1.0580 -2.1257
  395MOL0     H52088   1.844   9.261   3.521  1.4870  0.0310 -1.1219
  395MOL0     H52089   1.603   9.202   3.522  0.7351  0.4049  0.4082
  395MOL0     H52090   1.668   9.266   3.378 -1.3105  0.7773  1.2812
  395MOL0     H52091   1.535   9.067   3.292 -2.8820 -1.2836  3.1411
  395MOL0     H52092   1.579   8.982   3.436  0.1904 -1.5606 -0.9290
  395MOL0     H52093   1.813   8.802   3.426  0.0486 -1.1581 -0.7398
  395MOL0     H52094   1.983   8.672   3.112  2.8233  0.4250 -0.3514
  395MOL0     H52095   1.896   8.619   3.255 -3.3639  1.6746 -1.9626
  395MOL0     H52096   2.150   8.650   3.262 -0.7576 -0.8811 -0.1296
  395MOL0     H52097   2.064   8.728   3.408 -1.3784 -0.4644 -0.1190
  395MOL0     H52098   2.144   8.888   3.155 -0.2603 -1.4824 -0.5089
  395MOL0     H52099   2.090   8.943   3.324  1.9689  1.2650 -0.1257
  395MOL0     H52100   2.309   8.984   3.279  0.1049  1.1493  2.0084
  395MOL0     H52101   2.327   8.804   3.255 -0.0837  2.3421 -3.3758
  395MOL0     H52102   2.534   8.920   3.327  2.2957 -2.2131  0.8387
  395MOL0     H52103   2.731   8.941   3.435 -1.2729  2.0528 -0.9420
  395MOL0     H52104   2.993   9.169   3.773 -1.8534  0.6717  0.0493
  395MOL0     H52105   3.136   9.282   3.928  0.5038 -0.5281 -3.7645
  395MOL0     H52106   3.299   9.170   4.100  0.4217 -1.4292  0.6497
  395MOL0     H52107   3.307   9.198   4.267  0.3650  0.8604 -0.4266
  395MOL0     H52108   3.273   9.456   4.208  1.5153  1.7125 -0.0019
  395MOL0     H52109   3.296   9.412   4.044 -0.1852  0.9743  0.8536
  395MOL0     H52110   3.520   9.324   4.096  2.3592  2.5809 -2.1478
  395MOL0     H52111   3.485   9.380   4.265  1.5523  0.3406  0.8420
  395MOL0     H52112   3.453   9.615   4.122 -0.6353 -0.0608  1.9040
  395MOL0     H52113   3.600   9.566   4.208 -2.0485  0.7927  0.3488
  395MOL0     H52114   3.557   9.487   3.914  0.5947  1.9087 -1.4003
  395MOL0     H52115   3.705   9.475   3.997 -1.4271 -1.3026 -1.5289
  395MOL0     H52116   3.719   9.704   4.045 -0.4420  1.0722 -0.3198
  395MOL0     H52117   3.570   9.741   3.955 -0.4915  0.1321 -2.7330
  395MOL0     H52118   3.826   9.607   3.829  0.2887  0.6527 -1.3973
  395MOL0     H52119   3.689   9.643   3.738  0.8726  1.1878 -0.4096
  395MOL0     H52120   3.860   9.825   3.714  1.7369  0.8010  1.1912
  395MOL0     H52121   3.827   9.860   3.886 -1.5701 -1.7017  3.0280
  395MOL0     H52122   2.966   9.061   4.253  0.7325 -0.0461  0.2241
  395MOL0     H52123   2.844   8.912   4.080 -1.8309  2.2918 -0.5742
  395MOL0     H52124   2.539   8.895   3.823  0.0797 -3.3345 -0.0710
  395MOL0     H52125   2.337   8.864   3.705  0.3894  1.1480  0.4045
  395MOL0     H52126   2.315   9.328   4.156  0.6325 -1.5389  0.9969
  395MOL0     H52127   2.480   9.387   4.307 -1.3158 -2.0579  0.0273
  395MOL0     H52128   2.973   9.473   4.352  1.4300 -0.3249 -0.7443
  395MOL0     H52129   3.159   9.608   4.378  0.8576  1.3141 -1.1854
  395MOL0     H52130   3.342   9.770   4.381  1.4843 -1.3397  1.6320
  395MOL0     H52131   3.267   9.749   4.537  1.1468 -0.1215  0.0728
  395MOL0     H52132   3.486   9.900   4.520  0.9121  2.9260 -1.8353
  395MOL0     H52133   3.396  10.005   4.440  2.5632  0.3147 -0.5174
  395MOL0     H52134   3.448  10.040   4.677  0.7320 -0.6087  0.0179
  395MOL0     H52135   3.345   9.907   4.727 -0.8941  0.2629  0.1911
  395MOL0     H52136   3.267  10.186   4.620 -0.2941  0.4700  0.7882
  395MOL0     H52137   3.162  10.040   4.610  0.6767  0.2833 -0.2982
  395MOL0     H52138   3.189  10.122   5.035  0.2357  0.2367  1.2154
  395MOL0     H52139   2.915   9.960   4.409 -0.8302 -0.1558  1.3919
  395MOL0     H52140   2.727   9.828   4.340 -1.5749 -2.4815 -3.7723
  396MOL0     O52141   9.386   2.407   1.432  0.2933  0.3098 -0.2561
  396MOL0     C52142   9.386   2.449   1.319  0.3771  0.3952  0.0919
  396MOL0     O52143   9.297   2.429   1.219  0.0155  0.7192  0.5317
  396MOL0     C52144   9.173   2.369   1.243 -1.9167  0.7367  0.8370
  396MOL0     C52145   9.156   2.246   1.324 -0.4046  0.2054 -0.3234
  396MOL0     C52146   9.037   2.175   1.296 -0.7283 -0.3433  0.0693
  396MOL0     C52147   8.939   2.223   1.203 -0.4464  0.3833  0.1115
  396MOL0     O52148   8.837   2.130   1.176  0.0570  0.1277 -0.9507
  396MOL0     C52149   8.737   2.152   1.073 -0.3635 -0.2536  0.3624
  396MOL0     C52150   8.618   2.060   1.101 -0.5424  0.0359  0.6918
  396MOL0     C52151   8.632   1.919   1.026  0.6228 -0.0536 -0.2150
  396MOL0     C52152   8.503   1.836   1.045 -0.0258  0.0299  0.4271
  396MOL0     C52153   8.531   1.691   1.041  0.1242 -0.2916  0.0956
  396MOL0     C52154   8.592   1.636   0.908 -0.0957 -0.0680 -0.8052
  396MOL0     C52155   8.665   1.490   0.909 -0.8964 -1.2315 -0.1598
  396MOL0     C52156   8.706   1.452   0.768 -0.1788  0.0106  0.0814
  396MOL0     N52157   8.838   1.516   0.723  0.2121 -0.3406 -0.3521
  396MOL0     C52158   8.950   1.464   0.772  0.3984 -0.2535 -0.0495
  396MOL0     C52159   9.053   1.527   0.713  0.8937  0.3984  0.0059
  396MOL0     C52160   9.198   1.487   0.717 -0.4334 -0.1827  0.0365
  396MOL0     C52161   9.208   1.336   0.682  0.1275 -0.5259  0.8240
  396MOL0     C52162   9.177   1.296   0.537 -0.5632 -0.6725  0.2889
  396MOL0     C52163   9.194   1.147   0.512  0.3882 -0.1919 -0.3801
  396MOL0     O52164   9.328   1.104   0.505 -0.4461 -0.1860 -0.2944
  396MOL0     C52165   9.397   1.102   0.385  0.3448 -0.8343 -1.2764
  396MOL0     C52166   9.519   1.041   0.375 -1.1315 -0.6299  0.8193
  396MOL0     C52167   9.603   1.038   0.261 -0.1888 -1.3622  0.0725
  396MOL0     C52168   9.556   1.100   0.146 -0.1697 -0.6334  0.2557
  396MOL0     C52169   9.627   1.084   0.009  0.3245  0.0377  0.1749
  396MOL0     O52170   9.732   0.999   0.005 -0.2909  0.5332  0.0689
  396MOL0     C52171   9.807   0.963  -0.106 -0.7850  0.8766  0.0691
  396MOL0     C52172   9.870   0.836  -0.102  0.8639  0.1286  0.2661
  396MOL0     C52173   9.953   0.781  -0.206  0.9485 -0.3379 -0.4492
  396MOL0     C52174   9.983   0.859  -0.321  0.9598  0.5134  0.7923
  396MOL0     O52175  10.063   0.810  -0.429  0.0200  0.2619 -0.2723
  396MOL0     C52176  10.117   0.677  -0.406  0.6323  0.1789  0.3078
  396MOL0     C52177  10.190   0.627  -0.532 -1.2723 -0.1270 -0.1227
  396MOL0     C52178  10.114   0.608  -0.657  0.4274  0.1017 -1.1252
  396MOL0     C52179  10.006   0.508  -0.635  0.8000 -0.2639 -0.3232
  396MOL0     C52180   9.944   0.470  -0.772 -0.2269 -0.1315 -0.0968
  396MOL0     C52181   9.825   0.372  -0.735 -0.2484  0.0030  0.4013
  396MOL0     C52182   9.776   0.300  -0.857  0.2759  0.4728 -0.2089
  396MOL0     C52183   9.654   0.218  -0.844 -0.3536 -0.2365 -0.7327
  396MOL0    Cl52184   9.707   0.075  -0.747  0.0771 -0.1633  0.4801
  396MOL0     C52185   9.922   0.983  -0.333  0.4092  0.9602 -0.0720
  396MOL0     C52186   9.833   1.030  -0.229 -0.0321  0.2545  0.0670
  396MOL0     O52187   9.590   1.147  -0.086 -0.0670 -0.4432 -0.0635
  396MOL0     C52188   9.434   1.169   0.153 -0.3559  0.2835 -1.6229
  396MOL0     C52189   9.359   1.173   0.274 -0.2901  0.0651 -0.8138
  396MOL0     N52190   9.004   1.641   0.657  0.0004  0.4403  0.3769
  396MOL0     N52191   8.870   1.636   0.665 -0.6992 -0.2659  0.0225
  396MOL0     C52192   8.967   2.338   1.130  0.3456 -1.0386 -0.8996
  396MOL0     C52193   9.079   2.409   1.137 -0.4109 -0.7143 -1.0758
  396MOL0     C52194   9.489   2.544   1.282  0.8362 -0.2944  0.2675
  396MOL0     C52195   9.464   2.684   1.255 -0.4329  0.7839  0.0738
  396MOL0     C52196   9.570   2.761   1.222  0.5426 -0.6791  0.1454
  396MOL0     C52197   9.701   2.710   1.224  0.5736  0.4113  0.3932
  396MOL0     O52198   9.813   2.784   1.208 -0.0975  0.7775 -0.4006
  396MOL0     C52199   9.807   2.925   1.189 -0.1672  0.6765  0.3645
  396MOL0     C52200   9.945   2.966   1.139  0.5465  0.5981 -0.0047
  396MOL0     C52201  10.015   2.883   1.033  0.1525 -0.0848 -0.9128
  396MOL0     C52202   9.960   2.899   0.889  0.9030 -1.0144  0.3855
  396MOL0     C52203  10.031   3.020   0.837 -0.0165  0.1548 -0.2011
  396MOL0     C52204  10.075   3.118   0.781  0.2158  0.6624  0.8050
  396MOL0     C52205   9.727   2.575   1.249 -0.0983 -0.5380  0.2006
  396MOL0     C52206   9.618   2.487   1.275 -0.5270  0.0857  0.1141
  396MOL0     H52207   9.242   2.198   1.369  2.4972  0.4965 -4.9047
  396MOL0     H52208   9.031   2.069   1.320  0.1001 -0.8693 -1.8108
  396MOL0     H52209   8.774   2.142   0.971 -1.0090 -0.3299  0.1309
  396MOL0     H52210   8.684   2.247   1.088 -4.2981 -1.8372 -2.0604
  396MOL0     H52211   8.530   2.105   1.054  1.5035  1.6492 -1.8826
  396MOL0     H52212   8.595   2.044   1.207 -2.0527 -1.3516  0.1900
  396MOL0     H52213   8.718   1.866   1.068  0.4343 -0.7738 -0.7117
  396MOL0     H52214   8.649   1.945   0.921  1.8105  0.0320 -0.0151
  396MOL0     H52215   8.457   1.870   1.138 -0.0383  0.3633  0.3007
  396MOL0     H52216   8.444   1.866   0.958  0.0002  1.4421  0.8737
  396MOL0     H52217   8.441   1.633   1.063 -1.2765  0.2731 -3.3924
  396MOL0     H52218   8.599   1.670   1.124 -1.4590 -1.0415  1.2395
  396MOL0     H52219   8.677   1.697   0.877  1.9645 -3.6974 -2.8814
  396MOL0     H52220   8.518   1.630   0.828 -1.0094  2.6016 -0.2759
  396MOL0     H52221   8.755   1.494   0.971 -0.0888 -0.2430 -1.3508
  396MOL0     H52222   8.610   1.398   0.929 -2.0320 -0.6629 -0.5983
  396MOL0     H52223   8.624   1.478   0.700  1.0797 -0.9475 -1.8721
  396MOL0     H52224   8.731   1.346   0.765  2.1089  0.4434  1.5237
  396MOL0     H52225   8.956   1.370   0.827 -0.3127 -0.9449 -1.1153
  396MOL0     H52226   9.241   1.497   0.816  2.2009 -2.3587 -0.7558
  396MOL0     H52227   9.246   1.543   0.636  0.3799 -1.2781 -0.2678
  396MOL0     H52228   9.141   1.278   0.745 -4.2795 -3.1168 -5.2042
  396MOL0     H52229   9.314   1.314   0.697 -0.1419 -1.3047  1.6369
  396MOL0     H52230   9.076   1.333   0.519  0.5574  2.0522 -1.0077
  396MOL0     H52231   9.233   1.361   0.469  0.5404  0.2831  2.0385
  396MOL0     H52232   9.147   1.137   0.413  0.8400 -1.7402 -0.4659
  396MOL0     H52233   9.136   1.090   0.585 -0.1845  1.3286  0.3811
  396MOL0     H52234   9.561   0.985   0.459  2.9340  3.5117  1.9598
  396MOL0     H52235   9.701   0.992   0.257 -1.5306 -4.7793  2.2476
  396MOL0     H52236   9.860   0.775  -0.013 -0.0715 -0.3511 -0.1530
  396MOL0     H52237   9.985   0.679  -0.189 -0.3144 -0.7247 -0.2925
  396MOL0     H52238  10.040   0.601  -0.394  1.2965 -0.8792 -1.6136
  396MOL0     H52239  10.192   0.675  -0.326  0.6660  0.8069  0.2999
  396MOL0     H52240  10.241   0.534  -0.505 -0.6371  0.0384 -0.7115
  396MOL0     H52241  10.271   0.699  -0.550  1.1346 -1.9559  2.4229
  396MOL0     H52242  10.192   0.575  -0.727  0.4622  1.0653 -1.5611
  396MOL0     H52243  10.079   0.704  -0.695 -0.9351 -0.5370 -1.5463
  396MOL0     H52244  10.045   0.423  -0.579 -1.1339 -0.5315  0.7227
  396MOL0     H52245   9.925   0.550  -0.575  1.4455 -0.3225  0.5962
  396MOL0     H52246  10.013   0.413  -0.836 -0.7944  1.1476 -1.9210
  396MOL0     H52247   9.894   0.546  -0.833 -2.3392 -3.0405 -2.3121
  396MOL0     H52248   9.744   0.429  -0.687  0.1860  1.0386 -0.0731
  396MOL0     H52249   9.863   0.299  -0.663 -0.1303 -0.7504 -0.4072
  396MOL0     H52250   9.756   0.375  -0.933  0.5346 -0.3631 -1.1282
  396MOL0     H52251   9.852   0.235  -0.903 -2.0207 -3.0869  0.5854
  396MOL0     H52252   9.622   0.199  -0.947  0.8142  3.0930 -1.8414
  396MOL0     H52253   9.569   0.271  -0.800 -2.2267 -2.8630 -0.9428
  396MOL0     H52254   9.955   1.023  -0.428  3.6427 -2.0122 -0.4253
  396MOL0     H52255   9.767   1.116  -0.230  1.4295  1.4314 -1.5943
  396MOL0     H52256   9.395   1.224   0.068 -2.9220 -0.5955 -1.1125
  396MOL0     H52257   9.266   1.228   0.271 -1.8614 -2.2764  0.7826
  396MOL0     H52258   8.888   2.385   1.071 -1.3876 -0.7696  1.4985
  396MOL0     H52259   9.099   2.483   1.060 -2.9249  0.5926 -0.6116
  396MOL0     H52260   9.365   2.728   1.252 -0.5140  0.5826 -1.8873
  396MOL0     H52261   9.544   2.866   1.208 -0.8241 -0.8741  1.0802
  396MOL0     H52262   9.778   2.973   1.283  0.1796  0.5291  0.5459
  396MOL0     H52263   9.726   2.947   1.118  1.6276 -2.3105 -2.9101
  396MOL0     H52264   9.929   3.069   1.104 -1.8545  0.6025  0.9361
  396MOL0     H52265  10.008   2.981   1.227  1.0172  0.6124 -0.3348
  396MOL0     H52266  10.011   2.776   1.053 -0.6877  0.1047 -0.0283
  396MOL0     H52267  10.120   2.912   1.026 -0.0162  1.1470  0.9237
  396MOL0     H52268   9.977   2.808   0.830 -2.5133 -0.8638 -1.0272
  396MOL0     H52269   9.852   2.914   0.897  0.5091 -3.6042  0.7216
  396MOL0     H52270  10.113   3.187   0.709  0.9054  1.2060  1.6604
  396MOL0     H52271   9.831   2.545   1.240 -0.2613 -0.4891 -3.9644
  396MOL0     H52272   9.627   2.380   1.290 -1.1261  0.1131  0.7038
  397MOL0     O52273   3.026   8.527  10.830  0.6022  0.2973 -0.1307
  397MOL0     C52274   3.147   8.551  10.807  0.0297  1.0255 -0.5942
  397MOL0     O52275   3.250   8.528  10.891 -0.0191 -0.0876  0.1395
  397MOL0     C52276   3.238   8.463  11.008  0.1929  0.0611  0.0626
  397MOL0     C52277   3.127   8.452  11.096 -0.2933 -0.8395  0.0981
  397MOL0     C52278   3.138   8.379  11.211 -0.0801 -0.5783  0.4888
  397MOL0     C52279   3.260   8.322  11.257  0.7444 -0.1529  0.5225
  397MOL0     O52280   3.264   8.266  11.380  0.8724 -0.1650  0.5042
  397MOL0     C52281   3.387   8.203  11.432  0.6612  0.4552  0.6370
  397MOL0     C52282   3.343   8.105  11.552 -0.6851 -0.6263  0.4265
  397MOL0     C52283   3.312   8.196  11.672  0.2080 -0.4003  0.1972
  397MOL0     C52284   3.262   8.117  11.793 -0.5670 -0.3020 -0.0481
  397MOL0     C52285   3.374   8.065  11.879 -0.5265 -0.4028 -0.4648
  397MOL0     C52286   3.339   7.942  11.977 -0.7101  0.0147 -0.1185
  397MOL0     C52287   3.453   7.872  12.041 -0.6153  0.6831 -0.3112
  397MOL0     C52288   3.414   7.796  12.169 -0.1313  0.3281  0.4336
  397MOL0     N52289   3.392   7.886  12.283  0.2278  0.5363  0.6770
  397MOL0     C52290   3.267   7.901  12.346 -0.5958 -0.0545 -0.3309
  397MOL0     C52291   3.300   7.983  12.454  0.0566  0.8286  0.5436
  397MOL0     C52292   3.212   8.040  12.559  0.2478  0.3539 -0.3682
  397MOL0     C52293   3.161   8.174  12.530  0.6919 -0.3459  1.0610
  397MOL0     C52294   3.287   8.256  12.547 -0.3878  0.4001  0.0033
  397MOL0     C52295   3.256   8.401  12.536  0.3161 -1.5405  0.3807
  397MOL0     O52296   3.372   8.482  12.533 -0.0926 -0.4629  0.8427
  397MOL0     C52297   3.358   8.609  12.505 -0.4109 -0.4652  0.3373
  397MOL0     C52298   3.355   8.695  12.604 -0.5222  0.6255 -0.0205
  397MOL0     C52299   3.320   8.837  12.573  0.5507 -0.4699  0.4056
  397MOL0     C52300   3.284   8.877  12.448 -0.4816 -1.0977  1.4707
  397MOL0     C52301   3.242   9.020  12.419 -0.0832 -0.0217 -0.2149
  397MOL0     O52302   3.192   9.054  12.293 -0.4792  0.1826 -0.4940
  397MOL0     C52303   3.150   9.184  12.277  0.3380  0.9858 -0.4218
  397MOL0     C52304   3.021   9.202  12.234  0.1362  0.2796 -0.6083
  397MOL0     C52305   2.960   9.327  12.227 -0.0216  1.0611 -0.0308
  397MOL0     C52306   3.037   9.441  12.244 -0.8657  0.2950 -0.5190
  397MOL0     O52307   2.998   9.571  12.226 -0.0317 -0.5182  0.4919
  397MOL0     C52308   2.860   9.592  12.177  0.9896  0.7511  0.0107
  397MOL0     C52309   2.850   9.740  12.158 -1.7541 -0.0187  0.5033
  397MOL0     C52310   2.819   9.777  12.012 -0.0310  0.0493  0.3735
  397MOL0     C52311   2.820   9.928  12.001  0.5125  0.6005  0.0843
  397MOL0     C52312   2.756   9.972  11.866  0.4357 -0.1340  0.7847
  397MOL0     C52313   2.837   9.926  11.736 -0.2565  1.0276 -0.0824
  397MOL0     C52314   2.767   9.973  11.610  0.1535 -0.7435  0.6442
  397MOL0     C52315   2.732  10.125  11.598 -0.6457 -0.7477  0.7150
  397MOL0    Cl52316   2.881  10.224  11.635  0.2941  0.2272  0.6786
  397MOL0     C52317   3.178   9.432  12.269 -1.0918 -0.4878 -0.4661
  397MOL0     C52318   3.228   9.297  12.291 -0.1969 -0.3958 -0.2639
  397MOL0     O52319   3.257   9.105  12.510 -0.0359  0.2555 -0.1259
  397MOL0     C52320   3.284   8.783  12.347  0.6868 -0.7848 -0.5918
  397MOL0     C52321   3.325   8.657  12.373  0.8790  0.7530 -0.8348
  397MOL0     N52322   3.438   7.994  12.463  0.0419  0.3040 -0.4451
  397MOL0     N52323   3.493   7.945  12.353 -0.8686  0.5429  0.3755
  397MOL0     C52324   3.364   8.327  11.171  0.3904 -0.3534  0.0893
  397MOL0     C52325   3.356   8.400  11.048  0.2919 -0.7750  0.6273
  397MOL0     C52326   3.184   8.622  10.686  0.6140 -0.0303 -0.3127
  397MOL0     C52327   3.318   8.629  10.655  1.5051  0.0474  1.0422
  397MOL0     C52328   3.359   8.708  10.539 -0.2686  0.1962 -0.3428
  397MOL0     C52329   3.269   8.781  10.463  0.7854 -0.5521  0.2600
  397MOL0     O52330   3.303   8.855  10.351  0.3122  0.5741  0.4141
  397MOL0     C52331   3.442   8.899  10.348  0.6099  0.2381 -0.0509
  397MOL0     C52332   3.489   8.992  10.471  0.8002 -0.1619  0.8224
  397MOL0     C52333   3.629   9.046  10.442 -0.5288 -0.5100  0.4896
  397MOL0     C52334   3.716   9.089  10.563 -0.0374 -0.0738  0.5711
  397MOL0     C52335   3.837   9.166  10.536 -0.5084 -0.1101  1.8139
  397MOL0     C52336   3.944   9.222  10.509  0.2585 -0.3392 -0.3766
  397MOL0     C52337   3.128   8.756  10.486  0.4168  0.1909  0.2920
  397MOL0     C52338   3.092   8.684  10.601 -0.3693 -0.5550 -0.3124
  397MOL0     H52339   3.040   8.513  11.073  0.0922 -0.3316 -0.0441
  397MOL0     H52340   3.053   8.375  11.279 -3.4581  3.2940 -2.9569
  397MOL0     H52341   3.462   8.280  11.450  0.7224  0.5440  0.0353
  397MOL0     H52342   3.424   8.148  11.344  0.5582  0.0783  0.8265
  397MOL0     H52343   3.426   8.040  11.579 -0.6713 -0.1331  1.6431
  397MOL0     H52344   3.254   8.048  11.525 -0.1989 -0.1172 -2.6412
  397MOL0     H52345   3.239   8.266  11.630 -1.8880 -0.4614  3.3788
  397MOL0     H52346   3.397   8.249  11.718  1.7875 -1.8976 -0.8865
  397MOL0     H52347   3.186   8.168  11.852 -2.4057 -1.6920 -1.1270
  397MOL0     H52348   3.217   8.027  11.751  0.9152 -0.7565 -0.7423
  397MOL0     H52349   3.419   8.139  11.945 -2.6278 -0.0062  0.6007
  397MOL0     H52350   3.455   8.036  11.811 -1.1284 -1.8018 -0.6068
  397MOL0     H52351   3.275   7.874  11.920 -0.9417 -0.8863  1.1865
  397MOL0     H52352   3.276   7.980  12.057 -1.9805 -1.7629 -0.2137
  397MOL0     H52353   3.494   7.802  11.968  3.3269  2.8461 -0.4628
  397MOL0     H52354   3.539   7.936  12.063  1.5723 -2.7095  1.9991
  397MOL0     H52355   3.493   7.732  12.207  0.7581 -0.4451 -2.4693
  397MOL0     H52356   3.316   7.752  12.145 -2.5686  4.1735  2.1849
  397MOL0     H52357   3.168   7.879  12.310 -1.8995  3.8536  0.3926
  397MOL0     H52358   3.265   8.028  12.654  1.4208  0.4770 -0.9802
  397MOL0     H52359   3.129   7.969  12.562 -0.3856  1.0493 -1.0925
  397MOL0     H52360   3.076   8.205  12.593 -0.1198 -1.8073  0.7360
  397MOL0     H52361   3.133   8.183  12.425  4.3114  0.7343  0.0659
  397MOL0     H52362   3.323   8.242  12.649 -2.4552 -1.6616  0.5393
  397MOL0     H52363   3.369   8.228  12.482 -0.6028  2.3687 -1.1832
  397MOL0     H52364   3.195   8.437  12.619  1.8659  4.1027 -0.5268
  397MOL0     H52365   3.202   8.420  12.443  0.7457 -3.6135 -0.3621
  397MOL0     H52366   3.355   8.657  12.706  0.2723  1.4383  0.2978
  397MOL0     H52367   3.309   8.909  12.653 -2.7749  0.7485 -0.9650
  397MOL0     H52368   2.968   9.112  12.204  1.4025 -0.9224  0.5950
  397MOL0     H52369   2.853   9.319  12.210  0.1981 -3.2541 -0.5531
  397MOL0     H52370   2.787   9.561  12.252  0.0031 -1.2241 -1.6790
  397MOL0     H52371   2.853   9.536  12.084  0.2829 -2.7533  1.9811
  397MOL0     H52372   2.940   9.791  12.193 -2.5367  3.2891 -1.7789
  397MOL0     H52373   2.771   9.785  12.219 -0.4558  3.7127 -0.3473
  397MOL0     H52374   2.727   9.729  11.977  1.1654 -0.8795 -1.6884
  397MOL0     H52375   2.899   9.738  11.948  0.7505 -2.5469  2.7144
  397MOL0     H52376   2.773   9.967  12.092 -0.4004  0.0271 -0.1283
  397MOL0     H52377   2.921   9.968  12.010  1.0425 -1.1520  3.3444
  397MOL0     H52378   2.733  10.079  11.862 -1.5471 -0.5020  1.2953
  397MOL0     H52379   2.662   9.919  11.849  0.9739 -0.9058  0.1401
  397MOL0     H52380   2.837   9.817  11.732 -1.0423  1.0606 -2.2960
  397MOL0     H52381   2.941   9.959  11.735  0.1177 -0.1110 -0.6839
  397MOL0     H52382   2.844   9.945  11.537  0.0720  0.7567 -0.0655
  397MOL0     H52383   2.676   9.921  11.582  0.2131  0.3703 -1.9557
  397MOL0     H52384   2.650  10.157  11.664 -0.8681  2.4083 -0.8623
  397MOL0     H52385   2.695  10.144  11.496  0.3463 -1.0965  0.2807
  397MOL0     H52386   3.243   9.518  12.264 -2.0085  0.1273 -3.4303
  397MOL0     H52387   3.329   9.283  12.325 -0.2074  4.1303  2.3969
  397MOL0     H52388   3.249   8.804  12.246  1.0806 -1.8144 -0.9640
  397MOL0     H52389   3.311   8.581  12.296  0.1646 -0.5556  0.5242
  397MOL0     H52390   3.462   8.295  11.203 -0.5471 -4.6639 -0.7271
  397MOL0     H52391   3.446   8.412  10.989 -1.6111 -1.5333 -2.6604
  397MOL0     H52392   3.388   8.574  10.717  0.0033  0.4827  3.2088
  397MOL0     H52393   3.467   8.706  10.522 -0.5056 -0.3293 -2.0193
  397MOL0     H52394   3.464   8.938  10.248 -0.2740 -2.8116 -1.5579
  397MOL0     H52395   3.504   8.809  10.350 -0.4647 -0.5286 -0.1554
  397MOL0     H52396   3.417   9.073  10.487 -2.2997 -1.6426 -3.6147
  397MOL0     H52397   3.482   8.932  10.562 -3.6734  1.9683  2.1899
  397MOL0     H52398   3.621   9.141  10.388  1.7117 -1.1819 -1.1630
  397MOL0     H52399   3.673   8.978  10.369  0.3253  1.2280 -0.7081
  397MOL0     H52400   3.649   9.145  10.630 -0.1466  0.3228  0.1412
  397MOL0     H52401   3.759   9.010  10.625  2.1350  1.0706  0.6136
  397MOL0     H52402   4.037   9.272  10.490  0.0339  0.4064  0.4298
  397MOL0     H52403   3.051   8.808  10.429 -1.3261 -0.0500  2.3139
  397MOL0     H52404   2.985   8.674  10.617 -1.3875  1.4090 -4.5477
  398MOL0     O52405  10.901   6.007   3.225  0.4112  0.0258  0.1210
  398MOL0     C52406  10.985   6.097   3.236 -0.9013 -0.1723 -0.4312
  398MOL0     O52407  10.963   6.228   3.194 -0.8314 -0.1913  0.0083
  398MOL0     C52408  10.838   6.263   3.152  0.0335 -0.7737  0.3496
  398MOL0     C52409  10.753   6.203   3.052  0.2808  0.5669 -1.1922
  398MOL0     C52410  10.626   6.256   3.028  1.0261 -0.1760  0.6105
  398MOL0     C52411  10.585   6.375   3.092  0.5403  0.3511  0.7327
  398MOL0     O52412  10.466   6.428   3.040 -0.2182  0.8402  0.2030
  398MOL0     C52413  10.346   6.385   3.116  0.1745  0.4650 -0.2218
  398MOL0     C52414  10.217   6.406   3.043  0.0358  0.7877  0.4278
  398MOL0     C52415  10.108   6.343   3.130  0.1746 -0.1498 -0.2662
  398MOL0     C52416   9.969   6.403   3.106  0.1023  0.3263 -0.0825
  398MOL0     C52417   9.865   6.314   3.178 -0.2967  0.2371 -0.6137
  398MOL0     C52418   9.718   6.346   3.144  0.0955  1.6265 -0.4652
  398MOL0     C52419   9.621   6.261   3.226 -0.7361 -0.6672  0.0372
  398MOL0     C52420   9.480   6.334   3.236  0.2188 -0.8156 -0.3283
  398MOL0     N52421   9.492   6.464   3.302 -0.0253 -1.1109 -0.6358
  398MOL0     C52422   9.543   6.493   3.431 -0.2821  0.8984 -0.6503
  398MOL0     C52423   9.542   6.627   3.433 -0.4172 -0.1316  0.0155
  398MOL0     C52424   9.591   6.709   3.543 -0.7832 -0.1967 -0.7904
  398MOL0     C52425   9.728   6.773   3.517  1.0796  0.3218  0.0783
  398MOL0     C52426   9.829   6.658   3.506 -1.0566  0.1475  0.3613
  398MOL0     C52427   9.970   6.716   3.494 -0.1702 -0.1351 -0.5346
  398MOL0     O52428  10.062   6.604   3.472  0.4235 -0.5769  0.4469
  398MOL0     C52429  10.164   6.596   3.562 -0.8830  0.6763 -0.5324
  398MOL0     C52430  10.289   6.602   3.506 -0.6881 -0.3894  0.0438
  398MOL0     C52431  10.405   6.588   3.584  0.1780  0.2151  0.7233
  398MOL0     C52432  10.389   6.578   3.729  0.2027 -0.6086  0.2222
  398MOL0     C52433  10.520   6.581   3.812  0.8805 -0.4544 -0.9239
  398MOL0     O52434  10.507   6.522   3.939 -0.2041  0.6317 -0.1020
  398MOL0     C52435  10.621   6.513   4.011  0.5306  0.2896  0.1784
  398MOL0     C52436  10.642   6.588   4.127 -0.8097 -0.1408  0.5068
  398MOL0     C52437  10.772   6.586   4.188  0.4441 -0.0935  0.7508
  398MOL0     C52438  10.877   6.503   4.136  0.3282  0.1814 -0.6170
  398MOL0     O52439  11.004   6.531   4.182 -0.7764 -0.4091 -0.7942
  398MOL0     C52440  11.120   6.518   4.102  0.4983  0.4883 -0.1879
  398MOL0     C52441  11.242   6.506   4.187 -0.5840  0.4919 -0.1752
  398MOL0     C52442  11.308   6.642   4.214 -0.4203  0.8972 -0.1175
  398MOL0     C52443  11.442   6.610   4.285  0.0804 -0.4180  0.4388
  398MOL0     C52444  11.532   6.729   4.275 -0.0173 -0.1643  0.4551
  398MOL0     C52445  11.472   6.844   4.365 -0.3915  0.3304 -0.0403
  398MOL0     C52446  11.574   6.960   4.357  0.7251  0.5397 -0.2735
  398MOL0     C52447  11.657   6.998   4.481  0.8143 -0.4191  0.1479
  398MOL0    Cl52448  11.750   7.138   4.441  0.3075 -0.1389 -0.7022
  398MOL0     C52449  10.848   6.428   4.025  0.3420 -0.5996  0.2411
  398MOL0     C52450  10.725   6.439   3.963 -0.0056  0.7138 -0.2070
  398MOL0     O52451  10.622   6.618   3.762  0.1272 -0.4517 -0.0379
  398MOL0     C52452  10.269   6.559   3.785 -0.2379  0.4842  0.3653
  398MOL0     C52453  10.156   6.578   3.703 -0.1469 -0.5168 -0.4980
  398MOL0     N52454   9.481   6.681   3.320  1.0067 -0.0236 -0.3284
  398MOL0     N52455   9.448   6.578   3.250 -0.6490  0.8918 -0.3519
  398MOL0     C52456  10.671   6.438   3.179  0.8765  0.0688  0.6262
  398MOL0     C52457  10.789   6.380   3.214  0.1509 -0.4042  0.7363
  398MOL0     C52458  11.097   6.073   3.322 -0.7218 -0.0356 -0.4038
  398MOL0     C52459  11.173   6.182   3.382 -0.7327 -0.8254  0.2682
  398MOL0     C52460  11.287   6.175   3.457  1.0686 -0.4955 -0.2501
  398MOL0     C52461  11.333   6.052   3.485  0.2521  0.1413  0.2252
  398MOL0     O52462  11.435   6.050   3.579  0.2629  0.1918 -0.0418
  398MOL0     C52463  11.449   5.918   3.641 -0.6862 -0.1113 -0.1466
  398MOL0     C52464  11.517   5.927   3.781  0.4591 -0.6787  1.0953
  398MOL0     C52465  11.415   6.005   3.882  0.5044 -0.1137 -0.0201
  398MOL0     C52466  11.439   5.971   4.028 -0.3505 -0.3899  0.5129
  398MOL0     C52467  11.348   6.059   4.098 -0.0404  0.7674 -0.5511
  398MOL0     C52468  11.258   6.096   4.163  0.3466 -0.5258 -0.1315
  398MOL0     C52469  11.276   5.940   3.426  0.5555  0.3503 -0.3191
  398MOL0     C52470  11.153   5.945   3.347  0.1830 -0.5829  0.4443
  398MOL0     H52471  10.792   6.107   3.017 -0.7278 -1.2296  2.1935
  398MOL0     H52472  10.558   6.224   2.949 -0.4556  2.6678  0.6011
  398MOL0     H52473  10.345   6.440   3.211 -1.1717  0.3484 -0.1588
  398MOL0     H52474  10.363   6.283   3.152 -1.4841  0.8666  1.9015
  398MOL0     H52475  10.207   6.350   2.949  0.0076  1.5401 -0.0206
  398MOL0     H52476  10.201   6.513   3.033 -0.2900  0.5986 -1.4702
  398MOL0     H52477  10.136   6.354   3.235  3.4425  0.1668 -1.0716
  398MOL0     H52478  10.105   6.234   3.124  3.7141 -0.5854  2.6118
  398MOL0     H52479   9.961   6.502   3.150  0.1706 -0.1102  0.9422
  398MOL0     H52480   9.943   6.415   3.000  0.9564 -0.9372 -0.4579
  398MOL0     H52481   9.877   6.326   3.286  0.4613  0.4821 -0.7154
  398MOL0     H52482   9.899   6.212   3.157  0.5689  0.0024  1.6653
  398MOL0     H52483   9.704   6.324   3.037 -1.8271 -3.6288  0.5927
  398MOL0     H52484   9.695   6.452   3.156 -0.3681  1.6126 -1.1673
  398MOL0     H52485   9.611   6.157   3.194  2.4525 -1.3379  0.8887
  398MOL0     H52486   9.662   6.265   3.327 -2.2467  2.3746  0.6247
  398MOL0     H52487   9.412   6.270   3.294  1.2934 -0.4658  1.3926
  398MOL0     H52488   9.439   6.345   3.135 -4.1795  3.3992  1.4953
  398MOL0     H52489   9.576   6.422   3.506 -0.4496  1.3628 -0.1290
  398MOL0     H52490   9.608   6.648   3.632  1.5961  1.2406 -0.1782
  398MOL0     H52491   9.518   6.791   3.551 -1.2279 -0.0729 -4.3851
  398MOL0     H52492   9.765   6.843   3.593 -2.1127  0.7611  1.4174
  398MOL0     H52493   9.711   6.830   3.426 -0.1830 -1.0298 -0.5712
  398MOL0     H52494   9.831   6.582   3.585 -3.0877  1.6815  1.9887
  398MOL0     H52495   9.811   6.608   3.411  3.2208  1.3879 -1.3397
  398MOL0     H52496   9.994   6.771   3.586 -3.0363  1.8093 -0.8356
  398MOL0     H52497   9.969   6.774   3.401  0.0763 -1.6469 -1.5211
  398MOL0     H52498  10.300   6.607   3.398 -1.7202 -0.2271 -0.0697
  398MOL0     H52499  10.507   6.581   3.547 -0.0656 -1.2666  0.2859
  398MOL0     H52500  10.567   6.661   4.153 -0.9939 -0.4768  0.9284
  398MOL0     H52501  10.785   6.664   4.262 -0.4005 -0.8549  1.7305
  398MOL0     H52502  11.130   6.600   4.030  0.1001 -0.0580 -0.8818
  398MOL0     H52503  11.104   6.433   4.035 -2.7048  0.1120  0.9267
  398MOL0     H52504  11.319   6.445   4.139  0.8197  2.5072 -0.5793
  398MOL0     H52505  11.227   6.459   4.285  2.2883  2.6350  1.4525
  398MOL0     H52506  11.242   6.702   4.276  1.4718  1.7838  1.1127
  398MOL0     H52507  11.322   6.695   4.119 -4.4703  1.2566 -0.7013
  398MOL0     H52508  11.422   6.585   4.390 -4.1829 -2.4779 -0.6924
  398MOL0     H52509  11.490   6.524   4.238  0.6762 -1.1114  2.2360
  398MOL0     H52510  11.527   6.759   4.171 -0.2755 -1.0379  0.2036
  398MOL0     H52511  11.633   6.699   4.306 -0.4871 -2.2936  0.0989
  398MOL0     H52512  11.453   6.804   4.464  1.0121 -3.1116 -1.0318
  398MOL0     H52513  11.376   6.873   4.321  0.0029  1.1610 -0.3791
  398MOL0     H52514  11.658   6.936   4.290  1.4477  0.3392  0.6779
  398MOL0     H52515  11.505   7.038   4.325 -3.3531 -1.8788  1.8707
  398MOL0     H52516  11.730   6.920   4.506  0.0153 -1.2284  0.0375
  398MOL0     H52517  11.593   7.025   4.565  0.7651  1.6362 -0.5045
  398MOL0     H52518  10.927   6.364   3.986  1.2764  0.2286  0.7146
  398MOL0     H52519  10.710   6.386   3.869 -3.5570  2.2922 -0.7193
  398MOL0     H52520  10.259   6.554   3.893 -1.5722  3.0934  0.4357
  398MOL0     H52521  10.061   6.564   3.752 -1.3795  0.6418 -2.4272
  398MOL0     H52522  10.629   6.533   3.212  2.6875  1.1910 -0.1543
  398MOL0     H52523  10.852   6.435   3.283  0.6450  0.2555 -0.2215
  398MOL0     H52524  11.145   6.285   3.364  2.0113  0.0291  0.3472
  398MOL0     H52525  11.324   6.262   3.510 -2.5194  0.2834  1.3136
  398MOL0     H52526  11.516   5.866   3.572 -1.4363 -0.8674 -0.3085
  398MOL0     H52527  11.358   5.860   3.655  1.1421 -3.0365  0.4330
  398MOL0     H52528  11.538   5.823   3.809 -4.9995 -2.0543  1.2867
  398MOL0     H52529  11.611   5.982   3.779  0.8162 -1.3039 -0.4781
  398MOL0     H52530  11.309   5.998   3.858 -0.3834  1.0889  3.0700
  398MOL0     H52531  11.414   6.114   3.874  0.4775  0.0012  1.2395
  398MOL0     H52532  11.427   5.865   4.053  0.2182 -1.3764 -2.8828
  398MOL0     H52533  11.544   5.983   4.058 -0.3649 -0.6203  0.6590
  398MOL0     H52534  11.170   6.112   4.222  0.4422  0.3433 -0.2161
  398MOL0     H52535  11.322   5.843   3.441  1.0144  0.9741  3.2451
  398MOL0     H52536  11.117   5.857   3.294  0.4539 -0.5529  0.2102
  399MOL0     O52537   7.568   5.458   5.628  0.1034  0.3264 -0.1376
  399MOL0     C52538   7.622   5.380   5.709  0.5323  0.7897  0.2481
  399MOL0     O52539   7.552   5.290   5.785 -0.8524 -0.2929 -0.0799
  399MOL0     C52540   7.421   5.270   5.783  0.2071  0.2395 -0.7107
  399MOL0     C52541   7.319   5.355   5.749  0.4668  1.1310 -0.6012
  399MOL0     C52542   7.186   5.311   5.763 -0.2059 -0.2472  0.5933
  399MOL0     C52543   7.164   5.184   5.819  0.5154 -0.3971  0.6314
  399MOL0     O52544   7.037   5.131   5.815 -0.0606 -0.4835  0.0713
  399MOL0     C52545   6.937   5.224   5.865  0.2090  0.1685 -0.8638
  399MOL0     C52546   6.818   5.132   5.893  0.1266  0.5238 -0.2600
  399MOL0     C52547   6.714   5.220   5.951  0.1052 -0.5485  0.3062
  399MOL0     C52548   6.584   5.150   5.947  0.3019 -0.1872 -1.0459
  399MOL0     C52549   6.468   5.221   6.022 -0.0482  0.7863 -0.1131
  399MOL0     C52550   6.329   5.128   6.011 -0.4542  0.3008  1.2772
  399MOL0     C52551   6.331   5.008   6.105  0.2969  0.6078 -0.2838
  399MOL0     C52552   6.218   4.913   6.069 -0.1119 -0.7644  0.0289
  399MOL0     N52553   6.199   4.819   6.173 -0.1727 -0.5365  0.3268
  399MOL0     C52554   6.257   4.695   6.190 -0.4107 -0.0177 -0.3902
  399MOL0     C52555   6.193   4.630   6.295 -0.4943  0.9869 -0.5412
  399MOL0     C52556   6.212   4.490   6.339 -0.4445 -0.2355  0.2202
  399MOL0     C52557   6.175   4.482   6.490 -0.3160  0.5625  0.0562
  399MOL0     C52558   6.217   4.351   6.568  0.6721 -0.5407 -0.0681
  399MOL0     C52559   6.172   4.220   6.506  0.3496 -0.3568 -0.4730
  399MOL0     O52560   6.236   4.184   6.386  0.0882  0.8358  0.2542
  399MOL0     C52561   6.355   4.107   6.385 -0.5871 -1.7597 -0.2869
  399MOL0     C52562   6.469   4.163   6.332  1.1698 -0.2942 -1.3357
  399MOL0     C52563   6.592   4.101   6.336  0.0289 -0.4805  0.0227
  399MOL0     C52564   6.595   3.968   6.373  0.3483  0.9027  0.3778
  399MOL0     C52565   6.709   3.875   6.363  0.3821  0.2358 -0.3916
  399MOL0     O52566   6.692   3.740   6.372 -0.4199  0.3686  0.0807
  399MOL0     C52567   6.800   3.653   6.368  0.5489  0.6304 -0.2252
  399MOL0     C52568   6.922   3.665   6.437 -0.3451 -0.3404 -0.1556
  399MOL0     C52569   7.031   3.575   6.414 -0.1816  0.9128 -0.4397
  399MOL0     C52570   7.012   3.466   6.328  0.7376 -0.5035 -0.4847
  399MOL0     O52571   7.101   3.360   6.304  0.1038  0.2403 -0.5229
  399MOL0     C52572   7.220   3.357   6.384 -0.6507 -0.3755  0.9412
  399MOL0     C52573   7.299   3.233   6.356 -0.0848  1.0635 -0.4332
  399MOL0     C52574   7.264   3.118   6.454 -0.4305  0.7244  0.2617
  399MOL0     C52575   7.345   2.997   6.411  0.0244  0.0650  0.1646
  399MOL0     C52576   7.304   2.872   6.499  1.0861 -0.3231  1.0396
  399MOL0     C52577   7.391   2.749   6.454  0.4811  0.5559  0.2286
  399MOL0     C52578   7.422   2.653   6.567 -0.0146  0.3171  0.1968
  399MOL0     C52579   7.429   2.506   6.514  0.2205  0.1111  0.2118
  399MOL0    Cl52580   7.449   2.387   6.648  0.3990  0.9291 -0.3390
  399MOL0     C52581   6.882   3.445   6.273 -0.5175  1.2893  0.1364
  399MOL0     C52582   6.781   3.536   6.281 -0.6630  0.2245  1.3479
  399MOL0     O52583   6.815   3.930   6.333  0.2188 -0.4697  0.0748
  399MOL0     C52584   6.476   3.901   6.416 -0.0465 -0.0874  0.4603
  399MOL0     C52585   6.356   3.971   6.431 -0.5745 -0.0213  0.1990
  399MOL0     N52586   6.101   4.724   6.347 -1.0128 -0.0277  0.8862
  399MOL0     N52587   6.100   4.826   6.265 -0.0077  0.3492 -0.4221
  399MOL0     C52588   7.274   5.097   5.857 -0.0014 -0.3679  0.1488
  399MOL0     C52589   7.397   5.137   5.826  0.6440  0.7528 -0.4865
  399MOL0     C52590   7.773   5.393   5.727 -0.8320 -0.8905 -0.0692
  399MOL0     C52591   7.855   5.492   5.671 -0.1735  0.7202 -0.1225
  399MOL0     C52592   7.993   5.474   5.698 -0.6714 -1.0509 -0.0133
  399MOL0     C52593   8.058   5.369   5.752 -0.4791 -0.1196 -0.2395
  399MOL0     O52594   8.196   5.364   5.749  0.0687 -0.2215  0.4465
  399MOL0     C52595   8.252   5.277   5.841 -0.1153  0.0022 -0.2917
  399MOL0     C52596   8.398   5.309   5.874 -0.4541  0.3514 -0.2470
  399MOL0     C52597   8.493   5.232   5.779  0.1712  0.6947 -0.7581
  399MOL0     C52598   8.456   5.086   5.742 -0.6305 -0.3059  0.2377
  399MOL0     C52599   8.566   5.016   5.677  0.1164  0.3109  0.6806
  399MOL0     C52600   8.650   4.952   5.616 -0.4991  0.1464  0.5961
  399MOL0     C52601   7.976   5.270   5.812 -0.1057 -1.2748  0.5451
  399MOL0     C52602   7.834   5.284   5.796  0.2127  0.2385 -0.3778
  399MOL0     H52603   7.349   5.459   5.738  2.7701  0.8005  1.5986
  399MOL0     H52604   7.115   5.386   5.732 -0.5446 -1.0544 -0.6244
  399MOL0     H52605   6.912   5.290   5.782  1.0195 -1.8098 -2.7770
  399MOL0     H52606   6.962   5.268   5.962 -0.2030 -4.7933  1.8225
  399MOL0     H52607   6.838   5.052   5.964  1.3552  1.3165  0.3149
  399MOL0     H52608   6.782   5.084   5.801 -0.9178 -2.1969  1.4346
  399MOL0     H52609   6.717   5.316   5.897  2.7990 -0.9886 -0.4841
  399MOL0     H52610   6.753   5.245   6.050  2.2530  2.5772 -1.1566
  399MOL0     H52611   6.570   5.143   5.839  5.7216 -1.1796 -1.9568
  399MOL0     H52612   6.605   5.053   5.993 -2.9164 -1.1217 -1.3012
  399MOL0     H52613   6.448   5.317   5.974 -2.3955 -0.5924 -2.0656
  399MOL0     H52614   6.492   5.241   6.127  0.0157 -1.5735  0.3737
  399MOL0     H52615   6.313   5.090   5.910  3.1372  3.6044 -0.7930
  399MOL0     H52616   6.239   5.187   6.027 -1.0906 -0.3736  0.3235
  399MOL0     H52617   6.431   4.965   6.099 -0.9728 -2.8168  1.0095
  399MOL0     H52618   6.312   5.054   6.203 -1.2368  1.9716 -1.1625
  399MOL0     H52619   6.233   4.855   5.977  0.8388 -0.7200  0.1446
  399MOL0     H52620   6.125   4.970   6.058  0.8393  0.5658 -1.8052
  399MOL0     H52621   6.333   4.655   6.124 -1.2176 -2.1172 -0.1159
  399MOL0     H52622   6.319   4.469   6.329 -0.4219  1.0543 -3.4636
  399MOL0     H52623   6.152   4.423   6.277 -0.2752 -0.7172  0.5648
  399MOL0     H52624   6.066   4.483   6.483 -0.2078  2.1308 -2.5591
  399MOL0     H52625   6.214   4.570   6.541  1.1708  1.3489 -2.2816
  399MOL0     H52626   6.326   4.337   6.573  0.7080 -0.6642 -0.9618
  399MOL0     H52627   6.177   4.361   6.669 -0.5519  0.8949 -0.6615
  399MOL0     H52628   6.065   4.225   6.482  0.7709 -1.1990 -2.7514
  399MOL0     H52629   6.194   4.145   6.583 -2.4994  1.8315  2.7749
  399MOL0     H52630   6.469   4.268   6.304 -2.0649  1.0304  2.6377
  399MOL0     H52631   6.679   4.158   6.303  1.0768 -0.6342  2.3589
  399MOL0     H52632   6.935   3.739   6.515 -0.2535 -1.0944  0.5629
  399MOL0     H52633   7.119   3.588   6.475 -1.8721  1.4044  2.0535
  399MOL0     H52634   7.195   3.371   6.490 -1.9495 -2.9093  1.0433
  399MOL0     H52635   7.283   3.438   6.347 -2.7776  0.5338 -0.8920
  399MOL0     H52636   7.402   3.257   6.383  0.4096 -0.4675 -0.8418
  399MOL0     H52637   7.290   3.204   6.251 -1.4831 -1.3672  0.2748
  399MOL0     H52638   7.156   3.102   6.450 -0.9194  3.6160 -0.0499
  399MOL0     H52639   7.287   3.144   6.558  0.5346  1.8831 -0.2179
  399MOL0     H52640   7.335   2.970   6.306  1.7619 -0.1330  0.0206
  399MOL0     H52641   7.452   3.012   6.431 -0.3011  3.6371 -0.0320
  399MOL0     H52642   7.196   2.860   6.489  1.3312 -0.9743 -1.3924
  399MOL0     H52643   7.321   2.897   6.604 -0.6125  3.3721  0.6039
  399MOL0     H52644   7.485   2.773   6.403  0.3102  2.8783  0.8692
  399MOL0     H52645   7.334   2.697   6.376  0.8390 -0.2100  0.4689
  399MOL0     H52646   7.508   2.686   6.625 -0.7852  1.6273  0.6372
  399MOL0     H52647   7.338   2.662   6.637 -2.9909 -0.5272 -2.9680
  399MOL0     H52648   7.507   2.506   6.438 -1.5100 -1.6955 -1.6765
  399MOL0     H52649   7.336   2.486   6.459  0.0140 -0.4970  0.7656
  399MOL0     H52650   6.885   3.356   6.210  4.1626  0.1358  1.5518
  399MOL0     H52651   6.697   3.529   6.213 -0.5395 -1.4214  1.3367
  399MOL0     H52652   6.482   3.798   6.448 -0.4788  0.5353  2.7812
  399MOL0     H52653   6.277   3.924   6.487 -0.7855  0.5408  0.3827
  399MOL0     H52654   7.256   4.997   5.896 -2.0361  0.0472  0.4187
  399MOL0     H52655   7.477   5.063   5.837  2.1726  2.2399 -1.1078
  399MOL0     H52656   7.803   5.581   5.638 -1.1540  0.2659  0.1596
  399MOL0     H52657   8.066   5.545   5.660 -1.6827  0.9825  1.6775
  399MOL0     H52658   8.251   5.170   5.817  0.0466  0.1710 -1.0695
  399MOL0     H52659   8.199   5.288   5.936  1.0731 -0.0698  0.3987
  399MOL0     H52660   8.427   5.414   5.872 -0.5917  0.4950  2.1472
  399MOL0     H52661   8.412   5.288   5.981 -0.1626  0.5239 -0.2495
  399MOL0     H52662   8.587   5.239   5.836  0.1896 -1.0300 -0.5102
  399MOL0     H52663   8.494   5.293   5.689  2.1893 -1.7206 -2.5121
  399MOL0     H52664   8.440   5.029   5.834  0.2474 -0.6998  0.1598
  399MOL0     H52665   8.371   5.089   5.672  0.4922 -2.0949 -1.3261
  399MOL0     H52666   8.729   4.914   5.554 -1.2413  0.7909 -0.7869
  399MOL0     H52667   8.025   5.182   5.851  0.3603 -2.1726 -1.8665
  399MOL0     H52668   7.769   5.210   5.841 -1.0565  0.5644 -1.6024
  400MOL0     O52669   1.179   7.762   3.025  0.1291  0.2831 -0.5698
  400MOL0     C52670   1.174   7.840   3.121  0.1865  0.7842 -0.4657
  400MOL0     O52671   1.101   7.815   3.239 -0.4042 -0.8385  0.2806
  400MOL0     C52672   1.081   7.685   3.280 -0.3473  0.3935  1.3180
  400MOL0     C52673   1.178   7.583   3.294  0.0619  1.6535 -0.7176
  400MOL0     C52674   1.134   7.462   3.348 -0.1745  0.5635 -0.4082
  400MOL0     C52675   0.997   7.437   3.389 -0.0541  0.5229 -0.3702
  400MOL0     O52676   0.972   7.308   3.439 -0.1038 -0.3925  0.1196
  400MOL0     C52677   0.840   7.278   3.481  1.1210 -0.3419 -0.0145
  400MOL0     C52678   0.763   7.201   3.365  0.2950  0.4122 -0.9725
  400MOL0     C52679   0.625   7.139   3.395 -0.5704 -0.0384  0.0373
  400MOL0     C52680   0.648   7.028   3.504  1.2218  0.4003 -0.4232
  400MOL0     C52681   0.618   6.889   3.435 -0.2908  0.4373 -0.1602
  400MOL0     C52682   0.647   6.770   3.533  0.3110 -0.3146  0.5413
  400MOL0     C52683   0.639   6.637   3.471 -0.5147 -0.7235 -1.3465
  400MOL0     C52684   0.506   6.621   3.398  0.3818  0.2437 -0.5189
  400MOL0     N52685   0.394   6.637   3.494 -0.6993  0.7951  0.2072
  400MOL0     C52686   0.380   6.560   3.609  0.4775 -0.0700  0.1219
  400MOL0     C52687   0.288   6.630   3.670 -0.0067 -0.0233 -0.2008
  400MOL0     C52688   0.215   6.583   3.791  0.0843 -0.3141 -0.3195
  400MOL0     C52689   0.096   6.487   3.751  0.0514 -0.0626  0.2340
  400MOL0     C52690   0.019   6.435   3.871  1.0788  0.2229 -0.1500
  400MOL0     C52691  -0.104   6.358   3.850  0.9887  0.9550  1.0121
  400MOL0     O52692  -0.209   6.438   3.793  0.3475 -0.1745  0.8700
  400MOL0     C52693  -0.316   6.369   3.723 -0.2783 -0.9797  0.2636
  400MOL0     C52694  -0.338   6.233   3.726 -0.0800 -0.3141 -0.8575
  400MOL0     C52695  -0.455   6.176   3.675 -0.3123 -0.9788  1.2526
  400MOL0     C52696  -0.555   6.257   3.615  0.6877 -0.5903  0.5785
  400MOL0     C52697  -0.675   6.192   3.571  0.6423 -1.5785 -0.5962
  400MOL0     O52698  -0.737   6.254   3.468 -0.5341  0.4412 -0.2999
  400MOL0     C52699  -0.852   6.193   3.414 -1.2178 -0.3500  0.4985
  400MOL0     C52700  -0.826   6.097   3.316  0.2530  0.6809  0.1347
  400MOL0     C52701  -0.932   6.029   3.263 -0.1404  0.5673  0.7461
  400MOL0     C52702  -1.065   6.059   3.285  0.1083 -0.0072  0.3979
  400MOL0     O52703  -1.163   5.980   3.223  0.3125 -0.2740 -0.1422
  400MOL0     C52704  -1.292   5.973   3.289 -0.2181  0.7834 -0.4124
  400MOL0     C52705  -1.358   5.869   3.212  0.6209 -0.6543  0.0280
  400MOL0     C52706  -1.500   5.848   3.278 -1.2364  0.3113  0.0424
  400MOL0     C52707  -1.554   5.751   3.173  0.1320 -0.0890 -0.3223
  400MOL0     C52708  -1.694   5.700   3.217  0.1344 -0.0319 -0.8657
  400MOL0     C52709  -1.758   5.639   3.101 -0.6329 -0.2765 -0.5230
  400MOL0     C52710  -1.895   5.577   3.134  0.3452  0.0073  0.0073
  400MOL0     C52711  -1.965   5.526   3.009 -0.1447  0.6078 -0.0444
  400MOL0    Cl52712  -2.117   5.437   3.056 -0.2817 -0.0272  0.3512
  400MOL0     C52713  -1.094   6.166   3.383  0.2766 -0.1853 -0.5128
  400MOL0     C52714  -0.984   6.219   3.451 -0.4336  0.0115  0.0750
  400MOL0     O52715  -0.715   6.084   3.620 -0.1867  0.2913 -0.1000
  400MOL0     C52716  -0.534   6.396   3.617 -0.1603 -0.8760 -0.5740
  400MOL0     C52717  -0.417   6.454   3.670  0.1012  0.2220  0.4043
  400MOL0     N52718   0.259   6.746   3.605  0.0692  0.5138 -0.3717
  400MOL0     N52719   0.314   6.748   3.488  0.3539  0.3992  0.9382
  400MOL0     C52720   0.912   7.544   3.383 -0.3676 -1.2576 -1.0033
  400MOL0     C52721   0.956   7.663   3.322 -0.1467  0.1206  0.1093
  400MOL0     C52722   1.230   7.977   3.108  0.8796 -0.1210 -0.1094
  400MOL0     C52723   1.305   8.011   2.998 -0.2789  0.6307  0.4719
  400MOL0     C52724   1.392   8.130   3.000  0.1451 -0.6254  0.2578
  400MOL0     C52725   1.388   8.210   3.116  0.1681 -0.2959  0.5657
  400MOL0     O52726   1.458   8.335   3.130 -0.0767  1.4904  0.7064
  400MOL0     C52727   1.514   8.409   3.021  0.6231  0.6369 -0.2002
  400MOL0     C52728   1.561   8.556   3.057  0.8906 -0.9312  0.3642
  400MOL0     C52729   1.427   8.637   3.086  0.1344  0.1252  0.2753
  400MOL0     C52730   1.454   8.773   3.141  0.4133 -0.0628  0.3990
  400MOL0     C52731   1.341   8.820   3.224  0.0149  0.3636 -0.3669
  400MOL0     C52732   1.272   8.862   3.315  0.4906 -0.2422 -0.5117
  400MOL0     C52733   1.311   8.172   3.220  0.4895  0.3764 -0.4687
  400MOL0     C52734   1.221   8.060   3.213 -0.3684 -1.3887 -0.1492
  400MOL0     H52735   1.285   7.592   3.275  0.6596 -0.5928  1.1440
  400MOL0     H52736   1.202   7.377   3.346 -3.3574 -2.1498 -1.8256
  400MOL0     H52737   0.778   7.360   3.518  0.0797 -1.9864  2.0807
  400MOL0     H52738   0.848   7.216   3.571 -2.2904  0.3811  0.9293
  400MOL0     H52739   0.828   7.125   3.320  1.2303 -0.3800  1.5016
  400MOL0     H52740   0.759   7.281   3.291  2.8342  2.3281  0.7940
  400MOL0     H52741   0.589   7.103   3.299 -1.8357  1.7223 -0.2013
  400MOL0     H52742   0.564   7.223   3.432  3.9872  3.2681  0.9025
  400MOL0     H52743   0.747   7.028   3.550  0.5075  0.3301  1.1837
  400MOL0     H52744   0.577   7.028   3.588  0.4912 -3.1242 -0.8584
  400MOL0     H52745   0.685   6.866   3.352 -0.4325  2.2930 -0.8531
  400MOL0     H52746   0.517   6.891   3.393  0.4637  1.0454 -2.0979
  400MOL0     H52747   0.568   6.782   3.608 -0.3712 -2.1093  0.1704
  400MOL0     H52748   0.751   6.775   3.564  0.3726 -1.7821  0.6532
  400MOL0     H52749   0.725   6.619   3.407 -0.9187 -1.2993 -1.7431
  400MOL0     H52750   0.652   6.559   3.547  0.6501  1.5298  0.9167
  400MOL0     H52751   0.502   6.526   3.344  2.3207  1.2781 -2.6718
  400MOL0     H52752   0.495   6.688   3.312 -0.9521  2.0793  0.9872
  400MOL0     H52753   0.420   6.460   3.623  0.6225 -0.4285 -2.5215
  400MOL0     H52754   0.187   6.668   3.855  3.6597 -0.9149  2.3777
  400MOL0     H52755   0.287   6.523   3.847 -1.5372 -2.6543 -0.5943
  400MOL0     H52756   0.158   6.404   3.715 -1.9956 -1.0218 -1.2683
  400MOL0     H52757   0.032   6.546   3.684  0.3693  3.6245  2.8729
  400MOL0     H52758   0.080   6.386   3.947  0.2112 -0.9630 -0.1819
  400MOL0     H52759  -0.000   6.531   3.921  2.8201  0.3282  0.3666
  400MOL0     H52760  -0.139   6.314   3.943 -2.3588 -1.2011 -1.0476
  400MOL0     H52761  -0.084   6.282   3.773  0.1907 -1.2076  2.8457
  400MOL0     H52762  -0.266   6.162   3.766 -0.9629 -0.2404  0.9683
  400MOL0     H52763  -0.470   6.074   3.707  0.5302 -1.2925  0.6736
  400MOL0     H52764  -0.723   6.072   3.293 -0.4272 -2.4646  0.1019
  400MOL0     H52765  -0.909   5.946   3.196  1.7478  1.5523  0.1156
  400MOL0     H52766  -1.349   6.066   3.287 -2.6680 -0.4551  2.8684
  400MOL0     H52767  -1.288   5.936   3.392  0.9442  1.1024 -0.3219
  400MOL0     H52768  -1.310   5.771   3.209  0.1873 -1.0880  3.4910
  400MOL0     H52769  -1.365   5.906   3.109 -2.3380 -2.0231 -0.3823
  400MOL0     H52770  -1.564   5.935   3.292 -0.5022  0.9071 -0.2612
  400MOL0     H52771  -1.486   5.799   3.374  1.1950  0.6147 -0.0909
  400MOL0     H52772  -1.551   5.802   3.076 -0.7055 -1.6600 -1.2221
  400MOL0     H52773  -1.490   5.663   3.163 -0.6017 -0.8344  1.1668
  400MOL0     H52774  -1.758   5.782   3.251  0.6883  0.2085 -0.3738
  400MOL0     H52775  -1.684   5.630   3.301  2.3029  2.1483  0.8646
  400MOL0     H52776  -1.697   5.565   3.048 -0.0012 -1.3568  1.6101
  400MOL0     H52777  -1.786   5.726   3.041 -4.8885 -0.7685  0.3832
  400MOL0     H52778  -1.885   5.496   3.207  0.2279 -0.7563 -0.8119
  400MOL0     H52779  -1.963   5.657   3.163 -1.5012 -1.4794 -0.0053
  400MOL0     H52780  -1.897   5.451   2.968 -1.5195 -0.8921  0.2991
  400MOL0     H52781  -1.989   5.613   2.948 -0.3855  0.2865 -0.4168
  400MOL0     H52782  -1.196   6.186   3.412  0.0296 -2.5117  0.4653
  400MOL0     H52783  -1.017   6.286   3.530  2.0846  1.1633  0.2511
  400MOL0     H52784  -0.612   6.467   3.593 -2.0736 -1.0644  4.0214
  400MOL0     H52785  -0.420   6.562   3.681 -3.4594  0.5425 -1.9007
  400MOL0     H52786   0.811   7.542   3.422 -0.0235 -1.5302 -0.0975
  400MOL0     H52787   0.889   7.747   3.305  0.2141  0.6442  1.1896
  400MOL0     H52788   1.313   7.942   2.915  0.9774 -0.3884  1.4062
  400MOL0     H52789   1.448   8.156   2.911 -2.9716 -4.7933 -3.3994
  400MOL0     H52790   1.430   8.401   2.951  0.1885 -2.8505  0.5226
  400MOL0     H52791   1.591   8.343   2.979 -1.1585 -0.5185 -1.8651
  400MOL0     H52792   1.639   8.573   3.132  1.0156 -0.4604  0.1312
  400MOL0     H52793   1.604   8.591   2.962  0.4338  0.7878  0.7584
  400MOL0     H52794   1.355   8.585   3.151 -2.9625  1.5956 -1.7316
  400MOL0     H52795   1.374   8.659   2.993 -1.6311  0.5208  1.3252
  400MOL0     H52796   1.548   8.789   3.195 -0.3714  3.8700  0.8495
  400MOL0     H52797   1.466   8.838   3.054  0.3619  1.4632  1.4939
  400MOL0     H52798   1.212   8.904   3.392  1.2115 -0.2905  0.0897
  400MOL0     H52799   1.312   8.240   3.304  6.0369 -0.6845  0.7518
  400MOL0     H52800   1.158   8.052   3.300  0.4271 -0.8469  0.4960
  401MOL0     O52801   9.666   3.052   7.028  0.2393  0.0316 -0.3252
  401MOL0     C52802   9.713   3.066   6.916  0.7927  0.4284 -0.5835
  401MOL0     O52803   9.852   3.054   6.886  0.4155  0.1663 -0.1092
  401MOL0     C52804   9.944   3.069   6.985 -0.3310  0.3525 -1.0007
  401MOL0     C52805  10.060   2.997   6.986 -0.9652  0.4009  0.6293
  401MOL0     C52806  10.162   3.025   7.082  0.2770 -0.4952  0.5759
  401MOL0     C52807  10.132   3.104   7.198 -0.4248  0.1517 -0.1107
  401MOL0     O52808  10.222   3.107   7.310  0.5226  0.2931 -0.3246
  401MOL0     C52809  10.357   3.071   7.288 -0.1224 -0.1916  0.3048
  401MOL0     C52810  10.425   3.078   7.429 -0.6553 -0.6060 -1.1990
  401MOL0     C52811  10.377   2.977   7.541  0.5805 -0.3257 -0.4998
  401MOL0     C52812  10.442   3.000   7.682 -0.4173 -0.3930 -0.3972
  401MOL0     C52813  10.594   2.976   7.687 -0.9072  0.4005  0.4772
  401MOL0     C52814  10.651   2.955   7.826  0.1706 -1.2389 -0.7005
  401MOL0     C52815  10.647   2.802   7.862  0.4038 -0.9435 -0.4217
  401MOL0     C52816  10.761   2.773   7.961  0.2449 -0.7005 -0.6934
  401MOL0     N52817  10.720   2.772   8.105 -0.0996 -0.2454 -0.2249
  401MOL0     C52818  10.588   2.734   8.144  0.5150  0.4300 -0.3139
  401MOL0     C52819  10.582   2.752   8.279  0.1575 -0.1673 -0.6960
  401MOL0     C52820  10.461   2.712   8.362  0.9836  0.8407  0.3892
  401MOL0     C52821  10.362   2.831   8.387  0.1272 -0.4898  0.2629
  401MOL0     C52822  10.311   2.902   8.261  0.4830 -0.4107  0.3505
  401MOL0     C52823  10.231   3.035   8.298  0.2490  0.9676 -0.0563
  401MOL0     O52824  10.331   3.118   8.356  0.3927  0.9618 -0.3097
  401MOL0     C52825  10.280   3.211   8.439  0.7864 -0.3808 -0.2593
  401MOL0     C52826  10.373   3.302   8.489 -0.4229  0.1729 -0.3643
  401MOL0     C52827  10.350   3.378   8.601  0.3720 -0.3172  0.0401
  401MOL0     C52828  10.219   3.398   8.648 -0.0160  0.1380 -0.0815
  401MOL0     C52829  10.203   3.483   8.768  0.3033  0.6379 -0.6412
  401MOL0     O52830  10.306   3.559   8.801 -0.6425  0.0862  0.3653
  401MOL0     C52831  10.307   3.629   8.924 -0.6472  0.0762  0.3899
  401MOL0     C52832  10.349   3.765   8.924  0.8743 -0.2196 -0.5511
  401MOL0     C52833  10.354   3.831   9.041  0.3782 -0.6669 -0.6726
  401MOL0     C52834  10.332   3.771   9.158 -0.2223 -0.8169  1.0381
  401MOL0     O52835  10.359   3.854   9.270  0.2830  0.5379  0.0533
  401MOL0     C52836  10.383   3.779   9.393  0.0397  0.8722 -0.5678
  401MOL0     C52837  10.523   3.720   9.401  0.1954 -0.5921 -0.9553
  401MOL0     C52838  10.558   3.679   9.557 -0.1520  0.8774  0.0176
  401MOL0     C52839  10.701   3.595   9.574  0.5750 -0.9707 -1.1857
  401MOL0     C52840  10.826   3.671   9.535 -0.6855  0.8168 -0.1397
  401MOL0     C52841  10.937   3.574   9.509 -0.1613 -0.1977  0.2801
  401MOL0     C52842  11.059   3.630   9.436 -0.3232  1.1215 -0.1622
  401MOL0     C52843  11.190   3.549   9.451  0.1245  0.4327 -0.3232
  401MOL0    Cl52844  11.322   3.664   9.388  0.1465  0.1525 -0.2311
  401MOL0     C52845  10.306   3.638   9.168 -0.6923  0.1713  0.0721
  401MOL0     C52846  10.282   3.567   9.044 -0.4757  0.1145 -0.7422
  401MOL0     O52847  10.093   3.482   8.823 -0.0160 -0.1766  0.2717
  401MOL0     C52848  10.119   3.315   8.591 -0.2931 -0.8967 -0.4261
  401MOL0     C52849  10.146   3.224   8.485 -0.6639  0.3104 -0.8044
  401MOL0     N52850  10.694   2.809   8.325 -0.4459 -0.4954 -0.4522
  401MOL0     N52851  10.779   2.818   8.221 -0.2690 -0.2529 -0.6190
  401MOL0     C52852  10.014   3.174   7.193 -0.3214 -0.1583  1.0063
  401MOL0     C52853   9.929   3.166   7.085  0.3142 -0.8080 -0.4186
  401MOL0     C52854   9.636   3.091   6.796  0.8995 -0.1729 -0.3808
  401MOL0     C52855   9.693   3.129   6.667  0.1435 -0.1350  0.0754
  401MOL0     C52856   9.621   3.146   6.556 -0.4283 -0.0580 -0.8183
  401MOL0     C52857   9.485   3.121   6.564 -0.2513  0.4714  0.6224
  401MOL0     O52858   9.431   3.117   6.438  0.3310 -0.2532  0.0671
  401MOL0     C52859   9.294   3.090   6.417  0.7468 -0.9004 -0.2855
  401MOL0     C52860   9.238   3.173   6.298  0.8193 -0.2785  1.4520
  401MOL0     C52861   9.265   3.328   6.307 -0.0674 -0.3636 -0.1655
  401MOL0     C52862   9.198   3.412   6.200  0.3243 -0.2681 -0.0663
  401MOL0     C52863   9.259   3.537   6.165 -0.2184  1.3002  0.4508
  401MOL0     C52864   9.312   3.642   6.118 -0.7410  0.1597 -0.9690
  401MOL0     C52865   9.425   3.082   6.681  0.3295  0.8569 -0.9717
  401MOL0     C52866   9.500   3.078   6.796  0.5445  0.3003  0.6057
  401MOL0     H52867  10.087   2.948   6.893  2.5774  2.5675  0.3194
  401MOL0     H52868  10.245   2.955   7.086  0.9353  0.3352  3.0331
  401MOL0     H52869  10.407   3.143   7.223  5.4950 -2.9394  1.0083
  401MOL0     H52870  10.374   2.977   7.235  1.2107  0.1097  0.1766
  401MOL0     H52871  10.413   3.181   7.463  1.0734 -1.2006  1.5553
  401MOL0     H52872  10.532   3.057   7.421 -0.5926 -1.8916  1.6241
  401MOL0     H52873  10.395   2.872   7.517 -3.7509 -2.3150  3.3532
  401MOL0     H52874  10.270   3.000   7.550  0.4525 -1.3609  0.9478
  401MOL0     H52875  10.438   3.105   7.713  1.1558 -0.7097  1.0203
  401MOL0     H52876  10.391   2.934   7.753 -0.9158 -1.2816 -1.5430
  401MOL0     H52877  10.631   3.071   7.647 -0.7980  0.8541  1.6207
  401MOL0     H52878  10.632   2.904   7.613  0.7201  1.8671 -0.1801
  401MOL0     H52879  10.596   3.013   7.901 -0.3519  0.9303 -2.6362
  401MOL0     H52880  10.753   2.994   7.818  0.3145 -1.2754  0.7065
  401MOL0     H52881  10.547   2.778   7.897 -0.2698  2.2459  0.1655
  401MOL0     H52882  10.656   2.736   7.775 -1.5134 -1.1258 -0.5202
  401MOL0     H52883  10.839   2.848   7.951  0.9911 -1.6855 -2.7057
  401MOL0     H52884  10.817   2.682   7.942  0.7689 -0.8930  1.4964
  401MOL0     H52885  10.514   2.696   8.075 -0.1087 -0.5904  0.8896
  401MOL0     H52886  10.490   2.666   8.457  1.2612  0.6006  0.1909
  401MOL0     H52887  10.431   2.625   8.303  2.4829  1.0844 -0.7726
  401MOL0     H52888  10.424   2.900   8.445 -0.7904 -0.6817  1.5136
  401MOL0     H52889  10.276   2.786   8.437 -0.3173  1.6779  1.5342
  401MOL0     H52890  10.397   2.935   8.203 -0.6676  2.1809 -0.0222
  401MOL0     H52891  10.256   2.840   8.190 -1.4286  2.3151 -0.7071
  401MOL0     H52892  10.155   3.003   8.371  0.9020  4.4568  2.4451
  401MOL0     H52893  10.183   3.084   8.213  0.4412 -0.9497 -1.3258
  401MOL0     H52894  10.474   3.301   8.449 -1.2863  1.7954 -2.7871
  401MOL0     H52895  10.428   3.437   8.647 -0.9057  1.6227 -0.1635
  401MOL0     H52896  10.388   3.806   8.831  0.8993 -1.3847 -1.0711
  401MOL0     H52897  10.398   3.929   9.055  3.8398 -2.2669  0.9676
  401MOL0     H52898  10.298   3.713   9.414 -1.3786  2.4119 -1.2442
  401MOL0     H52899  10.382   3.854   9.472  2.9418  0.9807 -0.5447
  401MOL0     H52900  10.595   3.794   9.364 -0.4767  0.5098 -0.1229
  401MOL0     H52901  10.532   3.627   9.346 -2.0169 -0.8078 -1.0284
  401MOL0     H52902  10.470   3.621   9.587 -1.4441  1.8644 -1.7307
  401MOL0     H52903  10.560   3.761   9.629 -1.7117  0.2091  0.8544
  401MOL0     H52904  10.724   3.574   9.678 -0.4492  2.8098 -0.0179
  401MOL0     H52905  10.686   3.507   9.510 -2.9239 -0.0411 -1.8735
  401MOL0     H52906  10.864   3.737   9.614 -0.2694 -0.0354  0.3965
  401MOL0     H52907  10.811   3.729   9.444  1.3360  0.2489 -0.9079
  401MOL0     H52908  10.905   3.496   9.439  1.6867 -1.5073  0.8182
  401MOL0     H52909  10.964   3.525   9.603  4.3251 -4.4927 -2.7125
  401MOL0     H52910  11.037   3.633   9.329 -1.9105 -0.0340  0.0942
  401MOL0     H52911  11.075   3.731   9.474  1.2835  1.0048 -0.4462
  401MOL0     H52912  11.174   3.461   9.389  3.4721 -0.1218 -0.6019
  401MOL0     H52913  11.206   3.521   9.555  3.1557  2.2408 -0.1780
  401MOL0     H52914  10.297   3.570   9.252  2.6282 -0.6635 -0.0829
  401MOL0     H52915  10.253   3.462   9.039  0.2368 -0.0524 -1.6298
  401MOL0     H52916  10.020   3.315   8.636 -0.8076 -2.2199 -1.4891
  401MOL0     H52917  10.064   3.161   8.454 -0.6437 -1.4772  2.2994
  401MOL0     H52918   9.986   3.239   7.275  2.7021  0.8557  1.3595
  401MOL0     H52919   9.838   3.224   7.080 -0.1283 -1.5170 -0.7352
  401MOL0     H52920   9.798   3.155   6.660 -0.0601  0.6528 -0.1626
  401MOL0     H52921   9.676   3.166   6.464  1.0333 -1.8893 -0.3894
  401MOL0     H52922   9.237   3.124   6.503  0.5839 -0.4987 -0.5524
  401MOL0     H52923   9.284   2.981   6.412  2.4115 -1.1341  0.7890
  401MOL0     H52924   9.289   3.142   6.206  2.6580  5.5319  0.1198
  401MOL0     H52925   9.131   3.153   6.284  1.2696 -0.9478 -1.7996
  401MOL0     H52926   9.374   3.336   6.295 -0.1336 -0.6861 -1.0087
  401MOL0     H52927   9.237   3.359   6.408  0.7810  0.2855 -0.1133
  401MOL0     H52928   9.183   3.357   6.107  0.2110  1.9821 -1.4450
  401MOL0     H52929   9.102   3.432   6.249  0.6660  1.3613 -0.0285
  401MOL0     H52930   9.370   3.715   6.065  0.0213  1.4472  1.5084
  401MOL0     H52931   9.318   3.070   6.687  0.3651  0.8524 -0.2851
  401MOL0     H52932   9.452   3.048   6.889 -0.1978 -0.6751 -0.0673
  402MOL0     O52933   6.757   0.143   4.217  0.2198 -0.1737 -0.0488
  402MOL0     C52934   6.752   0.038   4.274 -1.3265  0.1343 -0.4471
  402MOL0     O52935   6.649  -0.013   4.342  0.1012  0.6566 -0.1913
  402MOL0     C52936   6.531   0.059   4.362  0.4619 -0.6640  0.9219
  402MOL0     C52937   6.508   0.202   4.367  0.0381  1.1193 -0.3397
  402MOL0     C52938   6.386   0.257   4.333 -0.3069  0.6020 -0.3057
  402MOL0     C52939   6.281   0.170   4.292 -0.1889 -0.6738 -0.4257
  402MOL0     O52940   6.156   0.217   4.268  0.5450 -0.8556 -0.1857
  402MOL0     C52941   6.143   0.360   4.251  0.4208  1.0027 -0.3513
  402MOL0     C52942   6.115   0.439   4.381  0.5393  0.3426  0.6300
  402MOL0     C52943   5.981   0.413   4.454  0.1035  0.6131  0.0040
  402MOL0     C52944   5.861   0.456   4.378  0.4256  0.3120 -0.6367
  402MOL0     C52945   5.755   0.504   4.478  0.1993 -0.4620 -0.1530
  402MOL0     C52946   5.725   0.400   4.590  0.0948 -0.3481  0.0073
  402MOL0     C52947   5.624   0.453   4.693 -0.0414 -0.2920  0.6706
  402MOL0     C52948   5.484   0.460   4.646  0.3849 -0.2278  0.8065
  402MOL0     N52949   5.426   0.326   4.643  0.5217 -0.9549  0.3633
  402MOL0     C52950   5.437   0.250   4.538  0.7688  0.3040  0.3552
  402MOL0     C52951   5.359   0.140   4.566  0.8314 -0.0917 -0.0640
  402MOL0     C52952   5.342   0.020   4.474 -0.4671  0.0215 -0.8473
  402MOL0     C52953   5.204   0.033   4.411  0.1856  0.3988  0.9607
  402MOL0     C52954   5.184  -0.100   4.321  0.6658  0.4437  0.2271
  402MOL0     C52955   5.167  -0.226   4.395  0.2221  0.7479  0.1189
  402MOL0     O52956   5.052  -0.223   4.474  0.6828 -0.3313 -1.5173
  402MOL0     C52957   5.003  -0.342   4.527 -1.1046 -0.8604  0.9184
  402MOL0     C52958   4.893  -0.326   4.606 -0.8739 -0.0984 -0.4899
  402MOL0     C52959   4.831  -0.430   4.669  0.4108  0.6776 -0.3819
  402MOL0     C52960   4.892  -0.557   4.652  0.6308 -0.4631  0.0103
  402MOL0     C52961   4.821  -0.685   4.698 -0.3997 -0.9699 -0.2658
  402MOL0     O52962   4.704  -0.651   4.759 -0.0752  0.0766  0.5448
  402MOL0     C52963   4.604  -0.747   4.776  0.2259  0.3712 -0.3098
  402MOL0     C52964   4.513  -0.782   4.682  0.0963  0.2870  1.0872
  402MOL0     C52965   4.415  -0.876   4.711 -0.3515  0.7568  0.4130
  402MOL0     C52966   4.413  -0.958   4.826 -0.3669 -0.4035  0.9675
  402MOL0     O52967   4.327  -1.061   4.833  0.2576  0.0494 -0.4790
  402MOL0     C52968   4.323  -1.137   4.957 -1.0626 -0.9680  0.1232
  402MOL0     C52969   4.208  -1.244   4.950 -0.8691 -0.1458 -0.2192
  402MOL0     C52970   4.240  -1.371   4.864 -1.1551 -0.1661  0.4784
  402MOL0     C52971   4.114  -1.454   4.825 -0.5764 -0.1018  0.8318
  402MOL0     C52972   4.016  -1.493   4.947 -0.7698 -1.2682 -0.3444
  402MOL0     C52973   4.076  -1.591   5.047 -0.7559  0.4350  0.4874
  402MOL0     C52974   4.132  -1.717   4.980 -0.3324  0.2108 -0.4082
  402MOL0     C52975   4.172  -1.830   5.077  0.1569  0.5615 -0.7902
  402MOL0    Cl52976   4.038  -1.862   5.197 -0.3026 -0.2624 -0.3110
  402MOL0     C52977   4.509  -0.906   4.921  0.6492  0.6459  0.0861
  402MOL0     C52978   4.601  -0.802   4.902 -0.2834  0.4053  0.1566
  402MOL0     O52979   4.856  -0.793   4.650  0.8587 -0.4108  0.2980
  402MOL0     C52980   5.014  -0.570   4.581 -0.8157 -0.4929  0.8303
  402MOL0     C52981   5.071  -0.463   4.512 -0.4377  0.1690 -0.5344
  402MOL0     N52982   5.322   0.151   4.697 -0.6061 -0.1061 -0.3924
  402MOL0     N52983   5.354   0.269   4.743 -0.2049 -0.2586 -0.2293
  402MOL0     C52984   6.300   0.027   4.280 -0.3088  0.8321 -0.1713
  402MOL0     C52985   6.427  -0.023   4.326  0.3228  0.9874  0.0526
  402MOL0     C52986   6.875  -0.050   4.281 -1.1607  0.5018  1.3933
  402MOL0     C52987   6.868  -0.179   4.346  0.7191 -0.5680  0.9483
  402MOL0     C52988   6.979  -0.272   4.334 -0.0372  0.6443 -0.0112
  402MOL0     C52989   7.085  -0.244   4.241 -0.0440 -0.6267 -0.0667
  402MOL0     O52990   7.187  -0.330   4.210 -0.6832  0.4923 -0.1026
  402MOL0     C52991   7.157  -0.452   4.137 -0.0423 -0.0200  0.0952
  402MOL0     C52992   7.263  -0.487   4.032  0.6591 -0.1702  0.5641
  402MOL0     C52993   7.208  -0.429   3.901  0.9443 -0.5721 -0.1334
  402MOL0     C52994   7.308  -0.409   3.788  0.0590 -0.7729 -0.0794
  402MOL0     C52995   7.358  -0.540   3.749  0.8561  0.6514 -0.0605
  402MOL0     C52996   7.402  -0.631   3.688 -0.4043  0.0982 -0.3066
  402MOL0     C52997   7.096  -0.124   4.173  0.9961 -0.1080 -0.2094
  402MOL0     C52998   6.991  -0.023   4.202  0.2103 -0.0872 -0.3184
  402MOL0     H52999   6.600   0.257   4.384  1.2299 -0.4016 -1.5783
  402MOL0     H53000   6.370   0.363   4.351 -0.7109  0.4921  0.0125
  402MOL0     H53001   6.058   0.382   4.186  1.2763  3.0258 -0.8661
  402MOL0     H53002   6.231   0.393   4.194  1.0462 -3.3078 -2.3147
  402MOL0     H53003   6.118   0.542   4.344  3.0037 -0.2077 -0.9343
  402MOL0     H53004   6.201   0.430   4.449  0.3662  1.9867  1.1219
  402MOL0     H53005   5.980   0.467   4.549 -1.6764 -0.8213  0.8449
  402MOL0     H53006   5.969   0.306   4.468  0.3617  0.5958  0.1073
  402MOL0     H53007   5.885   0.537   4.308  0.2226  0.1388 -0.9100
  402MOL0     H53008   5.810   0.376   4.324 -2.6015 -0.4167  2.9442
  402MOL0     H53009   5.660   0.519   4.425  1.3981  1.6902 -1.8591
  402MOL0     H53010   5.773   0.605   4.515 -1.5289  0.7444 -2.3175
  402MOL0     H53011   5.812   0.385   4.655 -0.2138 -1.2782  0.2194
  402MOL0     H53012   5.699   0.302   4.547 -1.8352 -1.1089  2.6718
  402MOL0     H53013   5.617   0.384   4.777 -0.2249 -3.3326 -1.6776
  402MOL0     H53014   5.660   0.544   4.742 -0.6706 -0.3782  1.3182
  402MOL0     H53015   5.463   0.501   4.547 -0.5442  0.9760  1.4754
  402MOL0     H53016   5.424   0.518   4.717  0.0507  0.3968  0.0244
  402MOL0     H53017   5.501   0.253   4.450 -0.6909 -1.9726 -0.8621
  402MOL0     H53018   5.373  -0.062   4.539 -3.1009 -0.0471  0.4303
  402MOL0     H53019   5.410   0.024   4.388 -0.6871 -1.3944 -1.1142
  402MOL0     H53020   5.198   0.116   4.340 -3.3650 -0.3548  0.1985
  402MOL0     H53021   5.130   0.039   4.491  0.2077  0.0544  1.0093
  402MOL0     H53022   5.092  -0.100   4.262  1.3171  0.3465 -0.7984
  402MOL0     H53023   5.267  -0.115   4.252  0.1687  1.5437 -0.6345
  402MOL0     H53024   5.256  -0.236   4.459  1.9252 -1.9467 -2.4136
  402MOL0     H53025   5.153  -0.309   4.325 -3.3047  2.8246 -1.9192
  402MOL0     H53026   4.859  -0.225   4.625  1.2223  0.2165  2.3167
  402MOL0     H53027   4.748  -0.414   4.737  1.5416 -2.9648  2.2265
  402MOL0     H53028   4.530  -0.740   4.583  0.5571 -2.2494 -0.0019
  402MOL0     H53029   4.347  -0.903   4.631 -0.4474  2.8601 -0.2661
  402MOL0     H53030   4.320  -1.090   5.055  1.4197 -2.4433  1.0238
  402MOL0     H53031   4.414  -1.197   4.969 -2.7170 -3.3488  1.7546
  402MOL0     H53032   4.118  -1.201   4.904 -1.1474 -1.6314 -1.1228
  402MOL0     H53033   4.185  -1.271   5.053 -2.5221 -1.1719 -0.8111
  402MOL0     H53034   4.312  -1.436   4.914  0.3256 -0.3472 -1.7715
  402MOL0     H53035   4.285  -1.334   4.773 -0.3847  5.3173  2.7229
  402MOL0     H53036   4.066  -1.385   4.755  1.6777  2.5079  1.6984
  402MOL0     H53037   4.132  -1.539   4.760 -2.2777  0.5605 -0.5914
  402MOL0     H53038   3.930  -1.548   4.909 -2.1059  0.8617 -0.6207
  402MOL0     H53039   3.975  -1.407   5.002 -0.9099 -0.5300 -1.5584
  402MOL0     H53040   4.000  -1.623   5.120 -0.7149 -1.7598 -0.3565
  402MOL0     H53041   4.155  -1.535   5.099  1.0919 -0.5135 -1.1580
  402MOL0     H53042   4.059  -1.764   4.914 -1.4422  0.3833  0.6629
  402MOL0     H53043   4.227  -1.688   4.934  2.3635 -0.6239  4.0087
  402MOL0     H53044   4.255  -1.799   5.142 -2.0532  2.4930  1.3123
  402MOL0     H53045   4.198  -1.926   5.033  5.0161  0.4808  1.5964
  402MOL0     H53046   4.509  -0.949   5.020 -0.6573  1.2012  0.3388
  402MOL0     H53047   4.665  -0.762   4.979 -1.2711  1.8724  0.2439
  402MOL0     H53048   5.051  -0.670   4.563  2.1556  0.3172  1.8558
  402MOL0     H53049   5.168  -0.473   4.463  1.8336 -1.7571  3.7595
  402MOL0     H53050   6.214  -0.029   4.246 -1.3587  1.2194  1.7336
  402MOL0     H53051   6.439  -0.131   4.332  2.4201  1.1989  0.1544
  402MOL0     H53052   6.789  -0.191   4.420 -0.4503 -3.2629 -0.5916
  402MOL0     H53053   6.981  -0.363   4.392 -0.3566  0.3198 -0.5005
  402MOL0     H53054   7.059  -0.453   4.089  0.6434  0.9383 -1.4280
  402MOL0     H53055   7.141  -0.537   4.204 -4.3355  1.0216  0.6736
  402MOL0     H53056   7.360  -0.439   4.046 -0.0059  1.5801 -0.5535
  402MOL0     H53057   7.271  -0.596   4.039  0.7117 -0.1380  1.0743
  402MOL0     H53058   7.165  -0.333   3.932  1.3761 -1.6605  4.4377
  402MOL0     H53059   7.134  -0.492   3.851  1.1841 -0.8288 -0.1616
  402MOL0     H53060   7.252  -0.358   3.709  2.5539  2.2090 -0.1171
  402MOL0     H53061   7.386  -0.343   3.827 -1.7345  0.3622  1.7847
  402MOL0     H53062   7.444  -0.712   3.632 -0.4232  0.0890 -0.3073
  402MOL0     H53063   7.184  -0.093   4.118 -0.4201  4.7770 -0.2145
  402MOL0     H53064   6.998   0.077   4.160 -1.7114 -1.0685 -3.2281
  403MOL0     O53065   3.569   3.399   2.316 -0.0700 -0.6333  0.2074
  403MOL0     C53066   3.537   3.319   2.402 -0.2784  0.2554 -1.0140
  403MOL0     O53067   3.456   3.211   2.382  0.3397  0.1214 -0.1040
  403MOL0     C53068   3.394   3.179   2.268 -0.2842  0.1351  0.0031
  403MOL0     C53069   3.421   3.228   2.143  0.3117 -0.9189  0.2783
  403MOL0     C53070   3.350   3.183   2.034  0.5995 -0.1202 -0.0196
  403MOL0     C53071   3.240   3.101   2.045  0.5332 -0.4520 -0.3761
  403MOL0     O53072   3.181   3.040   1.936 -0.8053  0.1590  1.3342
  403MOL0     C53073   3.052   2.988   1.933  0.0880  0.4356  0.8672
  403MOL0     C53074   3.044   2.921   1.796  0.1251  0.0222  0.6340
  403MOL0     C53075   2.903   2.842   1.782  0.3857 -0.8240  0.4276
  403MOL0     C53076   2.920   2.717   1.682  1.2354 -0.0698  0.0554
  403MOL0     C53077   2.790   2.654   1.633 -1.1618 -0.6539 -0.2906
  403MOL0     C53078   2.698   2.608   1.751 -0.8856 -0.1770  0.1737
  403MOL0     C53079   2.760   2.496   1.837 -0.3714 -0.1268  0.6377
  403MOL0     C53080   2.647   2.436   1.932 -0.1105 -0.6764 -0.5890
  403MOL0     N53081   2.697   2.346   2.038 -1.1469  0.0225  0.2926
  403MOL0     C53082   2.698   2.362   2.177  0.4066 -0.1453 -0.3651
  403MOL0     C53083   2.755   2.255   2.233 -0.0704  0.3642 -0.6283
  403MOL0     C53084   2.781   2.232   2.382 -0.1090 -0.3180  0.6705
  403MOL0     C53085   2.722   2.091   2.421  0.8412  0.2840  0.0584
  403MOL0     C53086   2.569   2.101   2.397  0.3566  0.0777  0.4574
  403MOL0     C53087   2.484   1.979   2.452  0.1005  0.7232  0.9710
  403MOL0     O53088   2.531   1.948   2.586 -1.1528  0.2865  0.0934
  403MOL0     C53089   2.487   1.837   2.639 -0.8271  0.3175 -0.2245
  403MOL0     C53090   2.575   1.774   2.729 -0.0832  0.5212  0.3806
  403MOL0     C53091   2.530   1.662   2.796  0.0063  0.3189 -0.1682
  403MOL0     C53092   2.406   1.604   2.756 -0.7502  0.7434  0.7802
  403MOL0     C53093   2.372   1.481   2.825  0.3895 -0.2723  0.2301
  403MOL0     O53094   2.269   1.419   2.775  0.3079 -0.4708 -0.3877
  403MOL0     C53095   2.180   1.354   2.861 -0.3145  0.2198 -0.2785
  403MOL0     C53096   2.052   1.326   2.810  0.1642  0.5555  0.4140
  403MOL0     C53097   1.953   1.287   2.894 -0.2521  0.6606  0.1097
  403MOL0     C53098   1.964   1.256   3.030 -0.8293  0.0121 -0.0332
  403MOL0     O53099   1.867   1.190   3.110 -0.3256 -0.0675  0.6892
  403MOL0     C53100   1.749   1.128   3.057  0.4342  0.6635 -0.2453
  403MOL0     C53101   1.662   1.088   3.168  1.1202  0.1362 -0.1658
  403MOL0     C53102   1.525   1.045   3.116 -0.2625 -0.4716 -0.2889
  403MOL0     C53103   1.428   1.023   3.225  0.7405  0.6688  0.4278
  403MOL0     C53104   1.290   0.980   3.177 -0.5739  0.4147  0.4096
  403MOL0     C53105   1.195   0.936   3.283  0.8743 -0.3984 -0.2327
  403MOL0     C53106   1.060   0.880   3.237 -0.2476  0.5066  0.6543
  403MOL0     C53107   0.996   0.809   3.356 -0.3753  0.3473  0.2417
  403MOL0    Cl53108   0.964   0.927   3.478  0.2346  0.0313  0.3792
  403MOL0     C53109   2.082   1.300   3.083  0.4073  1.1091 -0.5888
  403MOL0     C53110   2.192   1.333   2.999  0.1017  0.0099  0.7568
  403MOL0     O53111   2.445   1.440   2.920  0.1648 -0.0060 -0.3733
  403MOL0     C53112   2.316   1.669   2.675 -0.1827  0.0392  0.3430
  403MOL0     C53113   2.360   1.783   2.620  0.6760  0.0874 -0.3817
  403MOL0     N53114   2.800   2.188   2.116  0.6419  0.1275  0.5466
  403MOL0     N53115   2.755   2.231   2.006  0.1713  0.1657 -0.4478
  403MOL0     C53116   3.213   3.049   2.171  0.4800 -1.3748 -0.0996
  403MOL0     C53117   3.289   3.094   2.282  0.6124  0.1628  0.7156
  403MOL0     C53118   3.599   3.334   2.541  0.1445  0.0626  0.0237
  403MOL0     C53119   3.582   3.244   2.641 -0.2903 -0.1044  0.5520
  403MOL0     C53120   3.637   3.262   2.764 -0.4291  0.2673 -0.5593
  403MOL0     C53121   3.736   3.359   2.794  0.1558 -0.3117  0.2789
  403MOL0     O53122   3.796   3.364   2.918 -0.3029  0.1349 -0.0777
  403MOL0     C53123   3.878   3.477   2.959 -0.1308  1.2904 -0.5223
  403MOL0     C53124   3.795   3.545   3.071 -0.0882  0.3123 -0.3325
  403MOL0     C53125   3.810   3.491   3.220  0.2407 -0.9934 -0.2182
  403MOL0     C53126   3.952   3.518   3.274 -0.5682 -0.1065  0.1416
  403MOL0     C53127   3.948   3.462   3.410  0.4421 -0.3870  0.0815
  403MOL0     C53128   3.929   3.423   3.525 -0.3402 -0.3994  0.6345
  403MOL0     C53129   3.751   3.452   2.694 -0.2953 -0.8033  0.4128
  403MOL0     C53130   3.683   3.442   2.570  0.0062  0.2375  0.3983
  403MOL0     H53131   3.498   3.296   2.107 -2.9695  1.1497 -3.6803
  403MOL0     H53132   3.367   3.231   1.938 -2.8774 -0.8910 -1.1695
  403MOL0     H53133   2.982   3.072   1.940 -1.9809 -1.1079 -0.1039
  403MOL0     H53134   3.027   2.914   2.010  1.3071 -1.9833 -0.9294
  403MOL0     H53135   3.124   2.848   1.779  0.8132  1.6510 -5.2864
  403MOL0     H53136   3.046   2.984   1.707 -3.6704 -0.9516 -0.3582
  403MOL0     H53137   2.836   2.918   1.738  0.3104 -1.3606 -0.4095
  403MOL0     H53138   2.865   2.807   1.878  2.8093 -0.0520  1.7378
  403MOL0     H53139   2.972   2.750   1.591 -3.6714 -0.7416 -3.3461
  403MOL0     H53140   2.992   2.655   1.736  1.0242  1.0064  1.6530
  403MOL0     H53141   2.801   2.574   1.559  2.1743 -2.2719  1.6981
  403MOL0     H53142   2.717   2.717   1.583 -2.1945 -1.6333 -0.0520
  403MOL0     H53143   2.604   2.575   1.705 -1.4053  2.2281 -0.6421
  403MOL0     H53144   2.671   2.694   1.813  1.8207  1.1068 -0.2973
  403MOL0     H53145   2.800   2.416   1.774 -2.0826 -1.9395  1.6994
  403MOL0     H53146   2.842   2.534   1.898  0.3548  0.2465 -0.5347
  403MOL0     H53147   2.567   2.393   1.870  1.6986 -0.2439 -3.4409
  403MOL0     H53148   2.594   2.523   1.973 -0.1563 -1.3451  0.8165
  403MOL0     H53149   2.670   2.446   2.241  1.4069 -0.3097  0.3158
  403MOL0     H53150   2.730   2.310   2.439  0.8047 -0.6164  1.9417
  403MOL0     H53151   2.888   2.235   2.405 -0.4183 -0.6347  2.3139
  403MOL0     H53152   2.739   2.083   2.528 -0.2048 -1.8736  0.1089
  403MOL0     H53153   2.769   2.014   2.358  0.4806 -0.5908  0.8437
  403MOL0     H53154   2.520   2.192   2.435  0.9693 -0.0125  1.5166
  403MOL0     H53155   2.563   2.102   2.288  4.0253 -1.2833  0.1128
  403MOL0     H53156   2.497   1.888   2.394  0.8244  0.8257  0.9646
  403MOL0     H53157   2.378   2.003   2.461  0.0305  1.9358 -2.0076
  403MOL0     H53158   2.674   1.818   2.737  0.6749  0.1279 -4.0731
  403MOL0     H53159   2.579   1.598   2.868  0.2075 -0.9418 -1.3853
  403MOL0     H53160   2.031   1.347   2.705 -1.1828 -0.7336  0.3864
  403MOL0     H53161   1.852   1.273   2.856 -0.1581  1.4880 -0.4568
  403MOL0     H53162   1.768   1.040   2.994  1.2507 -0.3622  1.3723
  403MOL0     H53163   1.697   1.201   2.995 -0.9493 -0.0583  0.0237
  403MOL0     H53164   1.642   1.167   3.241 -1.2969 -2.2554  2.0058
  403MOL0     H53165   1.709   1.004   3.220 -0.5467 -1.7425 -1.5768
  403MOL0     H53166   1.534   0.961   3.046  1.5426  0.3446 -1.1196
  403MOL0     H53167   1.486   1.125   3.053  2.7895  0.2498 -1.4617
  403MOL0     H53168   1.463   0.944   3.292  1.4100  0.9567  0.4301
  403MOL0     H53169   1.413   1.120   3.273  2.0843  1.1330 -0.0382
  403MOL0     H53170   1.296   0.899   3.103  1.9311  2.2989 -1.6637
  403MOL0     H53171   1.242   1.055   3.114 -5.2638 -2.9561 -0.5365
  403MOL0     H53172   1.183   1.029   3.339 -0.9484 -1.3279  1.0415
  403MOL0     H53173   1.235   0.852   3.341 -0.3038 -2.2731 -1.9932
  403MOL0     H53174   0.994   0.962   3.207 -0.0073  1.2993  2.1960
  403MOL0     H53175   1.073   0.807   3.156  0.1791  0.3939  0.8188
  403MOL0     H53176   1.069   0.736   3.393  0.0363 -0.3699 -1.8281
  403MOL0     H53177   0.908   0.759   3.316  2.3470 -4.0052 -1.0036
  403MOL0     H53178   2.106   1.287   3.188  0.6097  0.9716 -0.6501
  403MOL0     H53179   2.279   1.367   3.054  1.4443 -1.1148 -0.5923
  403MOL0     H53180   2.214   1.634   2.666 -0.0723 -0.3300  0.5455
  403MOL0     H53181   2.275   1.838   2.581  1.1075  0.1551 -1.2531
  403MOL0     H53182   3.129   2.981   2.185 -0.2811 -0.6245 -0.8549
  403MOL0     H53183   3.253   3.076   2.383 -0.5497  0.3912  0.3659
  403MOL0     H53184   3.503   3.170   2.631  0.0890 -0.5782  1.0594
  403MOL0     H53185   3.616   3.196   2.847  1.2377 -0.1921 -0.4742
  403MOL0     H53186   3.904   3.547   2.880  0.6953  0.4316 -1.0402
  403MOL0     H53187   3.980   3.446   2.982  1.1312  0.9479 -5.3859
  403MOL0     H53188   3.813   3.652   3.064 -0.2026  0.4685  1.4379
  403MOL0     H53189   3.689   3.529   3.048 -1.2344  5.1060  0.5872
  403MOL0     H53190   3.778   3.387   3.237  0.7787 -0.8967  1.6572
  403MOL0     H53191   3.740   3.556   3.274  1.7099  1.5375 -1.2205
  403MOL0     H53192   4.031   3.459   3.227  2.6467  5.1781 -2.0829
  403MOL0     H53193   3.976   3.625   3.265  4.0387 -1.0349 -1.4467
  403MOL0     H53194   3.903   3.382   3.621  1.6383 -1.3346  0.8357
  403MOL0     H53195   3.813   3.540   2.685 -0.2636 -0.9784 -1.7500
  403MOL0     H53196   3.691   3.522   2.498 -2.1351  1.4930  1.4486
  404MOL0     O53197   5.509   9.997   3.716  0.8236 -0.6499  0.0747
  404MOL0     C53198   5.533  10.083   3.811  0.7772  0.2086  0.8440
  404MOL0     O53199   5.445  10.125   3.908  0.4783  0.3194 -0.1894
  404MOL0     C53200   5.325  10.063   3.945 -0.2711  0.4635  0.7168
  404MOL0     C53201   5.254   9.975   3.868 -0.0692 -0.6148  0.2008
  404MOL0     C53202   5.137   9.916   3.925 -0.6540  0.2465  1.2026
  404MOL0     C53203   5.100   9.939   4.049 -0.4356 -1.0941  0.1929
  404MOL0     O53204   4.990   9.867   4.092  0.7768 -0.1592 -0.8201
  404MOL0     C53205   4.967   9.839   4.237  0.7124  0.1940  0.4906
  404MOL0     C53206   4.836   9.770   4.276  1.0279 -0.3536 -0.4153
  404MOL0     C53207   4.710   9.847   4.205  0.2092  0.2972 -0.0897
  404MOL0     C53208   4.576   9.772   4.248 -0.6806 -0.4985  1.2272
  404MOL0     C53209   4.461   9.805   4.156  0.5485 -0.9410 -0.6000
  404MOL0     C53210   4.435   9.959   4.164  0.3062 -0.9524 -0.6076
  404MOL0     C53211   4.333  10.026   4.063 -0.3520  0.0199  1.1182
  404MOL0     C53212   4.342  10.177   4.054 -0.5009 -1.2092  0.3233
  404MOL0     N53213   4.234  10.229   3.969 -0.1556  0.5826 -0.3479
  404MOL0     C53214   4.101  10.251   4.003 -0.0317  0.0417  0.5521
  404MOL0     C53215   4.039  10.292   3.888 -0.5542 -1.6225  1.2685
  404MOL0     C53216   3.900  10.330   3.859  0.5990  0.8517 -0.1125
  404MOL0     C53217   3.786  10.222   3.863 -0.2294 -0.2795 -0.3104
  404MOL0     C53218   3.653  10.287   3.835  1.6912 -0.7489  0.0583
  404MOL0     C53219   3.594  10.396   3.920  0.3258 -0.2517  0.4136
  404MOL0     O53220   3.476  10.447   3.858  0.1312 -0.0232 -0.3734
  404MOL0     C53221   3.432  10.563   3.917  0.0179  0.2958 -0.2363
  404MOL0     C53222   3.505  10.681   3.939 -0.2816  0.0590 -0.5499
  404MOL0     C53223   3.439  10.803   3.985 -0.5836 -0.6163  0.1820
  404MOL0     C53224   3.305  10.804   4.018 -0.0276 -0.5235 -0.0909
  404MOL0     C53225   3.249  10.923   4.067 -0.3214 -0.4813 -0.4839
  404MOL0     O53226   3.322  11.027   4.086  0.3405 -0.9628  0.1069
  404MOL0     C53227   3.277  11.146   4.140 -0.0733 -0.4855 -0.1600
  404MOL0     C53228   3.351  11.261   4.102  0.4582 -0.4394  0.6247
  404MOL0     C53229   3.320  11.390   4.159  0.1813  0.2379 -0.6260
  404MOL0     C53230   3.234  11.399   4.262  0.7685 -0.2764  0.6998
  404MOL0     O53231   3.230  11.518   4.339 -0.3638 -0.0260  0.4871
  404MOL0     C53232   3.102  11.582   4.317 -0.9049 -0.0971 -0.1729
  404MOL0     C53233   3.079  11.683   4.425 -0.2823  0.2256 -0.7789
  404MOL0     C53234   3.207  11.755   4.461 -0.3528  0.3965 -0.0400
  404MOL0     C53235   3.185  11.871   4.552  0.4795  0.7051  0.0907
  404MOL0     C53236   3.317  11.941   4.589  0.1950 -0.0762  0.1499
  404MOL0     C53237   3.378  12.027   4.474 -0.0153  0.6415 -0.7062
  404MOL0     C53238   3.523  12.059   4.509  0.7125 -0.1441  0.0769
  404MOL0     C53239   3.606  12.096   4.384  0.7062  0.4695  0.7573
  404MOL0    Cl53240   3.505  12.174   4.246  0.5186 -0.0580 -0.4417
  404MOL0     C53241   3.162  11.286   4.309 -0.3330 -0.0921  0.5903
  404MOL0     C53242   3.179  11.161   4.244 -0.4396 -0.5785  0.8711
  404MOL0     O53243   3.128  10.912   4.103 -0.2400  1.2174 -0.9581
  404MOL0     C53244   3.232  10.682   3.994  0.1320  0.2231 -0.0971
  404MOL0     C53245   3.299  10.570   3.951 -0.4279  0.1902  0.2923
  404MOL0     N53246   4.142  10.301   3.795 -0.2461 -0.0534 -0.3277
  404MOL0     N53247   4.251  10.265   3.845  0.3576  0.0988  0.0136
  404MOL0     C53248   5.165  10.038   4.127 -0.1298  0.4539  0.0172
  404MOL0     C53249   5.280  10.098   4.073 -0.8401 -0.4075 -0.4884
  404MOL0     C53250   5.656  10.171   3.801  0.8357 -0.2586 -0.2787
  404MOL0     C53251   5.723  10.200   3.685  0.4538  0.3322 -0.6168
  404MOL0     C53252   5.835  10.286   3.668 -0.4701 -0.7743 -0.7825
  404MOL0     C53253   5.896  10.338   3.783 -0.1731 -0.2319  0.4379
  404MOL0     O53254   5.996  10.429   3.758  0.2176 -0.4715 -0.5949
  404MOL0     C53255   6.077  10.474   3.872 -0.6193 -0.2713  0.4543
  404MOL0     C53256   6.225  10.504   3.820  0.2472 -0.1537 -0.0816
  404MOL0     C53257   6.251  10.635   3.743  0.7895 -0.1274  1.0651
  404MOL0     C53258   6.396  10.661   3.699  1.2776 -0.2828  0.5335
  404MOL0     C53259   6.458  10.550   3.622 -0.0029 -0.1701  0.0367
  404MOL0     C53260   6.497  10.461   3.554 -1.1004 -0.1759  0.2438
  404MOL0     C53261   5.824  10.310   3.901  0.1641  0.8552  0.1296
  404MOL0     C53262   5.711  10.233   3.908 -1.2328  0.2078  0.5046
  404MOL0     H53263   5.257   9.954   3.762 -1.1639  0.8340 -0.1460
  404MOL0     H53264   5.076   9.852   3.862  0.3229  1.1310 -0.7195
  404MOL0     H53265   4.962   9.937   4.285 -2.4250  0.4773 -0.1368
  404MOL0     H53266   5.041   9.770   4.278 -2.4061 -1.7238  3.4523
  404MOL0     H53267   4.826   9.768   4.385 -2.1761 -4.5136 -0.4998
  404MOL0     H53268   4.832   9.666   4.240  0.8306  0.5293 -3.2146
  404MOL0     H53269   4.733   9.865   4.100  3.9771  1.3896  0.7562
  404MOL0     H53270   4.709   9.942   4.260  0.2347 -0.6816  1.7027
  404MOL0     H53271   4.590   9.665   4.231  1.5310 -0.0535 -0.1232
  404MOL0     H53272   4.551   9.793   4.353  1.5457 -0.5837  1.8418
  404MOL0     H53273   4.373   9.747   4.187  2.4346 -2.8104  1.6049
  404MOL0     H53274   4.482   9.774   4.053  1.2449  1.3284 -1.1866
  404MOL0     H53275   4.530  10.012   4.173 -0.9583  1.0602  2.8949
  404MOL0     H53276   4.398   9.978   4.265  4.2774  0.4238  0.8032
  404MOL0     H53277   4.364   9.999   3.962  1.7383  0.6320  1.5405
  404MOL0     H53278   4.230   9.997   4.084  0.7751 -2.1522  4.5495
  404MOL0     H53279   4.440  10.199   4.012 -1.0378 -1.7055 -1.2640
  404MOL0     H53280   4.336  10.232   4.148 -0.0662  1.4279 -1.1132
  404MOL0     H53281   4.045  10.236   4.094 -1.4399 -1.6726 -0.5138
  404MOL0     H53282   3.898  10.378   3.760  0.3798 -0.0239 -0.5485
  404MOL0     H53283   3.877  10.409   3.930 -0.9988  1.2320 -1.0082
  404MOL0     H53284   3.772  10.167   3.957 -0.6543  1.6670  0.8232
  404MOL0     H53285   3.800  10.154   3.779  1.3306  2.3644 -2.3701
  404MOL0     H53286   3.660  10.324   3.732  3.3910 -1.1637 -0.0039
  404MOL0     H53287   3.575  10.210   3.831 -2.6769  3.2153 -1.1426
  404MOL0     H53288   3.671  10.469   3.948 -1.6827  1.7066  1.1694
  404MOL0     H53289   3.584  10.360   4.023  0.3624 -1.5989 -0.0328
  404MOL0     H53290   3.605  10.692   3.900  0.5032  0.0965  1.3745
  404MOL0     H53291   3.494  10.896   3.992  1.6376 -1.7030 -1.5853
  404MOL0     H53292   3.429  11.248   4.029  1.3584  0.0782  1.4720
  404MOL0     H53293   3.378  11.475   4.125 -0.1514  0.9922  0.6377
  404MOL0     H53294   3.011  11.523   4.312 -0.6769 -0.7417  2.0946
  404MOL0     H53295   3.117  11.646   4.230  2.2940  0.8125  0.9010
  404MOL0     H53296   3.049  11.628   4.515  0.0040 -0.7837 -1.2911
  404MOL0     H53297   3.005  11.757   4.391 -0.5385 -0.6408 -2.1736
  404MOL0     H53298   3.245  11.790   4.365 -4.3004  0.6734 -1.6703
  404MOL0     H53299   3.281  11.688   4.506  1.3185  0.5347 -2.4001
  404MOL0     H53300   3.112  11.941   4.508  0.9434 -1.4542 -4.7344
  404MOL0     H53301   3.143  11.834   4.646  0.2664  4.1860  1.5333
  404MOL0     H53302   3.387  11.866   4.626  0.3424 -0.7778 -1.4911
  404MOL0     H53303   3.302  12.012   4.672  1.1139  0.2519  0.0498
  404MOL0     H53304   3.306  12.107   4.452 -1.1967 -0.1813  0.0361
  404MOL0     H53305   3.392  11.957   4.391  4.3553  1.1642 -0.6255
  404MOL0     H53306   3.518  12.134   4.588 -1.4200  1.6689 -1.6529
  404MOL0     H53307   3.562  11.965   4.550  0.0333 -1.5771 -2.3399
  404MOL0     H53308   3.655  12.010   4.338 -2.8940 -0.4210 -1.7974
  404MOL0     H53309   3.686  12.166   4.413  1.3357 -0.6762  1.8468
  404MOL0     H53310   3.094  11.292   4.394 -0.3645 -0.8962  0.6349
  404MOL0     H53311   3.131  11.070   4.280 -0.8500  0.1339  2.1857
  404MOL0     H53312   3.126  10.683   4.018  0.7976  2.4251  3.5234
  404MOL0     H53313   3.241  10.481   3.929  0.4668 -1.1739  2.9969
  404MOL0     H53314   5.119  10.057   4.223 -0.4000  0.7434 -0.1696
  404MOL0     H53315   5.331  10.173   4.133  1.0972 -4.4387  3.5259
  404MOL0     H53316   5.685  10.158   3.593  3.8738 -0.3334 -1.8665
  404MOL0     H53317   5.871  10.289   3.565  2.5893 -3.4960  0.0408
  404MOL0     H53318   6.093  10.394   3.945  0.2696 -0.3357  0.1922
  404MOL0     H53319   6.017  10.551   3.921 -2.6033 -1.1920 -0.4105
  404MOL0     H53320   6.283  10.516   3.911 -0.8804 -3.8890  1.2942
  404MOL0     H53321   6.259  10.417   3.763 -0.9388  0.9188 -2.6242
  404MOL0     H53322   6.218  10.721   3.802 -2.8935 -1.1905  0.7825
  404MOL0     H53323   6.174  10.628   3.666  1.6351 -2.4185  0.3332
  404MOL0     H53324   6.376  10.751   3.639 -3.9465 -0.9592  0.8460
  404MOL0     H53325   6.465  10.691   3.778  1.5237 -2.2100  1.1017
  404MOL0     H53326   6.523  10.369   3.506  2.5452  0.3828  0.8682
  404MOL0     H53327   5.866  10.351   3.993 -2.1124  1.2105  1.0768
  404MOL0     H53328   5.661  10.215   4.002 -1.4955  3.3583  1.0556
  405MOL0     O53329   3.342  10.380   8.634  0.6362 -0.1402  0.0721
  405MOL0     C53330   3.419  10.330   8.545 -0.5429  0.9378  0.2172
  405MOL0     O53331   3.413  10.199   8.508 -0.5699  0.0235  1.0781
  405MOL0     C53332   3.332  10.114   8.571  0.8323  0.5767 -0.3685
  405MOL0     C53333   3.389  10.020   8.646 -0.8581  0.6337 -0.6862
  405MOL0     C53334   3.330   9.916   8.716  0.5056  0.5501 -0.1766
  405MOL0     C53335   3.189   9.916   8.714  0.9565  0.7519  0.6787
  405MOL0     O53336   3.111   9.827   8.787 -0.1481  0.0358  0.0934
  405MOL0     C53337   3.146   9.689   8.781  0.3626  0.4481 -0.2018
  405MOL0     C53338   3.091   9.622   8.658 -0.0973  0.6911  0.7434
  405MOL0     C53339   3.149   9.493   8.610 -0.8164 -0.2521  0.4108
  405MOL0     C53340   3.083   9.440   8.482 -0.2438 -0.4966 -0.9401
  405MOL0     C53341   3.170   9.325   8.439  0.4391  0.4516 -0.2654
  405MOL0     C53342   3.110   9.257   8.319 -1.1198 -0.3186  0.0352
  405MOL0     C53343   3.199   9.143   8.270  0.5866  0.0828 -0.1037
  405MOL0     C53344   3.334   9.196   8.215  0.4741  0.2513 -0.1788
  405MOL0     N53345   3.374   9.100   8.109  0.9382 -0.1931 -0.6024
  405MOL0     C53346   3.386   8.965   8.131  0.6544 -0.0372  0.4898
  405MOL0     C53347   3.394   8.920   8.008 -0.2945 -0.4487  0.5099
  405MOL0     C53348   3.406   8.778   7.989 -0.2811  0.1415  0.0550
  405MOL0     C53349   3.276   8.731   7.911 -0.5317  0.1790 -0.0433
  405MOL0     C53350   3.158   8.720   8.010 -0.3658 -0.4782  0.4995
  405MOL0     C53351   3.023   8.689   7.940 -0.7701  0.2519  0.1111
  405MOL0     O53352   3.026   8.559   7.884  0.0315 -0.1812  0.1625
  405MOL0     C53353   2.907   8.493   7.869  0.4901 -0.7255 -0.2748
  405MOL0     C53354   2.779   8.559   7.890  0.4771 -0.3081  0.4606
  405MOL0     C53355   2.654   8.487   7.876 -0.1400 -0.9947 -0.3947
  405MOL0     C53356   2.662   8.349   7.841 -0.1153 -0.2131 -0.0232
  405MOL0     C53357   2.538   8.260   7.856 -1.3887 -0.6350  0.4243
  405MOL0     O53358   2.425   8.307   7.921 -0.3054  0.3895 -0.1820
  405MOL0     C53359   2.324   8.220   7.949 -0.2155 -1.2038  0.9494
  405MOL0     C53360   2.354   8.084   7.984 -0.6704  0.2300  0.2384
  405MOL0     C53361   2.248   7.998   7.972 -0.3401  0.2755  0.2557
  405MOL0     C53362   2.118   8.040   7.935 -1.0641  0.8425 -0.2146
  405MOL0     O53363   2.025   7.942   7.924  0.4016 -0.5205  0.7874
  405MOL0     C53364   2.034   7.861   7.805 -0.8949  0.0903 -0.9791
  405MOL0     C53365   1.912   7.858   7.717 -1.0264  0.3310  0.5660
  405MOL0     C53366   1.842   7.988   7.707 -0.6150  0.1149  0.0352
  405MOL0     C53367   1.700   7.983   7.642  0.7558  0.2353 -0.3749
  405MOL0     C53368   1.610   8.083   7.701 -0.5505  0.1322  0.3161
  405MOL0     C53369   1.466   8.053   7.655  0.1113  0.0171  0.0706
  405MOL0     C53370   1.368   8.142   7.719  0.0571 -0.6239  0.3218
  405MOL0     C53371   1.232   8.127   7.650  0.1629 -0.0650 -0.1071
  405MOL0    Cl53372   1.222   8.218   7.495  0.3514 -0.3283 -0.4140
  405MOL0     C53373   2.085   8.176   7.920  0.1223  0.2689  0.4333
  405MOL0     C53374   2.194   8.264   7.926  0.8763 -0.2614  0.6511
  405MOL0     O53375   2.551   8.153   7.798  0.4643  0.3561  0.6398
  405MOL0     C53376   2.788   8.293   7.802  0.8087 -0.6218  0.1642
  405MOL0     C53377   2.908   8.364   7.816  1.2526 -0.3118  0.5778
  405MOL0     N53378   3.402   9.010   7.911  0.7498 -0.7249  0.5432
  405MOL0     N53379   3.374   9.121   7.971 -0.4298 -0.7233 -0.4803
  405MOL0     C53380   3.116  10.016   8.641  0.2424  0.8185  1.3444
  405MOL0     C53381   3.190  10.111   8.568 -0.2602 -0.6939 -0.1592
  405MOL0     C53382   3.506  10.423   8.467 -1.1456 -0.3768  0.4237
  405MOL0     C53383   3.625  10.372   8.416  0.6041  0.2482 -0.2989
  405MOL0     C53384   3.715  10.460   8.344  0.1255  0.0353 -0.2228
  405MOL0     C53385   3.692  10.598   8.346  0.3345  0.5894  0.2286
  405MOL0     O53386   3.785  10.675   8.276  0.2825  0.3522  1.3391
  405MOL0     C53387   3.814  10.799   8.344 -0.3120  1.4692  1.3109
  405MOL0     C53388   3.875  10.767   8.484  0.3236 -0.5103  0.1657
  405MOL0     C53389   3.951  10.889   8.531 -0.0951 -1.1928 -0.0074
  405MOL0     C53390   3.871  11.021   8.524  0.0588  0.3769  0.1255
  405MOL0     C53391   3.951  11.133   8.576 -0.4417  0.8200 -1.0475
  405MOL0     C53392   4.022  11.231   8.607  0.8850 -0.1725  0.8614
  405MOL0     C53393   3.572  10.651   8.412 -0.3336  0.2719 -0.3220
  405MOL0     C53394   3.485  10.560   8.473  0.5230 -0.0114  0.2773
  405MOL0     H53395   3.497  10.018   8.661 -0.9436  0.7108 -0.0504
  405MOL0     H53396   3.380   9.842   8.777 -1.3356  0.2474  1.0347
  405MOL0     H53397   3.116   9.640   8.874  1.5422  2.2775  1.2076
  405MOL0     H53398   3.254   9.674   8.789  0.4360  0.0869 -1.5375
  405MOL0     H53399   3.105   9.695   8.577 -3.1092  2.1591  1.3928
  405MOL0     H53400   2.984   9.620   8.680 -0.2866  3.4440  0.4172
  405MOL0     H53401   3.137   9.426   8.696  2.4879 -0.0922  1.1342
  405MOL0     H53402   3.256   9.508   8.590 -0.3061 -0.6400  2.6221
  405MOL0     H53403   2.984   9.400   8.506 -0.7017  0.4936 -1.1422
  405MOL0     H53404   3.075   9.521   8.408 -0.2428 -1.8873 -2.5288
  405MOL0     H53405   3.185   9.255   8.522  2.1404  0.4632 -0.5285
  405MOL0     H53406   3.268   9.360   8.406  2.9401 -2.7264  2.9919
  405MOL0     H53407   3.127   9.338   8.247  2.7969  0.9801  2.1235
  405MOL0     H53408   3.003   9.241   8.334 -1.0877  0.1062  0.7739
  405MOL0     H53409   3.213   9.068   8.349 -0.5386 -0.3117 -0.2592
  405MOL0     H53410   3.137   9.099   8.192  0.5803 -1.7786  0.8894
  405MOL0     H53411   3.402   9.193   8.301  0.5228 -1.9908 -0.2156
  405MOL0     H53412   3.330   9.297   8.174 -1.4592  0.3742  0.2274
  405MOL0     H53413   3.365   8.916   8.226  0.6616 -1.0247 -0.0055
  405MOL0     H53414   3.433   8.735   8.086 -1.2908  3.7058  2.1323
  405MOL0     H53415   3.489   8.759   7.921 -0.6087 -0.9304 -0.0586
  405MOL0     H53416   3.294   8.634   7.864  3.5973  1.2144 -1.0616
  405MOL0     H53417   3.253   8.799   7.829 -0.3622  0.9344  0.5263
  405MOL0     H53418   3.179   8.660   8.099 -0.7651  0.5220  1.2865
  405MOL0     H53419   3.141   8.821   8.049  1.9663 -0.1370  0.7880
  405MOL0     H53420   3.010   8.757   7.855  1.8434  1.0985  0.3030
  405MOL0     H53421   2.950   8.714   8.017 -0.6818 -1.2218  0.7105
  405MOL0     H53422   2.780   8.664   7.916  0.8641 -0.9525  3.3004
  405MOL0     H53423   2.560   8.539   7.891  0.2162 -0.4134 -0.1495
  405MOL0     H53424   2.453   8.045   8.006 -1.5861 -1.8320  0.9415
  405MOL0     H53425   2.266   7.896   8.007 -1.8648  0.3588  1.3821
  405MOL0     H53426   2.066   7.762   7.841 -0.0898  0.6407 -0.1343
  405MOL0     H53427   2.114   7.911   7.750  0.0487 -1.5963 -1.2223
  405MOL0     H53428   1.851   7.774   7.751  0.7142 -1.2429 -0.0827
  405MOL0     H53429   1.943   7.844   7.614  0.3121  1.7057  0.7465
  405MOL0     H53430   1.904   8.063   7.657  0.7273 -0.9700  0.0293
  405MOL0     H53431   1.845   8.027   7.809  2.9018 -0.3745  0.2502
  405MOL0     H53432   1.697   7.993   7.533  0.0267  1.3452 -0.2687
  405MOL0     H53433   1.653   7.885   7.652 -1.2502  1.2987  1.8754
  405MOL0     H53434   1.641   8.184   7.671 -1.6521  0.2135 -0.6125
  405MOL0     H53435   1.620   8.079   7.810  2.9091  4.5948  0.4785
  405MOL0     H53436   1.442   7.951   7.688  0.8346 -0.2644 -0.2498
  405MOL0     H53437   1.459   8.054   7.546 -0.2104 -0.0955  0.0897
  405MOL0     H53438   1.377   8.111   7.824  2.1794 -3.1925 -0.5115
  405MOL0     H53439   1.395   8.247   7.707  2.1106 -1.2809 -1.5287
  405MOL0     H53440   1.154   8.172   7.713  0.1765 -2.3169  1.6517
  405MOL0     H53441   1.215   8.020   7.639 -1.5892  0.1978 -0.3628
  405MOL0     H53442   1.989   8.212   7.886  0.3189 -0.4362 -0.9504
  405MOL0     H53443   2.171   8.369   7.915 -1.7218 -0.7733  0.5532
  405MOL0     H53444   2.791   8.192   7.765 -1.3675 -0.3380 -0.9655
  405MOL0     H53445   3.001   8.314   7.793 -0.3708 -2.0368 -2.9875
  405MOL0     H53446   3.009  10.002   8.640  0.0149  2.1942  2.6660
  405MOL0     H53447   3.142  10.198   8.524  1.3997  1.3627  1.7974
  405MOL0     H53448   3.645  10.265   8.421 -3.2709 -0.6463 -0.1362
  405MOL0     H53449   3.793  10.415   8.284  2.2080  4.5492 -1.3789
  405MOL0     H53450   3.725  10.861   8.361 -1.5511 -0.1472  0.9946
  405MOL0     H53451   3.893  10.852   8.289 -1.0099 -0.1448 -1.4232
  405MOL0     H53452   3.787  10.740   8.544 -1.7855 -1.7104 -3.2204
  405MOL0     H53453   3.944  10.683   8.488  0.0260 -0.9293 -2.2964
  405MOL0     H53454   4.038  10.901   8.466 -0.6357  0.1847 -0.5241
  405MOL0     H53455   3.995  10.866   8.628 -0.4876 -0.9263  0.2376
  405MOL0     H53456   3.829  11.035   8.424 -2.9378  2.4782  1.5272
  405MOL0     H53457   3.791  11.004   8.597  3.1260 -1.8920  3.2884
  405MOL0     H53458   4.082  11.314   8.640 -0.5619  0.6355  1.5887
  405MOL0     H53459   3.547  10.756   8.407 -1.6106 -0.0478 -1.5115
  405MOL0     H53460   3.395  10.601   8.518  0.8426  1.0591 -0.0288
  406MOL0     O53461   9.550  11.315   4.541  0.0845  0.2762  0.3315
  406MOL0     C53462   9.636  11.382   4.483 -0.2271 -0.1412 -0.1630
  406MOL0     O53463   9.668  11.512   4.507 -0.0287 -0.6429  0.6460
  406MOL0     C53464   9.592  11.597   4.578  0.6952 -0.1733  0.2787
  406MOL0     C53465   9.560  11.728   4.531 -0.2294  0.3560 -0.7782
  406MOL0     C53466   9.468  11.810   4.600 -0.4776  0.0320  0.5674
  406MOL0     C53467   9.396  11.759   4.706 -0.1250 -0.5979 -0.1414
  406MOL0     O53468   9.283  11.830   4.734  0.0090 -0.7778 -0.0110
  406MOL0     C53469   9.177  11.754   4.802  1.0638  0.0128  0.8575
  406MOL0     C53470   9.077  11.678   4.712  0.3550  0.9251  0.8117
  406MOL0     C53471   9.136  11.551   4.642 -0.6280 -0.1232  0.3421
  406MOL0     C53472   9.034  11.455   4.573  0.0864  0.0508  0.8745
  406MOL0     C53473   9.103  11.332   4.516 -0.1499 -0.1575  0.0046
  406MOL0     C53474   9.137  11.237   4.619  0.5758 -0.4354 -0.1752
  406MOL0     C53475   9.210  11.114   4.547 -0.1550  0.5819 -0.5259
  406MOL0     C53476   9.275  11.017   4.645 -0.3423  0.7732 -0.0499
  406MOL0     N53477   9.184  10.910   4.678  0.2391 -0.0165  0.4222
  406MOL0     C53478   9.140  10.805   4.602 -0.2918  0.0840  0.0770
  406MOL0     C53479   9.041  10.739   4.679 -0.6125  0.7198  0.0605
  406MOL0     C53480   8.959  10.636   4.616  0.1336  0.6704  0.3154
  406MOL0     C53481   9.034  10.500   4.605 -0.6567  0.9205  0.8274
  406MOL0     C53482   8.952  10.387   4.532 -0.2131  0.8903  0.4144
  406MOL0     C53483   9.039  10.253   4.542  0.6822  0.3812 -0.2469
  406MOL0     O53484   9.123  10.233   4.425  0.0134  0.2460 -0.2484
  406MOL0     C53485   9.200  10.120   4.412  0.8854  0.0859  0.4782
  406MOL0     C53486   9.244  10.045   4.523 -0.0766 -0.2447  0.2125
  406MOL0     C53487   9.334   9.939   4.493  0.6230 -0.0120 -0.3069
  406MOL0     C53488   9.398   9.931   4.375 -0.0932 -0.0322 -0.6596
  406MOL0     C53489   9.517   9.847   4.357  0.0242 -0.1477 -0.0516
  406MOL0     O53490   9.601   9.875   4.251  0.2749  0.2988  0.3429
  406MOL0     C53491   9.717   9.800   4.235  0.5282 -0.4258 -0.5031
  406MOL0     C53492   9.818   9.874   4.161  0.3293 -0.2347 -0.0736
  406MOL0     C53493   9.943   9.812   4.134 -0.1195  0.7120  0.4591
  406MOL0     C53494   9.968   9.693   4.184  0.7848  0.4415  0.0108
  406MOL0     O53495  10.088   9.636   4.169 -0.7217 -0.0002  0.9597
  406MOL0     C53496  10.093   9.513   4.087  0.0929  0.4178  0.6859
  406MOL0     C53497  10.232   9.481   4.029 -0.0667 -0.1566  0.3771
  406MOL0     C53498  10.257   9.342   3.973 -0.3174  0.3114 -0.7894
  406MOL0     C53499  10.395   9.346   3.899 -0.4775  0.1682  0.5199
  406MOL0     C53500  10.426   9.209   3.827 -0.1133  0.0056  0.1120
  406MOL0     C53501  10.431   9.091   3.924 -0.1835 -0.2264  0.4520
  406MOL0     C53502  10.550   9.097   4.019 -0.9742 -0.0402 -0.9841
  406MOL0     C53503  10.537   8.985   4.132 -0.3716  0.3005  0.2110
  406MOL0    Cl53504  10.709   8.963   4.191  0.3406 -0.1440 -0.0988
  406MOL0     C53505   9.874   9.613   4.254  0.0274 -0.7267  0.6754
  406MOL0     C53506   9.747   9.671   4.281 -0.0268 -0.0949 -0.2446
  406MOL0     O53507   9.536   9.767   4.445  0.6923 -0.8756  0.3080
  406MOL0     C53508   9.355  10.015   4.268  0.7920  0.0542 -0.0863
  406MOL0     C53509   9.255  10.115   4.289 -0.3946  0.4857  0.1376
  406MOL0     N53510   9.033  10.801   4.801 -0.4426  0.2450 -0.5032
  406MOL0     N53511   9.114  10.908   4.804 -1.2358  0.7221 -0.2894
  406MOL0     C53512   9.435  11.632   4.755  0.7695  0.2626  0.3856
  406MOL0     C53513   9.527  11.552   4.694  0.0816  0.8851  0.3213
  406MOL0     C53514   9.724  11.315   4.393  0.0170  0.2683  0.7157
  406MOL0     C53515   9.708  11.177   4.367 -0.9452  0.2831 -0.4673
  406MOL0     C53516   9.816  11.109   4.308  0.7549 -0.5588 -1.0776
  406MOL0     C53517   9.925  11.170   4.251  0.3907 -0.4460  1.0112
  406MOL0     O53518  10.025  11.096   4.191  0.6165  0.1856  0.3070
  406MOL0     C53519  10.146  11.157   4.143 -0.1785  0.4352 -0.9646
  406MOL0     C53520  10.240  11.040   4.128 -0.9807  0.4500 -0.6474
  406MOL0     C53521  10.380  11.097   4.127  0.3043 -0.4938 -0.3145
  406MOL0     C53522  10.485  10.999   4.066  0.4442  0.3537  0.5900
  406MOL0     C53523  10.613  11.069   4.086  0.2945 -0.1199 -0.2850
  406MOL0     C53524  10.718  11.124   4.102  1.0717 -0.2357 -0.1431
  406MOL0     C53525   9.920  11.312   4.241  0.4716 -0.5103  0.2714
  406MOL0     C53526   9.827  11.385   4.318  0.4400 -0.6567  0.3984
  406MOL0     H53527   9.604  11.761   4.438 -0.9929 -0.2264 -1.3587
  406MOL0     H53528   9.438  11.903   4.552 -1.2850 -0.8348 -0.6774
  406MOL0     H53529   9.116  11.826   4.856  1.6162  1.4345 -0.3501
  406MOL0     H53530   9.206  11.682   4.879 -1.1693 -1.4007  0.4746
  406MOL0     H53531   9.040  11.746   4.635  2.8175  0.5995 -0.7988
  406MOL0     H53532   8.997  11.635   4.773 -1.2666  1.1388 -1.0665
  406MOL0     H53533   9.183  11.494   4.723  0.3911  0.7557  0.3932
  406MOL0     H53534   9.204  11.580   4.561 -0.0312  3.0880  1.8441
  406MOL0     H53535   8.963  11.426   4.651  0.1814 -0.2768  0.8392
  406MOL0     H53536   8.981  11.501   4.489  3.0623 -3.2893 -3.2647
  406MOL0     H53537   9.191  11.367   4.461  0.8252 -0.3297  1.4147
  406MOL0     H53538   9.026  11.298   4.446 -1.2531  2.0784  0.0360
  406MOL0     H53539   9.048  11.197   4.667 -1.3433  1.2313 -2.1341
  406MOL0     H53540   9.197  11.282   4.699  1.6370 -2.3314  0.1654
  406MOL0     H53541   9.149  11.058   4.475 -0.6871  0.8805 -0.3170
  406MOL0     H53542   9.287  11.155   4.481  1.6038 -1.1463  0.3647
  406MOL0     H53543   9.300  11.073   4.735 -1.5220  0.1284  0.7075
  406MOL0     H53544   9.361  10.966   4.601 -1.4165 -2.3549  1.1505
  406MOL0     H53545   9.153  10.769   4.501 -4.3935 -2.0252  0.1118
  406MOL0     H53546   8.937  10.668   4.514 -0.8909  0.6346  0.5123
  406MOL0     H53547   8.872  10.633   4.683  1.2045  2.5414  1.8994
  406MOL0     H53548   9.062  10.469   4.706 -4.1918  2.0698  2.3116
  406MOL0     H53549   9.131  10.508   4.555 -0.1635 -0.2261  1.5518
  406MOL0     H53550   8.864  10.366   4.594  0.7237  0.0812  1.5024
  406MOL0     H53551   8.928  10.414   4.429  0.4851  1.4324  0.3926
  406MOL0     H53552   8.970  10.168   4.549 -3.4754  3.5831  3.4745
  406MOL0     H53553   9.105  10.243   4.628  0.6915  0.8574 -0.1998
  406MOL0     H53554   9.220  10.064   4.627 -2.4901 -0.5678 -0.2275
  406MOL0     H53555   9.357   9.880   4.581  1.4626 -0.2194 -0.6551
  406MOL0     H53556   9.816   9.978   4.131  1.3968 -0.5692 -1.4352
  406MOL0     H53557  10.023   9.850   4.072 -0.1272 -3.7701 -2.7826
  406MOL0     H53558  10.021   9.504   4.005  0.3938  0.5968  0.3960
  406MOL0     H53559  10.074   9.426   4.149 -0.2214 -1.5761 -2.0268
  406MOL0     H53560  10.295   9.507   4.114  0.6364 -0.2415 -0.1126
  406MOL0     H53561  10.239   9.550   3.945  0.8331  0.2377  0.7677
  406MOL0     H53562  10.181   9.307   3.903 -2.0319  2.3689 -0.0503
  406MOL0     H53563  10.261   9.272   4.057  0.6510 -0.3939 -1.3899
  406MOL0     H53564  10.390   9.434   3.834 -4.0304 -0.1093  0.2147
  406MOL0     H53565  10.469   9.360   3.978 -1.5317 -1.6951  1.9314
  406MOL0     H53566  10.522   9.223   3.776 -0.5497  2.7902 -0.0798
  406MOL0     H53567  10.349   9.197   3.750  2.7289 -3.0697 -2.6093
  406MOL0     H53568  10.427   8.999   3.865  0.5850 -0.8995  1.4133
  406MOL0     H53569  10.340   9.094   3.986 -0.7618  0.4351 -0.4030
  406MOL0     H53570  10.638   9.103   3.954 -3.1928 -0.2221 -4.2248
  406MOL0     H53571  10.551   9.192   4.074 -1.1621  0.8366 -2.4481
  406MOL0     H53572  10.509   8.891   4.086 -1.8519  1.2887 -0.9880
  406MOL0     H53573  10.472   9.021   4.212  1.7942  1.9339  1.3666
  406MOL0     H53574   9.905   9.522   4.304 -1.1061 -1.2391  0.4688
  406MOL0     H53575   9.676   9.613   4.339  2.2692  0.3700  3.3358
  406MOL0     H53576   9.398  10.004   4.169 -0.7347 -0.9250 -0.6834
  406MOL0     H53577   9.219  10.183   4.213 -3.4989  0.4340  1.4231
  406MOL0     H53578   9.388  11.590   4.843  1.0001  1.5641  1.1508
  406MOL0     H53579   9.542  11.452   4.731  1.5576  1.9314  2.7849
  406MOL0     H53580   9.640  11.110   4.418 -0.8760 -0.5255 -1.4112
  406MOL0     H53581   9.819  11.001   4.311 -4.6771 -0.9216  0.4754
  406MOL0     H53582  10.170  11.239   4.211 -1.6735  1.5678 -1.7559
  406MOL0     H53583  10.127  11.207   4.048  1.4518  0.0039 -1.5448
  406MOL0     H53584  10.230  10.958   4.200 -1.6964  0.6211 -0.5508
  406MOL0     H53585  10.220  10.996   4.030  0.3350 -0.1954 -0.6510
  406MOL0     H53586  10.409  11.125   4.229  1.2419  1.3268 -1.0358
  406MOL0     H53587  10.377  11.188   4.067 -2.0998 -0.7406 -0.6910
  406MOL0     H53588  10.496  10.904   4.118  3.1041  0.1846 -0.1478
  406MOL0     H53589  10.465  10.982   3.959 -0.8646  1.5322  0.6255
  406MOL0     H53590  10.807  11.184   4.110  1.4601 -0.6650 -1.0742
  406MOL0     H53591  10.001  11.368   4.195 -0.9297 -1.8800 -4.4661
  406MOL0     H53592   9.850  11.490   4.331  1.0504 -1.1163  3.7466
  407MOL0     O53593   0.736   8.213   3.341  0.0284  0.3429 -0.6133
  407MOL0     C53594   0.618   8.200   3.322  0.2531 -0.4307  0.1520
  407MOL0     O53595   0.562   8.177   3.196  0.0420  0.5059  0.4240
  407MOL0     C53596   0.636   8.144   3.087  0.6910 -0.6484  0.9250
  407MOL0     C53597   0.769   8.096   3.085  0.2193 -0.4194  0.3704
  407MOL0     C53598   0.827   8.062   2.968  0.2533 -1.0174  0.7243
  407MOL0     C53599   0.755   8.076   2.842  0.5632  0.1464 -0.2528
  407MOL0     O53600   0.823   8.062   2.724  0.6129 -0.3938  0.0889
  407MOL0     C53601   0.926   7.955   2.704  0.2016 -1.1432  0.4456
  407MOL0     C53602   0.858   7.823   2.677  0.1605  0.5886 -0.3122
  407MOL0     C53603   0.967   7.709   2.668 -0.3457  0.2470  0.2552
  407MOL0     C53604   0.913   7.570   2.686  0.5175  0.2164  0.3482
  407MOL0     C53605   0.959   7.521   2.830 -0.5729 -0.9416 -0.0559
  407MOL0     C53606   0.920   7.386   2.845  0.4173 -0.4843  0.2470
  407MOL0     C53607   0.932   7.338   2.988 -0.4877 -0.3731 -1.3776
  407MOL0     C53608   1.070   7.325   3.062  0.0229  0.0472  0.0834
  407MOL0     N53609   1.179   7.255   2.990  0.1589  0.3649 -0.8020
  407MOL0     C53610   1.314   7.290   2.976 -0.7456 -0.7349  1.0515
  407MOL0     C53611   1.386   7.179   2.955 -0.3275 -0.5274  0.9101
  407MOL0     C53612   1.531   7.164   2.942 -0.6251  0.9602 -0.1775
  407MOL0     C53613   1.584   7.121   2.803  0.1354  1.2467 -0.0996
  407MOL0     C53614   1.526   6.981   2.761  0.7695 -0.5799 -0.5933
  407MOL0     C53615   1.584   6.924   2.630 -0.4571  0.3145  0.3361
  407MOL0     O53616   1.559   7.004   2.512 -0.5702  0.0647  0.7109
  407MOL0     C53617   1.584   6.967   2.385  0.1461 -0.0169 -1.1734
  407MOL0     C53618   1.635   6.842   2.355  1.0129  0.0543  0.1891
  407MOL0     C53619   1.640   6.810   2.214  0.7069 -0.1977 -0.7306
  407MOL0     C53620   1.603   6.908   2.120  0.6490 -0.4193  0.5871
  407MOL0     C53621   1.615   6.879   1.972  0.3596 -1.2175  0.3015
  407MOL0     O53622   1.607   6.998   1.895 -0.5463  0.0509  0.1950
  407MOL0     C53623   1.634   7.001   1.759  0.2413  0.8659 -0.4632
  407MOL0     C53624   1.576   6.905   1.673 -0.3141  0.1613  0.2078
  407MOL0     C53625   1.591   6.920   1.535 -0.2605 -1.2736  0.4609
  407MOL0     C53626   1.679   7.012   1.485  0.4971  0.1733  0.4721
  407MOL0     O53627   1.686   7.007   1.350 -0.1717  0.3711  0.2519
  407MOL0     C53628   1.788   7.086   1.293 -0.3291 -0.7569  0.0218
  407MOL0     C53629   1.815   7.065   1.145  0.2973 -0.8070 -0.5108
  407MOL0     C53630   1.888   7.187   1.085 -0.2326  0.0770  0.7457
  407MOL0     C53631   1.863   7.204   0.933  0.0443 -0.1266 -0.3753
  407MOL0     C53632   1.978   7.287   0.867  0.0015  0.0753 -0.1458
  407MOL0     C53633   1.932   7.332   0.731 -0.3033  0.0353  1.3204
  407MOL0     C53634   2.027   7.426   0.655  0.1140  0.7251 -0.5821
  407MOL0     C53635   2.011   7.575   0.685  0.2041  0.4134 -0.7884
  407MOL0    Cl53636   1.857   7.635   0.623 -0.8907  0.2359  0.1010
  407MOL0     C53637   1.740   7.111   1.564 -0.3068 -0.3281 -0.2818
  407MOL0     C53638   1.708   7.107   1.700 -0.6198  0.3020 -0.5285
  407MOL0     O53639   1.663   6.773   1.929 -0.6428  0.2224  0.4994
  407MOL0     C53640   1.550   7.029   2.165  0.2687  0.2712  0.0727
  407MOL0     C53641   1.554   7.066   2.299  0.0085  1.6788 -0.3460
  407MOL0     N53642   1.296   7.075   2.947  0.1430 -0.3867  1.1077
  407MOL0     N53643   1.180   7.116   2.973 -0.3693 -0.5232 -0.1772
  407MOL0     C53644   0.621   8.129   2.853 -0.1729  0.3506  0.2992
  407MOL0     C53645   0.566   8.167   2.969 -0.1394  0.8278 -0.2056
  407MOL0     C53646   0.522   8.255   3.413  0.8143  0.3120 -0.8835
  407MOL0     C53647   0.548   8.243   3.546 -0.0614 -0.1804 -0.7141
  407MOL0     C53648   0.457   8.289   3.645  0.0735  0.3599  0.8134
  407MOL0     C53649   0.339   8.344   3.616  0.0116 -0.6869 -0.9064
  407MOL0     O53650   0.261   8.388   3.724 -0.5823  0.2490 -0.1586
  407MOL0     C53651   0.147   8.475   3.715  1.3931 -0.8769 -0.3669
  407MOL0     C53652   0.121   8.522   3.855  0.5330  0.4044  0.3268
  407MOL0     C53653   0.010   8.628   3.869 -0.0345 -0.1398  0.8493
  407MOL0     C53654   0.022   8.700   3.996  0.3529  0.7385  0.6365
  407MOL0     C53655  -0.090   8.799   3.997 -0.8804 -0.7283  0.0145
  407MOL0     C53656  -0.186   8.884   3.991 -0.7414  0.1952  0.1759
  407MOL0     C53657   0.306   8.365   3.482  0.5473 -0.2085  0.3820
  407MOL0     C53658   0.392   8.319   3.379  0.3905 -0.1673 -0.2820
  407MOL0     H53659   0.818   8.086   3.182  3.1207 -0.1987 -0.9687
  407MOL0     H53660   0.926   8.023   2.949 -0.5515 -1.7442 -2.6739
  407MOL0     H53661   1.002   7.961   2.782 -0.4221  0.7652  0.9714
  407MOL0     H53662   0.977   7.992   2.614 -0.2190 -3.5857 -0.8629
  407MOL0     H53663   0.808   7.834   2.580 -1.0082  1.4424  0.3672
  407MOL0     H53664   0.788   7.816   2.761  2.6344  3.2385  2.1806
  407MOL0     H53665   1.055   7.737   2.727  2.1872  1.6115 -3.7525
  407MOL0     H53666   1.016   7.707   2.570  1.5373  1.9570  1.0858
  407MOL0     H53667   0.804   7.565   2.683  0.4045  2.0682 -0.3005
  407MOL0     H53668   0.940   7.512   2.597 -0.1923 -0.0788  0.3237
  407MOL0     H53669   0.916   7.599   2.893 -0.0762  0.3506 -1.2514
  407MOL0     H53670   1.068   7.520   2.836 -0.4537 -0.9597 -1.7718
  407MOL0     H53671   0.989   7.322   2.789  0.6657 -1.5847  1.7466
  407MOL0     H53672   0.819   7.378   2.806  0.7116  2.1479 -1.3444
  407MOL0     H53673   0.871   7.400   3.055  0.9969 -0.8949  0.5622
  407MOL0     H53674   0.884   7.241   2.999 -0.5523 -0.0734  4.5558
  407MOL0     H53675   1.057   7.272   3.157 -2.9821 -1.0932 -0.8497
  407MOL0     H53676   1.110   7.424   3.088  0.7083  0.4748 -2.3058
  407MOL0     H53677   1.350   7.392   2.973 -5.0565  1.0022  0.4041
  407MOL0     H53678   1.581   7.099   3.014  3.6816 -1.3501 -4.7002
  407MOL0     H53679   1.572   7.264   2.955 -0.1159  1.2960 -3.4256
  407MOL0     H53680   1.692   7.117   2.792 -0.0413  1.2397 -2.0571
  407MOL0     H53681   1.555   7.192   2.726 -0.6827 -1.1144 -2.0941
  407MOL0     H53682   1.539   6.911   2.844 -0.4906 -3.1170 -2.3950
  407MOL0     H53683   1.421   6.998   2.736  0.9959 -2.1306 -2.8991
  407MOL0     H53684   1.539   6.826   2.615  0.3941  0.0716 -0.7992
  407MOL0     H53685   1.692   6.917   2.649 -0.0301 -3.4356 -2.4376
  407MOL0     H53686   1.669   6.761   2.418 -0.5472 -0.4533  0.4268
  407MOL0     H53687   1.666   6.710   2.181 -1.5640 -1.0933  0.0351
  407MOL0     H53688   1.517   6.819   1.704  2.1090 -2.6932 -2.5603
  407MOL0     H53689   1.536   6.845   1.480 -0.7737  0.5679 -1.6769
  407MOL0     H53690   1.883   7.063   1.341  1.5211 -0.5847 -3.2126
  407MOL0     H53691   1.767   7.193   1.309 -0.0436 -0.7089  0.0810
  407MOL0     H53692   1.719   7.039   1.100 -1.3439 -0.0550  2.2866
  407MOL0     H53693   1.878   6.975   1.139  0.7020 -0.5396 -0.3348
  407MOL0     H53694   1.996   7.190   1.102 -0.1121  0.2639 -0.0381
  407MOL0     H53695   1.848   7.276   1.135 -2.4391  3.2459 -5.5382
  407MOL0     H53696   1.846   7.103   0.895 -0.8600 -1.2231  2.6398
  407MOL0     H53697   1.766   7.253   0.922 -0.5149 -1.0077  0.4415
  407MOL0     H53698   2.072   7.233   0.859  1.4361  2.5248 -0.8610
  407MOL0     H53699   1.998   7.374   0.930  0.1995  0.5370 -0.8286
  407MOL0     H53700   1.833   7.378   0.740 -0.2106  0.8738 -1.1973
  407MOL0     H53701   1.913   7.249   0.662  0.6367  2.7560 -2.5299
  407MOL0     H53702   2.129   7.395   0.680  0.2038  1.5394  0.1025
  407MOL0     H53703   2.015   7.415   0.547  1.3563 -1.3811 -0.5836
  407MOL0     H53704   2.097   7.630   0.647  1.9890  0.6925  3.1621
  407MOL0     H53705   2.033   7.595   0.790 -0.3533 -1.8681 -0.1817
  407MOL0     H53706   1.810   7.190   1.539  2.8703 -3.2899 -1.6362
  407MOL0     H53707   1.755   7.184   1.760  0.5512 -0.4319 -0.4614
  407MOL0     H53708   1.505   7.095   2.092 -4.5702 -2.5668  0.0573
  407MOL0     H53709   1.507   7.159   2.330 -3.0425  0.7206 -1.7051
  407MOL0     H53710   0.558   8.117   2.765  0.0424 -0.9984  0.3014
  407MOL0     H53711   0.472   8.219   2.981 -0.6576 -0.0217 -0.5207
  407MOL0     H53712   0.634   8.185   3.578  0.9090  1.4237 -0.3024
  407MOL0     H53713   0.498   8.295   3.745  2.9782  1.1839 -0.3147
  407MOL0     H53714   0.059   8.419   3.683  1.2470 -0.0664 -1.4159
  407MOL0     H53715   0.157   8.567   3.657  0.9035 -0.3100  0.4261
  407MOL0     H53716   0.092   8.439   3.921  1.5561  0.0571  0.3646
  407MOL0     H53717   0.220   8.556   3.887  2.1124 -0.4475 -3.1946
  407MOL0     H53718  -0.086   8.576   3.868  0.7624 -1.7367 -1.4775
  407MOL0     H53719   0.006   8.695   3.782  0.0953 -0.0095  0.9418
  407MOL0     H53720   0.013   8.627   4.078 -1.9266 -0.1721 -0.3416
  407MOL0     H53721   0.122   8.744   3.995  1.2444 -1.1204 -1.5603
  407MOL0     H53722  -0.272   8.946   4.008  0.1911  1.2952  0.9604
  407MOL0     H53723   0.218   8.423   3.456  1.4175  0.3257 -1.5566
  407MOL0     H53724   0.378   8.348   3.275 -1.8582 -2.1408 -0.6060
  408MOL0     O53725   5.425  10.182   6.553 -0.3084  0.3560  0.3885
  408MOL0     C53726   5.323  10.203   6.495 -0.4831  0.5129 -0.2115
  408MOL0     O53727   5.312  10.245   6.370 -0.7099 -0.1278 -0.7498
  408MOL0     C53728   5.416  10.302   6.312 -0.9225  0.0288 -0.6718
  408MOL0     C53729   5.535  10.231   6.281  0.2572 -0.5511 -0.1330
  408MOL0     C53730   5.646  10.296   6.235  0.4586 -0.4075  1.0983
  408MOL0     C53731   5.644  10.422   6.197  0.2604  0.0020  1.5966
  408MOL0     O53732   5.757  10.480   6.137  0.2278  0.2302  0.6300
  408MOL0     C53733   5.837  10.570   6.212  0.3262 -1.1360  0.9700
  408MOL0     C53734   5.864  10.693   6.119 -0.2044  0.0766  0.2313
  408MOL0     C53735   5.971  10.675   6.004  0.1177  0.0257  0.1302
  408MOL0     C53736   6.114  10.687   6.069  0.9618  0.0487 -0.5780
  408MOL0     C53737   6.219  10.756   5.979  1.2938 -0.4366  0.3140
  408MOL0     C53738   6.268  10.674   5.863  0.9023  0.6027 -0.3080
  408MOL0     C53739   6.330  10.754   5.755  0.0797  0.1202 -0.1955
  408MOL0     C53740   6.240  10.838   5.666 -0.2312 -0.4988  0.2060
  408MOL0     N53741   6.149  10.755   5.588  0.2056 -0.1014  0.5909
  408MOL0     C53742   6.022  10.712   5.622 -0.0114  0.5442  0.1923
  408MOL0     C53743   5.974  10.650   5.508  0.7820  0.1369 -0.2468
  408MOL0     C53744   5.846  10.572   5.487 -0.7942  0.9961  0.5916
  408MOL0     C53745   5.798  10.502   5.612  0.2359  0.8335 -0.9067
  408MOL0     C53746   5.681  10.408   5.592 -0.4221 -0.0364  0.5790
  408MOL0     C53747   5.619  10.358   5.727 -0.3040 -0.3650 -0.1974
  408MOL0     O53748   5.530  10.462   5.769  0.1543 -0.1674  0.0766
  408MOL0     C53749   5.417  10.423   5.847 -0.5156  0.5592  0.2804
  408MOL0     C53750   5.419  10.322   5.948  0.1637 -0.6827  0.3272
  408MOL0     C53751   5.310  10.291   6.029 -0.4159  0.8587 -0.7332
  408MOL0     C53752   5.189  10.357   6.006 -0.2623 -0.8653 -0.2437
  408MOL0     C53753   5.069  10.326   6.076 -0.8627 -0.3543  0.3439
  408MOL0     O53754   4.974  10.422   6.083  0.0876  0.4601  0.0915
  408MOL0     C53755   4.874  10.397   6.175 -1.0121 -0.1680  0.4882
  408MOL0     C53756   4.742  10.410   6.126 -0.1065 -0.0913 -0.1072
  408MOL0     C53757   4.633  10.412   6.217 -0.4305  0.4810 -0.3863
  408MOL0     C53758   4.649  10.388   6.357  0.3251  0.0265  0.1696
  408MOL0     O53759   4.542  10.394   6.438 -0.3815 -0.2171 -0.8861
  408MOL0     C53760   4.440  10.488   6.421  0.0018  0.0072 -0.4628
  408MOL0     C53761   4.387  10.542   6.547 -0.8454  0.2035 -0.5031
  408MOL0     C53762   4.269  10.630   6.516  0.2057  0.8272  0.3600
  408MOL0     C53763   4.202  10.679   6.646 -0.3605  1.1108 -0.4877
  408MOL0     C53764   4.095  10.782   6.607 -0.0792 -0.9409  0.5749
  408MOL0     C53765   4.006  10.822   6.728 -0.4770 -0.5495  0.3536
  408MOL0     C53766   3.919  10.958   6.703  0.3333 -0.6009  0.1602
  408MOL0     C53767   4.011  11.078   6.668 -0.6985 -0.2285  0.0891
  408MOL0    Cl53768   4.141  11.097   6.794 -0.0716  0.4218  0.4351
  408MOL0     C53769   4.778  10.358   6.404 -0.0038  0.2832  0.3436
  408MOL0     C53770   4.895  10.368   6.317  0.9529 -0.2278  1.0147
  408MOL0     O53771   5.057  10.214   6.119  0.5396  0.9977 -0.7724
  408MOL0     C53772   5.188  10.461   5.916  0.3944  0.0100 -0.0237
  408MOL0     C53773   5.296  10.488   5.838 -0.1219  0.2757 -0.2270
  408MOL0     N53774   6.053  10.692   5.400 -0.3125  0.7520 -0.1082
  408MOL0     N53775   6.153  10.745   5.452  0.2156  0.0663 -0.4047
  408MOL0     C53776   5.533  10.504   6.219 -0.2267 -0.1372 -0.5211
  408MOL0     C53777   5.416  10.442   6.283  0.0288 -0.1863 -0.2087
  408MOL0     C53778   5.199  10.166   6.561  0.3240  0.0190 -0.4092
  408MOL0     C53779   5.195  10.158   6.700  0.2420  0.5473  0.2828
  408MOL0     C53780   5.085  10.102   6.764  0.4042 -0.2841 -0.1392
  408MOL0     C53781   4.960  10.074   6.704 -0.1519 -0.5311  0.6040
  408MOL0     O53782   4.852  10.031   6.777  0.4133  0.3406 -0.2822
  408MOL0     C53783   4.872   9.904   6.854  0.3720  0.0690 -0.0705
  408MOL0     C53784   4.832   9.943   6.989  0.0244  0.2246  0.6468
  408MOL0     C53785   4.679   9.954   7.004 -0.2733 -0.0735 -0.6048
  408MOL0     C53786   4.621   9.801   7.019 -0.1680 -0.2784  0.0315
  408MOL0     C53787   4.476   9.806   7.022  0.6323  0.1875  0.1734
  408MOL0     C53788   4.357   9.823   7.035  0.0581 -0.1336 -0.5037
  408MOL0     C53789   4.964  10.090   6.567 -0.5054 -0.3469 -0.1586
  408MOL0     C53790   5.080  10.119   6.498  0.1832  0.5786  0.4168
  408MOL0     H53791   5.544  10.125   6.303 -0.0070 -1.2168 -2.8136
  408MOL0     H53792   5.738  10.242   6.218  0.5270 -0.0211  0.1739
  408MOL0     H53793   5.933  10.524   6.240  2.8708  2.1623 -1.4917
  408MOL0     H53794   5.777  10.608   6.296 -0.8343 -0.3809 -0.1675
  408MOL0     H53795   5.910  10.771   6.181  0.5028  0.9005 -1.2587
  408MOL0     H53796   5.765  10.716   6.079 -0.3524 -1.5401 -0.4210
  408MOL0     H53797   5.957  10.759   5.935  2.3008  0.8468  0.6061
  408MOL0     H53798   5.946  10.579   5.957 -0.3379  1.3020 -2.4357
  408MOL0     H53799   6.108  10.742   6.163 -0.9111  0.2347 -0.7657
  408MOL0     H53800   6.148  10.583   6.081  0.6483 -0.2016 -1.7277
  408MOL0     H53801   6.303  10.795   6.037 -0.1923  0.4799  1.9575
  408MOL0     H53802   6.170  10.848   5.945  3.6670  0.1215 -1.8792
  408MOL0     H53803   6.184  10.623   5.814  1.3532 -0.5272  0.0490
  408MOL0     H53804   6.337  10.596   5.898 -1.4344 -0.8286  1.4547
  408MOL0     H53805   6.393  10.827   5.806 -2.9521  1.4614  1.8949
  408MOL0     H53806   6.393  10.692   5.690 -1.9601 -1.9622 -0.3175
  408MOL0     H53807   6.304  10.901   5.603 -1.3812 -1.5070 -2.0847
  408MOL0     H53808   6.184  10.907   5.730 -0.3271  0.7556 -1.1640
  408MOL0     H53809   5.974  10.721   5.719  0.9477 -0.2576  0.7545
  408MOL0     H53810   5.871  10.496   5.412  1.8245  2.2205  0.0978
  408MOL0     H53811   5.783  10.651   5.445 -0.9039  0.8913  0.5593
  408MOL0     H53812   5.770  10.583   5.679 -1.3064 -0.2008 -0.2399
  408MOL0     H53813   5.886  10.445   5.645 -0.1583 -0.2940 -1.7167
  408MOL0     H53814   5.608  10.443   5.518  1.1122  2.3185  0.0536
  408MOL0     H53815   5.726  10.317   5.551  1.5442  1.3829 -0.5719
  408MOL0     H53816   5.689  10.341   5.808 -0.8244  0.8468  0.5445
  408MOL0     H53817   5.570  10.262   5.711 -2.2304  0.1323  2.1335
  408MOL0     H53818   5.510  10.267   5.970  0.3325  0.4445  2.8869
  408MOL0     H53819   5.322  10.211   6.101 -0.4403  0.5122 -1.1066
  408MOL0     H53820   4.722  10.434   6.022 -3.3977 -4.2256 -0.6705
  408MOL0     H53821   4.539  10.429   6.166 -0.6709 -0.5811 -0.3183
  408MOL0     H53822   4.356  10.448   6.363 -0.7698 -0.0550  0.6449
  408MOL0     H53823   4.471  10.568   6.354 -0.9541 -0.1894 -1.1677
  408MOL0     H53824   4.459  10.600   6.605 -0.1713 -2.7361  1.8767
  408MOL0     H53825   4.340  10.458   6.599 -0.7168 -0.4197 -1.3754
  408MOL0     H53826   4.195  10.577   6.455 -0.1341  0.9372  0.6755
  408MOL0     H53827   4.305  10.706   6.445  3.4977  0.9251  1.9411
  408MOL0     H53828   4.153  10.588   6.680  2.3235 -0.6878 -1.1451
  408MOL0     H53829   4.274  10.716   6.720 -3.1769  2.3333  1.9086
  408MOL0     H53830   4.037  10.744   6.523 -1.8732  1.7159  0.4726
  408MOL0     H53831   4.156  10.865   6.571 -2.5184  0.1342 -1.3768
  408MOL0     H53832   4.074  10.832   6.814 -0.0789 -1.2554  0.1302
  408MOL0     H53833   3.935  10.741   6.747  0.6515 -1.3024  1.5004
  408MOL0     H53834   3.851  10.938   6.620 -0.0264 -0.8672  0.5198
  408MOL0     H53835   3.857  10.977   6.791 -0.3264 -2.0773  0.0412
  408MOL0     H53836   3.951  11.170   6.660  1.7432  1.3963 -0.6930
  408MOL0     H53837   4.061  11.066   6.571  1.5168  0.4545  1.0809
  408MOL0     H53838   4.798  10.333   6.508  0.6148  0.5943  0.3075
  408MOL0     H53839   4.995  10.350   6.356  1.1909 -0.1563  0.4426
  408MOL0     H53840   5.108  10.525   5.878 -0.1599 -0.7184 -0.1098
  408MOL0     H53841   5.296  10.567   5.764 -2.0745 -0.0469 -0.6233
  408MOL0     H53842   5.526  10.607   6.182 -3.7292 -0.7420 -1.9224
  408MOL0     H53843   5.329  10.506   6.301  0.6251  0.4010  0.7050
  408MOL0     H53844   5.283  10.171   6.761  0.0013  1.9126  0.3811
  408MOL0     H53845   5.080  10.077   6.870 -0.7720 -1.5481 -0.4770
  408MOL0     H53846   4.976   9.872   6.843 -0.5268 -2.3442 -2.3853
  408MOL0     H53847   4.820   9.813   6.825  2.1177 -1.4002  1.1685
  408MOL0     H53848   4.888   9.883   7.062  0.4059 -0.1293  0.0722
  408MOL0     H53849   4.871  10.045   7.004  3.4470 -0.4281 -2.3274
  408MOL0     H53850   4.631  10.004   6.920  1.5841  2.3730 -0.3359
  408MOL0     H53851   4.662   9.996   7.103  0.2220 -1.8213  0.2649
  408MOL0     H53852   4.650   9.738   6.934  1.5878  1.8248 -1.0323
  408MOL0     H53853   4.670   9.763   7.110  1.1976 -1.3437 -1.1054
  408MOL0     H53854   4.251   9.833   7.048  0.3893  0.6696  2.2294
  408MOL0     H53855   4.866  10.069   6.525 -0.6156 -0.9014  0.3719
  408MOL0     H53856   5.079  10.142   6.392  0.8735  0.0813  0.2978
  409MOL0     O53857  10.947   9.055  10.618 -0.4180  0.3688 -0.1091
  409MOL0     C53858  10.843   9.091  10.666 -0.3663  0.1663  0.1493
  409MOL0     O53859  10.815   9.108  10.793  1.1298  0.4886 -0.0590
  409MOL0     C53860  10.919   9.102  10.880 -0.2772  0.7802 -0.3759
  409MOL0     C53861  11.025   9.005  10.889 -0.0540  0.1889  0.0676
  409MOL0     C53862  11.135   9.021  10.972 -0.0525 -0.1431  0.2384
  409MOL0     C53863  11.155   9.134  11.057 -0.5757 -0.0119 -0.2835
  409MOL0     O53864  11.254   9.157  11.136  0.3435 -1.2211 -0.1791
  409MOL0     C53865  11.382   9.136  11.067  0.4849  0.6773 -0.9083
  409MOL0     C53866  11.499   9.218  11.146  0.5433  1.4542 -0.3032
  409MOL0     C53867  11.645   9.163  11.124 -0.3203 -0.1953  0.0154
  409MOL0     C53868  11.735   9.225  11.226 -0.6202  0.1135  0.3914
  409MOL0     C53869  11.875   9.196  11.180 -0.4214  1.0301 -0.4412
  409MOL0     C53870  11.997   9.224  11.268  0.6843 -0.1471  0.1891
  409MOL0     C53871  11.989   9.379  11.291 -0.3035  0.7175 -0.2015
  409MOL0     C53872  12.097   9.420  11.392  0.7663 -0.1232 -0.2669
  409MOL0     N53873  12.227   9.392  11.347 -0.7692 -0.3773  0.5456
  409MOL0     C53874  12.284   9.456  11.235  0.2469  0.4311  0.1201
  409MOL0     C53875  12.406   9.386  11.225 -0.4455 -0.6097  0.1651
  409MOL0     C53876  12.521   9.409  11.121  0.5263  0.2570  1.0841
  409MOL0     C53877  12.655   9.436  11.175 -0.9189 -0.2914 -0.1714
  409MOL0     C53878  12.693   9.379  11.308  0.3904 -0.4008 -0.6223
  409MOL0     C53879  12.846   9.391  11.336 -0.7639 -0.1883 -0.5543
  409MOL0     O53880  12.914   9.522  11.324 -0.2306 -0.1847  0.1707
  409MOL0     C53881  13.048   9.527  11.344  0.2830 -0.1739 -0.2274
  409MOL0     C53882  13.114   9.638  11.294  0.2903  0.5122 -0.0695
  409MOL0     C53883  13.259   9.650  11.290  0.4594  0.0385  0.9052
  409MOL0     C53884  13.338   9.557  11.354  0.2517 -0.6837 -0.2491
  409MOL0     C53885  13.486   9.576  11.371 -0.3399  0.1031 -0.1192
  409MOL0     O53886  13.545   9.487  11.444 -0.3893 -0.5540  0.7447
  409MOL0     C53887  13.681   9.510  11.451 -0.5536  0.1513 -0.6763
  409MOL0     C53888  13.729   9.602  11.546 -0.2677  0.4645  0.0242
  409MOL0     C53889  13.871   9.604  11.567  0.5694 -0.5787  0.2653
  409MOL0     C53890  13.966   9.531  11.487  0.8394  0.9503  0.6143
  409MOL0     O53891  14.104   9.563  11.503  0.1419 -0.1557 -0.5617
  409MOL0     C53892  14.169   9.598  11.382 -0.8879 -0.3498 -0.6693
  409MOL0     C53893  14.320   9.610  11.399 -0.4287  0.6979  0.3127
  409MOL0     C53894  14.389   9.476  11.357  0.2881  0.9095  0.4549
  409MOL0     C53895  14.532   9.468  11.397 -0.9258 -0.0254 -0.7692
  409MOL0     C53896  14.606   9.341  11.355 -0.8537 -0.6392  0.1758
  409MOL0     C53897  14.599   9.295  11.208  0.2298  0.2862 -0.0618
  409MOL0     C53898  14.714   9.204  11.173  0.5618  0.0485 -0.2414
  409MOL0     C53899  14.717   9.162  11.027  0.5688  0.8092  0.2850
  409MOL0    Cl53900  14.884   9.150  10.987  0.1372  0.2463  0.5179
  409MOL0     C53901  13.911   9.439  11.386 -0.4113 -0.4652  0.1394
  409MOL0     C53902  13.772   9.432  11.370  1.3112  0.0604 -1.1030
  409MOL0     O53903  13.542   9.671  11.312  0.4338 -0.1449  0.4366
  409MOL0     C53904  13.268   9.451  11.416  0.7045 -0.9665  0.8044
  409MOL0     C53905  13.132   9.435  11.403 -0.4546  0.3513  0.5346
  409MOL0     N53906  12.415   9.294  11.326  0.6302 -0.5022 -0.3926
  409MOL0     N53907  12.313   9.299  11.400  0.5144  0.0686 -0.4147
  409MOL0     C53908  11.049   9.224  11.054 -1.3488 -0.0909 -0.1100
  409MOL0     C53909  10.926   9.203  10.974  0.3521  0.3537 -1.6140
  409MOL0     C53910  10.718   9.097  10.577  0.5908  0.1596 -0.4576
  409MOL0     C53911  10.612   9.188  10.608  0.2241  0.0807  0.2820
  409MOL0     C53912  10.511   9.205  10.512  1.2343  0.2337 -0.3975
  409MOL0     C53913  10.498   9.118  10.408 -0.4686  0.3169  0.7127
  409MOL0     O53914  10.399   9.124  10.307 -0.3891  0.2212  0.0195
  409MOL0     C53915  10.273   9.065  10.327  0.1861 -0.4541  0.3279
  409MOL0     C53916  10.174   9.164  10.382  0.2752 -0.5917  0.0593
  409MOL0     C53917  10.030   9.102  10.391  0.2845  0.4062 -0.0376
  409MOL0     C53918   9.991   9.015  10.513  0.5478 -0.3221  0.0161
  409MOL0     C53919   9.841   9.004  10.526  0.3437 -0.3894 -0.6290
  409MOL0     C53920   9.721   9.000  10.527  0.4572 -0.4095  0.1086
  409MOL0     C53921  10.593   9.023  10.388  0.1631  0.1948 -0.4338
  409MOL0     C53922  10.707   9.016  10.469 -0.5609  0.4522 -0.7555
  409MOL0     H53923  11.023   8.911  10.835  1.8988  0.8341 -1.2604
  409MOL0     H53924  11.211   8.947  10.950 -0.5971 -0.7754  0.4733
  409MOL0     H53925  11.367   9.158  10.961  0.6904 -1.2117 -1.3518
  409MOL0     H53926  11.403   9.029  11.076 -1.1887  0.3340 -0.6768
  409MOL0     H53927  11.471   9.212  11.251  1.7079 -6.0290  0.1197
  409MOL0     H53928  11.487   9.326  11.128 -2.9463  0.9562 -1.8247
  409MOL0     H53929  11.675   9.180  11.020  2.2486  1.3611  0.9043
  409MOL0     H53930  11.649   9.056  11.143 -2.5069  0.0522  2.4656
  409MOL0     H53931  11.723   9.334  11.234  2.5940  0.4384  4.2645
  409MOL0     H53932  11.722   9.182  11.326 -0.1978  0.7385  0.7276
  409MOL0     H53933  11.901   9.260  11.096  0.8691 -0.3834 -1.1777
  409MOL0     H53934  11.867   9.096  11.137 -1.4466  2.3545 -3.6085
  409MOL0     H53935  12.092   9.196  11.220  1.4631 -0.4312  1.8080
  409MOL0     H53936  11.985   9.177  11.366  1.0724  1.3034  0.9590
  409MOL0     H53937  11.987   9.434  11.196 -0.3588 -0.2645 -0.7741
  409MOL0     H53938  11.891   9.397  11.336  0.2965  0.9878  1.0463
  409MOL0     H53939  12.090   9.366  11.487  3.6249 -1.4725 -0.7142
  409MOL0     H53940  12.081   9.527  11.410 -0.7377 -0.0532 -1.7071
  409MOL0     H53941  12.239   9.530  11.169 -4.6366 -2.8898 -0.8649
  409MOL0     H53942  12.491   9.494  11.059  2.5740  1.2508  1.3899
  409MOL0     H53943  12.527   9.325  11.052 -3.5218  0.7112 -0.1161
  409MOL0     H53944  12.665   9.545  11.179  5.5511 -0.5798  1.6257
  409MOL0     H53945  12.725   9.410  11.095 -0.2767  2.3647 -0.5866
  409MOL0     H53946  12.641   9.435  11.386  0.1809 -0.3228 -0.8164
  409MOL0     H53947  12.657   9.277  11.322 -0.7674  0.2798  1.9091
  409MOL0     H53948  12.901   9.318  11.275 -0.7419 -0.8728  0.2709
  409MOL0     H53949  12.853   9.364  11.442  0.8927  2.4222  0.0949
  409MOL0     H53950  13.059   9.707  11.232 -0.9945 -1.8508 -1.6811
  409MOL0     H53951  13.297   9.737  11.238  1.0404 -0.7254  0.0049
  409MOL0     H53952  13.658   9.669  11.593 -1.1162 -0.5594  0.2467
  409MOL0     H53953  13.912   9.670  11.642  0.3218 -0.7497  0.5574
  409MOL0     H53954  14.136   9.701  11.361  2.0221  0.9681  0.6848
  409MOL0     H53955  14.150   9.531  11.298  1.0952 -1.9253  0.0690
  409MOL0     H53956  14.357   9.636  11.498 -1.7049 -1.2589  1.3676
  409MOL0     H53957  14.358   9.685  11.329 -0.9485  1.3504  0.7161
  409MOL0     H53958  14.377   9.448  11.252 -0.8177  0.0892  0.7900
  409MOL0     H53959  14.337   9.394  11.407 -1.0230  1.6260  0.3271
  409MOL0     H53960  14.581   9.551  11.345  0.1849 -0.7968 -0.9824
  409MOL0     H53961  14.545   9.480  11.505 -3.6302  2.7527 -0.6161
  409MOL0     H53962  14.586   9.264  11.430 -0.3803  1.6816  2.8566
  409MOL0     H53963  14.711   9.370  11.363 -1.5955  3.6126 -2.2484
  409MOL0     H53964  14.605   9.381  11.140 -2.7723  0.3500 -0.3776
  409MOL0     H53965  14.509   9.239  11.184  2.0031 -1.4895 -3.2338
  409MOL0     H53966  14.809   9.246  11.208 -0.3564  0.6685  1.6600
  409MOL0     H53967  14.712   9.116  11.237  0.8585  1.3830  1.6776
  409MOL0     H53968  14.674   9.243  10.968  1.9889  1.2718 -0.1746
  409MOL0     H53969  14.654   9.074  11.015  0.0035  1.0444  1.3973
  409MOL0     H53970  13.979   9.374  11.331  4.1333  1.2196  3.1268
  409MOL0     H53971  13.734   9.377  11.285 -0.5768 -0.1946 -0.1499
  409MOL0     H53972  13.312   9.375  11.480 -0.5826 -0.9021  1.8015
  409MOL0     H53973  13.096   9.338  11.437  0.4039 -1.0554 -2.1948
  409MOL0     H53974  11.057   9.311  11.118 -0.0575  0.3865 -0.8897
  409MOL0     H53975  10.848   9.278  10.983  0.3996  0.1830  1.4284
  409MOL0     H53976  10.630   9.242  10.700  2.3812  0.3904 -0.2573
  409MOL0     H53977  10.444   9.289  10.528  0.8482  0.1952 -1.6485
  409MOL0     H53978  10.282   8.980  10.395 -1.3783 -2.2232 -1.5579
  409MOL0     H53979  10.235   9.039  10.228 -2.4433  4.5121 -0.2451
  409MOL0     H53980  10.204   9.195  10.482 -0.5736 -0.3755  0.2529
  409MOL0     H53981  10.167   9.253  10.319 -1.1143  0.4385  1.6003
  409MOL0     H53982  10.026   9.027  10.312 -1.7791  0.3728  0.0414
  409MOL0     H53983   9.954   9.180  10.380  0.3104  0.3783 -0.3960
  409MOL0     H53984  10.046   8.921  10.500 -0.7226 -1.0897 -0.0038
  409MOL0     H53985  10.025   9.055  10.609 -1.7246 -0.6974  1.0430
  409MOL0     H53986   9.614   9.004  10.519  0.4745 -1.1441 -0.6298
  409MOL0     H53987  10.588   8.979  10.289  3.5325 -0.6905 -0.3351
  409MOL0     H53988  10.788   8.945  10.452 -1.3003 -1.0523  1.5275
  410MOL0     O53989   7.090   8.927   6.667  0.6059 -0.1276 -0.8348
  410MOL0     C53990   7.195   8.863   6.673 -0.8843 -0.8107 -0.5616
  410MOL0     O53991   7.245   8.798   6.781 -0.0604  0.9162  0.2196
  410MOL0     C53992   7.192   8.799   6.906  0.1524 -0.1694  0.8950
  410MOL0     C53993   7.060   8.778   6.920 -0.1564 -0.2496  0.4745
  410MOL0     C53994   6.990   8.781   7.044 -0.4251  0.2367  0.6261
  410MOL0     C53995   7.061   8.796   7.164 -0.5400 -0.4829  1.0480
  410MOL0     O53996   7.003   8.789   7.282  0.3507  0.1257 -0.4742
  410MOL0     C53997   6.858   8.789   7.288 -1.0966 -0.2043  0.5773
  410MOL0     C53998   6.805   8.818   7.438  0.0202 -0.4072  1.1913
  410MOL0     C53999   6.660   8.858   7.442  0.2594  0.0729 -0.1875
  410MOL0     C54000   6.607   8.880   7.590 -0.4326  0.8119 -0.3980
  410MOL0     C54001   6.496   8.980   7.590 -0.0211 -0.0214  0.0080
  410MOL0     C54002   6.520   9.129   7.565  0.2570 -0.5122 -0.6200
  410MOL0     C54003   6.588   9.198   7.684  0.5428  0.4048 -0.0793
  410MOL0     C54004   6.604   9.341   7.659  0.3007 -0.6478 -0.6019
  410MOL0     N54005   6.669   9.403   7.777  0.3067 -0.3905 -0.3116
  410MOL0     C54006   6.795   9.466   7.784 -0.5917  0.2328 -0.3160
  410MOL0     C54007   6.804   9.522   7.907  0.0213 -0.8750 -0.3868
  410MOL0     C54008   6.924   9.618   7.945 -0.5825  0.8652 -0.0743
  410MOL0     C54009   6.880   9.719   8.053 -0.4521 -0.0627 -0.0689
  410MOL0     C54010   6.995   9.789   8.117  1.0746  0.8274  0.5443
  410MOL0     C54011   7.070   9.900   8.046  0.2774  0.7335  0.3052
  410MOL0     O54012   6.977  10.007   8.029 -0.4891  0.2456  0.4072
  410MOL0     C54013   7.037  10.136   8.034 -0.3039  0.2679  0.1132
  410MOL0     C54014   7.177  10.162   8.033 -0.3618 -0.3619 -1.1513
  410MOL0     C54015   7.227  10.292   8.027 -1.2868  0.0064 -0.1171
  410MOL0     C54016   7.146  10.410   8.031 -0.7796  0.1121  0.3273
  410MOL0     C54017   7.213  10.535   8.019  0.8008 -0.2427  0.0553
  410MOL0     O54018   7.351  10.541   8.024  0.0991 -1.5358  0.4883
  410MOL0     C54019   7.400  10.642   7.944 -0.3080  0.1664 -0.5816
  410MOL0     C54020   7.456  10.626   7.819  0.6590 -0.0232  0.5377
  410MOL0     C54021   7.523  10.727   7.747  0.0509 -0.4109  0.4142
  410MOL0     C54022   7.534  10.868   7.803 -0.0544  0.2352 -0.1895
  410MOL0     O54023   7.588  10.970   7.730  0.1140 -0.2470 -0.1131
  410MOL0     C54024   7.692  10.929   7.635 -0.9190  0.0681  0.1241
  410MOL0     C54025   7.739  11.059   7.574 -0.5355  0.1025  1.1881
  410MOL0     C54026   7.843  11.036   7.454  0.1375 -0.1695 -0.0943
  410MOL0     C54027   7.849  11.171   7.366  0.1249 -1.2091 -0.4775
  410MOL0     C54028   7.973  11.253   7.378  0.0158 -0.0160 -0.3659
  410MOL0     C54029   7.969  11.337   7.507  0.3348  0.2005  1.0513
  410MOL0     C54030   8.109  11.398   7.531  1.0516 -0.2989  0.3013
  410MOL0     C54031   8.096  11.526   7.606  0.3604 -0.1113 -0.4369
  410MOL0    Cl54032   8.022  11.478   7.765  0.1972 -0.5160  0.8583
  410MOL0     C54033   7.463  10.888   7.926 -0.3594  0.7022  0.8914
  410MOL0     C54034   7.409  10.777   7.991  0.8081  0.5404 -0.5033
  410MOL0     O54035   7.131  10.629   8.014 -0.5896  0.1393 -0.0755
  410MOL0     C54036   7.011  10.388   8.028 -0.8139  0.6588 -0.1100
  410MOL0     C54037   6.958  10.249   8.022  0.2567  0.8706 -0.1861
  410MOL0     N54038   6.689   9.488   7.973  0.7509  0.2294 -0.0048
  410MOL0     N54039   6.613   9.404   7.903 -0.0554 -0.5461 -0.0976
  410MOL0     C54040   7.207   8.805   7.142 -0.5789  0.1705  0.8291
  410MOL0     C54041   7.271   8.812   7.020  0.8109  0.0014 -0.6571
  410MOL0     C54042   7.268   8.857   6.546 -0.6621  0.7343  0.1367
  410MOL0     C54043   7.260   8.962   6.443  0.2790 -0.2999 -0.1791
  410MOL0     C54044   7.354   8.964   6.334  0.3075 -0.4676  0.0976
  410MOL0     C54045   7.442   8.857   6.310 -0.4521 -1.2291 -0.0982
  410MOL0     O54046   7.530   8.870   6.205  0.1889  0.7486 -1.2659
  410MOL0     C54047   7.664   8.878   6.253  0.3495  0.7460  0.4112
  410MOL0     C54048   7.710   9.017   6.290  0.2856  0.2891  0.0743
  410MOL0     C54049   7.860   9.050   6.284  0.1286 -0.3808 -0.7274
  410MOL0     C54050   7.945   8.983   6.396  0.5185  0.1561  0.7519
  410MOL0     C54051   8.083   8.968   6.341 -0.4946 -0.8710 -0.3315
  410MOL0     C54052   8.190   8.962   6.279  0.4386 -0.3421  0.4192
  410MOL0     C54053   7.443   8.749   6.408  1.2685 -0.4989  0.3861
  410MOL0     C54054   7.351   8.746   6.518  0.3757 -0.5569 -0.1823
  410MOL0     H54055   6.999   8.765   6.831 -0.7287 -2.6096  1.1232
  410MOL0     H54056   6.883   8.764   7.043 -0.1827 -1.8305  2.3084
  410MOL0     H54057   6.821   8.687   7.272 -2.3295  0.3266 -0.0625
  410MOL0     H54058   6.813   8.857   7.216 -0.8135 -3.5558 -3.1216
  410MOL0     H54059   6.862   8.898   7.485  1.6533 -0.1212 -1.0871
  410MOL0     H54060   6.809   8.723   7.492 -1.3649 -0.7009  0.8099
  410MOL0     H54061   6.591   8.801   7.379  0.0840  1.0204 -0.8899
  410MOL0     H54062   6.669   8.957   7.396  1.0693 -0.2069 -0.6408
  410MOL0     H54063   6.561   8.784   7.617 -1.9254  0.9265 -2.3160
  410MOL0     H54064   6.682   8.907   7.664  1.5775 -0.4689 -1.8565
  410MOL0     H54065   6.463   8.969   7.693  2.6065  1.6899  1.1296
  410MOL0     H54066   6.412   8.936   7.535  0.2617 -0.2698 -0.2316
  410MOL0     H54067   6.420   9.164   7.539  1.5230  2.0127 -2.6174
  410MOL0     H54068   6.576   9.155   7.475 -2.2039  1.2844 -1.7475
  410MOL0     H54069   6.535   9.180   7.778  1.4145 -0.8685  0.2036
  410MOL0     H54070   6.687   9.154   7.702  0.3085 -0.5866 -1.1143
  410MOL0     H54071   6.506   9.386   7.641  0.0323 -1.5303 -1.4431
  410MOL0     H54072   6.667   9.345   7.569  0.2512 -2.8455 -0.7926
  410MOL0     H54073   6.858   9.457   7.696 -0.0103 -0.3789  0.1572
  410MOL0     H54074   6.961   9.676   7.860 -1.0310  1.8775  0.4061
  410MOL0     H54075   7.006   9.564   7.992  0.2423  2.7901  0.7982
  410MOL0     H54076   6.815   9.681   8.132  0.1763  1.8814  1.4635
  410MOL0     H54077   6.820   9.793   7.999 -0.0139 -0.1436 -0.6727
  410MOL0     H54078   6.963   9.832   8.213 -1.4955 -0.1536  0.2080
  410MOL0     H54079   7.077   9.720   8.137  0.5239 -0.4175 -1.2332
  410MOL0     H54080   7.100   9.871   7.945 -1.2100  0.3420 -0.0512
  410MOL0     H54081   7.154   9.925   8.111 -0.0520 -0.1393  1.0885
  410MOL0     H54082   7.256  10.088   8.041 -0.9884 -1.7112 -5.3177
  410MOL0     H54083   7.334  10.300   8.044 -1.0505 -1.3470 -0.8216
  410MOL0     H54084   7.459  10.532   7.764 -0.8667  0.2062  0.0131
  410MOL0     H54085   7.584  10.695   7.663 -1.9438  0.0794 -1.3162
  410MOL0     H54086   7.649  10.880   7.548  0.8216  0.6861 -1.1280
  410MOL0     H54087   7.768  10.877   7.694  0.1704  0.8754 -0.5326
  410MOL0     H54088   7.792  11.113   7.653  2.0875 -0.9042  0.2516
  410MOL0     H54089   7.651  11.110   7.536 -1.6339 -1.3757  1.6550
  410MOL0     H54090   7.812  10.951   7.392  1.2375 -1.7034  1.3747
  410MOL0     H54091   7.941  11.007   7.493 -0.5085 -2.5517 -0.0487
  410MOL0     H54092   7.816  11.157   7.263 -0.7407 -1.1604 -0.2188
  410MOL0     H54093   7.756  11.220   7.395 -1.0102 -3.6623  0.2669
  410MOL0     H54094   7.975  11.310   7.284 -0.0739  0.8909  0.1742
  410MOL0     H54095   8.061  11.188   7.385  1.1923  1.6882  5.5419
  410MOL0     H54096   7.935  11.270   7.586 -1.0413 -0.5429 -0.1335
  410MOL0     H54097   7.895  11.418   7.500 -1.5850 -1.5065  0.7387
  410MOL0     H54098   8.164  11.329   7.597  0.5632 -1.0943 -0.1042
  410MOL0     H54099   8.161  11.415   7.436  0.9000  1.2455  0.4731
  410MOL0     H54100   8.034  11.595   7.549 -1.4021 -1.5549 -0.3781
  410MOL0     H54101   8.194  11.571   7.626 -0.8999  2.1083  1.1000
  410MOL0     H54102   7.471  10.989   7.964  3.9234  2.0811 -2.7856
  410MOL0     H54103   7.374  10.784   8.094 -3.0853 -2.3200 -1.3883
  410MOL0     H54104   6.949  10.475   8.008  1.1629  1.5605 -2.9478
  410MOL0     H54105   6.852  10.232   8.008  0.7393 -0.2299 -3.1584
  410MOL0     H54106   7.280   8.813   7.222  2.9656  5.1092 -2.3392
  410MOL0     H54107   7.378   8.821   7.004  1.0273 -1.5077 -0.2105
  410MOL0     H54108   7.206   9.052   6.467  2.6921  1.0584  0.4805
  410MOL0     H54109   7.339   9.050   6.270  0.8335 -0.2472  0.2630
  410MOL0     H54110   7.732   8.852   6.171 -1.0216  0.4076 -0.6457
  410MOL0     H54111   7.695   8.813   6.336 -0.1003 -3.3762 -2.3910
  410MOL0     H54112   7.647   9.081   6.228 -0.1118 -2.1626 -2.2722
  410MOL0     H54113   7.690   9.029   6.397 -2.5252 -5.3478  0.5386
  410MOL0     H54114   7.877   9.157   6.295 -1.0304 -0.4599  3.1316
  410MOL0     H54115   7.886   9.025   6.180 -3.5986  3.0916 -2.7847
  410MOL0     H54116   7.942   9.047   6.484 -0.1476  3.4046 -1.4485
  410MOL0     H54117   7.911   8.882   6.421  0.6109 -0.8211 -2.5244
  410MOL0     H54118   8.275   8.960   6.214 -1.2336  1.2935 -1.9773
  410MOL0     H54119   7.514   8.667   6.403 -0.1444 -1.9091  2.2718
  410MOL0     H54120   7.358   8.662   6.586 -1.9256 -0.3047  0.4786
  411MOL0     O54121   6.394   2.370   2.717  0.1703 -0.3944 -0.2747
  411MOL0     C54122   6.507   2.398   2.676  0.0978 -0.2918 -0.1415
  411MOL0     O54123   6.616   2.417   2.752  0.0913  0.2965 -0.1886
  411MOL0     C54124   6.612   2.393   2.890  0.0325  0.1048 -0.1357
  411MOL0     C54125   6.541   2.282   2.937 -0.6938 -0.7010 -0.1684
  411MOL0     C54126   6.561   2.253   3.073  0.4351  0.0488  0.5756
  411MOL0     C54127   6.619   2.343   3.164  0.1264  0.4651 -0.1007
  411MOL0     O54128   6.643   2.302   3.289  0.1521  0.7434  0.4020
  411MOL0     C54129   6.534   2.242   3.369 -0.1090  0.1847 -0.2910
  411MOL0     C54130   6.574   2.123   3.456 -0.4008  0.4767 -0.6082
  411MOL0     C54131   6.454   2.104   3.556  0.2054  0.3063  0.2562
  411MOL0     C54132   6.434   1.961   3.592 -0.2269  0.1229  0.1540
  411MOL0     C54133   6.334   1.943   3.700  0.0723 -0.3495  0.0521
  411MOL0     C54134   6.342   2.030   3.824  0.7308  1.1609 -0.5511
  411MOL0     C54135   6.260   1.971   3.945  0.8075 -0.0109 -0.6319
  411MOL0     C54136   6.103   1.976   3.920  0.7740  0.7101 -0.9427
  411MOL0     N54137   6.020   1.925   4.031  0.2052 -0.1106  0.0418
  411MOL0     C54138   5.886   1.953   4.063 -0.8353 -0.1294  0.2751
  411MOL0     C54139   5.844   1.849   4.150  0.3844 -0.7991 -0.0695
  411MOL0     C54140   5.709   1.811   4.208  0.6739  0.1418 -0.2040
  411MOL0     C54141   5.664   1.907   4.321  0.3326 -0.5941 -0.2352
  411MOL0     C54142   5.596   2.034   4.269  0.3697 -0.6684  0.4057
  411MOL0     C54143   5.527   2.120   4.370  1.1337  0.0930 -0.6072
  411MOL0     O54144   5.459   2.050   4.483 -0.8013 -0.1967  0.8485
  411MOL0     C54145   5.412   2.128   4.578  0.7099  0.1359  0.0609
  411MOL0     C54146   5.303   2.210   4.553  0.4187  0.1159  0.9072
  411MOL0     C54147   5.266   2.307   4.638 -0.1354 -0.3226  0.2277
  411MOL0     C54148   5.322   2.309   4.771  0.3334  0.0611 -0.1599
  411MOL0     C54149   5.267   2.401   4.872  0.3833  0.4374 -0.7632
  411MOL0     O54150   5.155   2.465   4.833  0.8549 -0.7161  0.2237
  411MOL0     C54151   5.094   2.572   4.901 -0.2333 -0.1973 -0.4217
  411MOL0     C54152   5.151   2.668   4.987  0.1793  0.1479 -0.0554
  411MOL0     C54153   5.074   2.778   5.039  0.0902  0.3240  0.5743
  411MOL0     C54154   4.939   2.798   5.003 -0.3369  0.0904  0.0262
  411MOL0     O54155   4.875   2.906   5.050  0.4120 -0.1808  0.6555
  411MOL0     C54156   4.735   2.911   5.048 -0.3087  0.9986 -0.4761
  411MOL0     C54157   4.692   3.016   5.151  0.6140 -0.3385  0.3857
  411MOL0     C54158   4.733   3.157   5.116 -0.1831  0.8001  0.3223
  411MOL0     C54159   4.702   3.246   5.243  0.4100  0.7619  0.4640
  411MOL0     C54160   4.780   3.379   5.223 -0.1638  0.4093 -0.4492
  411MOL0     C54161   4.738   3.484   5.321 -0.8246 -0.1450 -0.2355
  411MOL0     C54162   4.795   3.463   5.457 -0.4597 -0.4615 -0.2407
  411MOL0     C54163   4.776   3.579   5.557 -0.0119 -0.1003  0.2937
  411MOL0    Cl54164   4.614   3.658   5.551 -0.1676  0.0676  0.2146
  411MOL0     C54165   4.893   2.701   4.914 -0.0487 -0.1766 -0.0994
  411MOL0     C54166   4.964   2.589   4.860  1.1268  0.7066 -1.0470
  411MOL0     O54167   5.318   2.412   4.982  0.4584 -0.0449  0.1963
  411MOL0     C54168   5.422   2.215   4.813  0.5912  1.1056 -0.0262
  411MOL0     C54169   5.467   2.132   4.712  0.0719  0.3890  0.1180
  411MOL0     N54170   5.954   1.769   4.155 -0.6510  0.4661 -0.0456
  411MOL0     N54171   6.059   1.823   4.106  0.2190  0.2799 -0.7932
  411MOL0     C54172   6.672   2.466   3.124  0.3468  0.2994 -0.0806
  411MOL0     C54173   6.671   2.485   2.989 -0.0133 -0.0841  0.2104
  411MOL0     C54174   6.523   2.399   2.530 -0.2583 -1.4366 -0.1768
  411MOL0     C54175   6.417   2.375   2.443  0.6926  0.7919  0.3872
  411MOL0     C54176   6.430   2.393   2.307 -0.0536  0.2997 -0.4872
  411MOL0     C54177   6.551   2.431   2.248  0.4334 -0.2553  0.6473
  411MOL0     O54178   6.567   2.447   2.108  0.4015  0.7042 -0.3316
  411MOL0     C54179   6.475   2.371   2.023 -0.0430  0.0408 -0.1521
  411MOL0     C54180   6.531   2.359   1.887 -0.2110  0.3324 -0.1007
  411MOL0     C54181   6.569   2.487   1.832 -0.3304 -0.0998 -0.4284
  411MOL0     C54182   6.593   2.502   1.684 -0.0276  0.4802 -0.5311
  411MOL0     C54183   6.478   2.487   1.585  0.2396 -0.1383  0.5489
  411MOL0     C54184   6.393   2.478   1.502 -0.1645  0.3994 -0.1952
  411MOL0     C54185   6.660   2.455   2.331  0.4912 -0.2004 -0.3873
  411MOL0     C54186   6.640   2.447   2.467  0.5433 -0.9684 -0.3046
  411MOL0     H54187   6.503   2.214   2.862  1.4590 -0.7830 -1.2811
  411MOL0     H54188   6.526   2.158   3.113  0.3878  1.0389  3.1045
  411MOL0     H54189   6.461   2.202   3.299  2.7855 -1.8790 -2.3781
  411MOL0     H54190   6.499   2.319   3.438 -1.3704 -2.3782  2.0995
  411MOL0     H54191   6.669   2.138   3.508  1.1165 -0.0058 -3.0648
  411MOL0     H54192   6.584   2.038   3.389  1.8921 -0.0002  0.2525
  411MOL0     H54193   6.361   2.145   3.515  0.8193  2.0075  0.5171
  411MOL0     H54194   6.483   2.172   3.636  4.6392  0.0177 -0.8486
  411MOL0     H54195   6.411   1.899   3.505  0.5949  0.1578 -0.0977
  411MOL0     H54196   6.522   1.907   3.628 -0.4561 -0.8393 -0.6683
  411MOL0     H54197   6.334   1.837   3.730  1.8189 -0.7347 -1.1609
  411MOL0     H54198   6.238   1.961   3.651 -1.0900  0.1191  2.3478
  411MOL0     H54199   6.294   2.127   3.806 -2.1434 -0.6700 -4.1942
  411MOL0     H54200   6.448   2.041   3.848  1.4703 -2.3144 -1.6329
  411MOL0     H54201   6.292   1.869   3.967 -1.1751 -0.1668  1.9713
  411MOL0     H54202   6.273   2.028   4.037 -1.6909 -0.5208  0.1058
  411MOL0     H54203   6.069   1.916   3.835 -1.6013 -1.3577  1.2717
  411MOL0     H54204   6.084   2.082   3.900  1.1784  0.7229 -1.2605
  411MOL0     H54205   5.827   2.025   4.007 -0.7224 -1.5908 -1.8549
  411MOL0     H54206   5.727   1.719   4.265 -0.0859  0.6169  0.8471
  411MOL0     H54207   5.625   1.790   4.141 -0.3118 -2.3567  1.6379
  411MOL0     H54208   5.752   1.943   4.375 -1.3239  1.6535  1.1728
  411MOL0     H54209   5.596   1.854   4.387  0.3326 -2.5014 -1.6779
  411MOL0     H54210   5.673   2.089   4.214 -1.6588 -1.3377 -3.4949
  411MOL0     H54211   5.521   2.004   4.196 -2.5612 -4.0455  4.3544
  411MOL0     H54212   5.450   2.177   4.317  1.3674  0.6369 -0.3648
  411MOL0     H54213   5.604   2.181   4.417  0.4962 -1.0002  2.0047
  411MOL0     H54214   5.261   2.196   4.454 -1.9995  4.2558  1.1011
  411MOL0     H54215   5.186   2.373   4.608  0.0430 -0.5146 -0.7135
  411MOL0     H54216   5.252   2.648   5.022  0.5571 -0.7287 -1.5750
  411MOL0     H54217   5.117   2.853   5.104 -1.7679  1.3127  0.7364
  411MOL0     H54218   4.681   2.823   5.083  3.2406 -0.1851  2.5519
  411MOL0     H54219   4.700   2.936   4.947 -1.5586  1.6630  0.0884
  411MOL0     H54220   4.731   2.985   5.249  1.6471 -2.0562 -0.5293
  411MOL0     H54221   4.583   3.014   5.156  0.3308  3.5391 -1.1873
  411MOL0     H54222   4.669   3.186   5.031 -0.8222  3.0969  1.5183
  411MOL0     H54223   4.839   3.166   5.091  0.0870 -0.5933  0.8911
  411MOL0     H54224   4.597   3.275   5.244  1.0048  3.2142 -0.3903
  411MOL0     H54225   4.736   3.194   5.333 -1.0452 -1.2526 -0.0791
  411MOL0     H54226   4.770   3.429   5.126 -0.5765  1.2410  0.0078
  411MOL0     H54227   4.886   3.362   5.240  0.0565  1.0530 -1.1048
  411MOL0     H54228   4.630   3.488   5.335 -0.7724  2.4913 -0.1314
  411MOL0     H54229   4.773   3.581   5.286  0.6060  0.0140  1.4993
  411MOL0     H54230   4.762   3.369   5.500 -2.1855  1.3097  2.6267
  411MOL0     H54231   4.904   3.462   5.450 -0.3183  3.2395 -0.8279
  411MOL0     H54232   4.838   3.668   5.546 -1.9996  1.5515  1.6440
  411MOL0     H54233   4.794   3.544   5.660  2.0092  0.9002  0.3179
  411MOL0     H54234   4.798   2.720   4.867  0.1313  3.0656  0.6304
  411MOL0     H54235   4.916   2.524   4.787 -1.1292  3.6147 -2.3467
  411MOL0     H54236   5.465   2.208   4.912 -2.4224 -1.9173  1.2683
  411MOL0     H54237   5.553   2.066   4.718 -1.3801 -1.4844  2.7424
  411MOL0     H54238   6.722   2.539   3.187  1.4122 -0.3773 -0.1162
  411MOL0     H54239   6.727   2.571   2.954 -0.9226  1.3746  2.1521
  411MOL0     H54240   6.320   2.356   2.488 -0.5893  0.9463 -2.1150
  411MOL0     H54241   6.346   2.365   2.244 -1.8529  1.2877  1.3712
  411MOL0     H54242   6.381   2.424   2.032 -2.9793 -4.5378 -0.4154
  411MOL0     H54243   6.456   2.267   2.051 -0.9114  0.6742  1.6943
  411MOL0     H54244   6.608   2.282   1.879  0.2864  0.9674 -1.7910
  411MOL0     H54245   6.463   2.317   1.812 -0.1556 -0.4495  0.2721
  411MOL0     H54246   6.661   2.518   1.883 -1.5346 -0.9537  2.4714
  411MOL0     H54247   6.500   2.563   1.869  1.0963  1.4355 -0.8144
  411MOL0     H54248   6.651   2.592   1.661  0.1433  0.0980 -1.6773
  411MOL0     H54249   6.663   2.420   1.666  1.1864  1.3408  0.1162
  411MOL0     H54250   6.317   2.491   1.428  0.4335 -2.2130 -1.3698
  411MOL0     H54251   6.759   2.471   2.289  0.0448  2.0003 -0.7094
  411MOL0     H54252   6.721   2.484   2.529 -0.0567  2.6458 -1.3991
  412MOL0     O54253   9.212   1.590   8.052  0.6180 -0.4405 -0.5125
  412MOL0     C54254   9.189   1.488   7.980  0.4069  0.0742 -0.0154
  412MOL0     O54255   9.288   1.437   7.897  0.2412 -0.0676 -0.7556
  412MOL0     C54256   9.416   1.491   7.894  0.2771 -0.7219 -0.0537
  412MOL0     C54257   9.467   1.495   7.768  0.3715 -0.3091  0.1065
  412MOL0     C54258   9.596   1.551   7.741  0.5333 -0.5771 -0.2998
  412MOL0     C54259   9.657   1.614   7.848  1.0688  0.6360  0.2616
  412MOL0     O54260   9.775   1.668   7.814  0.0192  0.5728 -0.0282
  412MOL0     C54261   9.791   1.795   7.877  0.0961 -0.0134  0.2751
  412MOL0     C54262   9.920   1.858   7.839 -0.3002 -0.8088 -0.3071
  412MOL0     C54263   9.921   1.919   7.699  0.4249  0.0241 -0.2444
  412MOL0     C54264  10.067   1.940   7.642 -0.4044  0.5695 -0.7383
  412MOL0     C54265  10.079   1.979   7.501  0.1838  1.1920 -0.0330
  412MOL0     C54266  10.004   2.105   7.468 -0.5533  0.1605 -0.2328
  412MOL0     C54267  10.043   2.140   7.321 -0.3217  0.0784  0.0685
  412MOL0     C54268   9.985   2.042   7.224 -0.1111 -0.5241  1.6326
  412MOL0     N54269  10.011   2.087   7.084  0.5129 -0.1309 -0.3757
  412MOL0     C54270  10.125   2.144   7.031 -0.3713  1.1188 -0.2475
  412MOL0     C54271  10.097   2.142   6.900  0.8093 -0.0402 -0.4470
  412MOL0     C54272  10.194   2.194   6.803 -0.2374  0.6023 -0.6904
  412MOL0     C54273  10.325   2.108   6.792  0.2282  0.1423 -0.1652
  412MOL0     C54274  10.415   2.171   6.678  0.2524 -0.1701  0.6380
  412MOL0     C54275  10.559   2.140   6.698 -0.5425 -0.3574  0.3015
  412MOL0     O54276  10.589   2.006   6.651  0.5649  0.6951 -0.0856
  412MOL0     C54277  10.705   1.943   6.680  0.9594 -1.0291 -0.7854
  412MOL0     C54278  10.727   1.827   6.615 -0.3376  0.4022  0.6554
  412MOL0     C54279  10.859   1.761   6.627  0.2240  0.7098  0.1166
  412MOL0     C54280  10.946   1.799   6.729  0.1358  0.3112  0.1552
  412MOL0     C54281  11.048   1.714   6.777 -0.2231 -0.4428  0.2637
  412MOL0     O54282  11.049   1.589   6.725 -0.4429  0.5806 -0.4295
  412MOL0     C54283  11.152   1.504   6.717 -0.9690 -0.0224  0.3969
  412MOL0     C54284  11.163   1.408   6.614  0.2639  0.6093 -0.3155
  412MOL0     C54285  11.262   1.311   6.602 -0.0632 -0.6389 -0.6359
  412MOL0     C54286  11.369   1.309   6.687  0.2135  0.3921  0.4323
  412MOL0     O54287  11.475   1.220   6.669 -0.4378 -0.3592 -0.3226
  412MOL0     C54288  11.463   1.108   6.754 -0.4840 -0.4140  1.0014
  412MOL0     C54289  11.608   1.062   6.784  0.6203 -0.3214 -0.1880
  412MOL0     C54290  11.677   1.027   6.642  0.2238 -0.3736 -0.1501
  412MOL0     C54291  11.822   0.988   6.672  0.1492  0.3574 -0.2263
  412MOL0     C54292  11.888   0.924   6.552  0.9469  0.2515 -0.0592
  412MOL0     C54293  12.039   0.929   6.558  0.7665  0.6381 -0.0025
  412MOL0     C54294  12.108   0.833   6.456  0.1737  0.4905 -0.1147
  412MOL0     C54295  12.243   0.896   6.409  0.2717  0.6255 -0.0858
  412MOL0    Cl54296  12.324   0.760   6.332 -0.2220 -0.4515  0.0713
  412MOL0     C54297  11.368   1.403   6.786 -0.1322  0.0690 -0.1301
  412MOL0     C54298  11.265   1.501   6.799 -0.0404 -0.3475  0.0149
  412MOL0     O54299  11.135   1.763   6.846  0.2380  0.2605 -0.1083
  412MOL0     C54300  10.919   1.921   6.790 -0.0656 -0.3274  0.1492
  412MOL0     C54301  10.805   2.001   6.757 -0.8859  1.0722 -0.1689
  412MOL0     N54302   9.974   2.087   6.878  0.0532  0.1530  0.3714
  412MOL0     N54303   9.924   2.048   6.992  0.3423  0.2054  0.7150
  412MOL0     C54304   9.609   1.599   7.981 -0.3223  0.2476 -1.0385
  412MOL0     C54305   9.484   1.530   8.002 -0.8340  0.0803  0.4446
  412MOL0     C54306   9.055   1.440   7.964  0.3772  0.1332  1.1597
  412MOL0     C54307   8.967   1.441   8.076  0.2206  0.3850  0.2838
  412MOL0     C54308   8.840   1.387   8.065 -0.5897  1.0550  0.7616
  412MOL0     C54309   8.803   1.326   7.941 -1.1158 -0.2611 -0.1378
  412MOL0     O54310   8.681   1.289   7.911  0.1471  0.3854 -0.2419
  412MOL0     C54311   8.576   1.306   8.010 -0.7346 -1.1728  0.2632
  412MOL0     C54312   8.436   1.282   7.950  0.0537 -0.6792 -0.5798
  412MOL0     C54313   8.428   1.152   7.859  0.0840  0.1970 -0.9555
  412MOL0     C54314   8.468   1.024   7.934 -0.5387 -0.4454 -0.3281
  412MOL0     C54315   8.447   0.916   7.836 -0.3245  0.0523  0.4640
  412MOL0     C54316   8.421   0.821   7.760 -0.5162 -0.1969  0.3060
  412MOL0     C54317   8.881   1.324   7.828 -0.1781 -0.7412  0.1839
  412MOL0     C54318   9.010   1.398   7.835 -0.2147  0.4541 -1.2176
  412MOL0     H54319   9.406   1.446   7.693 -0.4040 -0.6494  0.9400
  412MOL0     H54320   9.648   1.558   7.646  0.5838  0.3808 -0.2102
  412MOL0     H54321   9.800   1.786   7.986  2.2289 -1.6771  0.0338
  412MOL0     H54322   9.711   1.867   7.859 -1.3491 -1.3927  0.9531
  412MOL0     H54323   9.997   1.781   7.833  0.8222  0.2971 -0.5963
  412MOL0     H54324   9.945   1.940   7.907  2.9088 -0.4047 -1.7865
  412MOL0     H54325   9.866   2.013   7.713 -0.6770 -0.9154  2.2789
  412MOL0     H54326   9.869   1.851   7.630 -0.4360  0.3147  0.1076
  412MOL0     H54327  10.116   2.016   7.704  1.6156 -0.5679 -0.8714
  412MOL0     H54328  10.128   1.849   7.644  3.6039  3.0194 -0.3643
  412MOL0     H54329  10.029   1.901   7.443  1.9514 -0.4843  0.6010
  412MOL0     H54330  10.185   1.979   7.475  0.1699  0.8800 -0.0867
  412MOL0     H54331  10.037   2.180   7.541 -1.0914 -2.2769  2.7336
  412MOL0     H54332   9.896   2.091   7.477 -1.1020  3.8376  0.3571
  412MOL0     H54333  10.005   2.240   7.296  0.2421 -0.2998 -2.7080
  412MOL0     H54334  10.152   2.144   7.321 -0.3415  1.8577  1.6670
  412MOL0     H54335   9.878   2.023   7.236 -0.4894  1.0592  1.0225
  412MOL0     H54336  10.023   1.941   7.239  0.3833 -0.9984 -1.8605
  412MOL0     H54337  10.211   2.177   7.089 -0.3552 -2.6154  2.1753
  412MOL0     H54338  10.240   2.289   6.831  0.0353  1.0473 -2.5051
  412MOL0     H54339  10.144   2.205   6.706  1.6713  2.6999 -1.5129
  412MOL0     H54340  10.297   2.005   6.766 -0.8080  0.0568  1.1569
  412MOL0     H54341  10.376   2.103   6.888 -1.2461  0.9396  0.7015
  412MOL0     H54342  10.382   2.145   6.577 -0.9559  0.8157  0.7477
  412MOL0     H54343  10.394   2.279   6.676 -0.8435 -0.3692  0.5229
  412MOL0     H54344  10.590   2.160   6.801  0.8368 -0.7519 -0.0177
  412MOL0     H54345  10.612   2.207   6.629 -1.3699 -2.0348 -2.0646
  412MOL0     H54346  10.643   1.791   6.557 -0.7155  1.1288  0.7402
  412MOL0     H54347  10.878   1.661   6.590  2.9429  0.9023  0.7669
  412MOL0     H54348  11.089   1.419   6.535  0.5935  5.4832 -0.2346
  412MOL0     H54349  11.258   1.256   6.509 -0.5479 -1.8249  0.0610
  412MOL0     H54350  11.419   1.035   6.686  2.5405 -0.0196 -1.6043
  412MOL0     H54351  11.405   1.125   6.845 -1.0719  0.3499  0.4910
  412MOL0     H54352  11.606   0.984   6.860  1.8096 -0.1353  0.0605
  412MOL0     H54353  11.665   1.148   6.821  0.4519 -0.0071 -0.6549
  412MOL0     H54354  11.671   1.107   6.567 -1.3955  0.1032  0.4454
  412MOL0     H54355  11.622   0.941   6.603 -2.0696 -0.1094  2.2441
  412MOL0     H54356  11.887   1.070   6.702 -1.6538  0.4512  4.1717
  412MOL0     H54357  11.824   0.922   6.759 -0.8478  1.1332  0.4131
  412MOL0     H54358  11.865   0.983   6.464 -2.9148 -1.4475 -0.3482
  412MOL0     H54359  11.850   0.825   6.528 -1.5801  0.9175  0.8952
  412MOL0     H54360  12.069   0.904   6.660 -0.6816  0.2172  0.3324
  412MOL0     H54361  12.061   1.031   6.522 -3.2871  0.2805 -4.5637
  412MOL0     H54362  12.142   0.741   6.505 -0.2076  0.0276 -0.7069
  412MOL0     H54363  12.043   0.806   6.373  2.0476 -1.5076 -1.0436
  412MOL0     H54364  12.303   0.935   6.491 -0.2388  1.5649 -0.1503
  412MOL0     H54365  12.219   0.984   6.349  0.0134 -0.3493 -1.4598
  412MOL0     H54366  11.465   1.410   6.835  0.5762 -0.1431 -1.4798
  412MOL0     H54367  11.289   1.582   6.866 -2.3219 -0.4609  1.0573
  412MOL0     H54368  10.982   1.950   6.873 -2.6407  2.4623  1.2964
  412MOL0     H54369  10.788   2.100   6.796  0.4587  1.0711  0.4690
  412MOL0     H54370   9.660   1.629   8.072  1.2222  0.1846 -1.8598
  412MOL0     H54371   9.436   1.525   8.099 -3.1335 -0.6765 -0.6716
  412MOL0     H54372   8.993   1.478   8.175 -1.5798 -0.5835  1.1790
  412MOL0     H54373   8.772   1.402   8.148  0.2879 -1.1866  1.9937
  412MOL0     H54374   8.588   1.406   8.052  2.9597 -0.4394 -2.0931
  412MOL0     H54375   8.607   1.228   8.080  0.1965 -0.7524  0.3370
  412MOL0     H54376   8.350   1.290   8.017 -1.4753  1.6932 -2.6610
  412MOL0     H54377   8.411   1.365   7.884 -3.1118 -0.2996  0.9271
  412MOL0     H54378   8.476   1.170   7.762 -1.4277  1.5720 -1.4947
  412MOL0     H54379   8.321   1.147   7.837  0.0287  0.9157 -0.8922
  412MOL0     H54380   8.575   1.016   7.953 -0.6086 -4.0056 -0.6625
  412MOL0     H54381   8.404   0.999   8.020  0.0812 -2.5854 -0.4254
  412MOL0     H54382   8.382   0.732   7.716 -1.4866  1.3321 -2.1176
  412MOL0     H54383   8.841   1.289   7.734  0.5250  0.6538 -0.6595
  412MOL0     H54384   9.059   1.414   7.739 -0.8200 -2.5001 -2.1242
  413MOL0     O54385   7.915   3.833   2.716  1.1398  0.8036 -0.9063
  413MOL0     C54386   7.964   3.937   2.691  0.3360 -1.3822 -0.2291
  413MOL0     O54387   7.911   4.040   2.616  1.1100 -0.4780  0.4018
  413MOL0     C54388   7.795   4.034   2.550  0.4154 -1.0146  0.2347
  413MOL0     C54389   7.785   4.139   2.461  0.3015 -0.7539  0.3459
  413MOL0     C54390   7.676   4.159   2.385  0.7990 -0.5289  0.6745
  413MOL0     C54391   7.574   4.064   2.381  0.0624 -0.2743 -0.0963
  413MOL0     O54392   7.460   4.080   2.300 -0.2493 -0.1133  0.0705
  413MOL0     C54393   7.345   3.993   2.330 -0.8637 -0.0306  0.0423
  413MOL0     C54394   7.222   4.046   2.250 -0.2658  0.6276  1.1711
  413MOL0     C54395   7.107   3.941   2.240 -0.0840 -0.8636  0.1133
  413MOL0     C54396   6.984   3.983   2.157  0.5639  0.8259 -0.1815
  413MOL0     C54397   6.854   3.906   2.194 -0.2228  0.1305 -0.1506
  413MOL0     C54398   6.741   3.993   2.139  1.7363  0.4643  0.8283
  413MOL0     C54399   6.731   3.981   1.984 -0.5286 -0.4830 -0.5350
  413MOL0     C54400   6.630   4.068   1.910  0.9670 -0.2764 -0.2849
  413MOL0     N54401   6.493   4.052   1.960 -0.0181  0.6399 -1.2558
  413MOL0     C54402   6.433   4.105   2.070  0.2321  0.4765  0.3504
  413MOL0     C54403   6.301   4.092   2.047 -1.1533  0.1866  0.4115
  413MOL0     C54404   6.187   4.124   2.144  1.0171  0.6822 -0.5146
  413MOL0     C54405   6.048   4.168   2.084  0.4179  0.3168 -1.0138
  413MOL0     C54406   5.979   4.280   2.177 -0.0580  0.2073 -0.0201
  413MOL0     C54407   5.859   4.328   2.095  0.6550 -0.0327  0.1219
  413MOL0     O54408   5.764   4.398   2.182  0.5220  0.1372 -0.0768
  413MOL0     C54409   5.666   4.456   2.121  0.5459 -0.9503  0.5890
  413MOL0     C54410   5.641   4.457   1.976 -0.5155 -0.6036 -0.1858
  413MOL0     C54411   5.539   4.537   1.926  0.9194  0.9605 -0.0169
  413MOL0     C54412   5.460   4.619   2.006 -0.6334 -0.7327  0.2036
  413MOL0     C54413   5.350   4.702   1.956 -1.2200  0.2792  0.5458
  413MOL0     O54414   5.307   4.669   1.831 -0.5322  0.2978  0.1311
  413MOL0     C54415   5.212   4.739   1.769 -0.4080  0.2466  0.2973
  413MOL0     C54416   5.207   4.876   1.774 -0.1883 -0.1334  0.1115
  413MOL0     C54417   5.104   4.949   1.721  1.9064  0.5624 -0.5842
  413MOL0     C54418   5.009   4.881   1.639 -0.9344  0.2726 -0.5480
  413MOL0     O54419   4.932   4.959   1.567 -0.0598 -1.0750  0.3726
  413MOL0     C54420   4.796   4.909   1.556  0.1768 -0.9655  0.2111
  413MOL0     C54421   4.713   5.019   1.495  0.7827 -0.4740  0.5820
  413MOL0     C54422   4.720   5.155   1.566  0.9119  0.6579  0.1481
  413MOL0     C54423   4.582   5.215   1.576 -0.2891  0.2300 -0.1489
  413MOL0     C54424   4.507   5.184   1.703  0.3389  0.7886 -0.1681
  413MOL0     C54425   4.586   5.254   1.816  0.1969  0.2319 -0.0728
  413MOL0     C54426   4.487   5.266   1.932  0.3811  0.2871  0.4438
  413MOL0     C54427   4.435   5.407   1.953 -0.4443  0.1321 -0.6518
  413MOL0    Cl54428   4.557   5.528   2.015  0.3967  0.1259  0.8416
  413MOL0     C54429   5.026   4.738   1.622 -0.2667  0.0947  0.3404
  413MOL0     C54430   5.128   4.668   1.684 -0.2832 -0.3850 -0.1131
  413MOL0     O54431   5.313   4.794   2.026 -0.9942 -0.4488 -0.5767
  413MOL0     C54432   5.490   4.616   2.141 -0.7329 -0.0921 -0.3058
  413MOL0     C54433   5.584   4.537   2.198  0.4434 -0.3832  0.4635
  413MOL0     N54434   6.285   4.025   1.932  0.0702  0.6735 -0.1923
  413MOL0     N54435   6.395   3.998   1.885 -0.3011 -0.2195 -0.1601
  413MOL0     C54436   7.583   3.955   2.476  0.5028  0.5284 -0.7479
  413MOL0     C54437   7.697   3.938   2.552  0.6046 -0.0652 -0.3877
  413MOL0     C54438   8.083   3.965   2.762 -0.1722 -0.5893  0.0021
  413MOL0     C54439   8.121   4.104   2.774  0.2136  0.8211  0.1021
  413MOL0     C54440   8.235   4.150   2.835  0.4634  0.4699 -0.8278
  413MOL0     C54441   8.316   4.055   2.900  0.6886  0.5718 -0.1495
  413MOL0     O54442   8.426   4.105   2.963 -0.4840  0.5137  0.2530
  413MOL0     C54443   8.506   4.023   3.052  0.0157 -0.2060 -0.0526
  413MOL0     C54444   8.604   3.942   2.965 -0.7733 -0.1952 -0.3356
  413MOL0     C54445   8.718   4.036   2.905 -0.1493  0.0158 -0.9171
  413MOL0     C54446   8.827   3.964   2.823  0.4753  0.7501 -0.7389
  413MOL0     C54447   8.919   3.871   2.893 -0.3502  0.0232  0.3585
  413MOL0     C54448   9.003   3.793   2.936 -0.0919 -0.2650  0.4742
  413MOL0     C54449   8.276   3.921   2.909  0.4168 -0.2677  0.2455
  413MOL0     C54450   8.162   3.878   2.837  0.0094 -0.4424 -0.6460
  413MOL0     H54451   7.869   4.207   2.451  0.1173 -0.3283  1.5808
  413MOL0     H54452   7.670   4.241   2.315  2.5004 -0.9636 -0.0182
  413MOL0     H54453   7.325   4.006   2.437  2.5724  0.6973  0.7032
  413MOL0     H54454   7.376   3.892   2.303  0.5125  0.1960  0.6849
  413MOL0     H54455   7.264   4.047   2.149  0.0982 -2.7527  1.1657
  413MOL0     H54456   7.184   4.140   2.290  0.4201 -0.1631  3.9385
  413MOL0     H54457   7.083   3.930   2.346 -1.2191  0.1636 -0.0186
  413MOL0     H54458   7.145   3.843   2.208  0.2905 -1.8618  3.2413
  413MOL0     H54459   6.967   4.089   2.176 -2.2320  0.6225 -1.1397
  413MOL0     H54460   7.015   3.981   2.052 -0.4754 -0.6158 -0.4855
  413MOL0     H54461   6.847   3.910   2.303  1.9007  1.2368  0.0012
  413MOL0     H54462   6.858   3.800   2.166 -2.8968 -0.0284 -0.1864
  413MOL0     H54463   6.747   4.100   2.157  0.4532  0.8842 -0.9994
  413MOL0     H54464   6.644   3.952   2.169  1.1892  1.8963  1.0858
  413MOL0     H54465   6.826   4.017   1.944 -2.0371  0.7897 -3.2758
  413MOL0     H54466   6.725   3.875   1.961  1.7404 -0.5452 -1.0208
  413MOL0     H54467   6.635   4.046   1.803 -1.0264 -1.2064 -0.2216
  413MOL0     H54468   6.648   4.175   1.926 -2.8215  0.6808 -1.2769
  413MOL0     H54469   6.485   4.152   2.153 -0.8790 -0.6091  1.7183
  413MOL0     H54470   6.209   4.209   2.209 -2.2218  0.3547  1.2140
  413MOL0     H54471   6.168   4.046   2.219 -0.3547  2.1787  0.7427
  413MOL0     H54472   5.984   4.080   2.074 -0.6114  0.4881  2.5590
  413MOL0     H54473   6.066   4.219   1.989  2.1934  1.3210 -0.1930
  413MOL0     H54474   5.938   4.241   2.271 -0.7044  1.0625  0.0645
  413MOL0     H54475   6.051   4.362   2.188  1.0288 -0.3725 -2.2821
  413MOL0     H54476   5.829   4.239   2.039  0.2560  2.0992 -3.3794
  413MOL0     H54477   5.906   4.387   2.016  1.3640 -0.3473  0.2952
  413MOL0     H54478   5.694   4.402   1.899  0.6571 -2.0881  1.5963
  413MOL0     H54479   5.523   4.530   1.819  1.9230  1.4450 -0.2141
  413MOL0     H54480   5.286   4.927   1.828  1.4974 -0.9378 -1.5145
  413MOL0     H54481   5.098   5.057   1.733  0.1785  0.5294 -0.9916
  413MOL0     H54482   4.747   4.889   1.652 -0.5394 -0.3892 -0.0249
  413MOL0     H54483   4.798   4.819   1.494 -0.1104 -0.4577 -0.5479
  413MOL0     H54484   4.614   4.974   1.497  1.7694 -2.8145  3.0070
  413MOL0     H54485   4.744   5.045   1.393  2.1728  0.2595  1.1575
  413MOL0     H54486   4.792   5.224   1.523 -1.4627  4.0544  1.1864
  413MOL0     H54487   4.769   5.132   1.661 -2.8703  3.0460  2.9782
  413MOL0     H54488   4.589   5.323   1.562  1.5544  0.1966  0.2781
  413MOL0     H54489   4.517   5.186   1.493 -0.2383 -1.2583  0.3102
  413MOL0     H54490   4.509   5.076   1.712  0.5798  0.8544  0.6062
  413MOL0     H54491   4.400   5.208   1.695 -0.2070 -1.4325 -0.2274
  413MOL0     H54492   4.620   5.356   1.797  1.0211  0.5260  2.6760
  413MOL0     H54493   4.675   5.196   1.840  0.4463  0.2717 -0.8531
  413MOL0     H54494   4.404   5.197   1.913 -0.3719  0.8814  1.4460
  413MOL0     H54495   4.518   5.234   2.032 -1.5620  2.5740  1.8989
  413MOL0     H54496   4.358   5.420   2.030  1.6363  3.1734  1.1012
  413MOL0     H54497   4.391   5.454   1.864 -0.4028  1.4616  0.0017
  413MOL0     H54498   4.968   4.696   1.541 -1.8042  1.0171  0.9174
  413MOL0     H54499   5.143   4.562   1.666  1.3691 -0.0303 -0.9785
  413MOL0     H54500   5.435   4.674   2.214 -0.8796 -2.5790  1.6568
  413MOL0     H54501   5.616   4.539   2.302  0.0109 -2.8332  0.7078
  413MOL0     H54502   7.506   3.878   2.477  1.4751 -0.5148  1.5383
  413MOL0     H54503   7.721   3.847   2.606  2.1789 -0.9903 -2.5051
  413MOL0     H54504   8.071   4.194   2.741  2.0390  2.0039  0.3837
  413MOL0     H54505   8.260   4.255   2.840  0.8982  0.3236  2.2571
  413MOL0     H54506   8.446   3.950   3.108  0.9723 -3.0447 -2.4483
  413MOL0     H54507   8.554   4.089   3.125 -0.3197  0.1218 -0.1254
  413MOL0     H54508   8.651   3.869   3.031  0.6120 -1.8682 -3.0093
  413MOL0     H54509   8.549   3.889   2.887  1.6087 -1.9284 -0.9211
  413MOL0     H54510   8.753   4.100   2.986 -0.5125 -0.0374 -0.7153
  413MOL0     H54511   8.672   4.099   2.828  1.7190 -1.2869 -3.2220
  413MOL0     H54512   8.794   3.911   2.733  0.6565 -1.0164  0.1864
  413MOL0     H54513   8.889   4.043   2.780  0.3814 -1.1094 -4.7520
  413MOL0     H54514   9.083   3.724   2.954 -2.1023 -2.8527  0.1774
  413MOL0     H54515   8.330   3.845   2.966 -0.5076  0.4186  2.1261
  413MOL0     H54516   8.124   3.776   2.838 -0.6389 -0.2011  0.2892
  414MOL0     O54517  10.871   2.694   7.461 -0.7786 -0.2125  0.3253
  414MOL0     C54518  10.918   2.792   7.520 -0.5532  0.4589 -0.0711
  414MOL0     O54519  10.885   2.922   7.493 -0.3007  0.2998  0.3775
  414MOL0     C54520  10.813   2.950   7.378 -0.6476 -0.5604 -0.7638
  414MOL0     C54521  10.855   3.055   7.302  0.4250  0.6867 -0.6364
  414MOL0     C54522  10.801   3.090   7.178  0.5205  0.0027  0.3726
  414MOL0     C54523  10.692   3.014   7.127  0.1101 -0.2886 -1.0304
  414MOL0     O54524  10.627   3.022   7.009  0.0641 -0.5296  0.3803
  414MOL0     C54525  10.661   3.133   6.924  0.4338 -0.0692  1.0761
  414MOL0     C54526  10.565   3.134   6.806  0.0561 -0.9225  0.4735
  414MOL0     C54527  10.428   3.188   6.841 -0.5562  0.3585 -0.7309
  414MOL0     C54528  10.320   3.175   6.725 -0.7074  0.5024 -0.1418
  414MOL0     C54529  10.182   3.247   6.751  0.9497 -0.2409 -0.0967
  414MOL0     C54530  10.077   3.211   6.635 -0.0447 -0.0113  0.1765
  414MOL0     C54531  10.131   3.248   6.496 -1.1314  0.6428 -0.8089
  414MOL0     C54532  10.022   3.275   6.405  0.2558  0.3565  1.2050
  414MOL0     N54533  10.075   3.316   6.266  0.0114  0.3276 -0.7644
  414MOL0     C54534  10.082   3.241   6.148  0.4695  0.9008 -0.1524
  414MOL0     C54535  10.145   3.323   6.064  0.2584  0.1056 -0.2111
  414MOL0     C54536  10.188   3.281   5.925  1.1133  0.2317 -0.4709
  414MOL0     C54537  10.079   3.275   5.815  0.2273  0.4216  0.3510
  414MOL0     C54538  10.141   3.285   5.671  0.3229 -0.6134  0.3895
  414MOL0     C54539  10.056   3.357   5.567  0.3205 -0.1145 -0.2722
  414MOL0     O54540   9.957   3.256   5.538 -0.6426  0.1146  0.7431
  414MOL0     C54541   9.846   3.285   5.465  0.0604  0.0210 -0.1903
  414MOL0     C54542   9.813   3.409   5.415  0.7822 -0.1416 -0.5473
  414MOL0     C54543   9.703   3.440   5.353 -0.0235 -0.0564  0.3102
  414MOL0     C54544   9.609   3.341   5.333  0.5765 -0.0483  0.2121
  414MOL0     C54545   9.477   3.370   5.269  0.0748  0.5594  0.3200
  414MOL0     O54546   9.364   3.312   5.320  0.8124  0.3844 -0.0792
  414MOL0     C54547   9.244   3.336   5.261  1.1128 -0.7026  0.0945
  414MOL0     C54548   9.212   3.413   5.151  0.1600  0.0405 -0.2692
  414MOL0     C54549   9.077   3.430   5.113  0.4846  0.0912  0.1998
  414MOL0     C54550   8.969   3.383   5.190  0.2437  0.8137  1.1848
  414MOL0     O54551   8.834   3.395   5.165  0.1043  0.3124 -0.1199
  414MOL0     C54552   8.796   3.422   5.029  0.8631 -0.0235 -0.0057
  414MOL0     C54553   8.758   3.563   5.013  0.0680  0.1464 -0.4499
  414MOL0     C54554   8.629   3.602   5.091  0.6236  0.6242 -0.3744
  414MOL0     C54555   8.597   3.750   5.080 -0.5709  0.4674 -0.4260
  414MOL0     C54556   8.447   3.770   5.109 -0.5185  1.1121 -0.3684
  414MOL0     C54557   8.379   3.907   5.077 -0.1817 -1.1176 -0.0531
  414MOL0     C54558   8.406   3.943   4.927  0.0685 -0.4471  0.3091
  414MOL0     C54559   8.347   3.840   4.830 -0.0662 -0.3554  0.6181
  414MOL0    Cl54560   8.185   3.818   4.855 -0.0207  0.1525 -0.2030
  414MOL0     C54561   9.003   3.299   5.297  0.6001  0.3352  0.7375
  414MOL0     C54562   9.139   3.280   5.333 -0.1735 -0.2915  1.1881
  414MOL0     O54563   9.483   3.454   5.173 -0.1461  0.5286 -0.6476
  414MOL0     C54564   9.632   3.213   5.393 -0.2038  0.4411 -0.7590
  414MOL0     C54565   9.752   3.186   5.456 -1.0584 -0.5435 -0.0582
  414MOL0     N54566  10.163   3.447   6.125  0.4245  0.4132 -0.0109
  414MOL0     N54567  10.125   3.443   6.243  0.1848 -0.2529 -0.0920
  414MOL0     C54568  10.648   2.904   7.207  0.5324 -0.3637  0.1435
  414MOL0     C54569  10.701   2.874   7.333  0.0998  0.7899  0.5696
  414MOL0     C54570  10.995   2.763   7.640 -0.0696  0.0421 -0.3524
  414MOL0     C54571  11.001   2.633   7.696 -0.0547 -0.3643  0.3062
  414MOL0     C54572  11.060   2.608   7.827  0.1277  0.4468 -0.7088
  414MOL0     C54573  11.126   2.709   7.899 -0.2675 -0.1834  0.6676
  414MOL0     O54574  11.187   2.675   8.007 -0.8198  0.3402  0.3901
  414MOL0     C54575  11.283   2.769   8.053 -0.5376 -0.2947  0.1248
  414MOL0     C54576  11.360   2.707   8.170  0.1818  0.2062 -1.1443
  414MOL0     C54577  11.493   2.773   8.208 -0.9242  0.1291  0.6131
  414MOL0     C54578  11.597   2.690   8.283 -0.1818  0.5641 -0.0767
  414MOL0     C54579  11.662   2.595   8.200  0.3364 -0.5769 -0.6893
  414MOL0     C54580  11.711   2.495   8.157  0.9842  0.1481 -0.4643
  414MOL0     C54581  11.128   2.838   7.841  0.1385 -0.2408  0.6243
  414MOL0     C54582  11.061   2.862   7.714 -0.4582 -0.5751  0.5422
  414MOL0     H54583  10.936   3.119   7.335 -1.2956  0.9819  3.6290
  414MOL0     H54584  10.852   3.169   7.124  0.9756  0.9275  2.0687
  414MOL0     H54585  10.762   3.109   6.890 -0.8949 -2.9444 -1.4339
  414MOL0     H54586  10.647   3.228   6.976 -0.1926  1.8252 -2.2680
  414MOL0     H54587  10.565   3.038   6.753  1.7751  0.9533 -3.2269
  414MOL0     H54588  10.614   3.195   6.731  2.8627 -0.3710  2.6111
  414MOL0     H54589  10.428   3.288   6.887 -2.5117 -1.4852  3.9224
  414MOL0     H54590  10.392   3.135   6.930 -1.2234  2.7105  0.4907
  414MOL0     H54591  10.368   3.215   6.635 -0.9464  0.8952 -0.0926
  414MOL0     H54592  10.298   3.070   6.703 -1.2916 -0.0258  2.6023
  414MOL0     H54593  10.186   3.355   6.734 -0.1966 -0.2574 -0.5800
  414MOL0     H54594  10.135   3.222   6.846 -0.3777  2.5380  0.0656
  414MOL0     H54595   9.987   3.271   6.653 -0.2862 -0.9252  2.2707
  414MOL0     H54596  10.050   3.105   6.640 -2.8178  0.6223  0.5775
  414MOL0     H54597  10.198   3.334   6.495 -0.0632 -0.1811 -0.6972
  414MOL0     H54598  10.184   3.156   6.470  2.8204  2.4738  0.1068
  414MOL0     H54599   9.968   3.361   6.447 -2.1529 -0.0290 -0.9205
  414MOL0     H54600   9.956   3.188   6.401 -0.0999  0.6194 -2.5059
  414MOL0     H54601  10.054   3.138   6.129 -2.4393  1.7490 -0.9490
  414MOL0     H54602  10.229   3.179   5.930  1.1450  0.2979  3.3968
  414MOL0     H54603  10.264   3.345   5.879 -0.2588  1.2171 -1.4823
  414MOL0     H54604  10.008   3.357   5.826 -1.5196 -0.9428 -0.3766
  414MOL0     H54605  10.029   3.179   5.831 -0.0233  0.6371  0.9009
  414MOL0     H54606  10.240   3.330   5.681  0.0210  0.5243 -1.3280
  414MOL0     H54607  10.166   3.185   5.635 -3.0025 -0.6473 -2.3795
  414MOL0     H54608  10.111   3.379   5.475  1.0659 -4.6214 -1.1294
  414MOL0     H54609  10.010   3.448   5.605  0.8074  0.5667 -1.2759
  414MOL0     H54610   9.883   3.491   5.424 -1.2207  1.5816  0.1425
  414MOL0     H54611   9.686   3.534   5.303 -2.2385 -0.7224 -0.3175
  414MOL0     H54612   9.282   3.476   5.099 -0.8046 -1.6078 -3.8302
  414MOL0     H54613   9.048   3.491   5.029 -0.2456 -0.3900  0.0988
  414MOL0     H54614   8.721   3.346   5.005  2.9979 -1.6450 -1.9327
  414MOL0     H54615   8.871   3.398   4.953  0.3500  0.7385 -0.7628
  414MOL0     H54616   8.727   3.582   4.910 -1.3517 -1.9817 -0.4751
  414MOL0     H54617   8.839   3.633   5.036  0.0701 -0.1495  0.4727
  414MOL0     H54618   8.641   3.576   5.196  2.4320 -4.0495 -1.4844
  414MOL0     H54619   8.555   3.532   5.051  1.5440 -1.1383  0.8814
  414MOL0     H54620   8.660   3.816   5.139  0.8182  0.3032 -1.6685
  414MOL0     H54621   8.609   3.774   4.973  0.2380  1.6811 -0.0844
  414MOL0     H54622   8.428   3.753   5.216  0.8217 -2.0666 -0.5386
  414MOL0     H54623   8.386   3.695   5.059  1.8367 -2.8380  2.1248
  414MOL0     H54624   8.430   3.984   5.136 -1.4307 -1.0431  0.9630
  414MOL0     H54625   8.271   3.906   5.096 -0.3921 -0.5899 -1.1529
  414MOL0     H54626   8.352   4.032   4.891 -0.4043 -1.6449 -2.1729
  414MOL0     H54627   8.511   3.963   4.904  0.0642  0.2086  0.8189
  414MOL0     H54628   8.399   3.744   4.837 -1.3820 -1.1078  0.2760
  414MOL0     H54629   8.364   3.875   4.728  3.9144 -0.6848  1.0018
  414MOL0     H54630   8.930   3.263   5.369 -0.6790  1.6278  0.1586
  414MOL0     H54631   9.175   3.243   5.429  1.9038 -1.2168  0.1182
  414MOL0     H54632   9.568   3.126   5.404  1.9616 -1.2360 -0.8115
  414MOL0     H54633   9.771   3.087   5.497 -2.2387 -1.2691 -1.1810
  414MOL0     H54634  10.571   2.840   7.164 -0.4724  0.0656  1.2536
  414MOL0     H54635  10.662   2.794   7.394 -0.8159  0.0885 -0.8886
  414MOL0     H54636  10.966   2.553   7.631  2.2855 -0.4813 -0.9067
  414MOL0     H54637  11.069   2.503   7.851 -1.8701  0.2967 -0.4854
  414MOL0     H54638  11.229   2.855   8.095 -1.3083  0.2268 -1.8532
  414MOL0     H54639  11.358   2.799   7.979 -0.5490 -0.5067  0.0302
  414MOL0     H54640  11.281   2.702   8.246  0.8343  1.0358 -0.3853
  414MOL0     H54641  11.384   2.605   8.139  0.5471  0.9980 -3.6496
  414MOL0     H54642  11.464   2.847   8.283  0.0969 -0.1468  1.3029
  414MOL0     H54643  11.542   2.816   8.119 -2.3731 -0.2874 -0.4209
  414MOL0     H54644  11.684   2.752   8.309  3.3576 -3.6023 -0.7624
  414MOL0     H54645  11.557   2.643   8.373 -0.1031 -0.6169 -0.6520
  414MOL0     H54646  11.731   2.397   8.119  1.8023 -0.0746  0.5128
  414MOL0     H54647  11.181   2.924   7.881  0.7527  1.9872 -4.2529
  414MOL0     H54648  11.070   2.962   7.670  1.8467  0.0506  2.2440
  415MOL0     O54649  10.997   4.452   5.903  0.2192  0.4515  0.1273
  415MOL0     C54650  10.964   4.405   6.015 -0.0399 -0.5408 -0.2044
  415MOL0     O54651  11.050   4.371   6.116  0.0651 -1.3689  0.7858
  415MOL0     C54652  11.179   4.413   6.113 -0.0308 -0.5568  0.4694
  415MOL0     C54653  11.198   4.545   6.152  0.4562 -1.2002  0.7800
  415MOL0     C54654  11.314   4.606   6.127 -0.7102 -0.3461  1.0612
  415MOL0     C54655  11.420   4.534   6.066 -0.5463  1.2329  0.0440
  415MOL0     O54656  11.537   4.599   6.024 -0.3262 -0.4827 -0.1229
  415MOL0     C54657  11.661   4.521   6.046 -0.0631 -0.0366 -0.3071
  415MOL0     C54658  11.766   4.628   6.066  0.0230  0.2640  0.5350
  415MOL0     C54659  11.904   4.553   6.090  0.2125  0.1922  0.5045
  415MOL0     C54660  12.025   4.647   6.072 -0.0688 -0.2840  0.1311
  415MOL0     C54661  12.153   4.565   6.100 -0.3420 -0.1277 -0.2284
  415MOL0     C54662  12.184   4.559   6.251 -0.0500  0.5406 -0.1025
  415MOL0     C54663  12.309   4.490   6.289  0.2225  0.0364  0.0358
  415MOL0     C54664  12.434   4.585   6.265 -0.6698 -0.0145 -0.7372
  415MOL0     N54665  12.557   4.518   6.306  0.2686 -0.5444  0.2206
  415MOL0     C54666  12.627   4.549   6.416  0.0539  0.0360  0.4472
  415MOL0     C54667  12.726   4.457   6.421 -0.9287 -0.5626 -0.4054
  415MOL0     C54668  12.841   4.461   6.516 -0.5921  0.7183  0.0192
  415MOL0     C54669  12.905   4.321   6.520  0.2482  0.0456  0.9638
  415MOL0     C54670  13.045   4.331   6.581  0.9120  1.3142  0.4008
  415MOL0     C54671  13.108   4.186   6.592 -0.4868 -0.4566 -1.2254
  415MOL0     O54672  13.221   4.191   6.684 -0.0705  0.6831  0.1889
  415MOL0     C54673  13.346   4.202   6.632  0.2315 -0.3961  0.5705
  415MOL0     C54674  13.398   4.332   6.624 -0.0597  0.6115  0.6368
  415MOL0     C54675  13.517   4.356   6.553  0.4760 -0.0355 -0.6107
  415MOL0     C54676  13.587   4.251   6.491 -0.0434 -0.2209  0.3539
  415MOL0     C54677  13.695   4.286   6.391  0.9552 -0.1278  0.1548
  415MOL0     O54678  13.712   4.424   6.382 -0.2993  0.4177 -0.0293
  415MOL0     C54679  13.773   4.462   6.265 -0.0595 -0.0872  0.7259
  415MOL0     C54680  13.907   4.492   6.261  0.4156  0.5696 -0.0366
  415MOL0     C54681  13.966   4.518   6.137 -0.0039  0.8338  0.2050
  415MOL0     C54682  13.892   4.513   6.017  0.4606  0.1604 -0.0530
  415MOL0     O54683  13.947   4.521   5.891 -0.5526 -0.8539 -0.2052
  415MOL0     C54684  14.062   4.612   5.878 -0.1588 -0.7642  0.7233
  415MOL0     C54685  14.082   4.624   5.725 -0.1904  0.3750  0.3739
  415MOL0     C54686  14.179   4.725   5.691  0.4621 -0.4999  1.0325
  415MOL0     C54687  14.143   4.779   5.548 -0.6001  0.4116  0.6064
  415MOL0     C54688  14.256   4.842   5.466 -0.1661  0.9908 -0.0781
  415MOL0     C54689  14.301   4.971   5.528  0.1244 -0.6732  0.0555
  415MOL0     C54690  14.401   5.042   5.441  0.0755 -0.7433 -0.3777
  415MOL0     C54691  14.445   5.179   5.502  0.0212 -0.4389 -0.2627
  415MOL0    Cl54692  14.554   5.261   5.392 -0.2136  0.3788  0.2422
  415MOL0     C54693  13.750   4.499   6.029  1.0278 -0.1370  0.1977
  415MOL0     C54694  13.695   4.464   6.150 -0.5399  0.6555 -0.2640
  415MOL0     O54695  13.738   4.199   6.313 -0.2605 -0.4181 -0.4443
  415MOL0     C54696  13.552   4.114   6.519 -0.8431  0.0503  0.1999
  415MOL0     C54697  13.426   4.092   6.583 -0.6727 -0.5557  0.1573
  415MOL0     N54698  12.700   4.363   6.316 -0.0566 -0.1019  0.0166
  415MOL0     N54699  12.600   4.402   6.251 -0.7830  0.3003 -0.4860
  415MOL0     C54700  11.403   4.394   6.036 -0.2545 -0.4916 -0.1463
  415MOL0     C54701  11.286   4.337   6.066 -0.0296  0.0265 -0.2090
  415MOL0     C54702  10.817   4.369   6.027 -0.2295 -0.6659  0.1736
  415MOL0     C54703  10.724   4.418   5.938 -0.0931 -1.0458  1.1772
  415MOL0     C54704  10.584   4.395   5.962  0.0765  0.3462 -0.4027
  415MOL0     C54705  10.541   4.314   6.069 -0.0240 -0.5479 -0.4439
  415MOL0     O54706  10.418   4.272   6.104 -0.2913  0.3365  0.6275
  415MOL0     C54707  10.331   4.275   5.993 -0.1993 -0.2398 -0.2378
  415MOL0     C54708  10.197   4.217   6.029 -0.0230  0.5453 -0.6981
  415MOL0     C54709  10.130   4.282   6.145  0.9715  0.5441 -0.3535
  415MOL0     C54710  10.082   4.166   6.237 -0.6609  0.2868 -0.4205
  415MOL0     C54711   9.978   4.097   6.165  0.8096 -0.8827  0.4410
  415MOL0     C54712   9.891   4.056   6.085  1.0002  0.0933  0.3636
  415MOL0     C54713  10.642   4.258   6.156 -0.2151 -0.1484 -0.6405
  415MOL0     C54714  10.773   4.287   6.137 -0.3988  0.3196 -0.0978
  415MOL0     H54715  11.120   4.606   6.196  1.5445  0.4876  0.4948
  415MOL0     H54716  11.326   4.710   6.152 -0.1727 -0.2709  0.4975
  415MOL0     H54717  11.686   4.452   5.964 -0.5589 -0.0759 -0.4243
  415MOL0     H54718  11.649   4.470   6.142 -0.8982 -0.0942 -0.4355
  415MOL0     H54719  11.759   4.693   6.154  5.2238  1.4451  0.3865
  415MOL0     H54720  11.777   4.698   5.983  2.8598 -1.8370 -1.0147
  415MOL0     H54721  11.913   4.478   6.012  0.7077 -0.7412  1.4297
  415MOL0     H54722  11.906   4.514   6.192  2.3758 -0.0806  0.4025
  415MOL0     H54723  12.025   4.682   5.968 -0.4756  1.9214  0.8218
  415MOL0     H54724  12.026   4.732   6.141 -0.5273 -1.4746  1.6561
  415MOL0     H54725  12.236   4.621   6.055 -0.1125  0.0621  0.4204
  415MOL0     H54726  12.152   4.468   6.050 -1.7869 -0.2714  0.0309
  415MOL0     H54727  12.102   4.503   6.297  0.0147  0.4412 -0.1063
  415MOL0     H54728  12.195   4.660   6.290  0.9694  0.1662  0.6420
  415MOL0     H54729  12.314   4.464   6.395  2.3137 -0.8546 -0.2420
  415MOL0     H54730  12.316   4.395   6.235 -0.3638 -1.1145  1.9052
  415MOL0     H54731  12.416   4.670   6.332  0.7874 -1.2384  1.3343
  415MOL0     H54732  12.438   4.615   6.160 -0.2224  0.4400 -0.5926
  415MOL0     H54733  12.597   4.632   6.479 -1.0594  0.1945 -0.2729
  415MOL0     H54734  12.793   4.487   6.611 -2.4534  3.7325 -1.5604
  415MOL0     H54735  12.921   4.531   6.489  0.8731 -0.9651 -0.1542
  415MOL0     H54736  12.924   4.282   6.420  0.4728  0.4165  0.8624
  415MOL0     H54737  12.849   4.244   6.575  0.4951  0.1630  1.3862
  415MOL0     H54738  13.110   4.395   6.520 -0.2051  3.9938  1.8334
  415MOL0     H54739  13.040   4.365   6.685  2.1983  1.8760  0.2971
  415MOL0     H54740  13.136   4.152   6.492  4.9311 -3.1912  0.7909
  415MOL0     H54741  13.038   4.124   6.648 -0.3797  0.9366  0.5810
  415MOL0     H54742  13.357   4.419   6.676 -0.8835 -0.1938  1.3755
  415MOL0     H54743  13.557   4.457   6.550 -1.6114  0.9053  0.9781
  415MOL0     H54744  13.957   4.479   6.357 -0.0641  2.2167  0.4810
  415MOL0     H54745  14.074   4.514   6.128 -0.1742  0.4424 -2.7559
  415MOL0     H54746  14.154   4.583   5.929  0.1383 -0.0077  0.6239
  415MOL0     H54747  14.044   4.714   5.913  1.1308 -0.4291  0.4401
  415MOL0     H54748  13.984   4.652   5.684 -1.8824 -0.4083  3.5812
  415MOL0     H54749  14.106   4.526   5.682  1.6057  0.5451  0.9418
  415MOL0     H54750  14.281   4.687   5.696  0.8025  0.5358  2.9143
  415MOL0     H54751  14.185   4.816   5.751  1.2246  2.6347 -3.2966
  415MOL0     H54752  14.099   4.701   5.486 -0.0845 -2.0367  3.1397
  415MOL0     H54753  14.067   4.858   5.560 -0.6491  0.1606  2.1435
  415MOL0     H54754  14.230   4.855   5.361 -1.2813  1.1192  0.1952
  415MOL0     H54755  14.341   4.773   5.466 -0.1116  1.0470  0.5152
  415MOL0     H54756  14.345   4.960   5.628 -0.1599  2.7975  0.7135
  415MOL0     H54757  14.210   5.031   5.532  0.7756  0.2889  1.2692
  415MOL0     H54758  14.489   4.981   5.417 -1.0957 -1.5901 -2.7938
  415MOL0     H54759  14.356   5.059   5.344 -0.2842 -1.4647 -0.3419
  415MOL0     H54760  14.490   5.173   5.602  0.2320  0.3131 -0.3131
  415MOL0     H54761  14.358   5.245   5.507 -3.1630 -4.3263  1.3605
  415MOL0     H54762  13.695   4.505   5.936 -0.7620 -0.0735  1.2163
  415MOL0     H54763  13.594   4.425   6.152  0.1866 -1.4298  2.2598
  415MOL0     H54764  13.591   4.031   6.461  0.5273 -0.7857  2.2105
  415MOL0     H54765  13.390   3.990   6.592 -1.2572 -0.2796  1.1616
  415MOL0     H54766  11.485   4.349   5.981  1.7362  2.5179  0.0768
  415MOL0     H54767  11.267   4.234   6.036 -0.8661 -0.4522  1.7621
  415MOL0     H54768  10.756   4.476   5.852 -1.0312  1.3364  2.3673
  415MOL0     H54769  10.521   4.440   5.886 -0.3549  1.5886  0.6611
  415MOL0     H54770  10.363   4.228   5.900  0.3059 -1.1332  0.3782
  415MOL0     H54771  10.314   4.381   5.969  1.7870  0.4585  1.1117
  415MOL0     H54772  10.128   4.230   5.945 -3.1855 -0.0407  1.6121
  415MOL0     H54773  10.203   4.109   6.045 -2.5784  0.9292  5.7298
  415MOL0     H54774  10.045   4.340   6.107 -1.1387 -0.6177  2.2509
  415MOL0     H54775  10.187   4.353   6.206  0.8419 -0.0053  0.4287
  415MOL0     H54776  10.168   4.100   6.250  1.8838  3.3317 -0.7229
  415MOL0     H54777  10.042   4.195   6.335 -2.6877 -1.2952 -0.7073
  415MOL0     H54778   9.824   4.018   6.011  0.0296  2.3176  0.0326
  415MOL0     H54779  10.611   4.215   6.251  1.9171  1.2841  0.7887
  415MOL0     H54780  10.851   4.251   6.203  0.9121  2.0127 -0.6617
  416MOL0     O54781   2.328  10.035   0.588 -0.0235  0.3094 -0.0091
  416MOL0     C54782   2.357   9.970   0.490  0.5222 -0.0931 -0.1731
  416MOL0     O54783   2.393   9.834   0.492  0.4124 -0.3839 -0.3818
  416MOL0     C54784   2.421   9.760   0.599  0.1831  0.5757  0.2082
  416MOL0     C54785   2.473   9.815   0.720 -0.3150  1.3313 -0.8230
  416MOL0     C54786   2.504   9.732   0.832 -1.2316 -1.1184 -0.2721
  416MOL0     C54787   2.478   9.592   0.823  0.3052  0.0999 -0.8193
  416MOL0     O54788   2.503   9.522   0.936 -0.5159 -0.1084  0.6447
  416MOL0     C54789   2.432   9.399   0.950  0.7524 -0.5421 -0.4760
  416MOL0     C54790   2.466   9.321   1.080  1.3527 -0.5405 -0.7380
  416MOL0     C54791   2.615   9.309   1.108 -0.1631  0.6886 -0.7763
  416MOL0     C54792   2.663   9.395   1.229 -0.2711 -0.1314  0.0869
  416MOL0     C54793   2.672   9.535   1.180 -0.5509 -0.1208  0.1216
  416MOL0     C54794   2.723   9.632   1.293  0.5195  0.0911 -0.5593
  416MOL0     C54795   2.659   9.771   1.277 -0.0107  0.2520 -0.4903
  416MOL0     C54796   2.746   9.858   1.191 -0.9712 -0.7259 -0.0147
  416MOL0     N54797   2.724  10.000   1.213  0.0385 -0.2311  0.0831
  416MOL0     C54798   2.734  10.068   1.331  1.5646  0.1060  0.7810
  416MOL0     C54799   2.692  10.196   1.307  0.0834 -0.0740  0.5939
  416MOL0     C54800   2.698  10.306   1.418 -0.8847  0.4222 -0.3622
  416MOL0     C54801   2.594  10.265   1.525 -0.3596 -0.5134 -0.0606
  416MOL0     C54802   2.608  10.353   1.652  0.0350  0.0707 -0.1327
  416MOL0     C54803   2.604  10.278   1.784  0.1842 -0.7487  0.0281
  416MOL0     O54804   2.483  10.214   1.812 -0.1589 -0.2427  0.1412
  416MOL0     C54805   2.477  10.121   1.916 -0.2837 -0.1120 -0.2013
  416MOL0     C54806   2.576  10.079   1.998 -0.4941  0.2826 -0.0399
  416MOL0     C54807   2.549   9.980   2.090  0.0682  0.3492  0.0574
  416MOL0     C54808   2.421   9.917   2.102  0.3516 -0.6183 -0.9074
  416MOL0     C54809   2.396   9.807   2.201 -0.6234  0.2355  0.6440
  416MOL0     O54810   2.517   9.751   2.247 -0.1334  0.8827 -1.1027
  416MOL0     C54811   2.504   9.648   2.346  0.3721  0.7188 -0.1077
  416MOL0     C54812   2.578   9.669   2.466 -0.3786  0.5085  0.8131
  416MOL0     C54813   2.605   9.569   2.559  0.4091 -0.6371  0.8438
  416MOL0     C54814   2.526   9.449   2.549  0.4281  0.2203  0.0658
  416MOL0     O54815   2.537   9.343   2.639  0.5938 -0.0497  0.5861
  416MOL0     C54816   2.665   9.305   2.689 -0.2472 -0.4379 -0.9662
  416MOL0     C54817   2.695   9.158   2.658 -0.5104  0.2538 -0.6450
  416MOL0     C54818   2.826   9.117   2.730  0.8015  0.6693  0.8556
  416MOL0     C54819   2.942   9.218   2.716  0.1332  0.0033  0.5744
  416MOL0     C54820   3.083   9.159   2.773 -0.9851  0.5231 -0.0713
  416MOL0     C54821   3.179   9.258   2.832 -0.5661 -0.7688 -0.2143
  416MOL0     C54822   3.266   9.343   2.736 -0.1509 -0.8453 -1.1619
  416MOL0     C54823   3.398   9.390   2.813  0.8267 -0.1217 -0.7640
  416MOL0    Cl54824   3.536   9.408   2.700  0.0477 -0.3991  0.1015
  416MOL0     C54825   2.441   9.431   2.443  0.0061 -0.1762  0.1440
  416MOL0     C54826   2.437   9.522   2.339  0.6953 -0.1801  0.7765
  416MOL0     O54827   2.280   9.768   2.217  0.0795  0.5353 -0.6700
  416MOL0     C54828   2.314   9.980   2.031 -0.4667  0.7946 -0.2482
  416MOL0     C54829   2.352  10.079   1.946 -0.4467 -0.5995  1.1091
  416MOL0     N54830   2.672  10.202   1.172  0.2545  0.1817  0.4034
  416MOL0     N54831   2.694  10.088   1.113 -0.3572 -0.7505 -0.4573
  416MOL0     C54832   2.428   9.539   0.702 -0.1943 -0.0219 -0.7535
  416MOL0     C54833   2.405   9.622   0.595  0.2141 -0.0162 -0.0328
  416MOL0     C54834   2.350  10.045   0.356 -0.4623  0.4275  0.5902
  416MOL0     C54835   2.319  10.188   0.348 -1.1438 -0.1056 -0.0666
  416MOL0     C54836   2.322  10.253   0.222 -0.5481  0.2608 -0.6559
  416MOL0     C54837   2.360  10.184   0.113  0.6561 -0.4604  0.5251
  416MOL0     O54838   2.364  10.244  -0.013 -0.4300 -0.5480 -0.1650
  416MOL0     C54839   2.253  10.322  -0.046  0.9754  0.3753 -0.0424
  416MOL0     C54840   2.264  10.347  -0.193  0.6715 -0.3523  0.0303
  416MOL0     C54841   2.141  10.436  -0.255 -0.1558 -0.4125  0.2613
  416MOL0     C54842   2.128  10.573  -0.191 -0.0416 -0.6145 -0.2832
  416MOL0     C54843   2.248  10.662  -0.188  0.6356  0.1858  0.4135
  416MOL0     C54844   2.351  10.723  -0.176 -0.1357  0.0484 -0.2707
  416MOL0     C54845   2.387  10.054   0.118 -0.4067 -0.0720  0.0058
  416MOL0     C54846   2.367   9.973   0.232 -0.0103  0.3453 -0.4937
  416MOL0     H54847   2.488   9.922   0.735  1.8532  0.7694  1.7069
  416MOL0     H54848   2.549   9.775   0.921  0.8426  0.2362 -1.8783
  416MOL0     H54849   2.456   9.329   0.870  0.6778  0.7471 -1.6639
  416MOL0     H54850   2.323   9.412   0.945  1.0100  1.3975 -3.2279
  416MOL0     H54851   2.436   9.217   1.066  2.2348 -1.7631  4.3497
  416MOL0     H54852   2.400   9.360   1.157  1.7737  1.0812 -1.1741
  416MOL0     H54853   2.668   9.330   1.014 -1.6062 -2.6650 -2.4927
  416MOL0     H54854   2.642   9.207   1.134  0.0168  0.9306  0.0169
  416MOL0     H54855   2.597   9.370   1.313  0.4878 -0.7557  0.5281
  416MOL0     H54856   2.756   9.376   1.285 -1.3809  1.6210  2.7477
  416MOL0     H54857   2.571   9.556   1.146 -0.1047 -2.1489 -2.9479
  416MOL0     H54858   2.738   9.541   1.092 -2.4565  2.1178 -1.2673
  416MOL0     H54859   2.832   9.638   1.298  0.4216  1.8375  1.0720
  416MOL0     H54860   2.695   9.584   1.387  5.1250  1.5713  1.9136
  416MOL0     H54861   2.554   9.764   1.247  0.1843  0.0134 -1.1157
  416MOL0     H54862   2.662   9.811   1.379  1.7481 -0.3637 -0.2668
  416MOL0     H54863   2.734   9.838   1.084  1.7721  1.5848 -0.8865
  416MOL0     H54864   2.852   9.848   1.217 -0.4185 -1.7148 -2.3550
  416MOL0     H54865   2.761  10.019   1.424  0.0054  1.4098  1.9831
  416MOL0     H54866   2.675  10.406   1.379  1.8074  1.6660  0.9843
  416MOL0     H54867   2.798  10.316   1.460 -1.7044  4.5550  1.0332
  416MOL0     H54868   2.615  10.159   1.542  2.9644 -0.3402 -2.1089
  416MOL0     H54869   2.494  10.275   1.481 -0.5488  2.0324  0.7685
  416MOL0     H54870   2.703  10.407   1.653 -0.9090  1.7933 -0.0695
  416MOL0     H54871   2.528  10.425   1.636 -1.0901 -1.1985 -0.3539
  416MOL0     H54872   2.622  10.355   1.860 -0.7081 -0.0594 -0.4401
  416MOL0     H54873   2.683  10.203   1.802  1.4294  0.7409  1.1042
  416MOL0     H54874   2.679  10.112   1.990 -0.1030 -0.7493  0.6019
  416MOL0     H54875   2.642   9.948   2.138  0.6050  0.8349 -0.6306
  416MOL0     H54876   2.644   9.755   2.465 -1.2078  1.2345 -2.2693
  416MOL0     H54877   2.665   9.586   2.648  0.6790 -4.0617  1.4555
  416MOL0     H54878   2.679   9.320   2.797  3.7611 -1.4803 -1.1826
  416MOL0     H54879   2.741   9.373   2.648 -1.1190 -0.0781 -2.0350
  416MOL0     H54880   2.713   9.137   2.552  2.0723 -2.4109  0.1998
  416MOL0     H54881   2.611   9.093   2.684  1.1183 -2.0326 -0.7990
  416MOL0     H54882   2.856   9.022   2.685 -0.4976 -0.4103  2.1687
  416MOL0     H54883   2.814   9.094   2.836  1.8642  1.0796  1.0749
  416MOL0     H54884   2.961   9.242   2.611  0.7391  0.1671  0.7164
  416MOL0     H54885   2.912   9.309   2.771  0.3380 -1.0630  2.5457
  416MOL0     H54886   3.135   9.093   2.703 -0.4011 -2.0122  2.5738
  416MOL0     H54887   3.047   9.093   2.852 -0.2576  0.1841 -0.0207
  416MOL0     H54888   3.247   9.192   2.887  1.0518 -1.3320 -2.7447
  416MOL0     H54889   3.111   9.310   2.900 -2.6875 -2.5047 -0.8936
  416MOL0     H54890   3.295   9.293   2.643 -1.7384 -1.1357 -1.5407
  416MOL0     H54891   3.201   9.422   2.697  1.6103  1.0287 -0.4362
  416MOL0     H54892   3.431   9.322   2.892  1.4012  0.6493 -0.3361
  416MOL0     H54893   3.350   9.479   2.853 -2.7345 -2.0147 -0.4512
  416MOL0     H54894   2.394   9.335   2.426 -1.4999  0.7317 -1.2558
  416MOL0     H54895   2.376   9.493   2.254 -1.2384  1.5946  1.4706
  416MOL0     H54896   2.210   9.950   2.040 -0.3502 -0.0638 -1.4842
  416MOL0     H54897   2.273  10.124   1.887  2.1251 -0.9560 -3.0064
  416MOL0     H54898   2.406   9.433   0.693  2.3975 -0.8091  1.0951
  416MOL0     H54899   2.364   9.582   0.503  1.2680  0.7794 -0.8795
  416MOL0     H54900   2.329  10.243   0.441 -0.7868  2.0361 -1.3036
  416MOL0     H54901   2.303  10.360   0.214 -2.4726  0.0288  0.3167
  416MOL0     H54902   2.248  10.415   0.011 -0.4418  0.3230 -0.0500
  416MOL0     H54903   2.165  10.262  -0.020  1.1746 -0.1495 -0.5585
  416MOL0     H54904   2.361  10.390  -0.221  0.4250 -1.2066 -2.3723
  416MOL0     H54905   2.265  10.248  -0.242 -0.4209  0.0971 -0.9481
  416MOL0     H54906   2.047  10.382  -0.239 -0.2871 -0.4992 -0.7100
  416MOL0     H54907   2.144  10.451  -0.364  1.9358  1.0958  0.4534
  416MOL0     H54908   2.045  10.618  -0.246  0.8249 -1.9157 -2.7713
  416MOL0     H54909   2.098  10.561  -0.086  4.8532  1.1512  1.6315
  416MOL0     H54910   2.445  10.774  -0.162 -0.1006 -0.4248  1.5170
  416MOL0     H54911   2.432  10.013   0.028  0.8917  1.3478 -0.0319
  416MOL0     H54912   2.397   9.869   0.234 -0.8313  0.0945 -0.5128
  417MOL0     O54913   2.331   2.676   3.575  0.2940  0.0864  0.4062
  417MOL0     C54914   2.362   2.567   3.517 -0.1688  0.1887  0.4929
  417MOL0     O54915   2.492   2.546   3.471 -0.6715  0.8897 -0.4062
  417MOL0     C54916   2.603   2.571   3.544 -0.3525 -0.1601 -0.2130
  417MOL0     C54917   2.608   2.596   3.683 -0.0814  0.2929  0.0522
  417MOL0     C54918   2.729   2.609   3.758 -0.2699 -0.7154  0.7066
  417MOL0     C54919   2.858   2.602   3.682 -0.1634  0.9111 -1.1034
  417MOL0     O54920   2.982   2.593   3.739  0.0708  0.0170 -0.7436
  417MOL0     C54921   2.986   2.671   3.860  0.1970  0.2265 -0.3042
  417MOL0     C54922   3.128   2.696   3.926  0.5478 -0.1609 -0.1462
  417MOL0     C54923   3.155   2.582   4.019  0.7022 -0.0005 -0.0502
  417MOL0     C54924   3.254   2.600   4.128  0.6336 -0.5156 -0.2134
  417MOL0     C54925   3.302   2.463   4.181  0.2404 -0.4037  0.4111
  417MOL0     C54926   3.408   2.497   4.291 -0.0871  0.0054  0.6003
  417MOL0     C54927   3.383   2.393   4.401  0.5481 -0.0508  0.1210
  417MOL0     C54928   3.497   2.407   4.505  0.2501 -0.3740 -0.4811
  417MOL0     N54929   3.621   2.355   4.458  0.1252  0.5765  0.3326
  417MOL0     C54930   3.647   2.220   4.427 -1.4388  1.0901 -0.9670
  417MOL0     C54931   3.779   2.215   4.386  1.4404 -0.0318  0.6580
  417MOL0     C54932   3.862   2.101   4.340  0.7227  0.0725  0.3278
  417MOL0     C54933   3.849   2.087   4.180 -0.4872 -0.0568  0.8359
  417MOL0     C54934   3.876   2.220   4.100 -0.1977  0.2309  0.5234
  417MOL0     C54935   3.900   2.191   3.958 -0.3263  0.1878  0.2977
  417MOL0     O54936   3.780   2.124   3.903 -0.1595 -0.1861  0.0139
  417MOL0     C54937   3.800   2.040   3.796 -0.4134 -0.2057 -0.2749
  417MOL0     C54938   3.914   2.056   3.716 -0.5523  0.5206 -0.0023
  417MOL0     C54939   3.936   1.958   3.619  0.4614 -0.6016 -1.1037
  417MOL0     C54940   3.838   1.858   3.596  0.1912 -0.1842  0.0470
  417MOL0     C54941   3.862   1.752   3.500  0.2365  0.3261 -0.2884
  417MOL0     O54942   3.997   1.724   3.475 -0.2230  0.5322  0.2489
  417MOL0     C54943   4.038   1.645   3.372 -0.3976  1.2042  0.3139
  417MOL0     C54944   3.970   1.551   3.293  0.6286 -0.8013  0.1776
  417MOL0     C54945   4.031   1.492   3.191 -1.1305  0.0985 -0.9186
  417MOL0     C54946   4.165   1.524   3.152 -0.7543 -0.1567 -0.8759
  417MOL0     O54947   4.217   1.462   3.043 -0.7099  0.6531  0.3367
  417MOL0     C54948   4.339   1.391   3.063  0.4206  0.4080  0.3526
  417MOL0     C54949   4.364   1.312   2.928 -0.1827  0.2670  0.3581
  417MOL0     C54950   4.431   1.387   2.809 -0.0294  0.2858 -0.6514
  417MOL0     C54951   4.420   1.307   2.684 -0.4998 -1.0721  1.1209
  417MOL0     C54952   4.457   1.385   2.544 -0.0515  0.3951  0.3627
  417MOL0     C54953   4.602   1.435   2.538 -0.4544  0.3931  0.3048
  417MOL0     C54954   4.622   1.511   2.411  0.1264  0.3336 -0.7517
  417MOL0     C54955   4.745   1.590   2.421  0.3208  0.1150 -0.1110
  417MOL0    Cl54956   4.880   1.480   2.407  0.0101 -0.2998 -0.3501
  417MOL0     C54957   4.238   1.604   3.240 -0.5118  0.0768 -0.1493
  417MOL0     C54958   4.177   1.662   3.349  0.9544  0.4531 -0.1798
  417MOL0     O54959   3.767   1.693   3.452  0.6915 -0.1673 -0.0163
  417MOL0     C54960   3.716   1.860   3.668 -0.0695 -0.5684  0.1401
  417MOL0     C54961   3.699   1.953   3.772 -0.2284  0.3209  0.1596
  417MOL0     N54962   3.825   2.339   4.383 -0.5029  0.6778  1.0868
  417MOL0     N54963   3.737   2.421   4.422  0.7106 -0.4220 -0.3010
  417MOL0     C54964   2.847   2.598   3.548  0.6283 -0.3287 -0.4664
  417MOL0     C54965   2.729   2.576   3.483  0.3075  0.2753 -0.0967
  417MOL0     C54966   2.249   2.475   3.480  0.7096 -0.4136 -0.1757
  417MOL0     C54967   2.125   2.522   3.469  0.3774  0.5055 -0.7624
  417MOL0     C54968   2.018   2.442   3.427 -0.0150  0.1856 -0.1974
  417MOL0     C54969   2.047   2.311   3.383 -0.2346 -0.0849  0.1402
  417MOL0     O54970   1.942   2.243   3.321 -0.1570  0.4320 -0.2965
  417MOL0     C54971   1.905   2.118   3.375  0.4651  0.1148 -0.0168
  417MOL0     C54972   1.877   2.095   3.530 -0.7862 -0.3121  0.0511
  417MOL0     C54973   1.770   2.196   3.584  0.9660  0.6078  1.8104
  417MOL0     C54974   1.730   2.179   3.730 -0.3566 -0.8696  1.0596
  417MOL0     C54975   1.833   2.220   3.831  0.0522  0.0823 -0.2490
  417MOL0     C54976   1.930   2.240   3.906  0.4361 -0.2492 -0.0726
  417MOL0     C54977   2.175   2.251   3.392  0.5215  0.3528  0.0394
  417MOL0     C54978   2.276   2.337   3.438 -0.7935 -0.1506 -0.3189
  417MOL0     H54979   2.512   2.612   3.732 -0.3817  0.9624 -0.7390
  417MOL0     H54980   2.726   2.631   3.864 -2.7717  0.0052  0.5552
  417MOL0     H54981   2.906   2.640   3.928 -1.0288  1.0362 -1.3256
  417MOL0     H54982   2.950   2.771   3.835  1.0152  0.9619  1.3013
  417MOL0     H54983   3.130   2.789   3.984  1.8330 -0.2072 -0.0995
  417MOL0     H54984   3.207   2.708   3.852 -1.2863  3.5955 -1.7229
  417MOL0     H54985   3.179   2.503   3.947 -1.0255 -0.5751 -0.0553
  417MOL0     H54986   3.068   2.548   4.076 -0.8941  0.8495 -1.8318
  417MOL0     H54987   3.343   2.652   4.092  0.3721 -1.3142 -2.1182
  417MOL0     H54988   3.201   2.656   4.206 -2.2249  1.6738 -3.4321
  417MOL0     H54989   3.351   2.397   4.109 -1.6423 -0.2471 -1.0942
  417MOL0     H54990   3.211   2.422   4.226 -0.1113  1.3980  1.4350
  417MOL0     H54991   3.387   2.598   4.329 -2.5272  0.4607 -1.6352
  417MOL0     H54992   3.505   2.491   4.240 -0.8061 -0.9397 -0.7220
  417MOL0     H54993   3.279   2.398   4.436 -0.9696 -1.8653 -3.5040
  417MOL0     H54994   3.382   2.293   4.357 -4.1775  0.8711 -2.5785
  417MOL0     H54995   3.472   2.353   4.597  1.1850  0.6871  0.4175
  417MOL0     H54996   3.507   2.514   4.526  2.2297 -0.6799  0.3824
  417MOL0     H54997   3.576   2.138   4.434 -0.1511  0.0369  0.4318
  417MOL0     H54998   3.825   2.014   4.394  1.2615 -1.4295 -1.6140
  417MOL0     H54999   3.968   2.111   4.368  1.0585  0.2354 -0.9185
  417MOL0     H55000   3.749   2.047   4.164  0.0801 -0.8396 -1.1616
  417MOL0     H55001   3.918   2.012   4.140 -1.3721 -0.2190 -0.4732
  417MOL0     H55002   3.793   2.286   4.127  0.3275  0.6896  1.0661
  417MOL0     H55003   3.966   2.267   4.143 -1.6489  2.6529  1.1010
  417MOL0     H55004   3.986   2.124   3.947  0.3704  1.2410 -0.9322
  417MOL0     H55005   3.917   2.284   3.903 -0.0680 -0.9224 -1.5609
  417MOL0     H55006   3.986   2.137   3.724  2.0278 -1.8088  2.6868
  417MOL0     H55007   4.026   1.960   3.558  2.5934  2.1719  1.8117
  417MOL0     H55008   3.868   1.520   3.311  0.4639 -0.0179  0.6547
  417MOL0     H55009   3.978   1.414   3.137  0.5665 -1.1028 -0.9275
  417MOL0     H55010   4.331   1.335   3.156  0.9391  1.1496  0.8494
  417MOL0     H55011   4.423   1.460   3.072  0.2376  0.8206 -0.8423
  417MOL0     H55012   4.275   1.257   2.898  0.5014 -0.3500 -0.5822
  417MOL0     H55013   4.446   1.244   2.953  0.6266  0.4968 -1.5248
  417MOL0     H55014   4.535   1.414   2.830  0.2409 -0.1653 -1.3597
  417MOL0     H55015   4.374   1.480   2.804  1.7997  1.7920  2.9020
  417MOL0     H55016   4.487   1.221   2.696  0.7127 -0.6949 -2.1662
  417MOL0     H55017   4.315   1.279   2.673 -0.6239  0.2110 -1.5593
  417MOL0     H55018   4.389   1.469   2.529 -1.4472 -0.2448  2.5579
  417MOL0     H55019   4.450   1.310   2.464  3.4960  0.4074 -0.0998
  417MOL0     H55020   4.687   1.368   2.556  1.9759  2.0768 -3.5856
  417MOL0     H55021   4.595   1.509   2.618 -2.0035  0.9161 -0.2830
  417MOL0     H55022   4.623   1.442   2.326  0.8498 -0.4463 -0.1315
  417MOL0     H55023   4.542   1.585   2.414  1.5026  2.0375  4.3449
  417MOL0     H55024   4.746   1.650   2.513  0.1929  2.5348 -1.5940
  417MOL0     H55025   4.747   1.662   2.339  1.7190  0.6558  0.3562
  417MOL0     H55026   4.344   1.612   3.221  0.0507  0.4889  2.6242
  417MOL0     H55027   4.229   1.735   3.412  2.3317 -1.0091  0.4382
  417MOL0     H55028   3.641   1.784   3.651  1.2023 -1.6769 -0.7173
  417MOL0     H55029   3.620   1.943   3.846 -1.1877  0.2885 -0.8440
  417MOL0     H55030   2.926   2.606   3.475 -3.0874  2.0631 -4.7300
  417MOL0     H55031   2.725   2.578   3.375 -2.9181  1.9986 -0.0858
  417MOL0     H55032   2.109   2.626   3.497  2.4819  0.9333 -1.0043
  417MOL0     H55033   1.916   2.479   3.428  0.6790  2.6099  3.4714
  417MOL0     H55034   1.995   2.060   3.354  0.9385  0.3071  1.4010
  417MOL0     H55035   1.820   2.078   3.318 -3.2084  1.1349  4.1796
  417MOL0     H55036   1.842   1.992   3.535 -3.5636  0.2605 -3.2525
  417MOL0     H55037   1.974   2.112   3.579 -0.7171  1.4131 -0.6002
  417MOL0     H55038   1.677   2.178   3.529  0.5730  2.5420  1.7455
  417MOL0     H55039   1.795   2.299   3.555  0.9993  0.7684  2.3992
  417MOL0     H55040   1.637   2.232   3.751 -1.0733 -0.5197 -2.4059
  417MOL0     H55041   1.709   2.072   3.735  2.5505 -1.7284 -1.5642
  417MOL0     H55042   2.008   2.272   3.972  1.5621  0.9602 -1.8631
  417MOL0     H55043   2.188   2.150   3.354 -3.4842  0.8577 -3.4594
  417MOL0     H55044   2.382   2.312   3.435 -0.1928  2.3037 -1.8244
  418MOL0     O55045   4.180   7.493   2.060  0.8278  0.6412 -0.7709
  418MOL0     C55046   4.270   7.444   2.120  0.2170 -1.1226  0.6224
  418MOL0     O55047   4.259   7.353   2.219  0.5364  0.4281 -0.0862
  418MOL0     C55048   4.144   7.353   2.302  0.4037  0.4274  0.3824
  418MOL0     C55049   4.080   7.472   2.342 -0.1109  0.4069 -0.5067
  418MOL0     C55050   3.954   7.460   2.408 -0.7888 -0.1567  0.0172
  418MOL0     C55051   3.900   7.333   2.443 -0.1446 -0.5035 -0.0020
  418MOL0     O55052   3.775   7.339   2.491 -0.5259 -0.0528 -0.3396
  418MOL0     C55053   3.710   7.213   2.521 -0.1437  1.4957  0.2667
  418MOL0     C55054   3.563   7.237   2.559  0.3883  0.1764  0.3437
  418MOL0     C55055   3.545   7.304   2.705  0.7550 -0.2753 -0.6700
  418MOL0     C55056   3.416   7.269   2.772  0.6781  0.3566  0.0387
  418MOL0     C55057   3.299   7.334   2.692  0.1989 -0.6466 -0.4941
  418MOL0     C55058   3.169   7.278   2.748 -1.1792 -0.6811 -0.3519
  418MOL0     C55059   3.055   7.345   2.683  0.6640 -0.1910  0.1896
  418MOL0     C55060   2.918   7.294   2.718  0.0286 -0.8654  0.2650
  418MOL0     N55061   2.874   7.333   2.852  0.1280  0.4719  0.0398
  418MOL0     C55062   2.763   7.270   2.909  0.2512 -0.2523  0.3134
  418MOL0     C55063   2.730   7.344   3.011  0.1951  0.1593 -0.3624
  418MOL0     C55064   2.603   7.324   3.089 -0.0596  0.2294 -0.0539
  418MOL0     C55065   2.492   7.381   3.012 -0.1231 -0.0370  0.6872
  418MOL0     C55066   2.377   7.425   3.101 -0.1392  0.1388 -0.2004
  418MOL0     C55067   2.304   7.317   3.169  0.2492  0.4762 -0.7769
  418MOL0     O55068   2.374   7.261   3.278  0.2560 -0.4609 -0.1131
  418MOL0     C55069   2.363   7.321   3.406  0.4379  0.9350  0.5565
  418MOL0     C55070   2.290   7.438   3.436 -0.2756 -0.1087 -0.7647
  418MOL0     C55071   2.284   7.489   3.564 -0.2280 -0.7041 -0.8747
  418MOL0     C55072   2.356   7.422   3.667 -0.5332 -0.7619 -0.9906
  418MOL0     C55073   2.355   7.461   3.816  0.2566  0.1003  0.7139
  418MOL0     O55074   2.337   7.356   3.903 -0.4108  0.0881  0.1175
  418MOL0     C55075   2.361   7.376   4.042  0.6624  0.4340 -0.3443
  418MOL0     C55076   2.282   7.300   4.129  0.2784 -0.2411 -1.4454
  418MOL0     C55077   2.320   7.289   4.262 -0.3380 -0.5159  1.0104
  418MOL0     C55078   2.428   7.354   4.318  0.7141 -0.4449 -0.4229
  418MOL0     O55079   2.473   7.345   4.447  0.1747  0.3291 -0.3582
  418MOL0     C55080   2.573   7.252   4.475  0.5102  0.6149 -0.3322
  418MOL0     C55081   2.649   7.309   4.590 -0.4210 -0.6928 -1.0514
  418MOL0     C55082   2.740   7.208   4.650  0.3550  0.0464  0.1832
  418MOL0     C55083   2.832   7.242   4.778  0.4600 -0.4620 -0.8927
  418MOL0     C55084   2.911   7.123   4.834  0.1790  0.4554 -0.3474
  418MOL0     C55085   2.825   7.026   4.909  0.1258 -0.5804  0.4048
  418MOL0     C55086   2.894   6.967   5.027  0.9232 -0.6958  0.2384
  418MOL0     C55087   2.811   6.869   5.114  0.0112  0.6853 -0.1720
  418MOL0    Cl55088   2.651   6.937   5.156 -0.1168  0.2162 -0.0032
  418MOL0     C55089   2.506   7.421   4.229 -0.9062  0.4335 -0.2956
  418MOL0     C55090   2.477   7.434   4.097 -0.1248 -0.0644  0.7796
  418MOL0     O55091   2.372   7.579   3.847 -0.6172 -0.7036  0.3458
  418MOL0     C55092   2.449   7.325   3.635  0.3685  0.5438  0.3360
  418MOL0     C55093   2.438   7.264   3.507 -0.9226  0.3662  0.2145
  418MOL0     N55094   2.821   7.455   3.020  0.5417 -0.2060 -0.6780
  418MOL0     N55095   2.904   7.445   2.921 -0.4243 -1.3496 -1.3698
  418MOL0     C55096   3.965   7.216   2.407 -0.9861  0.0550 -0.5950
  418MOL0     C55097   4.083   7.229   2.332 -1.3664  0.0168 -0.4128
  418MOL0     C55098   4.399   7.466   2.053  0.0961  0.4891  0.0159
  418MOL0     C55099   4.412   7.562   1.947 -0.5069  0.1493  0.4262
  418MOL0     C55100   4.541   7.569   1.884  0.0381  0.1175  0.4630
  418MOL0     C55101   4.637   7.481   1.916 -0.4526 -0.4368  0.0538
  418MOL0     O55102   4.754   7.505   1.844 -0.2224 -0.3394  0.2657
  418MOL0     C55103   4.853   7.394   1.845  0.5186 -0.0995 -0.1426
  418MOL0     C55104   4.965   7.433   1.755 -0.6570 -0.1343  0.0644
  418MOL0     C55105   4.924   7.418   1.614 -0.1526 -0.4121  0.0278
  418MOL0     C55106   5.022   7.496   1.522 -0.3268  0.1890 -0.5251
  418MOL0     C55107   5.152   7.433   1.523 -0.4319  0.5328  0.2817
  418MOL0     C55108   5.260   7.376   1.530  0.4841  0.5205 -0.2928
  418MOL0     C55109   4.629   7.389   2.016 -0.7772 -0.6255 -0.7727
  418MOL0     C55110   4.513   7.385   2.084 -0.7651 -0.3455  0.4373
  418MOL0     H55111   4.118   7.568   2.311 -2.8936  2.2267  1.3212
  418MOL0     H55112   3.893   7.549   2.423 -2.4330 -1.2668  0.1998
  418MOL0     H55113   3.767   7.151   2.591  1.0049  0.1748 -1.7649
  418MOL0     H55114   3.706   7.162   2.424 -2.5594  2.7031 -0.3577
  418MOL0     H55115   3.517   7.139   2.546  1.2918  0.0367 -2.2129
  418MOL0     H55116   3.517   7.304   2.486  1.4273 -1.3530 -1.8337
  418MOL0     H55117   3.546   7.412   2.687 -0.4118 -0.3008 -0.9196
  418MOL0     H55118   3.627   7.275   2.772 -1.6502 -0.7573  2.3192
  418MOL0     H55119   3.404   7.160   2.774  2.6348  0.1137  0.2797
  418MOL0     H55120   3.414   7.297   2.878 -0.0403  4.0271 -0.7958
  418MOL0     H55121   3.291   7.317   2.584 -4.5093  1.6504 -0.7709
  418MOL0     H55122   3.299   7.441   2.716 -2.0091 -0.8534  0.6243
  418MOL0     H55123   3.174   7.294   2.856  1.3619  2.7439 -0.8006
  418MOL0     H55124   3.169   7.170   2.728 -0.7491 -0.9373  0.9466
  418MOL0     H55125   3.059   7.452   2.704  0.3316  0.0795 -1.0606
  418MOL0     H55126   3.063   7.325   2.576  1.2892  0.1694  0.1645
  418MOL0     H55127   2.920   7.185   2.722 -0.3480 -0.9108 -0.6491
  418MOL0     H55128   2.859   7.326   2.632  0.4512  1.5762  0.8220
  418MOL0     H55129   2.714   7.180   2.871  1.9201 -1.9157  1.8830
  418MOL0     H55130   2.603   7.383   3.181 -3.2720 -0.1610  0.3285
  418MOL0     H55131   2.591   7.216   3.099  2.0916 -0.0469 -0.0963
  418MOL0     H55132   2.444   7.320   2.935  1.7246  1.4229 -1.7778
  418MOL0     H55133   2.526   7.468   2.954 -0.0715  0.9603  2.1830
  418MOL0     H55134   2.414   7.501   3.171  0.7917 -0.8748  0.4203
  418MOL0     H55135   2.304   7.470   3.032 -0.4992 -0.8024 -0.4434
  418MOL0     H55136   2.282   7.240   3.095  2.3319  0.5307 -1.5043
  418MOL0     H55137   2.208   7.357   3.203  1.2633  1.8160  0.6650
  418MOL0     H55138   2.229   7.477   3.355 -0.3487 -2.0657 -1.7093
  418MOL0     H55139   2.219   7.574   3.585  1.6483 -0.0123  3.0336
  418MOL0     H55140   2.196   7.242   4.098 -0.8988 -1.4798  3.4211
  418MOL0     H55141   2.260   7.238   4.337  1.2305 -1.2368  1.8298
  418MOL0     H55142   2.639   7.246   4.388 -0.1468 -1.5099 -0.7290
  418MOL0     H55143   2.522   7.157   4.494 -4.6049  2.9305 -1.0982
  418MOL0     H55144   2.574   7.342   4.663 -0.4379 -0.0386 -1.3556
  418MOL0     H55145   2.708   7.391   4.548 -0.6815 -1.1909 -2.4633
  418MOL0     H55146   2.816   7.186   4.573  0.2319  0.3314 -0.0202
  418MOL0     H55147   2.680   7.125   4.689 -0.7529  1.5193  1.7077
  418MOL0     H55148   2.907   7.319   4.758  0.8804 -0.6326 -0.0397
  418MOL0     H55149   2.766   7.285   4.854  0.7056  0.3366 -1.1315
  418MOL0     H55150   2.990   7.159   4.901 -0.6574 -1.1571  1.5999
  418MOL0     H55151   2.957   7.080   4.745  1.4702  0.0332  0.4983
  418MOL0     H55152   2.800   6.943   4.843  2.1283 -1.4695  0.7153
  418MOL0     H55153   2.730   7.072   4.940 -0.2478 -1.2736  0.3144
  418MOL0     H55154   2.988   6.925   4.992  2.2038  2.3424 -0.2700
  418MOL0     H55155   2.927   7.048   5.093  3.9309  0.5580 -2.5439
  418MOL0     H55156   2.863   6.838   5.205 -2.1442  0.5390  1.0698
  418MOL0     H55157   2.796   6.774   5.062  0.7812 -0.3636  1.4448
  418MOL0     H55158   2.588   7.477   4.272 -1.4760 -0.3185  1.8957
  418MOL0     H55159   2.557   7.481   4.041  0.9123 -0.7139  1.6844
  418MOL0     H55160   2.517   7.289   3.712  1.9876  1.8460 -0.4126
  418MOL0     H55161   2.479   7.164   3.501 -2.1985 -0.2715  1.5275
  418MOL0     H55162   3.928   7.115   2.421 -0.1813 -0.0608  1.0106
  418MOL0     H55163   4.138   7.143   2.296  0.1510  0.4097  0.8473
  418MOL0     H55164   4.333   7.624   1.906 -1.0053 -0.6828  0.1004
  418MOL0     H55165   4.552   7.642   1.804 -2.4006 -2.1719 -2.2426
  418MOL0     H55166   4.805   7.308   1.797  1.9198 -0.8783 -0.1936
  418MOL0     H55167   4.894   7.372   1.944 -1.2196  0.4564  0.7373
  418MOL0     H55168   5.001   7.533   1.779 -0.1380 -0.4118  0.4699
  418MOL0     H55169   5.057   7.375   1.769  0.5125  1.3358 -1.1019
  418MOL0     H55170   4.822   7.447   1.589 -0.1118 -1.1987 -1.1561
  418MOL0     H55171   4.926   7.310   1.594 -1.9412 -0.2354 -1.2624
  418MOL0     H55172   4.983   7.496   1.420  0.4129  1.0045 -0.8181
  418MOL0     H55173   5.041   7.599   1.553  3.2713  1.0191 -4.5756
  418MOL0     H55174   5.360   7.338   1.538 -0.7401 -2.8918  0.7461
  418MOL0     H55175   4.709   7.317   2.032  0.8876  1.5018  1.2876
  418MOL0     H55176   4.486   7.309   2.157  1.1868 -1.2712  0.2467
  419MOL0     O55177  10.470   2.656  10.237 -0.6217  0.5171 -0.3204
  419MOL0     C55178  10.439   2.542  10.283  1.2485 -0.7694 -0.4368
  419MOL0     O55179  10.307   2.494  10.295 -0.1251 -0.4538 -0.7683
  419MOL0     C55180  10.203   2.582  10.263  1.1335 -0.0707  0.0845
  419MOL0     C55181  10.090   2.539  10.199 -0.3367 -0.3899  0.3376
  419MOL0     C55182   9.984   2.618  10.172 -0.0472  0.5218  0.4704
  419MOL0     C55183   9.982   2.749  10.219  0.2735 -0.6164  0.3506
  419MOL0     O55184   9.876   2.839  10.201  0.9525 -0.6266 -0.1802
  419MOL0     C55185   9.814   2.841  10.070 -0.9838 -0.1142 -0.5289
  419MOL0     C55186   9.736   2.978  10.048  0.7408  0.2462  0.1226
  419MOL0     C55187   9.819   3.083   9.975 -0.0083 -0.4853 -0.2299
  419MOL0     C55188   9.752   3.219   9.942 -0.2023  0.5404 -0.2226
  419MOL0     C55189   9.845   3.335   9.976  0.1584  0.4255  0.5924
  419MOL0     C55190   9.952   3.346   9.863 -0.2706  0.0898 -0.2278
  419MOL0     C55191  10.056   3.462   9.891 -0.7160  0.3926 -0.7127
  419MOL0     C55192  10.169   3.462   9.787  0.8974  0.1669 -0.1085
  419MOL0     N55193  10.115   3.485   9.649 -0.0156 -0.7830 -0.2110
  419MOL0     C55194  10.023   3.591   9.627 -0.8855  0.7776  1.0966
  419MOL0     C55195  10.029   3.608   9.489  0.0353 -0.4518  0.4323
  419MOL0     C55196   9.945   3.705   9.410 -0.7352  0.5167 -0.0353
  419MOL0     C55197   9.917   3.647   9.269 -0.6338 -0.5947  1.2893
  419MOL0     C55198   9.832   3.511   9.267  1.0122  0.1657 -0.4054
  419MOL0     C55199   9.847   3.448   9.124 -1.3289 -0.3449  0.0771
  419MOL0     O55200   9.735   3.361   9.103 -0.0640 -0.1449  0.0001
  419MOL0     C55201   9.752   3.253   9.010  0.2288 -0.3435 -0.2699
  419MOL0     C55202   9.839   3.262   8.906  0.2563  0.1721  0.2599
  419MOL0     C55203   9.839   3.172   8.797  0.2378 -0.6285 -0.8401
  419MOL0     C55204   9.752   3.066   8.801  1.6299 -0.1545  0.5119
  419MOL0     C55205   9.741   2.970   8.700 -0.5935  0.3147 -0.3115
  419MOL0     O55206   9.813   3.000   8.582 -0.5193 -0.3821  0.8340
  419MOL0     C55207   9.826   2.914   8.475 -0.6434 -0.0266 -0.5657
  419MOL0     C55208   9.893   2.795   8.480  0.4584  0.4395 -0.4118
  419MOL0     C55209   9.917   2.718   8.367  0.1325 -0.8686  0.2840
  419MOL0     C55210   9.872   2.765   8.239 -0.6961 -0.0394  0.1209
  419MOL0     O55211   9.887   2.692   8.123  0.4048 -0.3735  0.3803
  419MOL0     C55212   9.772   2.639   8.051 -1.1930  0.1680 -0.4479
  419MOL0     C55213   9.730   2.716   7.930 -0.7216 -0.1436  1.6740
  419MOL0     C55214   9.642   2.633   7.833  0.1605  0.8446  0.5591
  419MOL0     C55215   9.499   2.592   7.873 -0.3035 -0.6892  0.2078
  419MOL0     C55216   9.470   2.445   7.883  0.1426 -0.2651 -0.4766
  419MOL0     C55217   9.476   2.382   7.741 -0.7494 -0.5315  0.2088
  419MOL0     C55218   9.509   2.239   7.731 -0.3266  0.3705  0.1225
  419MOL0     C55219   9.631   2.186   7.813  0.7395  1.0029  0.7005
  419MOL0    Cl55220   9.769   2.261   7.729 -0.3489 -0.0110 -0.2862
  419MOL0     C55221   9.793   2.878   8.233 -0.3590 -0.2796  0.2780
  419MOL0     C55222   9.765   2.958   8.355 -1.2258  0.2532 -0.4776
  419MOL0     O55223   9.682   2.864   8.719  0.6409  0.8408  0.2839
  419MOL0     C55224   9.666   3.057   8.905  0.8663 -0.0811 -1.0793
  419MOL0     C55225   9.658   3.151   9.010  0.5163  0.5812 -0.7632
  419MOL0     N55226  10.121   3.525   9.435 -0.4438  0.0466  0.4712
  419MOL0     N55227  10.176   3.456   9.530 -0.0475 -0.0685 -0.4708
  419MOL0     C55228  10.092   2.797  10.283 -0.0781  0.2055 -0.0246
  419MOL0     C55229  10.200   2.717  10.302  0.7170  0.6485  0.0011
  419MOL0     C55230  10.546   2.441  10.288  0.3846  0.0628 -0.2555
  419MOL0     C55231  10.513   2.304  10.314  0.4601 -0.1141  0.1300
  419MOL0     C55232  10.610   2.208  10.344 -0.6621 -0.2553 -0.0852
  419MOL0     C55233  10.750   2.237  10.336 -0.2327 -0.8857  0.0739
  419MOL0     O55234  10.833   2.129  10.357 -0.3500 -0.4152 -0.9260
  419MOL0     C55235  10.974   2.145  10.380  0.8495  0.1350  0.1138
  419MOL0     C55236  11.053   2.135  10.260  0.2002 -0.8782  0.4617
  419MOL0     C55237  11.197   2.172  10.297 -0.9114 -0.7457 -0.5744
  419MOL0     C55238  11.264   2.260  10.185 -0.7940  0.7129  0.0092
  419MOL0     C55239  11.262   2.195  10.062  1.1809 -0.3490  0.6893
  419MOL0     C55240  11.263   2.148   9.948 -0.0126 -0.2742 -0.1836
  419MOL0     C55241  10.773   2.370  10.299  0.1334  0.1209 -0.9672
  419MOL0     C55242  10.679   2.475  10.299  0.7153 -0.5651  0.3506
  419MOL0     H55243  10.085   2.433  10.176 -0.3287 -0.0652 -1.2532
  419MOL0     H55244   9.897   2.567  10.131  0.4426  0.0547 -0.0072
  419MOL0     H55245   9.731   2.771  10.053 -2.1078  1.3627 -1.3878
  419MOL0     H55246   9.881   2.822   9.985  0.9831  1.8881  0.4832
  419MOL0     H55247   9.705   3.027  10.141  1.0167  2.8782 -1.0906
  419MOL0     H55248   9.640   2.954  10.002 -0.3984  2.4993  1.1698
  419MOL0     H55249   9.846   3.024   9.887  0.6366  1.0299 -1.0962
  419MOL0     H55250   9.910   3.093  10.034 -0.4041 -2.2554  0.7336
  419MOL0     H55251   9.742   3.227   9.833  3.2312 -2.9799 -0.9858
  419MOL0     H55252   9.650   3.222   9.981 -1.6762  2.7244 -3.7217
  419MOL0     H55253   9.879   3.333  10.080 -2.5411  1.6081  1.6038
  419MOL0     H55254   9.780   3.422   9.962  1.4766  1.1678 -1.4240
  419MOL0     H55255   9.904   3.357   9.765 -0.3267  0.3335 -0.1725
  419MOL0     H55256  10.001   3.248   9.871  0.5682  0.2841 -2.3218
  419MOL0     H55257  10.004   3.557   9.878  2.5036  2.2579 -0.9795
  419MOL0     H55258  10.094   3.455   9.993 -1.4698  0.9267 -0.3830
  419MOL0     H55259  10.228   3.370   9.798  2.2142  1.1006  1.0502
  419MOL0     H55260  10.230   3.550   9.809 -0.4178  1.2964 -0.8253
  419MOL0     H55261   9.964   3.655   9.692 -0.6010 -0.4070  2.5777
  419MOL0     H55262  10.005   3.796   9.398 -0.1827  0.0536 -0.8854
  419MOL0     H55263   9.851   3.723   9.464 -2.0008 -1.2209 -1.5409
  419MOL0     H55264  10.014   3.629   9.221 -1.4175  0.5976 -0.8099
  419MOL0     H55265   9.853   3.719   9.219  0.2888 -0.5954  0.0749
  419MOL0     H55266   9.863   3.451   9.353 -2.5532 -0.7779  0.4029
  419MOL0     H55267   9.727   3.534   9.289  0.5890  1.5349 -3.4040
  419MOL0     H55268   9.949   3.408   9.117 -0.2464  1.8919  1.5808
  419MOL0     H55269   9.852   3.530   9.051  0.9943  0.8176  1.4217
  419MOL0     H55270   9.912   3.343   8.904  1.9218 -1.2911 -0.3085
  419MOL0     H55271   9.913   3.175   8.717  2.0821  0.5034  0.8075
  419MOL0     H55272   9.942   2.758   8.570  1.9740  1.4148 -0.8027
  419MOL0     H55273   9.978   2.629   8.378  0.1845 -0.5715  3.2548
  419MOL0     H55274   9.682   2.635   8.113 -1.2596 -1.6555 -0.6111
  419MOL0     H55275   9.795   2.535   8.025  0.9791  0.1264  1.3195
  419MOL0     H55276   9.819   2.753   7.879  1.2125 -0.8351  4.3698
  419MOL0     H55277   9.670   2.799   7.968  0.0245  1.0991  0.2619
  419MOL0     H55278   9.697   2.542   7.808  0.3718  0.0704  3.5259
  419MOL0     H55279   9.642   2.693   7.741  1.4372  2.0620  1.3188
  419MOL0     H55280   9.473   2.638   7.969 -0.0749  2.9467 -1.3300
  419MOL0     H55281   9.423   2.633   7.806 -0.3056  2.4138  1.9166
  419MOL0     H55282   9.369   2.423   7.920  0.8457 -0.1632  1.6552
  419MOL0     H55283   9.544   2.405   7.953 -0.9290 -2.2154 -0.3689
  419MOL0     H55284   9.557   2.418   7.676 -0.7627 -0.8832 -0.0060
  419MOL0     H55285   9.382   2.409   7.691 -1.5657  2.1524  2.9326
  419MOL0     H55286   9.428   2.180   7.775  1.1890 -0.5052  1.9085
  419MOL0     H55287   9.512   2.209   7.625  0.4389 -3.0910  0.9771
  419MOL0     H55288   9.642   2.079   7.793  0.8108  1.6414 -3.4235
  419MOL0     H55289   9.620   2.200   7.921 -1.4815  2.5507  0.3418
  419MOL0     H55290   9.744   2.926   8.149 -0.7574 -0.4902  0.3842
  419MOL0     H55291   9.714   3.053   8.360  0.3611  1.0859  1.0864
  419MOL0     H55292   9.586   2.983   8.910  0.3918  0.4493 -0.7608
  419MOL0     H55293   9.589   3.144   9.094  1.1263 -0.5441 -0.3372
  419MOL0     H55294  10.097   2.897  10.326 -0.0894  1.8063 -3.4223
  419MOL0     H55295  10.291   2.759  10.342  1.7828  0.5932 -2.1922
  419MOL0     H55296  10.410   2.274  10.302  0.5802 -1.0900  1.3023
  419MOL0     H55297  10.576   2.106  10.362 -0.8867 -0.3549 -1.0104
  419MOL0     H55298  11.003   2.081  10.465 -1.4327 -0.5266  0.4648
  419MOL0     H55299  10.978   2.248  10.415 -2.4266  0.5698 -0.5362
  419MOL0     H55300  11.059   2.032  10.222 -0.3545 -0.6117 -0.3911
  419MOL0     H55301  11.017   2.190  10.172  2.6011 -3.0324 -2.0633
  419MOL0     H55302  11.253   2.081  10.318  3.4827  1.6507 -0.8140
  419MOL0     H55303  11.189   2.232  10.387 -0.0529 -0.9721 -0.3422
  419MOL0     H55304  11.223   2.361  10.173  0.3773  1.4340  1.7043
  419MOL0     H55305  11.366   2.277  10.220 -1.3324  1.3754  1.2933
  419MOL0     H55306  11.268   2.111   9.848 -2.2034 -0.3737 -0.3127
  419MOL0     H55307  10.875   2.410  10.301 -0.1811  0.9465 -0.8037
  419MOL0     H55308  10.699   2.581  10.290  0.5356 -0.6916 -2.4424
  420MOL0     O55309   6.473   2.031   9.134 -0.1022 -0.2094  0.6961
  420MOL0     C55310   6.445   2.105   9.043  0.5119  0.2188  0.1860
  420MOL0     O55311   6.535   2.145   8.950 -0.0980 -0.3702 -0.1966
  420MOL0     C55312   6.670   2.115   8.945  0.3913 -0.8819 -0.1225
  420MOL0     C55313   6.749   2.183   8.845  0.2888  0.4409 -0.1527
  420MOL0     C55314   6.882   2.168   8.834  0.4417 -0.1497  0.1188
  420MOL0     C55315   6.949   2.083   8.917 -0.2396 -0.2025  0.3957
  420MOL0     O55316   7.085   2.052   8.907 -0.0930 -0.3352 -0.2883
  420MOL0     C55317   7.165   2.109   8.801  0.0802  0.0078  1.0149
  420MOL0     C55318   7.309   2.123   8.828 -0.1258  1.3390  0.0264
  420MOL0     C55319   7.361   1.989   8.901  0.2274  0.1616 -0.7250
  420MOL0     C55320   7.500   1.997   8.933 -0.1959  1.0362 -0.7488
  420MOL0     C55321   7.536   1.884   9.033  1.0206 -0.9757  0.5785
  420MOL0     C55322   7.687   1.859   9.034  0.7613 -0.0087 -0.1567
  420MOL0     C55323   7.739   1.778   9.157  0.9279  0.4778  0.2397
  420MOL0     C55324   7.704   1.630   9.128  0.3995 -0.3328 -1.4997
  420MOL0     N55325   7.760   1.540   9.237  0.3573 -0.4107  0.2589
  420MOL0     C55326   7.871   1.471   9.236  0.7163 -0.2774 -0.0089
  420MOL0     C55327   7.852   1.383   9.335  0.2813 -0.2893 -0.4016
  420MOL0     C55328   7.943   1.272   9.371 -0.2506 -0.0612 -0.6258
  420MOL0     C55329   7.895   1.144   9.310 -0.3861 -0.7977  0.1637
  420MOL0     C55330   7.772   1.089   9.383  0.1449  0.2005 -0.0825
  420MOL0     C55331   7.781   1.096   9.538 -0.9515 -0.2598 -0.8904
  420MOL0     O55332   7.710   0.997   9.615 -0.0386  0.0135  0.2752
  420MOL0     C55333   7.569   0.979   9.606  0.3667  0.0906  0.0386
  420MOL0     C55334   7.476   1.063   9.541  0.2418 -0.0466 -0.2402
  420MOL0     C55335   7.338   1.071   9.564  0.6556 -0.6501 -1.4236
  420MOL0     C55336   7.296   0.962   9.644 -0.4075 -0.4871  0.1307
  420MOL0     C55337   7.151   0.946   9.674  0.8923 -0.4662  0.4435
  420MOL0     O55338   7.107   0.845   9.752 -0.0968  0.4854  0.4126
  420MOL0     C55339   6.980   0.846   9.801 -1.1920 -0.3491 -0.4025
  420MOL0     C55340   6.880   0.760   9.757  0.3743 -0.0790 -0.6139
  420MOL0     C55341   6.755   0.770   9.817  0.2238  0.2685  0.0198
  420MOL0     C55342   6.719   0.859   9.920  0.5942 -1.0546  0.6667
  420MOL0     O55343   6.591   0.862   9.968  0.1528 -0.3336 -0.8664
  420MOL0     C55344   6.555   0.951  10.070 -0.2424 -0.1327 -0.5325
  420MOL0     C55345   6.505   1.082  10.019 -0.7975 -0.5164 -0.4798
  420MOL0     C55346   6.423   1.066   9.895  0.0372 -0.0246 -0.1410
  420MOL0     C55347   6.330   1.174   9.858 -0.6124  0.3589  0.0346
  420MOL0     C55348   6.240   1.158   9.732 -0.3079 -1.1813 -0.6066
  420MOL0     C55349   6.326   1.162   9.597 -0.2714  0.1201 -0.7936
  420MOL0     C55350   6.252   1.117   9.473  0.5288  0.5099  0.3739
  420MOL0     C55351   6.329   1.131   9.344  0.0669  0.6715 -0.2580
  420MOL0    Cl55352   6.481   1.053   9.343 -0.0945  0.0004  0.1440
  420MOL0     C55353   6.822   0.935   9.963  0.3913  0.6495  0.8408
  420MOL0     C55354   6.952   0.925   9.912 -0.7047  0.2145  0.0796
  420MOL0     O55355   7.080   1.007   9.595  0.2262 -0.3584  0.0295
  420MOL0     C55356   7.388   0.874   9.714  0.0002  0.2084  0.5718
  420MOL0     C55357   7.526   0.883   9.696  1.2319 -0.2045  1.0266
  420MOL0     N55358   7.733   1.404   9.390  0.5637 -0.0367  0.3396
  420MOL0     N55359   7.676   1.508   9.334  0.3726  0.0300 -0.9938
  420MOL0     C55360   6.872   2.006   9.007  0.0819  0.3998 -0.0106
  420MOL0     C55361   6.736   2.019   9.024  0.6519  0.1867  0.4340
  420MOL0     C55362   6.308   2.160   9.038 -0.2370 -0.2105  0.8508
  420MOL0     C55363   6.221   2.166   9.146 -0.0690 -0.9030  1.2151
  420MOL0     C55364   6.083   2.199   9.133 -0.3486  0.2171 -0.0055
  420MOL0     C55365   6.034   2.235   9.008  0.1572 -0.1373 -0.8262
  420MOL0     O55366   5.904   2.254   8.970 -0.5245  0.1834 -0.9226
  420MOL0     C55367   5.787   2.207   9.050  0.0714 -0.6046 -0.4567
  420MOL0     C55368   5.654   2.252   8.982  0.0124 -0.5384  0.8805
  420MOL0     C55369   5.633   2.143   8.867  0.6114 -0.5628 -0.7482
  420MOL0     C55370   5.493   2.086   8.875  0.1157  0.4157 -1.2063
  420MOL0     C55371   5.468   1.985   8.771  0.6110  0.1978  0.8522
  420MOL0     C55372   5.428   1.908   8.678 -0.1060  1.0367  0.6494
  420MOL0     C55373   6.123   2.255   8.903  1.3769  0.0881  0.7858
  420MOL0     C55374   6.257   2.213   8.919  0.0059 -0.8106 -0.4124
  420MOL0     H55375   6.692   2.243   8.774  2.9312  1.5923 -1.4314
  420MOL0     H55376   6.939   2.221   8.759  0.3984  0.0475  0.2237
  420MOL0     H55377   7.134   2.210   8.772 -3.5454  0.0615  4.1315
  420MOL0     H55378   7.147   2.045   8.715 -1.6002 -0.9814  2.0472
  420MOL0     H55379   7.332   2.211   8.890  1.6671  0.0233  1.3323
  420MOL0     H55380   7.360   2.132   8.732  3.6512  0.3028  1.7378
  420MOL0     H55381   7.327   1.900   8.848 -0.9008 -1.6293  2.7137
  420MOL0     H55382   7.305   1.981   8.995 -1.0083  0.3877 -1.4308
  420MOL0     H55383   7.563   1.980   8.845 -1.8375  1.4360 -2.0551
  420MOL0     H55384   7.520   2.093   8.980 -1.5206  0.5100  0.9872
  420MOL0     H55385   7.487   1.788   9.012  0.8855 -0.6961 -0.4664
  420MOL0     H55386   7.509   1.918   9.133 -0.4046 -0.5567  0.0876
  420MOL0     H55387   7.745   1.951   9.020  1.0110 -0.5553 -4.0657
  420MOL0     H55388   7.706   1.811   8.937  2.1701  5.3508 -2.9434
  420MOL0     H55389   7.848   1.778   9.158  0.9872 -2.5575  1.2732
  420MOL0     H55390   7.708   1.817   9.254  1.1677  0.3053  0.3862
  420MOL0     H55391   7.752   1.593   9.037  3.0090 -1.3451  0.1883
  420MOL0     H55392   7.597   1.609   9.128  0.4287 -0.5348 -2.6215
  420MOL0     H55393   7.958   1.461   9.171  1.0296 -3.8989  0.7631
  420MOL0     H55394   7.944   1.282   9.480 -1.9109  2.8850 -0.7679
  420MOL0     H55395   8.039   1.291   9.322 -0.7915  0.8839 -1.3393
  420MOL0     H55396   7.977   1.072   9.305  1.1600  0.9607 -3.7165
  420MOL0     H55397   7.874   1.162   9.204 -2.8596 -0.4422  0.6521
  420MOL0     H55398   7.692   1.155   9.351  0.2227 -0.0228 -0.7478
  420MOL0     H55399   7.756   0.988   9.343 -0.9775  1.6163 -3.4908
  420MOL0     H55400   7.745   1.195   9.566 -2.4531 -1.5529  2.2049
  420MOL0     H55401   7.885   1.085   9.571 -1.8674 -0.1578  2.2995
  420MOL0     H55402   7.512   1.149   9.486 -0.9582  1.8873  1.8058
  420MOL0     H55403   7.279   1.148   9.516 -0.1308 -0.7404 -0.6276
  420MOL0     H55404   6.886   0.695   9.670 -0.6355 -0.9551 -0.0632
  420MOL0     H55405   6.680   0.699   9.784 -3.1434  3.0413  1.0613
  420MOL0     H55406   6.631   0.962  10.148 -0.2303  0.2347 -0.5932
  420MOL0     H55407   6.472   0.902  10.121  0.5381 -1.4097 -0.4490
  420MOL0     H55408   6.595   1.143  10.002  0.0880 -2.0284 -1.4699
  420MOL0     H55409   6.446   1.135  10.094  3.7085  3.5662  0.7277
  420MOL0     H55410   6.356   0.980   9.896 -1.1782  0.6964 -3.5910
  420MOL0     H55411   6.492   1.042   9.814  0.2796 -0.2295  0.1275
  420MOL0     H55412   6.266   1.189   9.945  2.7076  0.3858  2.6542
  420MOL0     H55413   6.381   1.270   9.844  0.3070 -0.2431 -0.8410
  420MOL0     H55414   6.166   1.239   9.731  3.4180  2.5245 -0.7106
  420MOL0     H55415   6.176   1.069   9.726 -0.5333 -0.9744 -1.4404
  420MOL0     H55416   6.410   1.095   9.614  1.1274  2.0262  0.1515
  420MOL0     H55417   6.349   1.268   9.584 -1.0640  0.3003 -0.7823
  420MOL0     H55418   6.217   1.014   9.479 -0.5951  0.8001 -0.7538
  420MOL0     H55419   6.162   1.179   9.467 -0.8981 -1.5913 -2.1053
  420MOL0     H55420   6.349   1.236   9.319 -0.4905  0.2786 -2.5476
  420MOL0     H55421   6.274   1.088   9.259  2.1321 -1.2858 -0.6859
  420MOL0     H55422   6.800   1.013  10.035  0.5010  0.7658  0.7463
  420MOL0     H55423   7.031   0.984   9.958  0.2750 -1.3941  0.5531
  420MOL0     H55424   7.359   0.790   9.777  1.2135  0.1474  1.0806
  420MOL0     H55425   7.612   0.836   9.743  2.4461  0.6997 -0.2206
  420MOL0     H55426   6.933   1.941   9.069  0.9400 -0.6633 -1.8818
  420MOL0     H55427   6.682   1.951   9.089  0.3270  1.0941  1.1332
  420MOL0     H55428   6.256   2.150   9.247  1.8923  0.6607  0.8406
  420MOL0     H55429   6.015   2.191   9.217  1.9815  1.9090  2.1776
  420MOL0     H55430   5.792   2.256   9.148 -1.0202 -1.3654 -0.0108
  420MOL0     H55431   5.790   2.100   9.071  1.0610 -0.9273 -2.0750
  420MOL0     H55432   5.573   2.244   9.055 -0.0232  1.0822  1.0451
  420MOL0     H55433   5.680   2.353   8.950 -0.6356 -0.1047  1.6764
  420MOL0     H55434   5.707   2.065   8.847  0.3353 -0.4962 -2.1465
  420MOL0     H55435   5.642   2.198   8.773 -1.1078 -1.0313 -1.2224
  420MOL0     H55436   5.479   2.023   8.963 -1.0421  0.2866 -1.4720
  420MOL0     H55437   5.418   2.164   8.887  1.3476  1.1557  4.2353
  420MOL0     H55438   5.378   1.855   8.600 -0.6929  0.9099  1.1063
  420MOL0     H55439   6.083   2.289   8.809 -0.2576  0.4936  1.5972
  420MOL0     H55440   6.318   2.212   8.829 -0.2602  1.0163 -0.6585
  421MOL0     O55441   5.425   8.039   9.428  0.3509  0.9599 -1.1326
  421MOL0     C55442   5.434   7.912   9.414 -0.8470 -0.4522 -0.2548
  421MOL0     O55443   5.513   7.843   9.327 -0.3422 -0.1491 -0.2725
  421MOL0     C55444   5.603   7.907   9.251  0.3766  0.2496 -0.6166
  421MOL0     C55445   5.577   7.973   9.130  0.2827  0.2540  0.2493
  421MOL0     C55446   5.685   8.031   9.056  0.5921  0.7661 -0.4365
  421MOL0     C55447   5.811   8.027   9.100 -0.1913 -0.2463  0.1667
  421MOL0     O55448   5.896   8.101   9.018  0.3371 -0.3238  0.4345
  421MOL0     C55449   6.035   8.099   9.042 -0.6981 -0.1029  0.0391
  421MOL0     C55450   6.082   8.189   9.157 -0.2931 -1.0174  0.5775
  421MOL0     C55451   6.230   8.180   9.177 -0.2920  0.3485  0.6935
  421MOL0     C55452   6.288   8.234   9.310  0.3884  0.5006 -0.3623
  421MOL0     C55453   6.438   8.239   9.303 -0.7780 -0.0261 -0.3188
  421MOL0     C55454   6.506   8.284   9.432  0.8774 -0.4275 -0.5161
  421MOL0     C55455   6.656   8.316   9.415  0.2282 -0.0035 -0.6862
  421MOL0     C55456   6.717   8.363   9.550 -0.1260 -0.2723 -0.7279
  421MOL0     N55457   6.868   8.396   9.545  0.2005  0.0869 -0.0176
  421MOL0     C55458   6.927   8.521   9.538 -0.0786  0.9683 -0.2915
  421MOL0     C55459   7.054   8.492   9.551 -0.4760 -0.0930  0.9915
  421MOL0     C55460   7.156   8.602   9.574  0.0294  0.0445  0.3274
  421MOL0     C55461   7.225   8.596   9.434 -0.2339  0.1190 -0.4977
  421MOL0     C55462   7.279   8.730   9.385 -0.8182 -1.3357 -0.1237
  421MOL0     C55463   7.409   8.764   9.468 -0.2724  0.1680 -0.6106
  421MOL0     O55464   7.522   8.683   9.436  0.9064  0.1087  0.1002
  421MOL0     C55465   7.635   8.670   9.516  0.1845 -0.2421  0.1636
  421MOL0     C55466   7.651   8.717   9.639 -0.7907  0.0755  0.0063
  421MOL0     C55467   7.781   8.704   9.698  0.0337 -0.2288 -0.2503
  421MOL0     C55468   7.898   8.641   9.640  0.8048  0.6027  0.1652
  421MOL0     C55469   8.023   8.614   9.707  0.1953  0.5186  0.5789
  421MOL0     O55470   8.115   8.523   9.642  0.2249 -0.3058 -0.3617
  421MOL0     C55471   8.231   8.503   9.697  0.9938  0.6621 -0.6419
  421MOL0     C55472   8.317   8.609   9.732  0.8822 -0.5007 -0.0276
  421MOL0     C55473   8.448   8.585   9.770 -0.7662  0.2421 -0.1610
  421MOL0     C55474   8.496   8.454   9.762 -0.4720 -0.1725 -0.1721
  421MOL0     O55475   8.619   8.425   9.816  0.2475  0.6284  0.2106
  421MOL0     C55476   8.692   8.325   9.756  0.0206 -0.0711 -0.0962
  421MOL0     C55477   8.849   8.314   9.796 -0.1694  0.2059  0.3430
  421MOL0     C55478   8.881   8.263   9.945  0.9718 -1.0622  0.9048
  421MOL0     C55479   9.025   8.217   9.947  0.1269  0.4937 -0.3716
  421MOL0     C55480   9.080   8.200  10.092 -0.3707 -0.9756  0.0599
  421MOL0     C55481   9.016   8.082  10.173 -0.8188  0.6312 -0.0296
  421MOL0     C55482   9.058   7.940  10.114 -0.4365  0.9110  0.9543
  421MOL0     C55483   9.209   7.921  10.106  0.7340 -0.8846 -0.7318
  421MOL0    Cl55484   9.294   7.926  10.259 -0.1860  0.1260 -0.1368
  421MOL0     C55485   8.407   8.351   9.723  0.3018  0.3017 -1.7327
  421MOL0     C55486   8.275   8.375   9.691 -0.6787  0.3931 -0.5269
  421MOL0     O55487   8.040   8.665   9.816 -1.0712 -0.9773 -0.1309
  421MOL0     C55488   7.866   8.594   9.511 -0.1058 -0.9588 -0.3106
  421MOL0     C55489   7.738   8.598   9.450 -0.5361  0.0358  0.2990
  421MOL0     N55490   7.082   8.353   9.559 -0.2235 -0.1014 -0.4231
  421MOL0     N55491   6.968   8.302   9.550  0.2690 -0.3574  0.8163
  421MOL0     C55492   5.834   7.949   9.215 -0.5490  0.1629 -0.2794
  421MOL0     C55493   5.734   7.890   9.290  0.0547  0.7309  0.6999
  421MOL0     C55494   5.351   7.830   9.502  0.2619 -0.6590  0.5875
  421MOL0     C55495   5.237   7.884   9.568  1.1104  0.4360 -0.6015
  421MOL0     C55496   5.147   7.810   9.649  0.4455  0.1516  0.4860
  421MOL0     C55497   5.162   7.680   9.668  0.5550  0.7019 -0.2537
  421MOL0     O55498   5.060   7.615   9.736 -0.2238 -0.2442  0.6647
  421MOL0     C55499   5.091   7.485   9.768  0.2295  0.3412 -0.1554
  421MOL0     C55500   4.961   7.426   9.844  1.6019 -1.4240  0.1865
  421MOL0     C55501   4.831   7.428   9.756 -0.5379 -0.1227 -0.0021
  421MOL0     C55502   4.701   7.354   9.812 -0.8289 -0.0039 -0.9894
  421MOL0     C55503   4.571   7.375   9.747 -0.4748 -0.1309 -0.3432
  421MOL0     C55504   4.469   7.398   9.687 -0.5134  0.0177  1.2009
  421MOL0     C55505   5.273   7.625   9.597  0.1559 -0.0382 -0.4648
  421MOL0     C55506   5.365   7.698   9.523 -0.4523  0.0680 -0.7083
  421MOL0     H55507   5.474   7.965   9.096 -0.2044  0.8973  1.5326
  421MOL0     H55508   5.652   8.096   8.975 -3.3417  0.1146  0.3935
  421MOL0     H55509   6.076   8.119   8.943 -1.4213 -1.3759 -0.5328
  421MOL0     H55510   6.069   7.997   9.059 -2.2252 -0.6922 -0.3377
  421MOL0     H55511   6.018   8.178   9.245 -0.0777  0.9427  1.0388
  421MOL0     H55512   6.065   8.294   9.131  1.0255 -0.8667  0.2368
  421MOL0     H55513   6.285   8.232   9.098 -1.1900 -0.4029 -0.4641
  421MOL0     H55514   6.247   8.071   9.178 -2.3578 -0.2105 -3.3212
  421MOL0     H55515   6.241   8.328   9.340 -0.8450  0.1584 -1.1660
  421MOL0     H55516   6.258   8.155   9.378 -0.8428 -0.0268 -1.4751
  421MOL0     H55517   6.464   8.315   9.228 -2.2833  0.2883 -0.5633
  421MOL0     H55518   6.471   8.137   9.283 -0.0843 -0.1158  1.1316
  421MOL0     H55519   6.491   8.207   9.508 -2.6019  0.3284 -0.2668
  421MOL0     H55520   6.456   8.379   9.452 -1.0310 -1.3034 -0.8574
  421MOL0     H55521   6.715   8.228   9.390  0.9586  0.3363 -0.1941
  421MOL0     H55522   6.675   8.394   9.341  0.4073  0.6943  0.0837
  421MOL0     H55523   6.695   8.296   9.634 -0.8034 -0.8348 -1.3365
  421MOL0     H55524   6.666   8.456   9.573 -1.3935 -0.1317 -3.6942
  421MOL0     H55525   6.896   8.624   9.521  1.9325  1.7711  0.5623
  421MOL0     H55526   7.229   8.590   9.656  1.1426  3.9531  0.0801
  421MOL0     H55527   7.117   8.703   9.588 -1.8225 -0.2736 -2.0000
  421MOL0     H55528   7.163   8.558   9.353 -1.3346 -1.3590  0.9634
  421MOL0     H55529   7.304   8.520   9.444  0.4393  0.8913  0.2645
  421MOL0     H55530   7.307   8.725   9.280 -1.4396 -1.8671 -0.2684
  421MOL0     H55531   7.206   8.808   9.409  0.6622 -0.2005  0.8690
  421MOL0     H55532   7.384   8.760   9.575  1.2891  1.3083 -0.1589
  421MOL0     H55533   7.437   8.869   9.454 -2.4666  1.6337  3.8793
  421MOL0     H55534   7.576   8.772   9.696 -1.3149  0.6818 -1.2397
  421MOL0     H55535   7.785   8.734   9.802 -1.3578  1.7898 -0.7195
  421MOL0     H55536   8.276   8.710   9.737  0.8955 -0.4574 -0.7170
  421MOL0     H55537   8.511   8.668   9.798 -0.9028 -0.3091  1.9596
  421MOL0     H55538   8.688   8.340   9.647 -1.4727  0.3051 -0.0118
  421MOL0     H55539   8.651   8.224   9.770  1.1705 -0.7512 -1.3674
  421MOL0     H55540   8.908   8.404   9.779  0.5128 -0.3902 -0.6063
  421MOL0     H55541   8.892   8.254   9.715  2.2813  3.7717 -1.2750
  421MOL0     H55542   8.822   8.175   9.971 -1.7883  0.1466 -0.8572
  421MOL0     H55543   8.859   8.342  10.018  1.6133 -1.5403  1.6372
  421MOL0     H55544   9.039   8.127   9.888 -0.7944  0.4969 -0.6071
  421MOL0     H55545   9.077   8.291   9.885  2.0930 -2.5145 -2.5732
  421MOL0     H55546   9.063   8.291  10.152 -0.4029 -0.0126 -1.3627
  421MOL0     H55547   9.187   8.178  10.096 -0.0318  0.5905  3.6658
  421MOL0     H55548   8.907   8.079  10.172 -0.8721 -3.9289 -0.9785
  421MOL0     H55549   9.057   8.085  10.274 -0.8969  0.4232  0.0071
  421MOL0     H55550   9.024   7.864  10.185  0.4216 -0.0640  0.3506
  421MOL0     H55551   9.009   7.914  10.019 -3.5564  0.3869  2.5763
  421MOL0     H55552   9.260   7.989  10.037 -1.8749  1.6596 -0.3433
  421MOL0     H55553   9.233   7.820  10.070 -1.2536 -1.5740 -0.2538
  421MOL0     H55554   8.440   8.248   9.720 -0.9493 -0.5801  3.8591
  421MOL0     H55555   8.207   8.292   9.672  1.1720 -0.7540 -2.7703
  421MOL0     H55556   7.945   8.534   9.468 -1.0689 -1.9347 -0.7738
  421MOL0     H55557   7.733   8.560   9.348  1.6012 -0.6024  0.3924
  421MOL0     H55558   5.925   7.929   9.272 -1.6746  0.3191  1.6772
  421MOL0     H55559   5.753   7.829   9.378 -1.5016  1.1633  1.3762
  421MOL0     H55560   5.207   7.987   9.548  1.0005  0.6686  0.6864
  421MOL0     H55561   5.065   7.868   9.690  2.3204  2.9516  0.6069
  421MOL0     H55562   5.169   7.484   9.845 -1.0065 -0.1806  1.1401
  421MOL0     H55563   5.116   7.416   9.687 -1.0302 -1.4276  0.8954
  421MOL0     H55564   4.983   7.321   9.869 -0.2148 -1.3623  2.4084
  421MOL0     H55565   4.945   7.465   9.945  0.4483  2.2708 -1.2668
  421MOL0     H55566   4.857   7.374   9.664  0.1344  2.0944 -1.1810
  421MOL0     H55567   4.807   7.533   9.737  1.1969  0.1570 -0.8964
  421MOL0     H55568   4.718   7.247   9.831  1.4255  0.5505  0.4449
  421MOL0     H55569   4.681   7.403   9.908 -1.1095 -0.0853 -1.0055
  421MOL0     H55570   4.375   7.428   9.644 -1.0725 -2.8843  0.1438
  421MOL0     H55571   5.285   7.517   9.598  1.4173  0.0874  1.3065
  421MOL0     H55572   5.444   7.646   9.470  0.7384  0.0657  0.9895
  422MOL0     O55573   4.600   2.989   6.220  0.1878  0.2529 -0.2118
  422MOL0     C55574   4.545   2.926   6.311 -0.7118 -0.7122  0.3255
  422MOL0     O55575   4.454   2.969   6.397 -0.0217  0.2965 -0.5349
  422MOL0     C55576   4.450   3.100   6.438 -0.5702 -0.1253 -0.0757
  422MOL0     C55577   4.334   3.156   6.495  0.5966  0.3907 -0.7405
  422MOL0     C55578   4.329   3.290   6.530 -0.3353 -0.0395 -0.8874
  422MOL0     C55579   4.430   3.375   6.507  0.3356  0.2570  0.5519
  422MOL0     O55580   4.405   3.505   6.538 -0.5961  0.7597 -0.6193
  422MOL0     C55581   4.506   3.606   6.533  0.1183 -0.3709  0.3370
  422MOL0     C55582   4.444   3.737   6.581  0.0943  0.1063  0.2017
  422MOL0     C55583   4.458   3.851   6.470  0.0073  0.6719  0.3003
  422MOL0     C55584   4.386   3.973   6.523 -0.3256 -0.2533 -0.3503
  422MOL0     C55585   4.335   4.068   6.418 -0.3275 -0.0995  0.2909
  422MOL0     C55586   4.452   4.116   6.336  0.3983 -0.3735 -0.2241
  422MOL0     C55587   4.421   4.233   6.231  0.1196 -0.3742 -0.4331
  422MOL0     C55588   4.297   4.215   6.145  0.0039  0.4038  0.5279
  422MOL0     N55589   4.313   4.090   6.060 -0.8168 -0.5287 -0.2901
  422MOL0     C55590   4.430   4.027   6.017  0.1781 -0.9434  0.2048
  422MOL0     C55591   4.389   3.932   5.933 -0.2743 -0.4344 -0.7228
  422MOL0     C55592   4.466   3.831   5.865  0.1456 -1.1361 -0.1348
  422MOL0     C55593   4.517   3.732   5.960  0.7319  0.7346  0.1285
  422MOL0     C55594   4.401   3.645   6.022 -0.6836 -0.0219  1.3080
  422MOL0     C55595   4.449   3.557   6.136  0.1251 -0.5435  0.3799
  422MOL0     O55596   4.575   3.495   6.115 -0.8215 -0.4289  0.1939
  422MOL0     C55597   4.581   3.390   6.026  0.2758  0.5397  0.5810
  422MOL0     C55598   4.674   3.405   5.918  0.3008  0.7309  1.0779
  422MOL0     C55599   4.684   3.299   5.823 -0.0842 -0.3189  0.9631
  422MOL0     C55600   4.619   3.171   5.845  0.3057  0.0289  0.4552
  422MOL0     C55601   4.642   3.067   5.747 -0.0187  0.1201  0.5912
  422MOL0     O55602   4.530   2.980   5.738 -0.5383 -0.1782 -0.4206
  422MOL0     C55603   4.538   2.891   5.640  0.1701  0.1458 -0.2864
  422MOL0     C55604   4.540   2.920   5.496  0.3158 -0.0566 -0.6413
  422MOL0     C55605   4.542   2.814   5.407  0.2399  0.2820  0.0331
  422MOL0     C55606   4.526   2.687   5.438  0.9206  0.2386  0.0142
  422MOL0     O55607   4.516   2.600   5.336  0.1281  0.8366  0.0820
  422MOL0     C55608   4.447   2.479   5.352  0.7489 -0.0521 -0.4810
  422MOL0     C55609   4.490   2.387   5.236 -0.0682  0.5356 -0.5051
  422MOL0     C55610   4.455   2.421   5.092 -0.4018 -0.1007  0.6369
  422MOL0     C55611   4.589   2.421   5.013  0.5030 -0.6130 -0.8459
  422MOL0     C55612   4.570   2.451   4.862 -0.7782  1.1364  0.3956
  422MOL0     C55613   4.628   2.330   4.789 -0.9308  0.3553  0.7925
  422MOL0     C55614   4.593   2.342   4.634  0.4848 -0.5348 -0.7443
  422MOL0     C55615   4.657   2.241   4.536 -0.0997 -0.4088 -0.7385
  422MOL0    Cl55616   4.832   2.296   4.526  0.0488  0.0592 -0.5820
  422MOL0     C55617   4.522   2.652   5.574  0.1770 -0.5000  0.2115
  422MOL0     C55618   4.526   2.754   5.670  0.0230 -0.1320  1.2316
  422MOL0     O55619   4.739   3.063   5.670 -0.6047 -0.1576  0.4552
  422MOL0     C55620   4.527   3.154   5.952  0.7938  0.0518 -0.4403
  422MOL0     C55621   4.507   3.267   6.044  0.3054 -1.1751 -0.3118
  422MOL0     N55622   4.251   3.932   5.924 -0.9413  0.9950  0.5055
  422MOL0     N55623   4.210   4.033   5.991 -0.3660 -0.0683  0.5128
  422MOL0     C55624   4.546   3.326   6.443  0.8263  0.9426  0.2141
  422MOL0     C55625   4.556   3.192   6.413  0.0014 -0.0362  0.6711
  422MOL0     C55626   4.572   2.779   6.334  0.7356 -0.4428 -0.2836
  422MOL0     C55627   4.696   2.721   6.288  0.5463 -0.4014 -0.4809
  422MOL0     C55628   4.721   2.587   6.310  0.2909 -0.0133 -0.5283
  422MOL0     C55629   4.633   2.495   6.374  0.3643 -0.9008 -0.0042
  422MOL0     O55630   4.687   2.373   6.400 -0.3019 -1.0688 -0.5848
  422MOL0     C55631   4.702   2.342   6.537 -0.7707 -1.1286 -0.3659
  422MOL0     C55632   4.781   2.213   6.538  0.3456  0.3256  0.0166
  422MOL0     C55633   4.706   2.090   6.471  0.1000 -0.4344 -0.1504
  422MOL0     C55634   4.580   2.041   6.535  0.0659 -0.3910  0.2812
  422MOL0     C55635   4.607   1.956   6.658 -0.0588  0.0273 -0.3641
  422MOL0     C55636   4.631   1.879   6.738  0.2001 -0.6717  0.3101
  422MOL0     C55637   4.513   2.552   6.417 -0.6237  0.3943  0.6310
  422MOL0     C55638   4.482   2.691   6.401 -0.1580 -0.8831 -0.0287
  422MOL0     H55639   4.250   3.091   6.516 -2.8326  4.7658  0.7187
  422MOL0     H55640   4.233   3.334   6.552  0.8564  2.8807 -1.1249
  422MOL0     H55641   4.529   3.604   6.426 -0.1372 -1.1588  0.2903
  422MOL0     H55642   4.596   3.585   6.591 -0.6157 -0.2208  1.5777
  422MOL0     H55643   4.486   3.754   6.680  0.4711 -0.7625  0.2024
  422MOL0     H55644   4.335   3.724   6.583  0.2607 -1.5144  0.0947
  422MOL0     H55645   4.403   3.823   6.380 -0.4329 -1.3461  1.1413
  422MOL0     H55646   4.562   3.877   6.450  0.8586 -1.4177  1.6282
  422MOL0     H55647   4.302   3.945   6.587  2.1337 -0.1949  3.2565
  422MOL0     H55648   4.454   4.035   6.582  0.3478 -0.9866 -0.3402
  422MOL0     H55649   4.289   4.154   6.468  1.7310  0.0928  2.0015
  422MOL0     H55650   4.263   4.016   6.355 -0.5379  0.7400 -0.1680
  422MOL0     H55651   4.484   4.028   6.280 -1.3685 -0.7968 -0.6366
  422MOL0     H55652   4.528   4.145   6.409 -0.8108 -1.0667  1.3660
  422MOL0     H55653   4.405   4.325   6.290  2.3916 -1.7572  2.6048
  422MOL0     H55654   4.503   4.251   6.161 -0.4962 -0.1111 -1.0993
  422MOL0     H55655   4.281   4.306   6.087  0.0451  1.6606  2.4233
  422MOL0     H55656   4.202   4.202   6.198 -0.0096  0.6289  0.5580
  422MOL0     H55657   4.530   4.049   6.055  1.2063 -0.7318 -2.3937
  422MOL0     H55658   4.555   3.858   5.807 -0.1779 -1.5048 -0.8240
  422MOL0     H55659   4.389   3.798   5.794 -0.8159  0.5820  0.0514
  422MOL0     H55660   4.569   3.785   6.041  0.2481  0.1718  0.8234
  422MOL0     H55661   4.589   3.673   5.903 -0.4195  2.1290 -3.0246
  422MOL0     H55662   4.324   3.708   6.068  0.7274  0.5282  3.0087
  422MOL0     H55663   4.377   3.562   5.954 -1.0461 -2.1984  3.8822
  422MOL0     H55664   4.372   3.486   6.168  1.3618 -2.0602  0.1247
  422MOL0     H55665   4.456   3.637   6.210 -1.0075  1.0488 -1.1760
  422MOL0     H55666   4.720   3.503   5.909 -2.4114  2.1486  1.3436
  422MOL0     H55667   4.739   3.303   5.729  0.2575 -2.1446  1.0667
  422MOL0     H55668   4.540   3.024   5.466 -0.6373 -0.6713 -3.0443
  422MOL0     H55669   4.538   2.831   5.300  0.4986 -0.4057 -0.0914
  422MOL0     H55670   4.340   2.493   5.336  0.9780  1.4805 -0.8623
  422MOL0     H55671   4.461   2.433   5.450 -1.7147  0.1152  0.0156
  422MOL0     H55672   4.432   2.296   5.253  0.7278 -0.1755 -1.4523
  422MOL0     H55673   4.599   2.377   5.242  0.0577  2.2504  1.1542
  422MOL0     H55674   4.419   2.525   5.095  0.6445  0.2593  1.0145
  422MOL0     H55675   4.391   2.357   5.031  2.3489  0.6321 -3.4293
  422MOL0     H55676   4.668   2.482   5.058 -0.4293 -1.2101  1.7808
  422MOL0     H55677   4.627   2.321   5.034  2.1744  0.5274  2.3626
  422MOL0     H55678   4.595   2.555   4.835 -2.1629  1.1351 -0.9979
  422MOL0     H55679   4.465   2.437   4.837  0.4972 -2.5195 -4.2467
  422MOL0     H55680   4.587   2.237   4.828 -0.6746 -0.6442 -1.2109
  422MOL0     H55681   4.737   2.329   4.788 -0.7525 -4.0102 -1.2785
  422MOL0     H55682   4.484   2.334   4.630  0.3202  0.0083  1.4024
  422MOL0     H55683   4.615   2.442   4.595  2.5510 -1.5321 -2.3971
  422MOL0     H55684   4.601   2.252   4.443  0.5928 -0.2707 -1.1445
  422MOL0     H55685   4.647   2.139   4.572  1.1297 -0.0913  0.6103
  422MOL0     H55686   4.514   2.549   5.608 -0.3954 -0.9736 -1.2614
  422MOL0     H55687   4.519   2.727   5.775  2.5768  0.7744  1.6985
  422MOL0     H55688   4.472   3.062   5.967 -0.7031  1.0357  0.2822
  422MOL0     H55689   4.449   3.261   6.136 -0.2232  0.6204 -0.4909
  422MOL0     H55690   4.630   3.388   6.416  1.5613 -0.2294 -0.2576
  422MOL0     H55691   4.645   3.153   6.363 -1.1387 -1.0559 -0.6171
  422MOL0     H55692   4.751   2.787   6.222 -1.7083 -0.0087 -2.1071
  422MOL0     H55693   4.803   2.531   6.267 -0.5374 -0.1444 -1.9911
  422MOL0     H55694   4.605   2.324   6.585 -0.1093  0.4097  1.6783
  422MOL0     H55695   4.753   2.426   6.585  2.1889 -1.2473 -3.0145
  422MOL0     H55696   4.876   2.236   6.488  0.3757  2.0030  0.7515
  422MOL0     H55697   4.802   2.189   6.643  0.8786  1.7053  0.2575
  422MOL0     H55698   4.779   2.010   6.460 -0.7291 -1.0654 -1.3079
  422MOL0     H55699   4.677   2.117   6.369 -2.1947 -1.7087  0.1029
  422MOL0     H55700   4.507   2.113   6.573 -0.8404  0.3204 -2.5757
  422MOL0     H55701   4.528   1.990   6.454 -2.6687  0.8320  1.1619
  422MOL0     H55702   4.649   1.808   6.816  0.6120  1.1978  2.0029
  422MOL0     H55703   4.436   2.497   6.469  0.6668 -0.5793  1.5615
  422MOL0     H55704   4.386   2.729   6.435  0.9506 -1.1252  3.8858
  423MOL0     O55705  10.173  10.727   6.095 -0.0869  0.1589 -0.1333
  423MOL0     C55706  10.246  10.700   6.186  0.3516  0.4377  0.0533
  423MOL0     O55707  10.249  10.762   6.307  0.0706 -0.4517  0.7111
  423MOL0     C55708  10.160  10.865   6.330 -0.6221  0.1791  0.7833
  423MOL0     C55709  10.066  10.854   6.440  0.0990  0.0741  0.6154
  423MOL0     C55710   9.986  10.967   6.474 -0.7119  0.3029  0.9441
  423MOL0     C55711   9.991  11.084   6.394 -0.2850  2.1442  0.3670
  423MOL0     O55712   9.927  11.193   6.422 -0.2078  0.3811  0.1142
  423MOL0     C55713   9.788  11.187   6.466  0.2201 -0.4572  0.8332
  423MOL0     C55714   9.729  11.330   6.449 -1.3211 -0.1875  0.4049
  423MOL0     C55715   9.582  11.345   6.483 -1.3800 -1.0763 -0.6852
  423MOL0     C55716   9.580  11.340   6.631 -0.6663  0.5160  0.1895
  423MOL0     C55717   9.447  11.385   6.687  0.8855 -0.0189  0.1726
  423MOL0     C55718   9.347  11.265   6.682  0.6134 -0.1552 -0.7903
  423MOL0     C55719   9.228  11.291   6.775  0.2382  0.1283 -0.3292
  423MOL0     C55720   9.113  11.188   6.764  0.4074 -0.2774  0.0171
  423MOL0     N55721   9.041  11.178   6.893 -0.3419  0.4515 -0.5011
  423MOL0     C55722   9.067  11.083   6.989  0.0259  0.1210 -0.3291
  423MOL0     C55723   8.949  11.083   7.060 -1.0154  0.3161 -0.5222
  423MOL0     C55724   8.914  10.989   7.181 -0.1404 -0.1647 -0.3487
  423MOL0     C55725   8.752  10.970   7.174 -0.4439 -0.9620 -0.9137
  423MOL0     C55726   8.695  10.894   7.297 -0.0073  0.0195  0.3089
  423MOL0     C55727   8.558  10.840   7.256 -0.0709  0.1368 -0.5536
  423MOL0     O55728   8.464  10.937   7.228  0.1413 -0.0647 -0.4800
  423MOL0     C55729   8.339  10.889   7.202  0.9205 -0.1125  0.1427
  423MOL0     C55730   8.227  10.971   7.242 -0.5535  0.5894  0.2062
  423MOL0     C55731   8.096  10.937   7.198  0.1883 -0.4685 -0.6361
  423MOL0     C55732   8.076  10.812   7.133  1.0558 -0.5200 -0.0565
  423MOL0     C55733   7.931  10.778   7.095  0.1032 -0.4801  0.4467
  423MOL0     O55734   7.914  10.717   6.968  0.3661 -0.3153  0.4000
  423MOL0     C55735   7.780  10.710   6.923  0.4423 -0.0252  0.9139
  423MOL0     C55736   7.690  10.630   6.995  0.0069  0.2093 -0.4571
  423MOL0     C55737   7.554  10.637   6.960 -0.2841  0.0375 -0.5888
  423MOL0     C55738   7.514  10.716   6.853  0.4568  0.1917 -0.0451
  423MOL0     O55739   7.381  10.708   6.812 -0.5209  0.5588 -0.3417
  423MOL0     C55740   7.294  10.809   6.865  0.4560 -0.5904 -0.2905
  423MOL0     C55741   7.146  10.797   6.817 -0.2338 -0.1173  0.8121
  423MOL0     C55742   7.142  10.799   6.662  0.2895  0.4122  0.3017
  423MOL0     C55743   7.005  10.765   6.607  0.4699  0.2916 -1.1955
  423MOL0     C55744   6.986  10.761   6.454 -0.8847  1.1533 -0.1311
  423MOL0     C55745   7.015  10.903   6.397 -0.2310  0.5798 -0.1762
  423MOL0     C55746   7.008  10.899   6.250 -0.1116 -0.4467 -0.4127
  423MOL0     C55747   7.073  11.018   6.181  0.3369 -0.1789 -1.1134
  423MOL0    Cl55748   7.247  10.983   6.168  0.1449  0.1881 -0.4707
  423MOL0     C55749   7.606  10.785   6.768  0.2859 -0.3505  0.7354
  423MOL0     C55750   7.738  10.784   6.806  0.4623 -0.9744 -0.2515
  423MOL0     O55751   7.843  10.807   7.174 -0.7995  0.3625  0.2381
  423MOL0     C55752   8.179  10.721   7.094 -0.0024 -0.1181 -0.4157
  423MOL0     C55753   8.315  10.768   7.127  0.0946 -0.1883  0.0620
  423MOL0     N55754   8.871  11.183   7.010 -0.3075 -0.4311  0.1325
  423MOL0     N55755   8.921  11.231   6.910  0.2573  0.3889 -0.0449
  423MOL0     C55756  10.071  11.084   6.283 -0.2456 -0.0316 -0.2884
  423MOL0     C55757  10.162  10.980   6.254 -0.3105 -0.2356  0.2023
  423MOL0     C55758  10.346  10.590   6.173  0.9268  0.3085  0.4378
  423MOL0     C55759  10.413  10.561   6.050 -0.1360 -0.2680 -0.5277
  423MOL0     C55760  10.514  10.468   6.054 -0.3732  0.3060 -0.9229
  423MOL0     C55761  10.568  10.402   6.164 -0.6403  0.2129 -0.8804
  423MOL0     O55762  10.680  10.318   6.165  0.3929 -0.2783  0.4266
  423MOL0     C55763  10.716  10.260   6.038 -1.2994 -0.2446  0.0514
  423MOL0     C55764  10.817  10.146   6.061  0.2619  1.1647  0.0210
  423MOL0     C55765  10.770  10.035   6.158  0.3930  0.6010 -0.4038
  423MOL0     C55766  10.616  10.000   6.156  1.2651  0.2958 -0.1312
  423MOL0     C55767  10.568   9.949   6.028  0.1571  0.2856  0.1357
  423MOL0     C55768  10.533   9.903   5.923 -0.0715  0.0785 -0.3760
  423MOL0     C55769  10.487  10.424   6.278  0.5624  0.1826  0.0057
  423MOL0     C55770  10.382  10.517   6.287 -0.3186 -0.8186 -0.2155
  423MOL0     H55771  10.065  10.760   6.495  0.4677 -1.1729 -1.4175
  423MOL0     H55772   9.929  10.969   6.566  1.0204  1.2408  2.0440
  423MOL0     H55773   9.795  11.158   6.572 -1.2795 -2.4666  0.4488
  423MOL0     H55774   9.734  11.107   6.415  2.7861 -0.4509 -2.2120
  423MOL0     H55775   9.759  11.352   6.346 -0.1777  1.5185  1.0482
  423MOL0     H55776   9.792  11.400   6.504  0.9333 -1.5961 -0.2256
  423MOL0     H55777   9.512  11.276   6.435 -1.6839  0.3822 -2.4763
  423MOL0     H55778   9.542  11.447   6.474 -3.4170 -1.4848  2.1923
  423MOL0     H55779   9.607  11.243   6.673 -0.7102  1.7596  3.3669
  423MOL0     H55780   9.649  11.414   6.673 -0.2182  1.3876 -1.9521
  423MOL0     H55781   9.402  11.472   6.638  2.0478  1.1710  1.1347
  423MOL0     H55782   9.464  11.418   6.790  2.5772  1.0053 -0.4040
  423MOL0     H55783   9.401  11.174   6.709 -0.1202 -0.0597  1.1608
  423MOL0     H55784   9.308  11.272   6.580 -1.5051 -0.2335 -0.0338
  423MOL0     H55785   9.263  11.281   6.878 -0.0648  0.0911 -0.2287
  423MOL0     H55786   9.193  11.395   6.771 -0.9928 -0.1612  1.5856
  423MOL0     H55787   9.168  11.096   6.741  0.2680 -0.2433 -0.4508
  423MOL0     H55788   9.054  11.224   6.680 -0.5376  1.1850  1.2571
  423MOL0     H55789   9.157  11.024   6.999 -0.2941 -0.4740 -0.8268
  423MOL0     H55790   8.935  11.047   7.271  2.3182 -2.5984  0.7911
  423MOL0     H55791   8.970  10.895   7.183  0.2532  0.0476 -0.9944
  423MOL0     H55792   8.735  10.916   7.080 -0.5869 -0.2741 -1.2873
  423MOL0     H55793   8.709  11.070   7.176 -0.7649 -1.1103 -0.3712
  423MOL0     H55794   8.760  10.809   7.322  0.6563 -0.1775 -1.8565
  423MOL0     H55795   8.686  10.962   7.382 -4.0497 -0.5221  0.5242
  423MOL0     H55796   8.506  10.800   7.344 -1.1143  1.1968 -0.6638
  423MOL0     H55797   8.581  10.764   7.181  0.9431  0.5014 -0.6180
  423MOL0     H55798   8.251  11.066   7.289  1.4959 -0.9920  2.5626
  423MOL0     H55799   8.019  11.013   7.204  2.4541  2.1969 -2.8414
  423MOL0     H55800   7.736  10.572   7.074  4.9043  4.6493  0.4903
  423MOL0     H55801   7.481  10.580   7.016 -0.0035 -2.1910 -2.3171
  423MOL0     H55802   7.325  10.904   6.820 -0.7305 -0.1405 -0.1765
  423MOL0     H55803   7.310  10.815   6.973  2.3327  0.7325 -0.5802
  423MOL0     H55804   7.091  10.881   6.859  3.4157  2.6777  0.5427
  423MOL0     H55805   7.101  10.704   6.852 -0.9552 -0.9542 -2.0967
  423MOL0     H55806   7.214  10.722   6.633  1.1357  1.3029 -0.0514
  423MOL0     H55807   7.197  10.883   6.617  1.0891 -0.7648 -0.9913
  423MOL0     H55808   6.963  10.670   6.643  1.2154 -0.3303 -1.9385
  423MOL0     H55809   6.937  10.837   6.653 -0.0016 -2.0698  2.1361
  423MOL0     H55810   6.888  10.721   6.428  1.1589 -3.3109 -2.2367
  423MOL0     H55811   7.052  10.686   6.408 -0.6953  1.4194 -0.2940
  423MOL0     H55812   7.114  10.937   6.427  0.6575 -2.0918  0.1917
  423MOL0     H55813   6.943  10.969   6.446 -1.4855 -1.8299  1.4477
  423MOL0     H55814   7.067  10.813   6.217  0.0004 -1.2715  1.8137
  423MOL0     H55815   6.905  10.908   6.213  0.6587  0.1213 -2.5761
  423MOL0     H55816   7.052  11.118   6.222 -1.5651 -0.6404 -0.8840
  423MOL0     H55817   7.039  11.022   6.077  1.0998  0.4695 -1.3493
  423MOL0     H55818   7.568  10.838   6.681  0.8046 -0.4940  0.4169
  423MOL0     H55819   7.827  10.838   6.775  1.5474  0.0470  3.9455
  423MOL0     H55820   8.148  10.634   7.037  0.2908  0.4718 -1.5008
  423MOL0     H55821   8.397  10.707   7.089 -0.6909 -1.7203  0.6980
  423MOL0     H55822  10.062  11.171   6.218  1.5600  1.0817  0.8594
  423MOL0     H55823  10.244  11.001   6.186 -1.5056  1.3236 -0.8368
  423MOL0     H55824  10.371  10.612   5.964 -1.7433 -0.3341  0.1799
  423MOL0     H55825  10.557  10.454   5.955 -1.4074  0.2648 -1.3781
  423MOL0     H55826  10.767  10.329   5.970  2.1873  1.3626  3.9368
  423MOL0     H55827  10.624  10.218   5.995 -0.0725 -3.5188  0.3687
  423MOL0     H55828  10.837  10.099   5.965  2.0069 -1.3781  1.4937
  423MOL0     H55829  10.910  10.187   6.101  0.0025  1.7629  0.0305
  423MOL0     H55830  10.800  10.071   6.257  2.2481  3.8598 -1.9976
  423MOL0     H55831  10.834   9.949   6.139 -0.3140  0.5423 -2.8317
  423MOL0     H55832  10.597   9.926   6.234  1.3892  0.4219  0.0211
  423MOL0     H55833  10.557  10.087   6.186 -0.9154 -1.5129  1.1579
  423MOL0     H55834  10.487   9.858   5.837  0.3978  3.6293 -2.7169
  423MOL0     H55835  10.512  10.371   6.370  2.1366  1.4129  0.3318
  423MOL0     H55836  10.350  10.541   6.388  1.0411 -0.0683  0.0641
  424MOL0     O55837   8.958   7.039   7.660  0.4957  0.2214 -0.0813
  424MOL0     C55838   9.027   7.139   7.624  1.0349  0.2574 -0.7228
  424MOL0     O55839   8.980   7.262   7.592 -0.6463 -0.0153  0.3969
  424MOL0     C55840   8.844   7.290   7.591  0.9291  0.4383  1.1831
  424MOL0     C55841   8.738   7.203   7.534 -0.2209  0.0047 -0.2028
  424MOL0     C55842   8.608   7.239   7.538 -0.4814 -0.1834 -0.9113
  424MOL0     C55843   8.570   7.356   7.605  0.1920  0.4325  0.0706
  424MOL0     O55844   8.434   7.371   7.628  0.0141 -0.4362 -0.4852
  424MOL0     C55845   8.388   7.507   7.625  0.1059  0.3667 -0.6426
  424MOL0     C55846   8.244   7.509   7.688 -0.5259  0.2575 -0.2697
  424MOL0     C55847   8.145   7.458   7.580  0.5354 -0.2276  0.5769
  424MOL0     C55848   7.996   7.428   7.634 -0.4784  0.1639  0.9275
  424MOL0     C55849   7.919   7.546   7.687 -0.3237  0.0616  0.8392
  424MOL0     C55850   7.772   7.509   7.717  0.2216 -0.4637 -0.4901
  424MOL0     C55851   7.687   7.475   7.594  0.0143 -0.2794  0.0985
  424MOL0     C55852   7.543   7.533   7.594 -0.1178 -0.1403  0.5973
  424MOL0     N55853   7.487   7.529   7.457 -0.1968  0.5766 -0.1389
  424MOL0     C55854   7.504   7.429   7.368 -0.0421  0.9711  0.5790
  424MOL0     C55855   7.429   7.463   7.264 -0.0690 -0.0246 -0.6728
  424MOL0     C55856   7.417   7.379   7.144 -0.6422  0.5059 -0.7066
  424MOL0     C55857   7.373   7.232   7.165  0.7023 -0.3700 -0.1475
  424MOL0     C55858   7.232   7.222   7.225  0.3348 -0.0391 -0.1097
  424MOL0     C55859   7.113   7.287   7.133  0.5074 -0.0806 -0.9759
  424MOL0     O55860   7.122   7.233   6.999  0.1574  0.2337 -0.5297
  424MOL0     C55861   7.063   7.311   6.897 -0.9061 -0.7219 -0.0093
  424MOL0     C55862   7.098   7.447   6.879  0.5592  0.1560 -0.5986
  424MOL0     C55863   7.044   7.518   6.774  0.7248 -0.5619  0.1669
  424MOL0     C55864   6.947   7.466   6.686 -0.4200 -0.0659  0.7163
  424MOL0     C55865   6.885   7.552   6.582  0.3263 -0.6479  0.0172
  424MOL0     O55866   6.815   7.494   6.488 -0.8059  0.0644  0.0196
  424MOL0     C55867   6.775   7.576   6.379  0.4943 -0.4133 -0.3881
  424MOL0     C55868   6.651   7.648   6.373  0.4760  0.1579  0.2334
  424MOL0     C55869   6.614   7.732   6.272 -0.4472 -0.0241  0.0520
  424MOL0     C55870   6.687   7.726   6.153 -0.1849 -0.5871 -0.3146
  424MOL0     O55871   6.660   7.777   6.027 -0.8339  0.0748 -0.9453
  424MOL0     C55872   6.518   7.780   5.997  0.0330  0.4006 -0.0264
  424MOL0     C55873   6.517   7.835   5.849 -0.6236  0.1429 -0.1404
  424MOL0     C55874   6.568   7.972   5.843 -0.0873 -0.2732  0.0471
  424MOL0     C55875   6.477   8.070   5.934  0.7337  0.1395  0.3610
  424MOL0     C55876   6.528   8.217   5.923 -0.6583  0.2013 -0.3642
  424MOL0     C55877   6.492   8.268   5.775  0.1745  0.2681 -0.6931
  424MOL0     C55878   6.508   8.414   5.757  0.1025  0.3332  0.0813
  424MOL0     C55879   6.425   8.458   5.635  0.3418  0.5516  1.1245
  424MOL0    Cl55880   6.450   8.622   5.568 -0.1580 -0.7001  0.2030
  424MOL0     C55881   6.806   7.653   6.153  0.9380  0.2252  1.2273
  424MOL0     C55882   6.848   7.582   6.260 -0.5033 -0.2955  0.9167
  424MOL0     O55883   6.908   7.668   6.589 -0.5521 -0.5555 -0.4300
  424MOL0     C55884   6.919   7.328   6.695 -0.7327  0.2084  0.1018
  424MOL0     C55885   6.979   7.253   6.802 -0.1197 -0.6641  0.4545
  424MOL0     N55886   7.372   7.588   7.281  0.2945  0.0356  0.5504
  424MOL0     N55887   7.409   7.625   7.402  0.1543  0.7542  0.5004
  424MOL0     C55888   8.668   7.444   7.658  0.0381  0.0992 -0.3251
  424MOL0     C55889   8.805   7.404   7.652 -0.5545 -0.3622 -0.5499
  424MOL0     C55890   9.174   7.121   7.625 -0.5179 -0.4105  0.4282
  424MOL0     C55891   9.257   7.204   7.541 -0.2483  0.5123  0.2415
  424MOL0     C55892   9.399   7.209   7.564  0.5606  0.6083  0.3435
  424MOL0     C55893   9.456   7.111   7.647  0.6139 -0.7744 -0.6360
  424MOL0     O55894   9.591   7.103   7.683  0.0982  0.1871  0.3540
  424MOL0     C55895   9.676   7.211   7.649  0.1950 -0.5151 -0.9575
  424MOL0     C55896   9.822   7.153   7.641  0.5137 -0.7424  0.1105
  424MOL0     C55897   9.853   7.110   7.784 -0.8755  0.7981 -0.0550
  424MOL0     C55898  10.009   7.117   7.827  0.0454 -0.9181 -0.2222
  424MOL0     C55899  10.077   6.997   7.787  0.2395 -0.1333  0.7441
  424MOL0     C55900  10.125   6.890   7.759 -0.4541 -0.0083  0.1912
  424MOL0     C55901   9.372   7.024   7.715 -0.2451  0.5129  1.0005
  424MOL0     C55902   9.227   7.022   7.700 -0.4652 -0.5468 -0.9073
  424MOL0     H55903   8.760   7.111   7.480 -0.9157  1.0176 -2.3051
  424MOL0     H55904   8.537   7.173   7.488  0.9837  0.0490 -3.4522
  424MOL0     H55905   8.390   7.556   7.527 -1.0072  1.4222 -0.1563
  424MOL0     H55906   8.445   7.580   7.683 -0.6382  1.3970 -1.1758
  424MOL0     H55907   8.212   7.608   7.723 -0.4768 -0.0519  0.6641
  424MOL0     H55908   8.236   7.444   7.775 -1.0619  1.4816  0.6311
  424MOL0     H55909   8.177   7.372   7.521 -2.7574 -0.9494 -0.3615
  424MOL0     H55910   8.133   7.542   7.510 -0.0358  0.9547  2.0454
  424MOL0     H55911   7.941   7.387   7.549 -0.8219  0.7214  0.8769
  424MOL0     H55912   7.998   7.350   7.711  0.0197 -0.1059  0.6495
  424MOL0     H55913   7.923   7.625   7.611  1.7119 -0.4505  0.3484
  424MOL0     H55914   7.982   7.575   7.772  2.5528 -4.1601  0.4498
  424MOL0     H55915   7.714   7.589   7.764 -1.2225 -1.7179 -0.0599
  424MOL0     H55916   7.772   7.425   7.787  1.6503 -0.8935 -0.9718
  424MOL0     H55917   7.740   7.525   7.513  1.6197 -0.6874  0.8499
  424MOL0     H55918   7.683   7.367   7.578 -0.3462 -0.0713 -1.3090
  424MOL0     H55919   7.546   7.635   7.633 -1.8995  0.5065 -0.8414
  424MOL0     H55920   7.476   7.478   7.661 -1.0883  1.6903  1.1840
  424MOL0     H55921   7.565   7.340   7.379  0.8058  1.6801  1.9158
  424MOL0     H55922   7.514   7.371   7.093 -0.9096  0.8069 -1.2705
  424MOL0     H55923   7.345   7.423   7.075 -1.3686 -1.9030 -1.5749
  424MOL0     H55924   7.438   7.175   7.232  3.1394 -0.1615 -2.1883
  424MOL0     H55925   7.381   7.191   7.064 -0.8440  0.6201 -0.7190
  424MOL0     H55926   7.216   7.115   7.241 -0.6495  0.3869  2.1201
  424MOL0     H55927   7.232   7.266   7.325 -1.1671 -0.5952  0.1675
  424MOL0     H55928   7.118   7.395   7.146  0.8841 -0.2707  0.6242
  424MOL0     H55929   7.012   7.268   7.170  0.3032  0.4252 -1.2642
  424MOL0     H55930   7.170   7.493   6.945  0.8435 -2.8687  1.3714
  424MOL0     H55931   7.075   7.622   6.770 -1.0160  0.0511  1.1882
  424MOL0     H55932   6.577   7.650   6.453  2.2393 -0.3813  1.9522
  424MOL0     H55933   6.526   7.796   6.277 -2.3362 -2.4392 -0.3305
  424MOL0     H55934   6.456   7.823   6.076  1.5559 -0.1623  1.5275
  424MOL0     H55935   6.484   7.676   5.989 -1.2900  0.7519  0.7549
  424MOL0     H55936   6.409   7.822   5.837 -0.7486  1.1193 -0.1766
  424MOL0     H55937   6.554   7.770   5.770  0.8380  0.4600  0.2550
  424MOL0     H55938   6.556   8.011   5.741 -2.0118  1.6616  0.9274
  424MOL0     H55939   6.671   7.989   5.874  0.0266  0.0605 -0.5005
  424MOL0     H55940   6.374   8.062   5.900  0.7072  1.6757  0.0013
  424MOL0     H55941   6.486   8.038   6.038 -0.5604  0.4827  0.5894
  424MOL0     H55942   6.636   8.219   5.944 -0.5242  1.6814 -1.0301
  424MOL0     H55943   6.480   8.291   5.987  1.4270 -0.3496  2.0079
  424MOL0     H55944   6.391   8.234   5.750  1.1350 -3.8977  0.4763
  424MOL0     H55945   6.557   8.218   5.702  0.3121  0.5862 -0.7925
  424MOL0     H55946   6.472   8.471   5.844  1.6592 -1.5731  2.0907
  424MOL0     H55947   6.613   8.421   5.729  0.5228 -2.8259  0.5289
  424MOL0     H55948   6.322   8.446   5.668  0.4775 -0.5878  1.1923
  424MOL0     H55949   6.430   8.381   5.557  2.9368  1.0371  0.6963
  424MOL0     H55950   6.852   7.656   6.054 -2.0188 -1.5831 -0.3383
  424MOL0     H55951   6.933   7.519   6.238  0.7937  1.7718 -0.2100
  424MOL0     H55952   6.867   7.270   6.620  4.2952 -2.6408 -1.7248
  424MOL0     H55953   6.967   7.145   6.798 -1.7185 -0.4683 -3.2212
  424MOL0     H55954   8.636   7.528   7.718  0.2825 -1.4193  2.0332
  424MOL0     H55955   8.880   7.473   7.688 -1.0226 -0.8726  1.5130
  424MOL0     H55956   9.208   7.272   7.472  0.8734  0.8829 -0.2130
  424MOL0     H55957   9.460   7.284   7.515 -2.2384  2.8037 -0.0319
  424MOL0     H55958   9.669   7.302   7.711  0.4236  0.3077 -2.1143
  424MOL0     H55959   9.654   7.242   7.547 -0.3677  3.1267  0.1090
  424MOL0     H55960   9.818   7.074   7.566  1.3241 -0.0664 -0.6731
  424MOL0     H55961   9.887   7.236   7.613 -1.3191  0.8477  0.3523
  424MOL0     H55962   9.826   7.005   7.798 -1.5725  1.0348  0.4548
  424MOL0     H55963   9.809   7.177   7.858 -1.7594  0.2111 -0.0313
  424MOL0     H55964  10.058   7.211   7.798 -0.0825  0.7346  4.1574
  424MOL0     H55965  10.019   7.128   7.935 -0.3332 -0.4669 -0.2285
  424MOL0     H55966  10.173   6.797   7.738 -2.5288 -1.2438  0.5884
  424MOL0     H55967   9.413   6.954   7.787  0.6687  2.4723  2.4772
  424MOL0     H55968   9.172   6.964   7.773  0.5189 -0.5042 -0.1078
  425MOL0     O55969   2.629   1.915   6.583  0.3881 -0.3269 -0.5598
  425MOL0     C55970   2.560   1.863   6.667 -0.3110  0.3657 -0.1738
  425MOL0     O55971   2.547   1.898   6.808  0.2179  0.1743  0.7383
  425MOL0     C55972   2.598   2.022   6.853 -0.3056  0.1127  0.2599
  425MOL0     C55973   2.584   2.147   6.792  0.0095 -0.0475 -0.8741
  425MOL0     C55974   2.646   2.261   6.848 -0.8356  0.3770  0.2811
  425MOL0     C55975   2.700   2.242   6.972  1.0158 -0.0918  0.5927
  425MOL0     O55976   2.771   2.338   7.027  0.5372  0.5185 -0.7186
  425MOL0     C55977   2.685   2.452   7.053 -0.3929  0.2041  0.0303
  425MOL0     C55978   2.734   2.529   7.178  0.7086  0.0967 -0.8459
  425MOL0     C55979   2.759   2.426   7.297 -0.2733 -0.5608  0.3740
  425MOL0     C55980   2.654   2.331   7.340  0.5743  0.9327 -0.4758
  425MOL0     C55981   2.699   2.246   7.457  0.4231  0.5418 -0.6515
  425MOL0     C55982   2.637   2.106   7.465 -0.4639  0.0313  0.8486
  425MOL0     C55983   2.685   2.032   7.596 -0.1396  0.0701  0.1199
  425MOL0     C55984   2.830   1.988   7.589  0.1549 -0.4531 -0.4627
  425MOL0     N55985   2.872   1.870   7.514 -0.1783  0.5053  0.2959
  425MOL0     C55986   2.837   1.739   7.551 -0.6036  0.2144 -0.3854
  425MOL0     C55987   2.871   1.668   7.440 -0.5530 -0.3310  0.1427
  425MOL0     C55988   2.855   1.524   7.418 -1.2994  0.5562 -0.6873
  425MOL0     C55989   2.897   1.449   7.545 -0.8337  0.1961 -0.8601
  425MOL0     C55990   2.934   1.299   7.533  0.1375  0.9535  0.1190
  425MOL0     C55991   2.985   1.231   7.652  0.9894 -0.2072 -0.0210
  425MOL0     O55992   2.886   1.194   7.750  0.6936 -0.7574 -0.0738
  425MOL0     C55993   2.842   1.067   7.741  0.3055  0.0832 -0.6038
  425MOL0     C55994   2.933   0.971   7.776  0.4388  0.1057 -0.1860
  425MOL0     C55995   2.907   0.835   7.781 -0.0158 -0.0526  0.2704
  425MOL0     C55996   2.774   0.797   7.727 -0.2446  0.2443  0.1125
  425MOL0     C55997   2.738   0.662   7.714  0.4822  0.6769  0.3246
  425MOL0     O55998   2.825   0.572   7.771 -0.1845 -0.6842  0.5992
  425MOL0     C55999   2.792   0.445   7.765 -0.3269 -1.0593 -0.7422
  425MOL0     C56000   2.891   0.357   7.712 -0.0591 -0.4654 -0.2114
  425MOL0     C56001   2.867   0.221   7.707 -0.3914  0.4459 -0.4690
  425MOL0     C56002   2.733   0.181   7.730 -0.3000 -1.0964  0.6378
  425MOL0     O56003   2.694   0.050   7.732 -0.2909 -0.3840  0.6919
  425MOL0     C56004   2.760  -0.035   7.634  0.9960  0.7182  0.5979
  425MOL0     C56005   2.648  -0.113   7.559  0.2226  0.6295  0.2453
  425MOL0     C56006   2.568  -0.018   7.469  0.4538  0.4760  0.2720
  425MOL0     C56007   2.473  -0.099   7.384 -0.2770  0.3678  0.1995
  425MOL0     C56008   2.379  -0.002   7.299  0.4886 -0.2638 -0.2179
  425MOL0     C56009   2.292  -0.083   7.212  0.0884 -0.3388  0.2761
  425MOL0     C56010   2.193  -0.001   7.133 -0.2137 -0.3826 -1.2184
  425MOL0     C56011   2.095   0.071   7.229 -0.1004  0.3654 -0.4918
  425MOL0    Cl56012   1.929   0.113   7.165 -0.0787 -0.1581 -0.0100
  425MOL0     C56013   2.632   0.266   7.772  0.4436 -0.8615  0.0751
  425MOL0     C56014   2.667   0.402   7.801  0.1212  0.2112  0.0024
  425MOL0     O56015   2.629   0.630   7.660 -0.2906 -0.5527 -0.4516
  425MOL0     C56016   2.684   0.899   7.706  0.1342 -0.0361  0.4262
  425MOL0     C56017   2.715   1.035   7.714 -0.1805 -0.0840  0.1836
  425MOL0     N56018   2.905   1.742   7.333  0.9589 -0.7594 -1.1941
  425MOL0     N56019   2.912   1.864   7.377 -0.4093  0.2241 -0.5400
  425MOL0     C56020   2.713   2.116   7.034 -0.0892 -0.3294 -0.2660
  425MOL0     C56021   2.673   2.003   6.967 -0.3885 -1.2695  0.4266
  425MOL0     C56022   2.490   1.738   6.615 -1.0379 -0.2938 -0.8634
  425MOL0     C56023   2.433   1.655   6.706 -0.2157  0.1395 -0.0907
  425MOL0     C56024   2.356   1.551   6.653  0.8325  0.7380  0.2209
  425MOL0     C56025   2.340   1.533   6.515 -0.2183 -0.6381  0.2764
  425MOL0     O56026   2.269   1.429   6.471 -0.0617 -0.3364  0.5643
  425MOL0     C56027   2.132   1.470   6.456  1.1549 -0.0557 -0.5367
  425MOL0     C56028   2.053   1.336   6.434 -0.2238 -0.3473 -0.2000
  425MOL0     C56029   1.979   1.295   6.554 -0.0224  0.4696  0.1139
  425MOL0     C56030   1.923   1.149   6.538 -0.7114 -0.3903  0.4254
  425MOL0     C56031   1.841   1.114   6.652 -0.2292 -0.6373  0.3204
  425MOL0     C56032   1.766   1.084   6.745  0.6212  1.6036 -0.0355
  425MOL0     C56033   2.410   1.610   6.427 -0.8016  0.1157  0.2961
  425MOL0     C56034   2.489   1.708   6.484  0.3732  0.2516  0.5812
  425MOL0     H56035   2.526   2.154   6.701  1.9226 -2.1343 -2.3543
  425MOL0     H56036   2.648   2.361   6.807  1.1208  0.1156 -0.3677
  425MOL0     H56037   2.583   2.419   7.071  0.3231 -0.7300  2.8426
  425MOL0     H56038   2.666   2.525   6.974 -1.9101  3.8974  3.4740
  425MOL0     H56039   2.663   2.606   7.210  1.8476  0.9877 -0.3896
  425MOL0     H56040   2.822   2.587   7.150 -0.4436  2.0350 -0.6182
  425MOL0     H56041   2.777   2.487   7.387  1.7816  0.9036 -0.9499
  425MOL0     H56042   2.852   2.371   7.284  0.2083  0.5979 -1.5038
  425MOL0     H56043   2.562   2.388   7.355  1.2184  2.3464 -1.6645
  425MOL0     H56044   2.635   2.266   7.255 -2.3639 -0.3591  1.0158
  425MOL0     H56045   2.662   2.297   7.546 -0.9313 -2.5987  0.7469
  425MOL0     H56046   2.807   2.249   7.443  0.0281  0.9790 -5.4779
  425MOL0     H56047   2.667   2.047   7.378 -1.1632  0.4908  0.2833
  425MOL0     H56048   2.527   2.113   7.470 -0.4704 -0.1134  0.9072
  425MOL0     H56049   2.674   2.095   7.684 -1.1917 -2.5389  2.0108
  425MOL0     H56050   2.620   1.945   7.614  0.2265 -0.1172  0.5562
  425MOL0     H56051   2.859   1.976   7.694 -1.0823  1.7375  0.1914
  425MOL0     H56052   2.891   2.070   7.550 -1.3706  0.6856 -0.5948
  425MOL0     H56053   2.801   1.693   7.642  0.1597 -2.0039 -1.1378
  425MOL0     H56054   2.932   1.497   7.345  1.5000 -0.5403  2.4207
  425MOL0     H56055   2.756   1.495   7.379 -1.4461 -0.3477  0.3088
  425MOL0     H56056   2.819   1.454   7.621  1.8647 -1.6323  2.3559
  425MOL0     H56057   2.993   1.488   7.581 -1.1487  1.1163 -0.9834
  425MOL0     H56058   2.860   1.242   7.477 -2.2771  3.8914  0.0098
  425MOL0     H56059   3.022   1.286   7.468  1.2084 -0.7687  1.8187
  425MOL0     H56060   3.051   1.298   7.708  0.7562 -2.3223  3.0515
  425MOL0     H56061   3.047   1.150   7.611  1.8482  1.1218 -1.4638
  425MOL0     H56062   3.027   0.998   7.824 -0.8726  0.2797  2.5049
  425MOL0     H56063   2.964   0.757   7.830 -1.1855  0.1482  2.0443
  425MOL0     H56064   2.995   0.388   7.709  0.8587 -3.2819 -0.3651
  425MOL0     H56065   2.945   0.148   7.691 -0.4967 -0.0953  1.3415
  425MOL0     H56066   2.828  -0.110   7.676 -2.3954 -2.5343  0.8020
  425MOL0     H56067   2.810   0.027   7.559 -2.5042  0.7598 -1.9388
  425MOL0     H56068   2.592  -0.164   7.638 -0.4068 -0.5869 -0.9365
  425MOL0     H56069   2.692  -0.190   7.494 -3.1228 -2.5751  1.4361
  425MOL0     H56070   2.641   0.039   7.410  1.1682  3.0442  3.3622
  425MOL0     H56071   2.506   0.047   7.532  0.1569  0.9524 -0.4855
  425MOL0     H56072   2.527  -0.172   7.323 -0.0591 -0.4586  1.3595
  425MOL0     H56073   2.402  -0.156   7.444 -0.9034 -0.7038 -1.4865
  425MOL0     H56074   2.450   0.053   7.236  1.7838 -1.5629  0.0561
  425MOL0     H56075   2.323   0.067   7.363 -0.2372 -1.7007  0.7380
  425MOL0     H56076   2.225  -0.145   7.271 -1.4766  1.6750  0.7531
  425MOL0     H56077   2.351  -0.142   7.141 -1.9463 -0.5791 -1.2774
  425MOL0     H56078   2.248   0.078   7.082  3.0603 -0.4592  1.8322
  425MOL0     H56079   2.139  -0.070   7.067 -1.2447 -1.8712  1.0622
  425MOL0     H56080   2.130   0.162   7.279  0.3355 -1.2155  2.2599
  425MOL0     H56081   2.076   0.007   7.315 -0.0844  0.7268 -0.2187
  425MOL0     H56082   2.538   0.216   7.792  0.6284 -1.4488 -0.4961
  425MOL0     H56083   2.590   0.470   7.835 -2.4079 -1.1821 -2.5319
  425MOL0     H56084   2.583   0.870   7.679 -0.9831  1.5959  2.5733
  425MOL0     H56085   2.642   1.113   7.693  1.6413  1.5513 -0.3411
  425MOL0     H56086   2.780   2.115   7.119  2.6089 -0.0822 -2.2632
  425MOL0     H56087   2.708   1.905   6.998 -3.5786 -2.0994  1.8391
  425MOL0     H56088   2.433   1.670   6.813  0.5072 -1.2883  0.1322
  425MOL0     H56089   2.315   1.469   6.712  0.7773  0.3306 -0.3689
  425MOL0     H56090   2.112   1.531   6.368 -4.7218  2.5826  2.1095
  425MOL0     H56091   2.102   1.528   6.544 -1.6719 -2.6012  0.3537
  425MOL0     H56092   1.994   1.341   6.342 -0.3610 -0.7353 -0.1347
  425MOL0     H56093   2.134   1.265   6.415  0.3841  0.0173  0.9380
  425MOL0     H56094   1.898   1.362   6.584  0.8661  0.4456  2.8337
  425MOL0     H56095   2.048   1.291   6.639  1.3404 -0.1862 -0.9804
  425MOL0     H56096   1.864   1.149   6.446 -0.5572 -0.4672  0.3265
  425MOL0     H56097   2.011   1.084   6.530 -0.2251  0.2944  0.0736
  425MOL0     H56098   1.709   1.064   6.833 -0.5986 -0.3099 -1.1955
  425MOL0     H56099   2.392   1.587   6.322 -0.3893  0.1256  0.2223
  425MOL0     H56100   2.532   1.774   6.409  1.5415  1.2624  2.0796
  426MOL0     O56101   8.990   5.055   2.298  0.3447  0.2811 -0.1950
  426MOL0     C56102   8.983   4.943   2.252 -0.1437 -0.4896  0.3238
  426MOL0     O56103   9.074   4.872   2.183 -0.3855  0.4010 -0.3448
  426MOL0     C56104   9.202   4.932   2.177  1.4731 -1.1490  0.3567
  426MOL0     C56105   9.230   5.019   2.077 -0.0724 -1.0304 -0.2978
  426MOL0     C56106   9.337   5.106   2.089 -0.5478 -0.4936 -0.6802
  426MOL0     C56107   9.438   5.089   2.186  0.4277 -0.7260 -0.3280
  426MOL0     O56108   9.562   5.147   2.168  0.7962 -0.2827 -0.7379
  426MOL0     C56109   9.680   5.072   2.147  0.2348 -0.5750  0.3067
  426MOL0     C56110   9.759   5.037   2.267  0.4359  0.4670 -0.0831
  426MOL0     C56111   9.776   5.156   2.358  0.0632 -0.1914  0.4356
  426MOL0     C56112   9.889   5.134   2.470 -0.8797 -0.1917 -0.1518
  426MOL0     C56113   9.867   5.237   2.590  0.0357 -0.0945  1.2959
  426MOL0     C56114   9.905   5.386   2.548 -0.1661  0.3164 -0.4669
  426MOL0     C56115   9.795   5.490   2.601  0.4078 -0.0158  0.7380
  426MOL0     C56116   9.678   5.489   2.502  0.4465 -0.4291 -0.8905
  426MOL0     N56117   9.551   5.535   2.557  0.7613  0.1626 -0.2330
  426MOL0     C56118   9.422   5.495   2.515 -0.6358  0.9309  0.0628
  426MOL0     C56119   9.342   5.564   2.600  0.6654  0.3776 -0.3834
  426MOL0     C56120   9.196   5.557   2.588 -0.6225  0.7103 -0.0251
  426MOL0     C56121   9.140   5.675   2.508 -0.4559  0.1069  0.9811
  426MOL0     C56122   9.042   5.759   2.597 -1.0413 -0.1451  0.5132
  426MOL0     C56123   9.104   5.838   2.713 -0.2001 -0.7889  0.5908
  426MOL0     O56124   9.052   5.973   2.720  0.9159  0.0173  0.3952
  426MOL0     C56125   8.915   5.987   2.749  0.3916 -0.1589  0.4361
  426MOL0     C56126   8.851   5.885   2.814  0.1400  0.3362  0.4546
  426MOL0     C56127   8.713   5.904   2.867  0.0152 -0.0437 -0.1900
  426MOL0     C56128   8.660   6.034   2.846 -0.7905 -0.4519 -0.8279
  426MOL0     C56129   8.526   6.055   2.906 -0.7157  0.4375 -0.6040
  426MOL0     O56130   8.489   5.967   3.008 -0.1577 -0.7377  0.0497
  426MOL0     C56131   8.364   5.956   3.060  1.0957 -1.0883 -0.0857
  426MOL0     C56132   8.353   5.883   3.177 -0.0421  0.3157 -0.3338
  426MOL0     C56133   8.236   5.867   3.251  0.0148 -0.8009  0.1263
  426MOL0     C56134   8.118   5.918   3.199 -0.1184 -0.3250  0.1135
  426MOL0     O56135   8.004   5.901   3.273  0.4246 -0.0786  0.9910
  426MOL0     C56136   7.884   5.892   3.191 -0.0273  0.1983  0.3267
  426MOL0     C56137   7.769   5.848   3.286  0.1741 -0.5139  0.4974
  426MOL0     C56138   7.776   5.705   3.319  0.5135  0.7847 -0.3032
  426MOL0     C56139   7.772   5.602   3.214  0.7733  1.0117  1.1093
  426MOL0     C56140   7.762   5.457   3.274  0.5726  0.1347 -0.3934
  426MOL0     C56141   7.765   5.363   3.153  0.2282 -0.4480  0.3401
  426MOL0     C56142   7.721   5.225   3.197  0.1588  0.5694 -0.1782
  426MOL0     C56143   7.659   5.142   3.084  0.1865  0.4093  0.6349
  426MOL0    Cl56144   7.497   5.216   3.053  0.0236 -0.2893  0.2446
  426MOL0     C56145   8.123   5.968   3.065  0.3430 -0.6823 -0.8091
  426MOL0     C56146   8.240   5.999   3.001 -0.6951  1.0314 -0.2172
  426MOL0     O56147   8.467   6.158   2.873  0.6072  0.4726 -0.7632
  426MOL0     C56148   8.724   6.128   2.773  0.4968  0.3979  0.0505
  426MOL0     C56149   8.852   6.110   2.720  0.3146 -0.9198 -0.6844
  426MOL0     N56150   9.405   5.652   2.676 -0.1449  0.1421 -0.0277
  426MOL0     N56151   9.535   5.630   2.655 -0.3060 -0.1216 -0.3032
  426MOL0     C56152   9.413   5.000   2.292  0.2268 -0.0768  0.0415
  426MOL0     C56153   9.287   4.925   2.282 -0.7092 -0.4159  0.2954
  426MOL0     C56154   8.860   4.868   2.267  0.4715  0.2151  0.0299
  426MOL0     C56155   8.849   4.741   2.218 -0.5983  0.3791 -0.0244
  426MOL0     C56156   8.729   4.668   2.240  0.3383 -0.7654 -0.2554
  426MOL0     C56157   8.631   4.716   2.322  0.2569 -0.5145 -0.5712
  426MOL0     O56158   8.519   4.654   2.364 -0.3866 -0.6914  0.0113
  426MOL0     C56159   8.503   4.516   2.335  0.7579  0.6097 -0.8056
  426MOL0     C56160   8.570   4.434   2.447 -0.4296  0.2472 -0.5145
  426MOL0     C56161   8.532   4.287   2.433 -0.1144 -0.2699 -0.7739
  426MOL0     C56162   8.610   4.199   2.538 -1.1721  0.3550  0.0371
  426MOL0     C56163   8.752   4.154   2.501  0.3489 -0.3683  0.1347
  426MOL0     C56164   8.875   4.133   2.491 -0.3105  0.0413  0.4199
  426MOL0     C56165   8.641   4.843   2.372 -0.0268 -0.0856  0.5456
  426MOL0     C56166   8.753   4.920   2.345 -0.0076 -0.1956 -0.9011
  426MOL0     H56167   9.154   5.035   2.001 -0.5627  1.4270  0.6165
  426MOL0     H56168   9.355   5.190   2.023  4.3219 -0.7827 -0.1073
  426MOL0     H56169   9.747   5.131   2.084 -2.3137  3.8581  1.2962
  426MOL0     H56170   9.652   4.980   2.096 -1.9792 -0.2599  0.8231
  426MOL0     H56171   9.857   5.003   2.234  0.2534 -0.7217  0.5414
  426MOL0     H56172   9.717   4.949   2.317 -0.2152  2.1498  2.5354
  426MOL0     H56173   9.684   5.174   2.413 -1.0677  0.5485 -1.6149
  426MOL0     H56174   9.784   5.250   2.304 -0.0980 -0.9360 -0.9170
  426MOL0     H56175   9.881   5.033   2.510  3.5732 -0.4902  0.4836
  426MOL0     H56176   9.982   5.130   2.414 -0.1568 -1.0771  1.0786
  426MOL0     H56177   9.922   5.200   2.677  2.2401  1.8060  0.8308
  426MOL0     H56178   9.762   5.248   2.619  0.5220  2.3559  2.3880
  426MOL0     H56179   9.915   5.402   2.440 -1.1393  0.8456 -0.4910
  426MOL0     H56180  10.004   5.411   2.587 -0.4557 -0.6329  0.9564
  426MOL0     H56181   9.760   5.454   2.699 -3.3312 -1.7001 -1.0175
  426MOL0     H56182   9.820   5.595   2.615 -1.2377  0.5034  0.0132
  426MOL0     H56183   9.655   5.388   2.466 -3.9275 -0.5009  1.3838
  426MOL0     H56184   9.699   5.554   2.417  0.3691  1.7349  0.6776
  426MOL0     H56185   9.406   5.419   2.439 -0.3415 -0.5089  1.3804
  426MOL0     H56186   9.144   5.551   2.684 -0.7199  1.0449 -0.0550
  426MOL0     H56187   9.177   5.463   2.536 -1.9449  0.2148  1.2807
  426MOL0     H56188   9.092   5.630   2.421  0.5375  0.3446  0.2925
  426MOL0     H56189   9.213   5.745   2.466  0.3838 -0.7028  1.0644
  426MOL0     H56190   8.993   5.831   2.532  0.5103 -1.5016 -2.3337
  426MOL0     H56191   8.972   5.691   2.646  0.7727 -0.4747  2.8556
  426MOL0     H56192   9.208   5.838   2.680 -0.4544  1.3672 -0.3897
  426MOL0     H56193   9.096   5.798   2.814  0.2324 -0.7289  0.6475
  426MOL0     H56194   8.887   5.784   2.829  0.9494  0.3776 -1.0319
  426MOL0     H56195   8.654   5.824   2.911 -2.4859  1.1631 -1.1959
  426MOL0     H56196   8.440   5.824   3.204  0.0593  0.1119 -1.0876
  426MOL0     H56197   8.232   5.814   3.346 -1.8330 -0.5593  0.2188
  426MOL0     H56198   7.899   5.831   3.101 -0.2545  1.5158 -0.6377
  426MOL0     H56199   7.853   5.986   3.145 -0.8752 -0.2895 -0.1310
  426MOL0     H56200   7.671   5.873   3.243 -0.7975 -1.8555  1.8104
  426MOL0     H56201   7.771   5.902   3.381  1.7091 -0.9848  0.7501
  426MOL0     H56202   7.706   5.684   3.400  2.3274  1.1511  1.4574
  426MOL0     H56203   7.872   5.690   3.370 -0.0654  3.1871  1.6920
  426MOL0     H56204   7.682   5.619   3.154  0.4373 -0.3591  1.1883
  426MOL0     H56205   7.856   5.606   3.144  0.1967  0.7310  0.3874
  426MOL0     H56206   7.670   5.447   3.332 -1.0381  0.0372 -2.8183
  426MOL0     H56207   7.853   5.435   3.330 -0.7984  0.5574  2.1062
  426MOL0     H56208   7.863   5.369   3.104  0.5244  2.0617  1.1083
  426MOL0     H56209   7.706   5.400   3.069  0.7754  1.0631  0.5893
  426MOL0     H56210   7.805   5.178   3.249 -0.6194 -0.6089  0.0569
  426MOL0     H56211   7.632   5.244   3.258 -1.5537  1.7889 -2.8574
  426MOL0     H56212   7.651   5.036   3.110 -3.0728 -0.0836 -1.6172
  426MOL0     H56213   7.726   5.148   2.998 -0.6943  2.6007  0.0232
  426MOL0     H56214   8.040   6.008   3.009  0.4783 -1.0053 -1.2461
  426MOL0     H56215   8.234   6.045   2.903 -0.0551 -3.6471 -2.7237
  426MOL0     H56216   8.679   6.221   2.740 -0.3467 -0.0537 -0.0980
  426MOL0     H56217   8.896   6.186   2.656 -0.6951 -0.0537 -0.3739
  426MOL0     H56218   9.477   4.987   2.379 -1.0814  2.8950  1.6082
  426MOL0     H56219   9.270   4.857   2.365 -2.9348  1.9738  2.0064
  426MOL0     H56220   8.926   4.700   2.154  0.2711  2.2437 -0.2465
  426MOL0     H56221   8.730   4.567   2.201 -1.0228 -0.9108  0.0483
  426MOL0     H56222   8.540   4.485   2.237 -1.2003 -1.2461 -1.0260
  426MOL0     H56223   8.396   4.496   2.336  0.6869  0.9424 -1.3122
  426MOL0     H56224   8.679   4.443   2.437  0.0499 -1.0209  2.3645
  426MOL0     H56225   8.550   4.473   2.547  1.8413 -0.1264  0.1493
  426MOL0     H56226   8.557   4.242   2.337  0.8869 -0.8303 -0.2681
  426MOL0     H56227   8.424   4.274   2.445  0.2728 -1.7195  1.9753
  426MOL0     H56228   8.620   4.243   2.638  0.0653  1.5156 -0.5652
  426MOL0     H56229   8.558   4.104   2.547  0.2314 -0.8187 -2.8689
  426MOL0     H56230   8.981   4.121   2.476 -0.6745  0.3713 -3.3605
  426MOL0     H56231   8.551   4.876   2.423 -1.3204 -0.0002 -1.6734
  426MOL0     H56232   8.760   5.016   2.395  3.5408 -0.2527 -1.0785
  427MOL0     O56233   8.001   5.365   9.839  0.4219 -0.5252 -0.0019
  427MOL0     C56234   7.982   5.386   9.724 -0.6431 -0.4353 -0.3235
  427MOL0     O56235   8.084   5.405   9.629 -0.1391  0.0372 -0.2120
  427MOL0     C56236   8.214   5.411   9.676  0.1578  0.8453  0.1546
  427MOL0     C56237   8.249   5.519   9.763  1.4531  1.0039  0.3570
  427MOL0     C56238   8.383   5.547   9.790  0.1629  0.3125 -0.5729
  427MOL0     C56239   8.479   5.466   9.720 -0.5530  0.4703 -0.4041
  427MOL0     O56240   8.614   5.490   9.738  0.1315 -0.5415  0.3770
  427MOL0     C56241   8.717   5.384   9.761 -0.2887 -0.9158 -0.1685
  427MOL0     C56242   8.806   5.384   9.639  0.2201  0.4354 -0.2552
  427MOL0     C56243   8.881   5.511   9.598 -0.2489 -0.8026 -0.2366
  427MOL0     C56244   8.973   5.500   9.479 -0.5809  0.2181 -0.4730
  427MOL0     C56245   9.033   5.643   9.441 -0.3751 -0.2564  0.4031
  427MOL0     C56246   9.162   5.631   9.361 -0.8498 -0.1871 -0.4506
  427MOL0     C56247   9.252   5.755   9.382 -0.2381  0.1898 -0.2009
  427MOL0     C56248   9.385   5.735   9.319 -0.3499 -1.1084  0.8612
  427MOL0     N56249   9.474   5.858   9.328 -0.1158 -0.2093 -0.4049
  427MOL0     C56250   9.545   5.904   9.440 -0.0222 -0.3657 -0.4565
  427MOL0     C56251   9.608   6.015   9.394 -0.2918 -0.4343 -0.9662
  427MOL0     C56252   9.719   6.097   9.458  0.3893 -0.4612  0.2257
  427MOL0     C56253   9.696   6.119   9.611  0.2975  0.1988  0.0459
  427MOL0     C56254   9.775   6.230   9.682 -0.3596  0.3420  0.2415
  427MOL0     C56255   9.922   6.209   9.694  0.8516  0.2056  0.0973
  427MOL0     O56256   9.951   6.080   9.736  0.2937  0.0696 -0.5179
  427MOL0     C56257  10.070   6.060   9.792 -0.3554 -0.1500 -1.3825
  427MOL0     C56258  10.101   6.118   9.917 -0.6834  0.1294 -1.0911
  427MOL0     C56259  10.242   6.106   9.963  0.4525  0.0617  0.0512
  427MOL0     C56260  10.333   6.046   9.884  0.3008  0.3533 -0.1141
  427MOL0     C56261  10.477   6.046   9.922  0.5203  0.5346 -0.8228
  427MOL0     O56262  10.508   6.163  10.000  0.7103  0.3221  0.8074
  427MOL0     C56263  10.632   6.175  10.048 -0.5311 -0.2352 -0.1810
  427MOL0     C56264  10.693   6.082  10.128  0.6757 -0.3513 -0.2235
  427MOL0     C56265  10.822   6.112  10.178  0.1395 -0.0603 -0.6711
  427MOL0     C56266  10.882   6.240  10.157 -0.4122  0.6826 -1.1341
  427MOL0     O56267  10.992   6.285  10.229 -0.5278  0.6058 -0.4891
  427MOL0     C56268  11.112   6.201  10.237  0.2975 -0.5455 -0.8278
  427MOL0     C56269  11.225   6.258  10.321  0.9090 -0.3016 -0.1200
  427MOL0     C56270  11.248   6.413  10.285 -0.7495  0.7383 -0.6136
  427MOL0     C56271  11.390   6.451  10.345  0.2314  0.2078 -0.1205
  427MOL0     C56272  11.415   6.588  10.306  0.2372 -0.1241  0.1477
  427MOL0     C56273  11.512   6.666  10.399 -0.3346  0.0420  0.9744
  427MOL0     C56274  11.537   6.808  10.341  0.1349  0.5481  0.0526
  427MOL0     C56275  11.602   6.905  10.449  0.5130  0.1946  0.9647
  427MOL0    Cl56276  11.761   6.845  10.505  0.4046  0.3413 -0.0628
  427MOL0     C56277  10.820   6.337  10.078 -0.2514  0.8234 -0.0958
  427MOL0     C56278  10.690   6.302  10.023 -0.9672 -0.7597  0.2869
  427MOL0     O56279  10.552   5.954   9.883  0.3872  0.0241  0.3468
  427MOL0     C56280  10.293   5.974   9.769 -0.0844 -0.0663  0.6245
  427MOL0     C56281  10.168   5.988   9.722  0.4709 -0.0450  1.0147
  427MOL0     N56282   9.554   6.047   9.270  0.0752  0.3565  0.4723
  427MOL0     N56283   9.474   5.954   9.233 -0.4035  0.3434 -0.0328
  427MOL0     C56284   8.445   5.359   9.636  0.6030 -0.5296  0.8666
  427MOL0     C56285   8.313   5.329   9.617  0.6923  1.2827 -0.7551
  427MOL0     C56286   7.840   5.392   9.682  0.3252 -1.0372  0.2319
  427MOL0     C56287   7.796   5.366   9.544 -0.2793 -0.5942 -0.5401
  427MOL0     C56288   7.667   5.390   9.495  0.0404  0.0326  0.4419
  427MOL0     C56289   7.574   5.445   9.587  1.0048 -0.0917  0.2123
  427MOL0     O56290   7.446   5.468   9.540 -0.2342  0.9761  0.6062
  427MOL0     C56291   7.363   5.357   9.549  0.1232  0.3515  0.1218
  427MOL0     C56292   7.225   5.409   9.520  0.5047 -0.3927 -0.0167
  427MOL0     C56293   7.186   5.525   9.622 -0.0041  0.1133 -0.6241
  427MOL0     C56294   7.069   5.610   9.590 -0.1715  0.5334  0.2750
  427MOL0     C56295   6.951   5.537   9.529 -0.8634 -0.9620 -0.5066
  427MOL0     C56296   6.857   5.473   9.493 -0.3485 -0.2787 -0.6343
  427MOL0     C56297   7.602   5.456   9.729  0.4183  0.4879 -0.2112
  427MOL0     C56298   7.735   5.436   9.767 -0.3653  0.2480 -0.1490
  427MOL0     H56299   8.163   5.569   9.808 -0.4627 -2.7744  1.3328
  427MOL0     H56300   8.423   5.626   9.852 -1.2296  1.5043 -1.1401
  427MOL0     H56301   8.670   5.287   9.781  0.6010 -1.9483 -2.7219
  427MOL0     H56302   8.773   5.422   9.847 -0.6972  0.4750 -0.4818
  427MOL0     H56303   8.748   5.341   9.557 -0.9454 -0.2966  0.9293
  427MOL0     H56304   8.884   5.308   9.655 -0.0650  0.2134  0.1003
  427MOL0     H56305   8.933   5.533   9.692  1.0184 -3.1905 -0.3014
  427MOL0     H56306   8.810   5.591   9.577  0.8274  0.7329  1.6508
  427MOL0     H56307   9.047   5.425   9.507 -1.1374 -0.3016 -0.3653
  427MOL0     H56308   8.906   5.475   9.396 -0.6338  0.4130 -0.4906
  427MOL0     H56309   9.059   5.687   9.538 -0.4782  2.1146 -0.5800
  427MOL0     H56310   8.963   5.716   9.400 -0.1696  1.4144  2.7744
  427MOL0     H56311   9.120   5.629   9.260  0.3913 -0.2711 -0.9862
  427MOL0     H56312   9.202   5.531   9.379 -2.9721 -0.8983  0.6484
  427MOL0     H56313   9.202   5.848   9.350 -0.7629  0.5814  1.6526
  427MOL0     H56314   9.272   5.772   9.488 -0.8164 -2.6133  0.4162
  427MOL0     H56315   9.381   5.711   9.212 -0.4153  0.2846  0.5332
  427MOL0     H56316   9.433   5.648   9.365  0.1987 -0.9839  0.5390
  427MOL0     H56317   9.561   5.848   9.531 -0.4949 -0.2746 -0.3135
  427MOL0     H56318   9.721   6.195   9.408  2.8270  0.3918  1.7989
  427MOL0     H56319   9.820   6.056   9.448 -0.1761 -2.9215  3.2635
  427MOL0     H56320   9.708   6.021   9.659  1.9135 -2.5191 -5.1227
  427MOL0     H56321   9.592   6.148   9.623  0.0873 -0.1626 -0.8500
  427MOL0     H56322   9.763   6.333   9.648  1.4258  0.2411 -0.8113
  427MOL0     H56323   9.726   6.222   9.779  1.4194 -0.2243  1.1424
  427MOL0     H56324   9.957   6.284   9.766  0.6202 -1.1829  1.7059
  427MOL0     H56325   9.978   6.234   9.603 -0.1062 -2.0835 -1.2018
  427MOL0     H56326  10.034   6.169   9.986  3.7147  1.1363  2.9773
  427MOL0     H56327  10.270   6.145  10.060  0.7855  1.2137 -0.4922
  427MOL0     H56328  10.646   5.992  10.166 -0.3273  0.2214 -0.0524
  427MOL0     H56329  10.859   6.048  10.258 -1.4799  0.5763  0.6615
  427MOL0     H56330  11.136   6.192  10.131  0.0525  2.5614 -1.2310
  427MOL0     H56331  11.081   6.102  10.273 -2.9256 -1.2623 -4.8644
  427MOL0     H56332  11.319   6.203  10.311  2.4129  1.6233  2.2507
  427MOL0     H56333  11.187   6.245  10.423  1.2508 -2.6975 -0.2465
  427MOL0     H56334  11.169   6.462  10.343 -0.2275  2.7996 -1.5544
  427MOL0     H56335  11.246   6.432  10.177  1.5016 -3.0096 -1.5011
  427MOL0     H56336  11.372   6.444  10.453 -0.3137  1.0403 -0.1499
  427MOL0     H56337  11.477   6.402  10.301  1.6162  4.5897 -2.9896
  427MOL0     H56338  11.321   6.644  10.295 -0.7855 -2.1200 -2.5403
  427MOL0     H56339  11.456   6.597  10.205  2.1451  3.7407  1.0738
  427MOL0     H56340  11.612   6.621  10.403  0.0447  0.5825 -1.2487
  427MOL0     H56341  11.468   6.671  10.499  0.1508  0.4149  1.1748
  427MOL0     H56342  11.572   6.804  10.238 -2.2440 -3.1047 -0.8221
  427MOL0     H56343  11.439   6.851  10.317  0.9633  3.5710  1.6002
  427MOL0     H56344  11.534   6.914  10.533 -1.7206 -0.5397 -0.6572
  427MOL0     H56345  11.618   6.995  10.389  3.1087 -0.0299  1.2076
  427MOL0     H56346  10.863   6.436  10.066  1.2277  0.4215  1.5332
  427MOL0     H56347  10.636   6.374   9.964 -1.4471 -0.7622  0.7156
  427MOL0     H56348  10.367   5.923   9.707 -1.0427 -2.9578  1.7039
  427MOL0     H56349  10.147   5.960   9.619 -4.7133  1.0602  1.4690
  427MOL0     H56350   8.523   5.300   9.589  0.9050  1.0196 -0.6951
  427MOL0     H56351   8.281   5.238   9.566 -2.0347  0.2079  2.4869
  427MOL0     H56352   7.869   5.320   9.478  0.7671 -0.9269  0.8005
  427MOL0     H56353   7.634   5.391   9.392 -1.6592 -2.4644  0.8663
  427MOL0     H56354   7.377   5.305   9.645  0.4199  0.0468 -0.0836
  427MOL0     H56355   7.377   5.293   9.461 -1.0269  1.2000 -0.7090
  427MOL0     H56356   7.221   5.442   9.415 -0.8118 -0.4978 -0.0150
  427MOL0     H56357   7.158   5.325   9.542  1.3462 -0.6355  1.7919
  427MOL0     H56358   7.270   5.594   9.632  0.2503 -0.4218  1.3174
  427MOL0     H56359   7.175   5.472   9.717 -0.1982 -0.9532 -1.2156
  427MOL0     H56360   7.028   5.658   9.679 -0.4177  1.4103 -0.2961
  427MOL0     H56361   7.086   5.684   9.511 -0.5899 -1.2300 -1.5559
  427MOL0     H56362   6.777   5.404   9.474 -1.0987 -0.4316  2.5952
  427MOL0     H56363   7.539   5.509   9.800 -1.4974 -5.2215  2.9560
  427MOL0     H56364   7.777   5.458   9.865 -1.6125  0.6978  0.2959
  428MOL0     O56365   0.690   4.727   2.191 -0.9042  0.4965  0.6264
  428MOL0     C56366   0.797   4.667   2.208  0.3697  0.0379  0.2520
  428MOL0     O56367   0.886   4.692   2.316  0.1943  1.1259 -0.1995
  428MOL0     C56368   0.878   4.805   2.388  0.8359 -1.0136 -0.1176
  428MOL0     C56369   0.756   4.851   2.441  0.1281 -0.4033  0.0834
  428MOL0     C56370   0.748   4.984   2.496 -0.5565 -0.4033  0.0133
  428MOL0     C56371   0.858   5.065   2.511  0.4777 -0.2590 -0.2306
  428MOL0     O56372   0.840   5.188   2.582  0.4594 -0.2102 -0.0374
  428MOL0     C56373   0.863   5.293   2.496 -0.0967 -0.2977  0.6071
  428MOL0     C56374   0.804   5.422   2.559  0.2131 -0.4827  0.4370
  428MOL0     C56375   0.657   5.416   2.580  0.0143 -0.0496 -0.1598
  428MOL0     C56376   0.590   5.552   2.607 -0.9765  0.8080 -0.8393
  428MOL0     C56377   0.439   5.538   2.597 -0.2300 -0.1833 -0.5732
  428MOL0     C56378   0.358   5.651   2.660  0.2251  0.1786  0.5887
  428MOL0     C56379   0.217   5.661   2.584 -0.4121 -0.3760  0.5803
  428MOL0     C56380   0.168   5.790   2.604  0.0975 -0.2569 -0.4678
  428MOL0     N56381   0.048   5.805   2.515 -0.2313  0.2618  0.7621
  428MOL0     C56382  -0.073   5.772   2.558  0.9633  0.6125 -0.1929
  428MOL0     C56383  -0.150   5.784   2.445 -0.2276  0.5153 -0.3530
  428MOL0     C56384  -0.284   5.721   2.418 -0.1999 -0.1435 -0.8539
  428MOL0     C56385  -0.390   5.825   2.420  0.6065 -0.0657 -0.5981
  428MOL0     C56386  -0.519   5.759   2.442 -0.6314  0.5025  0.4481
  428MOL0     C56387  -0.638   5.845   2.404 -0.8851 -0.0808  0.6599
  428MOL0     O56388  -0.765   5.790   2.441  0.0102  0.0387  0.7998
  428MOL0     C56389  -0.886   5.854   2.438 -0.6079  0.4300 -0.0735
  428MOL0     C56390  -1.008   5.792   2.477 -0.9868 -0.1357  0.3096
  428MOL0     C56391  -1.130   5.859   2.446 -0.2849  0.2803 -0.7349
  428MOL0     C56392  -1.135   5.986   2.399 -0.0161 -0.9233  0.3626
  428MOL0     C56393  -1.269   6.054   2.367  0.2535  0.0350 -0.3029
  428MOL0     O56394  -1.265   6.189   2.358  0.7874  0.3652  0.7047
  428MOL0     C56395  -1.387   6.257   2.370  0.7508 -0.8960  1.0743
  428MOL0     C56396  -1.445   6.312   2.252  0.3553  1.0276 -0.5941
  428MOL0     C56397  -1.558   6.397   2.256 -0.0913 -0.3012 -0.3689
  428MOL0     C56398  -1.620   6.416   2.378 -0.3753 -0.1356 -0.6892
  428MOL0     O56399  -1.728   6.492   2.374  0.2112 -0.4489 -0.6133
  428MOL0     C56400  -1.735   6.600   2.471  0.4126 -0.0168  0.6767
  428MOL0     C56401  -1.861   6.684   2.466  0.2964 -0.2499 -0.0175
  428MOL0     C56402  -1.876   6.749   2.329  0.9852 -0.1661  0.0396
  428MOL0     C56403  -1.998   6.835   2.303 -0.9110 -0.4197 -0.0715
  428MOL0     C56404  -1.963   6.958   2.226 -0.8192 -0.2367  0.5962
  428MOL0     C56405  -2.093   7.028   2.182  0.5004 -0.1188  0.2894
  428MOL0     C56406  -2.066   7.177   2.130 -0.4303  0.4761  0.3283
  428MOL0     C56407  -2.192   7.246   2.100  0.2166 -0.4843 -0.3860
  428MOL0    Cl56408  -2.170   7.402   2.021 -0.3238 -0.1917  0.2781
  428MOL0     C56409  -1.569   6.358   2.498  0.1911  0.5897  0.6095
  428MOL0     C56410  -1.452   6.283   2.496 -0.3952 -0.3368  0.1703
  428MOL0     O56411  -1.366   5.984   2.358  0.9785 -0.3925 -0.0038
  428MOL0     C56412  -1.009   6.060   2.372 -0.6164  0.5823  0.7367
  428MOL0     C56413  -0.894   5.992   2.398  0.1668  1.1297  0.2141
  428MOL0     N56414  -0.075   5.856   2.352 -0.5242  0.2993  0.0540
  428MOL0     N56415   0.043   5.857   2.388 -0.7650  0.0008 -0.2196
  428MOL0     C56416   0.979   5.012   2.468  0.1506  0.4265  0.8898
  428MOL0     C56417   0.987   4.883   2.404 -0.0134  0.3090 -0.9734
  428MOL0     C56418   0.839   4.564   2.108  0.2081 -0.8415 -0.5929
  428MOL0     C56419   0.969   4.526   2.099  0.0171  0.3952  0.6634
  428MOL0     C56420   1.008   4.438   1.996 -0.4230 -0.8012  0.1173
  428MOL0     C56421   0.917   4.398   1.896 -0.0356  0.2709 -1.0389
  428MOL0     O56422   0.941   4.321   1.791  0.4561 -0.3254  0.4602
  428MOL0     C56423   1.080   4.305   1.759  0.2119 -0.3646 -0.0164
  428MOL0     C56424   1.127   4.164   1.778  0.7095 -1.1445  0.4144
  428MOL0     C56425   1.285   4.167   1.770 -0.9492  0.3771  0.0464
  428MOL0     C56426   1.347   4.025   1.775 -0.1174  0.7072 -0.3806
  428MOL0     C56427   1.314   3.967   1.908  0.3524  0.4111  0.6263
  428MOL0     C56428   1.282   3.937   2.019  0.3362  0.7034 -0.1537
  428MOL0     C56429   0.788   4.442   1.904 -0.2316  0.4877  0.0656
  428MOL0     C56430   0.743   4.525   2.014 -0.7081  0.6322 -0.0276
  428MOL0     H56431   0.663   4.796   2.435 -1.1931  1.7515 -0.0861
  428MOL0     H56432   0.657   5.033   2.529 -0.7430 -0.2210 -0.7524
  428MOL0     H56433   0.819   5.275   2.398  2.2980  0.2356 -0.6311
  428MOL0     H56434   0.972   5.296   2.489 -0.0902  1.3583  1.0895
  428MOL0     H56435   0.822   5.508   2.494  0.6436  1.0199  2.4378
  428MOL0     H56436   0.864   5.443   2.648  0.7895 -0.2532  0.0029
  428MOL0     H56437   0.627   5.346   2.659  2.1743 -0.8731 -0.0123
  428MOL0     H56438   0.617   5.368   2.490 -1.0575  1.0830 -0.3129
  428MOL0     H56439   0.612   5.569   2.712  0.9038  0.1755 -1.1006
  428MOL0     H56440   0.638   5.634   2.552  1.8364 -0.7303 -0.8557
  428MOL0     H56441   0.416   5.446   2.652  4.0328  0.8852  3.7821
  428MOL0     H56442   0.410   5.517   2.494 -0.7882  2.2201 -0.9521
  428MOL0     H56443   0.407   5.748   2.673 -1.1504  0.7403  1.8588
  428MOL0     H56444   0.340   5.615   2.762  1.2146 -2.0784  0.0388
  428MOL0     H56445   0.218   5.636   2.477 -1.9174 -1.0995  0.7125
  428MOL0     H56446   0.150   5.582   2.621  0.8901 -0.8163  2.0774
  428MOL0     H56447   0.230   5.874   2.571  1.1645 -0.1480  1.6434
  428MOL0     H56448   0.158   5.811   2.711 -1.5818  1.3358 -0.8720
  428MOL0     H56449  -0.097   5.736   2.658 -0.1310  0.1372 -0.5999
  428MOL0     H56450  -0.304   5.633   2.481 -2.5397 -1.5285 -3.3168
  428MOL0     H56451  -0.269   5.674   2.320  0.6672 -0.4258 -0.5984
  428MOL0     H56452  -0.394   5.869   2.321  1.2779 -1.7974 -1.4417
  428MOL0     H56453  -0.360   5.882   2.509  2.1990 -2.7714  0.7637
  428MOL0     H56454  -0.524   5.668   2.382  0.6551 -0.4942  1.7660
  428MOL0     H56455  -0.516   5.726   2.547  3.5329  2.3730  1.1039
  428MOL0     H56456  -0.641   5.881   2.300 -1.3171  1.6969  1.2596
  428MOL0     H56457  -0.623   5.930   2.470 -2.0172 -0.4012  1.3622
  428MOL0     H56458  -1.005   5.693   2.522 -0.1870 -1.0341 -1.6303
  428MOL0     H56459  -1.215   5.792   2.452  0.1314 -0.6458 -3.6966
  428MOL0     H56460  -1.386   6.303   2.161 -1.0631  1.5635 -1.6038
  428MOL0     H56461  -1.589   6.453   2.168  0.4971 -1.1799 -1.1536
  428MOL0     H56462  -1.648   6.664   2.455 -0.8647  1.9644  1.3835
  428MOL0     H56463  -1.720   6.572   2.576  1.8071  1.0732  0.7957
  428MOL0     H56464  -1.854   6.763   2.542 -0.9269  0.8007 -0.9510
  428MOL0     H56465  -1.928   6.605   2.501  1.6938 -1.5864 -0.2357
  428MOL0     H56466  -1.875   6.671   2.252  2.2625 -1.3443  1.1925
  428MOL0     H56467  -1.788   6.809   2.305  0.4726  1.4632  1.9718
  428MOL0     H56468  -2.063   6.769   2.244 -2.1109 -0.0314  0.7895
  428MOL0     H56469  -2.036   6.847   2.405 -2.3625  1.1119 -0.7414
  428MOL0     H56470  -1.917   6.933   2.130  1.0005  3.0399  0.4904
  428MOL0     H56471  -1.909   7.027   2.291  1.6364 -0.9529 -0.5529
  428MOL0     H56472  -2.154   7.039   2.272  0.8575  2.8164  0.2790
  428MOL0     H56473  -2.155   6.970   2.113  0.5708  0.8355 -0.6063
  428MOL0     H56474  -2.009   7.231   2.206 -2.5988  1.0910  1.6168
  428MOL0     H56475  -2.000   7.173   2.043  0.2599  0.1522  0.8530
  428MOL0     H56476  -2.243   7.269   2.194  0.9810  2.3457 -0.5766
  428MOL0     H56477  -2.256   7.178   2.043  2.0316 -3.1981  0.5712
  428MOL0     H56478  -1.635   6.370   2.584 -0.7379 -3.1975  0.5808
  428MOL0     H56479  -1.420   6.237   2.588  1.5520  0.1459 -0.2154
  428MOL0     H56480  -1.009   6.161   2.333 -3.6624  0.0447 -0.9792
  428MOL0     H56481  -0.800   6.035   2.365  0.5705 -1.2231 -2.0182
  428MOL0     H56482   1.073   5.066   2.482  0.2924  1.2172 -2.3893
  428MOL0     H56483   1.071   4.846   2.346 -0.4895  0.1749 -1.5846
  428MOL0     H56484   1.043   4.560   2.171  0.0163 -0.8916  1.3104
  428MOL0     H56485   1.110   4.403   1.996 -1.3379 -3.7036 -0.4514
  428MOL0     H56486   1.155   4.373   1.801  1.4364 -2.7321  1.8427
  428MOL0     H56487   1.092   4.330   1.653  2.5802  2.1319  0.7252
  428MOL0     H56488   1.091   4.129   1.875 -1.4842 -1.4231 -0.4569
  428MOL0     H56489   1.079   4.106   1.700 -2.2713  1.3754  0.1667
  428MOL0     H56490   1.328   4.226   1.851  1.5732 -1.8610  0.5032
  428MOL0     H56491   1.317   4.213   1.676  2.2471 -2.9878 -0.7703
  428MOL0     H56492   1.301   3.956   1.705  1.4408 -1.7511  0.8559
  428MOL0     H56493   1.454   4.040   1.756 -0.1115 -1.6111 -2.6333
  428MOL0     H56494   1.261   3.900   2.118 -2.0561  0.2068 -0.7784
  428MOL0     H56495   0.707   4.429   1.832  0.2155 -0.3041 -0.3081
  428MOL0     H56496   0.640   4.560   2.015 -0.1596  2.5471  3.4584
  429MOL0     O56497   6.447   3.788   5.705  0.1513 -0.6313  0.1575
  429MOL0     C56498   6.538   3.863   5.683 -0.2024 -1.2206  0.3020
  429MOL0     O56499   6.533   3.974   5.595  0.2313 -0.4921  0.5802
  429MOL0     C56500   6.421   4.006   5.524 -0.4932 -0.1658  0.9067
  429MOL0     C56501   6.331   3.908   5.464 -0.2143  0.3378  0.0888
  429MOL0     C56502   6.231   3.954   5.385  0.4023  1.3398  0.0340
  429MOL0     C56503   6.210   4.088   5.359  0.4639  0.0660 -0.0918
  429MOL0     O56504   6.102   4.118   5.278  0.4420 -0.7133 -0.3395
  429MOL0     C56505   6.093   4.243   5.210  0.1637 -0.3717 -0.5322
  429MOL0     C56506   6.033   4.231   5.072 -0.4319 -0.2933  0.5665
  429MOL0     C56507   5.886   4.202   5.058  0.2254  0.0313  0.3279
  429MOL0     C56508   5.798   4.321   5.094  0.0684  0.4853 -0.4817
  429MOL0     C56509   5.656   4.334   5.019 -0.0126 -0.3696 -0.5815
  429MOL0     C56510   5.546   4.234   5.060  0.4634  0.2969  0.6151
  429MOL0     C56511   5.432   4.237   4.946 -0.4747  0.3357 -0.4386
  429MOL0     C56512   5.477   4.180   4.812 -0.7714  1.5942  1.1652
  429MOL0     N56513   5.512   4.036   4.820 -1.1002  0.1445  0.7706
  429MOL0     C56514   5.437   3.932   4.779  0.3928 -0.1436 -0.4382
  429MOL0     C56515   5.525   3.832   4.781  0.9051 -0.0840 -0.0717
  429MOL0     C56516   5.472   3.695   4.738 -0.5377 -0.1268 -0.1302
  429MOL0     C56517   5.587   3.602   4.711  0.0001  0.1126  0.2536
  429MOL0     C56518   5.546   3.453   4.687 -0.5953 -0.2518 -0.5300
  429MOL0     C56519   5.460   3.443   4.565  0.1816 -0.1232  0.3515
  429MOL0     O56520   5.444   3.306   4.525 -0.0173  0.3610  0.6788
  429MOL0     C56521   5.346   3.285   4.422 -0.5353  0.0973 -0.2041
  429MOL0     C56522   5.248   3.374   4.373 -0.3043  0.3085 -0.3481
  429MOL0     C56523   5.158   3.328   4.272  0.9653  0.2282 -0.0849
  429MOL0     C56524   5.185   3.203   4.204 -0.0011  0.4593 -0.4621
  429MOL0     C56525   5.120   3.155   4.082 -0.3429  0.2459  0.2199
  429MOL0     O56526   5.000   3.207   4.050  0.7636  0.4534 -0.0868
  429MOL0     C56527   4.933   3.176   3.938  0.5540  0.8320 -0.4685
  429MOL0     C56528   4.825   3.080   3.943 -1.2209 -0.4665  0.0605
  429MOL0     C56529   4.735   3.072   3.842  0.3038 -0.7299  0.7698
  429MOL0     C56530   4.754   3.148   3.723  0.4517 -0.5268 -0.0701
  429MOL0     O56531   4.683   3.132   3.609 -0.0973  0.0717  0.8850
  429MOL0     C56532   4.601   3.021   3.592  0.7973  0.2642  0.2207
  429MOL0     C56533   4.536   2.999   3.452 -0.0625 -0.3332 -0.5057
  429MOL0     C56534   4.408   2.913   3.459  0.1929  0.0510 -0.5071
  429MOL0     C56535   4.361   2.884   3.309  0.6966  1.0948 -0.9654
  429MOL0     C56536   4.460   2.801   3.228 -1.0380 -0.5883  0.0156
  429MOL0     C56537   4.468   2.654   3.269  0.2776  0.8599  0.1628
  429MOL0     C56538   4.605   2.590   3.243  0.2058 -0.5279 -0.9002
  429MOL0     C56539   4.655   2.509   3.353  0.8782 -0.3682 -0.1315
  429MOL0    Cl56540   4.713   2.606   3.496 -0.2782 -0.1361  0.0331
  429MOL0     C56541   4.865   3.240   3.715 -0.4205 -0.1704  0.2414
  429MOL0     C56542   4.949   3.259   3.825 -0.1472  0.0008 -0.1443
  429MOL0     O56543   5.180   3.081   4.003  1.0314 -0.3508 -0.0014
  429MOL0     C56544   5.283   3.123   4.255  0.5252 -0.0473 -0.1263
  429MOL0     C56545   5.369   3.162   4.360  0.2739  0.5273  0.5664
  429MOL0     N56546   5.648   3.867   4.818 -0.7622 -0.1622  0.9445
  429MOL0     N56547   5.644   3.995   4.837 -0.4527 -0.2326 -0.3483
  429MOL0     C56548   6.295   4.181   5.418  0.2296  0.3686  0.3120
  429MOL0     C56549   6.406   4.139   5.495 -0.7107  0.5357 -0.0170
  429MOL0     C56550   6.653   3.853   5.765 -0.6168 -0.3142  0.6850
  429MOL0     C56551   6.781   3.883   5.703  0.1647  0.2205  0.0354
  429MOL0     C56552   6.893   3.883   5.781 -0.4559 -0.0889  0.6464
  429MOL0     C56553   6.889   3.843   5.916  0.0863 -0.4750 -1.0500
  429MOL0     O56554   7.005   3.828   5.980 -0.9809 -0.2264 -0.7423
  429MOL0     C56555   7.026   3.897   6.106  0.4428  0.2424  0.7656
  429MOL0     C56556   7.172   3.889   6.137 -0.7738  0.3291 -0.4005
  429MOL0     C56557   7.223   3.750   6.141 -1.0290 -0.1519  0.9535
  429MOL0     C56558   7.352   3.751   6.229 -0.4503  0.2133 -0.2685
  429MOL0     C56559   7.455   3.830   6.164 -0.4738 -0.1715 -0.0886
  429MOL0     C56560   7.541   3.899   6.121 -0.3598 -0.5239  0.0392
  429MOL0     C56561   6.764   3.825   5.977  0.1729 -0.7241  1.0135
  429MOL0     C56562   6.649   3.833   5.903 -0.1517 -0.1621 -0.2071
  429MOL0     H56563   6.340   3.802   5.483 -2.9760 -0.1642 -0.9432
  429MOL0     H56564   6.169   3.874   5.344 -1.1241 -0.6825  5.4930
  429MOL0     H56565   6.194   4.282   5.200 -0.1344  0.9052  1.1695
  429MOL0     H56566   6.042   4.323   5.264 -1.0528 -0.1927 -1.8801
  429MOL0     H56567   6.095   4.159   5.017  0.6982  0.2824  1.0371
  429MOL0     H56568   6.045   4.331   5.028  0.7336  0.4506  2.4491
  429MOL0     H56569   5.854   4.112   5.112 -2.7374  0.7061 -0.1191
  429MOL0     H56570   5.865   4.163   4.958 -1.2591  1.5542 -0.0009
  429MOL0     H56571   5.776   4.322   5.201 -3.5258  1.8129 -1.0927
  429MOL0     H56572   5.845   4.415   5.064  0.0560  0.7887  0.4184
  429MOL0     H56573   5.691   4.313   4.917  1.4981 -1.1988  0.0696
  429MOL0     H56574   5.620   4.436   5.028 -0.7868 -0.4686 -2.1936
  429MOL0     H56575   5.510   4.260   5.160 -0.4322 -1.9721  0.9430
  429MOL0     H56576   5.584   4.131   5.068 -0.3950 -0.0187  0.7304
  429MOL0     H56577   5.346   4.182   4.985 -1.1143  1.1927 -0.6262
  429MOL0     H56578   5.402   4.341   4.935  3.5363  1.5902 -1.2269
  429MOL0     H56579   5.564   4.238   4.780  1.1777  0.4427  3.9704
  429MOL0     H56580   5.400   4.180   4.734  2.3496 -0.1840 -2.2267
  429MOL0     H56581   5.331   3.928   4.754  0.6537  0.6996 -1.7468
  429MOL0     H56582   5.417   3.691   4.643 -0.2711 -0.7978 -0.2616
  429MOL0     H56583   5.415   3.648   4.818 -1.1534 -0.4733 -0.7553
  429MOL0     H56584   5.652   3.601   4.800  4.0131 -0.4459 -2.4049
  429MOL0     H56585   5.650   3.639   4.630  0.2592  0.4546  0.6039
  429MOL0     H56586   5.635   3.391   4.681 -0.7075 -0.4607 -0.0498
  429MOL0     H56587   5.496   3.408   4.773  0.0442 -3.0544 -1.5114
  429MOL0     H56588   5.515   3.498   4.488  2.8571  0.7934  2.6906
  429MOL0     H56589   5.366   3.492   4.592 -0.8931 -2.4489  1.0779
  429MOL0     H56590   5.232   3.474   4.414  0.4912  0.4329 -0.3248
  429MOL0     H56591   5.088   3.406   4.241 -0.9872 -2.2590 -2.4115
  429MOL0     H56592   4.826   3.018   4.031  0.6627 -2.3237 -1.1735
  429MOL0     H56593   4.646   3.011   3.837  0.3025 -0.6770  0.0104
  429MOL0     H56594   4.518   3.026   3.664 -0.4210  2.0353 -1.1957
  429MOL0     H56595   4.642   2.926   3.627  1.3018  0.8043  1.1124
  429MOL0     H56596   4.612   2.947   3.393  2.1884  3.6148 -1.4380
  429MOL0     H56597   4.521   3.093   3.398  4.9814  0.7397 -0.4704
  429MOL0     H56598   4.334   2.965   3.521  0.3959 -1.7294  1.3425
  429MOL0     H56599   4.440   2.819   3.505 -2.3875 -0.9772 -0.6288
  429MOL0     H56600   4.280   2.816   3.337  1.6731  0.0543 -0.5913
  429MOL0     H56601   4.319   2.970   3.257 -1.0516  0.3312 -0.8934
  429MOL0     H56602   4.555   2.854   3.219 -1.8959  0.8840 -0.6082
  429MOL0     H56603   4.422   2.806   3.126  3.9037  1.0335 -2.0392
  429MOL0     H56604   4.396   2.591   3.216  0.9442 -0.8820  1.2412
  429MOL0     H56605   4.438   2.652   3.375  1.7610  0.0539  0.6015
  429MOL0     H56606   4.584   2.525   3.157 -2.4180 -0.0193 -0.7286
  429MOL0     H56607   4.678   2.666   3.217 -0.5105  1.6749  2.8552
  429MOL0     H56608   4.731   2.446   3.307  0.3227 -1.0855 -0.0831
  429MOL0     H56609   4.584   2.435   3.392  0.5272  0.3959  0.7266
  429MOL0     H56610   4.861   3.312   3.634  0.2241 -1.6346 -1.1490
  429MOL0     H56611   5.019   3.341   3.823 -0.5113  0.3013 -2.2686
  429MOL0     H56612   5.282   3.018   4.227 -0.9667  0.2301 -1.2565
  429MOL0     H56613   5.450   3.099   4.396  0.3733  0.2967 -0.0364
  429MOL0     H56614   6.270   4.286   5.426 -0.8079  0.0827  1.1576
  429MOL0     H56615   6.472   4.210   5.546  1.8220 -1.1929 -0.7115
  429MOL0     H56616   6.785   3.912   5.599 -1.7323 -1.1641 -0.4653
  429MOL0     H56617   6.987   3.922   5.742  1.8943 -3.4869  2.3599
  429MOL0     H56618   6.974   3.833   6.178 -0.4736 -1.2716 -1.1833
  429MOL0     H56619   6.985   3.998   6.096 -2.5708 -0.9331  0.2475
  429MOL0     H56620   7.230   3.951   6.068 -0.8684  3.9730  2.4466
  429MOL0     H56621   7.179   3.924   6.241  2.9263 -0.6169 -0.2180
  429MOL0     H56622   7.271   3.720   6.047 -2.7892 -1.2778  0.3711
  429MOL0     H56623   7.150   3.679   6.180 -1.0238 -0.2997  0.6936
  429MOL0     H56624   7.322   3.791   6.326  1.3075 -0.9534  0.8109
  429MOL0     H56625   7.403   3.654   6.236  0.5717  0.7824  0.6877
  429MOL0     H56626   7.592   3.983   6.078 -1.5594 -1.1059 -2.7609
  429MOL0     H56627   6.774   3.788   6.079  2.1391 -0.4665  0.9460
  429MOL0     H56628   6.550   3.820   5.946 -0.0036  1.2267  0.5933
  430MOL0     O56629   3.769   8.674   8.207  0.3180  0.2675  0.2976
  430MOL0     C56630   3.754   8.789   8.164  0.3598 -0.3984  0.0002
  430MOL0     O56631   3.698   8.890   8.236 -0.7901  0.2313 -0.5201
  430MOL0     C56632   3.668   8.872   8.370 -1.2197  0.0836  0.4694
  430MOL0     C56633   3.768   8.909   8.458  0.5610 -0.7970 -0.5500
  430MOL0     C56634   3.749   8.892   8.596 -0.1125  0.9231 -0.6911
  430MOL0     C56635   3.621   8.852   8.647 -0.0584 -0.4347  0.6069
  430MOL0     O56636   3.619   8.823   8.778  0.8910 -0.4552  0.3788
  430MOL0     C56637   3.510   8.754   8.850 -1.3386  0.2391 -0.2065
  430MOL0     C56638   3.536   8.756   9.001 -0.7766  0.2638 -0.0930
  430MOL0     C56639   3.407   8.685   9.067  0.3692  0.4887  0.2233
  430MOL0     C56640   3.409   8.699   9.221  0.6651  0.4756 -0.2876
  430MOL0     C56641   3.489   8.572   9.278  0.9266  0.6948 -0.1393
  430MOL0     C56642   3.481   8.566   9.429 -0.2401 -0.0140  0.1513
  430MOL0     C56643   3.520   8.434   9.494 -0.1547  0.4628  0.1485
  430MOL0     C56644   3.416   8.325   9.449 -0.8164  0.1177 -0.8212
  430MOL0     N56645   3.410   8.206   9.539 -0.2209  1.2072  0.7922
  430MOL0     C56646   3.467   8.081   9.518  0.0639 -0.5411  0.5754
  430MOL0     C56647   3.402   7.996   9.594  0.1213  0.7849  0.9878
  430MOL0     C56648   3.440   7.853   9.616 -0.0094  0.9921  0.2649
  430MOL0     C56649   3.458   7.821   9.765  0.3943  0.4606  0.6080
  430MOL0     C56650   3.531   7.683   9.787  0.5387 -0.6331  0.0962
  430MOL0     C56651   3.680   7.680   9.771 -0.6332  0.4491  0.1452
  430MOL0     O56652   3.746   7.769   9.850 -0.0032 -0.0518  0.2766
  430MOL0     C56653   3.869   7.733   9.896  0.8148  2.1137 -0.3923
  430MOL0     C56654   3.969   7.650   9.844 -0.7004  0.2854  0.4999
  430MOL0     C56655   4.103   7.655   9.873 -0.0566  0.6927 -0.8399
  430MOL0     C56656   4.140   7.721   9.987 -0.2120  0.6426  0.3322
  430MOL0     C56657   4.279   7.727  10.028 -0.1481  0.4384 -0.0703
  430MOL0     O56658   4.375   7.741   9.930 -0.1181  0.5972 -0.3936
  430MOL0     C56659   4.504   7.726   9.970 -0.3489  0.8058 -0.0372
  430MOL0     C56660   4.553   7.620  10.049 -0.3147 -0.5995  0.5153
  430MOL0     C56661   4.687   7.629  10.087 -0.1441  0.3863 -0.3128
  430MOL0     C56662   4.775   7.736  10.047 -0.3022 -1.1447 -0.9194
  430MOL0     O56663   4.909   7.719  10.088 -0.0445 -0.1818 -0.2322
  430MOL0     C56664   5.002   7.814  10.035  0.7390 -0.3245  0.3629
  430MOL0     C56665   5.141   7.775  10.069 -0.5592  0.2597 -0.3340
  430MOL0     C56666   5.253   7.880  10.025 -0.0843  0.7381  0.3745
  430MOL0     C56667   5.399   7.831  10.056 -0.4352 -0.1777 -0.9582
  430MOL0     C56668   5.438   7.692  10.002  0.9607  0.1075 -0.1851
  430MOL0     C56669   5.582   7.677   9.975 -0.1422  0.3515 -0.3230
  430MOL0     C56670   5.650   7.762   9.864  0.2065 -0.0382 -0.3316
  430MOL0     C56671   5.801   7.732   9.854  1.0893 -0.0892  0.1383
  430MOL0    Cl56672   5.833   7.588   9.750  0.1056 -0.7846  0.1353
  430MOL0     C56673   4.726   7.835   9.963 -0.1734  0.4443 -0.0310
  430MOL0     C56674   4.592   7.819   9.918 -0.0230 -0.3009  0.0170
  430MOL0     O56675   4.297   7.736  10.148  1.0162  0.7779 -0.0082
  430MOL0     C56676   4.049   7.796  10.050  0.0582 -0.3913 -0.0234
  430MOL0     C56677   3.912   7.808  10.006  0.0648  0.3810  0.3724
  430MOL0     N56678   3.299   8.065   9.650 -0.7456 -0.3356  0.3133
  430MOL0     N56679   3.300   8.186   9.612  0.4748  0.2046 -0.8721
  430MOL0     C56680   3.515   8.819   8.552  0.0451 -0.4747 -0.5803
  430MOL0     C56681   3.541   8.820   8.414 -0.7504 -0.1263 -0.5435
  430MOL0     C56682   3.792   8.816   8.019 -0.2765  1.2205 -0.0032
  430MOL0     C56683   3.886   8.734   7.954 -0.8675  0.1489 -0.7601
  430MOL0     C56684   3.912   8.743   7.813 -0.5949 -0.8096  0.4791
  430MOL0     C56685   3.845   8.841   7.745  0.3571 -0.3339 -0.0290
  430MOL0     O56686   3.864   8.885   7.614  0.7153  0.7447 -0.0416
  430MOL0     C56687   3.963   8.808   7.543  0.2758 -0.0801  0.2366
  430MOL0     C56688   3.974   8.834   7.397 -0.0768  0.8915  0.2373
  430MOL0     C56689   4.024   8.977   7.365  0.3623  0.3688  0.3125
  430MOL0     C56690   4.040   8.979   7.211  0.0041 -0.7083 -0.5132
  430MOL0     C56691   4.100   9.106   7.174 -0.2858  0.7147  0.2780
  430MOL0     C56692   4.141   9.215   7.130  0.3911  0.3865 -0.1697
  430MOL0     C56693   3.741   8.919   7.804  0.3836 -0.6300 -0.3059
  430MOL0     C56694   3.718   8.909   7.942 -0.3828 -0.0299  0.1502
  430MOL0     H56695   3.858   8.954   8.418 -0.8974  2.8604 -0.0736
  430MOL0     H56696   3.823   8.913   8.673 -2.1323  2.5999  0.9156
  430MOL0     H56697   3.507   8.654   8.806 -1.6192  0.0880  0.1455
  430MOL0     H56698   3.417   8.806   8.827 -2.3415 -1.4425 -0.1663
  430MOL0     H56699   3.532   8.858   9.042  2.5397  0.7063 -0.6567
  430MOL0     H56700   3.626   8.701   9.027 -1.8715 -2.2443 -1.2544
  430MOL0     H56701   3.383   8.582   9.040  0.4072  0.4666  0.2741
  430MOL0     H56702   3.318   8.729   9.019  0.2563 -1.1907 -1.2019
  430MOL0     H56703   3.462   8.791   9.249 -0.1555  0.3654  1.8798
  430MOL0     H56704   3.302   8.708   9.241 -0.1057 -1.5101 -2.9082
  430MOL0     H56705   3.588   8.583   9.234  0.2877  0.5494 -1.6456
  430MOL0     H56706   3.443   8.483   9.235 -0.0190  0.2401  1.7112
  430MOL0     H56707   3.378   8.589   9.459 -0.1311  0.5692  0.0880
  430MOL0     H56708   3.546   8.644   9.470 -2.7247  2.0801  0.3518
  430MOL0     H56709   3.623   8.421   9.459 -0.0808  1.0395  0.1403
  430MOL0     H56710   3.518   8.448   9.603  1.9902 -0.1475  0.3250
  430MOL0     H56711   3.453   8.298   9.349  2.4102 -0.4619  0.3959
  430MOL0     H56712   3.314   8.364   9.444 -1.0952 -0.5448 -0.4215
  430MOL0     H56713   3.541   8.053   9.444  2.3832 -1.0254  2.9140
  430MOL0     H56714   3.522   7.815   9.554 -1.0102 -2.5098  0.8915
  430MOL0     H56715   3.354   7.792   9.588  1.2719  0.1689 -2.1493
  430MOL0     H56716   3.355   7.820   9.800  0.4312  1.4230  0.7770
  430MOL0     H56717   3.509   7.901   9.819 -0.1083  1.5601 -0.5102
  430MOL0     H56718   3.504   7.661   9.891  1.5204  1.6835  0.9111
  430MOL0     H56719   3.486   7.602   9.729  0.2667 -1.1823  1.0518
  430MOL0     H56720   3.695   7.703   9.666 -0.3289 -3.4002 -0.8100
  430MOL0     H56721   3.699   7.572   9.781 -2.0761 -0.0624 -2.0658
  430MOL0     H56722   3.943   7.582   9.764  3.1908 -1.9844  0.9506
  430MOL0     H56723   4.164   7.595   9.807  0.4246  1.7695 -1.4035
  430MOL0     H56724   4.482   7.544  10.081 -1.4422  0.6398  1.0374
  430MOL0     H56725   4.734   7.555  10.150 -0.1383  0.8566  0.2417
  430MOL0     H56726   4.990   7.916  10.072  0.9073  0.4354 -1.5873
  430MOL0     H56727   4.985   7.819   9.928 -3.1008 -0.1138  0.8453
  430MOL0     H56728   5.161   7.676  10.026  1.9507 -0.4505  2.1360
  430MOL0     H56729   5.148   7.784  10.178 -1.1574  1.5175 -0.3808
  430MOL0     H56730   5.238   7.974  10.078  1.1695  2.1677 -1.6539
  430MOL0     H56731   5.256   7.902   9.918  1.7527  0.4078  0.3293
  430MOL0     H56732   5.478   7.905  10.038  1.5463 -2.0933 -0.6810
  430MOL0     H56733   5.395   7.813  10.164 -1.8160  1.2108 -0.7559
  430MOL0     H56734   5.373   7.679   9.915  0.6775  1.5086 -0.2001
  430MOL0     H56735   5.417   7.611  10.072  1.0632 -2.3663 -2.7937
  430MOL0     H56736   5.598   7.570   9.965 -0.7242  0.2169  0.1079
  430MOL0     H56737   5.639   7.699  10.065  0.9363  1.6028 -1.2814
  430MOL0     H56738   5.606   7.740   9.766 -0.5085 -0.4546  0.0734
  430MOL0     H56739   5.645   7.868   9.890  1.2038 -1.1692  6.2836
  430MOL0     H56740   5.856   7.724   9.948 -1.3559  0.5336  1.7237
  430MOL0     H56741   5.845   7.816   9.800  0.7956  0.4806  0.7614
  430MOL0     H56742   4.795   7.912   9.928  0.8636 -0.5181 -0.1524
  430MOL0     H56743   4.546   7.885   9.846 -1.5767 -2.2237 -0.8700
  430MOL0     H56744   4.084   7.864  10.127 -2.2025  0.1497  0.6045
  430MOL0     H56745   3.848   7.879  10.056  0.4153 -1.9208  4.5691
  430MOL0     H56746   3.432   8.760   8.589 -1.3063 -0.3596 -3.2404
  430MOL0     H56747   3.471   8.786   8.339  0.5200 -2.5019 -0.7483
  430MOL0     H56748   3.930   8.647   8.001 -4.3575 -0.9907  0.8003
  430MOL0     H56749   3.994   8.693   7.763 -1.8525 -0.4461 -2.0770
  430MOL0     H56750   3.949   8.700   7.538  1.9172 -0.2994 -4.4559
  430MOL0     H56751   4.060   8.841   7.580  0.4684 -1.3609  0.9247
  430MOL0     H56752   4.050   8.769   7.354 -0.2285  2.0511 -1.8762
  430MOL0     H56753   3.885   8.814   7.336 -0.8097  2.5816  0.6840
  430MOL0     H56754   4.125   8.994   7.406  1.7112 -0.3303 -2.4778
  430MOL0     H56755   3.959   9.060   7.394 -0.9328 -0.4782 -0.1324
  430MOL0     H56756   4.107   8.896   7.187  0.5631 -0.2724 -0.5024
  430MOL0     H56757   3.944   8.951   7.169 -0.0399 -1.2718 -0.0407
  430MOL0     H56758   4.172   9.314   7.103 -2.4067  1.4702  0.2571
  430MOL0     H56759   3.685   8.984   7.737 -0.2793 -2.7113 -1.8829
  430MOL0     H56760   3.637   8.958   7.994 -0.7933 -0.7953  0.2470
  431MOL0     O56761  10.092   4.851   9.869 -0.2280  0.3699 -0.6275
  431MOL0     C56762  10.101   4.974   9.891 -0.8750  0.6216  0.1615
  431MOL0     O56763  10.009   5.060   9.954 -0.4147  0.0222  0.3398
  431MOL0     C56764   9.883   5.014   9.981  0.4308  0.2538 -0.6870
  431MOL0     C56765   9.775   5.093   9.937 -0.3919  0.7191  0.5278
  431MOL0     C56766   9.645   5.046   9.970  0.4816 -0.2659 -0.5355
  431MOL0     C56767   9.613   4.938  10.062  0.0194 -0.6543  0.4988
  431MOL0     O56768   9.490   4.895  10.066 -0.0709  0.1590 -1.4667
  431MOL0     C56769   9.451   4.831  10.191  0.1193  1.1817 -0.7087
  431MOL0     C56770   9.303   4.865  10.220 -0.5787 -1.2555 -0.3609
  431MOL0     C56771   9.212   4.769  10.140  0.2246 -0.0126 -0.0281
  431MOL0     C56772   9.078   4.781  10.188 -0.0752 -0.3412  0.2260
  431MOL0     C56773   8.973   4.685  10.119 -1.2353 -1.5932  0.0919
  431MOL0     C56774   8.918   4.757   9.994  0.3597 -0.1169  0.1250
  431MOL0     C56775   8.823   4.651   9.936 -0.4075  0.2018 -0.6107
  431MOL0     C56776   8.774   4.681   9.803  0.4051 -0.3195 -0.7238
  431MOL0     N56777   8.699   4.806   9.807  0.6272 -0.5692 -0.0066
  431MOL0     C56778   8.567   4.816   9.844  0.5336  0.2748 -0.4089
  431MOL0     C56779   8.528   4.943   9.851  1.1616 -0.2219 -0.8167
  431MOL0     C56780   8.394   4.990   9.905  0.3955  0.0937  0.7192
  431MOL0     C56781   8.287   4.990   9.786 -0.2140  0.1576  0.6080
  431MOL0     C56782   8.159   5.052   9.834 -0.5654 -0.0005  0.5158
  431MOL0     C56783   8.034   5.046   9.745 -0.2267  0.1178 -0.3400
  431MOL0     O56784   8.060   5.058   9.604 -0.5568 -0.4679 -0.1069
  431MOL0     C56785   7.957   5.056   9.513 -0.7723 -0.8560  0.3495
  431MOL0     C56786   7.824   5.015   9.554  0.0430 -0.4894 -0.4597
  431MOL0     C56787   7.717   5.025   9.455 -0.7511  0.6839 -0.3478
  431MOL0     C56788   7.740   5.066   9.320  0.1194 -0.3400  0.0035
  431MOL0     C56789   7.635   5.099   9.231 -0.6877 -0.6909 -0.5307
  431MOL0     O56790   7.506   5.121   9.284  0.5162  0.8777 -0.7364
  431MOL0     C56791   7.393   5.126   9.210 -0.3861 -0.5591  0.5579
  431MOL0     C56792   7.284   5.040   9.237  0.0278 -0.6081 -0.3424
  431MOL0     C56793   7.181   5.031   9.152  0.3214 -0.0217  0.1622
  431MOL0     C56794   7.176   5.117   9.043  0.1341 -0.3822  0.2255
  431MOL0     O56795   7.078   5.092   8.952  0.8038 -0.6508 -0.1329
  431MOL0     C56796   7.061   5.176   8.842 -0.4266  0.7702  0.0620
  431MOL0     C56797   6.939   5.123   8.765 -0.8921 -0.1371  0.3390
  431MOL0     C56798   6.927   5.208   8.633 -1.0075  0.5692 -0.4925
  431MOL0     C56799   6.782   5.191   8.590  0.5335  0.0011  0.1185
  431MOL0     C56800   6.779   5.268   8.454  0.2927 -0.5336  0.0892
  431MOL0     C56801   6.639   5.261   8.400 -0.4541 -0.4137  1.1427
  431MOL0     C56802   6.530   5.352   8.475  0.8614  0.4732  0.2504
  431MOL0     C56803   6.400   5.373   8.379 -0.6618  0.0548 -0.0411
  431MOL0    Cl56804   6.314   5.208   8.347 -0.0247  0.0612 -0.1878
  431MOL0     C56805   7.272   5.214   9.025  0.3080 -0.1491  0.1918
  431MOL0     C56806   7.385   5.216   9.104  0.1200 -0.0850  1.2910
  431MOL0     O56807   7.661   5.109   9.113 -0.5232 -0.0368  0.0414
  431MOL0     C56808   7.877   5.091   9.278  0.1679  0.0080 -0.8480
  431MOL0     C56809   7.980   5.088   9.376 -0.5220  0.2137 -0.4707
  431MOL0     N56810   8.641   5.014   9.816 -0.0479 -0.8648  0.2871
  431MOL0     N56811   8.742   4.938   9.801 -0.9121  0.7788 -0.0229
  431MOL0     C56812   9.721   4.869  10.100  0.3928 -0.2787  0.1453
  431MOL0     C56813   9.852   4.901  10.059 -0.0577 -0.5224 -1.6919
  431MOL0     C56814  10.228   5.036   9.847  0.2366  0.8718  1.1365
  431MOL0     C56815  10.259   5.168   9.850  0.6344 -0.4076 -0.8635
  431MOL0     C56816  10.385   5.220   9.823  0.3707 -0.3126 -0.1325
  431MOL0     C56817  10.486   5.136   9.792 -0.8442 -0.5400  0.4634
  431MOL0     O56818  10.616   5.182   9.778  0.1571 -0.4302  0.4815
  431MOL0     C56819  10.721   5.091   9.758 -0.0064 -0.4721 -0.0307
  431MOL0     C56820  10.849   5.159   9.778 -0.0033 -0.1007  0.0643
  431MOL0     C56821  10.857   5.231   9.915  0.6141 -0.2231 -0.1266
  431MOL0     C56822  10.952   5.358   9.917 -0.1748 -0.1570  0.6696
  431MOL0     C56823  11.088   5.328   9.881  0.3848  0.3518 -0.0648
  431MOL0     C56824  11.200   5.310   9.845  0.7753  1.4545 -0.1324
  431MOL0     C56825  10.455   5.002   9.778  0.6835 -0.8435 -0.0224
  431MOL0     C56826  10.331   4.955   9.800  0.7347  0.7572  0.8241
  431MOL0     H56827   9.782   5.185   9.880  0.6440  0.7581  0.6871
  431MOL0     H56828   9.561   5.104   9.933  1.2361  0.7681 -0.6917
  431MOL0     H56829   9.499   4.862  10.284  2.0362  1.1362 -1.6262
  431MOL0     H56830   9.471   4.724  10.180 -0.8879  1.1384 -2.5340
  431MOL0     H56831   9.276   4.966  10.188 -3.0410 -1.6385  0.2913
  431MOL0     H56832   9.283   4.859  10.328 -2.4774 -2.6389 -0.7251
  431MOL0     H56833   9.245   4.665  10.147  1.4700  0.4480  1.8424
  431MOL0     H56834   9.215   4.791  10.033 -1.8982 -0.5866 -0.2562
  431MOL0     H56835   9.083   4.748  10.292 -0.0635 -0.9846  0.0221
  431MOL0     H56836   9.037   4.883  10.183 -4.4460 -1.9294 -2.6801
  431MOL0     H56837   8.894   4.662  10.190 -0.7862 -0.7734  0.8692
  431MOL0     H56838   9.011   4.585  10.095  0.5818 -0.6281 -1.3377
  431MOL0     H56839   8.991   4.783   9.918 -0.2276  1.9317  0.2055
  431MOL0     H56840   8.857   4.844  10.023 -0.0907 -1.2259  2.8767
  431MOL0     H56841   8.880   4.557   9.934  2.4547  1.8246  0.1554
  431MOL0     H56842   8.736   4.619   9.995 -1.2195 -1.2416 -2.4502
  431MOL0     H56843   8.713   4.595   9.776  2.6579 -1.7323 -1.6553
  431MOL0     H56844   8.845   4.692   9.720  0.1150  0.5811 -0.8578
  431MOL0     H56845   8.500   4.733   9.863  1.4352 -0.6654 -1.2201
  431MOL0     H56846   8.412   5.095   9.927  0.1223  0.1451  0.7055
  431MOL0     H56847   8.355   4.935   9.991 -2.9577  0.3303 -0.4787
  431MOL0     H56848   8.266   4.885   9.761  0.7562 -0.0417  0.5793
  431MOL0     H56849   8.320   5.036   9.692 -1.3817 -1.5726 -0.7205
  431MOL0     H56850   8.122   5.019   9.932  0.5892  0.9314  1.2833
  431MOL0     H56851   8.185   5.158   9.839  0.2919 -0.0415 -2.0155
  431MOL0     H56852   7.968   5.127   9.777 -3.1823 -1.7040 -1.3629
  431MOL0     H56853   7.987   4.948   9.759 -0.9391  0.4084 -0.6616
  431MOL0     H56854   7.795   4.985   9.654 -2.1114 -0.7049 -1.1036
  431MOL0     H56855   7.620   5.011   9.502  0.9777 -3.4379  2.5889
  431MOL0     H56856   7.292   4.972   9.321 -3.5152  1.0735  1.5500
  431MOL0     H56857   7.101   4.960   9.167  0.1968 -0.1722 -1.1582
  431MOL0     H56858   7.149   5.175   8.777  1.7583  0.4415  2.8157
  431MOL0     H56859   7.052   5.278   8.879 -0.9185 -0.0311  2.3286
  431MOL0     H56860   6.852   5.138   8.829 -1.0847 -0.7120  0.2211
  431MOL0     H56861   6.953   5.019   8.734  2.2421  0.5714 -1.0747
  431MOL0     H56862   6.997   5.179   8.554  0.0523  1.4771  0.0813
  431MOL0     H56863   6.956   5.312   8.650 -0.9768  0.2179  1.8457
  431MOL0     H56864   6.737   5.092   8.576  0.7599 -0.4725  2.3034
  431MOL0     H56865   6.721   5.248   8.662  0.3328  0.2605 -0.2539
  431MOL0     H56866   6.846   5.215   8.385 -1.2253 -2.0291 -0.3122
  431MOL0     H56867   6.826   5.366   8.463  2.3571 -1.1025 -2.7923
  431MOL0     H56868   6.602   5.158   8.394 -0.1527 -0.4555 -0.4487
  431MOL0     H56869   6.627   5.294   8.296 -2.4368 -0.8793  1.1708
  431MOL0     H56870   6.488   5.300   8.561  0.0523 -1.0283 -0.9793
  431MOL0     H56871   6.567   5.452   8.497 -2.7750  2.4920 -1.7612
  431MOL0     H56872   6.422   5.423   8.284 -2.6476  3.6325  1.1901
  431MOL0     H56873   6.332   5.442   8.430  1.7146  0.0907  3.3657
  431MOL0     H56874   7.253   5.289   8.949 -1.2202 -1.2561 -0.5586
  431MOL0     H56875   7.469   5.280   9.078  1.2560 -1.8495  0.4110
  431MOL0     H56876   7.905   5.110   9.174  2.8290 -0.5858 -0.3265
  431MOL0     H56877   8.084   5.109   9.351 -0.4153 -0.0664 -0.2754
  431MOL0     H56878   9.702   4.780  10.159 -2.3844  0.0345 -0.1733
  431MOL0     H56879   9.938   4.839  10.080  0.3414 -0.1608 -2.2350
  431MOL0     H56880  10.180   5.234   9.885  0.8592 -0.9054  0.6097
  431MOL0     H56881  10.400   5.325   9.845 -0.6632 -0.3481  0.8519
  431MOL0     H56882  10.717   5.052   9.656 -1.3677 -1.2738  0.3059
  431MOL0     H56883  10.711   5.003   9.822  1.6421 -1.2360 -0.7780
  431MOL0     H56884  10.935   5.092   9.772  0.5068  0.4533  1.0954
  431MOL0     H56885  10.864   5.230   9.696  1.7180 -1.0656 -0.4979
  431MOL0     H56886  10.884   5.158   9.991  2.0189 -1.0959 -1.3882
  431MOL0     H56887  10.755   5.256   9.943 -0.2297 -3.3578 -0.0377
  431MOL0     H56888  10.913   5.427   9.841 -1.9137 -1.7271  0.0656
  431MOL0     H56889  10.961   5.404  10.015 -0.8490 -0.4527  0.8748
  431MOL0     H56890  11.302   5.294   9.819  0.3974 -3.9261  0.5587
  431MOL0     H56891  10.522   4.924   9.742  1.7557  0.0387  0.0115
  431MOL0     H56892  10.309   4.849   9.790  0.3328  0.9232 -0.2086
  432MOL0     O56893   8.361   6.816   1.918  0.1762 -0.4060  0.4324
  432MOL0     C56894   8.320   6.895   2.000  0.7207 -0.2679 -0.5063
  432MOL0     O56895   8.226   6.987   1.981 -0.1431  0.2539 -0.6692
  432MOL0     C56896   8.177   6.999   1.850 -0.3157  0.2197  0.1507
  432MOL0     C56897   8.226   7.102   1.776  0.6700  0.3688  0.0666
  432MOL0     C56898   8.170   7.138   1.651 -0.2106 -0.5454 -0.6210
  432MOL0     C56899   8.064   7.067   1.601 -0.2397  0.8897  0.5354
  432MOL0     O56900   8.019   7.095   1.473  0.4993 -0.2998  0.7585
  432MOL0     C56901   7.913   7.009   1.425 -0.4086 -0.0488 -0.4805
  432MOL0     C56902   7.885   7.030   1.276 -0.0071 -0.4830  0.2615
  432MOL0     C56903   7.760   6.952   1.232  0.8858 -0.0846 -0.1464
  432MOL0     C56904   7.712   7.011   1.105 -0.3711  0.7083  0.6994
  432MOL0     C56905   7.596   6.936   1.042 -1.0907 -0.3634  0.7491
  432MOL0     C56906   7.559   7.005   0.910  0.0444  0.1376 -1.5405
  432MOL0     C56907   7.433   6.944   0.843 -0.1992  0.1482  0.5180
  432MOL0     C56908   7.306   6.942   0.923 -0.0468  0.3557  0.7308
  432MOL0     N56909   7.178   6.918   0.843  0.0422 -0.1596  0.3530
  432MOL0     C56910   7.087   7.013   0.817  0.6231 -1.4628  0.3026
  432MOL0     C56911   7.013   6.959   0.724  1.2169  0.1346  0.3801
  432MOL0     C56912   6.895   7.014   0.653  0.6600 -0.2456  0.3627
  432MOL0     C56913   6.924   7.159   0.603 -0.1566  0.0088  0.3982
  432MOL0     C56914   7.006   7.177   0.472  0.1243  0.7903  0.2018
  432MOL0     C56915   7.059   7.308   0.458  0.2729 -0.0034  0.6645
  432MOL0     O56916   7.149   7.330   0.566  0.1214 -0.0448 -0.3897
  432MOL0     C56917   7.276   7.273   0.570  0.3690  0.3363 -0.0096
  432MOL0     C56918   7.336   7.203   0.461 -0.6446 -0.6832  0.5307
  432MOL0     C56919   7.470   7.172   0.453  0.3117 -0.6449 -0.0386
  432MOL0     C56920   7.556   7.198   0.566 -1.0072  0.4132 -0.0692
  432MOL0     C56921   7.701   7.173   0.563 -0.7213  0.6813  0.3286
  432MOL0     O56922   7.763   7.185   0.437  0.4730  0.0490 -0.1915
  432MOL0     C56923   7.881   7.124   0.432  0.1421  0.8183  0.9481
  432MOL0     C56924   7.898   6.985   0.417  0.7227 -0.6582 -0.4695
  432MOL0     C56925   8.025   6.926   0.405  0.9774 -0.4032 -0.8851
  432MOL0     C56926   8.136   7.004   0.425 -0.7172 -0.6790  0.0157
  432MOL0     O56927   8.257   6.933   0.389  0.3574  0.3916 -0.7717
  432MOL0     C56928   8.383   6.985   0.432 -0.2321  0.5792 -0.1208
  432MOL0     C56929   8.399   7.004   0.589  0.7057  0.5863 -0.0623
  432MOL0     C56930   8.398   6.873   0.685 -0.0370  0.3941 -0.6397
  432MOL0     C56931   8.408   6.898   0.839 -0.4435 -0.9543 -0.7176
  432MOL0     C56932   8.437   6.770   0.913 -0.3000  0.6045 -0.7185
  432MOL0     C56933   8.417   6.784   1.061 -0.7058 -0.3469 -0.6093
  432MOL0     C56934   8.267   6.785   1.094  0.3331  0.4622  1.0233
  432MOL0     C56935   8.255   6.809   1.243  0.7552  0.3424  0.3721
  432MOL0    Cl56936   8.321   6.671   1.335  0.0343 -0.5384  0.6041
  432MOL0     C56937   8.120   7.140   0.450 -0.0907  0.0824 -0.0963
  432MOL0     C56938   7.995   7.200   0.446  1.0941 -0.1119 -0.3729
  432MOL0     O56939   7.751   7.126   0.665  0.5153 -0.4407 -0.3048
  432MOL0     C56940   7.500   7.264   0.680 -0.4102  0.4349  0.0694
  432MOL0     C56941   7.368   7.311   0.673  0.1873  0.3367  0.1713
  432MOL0     N56942   7.053   6.834   0.691 -0.3264  0.2379 -0.3622
  432MOL0     N56943   7.158   6.803   0.765 -0.4637  0.1000 -0.0884
  432MOL0     C56944   8.021   6.957   1.678  0.9741 -0.9895 -0.6004
  432MOL0     C56945   8.064   6.933   1.804  0.0737 -0.1986 -0.9910
  432MOL0     C56946   8.380   6.905   2.133  0.3099 -1.1722  0.2623
  432MOL0     C56947   8.428   6.803   2.214 -0.1505  0.2141  0.0684
  432MOL0     C56948   8.494   6.822   2.338  0.0012  0.3192 -0.4422
  432MOL0     C56949   8.520   6.957   2.390  1.2366  0.3934  1.2783
  432MOL0     O56950   8.565   6.984   2.519  0.0231  0.0657  0.7287
  432MOL0     C56951   8.624   6.879   2.588 -0.1154  0.0313 -0.5409
  432MOL0     C56952   8.521   6.795   2.669  0.4076  0.0480 -0.5426
  432MOL0     C56953   8.464   6.895   2.777 -1.2607 -0.0636 -0.8113
  432MOL0     C56954   8.384   6.803   2.873  0.5344 -0.6660 -0.6736
  432MOL0     C56955   8.314   6.883   2.980 -0.6173 -0.7644 -0.3187
  432MOL0     C56956   8.245   6.933   3.059 -0.5720 -0.3348 -0.5261
  432MOL0     C56957   8.475   7.061   2.304  0.4374  0.0956  0.1290
  432MOL0     C56958   8.399   7.035   2.186  0.1377  0.5101  0.1510
  432MOL0     H56959   8.307   7.164   1.813  0.5752  0.6778 -0.2464
  432MOL0     H56960   8.213   7.216   1.589 -1.5429 -1.5623 -2.9693
  432MOL0     H56961   7.821   7.020   1.482 -0.8935 -1.4017 -0.9451
  432MOL0     H56962   7.945   6.905   1.442 -2.9217 -0.5350  1.8920
  432MOL0     H56963   7.969   6.992   1.216  1.7713  2.1669  0.8925
  432MOL0     H56964   7.869   7.137   1.259 -0.6454 -1.0308 -3.5445
  432MOL0     H56965   7.681   6.955   1.308 -1.1737 -2.2458 -2.0226
  432MOL0     H56966   7.782   6.845   1.223 -0.8383 -0.5403  0.6718
  432MOL0     H56967   7.669   7.111   1.117  0.2195  0.7132  3.1782
  432MOL0     H56968   7.797   7.026   1.037 -1.1477 -1.4712 -0.8809
  432MOL0     H56969   7.508   6.934   1.106 -2.8212  0.4781 -1.4460
  432MOL0     H56970   7.627   6.835   1.014 -0.6133 -0.5082  1.7910
  432MOL0     H56971   7.645   6.984   0.845 -0.3741 -0.3547 -1.9448
  432MOL0     H56972   7.540   7.108   0.941 -1.0613 -0.4291 -0.2056
  432MOL0     H56973   7.434   6.999   0.748  2.7954  0.9313  0.8735
  432MOL0     H56974   7.449   6.838   0.820  0.7691  0.5402 -0.7474
  432MOL0     H56975   7.305   7.043   0.964 -3.9747 -0.5147  3.2978
  432MOL0     H56976   7.308   6.877   1.011  1.3223 -0.4268  0.1648
  432MOL0     H56977   7.082   7.115   0.852  2.1942 -1.5751  0.8999
  432MOL0     H56978   6.813   7.027   0.724  1.2034 -2.4391  1.4901
  432MOL0     H56979   6.864   6.964   0.561  2.4877  2.4871 -1.9211
  432MOL0     H56980   6.963   7.218   0.686 -0.0898  2.9471 -1.5402
  432MOL0     H56981   6.835   7.218   0.579  0.4966  0.4201 -1.1638
  432MOL0     H56982   7.086   7.104   0.458  1.5362  2.4121 -0.5147
  432MOL0     H56983   6.938   7.153   0.390  1.7383 -1.9618 -0.4773
  432MOL0     H56984   6.978   7.378   0.476  0.1976 -0.7791  3.9615
  432MOL0     H56985   7.112   7.314   0.362  0.8876  1.1587  1.0500
  432MOL0     H56986   7.266   7.181   0.381 -0.4827  0.6896 -0.0173
  432MOL0     H56987   7.516   7.121   0.369 -0.6891  0.9596 -1.6226
  432MOL0     H56988   7.812   6.921   0.395 -0.3225  0.4493  0.2529
  432MOL0     H56989   8.031   6.817   0.397 -0.3274 -0.6621  0.9866
  432MOL0     H56990   8.396   7.081   0.381 -0.1851  0.6531  0.0303
  432MOL0     H56991   8.473   6.931   0.403 -1.5368 -2.2580  0.8011
  432MOL0     H56992   8.315   7.070   0.614 -0.2586 -1.1879  1.7030
  432MOL0     H56993   8.486   7.062   0.619 -0.2212  0.7903  2.5487
  432MOL0     H56994   8.484   6.810   0.660  0.8146  0.7913  1.1030
  432MOL0     H56995   8.308   6.817   0.659  0.9873  0.0092 -3.7970
  432MOL0     H56996   8.495   6.964   0.850  0.0664 -2.0199  2.6705
  432MOL0     H56997   8.332   6.958   0.890  0.3147 -0.4151 -0.1923
  432MOL0     H56998   8.541   6.743   0.891 -0.5581  1.4435 -3.3463
  432MOL0     H56999   8.358   6.697   0.891  0.2340 -0.0192 -0.6270
  432MOL0     H57000   8.461   6.876   1.100 -1.4092 -1.1369  2.3093
  432MOL0     H57001   8.475   6.706   1.112 -0.5249 -0.6998 -1.3406
  432MOL0     H57002   8.210   6.857   1.035  1.1958  0.4526  0.1472
  432MOL0     H57003   8.221   6.687   1.083  2.4744 -0.5499  0.3771
  432MOL0     H57004   8.149   6.832   1.257  0.0044 -0.6479 -2.8854
  432MOL0     H57005   8.313   6.898   1.264 -0.8365  1.2465  1.1417
  432MOL0     H57006   8.207   7.205   0.445 -0.8079  1.0028 -1.5307
  432MOL0     H57007   7.991   7.306   0.471  1.2427 -0.3482  0.7354
  432MOL0     H57008   7.553   7.288   0.771 -0.8950 -2.8630  1.3417
  432MOL0     H57009   7.329   7.379   0.748  2.5063  1.2384  0.6408
  432MOL0     H57010   7.927   6.908   1.653  0.5361 -1.2604  1.4032
  432MOL0     H57011   8.019   6.847   1.852  2.3466  0.1423  2.0492
  432MOL0     H57012   8.411   6.702   2.178 -0.8423 -0.1030  1.2317
  432MOL0     H57013   8.513   6.738   2.404  0.4243  0.1648 -0.7553
  432MOL0     H57014   8.701   6.920   2.655 -0.5757 -0.3703  0.2526
  432MOL0     H57015   8.680   6.811   2.523 -0.1427  0.7186 -1.3011
  432MOL0     H57016   8.439   6.753   2.610 -0.0101 -1.0888  0.7761
  432MOL0     H57017   8.573   6.708   2.709 -0.6470  1.6849  5.3957
  432MOL0     H57018   8.403   6.975   2.734 -0.0506  0.5480 -1.4258
  432MOL0     H57019   8.547   6.945   2.827  1.4183 -1.5624 -3.4341
  432MOL0     H57020   8.308   6.745   2.821  0.9824 -1.8423 -0.0670
  432MOL0     H57021   8.448   6.731   2.926 -2.6212 -2.7455  0.5737
  432MOL0     H57022   8.175   6.987   3.119  1.1995  0.8087  0.6310
  432MOL0     H57023   8.487   7.160   2.347  0.4782  0.2344 -0.2004
  432MOL0     H57024   8.357   7.115   2.127 -0.2705  0.2201  0.0419
  433MOL0     O57025  10.541   7.534   3.242 -0.2660 -0.3665 -0.3179
  433MOL0     C57026  10.584   7.439   3.316  0.2659 -0.7855 -0.4220
  433MOL0     O57027  10.508   7.374   3.408  0.9849  0.1747  0.3029
  433MOL0     C57028  10.372   7.381   3.373  0.7088 -0.4810  0.5631
  433MOL0     C57029  10.322   7.276   3.305  0.9288  1.2266  0.4079
  433MOL0     C57030  10.195   7.267   3.256 -0.3373 -0.2185  0.1869
  433MOL0     C57031  10.106   7.376   3.280 -0.4049 -0.8120  0.0608
  433MOL0     O57032   9.979   7.378   3.235 -0.2621  0.3070  0.3460
  433MOL0     C57033   9.947   7.288   3.131  0.8417  0.7288 -0.2352
  433MOL0     C57034   9.860   7.172   3.193 -1.3052  0.1709 -0.6857
  433MOL0     C57035   9.804   7.083   3.084 -0.5028  0.2646 -0.1003
  433MOL0     C57036   9.917   7.006   3.004  1.7598 -0.1516 -0.4854
  433MOL0     C57037   9.861   6.890   2.930 -0.4178 -0.3309  0.4993
  433MOL0     C57038   9.803   6.782   3.028  0.1289  0.2341 -0.0419
  433MOL0     C57039   9.674   6.717   2.976 -0.1512 -0.3797 -0.5883
  433MOL0     C57040   9.696   6.645   2.847  0.2028  0.0961 -0.0107
  433MOL0     N57041   9.568   6.581   2.822  0.1616  1.0174  0.2616
  433MOL0     C57042   9.439   6.634   2.821 -0.3498  0.2693  0.0551
  433MOL0     C57043   9.358   6.527   2.810  0.0318 -0.9800 -0.8310
  433MOL0     C57044   9.200   6.529   2.821 -0.6803 -0.6633 -0.3441
  433MOL0     C57045   9.134   6.545   2.688 -0.1952 -0.4336  0.0769
  433MOL0     C57046   8.990   6.582   2.690 -0.2121  1.0984  0.1397
  433MOL0     C57047   8.935   6.654   2.566 -0.8719  0.4044  0.6579
  433MOL0     O57048   8.986   6.780   2.533 -0.4759  0.0048  0.4217
  433MOL0     C57049   8.960   6.813   2.401 -0.4406  0.3756 -0.7430
  433MOL0     C57050   8.991   6.744   2.283  0.5030 -0.0803  0.9552
  433MOL0     C57051   8.958   6.797   2.160  0.1946 -0.1780  0.3445
  433MOL0     C57052   8.892   6.923   2.156 -0.4488  0.1783  0.4775
  433MOL0     C57053   8.867   6.999   2.026 -0.4921  0.0457 -0.4426
  433MOL0     O57054   8.815   7.122   2.023  0.4464 -0.3389 -0.3299
  433MOL0     C57055   8.780   7.171   1.909  0.5875 -0.2314  0.3521
  433MOL0     C57056   8.863   7.235   1.813 -0.2996 -0.1807  0.3392
  433MOL0     C57057   8.815   7.291   1.690  0.9625 -0.3246 -0.0076
  433MOL0     C57058   8.680   7.265   1.660  0.2010 -0.7657  0.0639
  433MOL0     O57059   8.648   7.321   1.535  0.2526  0.1725 -0.7318
  433MOL0     C57060   8.512   7.277   1.494  0.1640  0.8807 -0.2124
  433MOL0     C57061   8.482   7.341   1.365  0.3235  0.5192 -0.0391
  433MOL0     C57062   8.342   7.327   1.318  0.3570  0.0072  0.7086
  433MOL0     C57063   8.313   7.185   1.261 -0.0817  0.1097 -0.1809
  433MOL0     C57064   8.185   7.170   1.174 -0.3531 -0.1174  0.5098
  433MOL0     C57065   8.226   7.251   1.037 -0.3215 -0.2868  0.1106
  433MOL0     C57066   8.104   7.235   0.938 -0.3700 -0.1142 -0.1926
  433MOL0     C57067   8.129   7.261   0.787  0.2913 -0.3471  0.0093
  433MOL0    Cl57068   8.098   7.447   0.769  0.3366 -0.1581  0.5169
  433MOL0     C57069   8.598   7.194   1.749 -0.7073 -0.1114  0.0404
  433MOL0     C57070   8.644   7.144   1.874 -0.6714 -0.8282  0.3032
  433MOL0     O57071   8.911   6.936   1.930 -0.3586  1.5574 -0.5672
  433MOL0     C57072   8.862   6.987   2.276 -0.1500  0.1268  0.4773
  433MOL0     C57073   8.907   6.938   2.395 -0.1908  0.3567 -0.6370
  433MOL0     N57074   9.436   6.414   2.803 -0.8696 -0.3567  0.6542
  433MOL0     N57075   9.561   6.447   2.800 -0.3386 -0.4058 -0.1103
  433MOL0     C57076  10.152   7.485   3.362 -0.2391 -0.3819  0.2332
  433MOL0     C57077  10.289   7.489   3.401 -0.6568  0.1934  0.0492
  433MOL0     C57078  10.724   7.396   3.284  0.1481 -0.4423  0.4271
  433MOL0     C57079  10.798   7.461   3.183 -0.0628 -0.6363 -0.1655
  433MOL0     C57080  10.933   7.442   3.165 -0.7250  0.9111  0.4385
  433MOL0     C57081  11.003   7.356   3.249 -0.1615 -0.2598 -0.8819
  433MOL0     O57082  11.144   7.339   3.261 -0.3450  0.2511  0.3496
  433MOL0     C57083  11.225   7.437   3.181 -0.9898 -1.1086  0.0999
  433MOL0     C57084  11.252   7.394   3.038  0.6774  0.3560  0.4884
  433MOL0     C57085  11.345   7.484   2.959  0.0791  0.0957 -1.1921
  433MOL0     C57086  11.494   7.445   2.966 -0.1292  0.0372 -0.1902
  433MOL0     C57087  11.567   7.487   3.095 -0.8184  0.5530 -0.5024
  433MOL0     C57088  11.625   7.509   3.195  0.1880 -0.7621 -0.5292
  433MOL0     C57089  10.922   7.294   3.354 -0.0148  1.0418 -0.0790
  433MOL0     C57090  10.784   7.304   3.368 -0.1549 -0.1513 -0.8148
  433MOL0     H57091  10.383   7.191   3.277 -0.3066  0.5241 -0.2393
  433MOL0     H57092  10.173   7.182   3.192 -1.5808  0.1517  0.0900
  433MOL0     H57093  10.025   7.257   3.061 -1.8756 -2.4929 -2.1534
  433MOL0     H57094   9.877   7.340   3.065  0.4871  1.4432  0.6750
  433MOL0     H57095   9.788   7.214   3.264 -1.7796 -1.8385  0.0994
  433MOL0     H57096   9.937   7.105   3.233 -0.4164 -3.0760 -6.5543
  433MOL0     H57097   9.750   7.137   3.006  2.6456  2.5627 -0.9225
  433MOL0     H57098   9.737   7.017   3.140  2.4782 -2.1617  0.9089
  433MOL0     H57099   9.970   7.074   2.937  1.3768  0.1473 -0.4927
  433MOL0     H57100  10.003   6.979   3.066  3.0040  1.7835 -1.2837
  433MOL0     H57101   9.937   6.843   2.867 -1.2879  1.2419 -1.8598
  433MOL0     H57102   9.784   6.932   2.864 -0.3952  0.7051  1.1019
  433MOL0     H57103   9.778   6.820   3.127 -1.1579  3.0613 -1.3637
  433MOL0     H57104   9.870   6.702   3.061  0.4960 -0.4560 -2.2325
  433MOL0     H57105   9.632   6.655   3.056 -2.4457  0.7691 -0.8102
  433MOL0     H57106   9.604   6.798   2.954 -1.6156 -1.5128 -0.2411
  433MOL0     H57107   9.777   6.572   2.837  0.4260  0.2411  0.6636
  433MOL0     H57108   9.719   6.726   2.776 -1.0110  1.9458  1.6034
  433MOL0     H57109   9.403   6.736   2.830 -2.1625 -0.1096 -2.1096
  433MOL0     H57110   9.169   6.609   2.890  2.8626  1.7770 -1.3220
  433MOL0     H57111   9.167   6.432   2.862 -1.3081 -0.9882 -1.5706
  433MOL0     H57112   9.132   6.455   2.626  1.0668  1.0048 -2.1816
  433MOL0     H57113   9.191   6.631   2.652 -1.6345  2.1779  3.4940
  433MOL0     H57114   8.933   6.490   2.706 -0.4184  1.2675  0.3835
  433MOL0     H57115   8.956   6.641   2.776 -4.5815  1.0585 -1.2812
  433MOL0     H57116   8.827   6.664   2.579 -1.1711 -3.8298  3.4942
  433MOL0     H57117   8.957   6.586   2.483  1.7175  3.0045 -0.9673
  433MOL0     H57118   9.053   6.655   2.286 -0.1881 -0.7345 -1.4611
  433MOL0     H57119   8.985   6.750   2.066  2.3048  0.6403  0.4687
  433MOL0     H57120   8.967   7.245   1.841 -0.1937  0.3686 -0.2338
  433MOL0     H57121   8.883   7.356   1.635  1.4804 -0.3338  0.6080
  433MOL0     H57122   8.436   7.309   1.565  2.6590  1.6539  2.3342
  433MOL0     H57123   8.500   7.168   1.501  0.1977  0.7036 -2.4042
  433MOL0     H57124   8.545   7.293   1.288  1.1238 -1.0808  1.5454
  433MOL0     H57125   8.506   7.448   1.368  2.9923 -0.0225  0.7938
  433MOL0     H57126   8.329   7.402   1.239 -2.1343 -0.3472  0.7001
  433MOL0     H57127   8.269   7.354   1.395 -0.8453 -0.0029 -0.4033
  433MOL0     H57128   8.402   7.149   1.208  0.2068  1.7748 -0.9204
  433MOL0     H57129   8.304   7.112   1.341  1.2436 -1.9269 -1.7771
  433MOL0     H57130   8.094   7.204   1.224  0.5380  1.7824  0.9220
  433MOL0     H57131   8.181   7.063   1.154  1.0411  0.0051 -0.5400
  433MOL0     H57132   8.318   7.208   0.996 -0.8397 -1.9312  0.5901
  433MOL0     H57133   8.245   7.357   1.055  2.1139 -0.0213 -3.1971
  433MOL0     H57134   8.061   7.136   0.954 -0.7201  0.4387  3.0625
  433MOL0     H57135   8.030   7.306   0.977 -0.9120  0.3362 -1.9351
  433MOL0     H57136   8.055   7.209   0.727  0.7267 -1.1076  0.1146
  433MOL0     H57137   8.227   7.217   0.765  0.6103 -0.8157  2.1198
  433MOL0     H57138   8.500   7.162   1.716 -0.4345  0.3386 -1.2607
  433MOL0     H57139   8.588   7.088   1.948 -1.3647  1.3270  1.4921
  433MOL0     H57140   8.826   7.089   2.272  1.5674  0.7891  0.9114
  433MOL0     H57141   8.896   7.000   2.483 -0.6732 -2.5973  1.5487
  433MOL0     H57142  10.092   7.563   3.405  1.4021  1.5004 -0.7175
  433MOL0     H57143  10.324   7.578   3.452 -1.1247 -0.3227  1.3253
  433MOL0     H57144  10.755   7.530   3.111 -0.7254  0.3358  1.1373
  433MOL0     H57145  10.987   7.501   3.092  0.8428  0.2693  1.0322
  433MOL0     H57146  11.324   7.437   3.226 -1.4560  3.3842  1.5827
  433MOL0     H57147  11.184   7.537   3.198 -0.3776 -0.1346 -3.4018
  433MOL0     H57148  11.295   7.296   3.062 -1.4146 -0.2733  2.0160
  433MOL0     H57149  11.153   7.378   2.993  1.8059 -0.7283 -1.7643
  433MOL0     H57150  11.330   7.590   2.983 -0.8784 -0.2525 -0.1646
  433MOL0     H57151  11.318   7.472   2.854 -3.0506  1.7591 -0.7017
  433MOL0     H57152  11.521   7.349   2.922 -2.7604  0.1831 -2.3938
  433MOL0     H57153  11.530   7.516   2.891 -2.6816  2.9011  1.0424
  433MOL0     H57154  11.681   7.531   3.283  0.4291 -0.5223 -0.7402
  433MOL0     H57155  10.974   7.232   3.426 -0.4814  2.7477  1.8344
  433MOL0     H57156  10.739   7.255   3.453 -1.8872 -0.5450 -1.9072
  434MOL0     O57157   5.980   1.318   6.470 -0.2031  0.3545 -0.1543
  434MOL0     C57158   5.894   1.244   6.426  0.5301  0.2956  0.5954
  434MOL0     O57159   5.900   1.174   6.308 -0.1236  0.0799  0.2755
  434MOL0     C57160   6.017   1.187   6.240 -0.1086  0.1043 -0.0799
  434MOL0     C57161   6.134   1.137   6.290  0.3263 -0.2703 -0.1455
  434MOL0     C57162   6.260   1.155   6.213  0.4893  0.6737 -0.6844
  434MOL0     C57163   6.252   1.208   6.089 -0.1350 -0.8072 -0.3079
  434MOL0     O57164   6.362   1.222   6.012  0.1208  0.1346 -1.0014
  434MOL0     C57165   6.348   1.157   5.885  0.5212 -1.1726 -0.0112
  434MOL0     C57166   6.424   1.027   5.884  0.0823 -0.3563  0.3086
  434MOL0     C57167   6.434   0.975   5.734  0.2948  1.6784  0.0669
  434MOL0     C57168   6.502   0.838   5.735 -1.1653 -0.5891  0.5092
  434MOL0     C57169   6.535   0.773   5.603 -0.1861 -0.0261  0.0551
  434MOL0     C57170   6.425   0.769   5.497 -0.8648 -0.1007  0.5114
  434MOL0     C57171   6.288   0.720   5.556 -0.0829  0.1504  0.9367
  434MOL0     C57172   6.168   0.743   5.462  0.0941 -0.3866 -0.5684
  434MOL0     N57173   6.184   0.685   5.330  0.3037  0.1525  0.3446
  434MOL0     C57174   6.088   0.667   5.236 -0.0331 -0.0489 -0.2629
  434MOL0     C57175   6.153   0.624   5.129  0.0518  0.2080  0.1357
  434MOL0     C57176   6.090   0.599   4.994 -0.5852  0.3674 -0.5421
  434MOL0     C57177   6.098   0.720   4.902 -0.6100  0.9026  1.3639
  434MOL0     C57178   6.249   0.736   4.858 -0.2779  0.5990  0.8531
  434MOL0     C57179   6.265   0.832   4.743  0.2255  0.4604  0.9302
  434MOL0     O57180   6.243   0.765   4.614 -0.5747  0.1481  0.3348
  434MOL0     C57181   6.349   0.729   4.536 -0.4461  0.0801  0.2365
  434MOL0     C57182   6.398   0.602   4.535  0.2329  0.8061  0.4157
  434MOL0     C57183   6.521   0.567   4.487  0.5633  0.9280  0.6656
  434MOL0     C57184   6.600   0.659   4.423  0.1317 -0.5650  0.3116
  434MOL0     C57185   6.731   0.639   4.383 -0.9204  0.6884  0.3860
  434MOL0     O57186   6.796   0.750   4.329 -0.2859  0.0433 -0.4739
  434MOL0     C57187   6.929   0.743   4.302 -0.8787  0.3284  0.5286
  434MOL0     C57188   7.034   0.703   4.384  1.1116 -0.9684  0.3207
  434MOL0     C57189   7.170   0.722   4.359  0.2804  0.3365 -0.6537
  434MOL0     C57190   7.204   0.761   4.229 -0.6138 -0.8427 -0.5426
  434MOL0     O57191   7.338   0.799   4.205 -0.2914 -0.1792 -0.8541
  434MOL0     C57192   7.398   0.808   4.069  0.0358 -0.4339 -0.0199
  434MOL0     C57193   7.513   0.900   4.071 -0.0515 -0.1630  0.4319
  434MOL0     C57194   7.639   0.866   4.156 -0.7149 -0.5183 -0.0121
  434MOL0     C57195   7.751   0.967   4.126 -0.1379  0.0827 -0.0980
  434MOL0     C57196   7.871   0.946   4.215 -0.1609 -0.4291  0.2343
  434MOL0     C57197   7.971   1.066   4.206  0.0932 -0.1626 -0.4426
  434MOL0     C57198   8.085   1.057   4.303  0.3249  0.4137  0.9181
  434MOL0     C57199   8.203   0.998   4.230  0.0095  0.5970  0.0445
  434MOL0    Cl57200   8.339   0.953   4.327  0.2867 -0.5751 -0.0964
  434MOL0     C57201   7.106   0.811   4.146  0.7882 -0.3626  0.3598
  434MOL0     C57202   6.973   0.802   4.185  0.1771 -0.0001 -0.4784
  434MOL0     O57203   6.781   0.522   4.405  0.1742 -0.4055  0.3805
  434MOL0     C57204   6.542   0.787   4.396 -1.3594 -0.1200  0.0198
  434MOL0     C57205   6.418   0.824   4.454  0.4852  0.1245  0.1727
  434MOL0     N57206   6.283   0.594   5.160  0.5122  0.8235  0.3890
  434MOL0     N57207   6.294   0.624   5.278 -0.1786  0.2423  0.0752
  434MOL0     C57208   6.123   1.261   6.048  0.7692  0.4962  0.4986
  434MOL0     C57209   6.012   1.252   6.124  0.0782 -0.1632 -0.4551
  434MOL0     C57210   5.773   1.230   6.497 -0.8905  0.2373 -0.1835
  434MOL0     C57211   5.670   1.139   6.470 -0.5465  0.8087  0.0140
  434MOL0     C57212   5.553   1.123   6.542 -0.5878  0.3391  1.0238
  434MOL0     C57213   5.546   1.205   6.661  0.2579  0.3015 -0.4511
  434MOL0     O57214   5.429   1.201   6.727 -0.2424  0.3290 -0.1316
  434MOL0     C57215   5.417   1.234   6.867 -0.1316 -0.4762 -0.7034
  434MOL0     C57216   5.323   1.144   6.949 -0.8780 -0.3318 -0.3345
  434MOL0     C57217   5.289   1.203   7.093  0.9683 -0.0718  0.2554
  434MOL0     C57218   5.367   1.136   7.210  0.3323 -0.1628 -0.1434
  434MOL0     C57219   5.405   1.000   7.198  0.4330 -0.5244 -0.7089
  434MOL0     C57220   5.444   0.893   7.178  0.1255  0.4275  0.4838
  434MOL0     C57221   5.636   1.305   6.673 -0.4412  0.1119  0.2971
  434MOL0     C57222   5.757   1.312   6.600  0.6020 -0.7122 -0.3711
  434MOL0     H57223   6.129   1.096   6.390  2.3407  2.3007  1.1262
  434MOL0     H57224   6.353   1.113   6.251  2.2777 -0.1991 -5.2699
  434MOL0     H57225   6.400   1.215   5.809  2.0981 -1.3379  0.8895
  434MOL0     H57226   6.249   1.132   5.848  0.5740 -0.9592 -0.2978
  434MOL0     H57227   6.363   0.956   5.941 -1.5545  2.5115  2.3786
  434MOL0     H57228   6.523   1.033   5.930  0.3112 -3.5622  0.4721
  434MOL0     H57229   6.499   1.041   5.676  1.7042  2.5549  2.4843
  434MOL0     H57230   6.336   0.969   5.687 -0.8440 -3.9381  2.3110
  434MOL0     H57231   6.597   0.861   5.784 -1.0265  1.7344 -0.6990
  434MOL0     H57232   6.451   0.770   5.804  1.1494 -0.2764  2.6975
  434MOL0     H57233   6.575   0.676   5.635  0.9173 -0.2983 -2.0099
  434MOL0     H57234   6.621   0.817   5.553 -0.5724 -1.2675 -1.8092
  434MOL0     H57235   6.454   0.704   5.414 -0.2710  1.0967 -0.2401
  434MOL0     H57236   6.431   0.874   5.469  0.5491  0.4834  2.7518
  434MOL0     H57237   6.295   0.611   5.571  0.2406  0.4076  2.9365
  434MOL0     H57238   6.261   0.769   5.650 -0.0893  0.7591  0.6198
  434MOL0     H57239   6.153   0.850   5.449  1.9775 -0.1896 -1.4900
  434MOL0     H57240   6.077   0.697   5.502 -0.4164 -0.4221 -1.7413
  434MOL0     H57241   5.982   0.690   5.235  0.2708  1.5602  0.5767
  434MOL0     H57242   5.987   0.567   5.014  0.0874 -1.4892  0.2304
  434MOL0     H57243   6.134   0.513   4.943  1.0160  2.5393 -3.0206
  434MOL0     H57244   6.069   0.810   4.957 -4.1722  1.8348 -1.6423
  434MOL0     H57245   6.036   0.708   4.813  3.7067 -1.1048 -1.6557
  434MOL0     H57246   6.297   0.792   4.939 -1.1923  1.1155  1.0472
  434MOL0     H57247   6.291   0.636   4.841 -4.5444 -1.2722  0.0344
  434MOL0     H57248   6.361   0.884   4.742 -0.6175  2.0989  0.4313
  434MOL0     H57249   6.190   0.909   4.764  0.0088  0.9614 -1.3146
  434MOL0     H57250   6.348   0.537   4.607  0.6797  0.1094  0.1005
  434MOL0     H57251   6.553   0.469   4.520  1.8974  0.5760 -1.4918
  434MOL0     H57252   7.005   0.687   4.488 -0.3163  0.3972  0.1678
  434MOL0     H57253   7.247   0.723   4.435  0.4358 -0.2727 -0.8022
  434MOL0     H57254   7.333   0.834   3.986  0.8858 -1.0907 -0.9220
  434MOL0     H57255   7.431   0.707   4.040 -2.2986 -1.1053 -0.5452
  434MOL0     H57256   7.480   1.001   4.098 -1.0388 -0.5255  0.6201
  434MOL0     H57257   7.564   0.911   3.975 -1.0875  2.4637  0.0874
  434MOL0     H57258   7.656   0.759   4.139  0.7120 -0.0701 -1.5570
  434MOL0     H57259   7.615   0.885   4.262 -1.1068  1.1213 -0.3657
  434MOL0     H57260   7.786   0.948   4.024  0.4804 -1.5051  0.3767
  434MOL0     H57261   7.708   1.066   4.139  1.0851  0.7542 -0.9843
  434MOL0     H57262   7.918   0.849   4.197 -1.3326 -1.0250  0.3019
  434MOL0     H57263   7.831   0.938   4.316 -2.9118  2.5933 -0.4878
  434MOL0     H57264   7.912   1.153   4.239 -2.7097 -2.4546  1.0499
  434MOL0     H57265   8.002   1.064   4.101  0.4441 -5.5499 -0.5172
  434MOL0     H57266   8.123   1.151   4.344  4.0666 -0.0207 -1.1080
  434MOL0     H57267   8.062   0.984   4.381 -0.4545  0.9858  1.2335
  434MOL0     H57268   8.236   1.064   4.149 -0.2451  0.2127 -0.3773
  434MOL0     H57269   8.173   0.900   4.192 -0.1528  0.7109 -0.1228
  434MOL0     H57270   7.139   0.861   4.056  2.0931 -2.5007 -0.4354
  434MOL0     H57271   6.900   0.849   4.119  0.1087 -1.8611 -1.7866
  434MOL0     H57272   6.601   0.862   4.344 -1.0909  0.0991  0.6255
  434MOL0     H57273   6.366   0.919   4.451 -0.0842 -0.1999 -0.4084
  434MOL0     H57274   6.128   1.313   5.953  0.4780 -1.2602 -0.5321
  434MOL0     H57275   5.916   1.296   6.099  0.0615  0.5750  0.8185
  434MOL0     H57276   5.699   1.059   6.402  1.2498  2.8576 -1.7700
  434MOL0     H57277   5.487   1.040   6.524 -2.2210  1.7670  0.1532
  434MOL0     H57278   5.358   1.326   6.862 -7.1605 -4.3308 -2.6339
  434MOL0     H57279   5.517   1.244   6.909 -0.6941 -1.2893  0.9134
  434MOL0     H57280   5.232   1.145   6.889  0.5364 -0.9222 -2.6249
  434MOL0     H57281   5.361   1.042   6.958  1.3672  0.5575  1.2658
  434MOL0     H57282   5.185   1.175   7.112  0.3761  1.0914 -1.1296
  434MOL0     H57283   5.306   1.310   7.103 -0.4680  0.0161  3.1050
  434MOL0     H57284   5.457   1.196   7.225 -0.0374  0.1587  0.9491
  434MOL0     H57285   5.308   1.151   7.302  0.2425  3.5042 -0.6527
  434MOL0     H57286   5.471   0.797   7.138 -0.2145 -0.0075  1.2590
  434MOL0     H57287   5.620   1.378   6.752  1.1904 -2.1771  2.8939
  434MOL0     H57288   5.821   1.397   6.622  0.5788 -0.4921 -1.1400
  435MOL0     O57289   0.287   6.634   9.839 -0.1603 -0.1123  0.0359
  435MOL0     C57290   0.333   6.715   9.915  0.2141  0.5307  0.0932
  435MOL0     O57291   0.331   6.851   9.897 -0.5274  0.1159  0.2550
  435MOL0     C57292   0.268   6.899   9.783  0.2564  0.8428  1.1752
  435MOL0     C57293   0.315   6.876   9.652 -0.6867  0.5410 -1.1145
  435MOL0     C57294   0.234   6.905   9.539 -0.4126  0.0002  0.6362
  435MOL0     C57295   0.103   6.960   9.546  0.8094  0.2909  0.1874
  435MOL0     O57296   0.041   6.963   9.433  0.5908  0.9899  0.0859
  435MOL0     C57297  -0.069   6.871   9.431  0.6596  0.8919  0.0087
  435MOL0     C57298  -0.126   6.831   9.287 -0.5773 -0.8175 -1.0742
  435MOL0     C57299  -0.204   6.941   9.219  0.4339 -0.7307 -0.9411
  435MOL0     C57300  -0.110   7.030   9.127  0.2041  0.1036 -0.5204
  435MOL0     C57301  -0.192   7.138   9.049  0.5472  0.0220  0.3077
  435MOL0     C57302  -0.300   7.223   9.129  0.6382  0.8564 -0.1369
  435MOL0     C57303  -0.240   7.311   9.237  0.5289  0.4163  0.2595
  435MOL0     C57304  -0.352   7.348   9.331  0.6133  0.7433  0.0830
  435MOL0     N57305  -0.393   7.240   9.424 -0.2449  0.2332  0.2076
  435MOL0     C57306  -0.521   7.196   9.446  0.4026 -0.4595 -0.7245
  435MOL0     C57307  -0.509   7.094   9.540  0.7510  0.3651  0.7590
  435MOL0     C57308  -0.613   6.988   9.570  0.1285  0.6497 -0.3517
  435MOL0     C57309  -0.753   7.048   9.593  0.1047  0.0351 -0.3781
  435MOL0     C57310  -0.819   6.997   9.715 -0.0783 -0.7344  0.5062
  435MOL0     C57311  -0.962   7.046   9.740 -0.1530  0.7838 -0.8602
  435MOL0     O57312  -1.043   6.987   9.636  0.7743  0.3563 -0.1748
  435MOL0     C57313  -1.183   7.016   9.622  0.2418  0.6164 -0.9783
  435MOL0     C57314  -1.249   6.945   9.525  0.0449 -0.0663  0.6861
  435MOL0     C57315  -1.385   6.970   9.499  0.0378 -1.0181  0.3283
  435MOL0     C57316  -1.466   7.037   9.597 -0.3422 -0.6132  0.8647
  435MOL0     C57317  -1.615   7.039   9.582  0.2398  0.1176  0.5084
  435MOL0     O57318  -1.683   7.151   9.614  0.1822  0.2720  0.0576
  435MOL0     C57319  -1.820   7.154   9.606 -0.6787  0.5732  0.5579
  435MOL0     C57320  -1.888   7.235   9.700 -0.9500  0.9221  0.6209
  435MOL0     C57321  -2.026   7.249   9.705  0.2892  0.0322  0.6485
  435MOL0     C57322  -2.105   7.194   9.606 -0.3923 -0.7175  0.6977
  435MOL0     O57323  -2.233   7.224   9.628  0.5394  0.2678  0.1907
  435MOL0     C57324  -2.334   7.178   9.535 -0.1448  0.0269 -0.6162
  435MOL0     C57325  -2.468   7.218   9.584  0.7470 -0.8820  0.5427
  435MOL0     C57326  -2.576   7.197   9.476 -0.2399  0.9528 -0.3945
  435MOL0     C57327  -2.717   7.157   9.548 -0.1481  0.0265 -0.3734
  435MOL0     C57328  -2.830   7.145   9.443 -0.7905  0.7909 -0.2616
  435MOL0     C57329  -2.946   7.066   9.508 -0.2953  0.0078  0.5203
  435MOL0     C57330  -3.036   7.010   9.396  0.2144 -0.4347  0.5879
  435MOL0     C57331  -3.158   6.929   9.449  0.0006  0.3713 -0.0909
  435MOL0    Cl57332  -3.114   6.783   9.535  0.1619 -0.1973  0.3571
  435MOL0     C57333  -2.053   7.102   9.522 -1.2561 -0.1327 -0.8384
  435MOL0     C57334  -1.912   7.082   9.517 -0.3827  0.1537 -1.1582
  435MOL0     O57335  -1.652   6.933   9.542  0.2452  0.1216  0.4308
  435MOL0     C57336  -1.399   7.114   9.682 -0.5395  0.0565  0.2250
  435MOL0     C57337  -1.263   7.102   9.705 -0.0195  0.0612  0.4693
  435MOL0     N57338  -0.380   7.082   9.576 -0.4507 -0.1910  0.1247
  435MOL0     N57339  -0.309   7.166   9.502  0.4139  0.0667 -0.5535
  435MOL0     C57340   0.052   6.978   9.674 -0.0173  0.1743  0.2259
  435MOL0     C57341   0.134   6.950   9.789  0.0506  0.2550  0.5502
  435MOL0     C57342   0.382   6.665  10.040  0.7000  0.4334 -0.9935
  435MOL0     C57343   0.461   6.735  10.129  0.4599 -0.7652  0.0616
  435MOL0     C57344   0.513   6.681  10.239  0.2006 -0.2921 -0.6939
  435MOL0     C57345   0.476   6.551  10.287  0.2447 -0.2491  0.9872
  435MOL0     O57346   0.536   6.496  10.391 -0.6767 -0.4179 -0.1539
  435MOL0     C57347   0.531   6.351  10.429 -0.0099 -1.0664  0.3763
  435MOL0     C57348   0.408   6.310  10.507  0.7807 -0.6176  0.2323
  435MOL0     C57349   0.430   6.322  10.659  0.3400  0.9396  0.6971
  435MOL0     C57350   0.326   6.249  10.748  0.4840 -0.1256  0.2145
  435MOL0     C57351   0.301   6.337  10.854  1.1766  0.3443 -0.7805
  435MOL0     C57352   0.293   6.430  10.930  1.0066 -0.7115  0.2692
  435MOL0     C57353   0.397   6.474  10.201  0.1580 -0.1500 -0.0008
  435MOL0     C57354   0.341   6.529  10.087  0.5242  0.7330  0.4718
  435MOL0     H57355   0.410   6.828   9.630 -0.6664 -2.3144  3.7239
  435MOL0     H57356   0.278   6.882   9.443 -2.2621 -1.3194  0.0435
  435MOL0     H57357  -0.161   6.910   9.476  0.0126 -1.5455  0.9645
  435MOL0     H57358  -0.055   6.782   9.493 -3.1288  0.9886  1.2876
  435MOL0     H57359  -0.194   6.748   9.312  0.6833 -0.7506  3.4527
  435MOL0     H57360  -0.042   6.803   9.224  0.6573  2.7730 -1.1963
  435MOL0     H57361  -0.250   7.007   9.294 -0.3488 -0.7654 -1.3841
  435MOL0     H57362  -0.292   6.894   9.174 -2.7645  2.8842  0.9851
  435MOL0     H57363  -0.040   7.081   9.194 -0.3728  2.7983 -1.8474
  435MOL0     H57364  -0.043   6.972   9.063 -1.2281 -0.7607 -1.2778
  435MOL0     H57365  -0.243   7.079   8.972  3.7400 -2.2926 -0.2246
  435MOL0     H57366  -0.127   7.208   8.996 -2.4286  2.6992 -0.0941
  435MOL0     H57367  -0.371   7.153   9.174  0.0951  2.0702  0.9723
  435MOL0     H57368  -0.363   7.288   9.068 -0.2656 -1.4031 -1.7744
  435MOL0     H57369  -0.155   7.261   9.286  1.9404  0.8881 -1.6052
  435MOL0     H57370  -0.203   7.403   9.191 -0.4014  0.9391  0.5370
  435MOL0     H57371  -0.433   7.383   9.267  0.3028  0.7029  0.4499
  435MOL0     H57372  -0.315   7.429   9.394 -0.9338  2.3785 -1.0188
  435MOL0     H57373  -0.619   7.200   9.398  0.4145 -2.8117 -1.0782
  435MOL0     H57374  -0.588   6.931   9.660 -2.3484 -2.1945 -1.3172
  435MOL0     H57375  -0.600   6.913   9.492  0.4407  0.4257 -0.0888
  435MOL0     H57376  -0.805   7.019   9.501  0.6905 -0.3497 -0.5864
  435MOL0     H57377  -0.747   7.158   9.591  1.0746  0.0235  0.9205
  435MOL0     H57378  -0.810   6.889   9.722 -1.6869 -0.8433  1.2898
  435MOL0     H57379  -0.755   7.031   9.797  2.2873  0.9415 -1.8618
  435MOL0     H57380  -0.964   7.155   9.736 -2.0668  0.7897 -0.7866
  435MOL0     H57381  -0.993   7.017   9.841 -0.0770  0.6452 -0.8762
  435MOL0     H57382  -1.185   6.882   9.465  0.4058  0.1635  0.8260
  435MOL0     H57383  -1.429   6.914   9.417 -2.4662 -2.0396  2.2679
  435MOL0     H57384  -1.825   7.275   9.780  0.5917  0.2384 -0.2112
  435MOL0     H57385  -2.074   7.301   9.787 -2.7466 -1.6928  0.0948
  435MOL0     H57386  -2.331   7.069   9.547 -1.0714  0.1735  1.1489
  435MOL0     H57387  -2.308   7.208   9.433  3.4574 -1.3325 -0.2541
  435MOL0     H57388  -2.477   7.323   9.613  0.0744 -1.9829  4.9465
  435MOL0     H57389  -2.501   7.170   9.676  2.0777 -1.4512  0.7413
  435MOL0     H57390  -2.541   7.112   9.416  0.1321  0.0019  1.1173
  435MOL0     H57391  -2.580   7.291   9.421  0.6690  1.5327  0.4924
  435MOL0     H57392  -2.703   7.066   9.607 -1.8402  0.1816  0.2997
  435MOL0     H57393  -2.740   7.231   9.624 -1.1270 -0.8395  0.1895
  435MOL0     H57394  -2.778   7.090   9.364 -2.0942  1.4289 -1.6160
  435MOL0     H57395  -2.853   7.239   9.392  2.2694  0.0886 -3.3194
  435MOL0     H57396  -3.004   7.133   9.573  1.0746 -0.0097  1.8163
  435MOL0     H57397  -2.907   6.987   9.572  0.5193  2.5646  3.4516
  435MOL0     H57398  -3.074   7.096   9.340  1.7044 -0.7502 -0.9841
  435MOL0     H57399  -2.986   6.943   9.326 -1.3202 -1.9797  0.9107
  435MOL0     H57400  -3.217   6.891   9.365 -1.1369 -0.4190  1.0169
  435MOL0     H57401  -3.202   6.995   9.524 -0.6009 -1.5648  1.3594
  435MOL0     H57402  -2.113   7.052   9.446 -3.3220  1.1197 -0.1052
  435MOL0     H57403  -1.877   7.011   9.442  0.1784 -0.0026 -0.7586
  435MOL0     H57404  -1.457   7.186   9.740 -2.3046 -1.0892 -0.0598
  435MOL0     H57405  -1.209   7.144   9.790 -2.1364 -1.0448  2.4912
  435MOL0     H57406  -0.047   7.016   9.697  0.3828  0.5758  1.3092
  435MOL0     H57407   0.098   6.961   9.891  2.3737  0.1166  1.4367
  435MOL0     H57408   0.505   6.829  10.098  1.0646 -1.1158 -0.1565
  435MOL0     H57409   0.593   6.740  10.284 -0.2568  0.4149 -0.8052
  435MOL0     H57410   0.625   6.336  10.483 -1.8725  0.6903  4.6022
  435MOL0     H57411   0.525   6.282  10.344 -0.0139 -1.4352  0.6762
  435MOL0     H57412   0.322   6.371  10.476  1.0108 -0.2380  0.3314
  435MOL0     H57413   0.381   6.211  10.469 -3.4502 -0.4297  2.1763
  435MOL0     H57414   0.427   6.429  10.677 -0.8510  1.1326 -0.5542
  435MOL0     H57415   0.529   6.283  10.685  1.1041  0.4435 -2.5025
  435MOL0     H57416   0.233   6.234  10.692  0.2436  0.1024  0.5511
  435MOL0     H57417   0.357   6.148  10.777  1.8386 -0.2038 -1.3620
  435MOL0     H57418   0.288   6.516  10.994  0.7282 -0.2776 -0.3270
  435MOL0     H57419   0.371   6.376  10.242 -3.2865  0.7750  0.3691
  435MOL0     H57420   0.272   6.471  10.026  1.6866 -2.2396  1.7909
  436MOL0     O57421   5.790  10.495   9.618 -0.3592 -0.1526 -0.1626
  436MOL0     C57422   5.764  10.389   9.563  0.0330 -0.4110  0.7050
  436MOL0     O57423   5.634  10.343   9.552 -0.7575  0.6388  0.0454
  436MOL0     C57424   5.550  10.411   9.632 -0.2747 -0.1540  0.2924
  436MOL0     C57425   5.469  10.515   9.592 -0.8573 -0.6856  0.3089
  436MOL0     C57426   5.389  10.575   9.686  0.3175  0.4843  0.8272
  436MOL0     C57427   5.374  10.529   9.817  0.4998 -0.5419  0.4110
  436MOL0     O57428   5.303  10.584   9.925  0.7543  0.0433  0.0215
  436MOL0     C57429   5.283  10.729   9.930  0.2744 -0.7075  0.3323
  436MOL0     C57430   5.245  10.784  10.057  0.1809  0.1926  1.0149
  436MOL0     C57431   5.354  10.766  10.162  0.0166 -0.4478 -0.0481
  436MOL0     C57432   5.330  10.876  10.265  0.2229  0.0755  0.0236
  436MOL0     C57433   5.380  10.829  10.406  0.1590  0.3479  0.3423
  436MOL0     C57434   5.344  10.941  10.501  0.0766 -0.5172 -0.6595
  436MOL0     C57435   5.342  10.898  10.645 -1.0576 -0.4123 -0.5378
  436MOL0     C57436   5.282  11.002  10.749  0.3628  0.2889  0.4984
  436MOL0     N57437   5.141  11.023  10.737 -0.4869  0.1535 -0.4167
  436MOL0     C57438   5.071  11.123  10.797  0.1453  0.2992  0.0034
  436MOL0     C57439   4.941  11.113  10.767 -0.1929 -0.8900  0.1504
  436MOL0     C57440   4.828  11.196  10.822  0.2038  0.4166  0.0184
  436MOL0     C57441   4.752  11.129  10.941 -0.2566  0.7573 -0.0009
  436MOL0     C57442   4.842  11.124  11.068 -0.1506  0.0370  0.7226
  436MOL0     C57443   4.773  11.062  11.185 -0.3013 -0.1848  0.3820
  436MOL0     O57444   4.770  10.918  11.169 -0.4456  0.5318  0.1252
  436MOL0     C57445   4.884  10.840  11.210  0.3600  0.0070 -0.3615
  436MOL0     C57446   4.862  10.696  11.215 -0.6394 -0.1770 -0.0105
  436MOL0     C57447   4.956  10.604  11.262  0.9838 -0.2068 -0.2557
  436MOL0     C57448   5.078  10.664  11.307  0.2780  0.1610 -0.5377
  436MOL0     C57449   5.191  10.573  11.347  0.6253 -0.2269  0.1317
  436MOL0     O57450   5.316  10.626  11.382  1.2179 -0.5417  1.3316
  436MOL0     C57451   5.420  10.538  11.408  0.0054 -0.1079  0.4245
  436MOL0     C57452   5.447  10.437  11.302 -0.6955  0.0779 -0.1295
  436MOL0     C57453   5.551  10.342  11.323  0.4012 -0.4132 -0.5658
  436MOL0     C57454   5.621  10.337  11.448  0.9533 -0.4445 -0.2645
  436MOL0     O57455   5.711  10.244  11.460  0.4528  0.2895 -0.3772
  436MOL0     C57456   5.752  10.202  11.591  0.6916  0.1304  0.3989
  436MOL0     C57457   5.830  10.073  11.594  0.2053  0.9976  0.0458
  436MOL0     C57458   5.739   9.949  11.544  0.1070 -0.4547 -0.5750
  436MOL0     C57459   5.818   9.821  11.544 -0.7178 -0.1966  0.0011
  436MOL0     C57460   5.852   9.770  11.687 -0.4700 -0.1880  0.8797
  436MOL0     C57461   5.879   9.625  11.683 -0.0406  0.0435 -0.1424
  436MOL0     C57462   5.960   9.567  11.803  0.7106  0.1230 -0.1438
  436MOL0     C57463   5.882   9.566  11.930 -0.1837 -1.4323 -0.4043
  436MOL0    Cl57464   5.876   9.731  12.009  0.0163 -0.0673 -0.3870
  436MOL0     C57465   5.593  10.443  11.542  0.0922  0.3822  0.3152
  436MOL0     C57466   5.504  10.542  11.513  0.2536  0.2513  0.4545
  436MOL0     O57467   5.160  10.448  11.346 -0.5680  0.1105 -0.0996
  436MOL0     C57468   5.098  10.807  11.303 -0.0474 -0.1803  0.5178
  436MOL0     C57469   5.003  10.890  11.255  0.2519  0.1236  0.3729
  436MOL0     N57470   4.926  11.008  10.680  0.1317 -0.2804 -0.4099
  436MOL0     N57471   5.048  10.960  10.659 -0.3991 -0.0127 -0.3671
  436MOL0     C57472   5.448  10.420   9.857 -0.4230  0.3781  0.7471
  436MOL0     C57473   5.539  10.361   9.760 -1.1783  0.4754  0.3332
  436MOL0     C57474   5.867  10.325   9.476  0.3789  0.1191 -0.1239
  436MOL0     C57475   5.999  10.352   9.491 -0.5008 -0.9445  0.8680
  436MOL0     C57476   6.101  10.301   9.402  0.1154 -0.9911  0.7854
  436MOL0     C57477   6.066  10.216   9.296  0.5899  0.1333 -0.1329
  436MOL0     O57478   6.155  10.170   9.202 -0.4406  0.1994  0.1783
  436MOL0     C57479   6.291  10.209   9.195 -0.3219 -0.0059 -1.0548
  436MOL0     C57480   6.309  10.301   9.071  0.4306 -0.4346 -0.7090
  436MOL0     C57481   6.223  10.430   9.075 -0.5870 -0.5879 -0.2395
  436MOL0     C57482   6.256  10.531   8.962 -0.1292 -0.2561  0.0847
  436MOL0     C57483   6.356  10.637   8.990 -0.0002 -0.3814  0.4603
  436MOL0     C57484   6.441  10.719   9.007 -0.3921 -0.4530 -0.0922
  436MOL0     C57485   5.930  10.195   9.281  0.0729  0.9453  0.8816
  436MOL0     C57486   5.832  10.249   9.366 -0.0731  0.5004 -0.5184
  436MOL0     H57487   5.461  10.556   9.491 -0.0990 -2.9376 -0.7234
  436MOL0     H57488   5.324  10.657   9.656 -0.6655 -0.2340  0.9592
  436MOL0     H57489   5.204  10.753   9.858  0.3131 -0.0371  0.5071
  436MOL0     H57490   5.373  10.779   9.893 -0.2485 -0.4328 -0.6218
  436MOL0     H57491   5.152  10.731  10.082 -0.5107 -0.9708 -3.2416
  436MOL0     H57492   5.223  10.890  10.039  0.5651 -0.0933 -1.4802
  436MOL0     H57493   5.459  10.777  10.134 -0.2959  2.9998 -0.3491
  436MOL0     H57494   5.347  10.667  10.209 -1.7913 -1.8161 -2.9175
  436MOL0     H57495   5.380  10.970  10.240 -0.8330  1.2113  1.9809
  436MOL0     H57496   5.226  10.906  10.274 -0.7494 -1.8128 -3.1946
  436MOL0     H57497   5.487  10.810  10.413 -0.3921 -2.8315  1.5547
  436MOL0     H57498   5.330  10.733  10.421 -2.3203  1.2231 -1.5160
  436MOL0     H57499   5.239  10.964  10.481 -0.0224 -0.9206 -0.6139
  436MOL0     H57500   5.409  11.027  10.478  0.5538  0.3838  3.3968
  436MOL0     H57501   5.287  10.804  10.658 -0.4558 -0.7829 -0.6693
  436MOL0     H57502   5.440  10.887  10.690 -0.8928  1.4867 -0.3338
  436MOL0     H57503   5.338  11.093  10.728  0.8199 -0.2565 -0.7279
  436MOL0     H57504   5.303  10.976  10.853 -0.3100 -0.3421  0.4855
  436MOL0     H57505   5.121  11.194  10.862 -0.4811  0.5146  0.2595
  436MOL0     H57506   4.758  11.210  10.739 -0.4539  0.0471  0.4949
  436MOL0     H57507   4.863  11.298  10.838  3.0887  0.0145 -2.7708
  436MOL0     H57508   4.724  11.035  10.893  0.6387  0.5887 -0.2100
  436MOL0     H57509   4.666  11.194  10.960 -1.7852 -1.0877 -0.2646
  436MOL0     H57510   4.930  11.062  11.049 -1.5024 -1.0504 -2.6550
  436MOL0     H57511   4.883  11.224  11.085  0.5607 -0.0882 -0.1893
  436MOL0     H57512   4.671  11.098  11.204  0.1951  1.2459  0.4997
  436MOL0     H57513   4.826  11.103  11.272  2.2824  0.6990 -1.4578
  436MOL0     H57514   4.758  10.665  11.210 -0.4735 -1.4149  2.3667
  436MOL0     H57515   4.936  10.499  11.282  0.8857 -0.3361 -1.0221
  436MOL0     H57516   5.401  10.432  11.203  1.9450 -0.8784 -1.4137
  436MOL0     H57517   5.565  10.267  11.245  0.6121 -2.4764  1.3555
  436MOL0     H57518   5.662  10.196  11.653  1.7216 -0.9988  1.8540
  436MOL0     H57519   5.817  10.284  11.625  0.4769  0.2375  0.5564
  436MOL0     H57520   5.874  10.063  11.694  2.8335  2.1837 -0.9080
  436MOL0     H57521   5.916  10.076  11.528 -1.1389 -1.9145 -2.0316
  436MOL0     H57522   5.712   9.964  11.439  4.2604 -0.3241 -1.8410
  436MOL0     H57523   5.651   9.941  11.608  2.2715 -1.6755  2.5586
  436MOL0     H57524   5.743   9.758  11.495 -2.0204  1.0642  0.2851
  436MOL0     H57525   5.903   9.835  11.477 -1.9103 -0.0964 -1.5560
  436MOL0     H57526   5.767   9.789  11.753 -1.7172  2.0258 -1.1949
  436MOL0     H57527   5.938   9.825  11.725  0.4834  0.2756 -1.7282
  436MOL0     H57528   5.941   9.598  11.596  0.7951 -0.6217  0.6423
  436MOL0     H57529   5.785   9.569  11.683  1.3157 -2.4136 -0.7952
  436MOL0     H57530   5.974   9.463  11.773 -0.8442  0.3963 -2.0413
  436MOL0     H57531   6.051   9.625  11.819  0.3873  1.0204 -1.3721
  436MOL0     H57532   5.920   9.504  12.013 -0.0268  1.5041  1.8933
  436MOL0     H57533   5.782   9.534  11.898 -1.3358  1.0966  0.4055
  436MOL0     H57534   5.657  10.446  11.630  2.0321 -0.5661 -0.9871
  436MOL0     H57535   5.462  10.606  11.590 -4.2064 -1.7706  0.0049
  436MOL0     H57536   5.195  10.842  11.337 -0.6424  2.4934 -0.2989
  436MOL0     H57537   5.037  10.993  11.249 -2.2442  0.9186 -2.4433
  436MOL0     H57538   5.431  10.370   9.952 -3.6865 -4.9705 -2.1755
  436MOL0     H57539   5.592  10.267   9.776 -1.1519  0.1878 -1.2458
  436MOL0     H57540   6.024  10.391   9.589  0.7640  3.1966 -0.8931
  436MOL0     H57541   6.202  10.338   9.412  0.2161 -1.3171  0.9964
  436MOL0     H57542   6.349  10.117   9.179  0.4102 -0.0754  1.5724
  436MOL0     H57543   6.329  10.250   9.289 -1.7388  0.8201 -0.8141
  436MOL0     H57544   6.412  10.337   9.073  0.3941 -0.2124  2.9149
  436MOL0     H57545   6.290  10.230   8.990  2.1104 -1.1268 -0.5564
  436MOL0     H57546   6.224  10.481   9.172 -0.2031  0.4745 -0.7797
  436MOL0     H57547   6.120  10.398   9.058 -1.0960  0.5523  0.5634
  436MOL0     H57548   6.302  10.473   8.881 -1.1979 -3.5740  1.6732
  436MOL0     H57549   6.171  10.584   8.918  0.0349 -2.1433 -2.7866
  436MOL0     H57550   6.515  10.795   9.022  0.4504 -0.8961 -1.7814
  436MOL0     H57551   5.921  10.140   9.188  0.3910  1.8017  0.3337
  436MOL0     H57552   5.730  10.229   9.337  0.4426 -0.5303 -1.7383
  437MOL0     O57553   1.715   0.080   0.787 -1.3513  0.1865 -0.3662
  437MOL0     C57554   1.678   0.173   0.862 -0.2813  0.5609  0.2405
  437MOL0     O57555   1.589   0.172   0.952  0.9825 -0.2313  0.1960
  437MOL0     C57556   1.489   0.084   0.936  1.1469 -0.1957 -0.5967
  437MOL0     C57557   1.503  -0.059   0.926  1.2238 -0.8291  0.1310
  437MOL0     C57558   1.383  -0.132   0.901 -1.1441 -0.3151  0.1463
  437MOL0     C57559   1.268  -0.064   0.870  0.7193 -0.3358  0.9517
  437MOL0     O57560   1.146  -0.126   0.832  0.4583 -0.0309  0.4096
  437MOL0     C57561   1.147  -0.259   0.783  0.6496  0.4183 -0.3529
  437MOL0     C57562   1.134  -0.356   0.901  0.0860  0.6364  0.4037
  437MOL0     C57563   1.123  -0.494   0.844  0.2467  0.6093 -0.0024
  437MOL0     C57564   1.155  -0.612   0.943 -0.6800  1.3199  0.0700
  437MOL0     C57565   1.122  -0.759   0.888  0.0733 -0.2628 -0.1743
  437MOL0     C57566   1.216  -0.796   0.766  0.4384 -0.2457  0.9426
  437MOL0     C57567   1.160  -0.920   0.691 -0.9633 -0.9812  0.5312
  437MOL0     C57568   1.134  -1.046   0.768 -0.8902 -0.5069 -1.1988
  437MOL0     N57569   1.260  -1.100   0.821 -1.0452  0.0044  0.0265
  437MOL0     C57570   1.330  -1.080   0.936 -0.6402  0.1530 -0.1992
  437MOL0     C57571   1.410  -1.182   0.959  0.4724 -0.6156 -0.0273
  437MOL0     C57572   1.488  -1.218   1.081  0.1943 -0.2630 -0.0155
  437MOL0     C57573   1.401  -1.297   1.179 -0.4434  0.8345  0.2833
  437MOL0     C57574   1.394  -1.450   1.140 -0.9052 -0.1108 -0.5433
  437MOL0     C57575   1.522  -1.514   1.195  0.3671  0.0292  0.9349
  437MOL0     O57576   1.527  -1.517   1.341 -0.4683  0.2015 -0.5302
  437MOL0     C57577   1.607  -1.606   1.395 -0.3524  0.1915 -0.3922
  437MOL0     C57578   1.564  -1.695   1.488 -0.9900  0.0682 -0.6644
  437MOL0     C57579   1.649  -1.801   1.518  0.4311  0.1459 -0.6468
  437MOL0     C57580   1.781  -1.808   1.469  0.5965 -0.5644 -0.2489
  437MOL0     C57581   1.875  -1.915   1.504  0.1647  0.5242  1.2239
  437MOL0     O57582   1.819  -2.019   1.576  0.7733 -1.0916  0.2708
  437MOL0     C57583   1.895  -2.127   1.605 -0.7403 -0.1205  0.4553
  437MOL0     C57584   1.854  -2.208   1.714  0.1650 -0.8161  0.1624
  437MOL0     C57585   1.904  -2.345   1.727 -0.1036  0.5173 -0.4730
  437MOL0     C57586   2.011  -2.396   1.650 -0.0093 -0.8564  1.1122
  437MOL0     O57587   2.059  -2.523   1.668  0.9623  0.5326  0.3794
  437MOL0     C57588   2.028  -2.592   1.784  0.1194  0.3448  0.4150
  437MOL0     C57589   1.897  -2.670   1.778  0.6095  0.1613  0.3688
  437MOL0     C57590   1.898  -2.768   1.659 -0.6257 -0.3140  0.0291
  437MOL0     C57591   1.989  -2.892   1.682  0.0069  0.3195 -0.0117
  437MOL0     C57592   1.980  -3.012   1.582 -0.1822 -0.1373 -0.3386
  437MOL0     C57593   2.076  -3.118   1.615  0.0059 -0.8142  0.2679
  437MOL0     C57594   2.087  -3.214   1.503  0.4303 -0.1328 -0.6156
  437MOL0     C57595   2.162  -3.332   1.530 -0.3736  0.1473  0.0379
  437MOL0    Cl57596   2.337  -3.288   1.560  0.2741  0.2886 -0.5136
  437MOL0     C57597   2.052  -2.308   1.536  0.2302  0.7169  0.0875
  437MOL0     C57598   1.992  -2.187   1.525 -0.7600 -0.2952 -0.0065
  437MOL0     O57599   1.989  -1.907   1.464 -0.5017  0.1006 -0.1934
  437MOL0     C57600   1.825  -1.693   1.394 -0.1793  0.2147 -0.1707
  437MOL0     C57601   1.742  -1.593   1.362 -0.1855  0.5134 -0.2980
  437MOL0     N57602   1.391  -1.267   0.848 -0.3035 -0.5130 -0.3877
  437MOL0     N57603   1.306  -1.216   0.765 -0.4395 -0.2989 -0.1777
  437MOL0     C57604   1.265   0.077   0.886  0.0299  0.3525 -0.3583
  437MOL0     C57605   1.371   0.150   0.918 -0.0460  0.2480  0.7168
  437MOL0     C57606   1.766   0.295   0.867  0.4622 -0.6387 -0.1501
  437MOL0     C57607   1.880   0.297   0.788  0.6217  0.5881 -0.1216
  437MOL0     C57608   1.972   0.403   0.794 -0.1981  0.4199 -0.6528
  437MOL0     C57609   1.961   0.507   0.890  1.0301  0.2987  0.7532
  437MOL0     O57610   2.047   0.600   0.915  0.4877  0.7614 -0.5196
  437MOL0     C57611   2.119   0.654   0.803  0.4507  0.3353  0.8555
  437MOL0     C57612   2.220   0.759   0.857  0.9468 -0.0284  0.5116
  437MOL0     C57613   2.349   0.696   0.925 -0.5211 -0.1788 -0.7504
  437MOL0     C57614   2.448   0.812   0.931 -0.4232 -0.7859  0.1753
  437MOL0     C57615   2.583   0.770   0.912  0.0660  0.4097  0.2718
  437MOL0     C57616   2.693   0.728   0.903  0.5736  0.2417  0.1701
  437MOL0     C57617   1.834   0.509   0.945 -0.7075 -0.1198 -0.4477
  437MOL0     C57618   1.736   0.414   0.938  0.3524 -0.6775 -0.9101
  437MOL0     H57619   1.600  -0.107   0.937  3.1987  2.5550 -0.8681
  437MOL0     H57620   1.392  -0.240   0.899 -0.0369 -0.2471 -1.8097
  437MOL0     H57621   1.235  -0.286   0.725 -0.9403 -0.2279 -2.6097
  437MOL0     H57622   1.059  -0.271   0.720 -1.8663 -0.3622  2.9865
  437MOL0     H57623   1.041  -0.332   0.954  3.0460  1.1100  6.0511
  437MOL0     H57624   1.219  -0.340   0.967  3.3179 -0.0779 -3.2104
  437MOL0     H57625   1.186  -0.510   0.756 -0.6472 -1.5243 -0.3077
  437MOL0     H57626   1.019  -0.503   0.811  0.1076 -0.1161  0.6189
  437MOL0     H57627   1.261  -0.593   0.965  0.2914 -1.2823 -1.8022
  437MOL0     H57628   1.101  -0.609   1.037 -0.9497  0.1902 -0.0343
  437MOL0     H57629   1.019  -0.756   0.850  0.0050  1.6090  0.0650
  437MOL0     H57630   1.128  -0.843   0.958 -2.3558 -2.4400 -2.3651
  437MOL0     H57631   1.315  -0.819   0.808 -0.1893 -2.2645  1.4199
  437MOL0     H57632   1.210  -0.722   0.686 -3.3068 -2.0030 -0.6403
  437MOL0     H57633   1.062  -0.897   0.649  0.7175  2.0960 -2.1100
  437MOL0     H57634   1.235  -0.937   0.613  1.7880 -0.8159  2.9325
  437MOL0     H57635   1.086  -1.122   0.705  2.4902 -3.9133 -0.0920
  437MOL0     H57636   1.070  -1.028   0.855 -1.9082 -1.0882 -1.8218
  437MOL0     H57637   1.317  -1.002   1.010 -1.2190 -1.5424  1.5416
  437MOL0     H57638   1.517  -1.119   1.119 -1.6914  1.4820 -2.6938
  437MOL0     H57639   1.577  -1.278   1.061  1.6344  2.0686 -1.0778
  437MOL0     H57640   1.301  -1.255   1.164 -0.1787  0.8977 -1.5224
  437MOL0     H57641   1.432  -1.278   1.282 -1.2270  0.9324  0.5103
  437MOL0     H57642   1.310  -1.480   1.203 -0.6429  1.2399  0.4836
  437MOL0     H57643   1.380  -1.466   1.033 -1.4630  0.2101 -0.5211
  437MOL0     H57644   1.610  -1.461   1.158 -0.6930 -0.2519 -2.3484
  437MOL0     H57645   1.537  -1.615   1.155  1.1291  1.1939 -1.9994
  437MOL0     H57646   1.466  -1.708   1.532 -0.1505 -3.3326  0.5043
  437MOL0     H57647   1.609  -1.876   1.585  0.8722  0.7931  0.3665
  437MOL0     H57648   1.765  -2.173   1.766 -0.9561  0.4413 -2.4134
  437MOL0     H57649   1.864  -2.399   1.813 -1.8629  0.2129 -1.4297
  437MOL0     H57650   2.034  -2.524   1.869  2.2965  2.2322 -1.0973
  437MOL0     H57651   2.109  -2.666   1.789 -0.4718 -0.4407 -1.0806
  437MOL0     H57652   1.810  -2.603   1.774 -1.4158 -2.2415  1.5583
  437MOL0     H57653   1.878  -2.728   1.868  2.2353  0.1198  0.7180
  437MOL0     H57654   1.926  -2.718   1.566  0.7665 -3.1950 -1.2182
  437MOL0     H57655   1.802  -2.816   1.641 -0.7109 -2.1644  4.2531
  437MOL0     H57656   2.094  -2.862   1.688  0.1278 -0.2634  1.0120
  437MOL0     H57657   1.956  -2.937   1.777 -1.9733  1.6922  0.0213
  437MOL0     H57658   2.002  -2.968   1.485 -1.4757  2.8596  0.5968
  437MOL0     H57659   1.879  -3.054   1.582 -0.0932 -0.3521 -0.6184
  437MOL0     H57660   2.037  -3.168   1.704 -0.6045 -2.7858 -1.0224
  437MOL0     H57661   2.177  -3.091   1.649 -0.1781 -4.1646  4.3948
  437MOL0     H57662   1.998  -3.251   1.451 -0.3060 -0.1046  0.5838
  437MOL0     H57663   2.142  -3.161   1.424 -2.6529  1.7197 -1.7438
  437MOL0     H57664   2.159  -3.378   1.430  2.0036  1.3251 -0.6444
  437MOL0     H57665   2.125  -3.404   1.604  2.2089 -1.4968 -0.1530
  437MOL0     H57666   2.129  -2.339   1.465 -0.6327  2.5399 -1.7422
  437MOL0     H57667   2.022  -2.135   1.435  0.7981 -3.3094 -1.3770
  437MOL0     H57668   1.928  -1.684   1.363 -0.4539  1.5165 -0.7509
  437MOL0     H57669   1.781  -1.508   1.307  1.0536 -0.3669 -0.8133
  437MOL0     H57670   1.174   0.132   0.864  0.3130  0.9267 -0.1070
  437MOL0     H57671   1.372   0.258   0.931  0.4176 -0.0260  3.5997
  437MOL0     H57672   1.912   0.212   0.728  1.4831  1.7790 -1.4291
  437MOL0     H57673   2.065   0.388   0.740  0.0476  0.4222 -0.2335
  437MOL0     H57674   2.051   0.691   0.727  2.5105 -1.3022 -1.9578
  437MOL0     H57675   2.169   0.569   0.755 -4.0841 -1.2158 -1.7113
  437MOL0     H57676   2.253   0.820   0.771  0.4819 -2.3903 -1.4567
  437MOL0     H57677   2.169   0.821   0.931 -0.9635 -0.9258  0.0011
  437MOL0     H57678   2.388   0.623   0.853  0.3595 -1.1513  0.6728
  437MOL0     H57679   2.326   0.652   1.023 -2.6615  0.1597 -1.0426
  437MOL0     H57680   2.423   0.892   0.861 -1.5880 -1.7269 -0.5209
  437MOL0     H57681   2.461   0.856   1.030  0.0177  0.3315 -0.3609
  437MOL0     H57682   2.794   0.694   0.888  0.9956  1.1672  0.8172
  437MOL0     H57683   1.812   0.599   1.001 -1.5120 -0.3944 -0.3153
  437MOL0     H57684   1.638   0.437   0.979  1.1035  1.3232 -0.0671
  438MOL0     O57685  10.040   3.531   1.990 -0.7095 -0.0568  0.0324
  438MOL0     C57686  10.123   3.514   1.903 -0.7917  0.3264  0.3331
  438MOL0     O57687  10.154   3.389   1.845 -0.2959  0.1241  0.1352
  438MOL0     C57688  10.135   3.262   1.885  0.0622 -0.1360  0.2017
  438MOL0     C57689  10.117   3.223   2.019  0.6767 -0.3801  0.5745
  438MOL0     C57690  10.111   3.085   2.050  0.1436  0.0641  1.3091
  438MOL0     C57691  10.113   2.987   1.946 -0.5407 -0.3190 -0.4472
  438MOL0     O57692  10.094   2.852   1.962  0.2070 -0.0232  0.4848
  438MOL0     C57693   9.961   2.813   1.966  0.1439 -0.0641  0.8412
  438MOL0     C57694   9.927   2.748   1.835  0.1720 -0.3454  0.8540
  438MOL0     C57695   9.781   2.701   1.842 -0.5402  0.2919  0.3112
  438MOL0     C57696   9.747   2.641   1.710  0.4685 -0.0940 -0.1832
  438MOL0     C57697   9.616   2.564   1.718 -0.7438 -0.6203  0.0376
  438MOL0     C57698   9.491   2.654   1.762  0.3676  0.6633 -0.6965
  438MOL0     C57699   9.371   2.555   1.786  0.0059 -0.9586 -0.0403
  438MOL0     C57700   9.233   2.609   1.743 -0.9268 -0.0632  0.5711
  438MOL0     N57701   9.125   2.504   1.749  0.1150  0.8381  0.6189
  438MOL0     C57702   9.123   2.392   1.669 -0.5554 -0.7260 -0.2693
  438MOL0     C57703   9.027   2.320   1.724  0.0935  0.8077  0.4241
  438MOL0     C57704   8.968   2.189   1.664  0.2711  1.1787 -0.1222
  438MOL0     C57705   8.854   2.221   1.554  0.8278  0.3002 -0.1453
  438MOL0     C57706   8.741   2.283   1.626  0.2706 -0.3418 -0.5978
  438MOL0     C57707   8.609   2.248   1.559  0.6199 -0.0676 -0.0973
  438MOL0     O57708   8.496   2.264   1.652  1.0237  0.1174  0.5927
  438MOL0     C57709   8.403   2.368   1.642 -0.7665  1.0818  0.3483
  438MOL0     C57710   8.434   2.486   1.704 -0.5780  0.2036 -0.4892
  438MOL0     C57711   8.348   2.594   1.684  0.6276  0.8307  0.2361
  438MOL0     C57712   8.238   2.591   1.600 -0.0251 -0.6184 -0.0418
  438MOL0     C57713   8.165   2.712   1.568 -0.4477 -0.6976 -0.0567
  438MOL0     O57714   8.174   2.807   1.663  0.4501 -0.4812  0.0382
  438MOL0     C57715   8.111   2.924   1.660 -0.1176 -1.1063  0.0654
  438MOL0     C57716   8.043   2.983   1.778 -0.2881  0.8637  0.0168
  438MOL0     C57717   7.979   3.110   1.766  1.2062  0.2544 -0.4423
  438MOL0     C57718   7.975   3.178   1.645  0.9030 -0.1048  0.7560
  438MOL0     O57719   7.907   3.299   1.627  0.2610 -0.2283 -0.5423
  438MOL0     C57720   7.813   3.350   1.730  0.3522 -0.6406 -0.4129
  438MOL0     C57721   7.754   3.483   1.700 -0.1017  0.4397 -0.2814
  438MOL0     C57722   7.662   3.496   1.578  0.0496  0.4886  0.8794
  438MOL0     C57723   7.601   3.629   1.550  1.4241 -0.2892 -0.8839
  438MOL0     C57724   7.507   3.630   1.422  0.6964  0.1389 -0.9728
  438MOL0     C57725   7.377   3.554   1.448  0.3214  0.2485  0.5481
  438MOL0     C57726   7.277   3.574   1.330  0.4332 -0.7119 -0.9109
  438MOL0     C57727   7.335   3.509   1.207  0.5140  0.6753  0.6470
  438MOL0    Cl57728   7.208   3.569   1.067  0.0767  0.1697  0.7373
  438MOL0     C57729   8.039   3.122   1.532  0.6683 -1.3708 -0.9188
  438MOL0     C57730   8.104   3.001   1.545 -1.4613 -0.4971  0.1323
  438MOL0     O57731   8.093   2.717   1.466 -0.2415  0.0862  0.3870
  438MOL0     C57732   8.218   2.472   1.530  0.4108 -0.5714 -0.7843
  438MOL0     C57733   8.301   2.357   1.556  0.3248 -0.7431  0.5704
  438MOL0     N57734   8.976   2.390   1.833 -0.4902  0.4375 -0.7790
  438MOL0     N57735   9.042   2.494   1.850  0.3991  0.3139  0.1051
  438MOL0     C57736  10.134   3.034   1.818 -0.4124  0.7328 -0.0866
  438MOL0     C57737  10.140   3.163   1.782  0.1107 -0.3740 -0.0091
  438MOL0     C57738  10.192   3.630   1.841 -0.5649  0.7607 -0.0205
  438MOL0     C57739  10.129   3.758   1.852 -1.1855  0.6802 -0.3361
  438MOL0     C57740  10.190   3.878   1.802 -0.0278 -0.6265 -0.3518
  438MOL0     C57741  10.317   3.867   1.741  0.1016  0.0095 -0.3119
  438MOL0     O57742  10.373   3.984   1.681  0.5962 -0.6382 -0.4093
  438MOL0     C57743  10.500   3.964   1.619  0.3568 -0.3053  0.4987
  438MOL0     C57744  10.621   3.962   1.714  0.2493 -1.1642  0.5925
  438MOL0     C57745  10.754   3.984   1.639 -0.7721  0.3404 -0.0752
  438MOL0     C57746  10.867   4.013   1.750 -0.1108 -0.3314  0.3806
  438MOL0     C57747  10.980   4.092   1.698  0.4932 -0.2490 -0.5072
  438MOL0     C57748  11.066   4.169   1.647 -0.1076 -0.2033  0.0010
  438MOL0     C57749  10.380   3.748   1.746  0.2656 -0.2475 -0.0751
  438MOL0     C57750  10.322   3.629   1.790  0.1079  0.8475 -0.5675
  438MOL0     H57751  10.109   3.297   2.097 -3.9157  0.6554 -0.5835
  438MOL0     H57752  10.100   3.057   2.154 -2.6403  0.8423  1.3009
  438MOL0     H57753   9.884   2.881   2.002 -1.4152 -2.1298  1.6501
  438MOL0     H57754   9.945   2.733   2.039 -5.3679 -0.6268 -0.6012
  438MOL0     H57755   9.991   2.660   1.826 -1.3994 -1.3191 -3.3105
  438MOL0     H57756   9.947   2.814   1.749  2.4758  1.0197  2.3353
  438MOL0     H57757   9.722   2.792   1.854  0.3835  0.8550  0.7439
  438MOL0     H57758   9.760   2.632   1.924 -1.2127  2.0239  1.6767
  438MOL0     H57759   9.738   2.724   1.640  2.8785  0.0179 -0.4327
  438MOL0     H57760   9.833   2.577   1.688  0.0536 -1.7572  2.4716
  438MOL0     H57761   9.617   2.488   1.797  1.5866  0.5935  1.2883
  438MOL0     H57762   9.604   2.523   1.617 -2.2226  1.1045 -0.5445
  438MOL0     H57763   9.481   2.711   1.669  0.3719  0.8901 -0.5580
  438MOL0     H57764   9.506   2.712   1.854  3.2261 -2.6936  1.2080
  438MOL0     H57765   9.390   2.467   1.726  3.7019 -3.6831  4.4511
  438MOL0     H57766   9.375   2.526   1.892  1.5409 -0.9577 -0.0809
  438MOL0     H57767   9.242   2.651   1.642 -0.9470 -0.2238  0.5034
  438MOL0     H57768   9.198   2.691   1.807 -2.9133 -0.2618 -0.1933
  438MOL0     H57769   9.191   2.383   1.586 -0.0911  2.6921 -0.4013
  438MOL0     H57770   8.935   2.125   1.746  1.0515 -1.8244 -1.9868
  438MOL0     H57771   9.040   2.124   1.614 -0.4917  1.5977 -1.8645
  438MOL0     H57772   8.826   2.121   1.522  0.9362  0.0115  0.6300
  438MOL0     H57773   8.890   2.289   1.476 -0.1363  0.7909 -0.1820
  438MOL0     H57774   8.738   2.252   1.731 -2.2134  0.7474 -0.2763
  438MOL0     H57775   8.764   2.390   1.624  0.2988 -0.3480 -0.6041
  438MOL0     H57776   8.608   2.143   1.527 -0.5643 -0.7031  1.7832
  438MOL0     H57777   8.591   2.306   1.469  1.6003 -0.5359 -0.6057
  438MOL0     H57778   8.532   2.500   1.748 -0.0763  3.2525 -2.2934
  438MOL0     H57779   8.365   2.685   1.741  2.9743 -0.4981  1.8559
  438MOL0     H57780   8.047   2.937   1.876  1.5676  1.4967  0.2747
  438MOL0     H57781   7.931   3.154   1.853  4.9841  2.0567  0.9826
  438MOL0     H57782   7.861   3.357   1.828  0.1337 -4.0695  0.0439
  438MOL0     H57783   7.724   3.287   1.722 -1.1227  1.4467 -1.7749
  438MOL0     H57784   7.830   3.561   1.697 -0.3195  0.7101  0.8799
  438MOL0     H57785   7.702   3.511   1.792  1.5904 -0.0850  0.9032
  438MOL0     H57786   7.580   3.424   1.586 -0.0812  0.8551  4.9567
  438MOL0     H57787   7.734   3.468   1.500 -1.7778 -1.4910 -0.1954
  438MOL0     H57788   7.546   3.670   1.635 -0.8931  0.0198 -2.4468
  438MOL0     H57789   7.678   3.701   1.521  1.3187  0.8907  1.5255
  438MOL0     H57790   7.570   3.585   1.344  1.9409  1.9289 -1.0466
  438MOL0     H57791   7.484   3.733   1.394  3.3771  0.7273 -1.2659
  438MOL0     H57792   7.333   3.591   1.542 -2.5970 -1.2114 -0.1180
  438MOL0     H57793   7.395   3.446   1.448  0.0936  0.1335 -2.3828
  438MOL0     H57794   7.182   3.529   1.360  1.5569 -0.3672  4.0206
  438MOL0     H57795   7.261   3.681   1.316  2.5815 -0.1569  0.3804
  438MOL0     H57796   7.323   3.400   1.218 -2.3090  0.9798  1.4117
  438MOL0     H57797   7.438   3.533   1.181  0.4863  0.6657  0.5303
  438MOL0     H57798   8.055   3.181   1.443  1.5276  0.0939  0.1593
  438MOL0     H57799   8.164   2.957   1.466  0.2616 -3.2246  2.7626
  438MOL0     H57800   8.145   2.481   1.450  1.1058 -0.1114 -1.3862
  438MOL0     H57801   8.281   2.266   1.501  1.4876 -0.8272  0.2559
  438MOL0     H57802  10.156   2.944   1.761 -0.3766  0.8676 -0.2847
  438MOL0     H57803  10.151   3.184   1.676 -0.6140 -0.6748 -0.1477
  438MOL0     H57804  10.031   3.775   1.896 -0.9076 -0.3231  0.7317
  438MOL0     H57805  10.143   3.975   1.811 -2.1306 -1.7554  2.4251
  438MOL0     H57806  10.519   4.048   1.551  1.8394 -0.8871  0.1367
  438MOL0     H57807  10.504   3.868   1.567  2.7439 -1.0298  1.8364
  438MOL0     H57808  10.608   4.045   1.785  0.5202  1.9702 -2.7312
  438MOL0     H57809  10.623   3.866   1.767 -2.0206 -1.6642 -0.1351
  438MOL0     H57810  10.742   4.066   1.567  3.1495  1.4314  0.3060
  438MOL0     H57811  10.788   3.893   1.588  1.9699  0.7036  0.9836
  438MOL0     H57812  10.835   4.060   1.843  3.7065 -0.0414  1.7101
  438MOL0     H57813  10.907   3.918   1.786  1.5642 -0.6820 -2.0888
  438MOL0     H57814  11.141   4.238   1.614  1.2320  0.1313  3.3124
  438MOL0     H57815  10.482   3.743   1.708  0.2079  1.6992 -0.5891
  438MOL0     H57816  10.370   3.532   1.782 -1.6272 -0.0407 -0.6183
  439MOL0     O57817   7.443   7.945   3.638 -0.7112  0.1789  1.0703
  439MOL0     C57818   7.450   7.887   3.740 -0.1450  1.4261 -0.1785
  439MOL0     O57819   7.475   7.757   3.745  0.1213  0.5536  0.1402
  439MOL0     C57820   7.488   7.674   3.634  0.5527  0.3325  0.4574
  439MOL0     C57821   7.558   7.703   3.514 -0.6257  0.6080 -0.9189
  439MOL0     C57822   7.556   7.612   3.409 -0.5618  0.4923  1.2517
  439MOL0     C57823   7.492   7.489   3.424  0.2374 -0.0694 -0.1775
  439MOL0     O57824   7.494   7.420   3.304  0.0853 -0.4153  0.5053
  439MOL0     C57825   7.433   7.288   3.326 -0.0599 -0.4266  0.0976
  439MOL0     C57826   7.428   7.194   3.197 -0.6088 -0.6133 -0.4306
  439MOL0     C57827   7.440   7.042   3.222 -0.2621 -0.4935  0.0426
  439MOL0     C57828   7.429   6.963   3.089 -0.2145  0.4489  0.0939
  439MOL0     C57829   7.517   7.004   2.976 -0.5001 -0.0780  0.1281
  439MOL0     C57830   7.663   7.012   3.015  0.9993 -0.3754  0.3300
  439MOL0     C57831   7.739   6.985   2.880 -0.8339 -0.6052  0.0645
  439MOL0     C57832   7.891   6.971   2.907  0.9472  0.1817  0.9001
  439MOL0     N57833   7.958   6.916   2.788  0.7939 -0.0467 -0.2513
  439MOL0     C57834   8.031   6.974   2.690  0.2159 -0.4993  0.1329
  439MOL0     C57835   8.084   6.870   2.626  0.7880  0.1457  0.6168
  439MOL0     C57836   8.175   6.885   2.500 -0.7721  0.3269  0.0844
  439MOL0     C57837   8.085   6.903   2.380  0.8179 -0.4926  0.3346
  439MOL0     C57838   7.985   6.784   2.342 -0.0707 -0.2298  0.2921
  439MOL0     C57839   7.910   6.808   2.206 -1.1402 -0.2746 -0.4114
  439MOL0     O57840   7.855   6.688   2.142  0.0437  0.3968  0.0157
  439MOL0     C57841   7.740   6.702   2.067 -1.4834 -0.0553  0.3401
  439MOL0     C57842   7.654   6.590   2.063 -1.0794 -0.7977 -0.5393
  439MOL0     C57843   7.538   6.580   1.987  0.0650  0.6452 -0.6250
  439MOL0     C57844   7.510   6.694   1.907 -0.1295 -0.3322  0.1725
  439MOL0     C57845   7.412   6.677   1.792  0.1546 -0.1305 -0.3668
  439MOL0     O57846   7.407   6.784   1.705 -0.2784  0.1786  0.1661
  439MOL0     C57847   7.321   6.791   1.597 -1.5473  0.3329  0.0147
  439MOL0     C57848   7.232   6.895   1.599  0.0168 -1.0430 -0.1189
  439MOL0     C57849   7.140   6.899   1.492 -0.8829  0.9371 -0.1254
  439MOL0     C57850   7.118   6.798   1.399 -1.0239  0.3224  0.5169
  439MOL0     O57851   7.021   6.813   1.307 -0.1852 -0.7486  0.0010
  439MOL0     C57852   7.031   6.758   1.171  0.0708  0.0512 -0.8614
  439MOL0     C57853   6.930   6.819   1.067 -1.2202 -0.2423 -1.0142
  439MOL0     C57854   6.780   6.776   1.084 -0.0858  0.1171 -0.2609
  439MOL0     C57855   6.713   6.847   0.960 -0.1350  0.0807  1.4456
  439MOL0     C57856   6.573   6.789   0.928 -0.4750 -0.5121  0.1196
  439MOL0     C57857   6.470   6.830   1.036  0.9488  0.7686 -0.3660
  439MOL0     C57858   6.334   6.770   1.012  0.2152  1.0638  0.0985
  439MOL0     C57859   6.236   6.837   1.105 -0.8401 -0.1695 -0.5426
  439MOL0    Cl57860   6.078   6.771   1.086 -0.0804 -0.1663  0.0515
  439MOL0     C57861   7.205   6.678   1.414 -0.3633 -0.5747  1.3444
  439MOL0     C57862   7.304   6.671   1.517 -0.5135 -0.1956 -0.0494
  439MOL0     O57863   7.339   6.577   1.794  0.0823 -0.2749 -0.3067
  439MOL0     C57864   7.587   6.816   1.921  0.0579 -0.0355  0.9898
  439MOL0     C57865   7.701   6.820   2.001 -0.2258 -0.3886  0.9486
  439MOL0     N57866   8.053   6.752   2.691 -0.1634 -0.6132 -0.1400
  439MOL0     N57867   7.970   6.781   2.784 -0.1057 -0.4849 -0.5281
  439MOL0     C57868   7.456   7.448   3.550  0.4673  0.5525 -0.5698
  439MOL0     C57869   7.454   7.543   3.653 -0.7444 -0.3758  0.5107
  439MOL0     C57870   7.451   7.959   3.863  0.2771 -0.4115  0.4823
  439MOL0     C57871   7.396   8.090   3.866  0.6610  0.6333 -0.1674
  439MOL0     C57872   7.403   8.158   3.986  0.2016  0.2253 -0.4596
  439MOL0     C57873   7.473   8.106   4.099 -0.0610  0.6737 -0.5972
  439MOL0     O57874   7.467   8.188   4.207  0.2309 -0.3066  0.1997
  439MOL0     C57875   7.528   8.143   4.331  0.4005 -0.7659  0.6070
  439MOL0     C57876   7.499   8.237   4.448 -0.3059  0.4896 -0.0197
  439MOL0     C57877   7.558   8.374   4.416  1.3246  0.0898 -0.4149
  439MOL0     C57878   7.513   8.466   4.526 -0.9839 -0.2355 -0.2775
  439MOL0     C57879   7.590   8.444   4.652  0.0553  0.7967 -0.9256
  439MOL0     C57880   7.637   8.426   4.759 -0.2172  1.3331  0.6466
  439MOL0     C57881   7.530   7.975   4.093 -0.3934  0.1735 -0.1549
  439MOL0     C57882   7.520   7.905   3.972  0.0861  0.7418  0.4398
  439MOL0     H57883   7.600   7.801   3.494  3.5154 -0.3328  1.9033
  439MOL0     H57884   7.581   7.637   3.306  1.0924 -1.2564  1.1695
  439MOL0     H57885   7.331   7.307   3.361 -0.0140  1.1324 -0.4946
  439MOL0     H57886   7.486   7.237   3.407 -1.4744  0.4391  1.6282
  439MOL0     H57887   7.504   7.238   3.133  1.6695  0.6274  2.8436
  439MOL0     H57888   7.330   7.215   3.152 -2.1983  1.7669  3.5520
  439MOL0     H57889   7.355   7.015   3.286 -2.4846  0.4269 -2.3303
  439MOL0     H57890   7.535   7.013   3.269 -0.8559 -1.8130  0.4856
  439MOL0     H57891   7.437   6.855   3.106  3.8250  0.5942 -0.0014
  439MOL0     H57892   7.331   6.994   3.051  0.2558  0.6703 -0.9746
  439MOL0     H57893   7.486   7.100   2.933  0.1414 -0.1036 -0.4128
  439MOL0     H57894   7.497   6.923   2.904 -0.8147  1.0305 -1.0698
  439MOL0     H57895   7.678   6.934   3.090 -0.1628  0.2281  1.2146
  439MOL0     H57896   7.674   7.114   3.053 -4.6673  2.9424 -5.0335
  439MOL0     H57897   7.708   6.887   2.841  2.3606 -2.9226  2.8079
  439MOL0     H57898   7.716   7.066   2.810 -2.2803 -2.4888 -1.7777
  439MOL0     H57899   7.896   6.900   2.990 -0.3647 -1.9264 -0.7439
  439MOL0     H57900   7.928   7.071   2.936  0.1955  0.4780  0.8483
  439MOL0     H57901   8.053   7.079   2.673 -0.1369  0.4599  4.4422
  439MOL0     H57902   8.234   6.794   2.483  0.2008  1.1898 -1.3758
  439MOL0     H57903   8.251   6.963   2.512 -1.8001  1.3718 -0.0378
  439MOL0     H57904   8.146   6.913   2.290  2.0944 -2.1476  0.9727
  439MOL0     H57905   8.025   6.992   2.402 -2.0981 -2.2117 -0.1703
  439MOL0     H57906   8.050   6.696   2.333  2.1729  0.9688  3.0234
  439MOL0     H57907   7.906   6.767   2.415 -0.9763  0.8029 -0.4183
  439MOL0     H57908   7.988   6.853   2.144  1.5611 -3.3362  0.5222
  439MOL0     H57909   7.834   6.884   2.227  0.2189  0.9854  0.1733
  439MOL0     H57910   7.683   6.495   2.106 -2.3286 -0.9197  0.0863
  439MOL0     H57911   7.481   6.488   1.982  0.4873  0.1959  1.9190
  439MOL0     H57912   7.232   6.987   1.656  1.4926  0.2614 -2.0821
  439MOL0     H57913   7.071   6.981   1.477 -0.5055  0.8999 -2.5012
  439MOL0     H57914   7.010   6.651   1.183 -1.1415  0.4703  1.0154
  439MOL0     H57915   7.139   6.763   1.153  0.1458  0.7608 -0.2661
  439MOL0     H57916   6.961   6.777   0.971  0.7365 -0.1724 -0.4397
  439MOL0     H57917   6.943   6.927   1.071  0.4555 -0.4496  1.4347
  439MOL0     H57918   6.748   6.815   1.181  1.0591 -0.1981  0.2587
  439MOL0     H57919   6.773   6.666   1.083  1.1845 -0.0380  1.8551
  439MOL0     H57920   6.712   6.953   0.987 -2.0302  0.5773 -0.3080
  439MOL0     H57921   6.789   6.849   0.882 -0.7635  1.5161  0.8405
  439MOL0     H57922   6.589   6.681   0.928 -1.4114 -0.6569 -0.3274
  439MOL0     H57923   6.532   6.821   0.832 -1.3302  0.5298  0.8065
  439MOL0     H57924   6.460   6.939   1.022  2.8242  1.4670  2.8249
  439MOL0     H57925   6.490   6.814   1.142 -1.9421 -1.9637 -0.0786
  439MOL0     H57926   6.308   6.771   0.906  1.3123  2.1904 -0.1807
  439MOL0     H57927   6.337   6.662   1.029  1.5280  0.9502 -0.6766
  439MOL0     H57928   6.231   6.944   1.082  0.2903  0.3958  1.6167
  439MOL0     H57929   6.260   6.824   1.210 -1.3030  0.8349 -0.3001
  439MOL0     H57930   7.197   6.597   1.343  0.0912  2.4158 -2.4703
  439MOL0     H57931   7.369   6.584   1.518 -0.8679 -0.4762 -0.6763
  439MOL0     H57932   7.547   6.904   1.871 -0.0648  0.0005  1.1496
  439MOL0     H57933   7.763   6.908   2.014  0.1263 -0.0731 -2.0538
  439MOL0     H57934   7.413   7.352   3.576  0.6050  1.1443  2.1757
  439MOL0     H57935   7.419   7.503   3.747 -5.1680 -0.8621 -1.1045
  439MOL0     H57936   7.340   8.132   3.783  0.9926 -0.8525 -1.1941
  439MOL0     H57937   7.357   8.255   3.979  0.0835  0.1758 -0.3831
  439MOL0     H57938   7.636   8.145   4.313  0.3298  1.2545  0.2194
  439MOL0     H57939   7.482   8.047   4.355 -1.1886 -0.6193 -1.6168
  439MOL0     H57940   7.393   8.240   4.475 -0.1932 -0.2693  0.5626
  439MOL0     H57941   7.548   8.192   4.535 -0.7912  1.9526  1.0503
  439MOL0     H57942   7.528   8.416   4.319 -1.6635 -1.0179 -0.0817
  439MOL0     H57943   7.666   8.358   4.414  1.4265  0.1976  1.9477
  439MOL0     H57944   7.536   8.570   4.501  1.5235 -0.1865  1.8403
  439MOL0     H57945   7.405   8.449   4.540 -1.1081  0.0672 -0.8170
  439MOL0     H57946   7.687   8.388   4.846  0.2079 -0.9251 -0.4997
  439MOL0     H57947   7.575   7.921   4.176 -1.8237 -3.3553 -1.4758
  439MOL0     H57948   7.575   7.812   3.965 -0.4482  0.5542 -1.9957
  440MOL0     O57949   1.402   6.610   3.610 -0.2082  0.2131  1.1102
  440MOL0     C57950   1.293   6.618   3.656 -0.2800  0.2524 -0.1180
  440MOL0     O57951   1.206   6.728   3.643  0.6542  0.2778 -0.5875
  440MOL0     C57952   1.251   6.850   3.582  0.8215  1.0366 -0.4775
  440MOL0     C57953   1.383   6.896   3.591 -0.6906  0.0923 -0.0574
  440MOL0     C57954   1.428   7.009   3.517 -0.0421 -0.3437  0.7927
  440MOL0     C57955   1.348   7.076   3.431  0.1431 -0.5149  0.6820
  440MOL0     O57956   1.380   7.195   3.366 -0.0713 -0.6794 -0.3891
  440MOL0     C57957   1.502   7.273   3.378 -0.7216  0.5358 -0.0522
  440MOL0     C57958   1.509   7.361   3.496  0.8106  0.6350 -0.6131
  440MOL0     C57959   1.627   7.449   3.518  0.4029  0.6725  0.2999
  440MOL0     C57960   1.620   7.519   3.658  0.1565  0.4099 -0.9858
  440MOL0     C57961   1.710   7.635   3.669  0.1674  0.2944 -0.2379
  440MOL0     C57962   1.857   7.606   3.634 -0.7505  1.0609 -0.5476
  440MOL0     C57963   1.943   7.719   3.695  0.4867  0.6583  0.5818
  440MOL0     C57964   1.952   7.826   3.579 -0.0533 -0.9270 -0.0044
  440MOL0     N57965   2.066   7.789   3.493  0.2850  0.2104 -0.1520
  440MOL0     C57966   2.197   7.834   3.513  0.5966 -0.0166 -0.8704
  440MOL0     C57967   2.262   7.804   3.400  0.4181  0.1242 -0.2224
  440MOL0     C57968   2.399   7.853   3.367 -0.5008 -0.3788  0.0061
  440MOL0     C57969   2.459   7.812   3.233  0.2169  0.3534  0.3479
  440MOL0     C57970   2.600   7.857   3.216  0.4730 -0.2804 -0.3507
  440MOL0     C57971   2.666   7.818   3.093 -0.7120  0.5068 -0.3209
  440MOL0     O57972   2.795   7.881   3.071  0.2766 -0.1685  0.3053
  440MOL0     C57973   2.876   7.862   2.965  0.2568  0.3309  1.2824
  440MOL0     C57974   2.978   7.952   2.946 -0.2044 -0.2564 -0.2439
  440MOL0     C57975   3.066   7.950   2.835  0.2499 -0.1332  0.6227
  440MOL0     C57976   3.049   7.848   2.741  0.3066  0.1070  1.6183
  440MOL0     C57977   3.144   7.822   2.632 -0.3211 -0.3342  0.2324
  440MOL0     O57978   3.123   7.716   2.554  0.1936  0.7364 -0.3277
  440MOL0     C57979   3.219   7.686   2.455  0.0817 -0.7302 -0.2737
  440MOL0     C57980   3.202   7.708   2.320 -0.0868  0.2006  0.3078
  440MOL0     C57981   3.299   7.679   2.226  0.0808  0.2786  0.1619
  440MOL0     C57982   3.414   7.605   2.269  0.9435 -0.0395  0.3897
  440MOL0     O57983   3.492   7.562   2.171 -0.1270  0.3896 -0.2078
  440MOL0     C57984   3.637   7.543   2.218  0.1041  0.1224 -0.6066
  440MOL0     C57985   3.727   7.540   2.093  0.5151  0.3627 -0.6610
  440MOL0     C57986   3.735   7.678   2.033  0.9134  0.6097  0.6774
  440MOL0     C57987   3.827   7.666   1.905 -0.0446 -0.4699  0.8822
  440MOL0     C57988   3.860   7.816   1.873  1.0915 -0.6764  0.0043
  440MOL0     C57989   3.943   7.843   1.746  0.3539 -0.3335 -0.1389
  440MOL0     C57990   4.087   7.800   1.774 -0.1207  0.6250 -0.0682
  440MOL0     C57991   4.166   7.848   1.646  0.2521 -0.0303  0.2690
  440MOL0    Cl57992   4.341   7.827   1.640 -0.2046  0.3455  0.0279
  440MOL0     C57993   3.439   7.592   2.405  0.4158 -0.3523  0.3173
  440MOL0     C57994   3.346   7.637   2.498  0.0908  1.1864 -0.1413
  440MOL0     O57995   3.247   7.895   2.643  0.7099  1.2502 -0.1024
  440MOL0     C57996   2.947   7.752   2.760  0.6169  0.0254 -0.0048
  440MOL0     C57997   2.862   7.751   2.872 -0.3427 -0.6957 -0.4556
  440MOL0     N57998   2.178   7.735   3.313 -0.1256 -0.4954  0.0042
  440MOL0     N57999   2.058   7.720   3.374 -0.2398  0.9677 -0.0087
  440MOL0     C58000   1.221   7.017   3.401 -0.4230 -0.9429 -0.2606
  440MOL0     C58001   1.175   6.910   3.477  0.1057  0.0259  0.9467
  440MOL0     C58002   1.254   6.504   3.739 -0.7376 -0.8338 -0.4362
  440MOL0     C58003   1.120   6.480   3.767  0.6198 -0.2358  0.0909
  440MOL0     C58004   1.085   6.373   3.855 -0.0912  0.2945  1.1157
  440MOL0     C58005   1.185   6.299   3.921  0.3042  0.3139  0.3735
  440MOL0     O58006   1.153   6.185   3.995 -0.0937 -0.0748  0.6098
  440MOL0     C58007   1.016   6.186   4.053 -0.6406 -0.4175 -0.0703
  440MOL0     C58008   1.009   6.095   4.182 -0.5770  0.0554  0.1267
  440MOL0     C58009   1.070   5.952   4.159  0.5981  0.9690 -0.3066
  440MOL0     C58010   1.058   5.876   4.285 -0.0802  0.3777 -0.3097
  440MOL0     C58011   1.129   5.749   4.272  0.2140  0.8783 -0.7706
  440MOL0     C58012   1.208   5.667   4.250 -0.8661  1.3560 -0.3267
  440MOL0     C58013   1.313   6.320   3.884 -0.1908 -0.2824 -0.1870
  440MOL0     C58014   1.355   6.418   3.789  0.8961  0.0311 -0.1115
  440MOL0     H58015   1.437   6.846   3.671  1.4234 -2.3507 -2.7990
  440MOL0     H58016   1.530   7.033   3.544 -0.2519  1.2837  0.2527
  440MOL0     H58017   1.512   7.341   3.293 -0.9282 -0.8842 -1.2609
  440MOL0     H58018   1.590   7.208   3.370 -2.0068 -1.1663 -1.1721
  440MOL0     H58019   1.485   7.311   3.590  0.5279  1.7856 -0.0538
  440MOL0     H58020   1.421   7.423   3.476 -1.3915 -2.5815 -1.8184
  440MOL0     H58021   1.623   7.524   3.439 -1.7054 -2.8310 -3.3000
  440MOL0     H58022   1.723   7.396   3.515 -0.0869 -0.2483  0.3618
  440MOL0     H58023   1.515   7.548   3.663  0.1939  0.3888  1.1689
  440MOL0     H58024   1.651   7.449   3.737 -0.1711  2.3546  0.9756
  440MOL0     H58025   1.694   7.674   3.770  3.0961 -0.6779  0.7034
  440MOL0     H58026   1.689   7.710   3.592  5.1774  0.4938 -1.7786
  440MOL0     H58027   1.859   7.588   3.526 -0.2012  1.3131 -0.5786
  440MOL0     H58028   1.896   7.512   3.675 -0.9341  0.9988 -0.5110
  440MOL0     H58029   1.890   7.765   3.779 -3.0333  1.6094 -1.9208
  440MOL0     H58030   2.040   7.671   3.712  0.0443 -1.0859 -1.3402
  440MOL0     H58031   1.966   7.924   3.626  0.5559  0.0939 -2.2092
  440MOL0     H58032   1.855   7.832   3.528  0.2508  0.2303 -0.4735
  440MOL0     H58033   2.226   7.908   3.586  0.7946 -2.2433  1.4605
  440MOL0     H58034   2.467   7.817   3.445  0.3759 -0.7765 -0.9235
  440MOL0     H58035   2.416   7.959   3.386 -2.1373 -0.5200  2.8110
  440MOL0     H58036   2.396   7.826   3.145 -0.1024 -1.7430  0.2001
  440MOL0     H58037   2.463   7.703   3.242 -2.2765  0.2222  0.5246
  440MOL0     H58038   2.593   7.966   3.220 -1.6457 -0.3473 -1.0990
  440MOL0     H58039   2.658   7.817   3.300 -0.8235  2.7400  2.2032
  440MOL0     H58040   2.603   7.838   3.006 -1.4632  0.2350  0.1464
  440MOL0     H58041   2.694   7.712   3.098  0.6254  0.8946  1.0862
  440MOL0     H58042   2.970   8.029   3.023 -2.1191  0.6333 -1.2503
  440MOL0     H58043   3.141   8.028   2.829 -0.3790  0.4593  0.2095
  440MOL0     H58044   3.103   7.737   2.285  0.3777  0.1300 -1.1266
  440MOL0     H58045   3.296   7.697   2.119 -1.2008  0.8050  0.2599
  440MOL0     H58046   3.661   7.446   2.263 -0.8041  0.3679  0.4639
  440MOL0     H58047   3.676   7.616   2.290  0.0227 -0.8061  0.4017
  440MOL0     H58048   3.681   7.467   2.026 -4.6905  0.3630  2.3767
  440MOL0     H58049   3.825   7.503   2.124 -0.4301 -1.7863 -0.0597
  440MOL0     H58050   3.779   7.735   2.115  1.2578 -1.2135  1.8188
  440MOL0     H58051   3.637   7.720   2.006  0.9308  1.0479  1.2839
  440MOL0     H58052   3.918   7.610   1.930  0.3846 -0.8236 -1.2568
  440MOL0     H58053   3.788   7.610   1.820  0.4587 -0.7727  0.8483
  440MOL0     H58054   3.895   7.867   1.963 -0.0780  0.4501 -0.1645
  440MOL0     H58055   3.763   7.862   1.851  1.2243 -1.2878 -2.0492
  440MOL0     H58056   3.937   7.949   1.718  0.6402 -0.6188 -1.3324
  440MOL0     H58057   3.902   7.786   1.662 -0.8948  0.6320 -0.2128
  440MOL0     H58058   4.114   7.847   1.870 -0.3132  0.8370 -0.1167
  440MOL0     H58059   4.102   7.693   1.787  1.8960  0.9593  0.7350
  440MOL0     H58060   4.142   7.953   1.627 -1.5950 -0.6279 -1.0199
  440MOL0     H58061   4.121   7.788   1.567 -0.3383 -0.6875  1.0850
  440MOL0     H58062   3.528   7.539   2.439  2.2187  2.8597  0.9793
  440MOL0     H58063   3.368   7.649   2.604  3.2692  5.6298 -0.9874
  440MOL0     H58064   2.934   7.678   2.682 -0.3443  0.9249 -0.7175
  440MOL0     H58065   2.785   7.681   2.905 -1.5904  2.2531  3.6646
  440MOL0     H58066   1.150   7.070   3.339 -0.2068 -0.9142 -0.4869
  440MOL0     H58067   1.081   6.859   3.459  0.3264 -0.7334  1.8785
  440MOL0     H58068   1.043   6.546   3.730 -0.5708 -1.6569 -0.0411
  440MOL0     H58069   0.982   6.343   3.870 -0.1782  0.8955  1.7780
  440MOL0     H58070   0.942   6.152   3.981 -0.2192  1.0401 -1.2425
  440MOL0     H58071   0.987   6.287   4.084 -3.5173 -1.5809  1.4253
  440MOL0     H58072   1.060   6.149   4.262  3.6013  0.2749 -2.3985
  440MOL0     H58073   0.904   6.088   4.211 -1.8088 -0.3414 -3.8684
  440MOL0     H58074   1.176   5.949   4.133  0.8244 -3.8153  0.2866
  440MOL0     H58075   1.033   5.891   4.076  2.5681 -2.5551  1.1539
  440MOL0     H58076   1.105   5.929   4.369  1.6357 -0.8708 -0.4319
  440MOL0     H58077   0.957   5.846   4.316 -0.6050  0.9831 -1.3568
  440MOL0     H58078   1.281   5.593   4.223 -0.1301  2.2311 -0.7785
  440MOL0     H58079   1.388   6.254   3.925 -1.1256 -1.0092  0.3948
  440MOL0     H58080   1.462   6.418   3.770  1.2047  0.0227  1.5017
  441MOL0     O58081   7.836   6.436   1.314  0.7468 -0.4138 -0.2801
  441MOL0     C58082   7.773   6.541   1.301 -0.1408  0.4143  0.3831
  441MOL0     O58083   7.792   6.651   1.379  0.5025  0.3472 -0.1901
  441MOL0     C58084   7.880   6.633   1.478  0.5046 -0.4918  0.2735
  441MOL0     C58085   8.018   6.615   1.465  0.7664  0.3424 -0.1197
  441MOL0     C58086   8.099   6.603   1.578  0.0410 -0.0356  0.1486
  441MOL0     C58087   8.038   6.596   1.705 -0.0949 -0.6056 -0.0631
  441MOL0     O58088   8.114   6.590   1.821 -0.3822  0.1451  0.3554
  441MOL0     C58089   8.225   6.490   1.815  0.1805 -0.0453  0.2386
  441MOL0     C58090   8.183   6.366   1.908  0.1137 -1.1984  1.4490
  441MOL0     C58091   8.112   6.391   2.043 -0.3329 -0.1645 -0.3149
  441MOL0     C58092   8.127   6.267   2.138  0.2633 -0.6149 -0.2271
  441MOL0     C58093   8.013   6.268   2.239 -0.8965  0.3744 -0.1983
  441MOL0     C58094   7.991   6.394   2.313  0.4376  0.1151  0.3140
  441MOL0     C58095   7.868   6.376   2.401  0.1798  0.4651  1.0740
  441MOL0     C58096   7.810   6.514   2.435 -0.9288 -0.0278  0.2784
  441MOL0     N58097   7.712   6.503   2.541 -0.9062  0.2273 -0.6469
  441MOL0     C58098   7.739   6.559   2.665  0.0064 -0.1840 -0.4559
  441MOL0     C58099   7.614   6.559   2.728 -0.4440 -0.3226  0.4519
  441MOL0     C58100   7.589   6.632   2.856  0.8681  0.5525  0.8553
  441MOL0     C58101   7.534   6.552   2.970 -0.0593  0.1216  0.4606
  441MOL0     C58102   7.403   6.471   2.940  0.5292 -0.3082  0.2753
  441MOL0     C58103   7.267   6.551   2.923  0.4754 -0.5783 -0.1470
  441MOL0     O58104   7.244   6.601   3.055 -1.4481 -0.3024 -0.7761
  441MOL0     C58105   7.123   6.654   3.075 -0.0978  0.5816  0.2337
  441MOL0     C58106   7.009   6.652   2.988 -0.4542 -0.3620 -1.0002
  441MOL0     C58107   6.894   6.691   3.038  0.7105 -0.0739 -0.4095
  441MOL0     C58108   6.868   6.743   3.164  0.0111 -0.4655 -0.5794
  441MOL0     C58109   6.735   6.761   3.207 -0.1050  0.0988 -0.0794
  441MOL0     O58110   6.726   6.804   3.334 -0.0668 -0.5288 -0.8134
  441MOL0     C58111   6.605   6.843   3.383  1.0448 -0.0611 -0.0464
  441MOL0     C58112   6.488   6.759   3.390  0.2456 -0.8687 -0.1314
  441MOL0     C58113   6.375   6.795   3.459  0.5334 -1.0527 -0.2568
  441MOL0     C58114   6.369   6.912   3.545 -0.3580  0.0051 -0.0869
  441MOL0     O58115   6.261   6.935   3.626  0.6863  0.4274 -0.2658
  441MOL0     C58116   6.231   7.064   3.682  0.8001 -0.7172  0.7612
  441MOL0     C58117   6.080   7.058   3.708 -0.9094  0.2733  0.0009
  441MOL0     C58118   6.023   7.193   3.748  0.5218  0.5556 -0.6244
  441MOL0     C58119   6.011   7.295   3.636 -0.4778  0.0570 -0.3205
  441MOL0     C58120   5.862   7.345   3.625 -0.6233 -0.7389 -0.3334
  441MOL0     C58121   5.841   7.490   3.578 -0.4853 -0.1587 -1.0122
  441MOL0     C58122   5.887   7.607   3.680 -0.5965 -0.4075 -0.0353
  441MOL0     C58123   5.816   7.618   3.806 -0.4451  0.0224  0.7425
  441MOL0    Cl58124   5.903   7.749   3.892 -0.0143 -0.3168  0.4908
  441MOL0     C58125   6.488   6.982   3.560  0.1309  0.1150  0.8293
  441MOL0     C58126   6.600   6.957   3.471 -0.1988  0.4481 -0.1925
  441MOL0     O58127   6.644   6.731   3.134  0.3886 -0.0347 -0.6445
  441MOL0     C58128   6.976   6.750   3.248  0.1179  0.0512  0.0398
  441MOL0     C58129   7.107   6.704   3.202  0.7031 -0.6558  0.3196
  441MOL0     N58130   7.525   6.505   2.645  0.0851 -0.0357 -0.3342
  441MOL0     N58131   7.577   6.489   2.521 -0.8019 -0.7496 -0.4481
  441MOL0     C58132   7.905   6.622   1.716  0.8550 -0.6135  0.1032
  441MOL0     C58133   7.818   6.631   1.608  0.2637 -1.0899  0.3327
  441MOL0     C58134   7.669   6.541   1.200  0.3540 -0.8433  0.0869
  441MOL0     C58135   7.559   6.625   1.232  0.7783  0.5919 -0.2963
  441MOL0     C58136   7.449   6.635   1.143 -0.1861 -0.3108 -0.6955
  441MOL0     C58137   7.443   6.559   1.028 -0.8031  0.2415  0.0003
  441MOL0     O58138   7.340   6.576   0.945 -0.8775 -0.6027  0.5918
  441MOL0     C58139   7.252   6.467   0.948  0.3645  0.8044 -1.0897
  441MOL0     C58140   7.248   6.363   0.840 -0.9785  0.8629 -0.6820
  441MOL0     C58141   7.307   6.416   0.706  0.5220  0.6500  0.9098
  441MOL0     C58142   7.242   6.363   0.575 -0.9361  0.3859 -0.0049
  441MOL0     C58143   7.304   6.236   0.546  0.2530  0.4279  0.0655
  441MOL0     C58144   7.365   6.135   0.504 -0.0844  0.4419  0.2513
  441MOL0     C58145   7.543   6.474   0.992 -0.1595 -0.4051 -0.9930
  441MOL0     C58146   7.653   6.461   1.082 -0.0977 -0.2464 -0.6276
  441MOL0     H58147   8.065   6.629   1.368 -2.2951  0.3003 -1.7124
  441MOL0     H58148   8.207   6.596   1.574  0.1650  0.7537  1.5542
  441MOL0     H58149   8.322   6.526   1.850  1.2749 -0.7648 -1.9223
  441MOL0     H58150   8.250   6.450   1.717 -0.4677  0.9648 -0.3645
  441MOL0     H58151   8.279   6.319   1.931  1.6704  1.2630  0.3311
  441MOL0     H58152   8.117   6.305   1.846  1.3313  0.3260 -1.5105
  441MOL0     H58153   8.008   6.416   2.020 -1.0983 -1.9654  0.9581
  441MOL0     H58154   8.159   6.478   2.090  2.9404  0.1759 -3.7597
  441MOL0     H58155   8.124   6.177   2.076  2.9466 -2.1071  1.5703
  441MOL0     H58156   8.221   6.272   2.194  2.6941  1.6340 -4.0195
  441MOL0     H58157   8.030   6.196   2.319 -1.1029  1.7459  1.1241
  441MOL0     H58158   7.928   6.237   2.177 -0.3296 -1.0645 -0.2903
  441MOL0     H58159   7.981   6.482   2.249  0.1363 -1.1078 -1.3865
  441MOL0     H58160   8.079   6.426   2.369 -0.2651 -1.4265  2.4478
  441MOL0     H58161   7.788   6.315   2.357  1.8371 -0.2916 -1.1275
  441MOL0     H58162   7.902   6.328   2.493  1.6179 -0.8714 -0.0959
  441MOL0     H58163   7.771   6.577   2.355 -1.0270 -1.0250 -0.4694
  441MOL0     H58164   7.891   6.579   2.468 -2.7465  3.7981 -2.0678
  441MOL0     H58165   7.836   6.582   2.708 -0.7229 -0.9803  1.8067
  441MOL0     H58166   7.519   6.703   2.811  0.7788 -1.7982 -3.2253
  441MOL0     H58167   7.673   6.690   2.897  1.2105  1.6254 -1.2517
  441MOL0     H58168   7.519   6.604   3.065 -2.8297 -3.1244  2.0207
  441MOL0     H58169   7.619   6.487   2.993  2.9399  3.2732 -0.8854
  441MOL0     H58170   7.422   6.413   2.850  1.6000  0.9820 -0.3656
  441MOL0     H58171   7.388   6.399   3.022 -0.3935 -0.3430  0.0923
  441MOL0     H58172   7.192   6.477   2.895  0.2308 -0.7294  0.8855
  441MOL0     H58173   7.260   6.641   2.861  0.0265  0.7892  1.8051
  441MOL0     H58174   7.010   6.621   2.884  1.8854  2.9523 -2.1409
  441MOL0     H58175   6.812   6.679   2.968 -0.5715  2.9301  0.4181
  441MOL0     H58176   6.495   6.669   3.330  4.4618 -0.0799 -1.1473
  441MOL0     H58177   6.292   6.724   3.458 -0.7373  0.3761  0.2129
  441MOL0     H58178   6.256   7.147   3.614 -0.7932 -2.5629 -2.3113
  441MOL0     H58179   6.280   7.076   3.779  2.1720 -1.8642  0.2426
  441MOL0     H58180   6.066   6.983   3.786 -0.3203  0.0694 -0.0867
  441MOL0     H58181   6.035   7.014   3.618 -0.8133 -1.0836  0.6029
  441MOL0     H58182   6.098   7.227   3.820  1.2242  1.5042 -1.7648
  441MOL0     H58183   5.929   7.184   3.804 -0.5114  0.1138 -2.3472
  441MOL0     H58184   6.076   7.382   3.649 -0.0775  0.1940 -2.8730
  441MOL0     H58185   6.050   7.255   3.542 -1.1344 -1.9581  0.2101
  441MOL0     H58186   5.817   7.364   3.723 -0.3746  1.0446 -0.5448
  441MOL0     H58187   5.800   7.274   3.571 -1.7317  0.8399 -1.1880
  441MOL0     H58188   5.733   7.501   3.578 -0.6682 -1.1931  1.5151
  441MOL0     H58189   5.886   7.509   3.481  2.2557  1.1655  0.3903
  441MOL0     H58190   5.991   7.589   3.708  0.5322  0.3052 -3.2453
  441MOL0     H58191   5.896   7.701   3.625  3.0695  1.1523  2.8389
  441MOL0     H58192   5.834   7.523   3.858  2.8222  0.1042  0.0138
  441MOL0     H58193   5.710   7.635   3.789 -0.7148 -2.2510 -0.2279
  441MOL0     H58194   6.498   7.060   3.634  1.9426 -0.9963  1.8053
  441MOL0     H58195   6.684   7.025   3.483  0.8691 -1.0308  1.3094
  441MOL0     H58196   6.959   6.774   3.353  0.2231  2.9624 -0.5441
  441MOL0     H58197   7.185   6.695   3.276  0.1017  0.9303  1.1806
  441MOL0     H58198   7.871   6.630   1.819  1.6403 -2.8606  0.6051
  441MOL0     H58199   7.710   6.645   1.616  0.3591  0.9443 -1.2680
  441MOL0     H58200   7.557   6.689   1.319 -0.4095 -0.3877  0.4301
  441MOL0     H58201   7.364   6.698   1.164  0.9187  0.9822  0.0282
  441MOL0     H58202   7.149   6.497   0.970  0.0001 -0.2332 -1.3138
  441MOL0     H58203   7.285   6.407   1.033  0.9216  3.0933  0.4005
  441MOL0     H58204   7.308   6.280   0.879  1.9044  2.3300 -1.7118
  441MOL0     H58205   7.146   6.323   0.833 -0.7685  0.4019 -1.1147
  441MOL0     H58206   7.416   6.406   0.706  0.5630 -1.3581 -3.7789
  441MOL0     H58207   7.281   6.523   0.705 -2.6590 -0.0210  0.3558
  441MOL0     H58208   7.133   6.363   0.589 -1.2287  1.8641 -1.8059
  441MOL0     H58209   7.271   6.437   0.500  0.3751 -0.0558  0.0493
  441MOL0     H58210   7.431   6.068   0.452 -2.0863 -3.0726  1.8470
  441MOL0     H58211   7.531   6.410   0.904 -1.0571 -0.3356 -0.9268
  441MOL0     H58212   7.726   6.391   1.043 -0.9700 -1.0158 -0.9104
  442MOL0     O58213   0.574   1.690   5.818 -0.5162 -0.7545 -0.7846
  442MOL0     C58214   0.499   1.602   5.850 -0.4135  0.0545  0.7455
  442MOL0     O58215   0.523   1.494   5.938 -0.1274  0.6771 -0.4489
  442MOL0     C58216   0.657   1.492   5.985  0.3780 -0.4668 -0.0442
  442MOL0     C58217   0.744   1.412   5.917 -0.1394  1.1140 -0.0732
  442MOL0     C58218   0.875   1.409   5.971  0.8475  0.0516 -0.7111
  442MOL0     C58219   0.915   1.483   6.083 -0.7373 -1.1086  1.0916
  442MOL0     O58220   1.039   1.461   6.144  0.6844  0.0299  0.2963
  442MOL0     C58221   1.163   1.467   6.065  0.3252  0.3322  0.1439
  442MOL0     C58222   1.267   1.381   6.128  0.2370  1.2062  0.4422
  442MOL0     C58223   1.243   1.224   6.136 -0.7650 -0.6618  0.4218
  442MOL0     C58224   1.372   1.154   6.206  0.3649  0.3277 -0.3094
  442MOL0     C58225   1.362   1.005   6.208  0.1321  0.0236 -0.1561
  442MOL0     C58226   1.469   0.937   6.284 -0.2351 -0.0528  0.3174
  442MOL0     C58227   1.446   0.785   6.286 -0.5322  0.2388  0.4252
  442MOL0     C58228   1.490   0.728   6.420  0.1913  0.1636  0.3656
  442MOL0     N58229   1.400   0.754   6.535 -0.5338  0.7183  0.5431
  442MOL0     C58230   1.271   0.717   6.538  0.3825  0.1725  0.1428
  442MOL0     C58231   1.210   0.770   6.645 -0.6771  0.7573 -1.2317
  442MOL0     C58232   1.065   0.752   6.689 -0.9837  0.7661 -0.0031
  442MOL0     C58233   1.081   0.650   6.800  0.1865 -0.8931 -0.4053
  442MOL0     C58234   0.941   0.600   6.822 -1.1690  0.3729  0.0133
  442MOL0     C58235   0.910   0.561   6.957  0.7506  0.5362  0.2880
  442MOL0     O58236   1.020   0.482   7.018 -0.0041  0.6117  0.1709
  442MOL0     C58237   0.985   0.379   7.108 -0.7475 -0.6010  0.2163
  442MOL0     C58238   1.085   0.290   7.140 -0.0277  0.5521  0.0546
  442MOL0     C58239   1.075   0.191   7.248  0.8119  0.2128  0.8920
  442MOL0     C58240   0.957   0.194   7.326 -0.1919  0.4731  0.9130
  442MOL0     C58241   0.948   0.095   7.444  0.4024 -0.2652 -1.2822
  442MOL0     O58242   1.068   0.032   7.484 -0.1019  0.4206  0.3520
  442MOL0     C58243   1.097  -0.063   7.583  0.1823 -0.6535 -0.3778
  442MOL0     C58244   0.996  -0.119   7.664 -0.1075 -0.3027  0.1218
  442MOL0     C58245   1.033  -0.195   7.770  1.0195  0.0390  0.1865
  442MOL0     C58246   1.170  -0.214   7.799  0.4742 -0.4850  0.8587
  442MOL0     O58247   1.207  -0.288   7.908 -0.2908 -0.2034 -0.7770
  442MOL0     C58248   1.304  -0.388   7.899 -0.5573 -0.2644  0.0152
  442MOL0     C58249   1.297  -0.463   8.034  0.0781  1.0442  0.1606
  442MOL0     C58250   1.362  -0.598   8.034 -0.4031  0.0225  0.1378
  442MOL0     C58251   1.327  -0.660   8.170 -0.2545  0.1526  1.0253
  442MOL0     C58252   1.360  -0.809   8.175 -0.2893 -0.3493 -0.8846
  442MOL0     C58253   1.507  -0.838   8.180 -0.6755 -0.3780 -0.4563
  442MOL0     C58254   1.541  -0.982   8.211 -0.0368  0.4851  0.4519
  442MOL0     C58255   1.526  -1.085   8.098 -0.6883 -0.1808  0.3175
  442MOL0    Cl58256   1.534  -1.250   8.181  0.1429  0.0068 -0.1556
  442MOL0     C58257   1.268  -0.150   7.723 -0.8477 -0.1588  0.0826
  442MOL0     C58258   1.233  -0.081   7.604 -0.1641 -0.8607  1.0633
  442MOL0     O58259   0.839   0.089   7.503  0.6546  0.9142 -0.4383
  442MOL0     C58260   0.851   0.286   7.290  0.1961  0.4398 -0.0868
  442MOL0     C58261   0.866   0.373   7.175 -0.5639  0.2038 -0.0512
  442MOL0     N58262   1.308   0.850   6.707  0.0609  0.0260  0.5292
  442MOL0     N58263   1.418   0.843   6.635 -0.1050  0.4685 -0.8391
  442MOL0     C58264   0.825   1.568   6.145 -0.0571  0.2702  0.2553
  442MOL0     C58265   0.698   1.565   6.098 -0.0349  0.0245  0.1998
  442MOL0     C58266   0.368   1.605   5.797  0.3075  0.0896  0.1816
  442MOL0     C58267   0.310   1.720   5.743  0.4818  0.5301 -0.1351
  442MOL0     C58268   0.189   1.713   5.677  0.6158 -0.4313 -0.3914
  442MOL0     C58269   0.113   1.589   5.657 -0.0389 -0.2477 -0.5860
  442MOL0     O58270  -0.013   1.579   5.612 -0.4823 -0.4055  0.7723
  442MOL0     C58271  -0.058   1.673   5.509 -0.6590 -0.4176 -0.1478
  442MOL0     C58272  -0.174   1.607   5.427 -0.6284 -0.2264  0.2698
  442MOL0     C58273  -0.262   1.714   5.379  0.2507 -0.8636 -0.2554
  442MOL0     C58274  -0.390   1.646   5.312 -0.4397 -0.0962 -0.9749
  442MOL0     C58275  -0.498   1.741   5.282  0.2804 -0.8337 -0.0131
  442MOL0     C58276  -0.564   1.834   5.238  0.2679  0.6734  0.6890
  442MOL0     C58277   0.167   1.473   5.719  1.0044 -0.1903  0.8341
  442MOL0     C58278   0.288   1.481   5.782 -0.9095 -0.5432  1.3084
  442MOL0     H58279   0.711   1.337   5.846 -2.9481 -1.3298  3.4271
  442MOL0     H58280   0.951   1.337   5.943  1.2656  0.1134  0.2208
  442MOL0     H58281   1.201   1.569   6.058  1.0133  0.0903  0.3132
  442MOL0     H58282   1.142   1.439   5.961 -2.2251 -0.4998  0.7917
  442MOL0     H58283   1.288   1.413   6.230  0.5600 -1.6196  1.3356
  442MOL0     H58284   1.363   1.381   6.075  0.9177 -0.1469  1.6041
  442MOL0     H58285   1.210   1.173   6.045 -0.9944  0.0257  0.1085
  442MOL0     H58286   1.164   1.214   6.211 -0.5607 -1.5509  0.5302
  442MOL0     H58287   1.454   1.178   6.137 -0.5967  0.1754 -1.5210
  442MOL0     H58288   1.376   1.187   6.310  0.4660 -0.2442 -0.1310
  442MOL0     H58289   1.363   0.975   6.102  0.4342  1.9829 -0.7613
  442MOL0     H58290   1.263   0.974   6.242  0.6026 -3.5432 -1.6410
  442MOL0     H58291   1.485   0.989   6.379  0.0324  1.3729 -0.4731
  442MOL0     H58292   1.564   0.962   6.236 -0.1979 -1.4705 -0.4005
  442MOL0     H58293   1.337   0.775   6.281 -0.6396  1.3929  0.1312
  442MOL0     H58294   1.485   0.735   6.197  1.2107  0.9909  0.7268
  442MOL0     H58295   1.596   0.741   6.443  0.8609 -0.6122 -1.9822
  442MOL0     H58296   1.484   0.619   6.410  1.7045 -0.2834  3.2501
  442MOL0     H58297   1.203   0.680   6.462 -1.2986  2.2824  0.5133
  442MOL0     H58298   0.998   0.714   6.611  1.1707 -3.5593 -0.0661
  442MOL0     H58299   1.025   0.848   6.722  1.2206  0.9595  2.5165
  442MOL0     H58300   1.118   0.706   6.886  0.6864 -1.6125 -0.1402
  442MOL0     H58301   1.148   0.565   6.780 -0.8709 -1.8122 -0.1484
  442MOL0     H58302   0.869   0.675   6.791 -0.3279  1.6758  1.0873
  442MOL0     H58303   0.924   0.504   6.773 -0.4457  0.4732 -0.4499
  442MOL0     H58304   0.829   0.491   6.936  0.0951  1.8154 -1.8408
  442MOL0     H58305   0.871   0.633   7.029  0.4843 -0.5513  1.2538
  442MOL0     H58306   1.169   0.278   7.073 -2.3880 -1.6583 -2.7875
  442MOL0     H58307   1.157   0.125   7.271  1.1686 -2.1318 -5.1566
  442MOL0     H58308   0.892  -0.103   7.636 -0.9049 -0.8725  2.5317
  442MOL0     H58309   0.957  -0.234   7.836  1.2803  1.2708  1.2550
  442MOL0     H58310   1.404  -0.351   7.873 -0.8495  0.0502 -0.7017
  442MOL0     H58311   1.279  -0.459   7.820 -1.5407 -2.1768  1.9279
  442MOL0     H58312   1.190  -0.477   8.053  0.5425 -2.3946  0.8505
  442MOL0     H58313   1.328  -0.397   8.116  1.2706  0.2590  0.3623
  442MOL0     H58314   1.471  -0.590   8.026 -0.3261  2.9377  2.4817
  442MOL0     H58315   1.317  -0.655   7.952 -0.3597 -0.2120  0.2736
  442MOL0     H58316   1.380  -0.608   8.250 -0.8442 -0.3675  1.7613
  442MOL0     H58317   1.221  -0.640   8.188 -0.6434  0.3369 -1.1282
  442MOL0     H58318   1.323  -0.856   8.084 -1.0266 -1.0653 -0.2330
  442MOL0     H58319   1.309  -0.852   8.262  2.9062  0.4180  1.5558
  442MOL0     H58320   1.551  -0.777   8.259  3.1234 -2.2958 -0.8742
  442MOL0     H58321   1.558  -0.811   8.087 -1.2351  0.9516 -0.4028
  442MOL0     H58322   1.640  -1.002   8.255 -0.1883 -0.4811  0.3754
  442MOL0     H58323   1.471  -1.013   8.289  0.5667  0.7416  1.1059
  442MOL0     H58324   1.602  -1.084   8.019 -2.3766  0.4515 -1.4072
  442MOL0     H58325   1.431  -1.083   8.044  0.5861  0.2271 -2.0592
  442MOL0     H58326   1.371  -0.162   7.755 -0.3222 -0.3655 -1.5760
  442MOL0     H58327   1.306  -0.043   7.533 -0.7951 -4.0955 -1.5775
  442MOL0     H58328   0.764   0.267   7.352  0.9245 -1.0135  0.5364
  442MOL0     H58329   0.777   0.433   7.159 -2.4585 -2.3021  0.4186
  442MOL0     H58330   0.856   1.618   6.236 -1.3743 -0.9190  1.4068
  442MOL0     H58331   0.622   1.634   6.136 -0.5645 -0.6814  0.4418
  442MOL0     H58332   0.377   1.804   5.726  1.1200  0.1566  0.5084
  442MOL0     H58333   0.152   1.797   5.618  0.0891  0.6461  1.3902
  442MOL0     H58334   0.016   1.703   5.434 -1.8971 -0.5115 -1.4341
  442MOL0     H58335  -0.089   1.757   5.572 -1.8447 -0.9734  0.0287
  442MOL0     H58336  -0.132   1.553   5.342 -2.4057  1.0413 -1.5164
  442MOL0     H58337  -0.234   1.540   5.488 -1.5523 -1.4118 -1.8416
  442MOL0     H58338  -0.209   1.774   5.305 -0.9438  1.2962  0.5567
  442MOL0     H58339  -0.301   1.781   5.456 -2.0072 -1.5648 -0.7110
  442MOL0     H58340  -0.366   1.594   5.219 -2.2540 -0.4464 -1.2861
  442MOL0     H58341  -0.436   1.568   5.374 -4.5936  1.0763 -2.2504
  442MOL0     H58342  -0.622   1.905   5.182  2.9948  1.2986 -1.5529
  442MOL0     H58343   0.115   1.378   5.723  0.8135 -0.0783  1.0987
  442MOL0     H58344   0.344   1.394   5.814  1.2177  0.5542  0.7798
  443MOL0     O58345   8.662  10.078   4.085  0.4613 -0.2320  0.1356
  443MOL0     C58346   8.782  10.052   4.103 -0.5546 -0.3385  1.3886
  443MOL0     O58347   8.842   9.991   4.212 -0.4807 -0.1628  0.0341
  443MOL0     C58348   8.773   9.990   4.332 -1.0821 -0.4219  0.3226
  443MOL0     C58349   8.846   9.941   4.436 -0.3257  0.1830  0.1917
  443MOL0     C58350   8.797   9.910   4.562 -0.0493 -0.9112  0.6355
  443MOL0     C58351   8.663   9.930   4.583 -0.1052  0.3535  0.4482
  443MOL0     O58352   8.593   9.908   4.699 -0.4123 -0.2649 -0.5007
  443MOL0     C58353   8.674   9.906   4.818  0.3155  0.1578 -0.1450
  443MOL0     C58354   8.761  10.031   4.846 -0.7309  0.2098  0.5234
  443MOL0     C58355   8.689  10.162   4.864  0.3662  1.0411  1.5867
  443MOL0     C58356   8.769  10.268   4.943 -0.4153 -0.3240 -0.3071
  443MOL0     C58357   8.695  10.406   4.932 -0.0245 -0.1979 -0.2358
  443MOL0     C58358   8.779  10.497   5.027 -0.1440 -0.3628  0.4260
  443MOL0     C58359   8.726  10.646   5.034  0.1082 -0.1165  0.1717
  443MOL0     C58360   8.842  10.742   5.078 -0.6049 -0.3074  0.2554
  443MOL0     N58361   8.797  10.875   5.058  0.2666 -0.6058  0.7020
  443MOL0     C58362   8.795  10.943   4.938 -0.6145  0.1203 -0.3573
  443MOL0     C58363   8.764  11.077   4.963  0.0166 -0.1070  0.5776
  443MOL0     C58364   8.752  11.192   4.866  0.7913  0.2010 -0.0701
  443MOL0     C58365   8.845  11.317   4.895  0.0255 -0.0921 -0.2682
  443MOL0     C58366   8.823  11.386   5.034 -0.9418 -0.1892  0.3764
  443MOL0     C58367   8.892  11.525   5.042  0.1486 -0.4050 -0.4249
  443MOL0     O58368   8.821  11.628   4.972  1.0475  0.0644 -0.3976
  443MOL0     C58369   8.707  11.691   5.026  1.1666 -0.2345 -0.5356
  443MOL0     C58370   8.655  11.698   5.156  0.3525 -0.4379 -0.0994
  443MOL0     C58371   8.541  11.774   5.184 -0.3531 -0.5776 -0.3113
  443MOL0     C58372   8.477  11.850   5.083 -0.0967 -0.9883 -0.1800
  443MOL0     C58373   8.351  11.930   5.116  0.0624  1.1144 -0.0120
  443MOL0     O58374   8.315  11.935   5.249  0.7784 -0.7446 -0.3188
  443MOL0     C58375   8.198  12.003   5.297  0.2412  0.1760 -0.2789
  443MOL0     C58376   8.169  11.980   5.433  0.9822  0.2614 -0.4762
  443MOL0     C58377   8.038  12.017   5.484  0.1154 -0.0714  0.2569
  443MOL0     C58378   7.946  12.095   5.411  0.3539 -0.9214 -0.3600
  443MOL0     O58379   7.819  12.126   5.451 -0.0619  0.2644  0.0776
  443MOL0     C58380   7.789  12.182   5.576 -0.2094 -0.9243 -0.1191
  443MOL0     C58381   7.643  12.233   5.581  0.3095 -0.2616 -0.2490
  443MOL0     C58382   7.620  12.271   5.734  0.0282  0.0889  0.1557
  443MOL0     C58383   7.502  12.368   5.759  0.5347  0.2477 -0.2651
  443MOL0     C58384   7.477  12.391   5.909  0.5711 -0.0194 -0.5923
  443MOL0     C58385   7.452  12.262   5.982  1.0553  0.0168  0.1053
  443MOL0     C58386   7.387  12.298   6.122 -0.1027 -1.2523  0.2495
  443MOL0     C58387   7.377  12.168   6.205  0.7571 -1.0878 -0.1818
  443MOL0    Cl58388   7.257  12.054   6.126  0.1672 -0.0262 -0.3761
  443MOL0     C58389   7.983  12.114   5.275 -0.1682 -0.1290 -0.0167
  443MOL0     C58390   8.099  12.071   5.221  0.4366 -0.0266 -0.5687
  443MOL0     O58391   8.284  11.976   5.022 -0.5869 -0.2948 -0.2250
  443MOL0     C58392   8.540  11.846   4.958 -0.0178 -0.6176  0.5166
  443MOL0     C58393   8.642  11.757   4.924 -0.4181 -0.6726  0.2802
  443MOL0     N58394   8.744  11.079   5.098 -0.4186 -0.1866 -0.6095
  443MOL0     N58395   8.768  10.966   5.158 -0.4965  0.7605  0.2135
  443MOL0     C58396   8.578   9.971   4.475  0.2366  0.1116 -1.0086
  443MOL0     C58397   8.633  10.012   4.354 -0.3506 -0.8080  0.7600
  443MOL0     C58398   8.873  10.075   3.989  0.0710 -0.2807 -0.8529
  443MOL0     C58399   9.006  10.032   4.010 -0.0067  0.1825  0.2945
  443MOL0     C58400   9.093  10.057   3.904  0.0977 -0.4518  0.0853
  443MOL0     C58401   9.046  10.113   3.783 -1.0789 -0.8899 -0.8340
  443MOL0     O58402   9.146  10.128   3.691  0.2979 -0.4625 -0.0035
  443MOL0     C58403   9.135  10.035   3.587  0.0920  0.5300  0.4811
  443MOL0     C58404   9.264  10.020   3.507  0.6661  0.3280 -0.3442
  443MOL0     C58405   9.243   9.911   3.407  0.5028  0.9817 -0.5029
  443MOL0     C58406   9.380   9.872   3.350  0.2880 -0.1295  0.3962
  443MOL0     C58407   9.406   9.951   3.226  0.1022 -0.5850 -0.0407
  443MOL0     C58408   9.430  10.014   3.129 -0.5196 -0.1249 -0.1169
  443MOL0     C58409   8.917  10.153   3.770  0.4583 -0.3483 -1.0248
  443MOL0     C58410   8.830  10.139   3.871  0.9208  1.1949 -0.3318
  443MOL0     H58411   8.950   9.917   4.414  0.1576  2.1578  0.1882
  443MOL0     H58412   8.867   9.864   4.631  3.2583  2.4940 -0.1428
  443MOL0     H58413   8.730   9.813   4.816 -0.0211 -0.1150 -3.4442
  443MOL0     H58414   8.622   9.901   4.914  1.5282  3.1284  0.8101
  443MOL0     H58415   8.839  10.040   4.769 -1.1792 -3.3447 -0.5585
  443MOL0     H58416   8.811   9.999   4.938 -1.7950 -0.6847  0.8117
  443MOL0     H58417   8.592  10.144   4.912  0.1279  2.1863  1.5730
  443MOL0     H58418   8.663  10.175   4.758 -0.1556 -5.3601  0.5489
  443MOL0     H58419   8.777  10.240   5.049 -0.9159  0.1385 -0.1416
  443MOL0     H58420   8.865  10.276   4.892 -0.4851 -0.6874 -0.4943
  443MOL0     H58421   8.592  10.396   4.966  0.3679 -0.0783  1.0405
  443MOL0     H58422   8.700  10.440   4.828  1.7052 -3.4747 -1.3608
  443MOL0     H58423   8.876  10.488   4.978  0.1822 -2.5665  1.3534
  443MOL0     H58424   8.781  10.459   5.130  0.8239 -0.5804  0.3283
  443MOL0     H58425   8.707  10.665   4.928  0.8446 -1.3177 -0.2001
  443MOL0     H58426   8.632  10.677   5.080 -1.8652  1.7761 -4.5321
  443MOL0     H58427   8.933  10.716   5.024 -2.0761  0.5581 -2.8510
  443MOL0     H58428   8.852  10.722   5.186  2.0341  1.0515  0.3368
  443MOL0     H58429   8.818  10.897   4.842  3.1300 -1.5176  1.1154
  443MOL0     H58430   8.647  11.222   4.858  0.9897  0.5120 -1.9808
  443MOL0     H58431   8.787  11.144   4.774 -0.4526 -2.2025  0.6422
  443MOL0     H58432   8.809  11.384   4.816 -3.0426  2.6770  3.1365
  443MOL0     H58433   8.951  11.292   4.895 -0.3401 -2.1945 -3.2520
  443MOL0     H58434   8.715  11.394   5.050 -0.4491  4.2669  3.6842
  443MOL0     H58435   8.869  11.337   5.120 -0.4285 -0.2042  0.0930
  443MOL0     H58436   8.997  11.509   5.018  0.3882  0.2727  0.1392
  443MOL0     H58437   8.893  11.550   5.149  3.0811 -3.1843  0.3511
  443MOL0     H58438   8.704  11.639   5.232 -0.8259  2.4233  3.1199
  443MOL0     H58439   8.520  11.786   5.289  2.6655 -1.3846  0.4786
  443MOL0     H58440   8.237  11.919   5.491  1.4650  3.0086  2.0750
  443MOL0     H58441   8.010  11.972   5.578  4.2163 -2.2932  0.6533
  443MOL0     H58442   7.858  12.265   5.594 -2.1711  0.7388  0.1043
  443MOL0     H58443   7.790  12.107   5.656 -1.9190  0.2701  1.0998
  443MOL0     H58444   7.572  12.161   5.540 -0.1056  1.0714 -2.0056
  443MOL0     H58445   7.632  12.317   5.512 -1.6275  0.2988  0.6765
  443MOL0     H58446   7.703  12.317   5.789 -0.2872  2.1292 -0.9633
  443MOL0     H58447   7.607  12.176   5.787 -0.7412 -0.5576 -1.1314
  443MOL0     H58448   7.522  12.462   5.708  0.0685  0.1747 -0.5886
  443MOL0     H58449   7.414  12.321   5.714 -0.3119 -1.1087  2.5666
  443MOL0     H58450   7.392  12.459   5.921 -1.2168 -2.0828 -1.0382
  443MOL0     H58451   7.564  12.445   5.947 -1.1911  2.1330  0.6058
  443MOL0     H58452   7.546  12.206   5.996 -0.5832 -3.0053  0.0092
  443MOL0     H58453   7.386  12.206   5.914  0.1829  0.4471  0.5872
  443MOL0     H58454   7.433  12.383   6.174 -3.0915  0.0354  1.0260
  443MOL0     H58455   7.287  12.339   6.101  0.5594  0.6046  0.5419
  443MOL0     H58456   7.354  12.193   6.309  0.9502 -1.6518 -0.0018
  443MOL0     H58457   7.470  12.111   6.219  0.9282 -0.6959  0.3393
  443MOL0     H58458   7.904  12.163   5.218 -0.1596 -3.2213 -2.9840
  443MOL0     H58459   8.114  12.088   5.115 -0.7680  1.9734 -0.4602
  443MOL0     H58460   8.489  11.896   4.876 -0.7246 -2.2862 -0.1040
  443MOL0     H58461   8.687  11.750   4.825  1.9821  2.2063  1.0281
  443MOL0     H58462   8.471   9.984   4.490  0.3871  1.7095 -1.1206
  443MOL0     H58463   8.559  10.043   4.281  0.0044  0.7397  1.0082
  443MOL0     H58464   9.049   9.982   4.096  1.6563 -3.0979 -2.1916
  443MOL0     H58465   9.190  10.010   3.914 -0.3549 -1.1300  1.5634
  443MOL0     H58466   9.060  10.072   3.517  1.0372  0.3326 -0.6717
  443MOL0     H58467   9.103   9.938   3.626 -2.1900  1.3173  0.7068
  443MOL0     H58468   9.282  10.111   3.449  0.7792  0.2592 -0.4183
  443MOL0     H58469   9.346  10.000   3.577 -2.6628 -0.9235  3.5548
  443MOL0     H58470   9.170   9.935   3.329  1.3802  3.0732 -0.7310
  443MOL0     H58471   9.218   9.816   3.457  3.3465 -1.0018 -2.5133
  443MOL0     H58472   9.452   9.898   3.429  2.2399 -1.1093 -0.9995
  443MOL0     H58473   9.393   9.770   3.313  2.3561  0.5106 -0.8171
  443MOL0     H58474   9.433  10.058   3.031 -1.6990  0.0510 -0.0908
  443MOL0     H58475   8.874  10.196   3.680  0.8632  0.4179 -0.8615
  443MOL0     H58476   8.729  10.176   3.858  0.4427  0.4444  0.9775
  444MOL0     O58477  10.197   0.444   3.028  0.0403 -0.6366 -0.3976
  444MOL0     C58478  10.280   0.367   3.067 -0.7223 -0.6638  1.1377
  444MOL0     O58479  10.343   0.281   2.992 -0.5344  0.4577  0.0907
  444MOL0     C58480  10.342   0.290   2.858  0.4469 -0.6843 -0.2055
  444MOL0     C58481  10.375   0.185   2.776 -0.3239 -0.1415 -0.2141
  444MOL0     C58482  10.372   0.190   2.636 -1.0372  0.7263 -0.0983
  444MOL0     C58483  10.334   0.309   2.572 -0.1831 -0.2696  0.1511
  444MOL0     O58484  10.324   0.336   2.441 -0.5267  0.8424  0.3871
  444MOL0     C58485  10.400   0.255   2.350  0.9027 -0.2116  0.1098
  444MOL0     C58486  10.435   0.335   2.229  0.4647  0.0824 -0.4154
  444MOL0     C58487  10.339   0.334   2.124  0.2195 -0.6598 -0.8032
  444MOL0     C58488  10.382   0.408   2.000  0.3612 -0.0845 -0.5783
  444MOL0     C58489  10.299   0.531   1.961  0.2680 -0.6573  0.5314
  444MOL0     C58490  10.357   0.587   1.833  0.0747  0.3079  0.0179
  444MOL0     C58491  10.302   0.702   1.767 -0.4557 -0.3898  0.2323
  444MOL0     C58492  10.318   0.823   1.856  0.6779 -0.7708 -0.0979
  444MOL0     N58493  10.261   0.936   1.782 -0.2142 -0.9255 -0.7485
  444MOL0     C58494  10.325   1.035   1.704 -0.0806  0.5052  0.7248
  444MOL0     C58495  10.233   1.131   1.689  0.8499 -0.6287  0.3778
  444MOL0     C58496  10.268   1.264   1.623  0.5709  0.3326  1.1145
  444MOL0     C58497  10.188   1.384   1.655  0.1621  0.0512  0.2709
  444MOL0     C58498  10.208   1.493   1.552 -0.9121  0.2763  0.4153
  444MOL0     C58499  10.348   1.555   1.554 -0.0975 -0.3852 -0.1559
  444MOL0     O58500  10.374   1.663   1.460 -0.4006 -0.5596 -0.0289
  444MOL0     C58501  10.408   1.650   1.325  0.4255  0.7066 -0.3200
  444MOL0     C58502  10.449   1.532   1.269 -0.8691  0.1782  0.0189
  444MOL0     C58503  10.477   1.521   1.140 -0.7474  0.0955  0.5171
  444MOL0     C58504  10.451   1.624   1.050 -1.2057  0.0102 -0.4590
  444MOL0     C58505  10.498   1.629   0.908  0.2709  0.1493 -0.4161
  444MOL0     O58506  10.490   1.742   0.838  1.4197  0.0201 -0.5189
  444MOL0     C58507  10.522   1.750   0.707 -0.5209  0.0717 -0.5144
  444MOL0     C58508  10.585   1.664   0.604  0.5794 -0.4076 -0.7594
  444MOL0     C58509  10.595   1.702   0.471 -1.3571  0.8211 -0.3745
  444MOL0     C58510  10.563   1.835   0.435  0.0743 -0.8199  0.0968
  444MOL0     O58511  10.613   1.865   0.309 -0.3985  0.3168  0.7562
  444MOL0     C58512  10.521   1.952   0.234  1.1132  0.2520 -0.4692
  444MOL0     C58513  10.546   1.925   0.096  0.8931  0.2764 -0.3453
  444MOL0     C58514  10.677   1.978   0.045 -0.2330  0.5309  0.2594
  444MOL0     C58515  10.747   1.904  -0.071 -0.6564  0.2573 -0.7765
  444MOL0     C58516  10.856   1.983  -0.141 -0.1425 -0.0956  0.2396
  444MOL0     C58517  10.936   1.915  -0.262  0.0587  0.0865  0.5799
  444MOL0     C58518  11.048   1.831  -0.218  0.4666  0.6085 -0.2510
  444MOL0     C58519  11.153   1.789  -0.326  0.3027 -0.7617  0.8533
  444MOL0    Cl58520  11.074   1.654  -0.433 -0.1372  0.1078  0.6049
  444MOL0     C58521  10.505   1.918   0.537  0.1957  0.3987  0.2632
  444MOL0     C58522  10.480   1.873   0.667  0.2128 -0.1767  0.6980
  444MOL0     O58523  10.550   1.520   0.874  0.8982 -0.3997  0.7590
  444MOL0     C58524  10.394   1.738   1.104  0.5042 -0.0329  0.2243
  444MOL0     C58525  10.378   1.750   1.237 -0.0759  0.1243 -0.2299
  444MOL0     N58526  10.109   1.088   1.735  0.7697 -0.3009 -0.1519
  444MOL0     N58527  10.130   0.960   1.784  0.3007 -0.0480  0.6555
  444MOL0     C58528  10.319   0.419   2.649  0.7047 -1.1174 -0.1337
  444MOL0     C58529  10.325   0.411   2.788  0.8956  0.0692  0.7757
  444MOL0     C58530  10.305   0.372   3.214 -0.5232  1.4007 -0.2611
  444MOL0     C58531  10.228   0.453   3.296 -0.3268 -0.3724 -0.7629
  444MOL0     C58532  10.243   0.457   3.436  0.0089 -1.0389 -0.9654
  444MOL0     C58533  10.325   0.371   3.502  0.3137  0.2105  0.1186
  444MOL0     O58534  10.347   0.369   3.642 -1.0176  0.1875 -0.6726
  444MOL0     C58535  10.291   0.483   3.719 -0.2717  0.1569  0.4993
  444MOL0     C58536  10.335   0.488   3.868 -0.1069 -0.7869  0.6299
  444MOL0     C58537  10.480   0.496   3.883  0.0120 -0.5953 -0.1570
  444MOL0     C58538  10.522   0.507   4.033  0.4339  0.6451 -0.7081
  444MOL0     C58539  10.499   0.646   4.077 -0.2429  0.2602 -0.0354
  444MOL0     C58540  10.481   0.765   4.100 -0.8255 -0.3314  0.3240
  444MOL0     C58541  10.396   0.280   3.429  0.0881  0.3094  1.2078
  444MOL0     C58542  10.397   0.286   3.285 -0.4579  0.5572 -0.1914
  444MOL0     H58543  10.413   0.099   2.830 -2.4073  0.0566  1.7041
  444MOL0     H58544  10.405   0.108   2.574 -2.6313 -1.4125  1.7341
  444MOL0     H58545  10.345   0.164   2.326 -1.1339  1.2498 -1.0456
  444MOL0     H58546  10.491   0.232   2.408 -1.2661  0.3431  4.1008
  444MOL0     H58547  10.525   0.296   2.180  0.3160  1.9992 -2.3537
  444MOL0     H58548  10.453   0.439   2.258  0.9785 -0.4602  1.3199
  444MOL0     H58549  10.248   0.384   2.160  0.3340 -2.0439  1.6319
  444MOL0     H58550  10.313   0.229   2.107 -0.3204 -0.3095 -2.3829
  444MOL0     H58551  10.488   0.435   2.013  0.7392 -0.7260 -2.0238
  444MOL0     H58552  10.375   0.331   1.922 -0.9068 -0.8881  0.2909
  444MOL0     H58553  10.309   0.608   2.038 -0.2172  1.7923 -1.7301
  444MOL0     H58554  10.194   0.506   1.939  0.1412  0.4680 -0.2339
  444MOL0     H58555  10.360   0.510   1.755  1.7906 -0.3529  0.6859
  444MOL0     H58556  10.461   0.604   1.863 -0.7205  3.3203  1.4287
  444MOL0     H58557  10.355   0.713   1.672 -2.7791 -1.3983 -1.2871
  444MOL0     H58558  10.197   0.678   1.746 -1.1029  2.1992  0.0984
  444MOL0     H58559  10.423   0.836   1.884  0.3877  0.4343  0.4682
  444MOL0     H58560  10.272   0.810   1.955  0.2046 -0.7993 -0.3186
  444MOL0     H58561  10.431   1.041   1.679  0.0450  1.9255  1.4930
  444MOL0     H58562  10.249   1.252   1.515  1.0547 -0.2409  1.0875
  444MOL0     H58563  10.373   1.282   1.646  1.7385 -0.7804 -2.5439
  444MOL0     H58564  10.220   1.411   1.756 -1.9938 -0.9839  1.3050
  444MOL0     H58565  10.083   1.354   1.656  1.0633 -3.5356 -0.6707
  444MOL0     H58566  10.180   1.468   1.449 -1.6855  5.8933 -1.0514
  444MOL0     H58567  10.132   1.571   1.566 -3.2750 -1.5356 -1.3889
  444MOL0     H58568  10.413   1.475   1.519  1.5687  1.2166 -0.8754
  444MOL0     H58569  10.384   1.580   1.654  0.4729  1.9556 -0.8786
  444MOL0     H58570  10.477   1.450   1.335  4.1476  0.3268 -1.4898
  444MOL0     H58571  10.527   1.429   1.110  1.6391  1.2917  0.5672
  444MOL0     H58572  10.622   1.572   0.648 -1.7770  0.2677  3.0907
  444MOL0     H58573  10.652   1.632   0.411  0.9004  2.8088 -0.7267
  444MOL0     H58574  10.535   2.059   0.256 -0.0062  0.2173  0.5082
  444MOL0     H58575  10.416   1.925   0.248  1.0035 -0.4943 -2.4846
  444MOL0     H58576  10.473   1.971   0.030 -3.3902 -3.1795  1.4344
  444MOL0     H58577  10.549   1.819   0.070  0.3257  0.2431 -0.2995
  444MOL0     H58578  10.748   1.982   0.128 -3.1047 -0.7538  2.9664
  444MOL0     H58579  10.656   2.080   0.011  0.8087  0.4256 -0.7858
  444MOL0     H58580  10.777   1.804  -0.040  0.8912  1.2021  1.0506
  444MOL0     H58581  10.673   1.871  -0.144 -1.5232 -0.0316  0.1966
  444MOL0     H58582  10.917   2.023  -0.059 -1.9146 -0.1821  1.6664
  444MOL0     H58583  10.795   2.065  -0.179  1.5245 -0.0586 -2.6540
  444MOL0     H58584  10.985   1.992  -0.323 -0.8388  0.0093 -0.2613
  444MOL0     H58585  10.870   1.859  -0.329 -0.6447  2.7639 -1.1123
  444MOL0     H58586  11.098   1.899  -0.147 -0.4020 -1.3424  2.3975
  444MOL0     H58587  11.012   1.736  -0.176  1.1684 -0.4314 -1.9044
  444MOL0     H58588  11.242   1.753  -0.275  1.4225  1.1927  0.3525
  444MOL0     H58589  11.185   1.877  -0.382 -0.8586 -0.8951 -0.0829
  444MOL0     H58590  10.487   2.018   0.500  2.7444  0.0705 -2.1867
  444MOL0     H58591  10.437   1.937   0.743  0.8793 -1.8991  2.6091
  444MOL0     H58592  10.380   1.830   1.048  0.5750  0.6612  1.3153
  444MOL0     H58593  10.340   1.843   1.278 -0.4332  0.0853 -0.4754
  444MOL0     H58594  10.311   0.513   2.597 -0.0164 -2.6457 -3.0158
  444MOL0     H58595  10.320   0.500   2.849  0.0029 -0.5276  1.6005
  444MOL0     H58596  10.156   0.522   3.252  1.0731  2.1924  0.7131
  444MOL0     H58597  10.191   0.539   3.484 -1.8372  0.2305 -4.7186
  444MOL0     H58598  10.183   0.467   3.712  0.0923 -4.2603  2.2399
  444MOL0     H58599  10.322   0.578   3.673  0.8843  0.2529  1.4364
  444MOL0     H58600  10.291   0.577   3.915  1.3241 -0.6031  1.6792
  444MOL0     H58601  10.294   0.395   3.908 -1.5231 -0.5330 -0.1372
  444MOL0     H58602  10.517   0.584   3.830  1.6949 -0.8476  0.5449
  444MOL0     H58603  10.523   0.408   3.833  1.7214 -0.3839  0.8483
  444MOL0     H58604  10.468   0.443   4.103 -0.2769  1.9758  0.0137
  444MOL0     H58605  10.626   0.473   4.041  0.4961  0.6393 -1.5286
  444MOL0     H58606  10.475   0.871   4.118  1.0393  0.0004 -0.6921
  444MOL0     H58607  10.468   0.207   3.466 -0.5476 -2.3109 -2.1429
  444MOL0     H58608  10.449   0.206   3.233  1.8563  0.0592  2.6133
  445MOL0     O58609   1.284   6.490   8.085 -0.3562 -0.2497 -0.6001
  445MOL0     C58610   1.380   6.417   8.067 -0.2826 -0.5449 -0.7574
  445MOL0     O58611   1.439   6.335   8.150 -0.1388  0.7365 -0.6603
  445MOL0     C58612   1.379   6.313   8.277  0.2907 -1.2227 -0.6868
  445MOL0     C58613   1.414   6.398   8.381 -0.0353 -0.0091 -0.0957
  445MOL0     C58614   1.333   6.399   8.491  0.0386 -0.6985  0.6371
  445MOL0     C58615   1.216   6.329   8.497  0.0896  0.2712  0.4362
  445MOL0     O58616   1.125   6.341   8.599  0.1727  0.1616  0.5134
  445MOL0     C58617   1.159   6.402   8.724 -0.1072  0.3545 -0.4419
  445MOL0     C58618   1.053   6.357   8.826 -0.8061 -0.9645  0.3863
  445MOL0     C58619   0.922   6.435   8.792 -0.4305  0.4825  0.4171
  445MOL0     C58620   0.798   6.361   8.831 -0.3345 -0.1809 -0.1382
  445MOL0     C58621   0.673   6.448   8.819 -0.9882  0.8984 -0.1253
  445MOL0     C58622   0.646   6.483   8.670  0.4895  0.4022 -0.4808
  445MOL0     C58623   0.543   6.596   8.675 -0.1808 -0.1567  0.0782
  445MOL0     C58624   0.398   6.564   8.699 -0.8995 -0.1970 -0.6378
  445MOL0     N58625   0.337   6.451   8.639 -0.2222 -0.6968  0.6292
  445MOL0     C58626   0.260   6.450   8.521 -0.4611 -0.9215  0.3847
  445MOL0     C58627   0.227   6.313   8.497 -0.0233  0.0255 -0.4028
  445MOL0     C58628   0.153   6.249   8.381  0.7595 -0.2781 -0.2747
  445MOL0     C58629   0.007   6.304   8.353  1.1317 -0.7437 -0.1923
  445MOL0     C58630  -0.045   6.283   8.210  0.3175 -1.2411 -0.2375
  445MOL0     C58631  -0.193   6.324   8.188  0.1952  0.2778 -0.1352
  445MOL0     O58632  -0.275   6.237   8.257 -0.0286  0.7751  0.2824
  445MOL0     C58633  -0.401   6.283   8.285  0.1675 -0.2579  0.2143
  445MOL0     C58634  -0.462   6.383   8.205  0.8875 -0.9216 -0.0449
  445MOL0     C58635  -0.579   6.448   8.246 -0.5263 -0.0195  0.7214
  445MOL0     C58636  -0.647   6.407   8.366 -0.6536 -0.1493  0.9188
  445MOL0     C58637  -0.776   6.447   8.410  0.6489 -1.0275  0.7691
  445MOL0     O58638  -0.844   6.392   8.521 -0.1920 -0.1616 -0.2755
  445MOL0     C58639  -0.964   6.446   8.561 -0.0746  0.4425 -0.4569
  445MOL0     C58640  -1.057   6.361   8.612 -0.5652  0.0504 -0.2447
  445MOL0     C58641  -1.175   6.409   8.672  0.1583  0.3787  0.0308
  445MOL0     C58642  -1.198   6.548   8.677 -0.8714  0.5604  0.3644
  445MOL0     O58643  -1.318   6.607   8.715  0.0512 -0.6655 -0.4286
  445MOL0     C58644  -1.435   6.540   8.678 -0.7767 -0.1756 -0.0174
  445MOL0     C58645  -1.556   6.633   8.692  0.0804 -0.8806 -0.7106
  445MOL0     C58646  -1.680   6.597   8.612 -0.0469  0.1493 -0.4564
  445MOL0     C58647  -1.789   6.700   8.653  0.6661  0.3370 -0.4847
  445MOL0     C58648  -1.930   6.662   8.593  0.1309 -0.0696  0.1254
  445MOL0     C58649  -2.033   6.771   8.634  0.0239  0.6143  0.2811
  445MOL0     C58650  -2.165   6.746   8.560 -0.0619  0.3416  0.3922
  445MOL0     C58651  -2.279   6.794   8.645  0.1024 -0.4997 -0.0066
  445MOL0    Cl58652  -2.309   6.684   8.774 -0.3959 -0.0118  0.0274
  445MOL0     C58653  -1.105   6.636   8.632 -0.5180 -0.1453 -0.0537
  445MOL0     C58654  -0.985   6.584   8.572 -0.2988 -0.9177 -0.0379
  445MOL0     O58655  -0.823   6.536   8.337  0.8677 -0.4619 -0.1707
  445MOL0     C58656  -0.587   6.306   8.440 -0.1034  0.9463 -0.3147
  445MOL0     C58657  -0.467   6.241   8.397  0.2359  0.0575 -0.7347
  445MOL0     N58658   0.268   6.249   8.615 -0.0504  0.4706  0.1209
  445MOL0     N58659   0.341   6.322   8.682  0.2991  0.1497  0.0307
  445MOL0     C58660   1.188   6.235   8.404  0.2872 -0.4267  0.5811
  445MOL0     C58661   1.263   6.232   8.287 -0.2809 -1.0646  0.6189
  445MOL0     C58662   1.443   6.414   7.941  0.4245  0.2354  0.7012
  445MOL0     C58663   1.488   6.530   7.873  1.1228 -0.0852  0.1292
  445MOL0     C58664   1.545   6.522   7.747  0.3231  0.4251  0.3144
  445MOL0     C58665   1.569   6.405   7.678  0.3564  0.0270 -0.2202
  445MOL0     O58666   1.637   6.399   7.557  0.1421 -0.0219  0.6993
  445MOL0     C58667   1.552   6.354   7.448 -1.4952 -0.4341  0.7445
  445MOL0     C58668   1.461   6.459   7.382 -0.9204  0.5881  0.6880
  445MOL0     C58669   1.344   6.502   7.466  0.1484 -0.0577 -0.4080
  445MOL0     C58670   1.249   6.577   7.382  0.0259 -0.5224  1.1882
  445MOL0     C58671   1.158   6.661   7.466 -0.6218  0.3297 -1.0788
  445MOL0     C58672   1.038   6.765   7.582  0.2553  0.4953  0.3790
  445MOL0     C58673   1.523   6.287   7.743 -0.7552 -0.4776 -0.0563
  445MOL0     C58674   1.454   6.290   7.869  0.4942  0.2058  0.4875
  445MOL0     H58675   1.508   6.453   8.377  1.1860 -2.0366 -0.9560
  445MOL0     H58676   1.363   6.461   8.575 -0.2748 -2.9633  2.5233
  445MOL0     H58677   1.162   6.511   8.719  2.9800  0.5603  2.1971
  445MOL0     H58678   1.255   6.374   8.770 -1.2096 -2.5529  0.3365
  445MOL0     H58679   1.082   6.389   8.926 -1.5374 -0.4636  0.4475
  445MOL0     H58680   1.044   6.248   8.814 -0.0801 -0.7643 -2.9657
  445MOL0     H58681   0.907   6.452   8.685 -3.8844 -2.1384  0.3280
  445MOL0     H58682   0.920   6.535   8.837 -1.4799  1.2918 -1.3205
  445MOL0     H58683   0.787   6.271   8.770 -1.3110  0.6278 -1.2161
  445MOL0     H58684   0.811   6.326   8.934 -1.4381  1.4431  0.6058
  445MOL0     H58685   0.687   6.538   8.880  4.0849 -0.6188  1.4382
  445MOL0     H58686   0.589   6.388   8.854  0.8472 -0.7382  1.7122
  445MOL0     H58687   0.613   6.399   8.608 -3.3861 -0.3377  2.2490
  445MOL0     H58688   0.732   6.537   8.627  2.2056 -1.4894  0.4377
  445MOL0     H58689   0.578   6.665   8.752 -2.1676  0.4141  0.5536
  445MOL0     H58690   0.541   6.640   8.574  2.2374 -0.5421 -0.1895
  445MOL0     H58691   0.336   6.651   8.676 -1.1816 -0.0904  0.4327
  445MOL0     H58692   0.389   6.552   8.808  1.1112 -1.8447 -0.5957
  445MOL0     H58693   0.241   6.530   8.450  3.0267 -0.1836  0.0690
  445MOL0     H58694   0.135   6.144   8.406  0.1198  0.0408  0.6487
  445MOL0     H58695   0.223   6.256   8.297  0.2726  0.9326 -0.5924
  445MOL0     H58696   0.019   6.411   8.373 -0.2510 -0.4761 -0.7047
  445MOL0     H58697  -0.068   6.265   8.422 -0.0797  1.7990  0.0334
  445MOL0     H58698   0.012   6.345   8.140 -0.1852 -0.7643 -0.2347
  445MOL0     H58699  -0.031   6.180   8.179 -1.5159 -1.3519 -0.8395
  445MOL0     H58700  -0.206   6.315   8.080 -0.4244  0.6167 -0.0937
  445MOL0     H58701  -0.211   6.429   8.213 -1.2470  0.3020 -1.1939
  445MOL0     H58702  -0.424   6.427   8.113  0.2351  0.1765  0.1972
  445MOL0     H58703  -0.623   6.519   8.177 -2.3031 -1.8779 -0.1574
  445MOL0     H58704  -1.041   6.254   8.617 -0.0246  0.2032  2.0599
  445MOL0     H58705  -1.252   6.337   8.696  1.1386 -1.3010 -1.5391
  445MOL0     H58706  -1.450   6.443   8.727  0.0352 -0.1507  0.2920
  445MOL0     H58707  -1.416   6.527   8.571  1.1500  2.0482 -0.0246
  445MOL0     H58708  -1.522   6.726   8.645 -4.4319  0.8454 -1.0608
  445MOL0     H58709  -1.583   6.652   8.796  1.4577 -2.3856 -0.0187
  445MOL0     H58710  -1.722   6.502   8.645  2.1673  0.0806  2.5876
  445MOL0     H58711  -1.670   6.594   8.503  1.0367 -3.3714 -0.3611
  445MOL0     H58712  -1.794   6.675   8.760  0.7937 -3.7370 -1.2547
  445MOL0     H58713  -1.754   6.801   8.632 -0.4305  0.6907 -0.6904
  445MOL0     H58714  -1.954   6.563   8.633 -0.4625 -0.4641 -1.1416
  445MOL0     H58715  -1.916   6.660   8.484 -1.9285  0.0787 -0.1728
  445MOL0     H58716  -2.002   6.874   8.611  3.8598 -0.4723 -0.1473
  445MOL0     H58717  -2.047   6.761   8.742 -0.3075  0.4902  0.2259
  445MOL0     H58718  -2.158   6.794   8.462  1.9932 -1.0518 -0.2191
  445MOL0     H58719  -2.187   6.639   8.547 -2.2211  0.4878  2.2486
  445MOL0     H58720  -2.364   6.811   8.578 -0.5532  0.3055  1.0064
  445MOL0     H58721  -2.247   6.891   8.685  2.3137 -0.9701 -0.5002
  445MOL0     H58722  -1.132   6.741   8.625  0.3452  0.0455 -0.5717
  445MOL0     H58723  -0.906   6.653   8.542  1.0466 -0.6126  3.6365
  445MOL0     H58724  -0.636   6.279   8.533 -0.1970  4.3102  0.7598
  445MOL0     H58725  -0.424   6.162   8.458  2.1857  0.9859 -0.8184
  445MOL0     H58726   1.105   6.168   8.422 -2.8190  3.2611  1.5270
  445MOL0     H58727   1.246   6.170   8.199  2.1390 -2.3106  0.9363
  445MOL0     H58728   1.475   6.629   7.914 -1.1949  1.2730 -3.3897
  445MOL0     H58729   1.582   6.617   7.712  3.7737 -0.8673  0.0337
  445MOL0     H58730   1.484   6.276   7.482 -0.7361 -2.8653 -2.7482
  445MOL0     H58731   1.613   6.310   7.369  0.1835 -0.4866  2.0176
  445MOL0     H58732   1.526   6.543   7.355  0.0987 -0.3633  0.0781
  445MOL0     H58733   1.421   6.412   7.291 -2.1673  2.8221  0.0068
  445MOL0     H58734   1.386   6.563   7.546 -0.4426 -3.0674  2.4220
  445MOL0     H58735   1.291   6.420   7.516 -1.7480  1.0087 -0.5860
  445MOL0     H58736   1.309   6.646   7.322 -0.1685 -1.4313 -0.0758
  445MOL0     H58737   1.200   6.506   7.315  2.7627 -2.1522  0.7707
  445MOL0     H58738   0.971   6.808   7.654 -1.4877 -0.5182 -0.5508
  445MOL0     H58739   1.548   6.198   7.687 -1.9004 -0.4969 -0.5516
  445MOL0     H58740   1.414   6.203   7.920  0.9052 -0.5100 -0.4003
  446MOL0     O58741   6.830  11.103   5.299  0.0811  0.9406 -0.2773
  446MOL0     C58742   6.871  11.194   5.231  0.0182  0.9001  0.0876
  446MOL0     O58743   6.998  11.208   5.178 -0.0203  0.3970  0.6833
  446MOL0     C58744   7.083  11.105   5.215 -0.2374  0.8282  0.0038
  446MOL0     C58745   7.100  10.985   5.141  0.2127  0.9035 -0.4367
  446MOL0     C58746   7.167  10.874   5.191  0.2463  1.3555  0.2269
  446MOL0     C58747   7.209  10.866   5.330  0.5776 -0.1493 -0.5735
  446MOL0     O58748   7.280  10.762   5.380 -0.2257 -0.7593  0.0482
  446MOL0     C58749   7.366  10.703   5.280 -0.4513  0.2221 -0.7479
  446MOL0     C58750   7.470  10.639   5.366  0.9354 -0.1534  0.3769
  446MOL0     C58751   7.595  10.715   5.406 -0.3774  0.0310  0.1348
  446MOL0     C58752   7.655  10.786   5.290  0.5447  0.5222  0.0693
  446MOL0     C58753   7.801  10.834   5.303  0.5276  0.1215  0.2714
  446MOL0     C58754   7.808  10.954   5.396  0.1766 -0.1881  0.6851
  446MOL0     C58755   7.945  11.011   5.394  0.1762  0.5801  0.5561
  446MOL0     C58756   7.960  11.109   5.518  0.0042 -0.0353 -0.5255
  446MOL0     N58757   8.020  11.022   5.620 -0.4294 -0.5155 -0.3721
  446MOL0     C58758   8.150  11.018   5.661  0.3970 -0.0194 -0.1096
  446MOL0     C58759   8.145  10.949   5.775 -0.5877  0.2526 -0.3495
  446MOL0     C58760   8.261  10.916   5.867  0.4674  0.3313 -0.5979
  446MOL0     C58761   8.268  10.760   5.870 -0.3536  0.4475 -0.0524
  446MOL0     C58762   8.377  10.697   5.949 -0.8524  1.2030 -1.1763
  446MOL0     C58763   8.515  10.738   5.897  0.4121  0.1371  0.3312
  446MOL0     O58764   8.532  10.694   5.770 -0.3642  1.0166  0.3983
  446MOL0     C58765   8.662  10.701   5.721  0.4876 -1.1372  0.8436
  446MOL0     C58766   8.778  10.745   5.796  0.6153  0.0171  0.4893
  446MOL0     C58767   8.908  10.747   5.740 -0.0594  0.4844  0.4412
  446MOL0     C58768   8.919  10.715   5.598  0.8008  0.8013 -0.8740
  446MOL0     C58769   9.039  10.746   5.523  0.5127  0.4154 -0.8186
  446MOL0     O58770   9.040  10.774   5.386 -0.0733  0.2118  0.2985
  446MOL0     C58771   9.135  10.850   5.322 -0.6869  1.6365 -0.6607
  446MOL0     C58772   9.101  10.949   5.232  0.0608  0.2459  0.6147
  446MOL0     C58773   9.187  11.039   5.162  0.0995  0.5157 -0.5175
  446MOL0     C58774   9.333  11.015   5.180  0.0256 -0.4210 -0.4187
  446MOL0     O58775   9.436  11.086   5.113 -0.0726  0.5354 -0.6405
  446MOL0     C58776   9.416  11.186   5.011 -0.2157  0.3940 -0.2262
  446MOL0     C58777   9.546  11.221   4.933  1.0664  0.1125  0.0500
  446MOL0     C58778   9.585  11.108   4.840 -0.2706  0.3904 -0.0198
  446MOL0     C58779   9.715  11.123   4.764  0.2946  0.1499 -0.2376
  446MOL0     C58780   9.735  11.005   4.672  0.4747 -0.3705  0.7391
  446MOL0     C58781   9.801  10.895   4.764  0.1437 -0.9410  0.2176
  446MOL0     C58782   9.860  10.786   4.679 -0.0908 -1.0522  0.4446
  446MOL0     C58783   9.921  10.671   4.751  0.3429 -0.2384 -0.7313
  446MOL0    Cl58784  10.078  10.728   4.840 -0.2057 -0.0198  0.2090
  446MOL0     C58785   9.365  10.919   5.285  0.6033 -0.1484  1.1154
  446MOL0     C58786   9.270  10.840   5.356 -0.2734 -0.5465  0.5218
  446MOL0     O58787   9.138  10.766   5.596  0.4987  0.5978  0.0969
  446MOL0     C58788   8.809  10.655   5.527 -0.4885  0.1345  0.5873
  446MOL0     C58789   8.686  10.655   5.589  0.0939  0.0156  0.4451
  446MOL0     N58790   8.018  10.907   5.806  0.8340  0.4759  0.5961
  446MOL0     N58791   7.935  10.960   5.714 -0.7921 -0.0980  1.2285
  446MOL0     C58792   7.202  10.987   5.400 -1.1895 -0.2330 -0.0641
  446MOL0     C58793   7.149  11.099   5.342  0.0708  0.4357  1.2381
  446MOL0     C58794   6.770  11.283   5.179 -0.0069 -0.9478 -0.6384
  446MOL0     C58795   6.807  11.416   5.160 -0.5101  0.0136  0.6641
  446MOL0     C58796   6.723  11.516   5.111 -0.0210 -0.3394 -0.2179
  446MOL0     C58797   6.589  11.488   5.093 -0.1249  0.2817  0.1675
  446MOL0     O58798   6.499  11.554   5.014  0.5517 -0.0497 -0.1109
  446MOL0     C58799   6.511  11.687   4.980  0.3883 -0.5765  0.1998
  446MOL0     C58800   6.395  11.733   4.890  0.6042  0.7618 -0.6520
  446MOL0     C58801   6.380  11.662   4.757  0.5488  0.3021  0.3609
  446MOL0     C58802   6.302  11.522   4.769  0.0547 -0.7627 -0.0021
  446MOL0     C58803   6.156  11.541   4.809 -0.7505 -0.1261 -1.1752
  446MOL0     C58804   6.033  11.552   4.826 -0.0611  0.3870  0.4159
  446MOL0     C58805   6.549  11.359   5.121 -0.2746  0.0099  0.8263
  446MOL0     C58806   6.630  11.264   5.168 -0.0782  0.1474  0.4328
  446MOL0     H58807   7.066  10.979   5.039 -2.2074  0.7659  0.3139
  446MOL0     H58808   7.184  10.790   5.125 -1.2429  0.7012  0.6499
  446MOL0     H58809   7.406  10.775   5.208 -1.4111  0.9472 -0.5710
  446MOL0     H58810   7.302  10.628   5.232 -3.2673  2.7880 -1.2498
  446MOL0     H58811   7.491  10.549   5.308  2.6450 -1.0044  2.1788
  446MOL0     H58812   7.433  10.603   5.462  0.7408 -2.3756 -0.4721
  446MOL0     H58813   7.667  10.643   5.446  1.0696  1.8408  0.9258
  446MOL0     H58814   7.581  10.778   5.494 -3.1865 -0.5709  0.2051
  446MOL0     H58815   7.640  10.723   5.202 -2.1248  1.1701 -0.0261
  446MOL0     H58816   7.593  10.875   5.271  1.9731  1.3269 -1.0196
  446MOL0     H58817   7.829  10.866   5.202  0.1444 -0.8294 -0.1561
  446MOL0     H58818   7.862  10.747   5.330  0.7736 -0.0054 -0.6305
  446MOL0     H58819   7.779  10.923   5.496  0.8270 -0.9953  0.6399
  446MOL0     H58820   7.735  11.032   5.373  2.1048  1.0274 -1.9699
  446MOL0     H58821   8.031  10.944   5.391  0.0729  0.4491  0.5455
  446MOL0     H58822   7.960  11.070   5.303 -2.3870  1.2989  0.5245
  446MOL0     H58823   7.863  11.147   5.551 -0.5190 -0.0444 -1.9469
  446MOL0     H58824   8.020  11.197   5.491  2.6734 -1.2083  1.2593
  446MOL0     H58825   8.234  11.073   5.620 -1.4949  3.0379 -0.2163
  446MOL0     H58826   8.243  10.961   5.964  0.2343 -1.5311  0.2702
  446MOL0     H58827   8.345  10.964   5.817 -0.2698  2.0705 -0.2399
  446MOL0     H58828   8.261  10.725   5.767  2.7167  0.0873 -0.2143
  446MOL0     H58829   8.175  10.737   5.923 -0.2223  1.1946  0.5182
  446MOL0     H58830   8.378  10.724   6.056  3.2089 -0.3750 -0.6356
  446MOL0     H58831   8.365  10.589   5.944 -1.9716  1.3199 -1.2727
  446MOL0     H58832   8.583  10.697   5.972 -2.2735  0.3353  3.0822
  446MOL0     H58833   8.522  10.847   5.906  2.7392 -0.0387  1.4379
  446MOL0     H58834   8.760  10.780   5.898  0.5742 -2.2692  1.3322
  446MOL0     H58835   8.994  10.784   5.795  0.9128 -0.2090 -0.5931
  446MOL0     H58836   8.995  10.970   5.223  0.2334  0.7266 -0.3900
  446MOL0     H58837   9.135  11.112   5.101 -1.4639  1.6211  2.0135
  446MOL0     H58838   9.382  11.278   5.058  0.9912  0.6477  0.1807
  446MOL0     H58839   9.335  11.152   4.945 -0.2949  0.1633 -0.0118
  446MOL0     H58840   9.627  11.252   4.999  1.4138  3.0084 -1.5918
  446MOL0     H58841   9.525  11.302   4.863  1.0828  0.2204  0.1695
  446MOL0     H58842   9.497  11.096   4.776 -1.0506 -0.8208  1.2124
  446MOL0     H58843   9.584  11.021   4.907  0.4029  0.6530  0.3389
  446MOL0     H58844   9.702  11.208   4.696 -0.2077 -0.5999 -1.0928
  446MOL0     H58845   9.799  11.159   4.825  0.0514  0.2545  0.0398
  446MOL0     H58846   9.802  11.019   4.587 -1.3017 -0.9003 -0.8171
  446MOL0     H58847   9.648  10.970   4.616  0.8995 -0.0948 -0.1044
  446MOL0     H58848   9.731  10.855   4.838 -1.7114  0.7154 -0.5558
  446MOL0     H58849   9.877  10.946   4.824  0.1528  1.4088 -1.6434
  446MOL0     H58850   9.781  10.745   4.616 -1.0070 -0.0386  0.9139
  446MOL0     H58851   9.928  10.829   4.604 -2.7817  2.4628 -0.2659
  446MOL0     H58852   9.947  10.592   4.679 -2.4898  1.1021 -3.4948
  446MOL0     H58853   9.850  10.626   4.821 -1.1804  0.4209 -1.7821
  446MOL0     H58854   9.471  10.910   5.305  1.0639  0.7468 -0.7383
  446MOL0     H58855   9.296  10.757   5.420 -1.8140 -0.3117  1.5041
  446MOL0     H58856   8.823  10.624   5.424 -0.8056  1.2101  0.1996
  446MOL0     H58857   8.601  10.626   5.528 -1.2916  0.3385  2.1257
  446MOL0     H58858   7.250  10.989   5.497  2.4908 -3.0365 -1.5705
  446MOL0     H58859   7.155  11.193   5.395  1.2079 -0.8338  3.5145
  446MOL0     H58860   6.909  11.444   5.181 -0.7151  1.5152 -0.1648
  446MOL0     H58861   6.766  11.611   5.080  1.0292 -0.4948  0.6986
  446MOL0     H58862   6.603  11.709   4.925 -1.2947  1.2695 -2.1027
  446MOL0     H58863   6.514  11.760   5.062 -0.7160 -2.6510  2.1764
  446MOL0     H58864   6.306  11.706   4.948  2.7167 -3.4638  1.0840
  446MOL0     H58865   6.396  11.842   4.886  1.6194  0.7716 -0.3191
  446MOL0     H58866   6.477  11.630   4.717  0.4167 -1.5896  1.4545
  446MOL0     H58867   6.322  11.721   4.686 -0.9009  0.4785  1.6338
  446MOL0     H58868   6.321  11.482   4.669  2.6206  0.8979 -0.2724
  446MOL0     H58869   6.345  11.453   4.842  3.6560  0.0505 -1.1469
  446MOL0     H58870   5.930  11.567   4.850  0.7834  3.4649  2.8935
  446MOL0     H58871   6.446  11.334   5.097  0.4212 -1.4848 -0.7974
  446MOL0     H58872   6.588  11.168   5.198 -1.7581  0.9779  0.8617
  447MOL0     O58873   3.536   0.529   4.914  0.6201 -0.2017  0.3753
  447MOL0     C58874   3.456   0.434   4.892  0.2247 -0.0506 -0.5255
  447MOL0     O58875   3.317   0.452   4.903  1.0611  0.0049 -0.1072
  447MOL0     C58876   3.265   0.543   4.994 -0.5997 -0.0792 -0.2833
  447MOL0     C58877   3.316   0.582   5.123 -0.5304 -0.8168  0.2272
  447MOL0     C58878   3.261   0.697   5.191 -0.6947 -0.9977  0.1250
  447MOL0     C58879   3.144   0.763   5.129  0.6475  0.9426 -0.5792
  447MOL0     O58880   3.093   0.885   5.173  0.1805  0.4310 -0.3792
  447MOL0     C58881   3.082   0.914   5.316  0.0540 -0.0252  0.9549
  447MOL0     C58882   2.950   0.861   5.372  0.7396  0.6349  0.5897
  447MOL0     C58883   2.834   0.967   5.355 -0.4023 -0.4099  0.5567
  447MOL0     C58884   2.711   0.923   5.429  0.4081 -0.2678 -1.1927
  447MOL0     C58885   2.592   0.893   5.339 -0.7989 -0.5286  0.3025
  447MOL0     C58886   2.539   1.015   5.254 -0.0984 -0.5301 -0.5789
  447MOL0     C58887   2.514   1.147   5.341  0.4407 -0.1659 -1.0204
  447MOL0     C58888   2.381   1.173   5.413 -0.4118 -0.1703 -0.2157
  447MOL0     N58889   2.261   1.112   5.343 -0.4828  0.2610 -1.0164
  447MOL0     C58890   2.237   0.978   5.340  0.4081 -0.0655  0.9859
  447MOL0     C58891   2.127   0.952   5.261  0.6451  0.0368 -0.3285
  447MOL0     C58892   2.053   0.818   5.246 -0.3556  0.3442 -0.5138
  447MOL0     C58893   1.902   0.826   5.215 -0.6584 -0.8109 -0.0400
  447MOL0     C58894   1.803   0.875   5.323  1.1876 -0.0860 -0.0580
  447MOL0     C58895   1.660   0.892   5.265 -0.6350 -0.4537  0.0379
  447MOL0     O58896   1.557   0.880   5.364  0.4765  0.0907 -0.2235
  447MOL0     C58897   1.429   0.889   5.324 -0.1282 -0.6780  0.4906
  447MOL0     C58898   1.329   0.878   5.423 -0.5113 -0.8638  0.1578
  447MOL0     C58899   1.197   0.863   5.376 -0.1320 -1.2605  0.9014
  447MOL0     C58900   1.157   0.875   5.245  0.6133  0.1911  0.4566
  447MOL0     C58901   1.014   0.858   5.210  0.7840  0.7236  1.2937
  447MOL0     O58902   0.922   0.832   5.300  0.1058  0.3395  0.0851
  447MOL0     C58903   0.791   0.805   5.257 -0.2162 -0.3029  0.9278
  447MOL0     C58904   0.760   0.681   5.197  0.3370 -0.2514  0.0131
  447MOL0     C58905   0.636   0.639   5.161 -0.2597 -0.2289 -0.7530
  447MOL0     C58906   0.523   0.727   5.171 -0.9428  0.0058  0.2924
  447MOL0     O58907   0.406   0.672   5.133 -0.2364  0.8831  0.4042
  447MOL0     C58908   0.297   0.763   5.128  0.0851  0.2828  0.4772
  447MOL0     C58909   0.168   0.696   5.085 -0.9496 -0.5228  0.3432
  447MOL0     C58910   0.120   0.578   5.169  0.3079  0.2266 -0.2315
  447MOL0     C58911  -0.019   0.529   5.128  0.3966  0.4909  0.1763
  447MOL0     C58912  -0.031   0.367   5.151  0.4330 -0.1152 -0.6011
  447MOL0     C58913  -0.179   0.331   5.116  0.8782 -0.2957 -0.6629
  447MOL0     C58914  -0.196   0.184   5.154 -0.4101  0.3704  0.4542
  447MOL0     C58915  -0.134   0.102   5.044  0.2976  0.6173  0.2836
  447MOL0    Cl58916  -0.165  -0.071   5.063  0.0796  0.2227 -0.0657
  447MOL0     C58917   0.547   0.856   5.222  0.8907  0.3036  1.1203
  447MOL0     C58918   0.680   0.888   5.275  0.1836  0.7298 -1.0336
  447MOL0     O58919   0.994   0.861   5.092 -0.5866  0.4552  0.1268
  447MOL0     C58920   1.258   0.895   5.150  0.8651  0.8508 -0.6421
  447MOL0     C58921   1.393   0.900   5.192 -0.1606 -1.6154 -0.1324
  447MOL0     N58922   2.083   1.079   5.221  0.5350  0.5355  0.0136
  447MOL0     N58923   2.172   1.164   5.264  0.5683  1.3069 -1.8282
  447MOL0     C58924   3.092   0.716   5.010 -0.1213  0.3061 -0.1361
  447MOL0     C58925   3.151   0.609   4.948  0.5164  0.5497  0.3334
  447MOL0     C58926   3.508   0.302   4.835  0.0083  0.3949 -0.3031
  447MOL0     C58927   3.631   0.244   4.880 -0.0472  0.2288 -0.1944
  447MOL0     C58928   3.675   0.123   4.835 -0.4603  1.2031  0.0548
  447MOL0     C58929   3.596   0.044   4.739 -0.4299 -0.4699  0.3954
  447MOL0     O58930   3.631  -0.074   4.678  0.4016  0.1020 -0.1389
  447MOL0     C58931   3.745  -0.145   4.723 -0.2833  0.2634  0.0427
  447MOL0     C58932   3.748  -0.198   4.862 -0.9077 -0.0508 -0.0663
  447MOL0     C58933   3.635  -0.279   4.915  0.5230  0.1940  1.1502
  447MOL0     C58934   3.683  -0.409   4.985  1.0711  0.4550 -0.8914
  447MOL0     C58935   3.752  -0.384   5.110  0.2086 -0.2775 -0.3637
  447MOL0     C58936   3.796  -0.370   5.227 -0.7951  0.3004  0.6891
  447MOL0     C58937   3.470   0.098   4.704 -0.5447  0.4076 -0.1384
  447MOL0     C58938   3.427   0.223   4.754 -0.2873  0.2673 -0.1931
  447MOL0     H58939   3.410   0.534   5.150 -1.0756 -1.8502  0.3660
  447MOL0     H58940   3.308   0.735   5.281 -0.8970 -1.3967  0.4029
  447MOL0     H58941   3.086   1.023   5.318 -0.2148  0.1223 -2.1092
  447MOL0     H58942   3.164   0.866   5.370  0.2647 -2.0495 -1.0127
  447MOL0     H58943   2.957   0.835   5.478 -3.2992 -0.7884  0.6976
  447MOL0     H58944   2.916   0.775   5.314 -3.8198  1.7902  1.1387
  447MOL0     H58945   2.811   0.982   5.249  0.4792  3.2868  0.7330
  447MOL0     H58946   2.859   1.067   5.392 -2.2632  1.1855 -2.1227
  447MOL0     H58947   2.721   0.829   5.485 -2.0008 -0.4101 -0.8919
  447MOL0     H58948   2.679   1.002   5.498 -0.0575 -0.3385 -1.3244
  447MOL0     H58949   2.505   0.864   5.398 -1.7789  2.9124  0.7281
  447MOL0     H58950   2.620   0.816   5.266  1.8705  2.3671 -2.0257
  447MOL0     H58951   2.448   0.989   5.200 -0.4359  0.7958 -0.6734
  447MOL0     H58952   2.603   1.057   5.176 -1.3662  3.5144  0.3119
  447MOL0     H58953   2.596   1.159   5.413  1.0278 -1.8864 -1.3576
  447MOL0     H58954   2.524   1.234   5.275  0.8351  1.2502  0.8195
  447MOL0     H58955   2.378   1.278   5.444 -0.0289 -0.6504  1.5301
  447MOL0     H58956   2.378   1.119   5.508  1.6843 -0.8155 -0.4655
  447MOL0     H58957   2.299   0.901   5.385 -0.9627 -1.5626  0.4460
  447MOL0     H58958   2.076   0.753   5.331  1.8639  0.4901 -0.9505
  447MOL0     H58959   2.112   0.763   5.172  0.1581  1.2193 -0.7689
  447MOL0     H58960   1.869   0.724   5.192 -1.3406 -0.5634 -0.1715
  447MOL0     H58961   1.879   0.885   5.126  1.0532 -0.9323 -0.6043
  447MOL0     H58962   1.811   0.805   5.407 -1.2066 -0.1764  0.1583
  447MOL0     H58963   1.842   0.972   5.357  1.2075 -0.4180  0.8856
  447MOL0     H58964   1.645   0.805   5.200 -0.3968 -0.4673  0.0009
  447MOL0     H58965   1.657   0.977   5.196  0.2219 -2.4855 -2.6797
  447MOL0     H58966   1.344   0.860   5.529 -0.7907 -1.3348  0.1247
  447MOL0     H58967   1.108   0.858   5.439 -2.5623  2.5414 -1.8029
  447MOL0     H58968   0.842   0.609   5.201 -1.1243 -1.9627  0.6501
  447MOL0     H58969   0.618   0.542   5.115  0.1962  0.0847 -1.6178
  447MOL0     H58970   0.303   0.846   5.058 -2.3778 -1.8293 -2.5122
  447MOL0     H58971   0.281   0.804   5.228 -1.9964 -1.1399  0.8071
  447MOL0     H58972   0.172   0.660   4.982  0.3694  0.3248  0.0868
  447MOL0     H58973   0.084   0.766   5.094 -1.3458 -1.2054  2.8597
  447MOL0     H58974   0.100   0.614   5.271 -2.0392 -1.0663 -0.1588
  447MOL0     H58975   0.196   0.500   5.166  2.3507  2.1284 -0.0646
  447MOL0     H58976  -0.095   0.580   5.187 -1.5208  0.0650 -1.7888
  447MOL0     H58977  -0.032   0.557   5.023  1.9925  1.7494  0.2818
  447MOL0     H58978  -0.011   0.353   5.258  1.6650  0.9933 -0.6701
  447MOL0     H58979   0.039   0.310   5.089 -2.3743 -2.7886 -1.6349
  447MOL0     H58980  -0.193   0.347   5.009  2.7763  3.4593 -0.5031
  447MOL0     H58981  -0.252   0.387   5.175 -1.1084 -2.0556 -1.3266
  447MOL0     H58982  -0.142   0.160   5.246  1.0884  0.2504 -0.4336
  447MOL0     H58983  -0.299   0.149   5.167 -0.8076  0.6732 -1.6408
  447MOL0     H58984  -0.030   0.135   5.036  0.8279  0.5989  4.7644
  447MOL0     H58985  -0.178   0.139   4.951  2.1018 -0.4702 -1.0797
  447MOL0     H58986   0.479   0.940   5.231  1.4444  1.0934 -1.2790
  447MOL0     H58987   0.696   0.982   5.327 -0.7444  0.7009 -0.6767
  447MOL0     H58988   1.232   0.881   5.046  3.7578 -2.0703 -1.1203
  447MOL0     H58989   1.479   0.889   5.127  2.4601 -2.7667  3.2848
  447MOL0     H58990   3.005   0.764   4.968  0.2904  0.6576 -0.6084
  447MOL0     H58991   3.093   0.568   4.866 -1.4022 -1.0342  2.3446
  447MOL0     H58992   3.695   0.305   4.943 -0.3786  1.2205 -0.7977
  447MOL0     H58993   3.770   0.079   4.864 -1.4592 -0.9469  0.2908
  447MOL0     H58994   3.831  -0.081   4.700  2.6508 -4.0670 -2.4864
  447MOL0     H58995   3.732  -0.233   4.660 -5.0716  0.0533  0.9326
  447MOL0     H58996   3.846  -0.246   4.870  0.1656  2.0484  0.0051
  447MOL0     H58997   3.733  -0.107   4.920 -2.0460 -0.5809  0.5173
  447MOL0     H58998   3.579  -0.316   4.829  0.3407  1.5528  0.6552
  447MOL0     H58999   3.566  -0.215   4.972 -1.7110  0.2428 -1.4273
  447MOL0     H59000   3.600  -0.476   5.006  1.3710  0.2129 -0.4601
  447MOL0     H59001   3.755  -0.463   4.922  1.4428 -2.8551  2.0901
  447MOL0     H59002   3.819  -0.358   5.331  0.3010  0.5893  0.4294
  447MOL0     H59003   3.396   0.053   4.640 -0.5383 -0.9469  0.7697
  447MOL0     H59004   3.331   0.270   4.738 -0.8454  1.4364  5.0144
  448MOL0     O59005   1.569   5.518   9.405 -0.3140  0.1363  0.1939
  448MOL0     C59006   1.504   5.477   9.309  0.2224 -1.2353  0.2445
  448MOL0     O59007   1.489   5.549   9.194 -0.6349  0.0239  0.2825
  448MOL0     C59008   1.562   5.668   9.185  0.3358  0.0163 -0.7605
  448MOL0     C59009   1.501   5.784   9.151  0.6110 -0.4902 -0.1195
  448MOL0     C59010   1.571   5.902   9.137 -0.7738 -0.4136  0.0782
  448MOL0     C59011   1.705   5.912   9.142 -0.4596  0.2931 -0.6759
  448MOL0     O59012   1.784   6.023   9.126  0.7509  0.2113  0.1928
  448MOL0     C59013   1.721   6.139   9.064 -0.1232 -0.1847  0.3569
  448MOL0     C59014   1.827   6.233   9.006 -0.2349 -0.0346  0.5114
  448MOL0     C59015   1.885   6.165   8.884  0.7251  0.9103  0.7893
  448MOL0     C59016   1.995   6.247   8.816  0.8756  0.0853 -0.5428
  448MOL0     C59017   2.026   6.174   8.679  0.1218  0.6298 -0.0029
  448MOL0     C59018   2.166   6.212   8.639  0.7316 -0.6398 -0.0245
  448MOL0     C59019   2.212   6.183   8.494  0.0416 -0.3875  0.1240
  448MOL0     C59020   2.168   6.286   8.385 -0.3143  0.4726  1.4058
  448MOL0     N59021   2.234   6.247   8.264 -0.3716 -0.9135  0.0173
  448MOL0     C59022   2.204   6.129   8.196 -0.2969  0.1295  0.1302
  448MOL0     C59023   2.297   6.117   8.099  1.1966 -0.6283  1.1370
  448MOL0     C59024   2.296   6.004   7.996 -0.1880  0.9426 -0.2837
  448MOL0     C59025   2.415   5.908   8.015 -0.3406  0.0207  0.2851
  448MOL0     C59026   2.392   5.808   8.131 -0.4435  0.1270  0.2705
  448MOL0     C59027   2.282   5.706   8.116  0.0203 -0.5889  0.0714
  448MOL0     O59028   2.164   5.745   8.172  0.7395  0.1224 -1.1568
  448MOL0     C59029   2.054   5.660   8.169 -0.0920  0.0125  0.0619
  448MOL0     C59030   2.047   5.528   8.125 -0.1308 -0.8313  0.2849
  448MOL0     C59031   1.933   5.445   8.157 -0.5717  0.2759 -0.6391
  448MOL0     C59032   1.812   5.505   8.214  0.6582  0.1517 -0.2257
  448MOL0     C59033   1.691   5.433   8.235  0.8639  0.5412  0.5625
  448MOL0     O59034   1.695   5.298   8.203 -0.2901  0.1685  0.1345
  448MOL0     C59035   1.594   5.216   8.255  0.4766 -0.0936  0.1247
  448MOL0     C59036   1.544   5.101   8.199 -0.7616  0.3006 -0.3805
  448MOL0     C59037   1.451   5.008   8.252  0.8798 -0.5069 -0.3238
  448MOL0     C59038   1.400   5.040   8.381 -0.3508 -0.9959 -0.2632
  448MOL0     O59039   1.314   4.961   8.457 -0.2120 -0.3420  0.4810
  448MOL0     C59040   1.253   4.845   8.401 -1.1072  0.9237  0.6013
  448MOL0     C59041   1.158   4.771   8.491  0.6467 -0.1650 -0.2863
  448MOL0     C59042   1.020   4.842   8.486  0.1941  0.4356 -0.9468
  448MOL0     C59043   0.919   4.753   8.564  0.9143  0.1193  0.2380
  448MOL0     C59044   0.785   4.828   8.552 -0.5793  0.1842 -0.1643
  448MOL0     C59045   0.657   4.754   8.604 -0.5836 -0.2520  0.4529
  448MOL0     C59046   0.687   4.676   8.735 -0.0617  0.3488 -0.8776
  448MOL0     C59047   0.561   4.611   8.790 -0.1740  0.5088  0.3705
  448MOL0    Cl59048   0.590   4.514   8.935 -0.3038  0.0850 -0.0729
  448MOL0     C59049   1.433   5.171   8.426  0.2027  1.7443 -1.1259
  448MOL0     C59050   1.533   5.251   8.373 -0.1770  0.0575  0.3982
  448MOL0     O59051   1.588   5.494   8.258 -0.0922 -0.2727  1.0318
  448MOL0     C59052   1.829   5.644   8.253  0.1904 -0.1859  0.2709
  448MOL0     C59053   1.942   5.720   8.233  0.0907 -0.3301  0.5511
  448MOL0     N59054   2.376   6.234   8.107 -0.8956  0.2232  0.0189
  448MOL0     N59055   2.340   6.307   8.206  0.4838 -0.4296 -0.1450
  448MOL0     C59056   1.766   5.790   9.175  0.5736 -0.3562 -0.1070
  448MOL0     C59057   1.703   5.670   9.202  0.5253 -0.2556  0.3468
  448MOL0     C59058   1.444   5.346   9.334 -0.4438  0.6027  0.4746
  448MOL0     C59059   1.333   5.298   9.254 -0.1541 -0.8654  0.5378
  448MOL0     C59060   1.273   5.175   9.263 -0.3390  0.5431  0.1250
  448MOL0     C59061   1.315   5.090   9.372 -0.4431 -0.6600 -0.8626
  448MOL0     O59062   1.256   4.976   9.417  0.6081  0.3705  0.1648
  448MOL0     C59063   1.123   4.944   9.383  1.0437 -0.7192  0.1095
  448MOL0     C59064   1.100   4.876   9.245 -1.1522 -0.2501 -0.2769
  448MOL0     C59065   0.968   4.903   9.191  0.4069  0.3829 -0.0227
  448MOL0     C59066   0.921   4.828   9.069  0.2316 -0.3143  0.0361
  448MOL0     C59067   0.990   4.865   8.950 -0.2235 -0.1283  0.8553
  448MOL0     C59068   1.060   4.908   8.856  0.4215  0.0809  0.2492
  448MOL0     C59069   1.427   5.130   9.446  0.3131  1.2553 -0.6671
  448MOL0     C59070   1.490   5.255   9.427  0.5353  0.2433 -0.5164
  448MOL0     H59071   1.395   5.778   9.128  1.0729 -1.9631 -2.1548
  448MOL0     H59072   1.523   5.996   9.111  0.2777 -0.0860 -0.7570
  448MOL0     H59073   1.668   6.198   9.139  0.8035 -2.3486  2.8776
  448MOL0     H59074   1.654   6.114   8.981 -0.2374 -0.4720  0.5326
  448MOL0     H59075   1.902   6.241   9.085 -0.0483  1.2701  0.2265
  448MOL0     H59076   1.790   6.332   8.976 -0.5688 -0.4851 -0.6087
  448MOL0     H59077   1.808   6.141   8.809 -0.5441  3.2032  1.2483
  448MOL0     H59078   1.930   6.070   8.914 -0.4160  0.1227  0.1171
  448MOL0     H59079   1.969   6.351   8.794 -1.2025 -0.4545 -0.9015
  448MOL0     H59080   2.074   6.249   8.891 -1.4947 -0.5034  2.1353
  448MOL0     H59081   1.953   6.208   8.605  1.1440 -2.2235 -2.5555
  448MOL0     H59082   2.010   6.068   8.702  5.3588  0.1565  3.0745
  448MOL0     H59083   2.231   6.165   8.713 -1.1109 -0.4150  1.8406
  448MOL0     H59084   2.181   6.320   8.644  1.7563 -0.7753  0.0780
  448MOL0     H59085   2.320   6.176   8.505 -0.1590 -2.9119  0.9116
  448MOL0     H59086   2.180   6.082   8.468  0.2710 -0.5098  0.3141
  448MOL0     H59087   2.187   6.388   8.422 -0.4369  0.1770  2.3005
  448MOL0     H59088   2.060   6.285   8.370 -0.0260 -0.4957 -0.9985
  448MOL0     H59089   2.129   6.053   8.214  0.6768 -1.4904 -2.1760
  448MOL0     H59090   2.299   6.033   7.891 -1.7225 -1.5429 -1.1180
  448MOL0     H59091   2.207   5.942   8.007 -0.2592  1.0943  0.0171
  448MOL0     H59092   2.510   5.957   8.041  2.2947 -1.5884 -4.8553
  448MOL0     H59093   2.416   5.844   7.926 -2.3349 -0.6399  0.6857
  448MOL0     H59094   2.487   5.759   8.152  0.8194  1.0477 -2.7714
  448MOL0     H59095   2.360   5.875   8.211  0.4522  0.1265  0.6337
  448MOL0     H59096   2.319   5.629   8.184 -1.4153  0.3335  1.9714
  448MOL0     H59097   2.259   5.674   8.014 -1.2189 -0.6597  0.3562
  448MOL0     H59098   2.129   5.478   8.074 -0.6911  0.9946 -2.6364
  448MOL0     H59099   1.929   5.342   8.125  3.1322 -0.2103 -0.0301
  448MOL0     H59100   1.585   5.074   8.102  2.1226  0.0974  0.8068
  448MOL0     H59101   1.429   4.918   8.195  3.1797 -0.9646 -0.5806
  448MOL0     H59102   1.332   4.771   8.387  1.3852  2.8847  3.2857
  448MOL0     H59103   1.202   4.874   8.308  0.8873 -0.3013 -0.9650
  448MOL0     H59104   1.206   4.772   8.590  2.0664  0.5002 -0.9552
  448MOL0     H59105   1.148   4.671   8.449  4.1458  0.3345 -2.7768
  448MOL0     H59106   0.984   4.852   8.383 -0.6196  0.4555 -0.6679
  448MOL0     H59107   1.029   4.930   8.550  2.8834 -0.7401  0.4629
  448MOL0     H59108   0.915   4.657   8.511 -2.2147  1.0082 -1.4364
  448MOL0     H59109   0.954   4.739   8.667 -1.0846  1.5539  1.1874
  448MOL0     H59110   0.774   4.848   8.445  1.6544  0.7043 -0.3403
  448MOL0     H59111   0.790   4.926   8.602 -3.3502  0.9322 -1.1435
  448MOL0     H59112   0.634   4.675   8.532 -1.0169  0.5519 -0.3047
  448MOL0     H59113   0.582   4.832   8.610  0.1954  0.4754  0.9845
  448MOL0     H59114   0.772   4.607   8.729 -1.0743 -1.0474  0.1986
  448MOL0     H59115   0.720   4.748   8.811  0.9283 -0.9478 -0.0405
  448MOL0     H59116   0.522   4.550   8.708 -3.1867  1.4982  0.9639
  448MOL0     H59117   0.490   4.691   8.810  1.2866  2.0033 -0.1775
  448MOL0     H59118   1.378   5.206   8.513  0.4691  3.0075 -1.4521
  448MOL0     H59119   1.545   5.343   8.429  1.0638  1.8527 -2.5968
  448MOL0     H59120   1.749   5.700   8.301 -0.6103  0.1729 -1.3920
  448MOL0     H59121   1.954   5.822   8.269 -2.8374  0.1548  0.3363
  448MOL0     H59122   1.873   5.792   9.193  0.9992 -3.9780 -1.3813
  448MOL0     H59123   1.763   5.581   9.218  1.7312 -0.0998 -2.6835
  448MOL0     H59124   1.279   5.367   9.190  0.4008 -0.8013  0.1256
  448MOL0     H59125   1.189   5.153   9.198 -0.9762 -1.2246  1.4413
  448MOL0     H59126   1.061   5.034   9.389 -0.5445 -1.7505 -0.2922
  448MOL0     H59127   1.093   4.881   9.468 -1.4725  1.9824  1.4013
  448MOL0     H59128   1.176   4.922   9.181  1.0535 -0.1887  2.2044
  448MOL0     H59129   1.132   4.773   9.262 -1.7892 -0.1524  1.7696
  448MOL0     H59130   0.960   5.012   9.189 -2.8410  0.2959  0.9920
  448MOL0     H59131   0.895   4.877   9.268  1.5668  2.2971  1.8245
  448MOL0     H59132   0.941   4.721   9.082 -1.5461 -0.4711  1.8051
  448MOL0     H59133   0.814   4.848   9.054  0.0533  0.6076  2.2595
  448MOL0     H59134   1.133   4.926   8.779  3.4429  0.8694  3.0479
  448MOL0     H59135   1.466   5.055   9.514 -0.9759  0.4320 -0.8085
  448MOL0     H59136   1.576   5.281   9.489  0.6653 -3.3174  1.0770
  449MOL0     O59137   2.326  11.277   6.432  1.3640 -0.3656  0.1524
  449MOL0     C59138   2.436  11.248   6.452  0.1261 -0.0042 -0.4576
  449MOL0     O59139   2.520  11.318   6.533 -0.0782 -0.4175 -0.3734
  449MOL0     C59140   2.448  11.402   6.627  0.7453  1.4032  0.7025
  449MOL0     C59141   2.361  11.504   6.593 -0.7284  0.7597 -0.1129
  449MOL0     C59142   2.297  11.578   6.691  0.0488  0.0256 -0.6022
  449MOL0     C59143   2.312  11.552   6.828  0.0704  0.5278  0.7970
  449MOL0     O59144   2.278  11.641   6.924 -0.3399 -0.4876  0.1509
  449MOL0     C59145   2.145  11.693   6.924  0.6673 -0.5584 -0.0766
  449MOL0     C59146   2.132  11.790   7.047 -0.3274 -0.2253 -0.5366
  449MOL0     C59147   2.232  11.903   7.046  0.7074 -0.6335 -0.8172
  449MOL0     C59148   2.218  11.987   7.180  0.1535 -0.2790 -0.2762
  449MOL0     C59149   2.341  12.083   7.188  1.2355 -0.1493 -0.0640
  449MOL0     C59150   2.339  12.120   7.340  0.5197  0.6646 -0.4107
  449MOL0     C59151   2.461  12.202   7.384 -0.4674 -0.2513  0.3512
  449MOL0     C59152   2.494  12.326   7.291 -0.6127  0.2290 -0.2050
  449MOL0     N59153   2.520  12.455   7.373  0.3258 -0.0351 -0.0733
  449MOL0     C59154   2.428  12.506   7.470 -0.1627  0.1123  0.4458
  449MOL0     C59155   2.471  12.629   7.513  0.6413 -0.2046 -0.0117
  449MOL0     C59156   2.402  12.715   7.617  0.3270 -0.8635 -0.8264
  449MOL0     C59157   2.502  12.769   7.721 -0.5132 -0.4169 -0.6546
  449MOL0     C59158   2.450  12.812   7.858  0.1331 -0.0568  0.0989
  449MOL0     C59159   2.360  12.930   7.855 -0.0819 -0.2200  0.2583
  449MOL0     O59160   2.296  12.959   7.983  0.2525 -0.2175 -0.0161
  449MOL0     C59161   2.366  13.008   8.092 -0.8246  1.1845 -0.2438
  449MOL0     C59162   2.467  12.939   8.163 -0.5699 -0.5133  0.9684
  449MOL0     C59163   2.544  13.002   8.264  0.0984  0.1075 -0.3986
  449MOL0     C59164   2.508  13.135   8.301  0.6753  0.2418 -0.1321
  449MOL0     C59165   2.592  13.204   8.395 -0.7050  0.0392 -0.3329
  449MOL0     O59166   2.678  13.121   8.470  0.7411 -0.0332  1.3224
  449MOL0     C59167   2.777  13.176   8.544 -0.6892  0.4362  0.0972
  449MOL0     C59168   2.753  13.263   8.655 -0.6545  0.2589  0.4646
  449MOL0     C59169   2.859  13.311   8.731 -0.1299 -0.0391 -0.0345
  449MOL0     C59170   2.990  13.286   8.698  0.2795 -0.0134 -1.0323
  449MOL0     O59171   3.095  13.336   8.775 -0.0317  0.0409 -0.0440
  449MOL0     C59172   3.211  13.244   8.794 -0.5135  0.0204 -0.2090
  449MOL0     C59173   3.168  13.110   8.869 -0.3719 -0.5820  0.0114
  449MOL0     C59174   3.117  13.136   9.008 -0.1957  0.1682  0.0636
  449MOL0     C59175   3.218  13.203   9.103  1.1120  0.5969 -0.0083
  449MOL0     C59176   3.155  13.214   9.246  0.3003 -0.1839  0.8681
  449MOL0     C59177   3.234  13.268   9.359  0.3337 -1.0413 -0.4653
  449MOL0     C59178   3.148  13.270   9.488  0.5032  0.9518 -0.0868
  449MOL0     C59179   3.215  13.327   9.613 -0.1322 -0.0088  0.1952
  449MOL0    Cl59180   3.371  13.248   9.644  0.1319  0.1175  0.3205
  449MOL0     C59181   3.008  13.200   8.590 -0.1699  0.4061  0.3070
  449MOL0     C59182   2.908  13.141   8.518  0.5885 -0.6918 -0.0788
  449MOL0     O59183   2.601  13.327   8.392  0.5396 -0.2770  0.4845
  449MOL0     C59184   2.413  13.203   8.224  0.1468  0.5361 -0.0615
  449MOL0     C59185   2.339  13.139   8.130  0.3199  0.9325  0.6170
  449MOL0     N59186   2.588  12.658   7.448 -0.1488  0.1289  0.3043
  449MOL0     N59187   2.620  12.544   7.379  0.3013  0.0603  0.5244
  449MOL0     C59188   2.383  11.439   6.859 -0.5113  0.2168 -0.5232
  449MOL0     C59189   2.446  11.364   6.760 -0.3997 -0.5218 -0.2546
  449MOL0     C59190   2.496  11.118   6.413  0.1075  0.2066 -0.2732
  449MOL0     C59191   2.631  11.109   6.403 -0.3144 -0.4576 -0.3565
  449MOL0     C59192   2.682  10.989   6.358 -0.2502  1.4618  0.6986
  449MOL0     C59193   2.611  10.867   6.338 -0.5908  0.6159  0.2856
  449MOL0     O59194   2.681  10.747   6.324 -0.6974 -0.4701  0.6550
  449MOL0     C59195   2.614  10.626   6.288  0.2226 -0.2484 -0.9710
  449MOL0     C59196   2.726  10.533   6.237  0.1200 -0.9196 -1.0728
  449MOL0     C59197   2.685  10.389   6.195  0.7088 -0.0585  0.3979
  449MOL0     C59198   2.807  10.293   6.176 -0.5538 -0.8630  0.0036
  449MOL0     C59199   2.886  10.315   6.060 -0.1286  0.0465  0.7938
  449MOL0     C59200   2.960  10.330   5.965  0.2104  0.0213 -0.2781
  449MOL0     C59201   2.471  10.877   6.351 -1.3362  0.5964 -0.6284
  449MOL0     C59202   2.417  11.005   6.382  0.4359  0.2399 -0.5069
  449MOL0     H59203   2.366  11.530   6.487  1.3312  0.6600 -0.0679
  449MOL0     H59204   2.232  11.661   6.665 -1.3702 -1.3349 -1.5697
  449MOL0     H59205   2.080  11.606   6.937 -0.0076 -0.1522 -0.6598
  449MOL0     H59206   2.142  11.747   6.830  0.7557 -1.7561 -0.7904
  449MOL0     H59207   2.141  11.725   7.134 -1.1837 -3.0764 -2.4274
  449MOL0     H59208   2.030  11.827   7.037 -0.2315  0.6167  1.2093
  449MOL0     H59209   2.212  11.962   6.956  0.0078  0.1397 -0.1604
  449MOL0     H59210   2.335  11.867   7.038  1.3452  0.1770  2.4446
  449MOL0     H59211   2.134  12.055   7.195  2.5038  2.9247 -0.5602
  449MOL0     H59212   2.207  11.915   7.261 -0.4250  1.7294  1.5067
  449MOL0     H59213   2.325  12.165   7.117  1.2298 -0.5878 -0.5767
  449MOL0     H59214   2.439  12.042   7.159  1.1520  0.7702 -1.8068
  449MOL0     H59215   2.328  12.029   7.399 -3.8176  0.4465 -1.2154
  449MOL0     H59216   2.250  12.175   7.373  0.0696 -0.8408  1.0022
  449MOL0     H59217   2.459  12.232   7.490 -1.5318 -1.0606  0.5794
  449MOL0     H59218   2.541  12.129   7.394 -0.7015 -0.5426  0.1002
  449MOL0     H59219   2.406  12.365   7.240 -0.7532 -0.0978 -0.2158
  449MOL0     H59220   2.580  12.305   7.226  0.6289  1.5865  0.9295
  449MOL0     H59221   2.338  12.451   7.497  1.0460 -1.3523  1.6213
  449MOL0     H59222   2.325  12.659   7.671  1.8534 -0.5796  1.8295
  449MOL0     H59223   2.345  12.794   7.568  0.9384  0.3380  0.3381
  449MOL0     H59224   2.549  12.855   7.673  0.4685  0.3869  1.5993
  449MOL0     H59225   2.584  12.700   7.741  1.2448  1.1651 -2.1145
  449MOL0     H59226   2.389  12.733   7.903 -2.6362 -0.8553 -4.3992
  449MOL0     H59227   2.534  12.832   7.926 -0.0314  0.2641  0.2078
  449MOL0     H59228   2.278  12.905   7.787 -1.1765 -1.0561  1.7992
  449MOL0     H59229   2.415  13.018   7.820  0.3499  0.1338  1.7533
  449MOL0     H59230   2.482  12.833   8.148  0.7540 -0.0716 -1.4182
  449MOL0     H59231   2.620  12.952   8.325 -1.1318  1.8661  2.8386
  449MOL0     H59232   2.652  13.300   8.670 -1.1337 -0.6613 -0.3438
  449MOL0     H59233   2.840  13.363   8.824 -1.0830 -0.0477 -0.2171
  449MOL0     H59234   3.283  13.295   8.858 -0.9479 -1.0773  1.2337
  449MOL0     H59235   3.260  13.224   8.698 -0.3451 -1.1667  0.1055
  449MOL0     H59236   3.264  13.058   8.877  0.3946  0.6857 -0.5452
  449MOL0     H59237   3.092  13.060   8.809 -0.9426  0.6964 -0.3739
  449MOL0     H59238   3.099  13.036   9.047  1.1130  0.3114  1.1243
  449MOL0     H59239   3.022  13.190   8.999 -1.4872 -1.8876  0.7714
  449MOL0     H59240   3.308  13.141   9.095 -2.2967 -4.7306 -3.0550
  449MOL0     H59241   3.230  13.300   9.054 -3.3870  1.6672  0.6490
  449MOL0     H59242   3.117  13.117   9.278 -0.4228 -0.5522 -0.9712
  449MOL0     H59243   3.075  13.288   9.242  2.0005  1.7057  0.0774
  449MOL0     H59244   3.272  13.369   9.343 -2.7490  0.2097 -0.6795
  449MOL0     H59245   3.324  13.209   9.378  0.9783  0.1517  0.2711
  449MOL0     H59246   3.052  13.320   9.479  0.1927 -0.0185 -2.8962
  449MOL0     H59247   3.145  13.164   9.515  0.8177  1.6034  2.8724
  449MOL0     H59248   3.157  13.322   9.705 -2.3589 -2.0514 -1.2021
  449MOL0     H59249   3.236  13.434   9.601  0.0690  0.2356  2.3536
  449MOL0     H59250   3.100  13.177   8.537  0.9170  0.1780  2.1825
  449MOL0     H59251   2.939  13.084   8.431  1.6973 -0.1057 -0.0874
  449MOL0     H59252   2.401  13.308   8.248  2.3339  0.5977  1.0019
  449MOL0     H59253   2.265  13.192   8.070  2.9521  1.0680 -2.8165
  449MOL0     H59254   2.395  11.417   6.965  0.5585  2.1423 -0.1986
  449MOL0     H59255   2.503  11.278   6.795 -1.5563 -0.1846  2.7169
  449MOL0     H59256   2.696  11.195   6.411 -2.0120  1.0285 -1.8121
  449MOL0     H59257   2.788  10.993   6.335 -0.0681  1.5862  1.5211
  449MOL0     H59258   2.538  10.625   6.209 -0.1130  0.4807 -0.6703
  449MOL0     H59259   2.578  10.587   6.384 -1.8523  2.2845 -0.6271
  449MOL0     H59260   2.778  10.580   6.153  3.5157 -0.8539  0.8712
  449MOL0     H59261   2.797  10.533   6.320  0.4308  3.3770 -1.1266
  449MOL0     H59262   2.621  10.383   6.107 -0.3498 -3.4882  1.2622
  449MOL0     H59263   2.615  10.346   6.268 -2.3991  1.3797 -1.4971
  449MOL0     H59264   2.860  10.278   6.271 -3.1319 -0.0440  1.6841
  449MOL0     H59265   2.765  10.193   6.161  1.5562 -1.6252 -1.2214
  449MOL0     H59266   3.017  10.353   5.878 -1.7330  0.0116 -1.6045
  449MOL0     H59267   2.409  10.788   6.353 -0.7165  0.1057 -1.9090
  449MOL0     H59268   2.309  11.011   6.384  0.4833  1.1364  0.0839
  450MOL0     O59269   0.327  10.137   4.701  0.2828 -0.9231  0.1093
  450MOL0     C59270   0.329  10.016   4.689  0.5903  0.3154  0.8670
  450MOL0     O59271   0.421   9.952   4.609  0.1118  0.2310 -0.3266
  450MOL0     C59272   0.529  10.013   4.547  0.8165  0.0865 -0.7846
  450MOL0     C59273   0.618  10.087   4.625  0.2239  0.4443 -0.4026
  450MOL0     C59274   0.735  10.146   4.575  0.3676  0.1405  0.1498
  450MOL0     C59275   0.769  10.130   4.437  0.2245  0.2042  0.4092
  450MOL0     O59276   0.867  10.190   4.368  0.4111 -0.2586 -0.1884
  450MOL0     C59277   0.976  10.242   4.457  0.1009 -0.0559  0.1624
  450MOL0     C59278   0.966  10.395   4.475  0.7343 -1.2106 -0.6409
  450MOL0     C59279   0.957  10.467   4.336 -0.1445  0.7722  0.8322
  450MOL0     C59280   0.971  10.618   4.337 -0.5957  0.1010  0.1076
  450MOL0     C59281   1.099  10.656   4.406  0.6555 -0.3976 -0.2720
  450MOL0     C59282   1.228  10.590   4.353 -0.0779 -0.2148  0.0356
  450MOL0     C59283   1.357  10.675   4.386  0.0481  0.6418  0.4855
  450MOL0     C59284   1.410  10.653   4.531  0.4098  0.4791  0.7710
  450MOL0     N59285   1.458  10.514   4.548 -0.0031 -0.1497  0.0197
  450MOL0     C59286   1.592  10.489   4.531 -0.1224  0.9581  0.7984
  450MOL0     C59287   1.609  10.355   4.544  0.1631 -0.0501  0.2828
  450MOL0     C59288   1.731  10.283   4.520 -0.0045  0.8646 -0.0512
  450MOL0     C59289   1.693  10.138   4.478 -0.4760 -0.7002 -1.1279
  450MOL0     C59290   1.827  10.067   4.478 -0.3079  0.8572 -0.4615
  450MOL0     C59291   1.808   9.925   4.415 -0.3977 -0.3399 -0.3178
  450MOL0     O59292   1.938   9.873   4.400 -0.8416 -0.4890 -0.3349
  450MOL0     C59293   1.936   9.739   4.373  0.2630 -0.6869  0.8914
  450MOL0     C59294   1.911   9.710   4.244  0.0788  0.1389  0.0672
  450MOL0     C59295   1.898   9.580   4.198 -0.1553 -0.9543 -0.7467
  450MOL0     C59296   1.928   9.479   4.289 -0.0225 -1.2624 -0.7598
  450MOL0     C59297   1.916   9.341   4.251 -0.1012  0.0671  0.0726
  450MOL0     O59298   1.909   9.253   4.357  0.1447 -0.9447  0.4964
  450MOL0     C59299   1.918   9.127   4.330  0.3875 -0.1354 -0.3182
  450MOL0     C59300   1.824   9.042   4.392 -0.3408  0.3419  0.3675
  450MOL0     C59301   1.831   8.901   4.387  0.5712 -0.1933 -0.4846
  450MOL0     C59302   1.936   8.849   4.311 -0.6949  0.4167  1.1656
  450MOL0     O59303   1.952   8.711   4.296 -0.5907  0.2329  1.0055
  450MOL0     C59304   2.005   8.650   4.171 -0.4721 -0.3492  0.0848
  450MOL0     C59305   1.963   8.505   4.164 -0.2253 -0.1372 -0.8165
  450MOL0     C59306   2.013   8.442   4.289  1.2809 -0.3529  0.0178
  450MOL0     C59307   2.161   8.438   4.299  0.6771 -0.9709  0.7004
  450MOL0     C59308   2.211   8.363   4.415 -0.1155 -0.3210  0.1423
  450MOL0     C59309   2.192   8.212   4.395 -0.1825  0.1704  0.3810
  450MOL0     C59310   2.233   8.124   4.504  0.6767  1.1247 -0.0027
  450MOL0     C59311   2.193   7.977   4.483  0.5253  0.6610  0.6567
  450MOL0    Cl59312   2.295   7.919   4.348 -0.0883 -0.0763 -0.4528
  450MOL0     C59313   2.024   8.928   4.236  0.1012  0.0169  0.4163
  450MOL0     C59314   2.019   9.067   4.255  0.0407  0.2082 -0.0324
  450MOL0     O59315   1.930   9.313   4.138 -0.2189  0.4208  0.2181
  450MOL0     C59316   1.962   9.504   4.428  0.4520 -1.3413  0.1018
  450MOL0     C59317   1.961   9.641   4.467  0.2133  0.3792 -1.3476
  450MOL0     N59318   1.484  10.299   4.574 -0.5558 -0.1671 -0.5246
  450MOL0     N59319   1.397  10.398   4.584  0.4884 -0.6147  0.5126
  450MOL0     C59320   0.673  10.058   4.359 -1.0747 -0.3446  0.3873
  450MOL0     C59321   0.553   9.993   4.409 -1.2539  0.1919 -0.7029
  450MOL0     C59322   0.232   9.939   4.757  0.7700 -0.0221 -1.4672
  450MOL0     C59323   0.205   9.804   4.730  0.2866 -0.3899 -0.2219
  450MOL0     C59324   0.097   9.734   4.791  0.5798  0.2590 -1.1141
  450MOL0     C59325   0.005   9.795   4.878 -0.0642  0.0151  0.4938
  450MOL0     O59326  -0.101   9.728   4.931  0.0062 -0.2170 -0.2384
  450MOL0     C59327  -0.122   9.585   4.898  0.0538 -0.2085 -0.8790
  450MOL0     C59328  -0.256   9.537   4.962  0.0558  0.3138  0.0074
  450MOL0     C59329  -0.381   9.580   4.888  0.5259  0.0335 -0.7516
  450MOL0     C59330  -0.511   9.519   4.933 -0.1594 -0.4527 -0.5328
  450MOL0     C59331  -0.633   9.598   4.898 -0.9384 -0.4917  0.4497
  450MOL0     C59332  -0.740   9.644   4.853  0.4085  0.8722  0.1290
  450MOL0     C59333   0.032   9.936   4.906 -0.4492  0.1431 -0.0182
  450MOL0     C59334   0.150  10.004   4.851 -0.2283  0.5639  0.8912
  450MOL0     H59335   0.598  10.101   4.730  0.8422  1.9792 -0.4618
  450MOL0     H59336   0.794  10.211   4.639 -1.9285  2.3966  0.1480
  450MOL0     H59337   1.075  10.228   4.412  0.5967  0.5082  1.0550
  450MOL0     H59338   0.980  10.179   4.547 -0.0215 -0.1371  0.1110
  450MOL0     H59339   1.055  10.427   4.531  0.2533 -0.7023 -0.1581
  450MOL0     H59340   0.875  10.429   4.524  1.2462  1.5435 -1.4288
  450MOL0     H59341   0.859  10.446   4.291  0.6493  3.0299 -2.3138
  450MOL0     H59342   1.029  10.432   4.261 -0.7074 -3.9835  2.1775
  450MOL0     H59343   0.981  10.648   4.233 -1.0737  3.0819  0.8314
  450MOL0     H59344   0.888  10.669   4.388 -3.0177 -0.3847 -3.0453
  450MOL0     H59345   1.093  10.642   4.514 -1.2998  0.2581 -0.2419
  450MOL0     H59346   1.106  10.765   4.398  1.2983 -0.1967  2.2429
  450MOL0     H59347   1.235  10.582   4.244  5.5687  0.6510  0.0404
  450MOL0     H59348   1.232  10.494   4.404  0.6732  0.3528  1.0794
  450MOL0     H59349   1.448  10.654   4.330  0.3843  2.2596  0.3593
  450MOL0     H59350   1.334  10.779   4.360 -3.6899 -0.3568 -0.7693
  450MOL0     H59351   1.321  10.678   4.590 -1.6959 -2.5140 -0.8794
  450MOL0     H59352   1.486  10.730   4.552 -0.0513  1.8886 -2.2306
  450MOL0     H59353   1.658  10.567   4.494 -0.5415  1.0460  0.2368
  450MOL0     H59354   1.789  10.281   4.613 -1.8074 -2.5864  1.1896
  450MOL0     H59355   1.804  10.330   4.454  1.8882 -0.2559  1.1609
  450MOL0     H59356   1.646  10.130   4.379 -1.3740 -1.6205 -0.6498
  450MOL0     H59357   1.639  10.076   4.551 -0.4288  1.1933  0.6089
  450MOL0     H59358   1.895  10.134   4.424  1.3767  0.9821  1.6617
  450MOL0     H59359   1.872  10.056   4.577 -3.8458 -0.5847  1.1651
  450MOL0     H59360   1.772   9.949   4.315 -1.9804 -1.7340 -0.1209
  450MOL0     H59361   1.742   9.856   4.469 -2.7296  1.0792 -1.2295
  450MOL0     H59362   1.912   9.803   4.187  2.5134  0.8982  1.2009
  450MOL0     H59363   1.886   9.552   4.094 -0.9432 -2.9712 -0.1399
  450MOL0     H59364   1.749   9.089   4.455  0.4167 -3.4366  4.6213
  450MOL0     H59365   1.758   8.844   4.444  2.3039 -2.3874 -0.2912
  450MOL0     H59366   2.115   8.654   4.175 -0.2871 -1.2742 -2.5197
  450MOL0     H59367   1.973   8.705   4.082 -2.6260 -0.4027  0.7750
  450MOL0     H59368   2.007   8.443   4.085  0.2473 -0.3805 -0.3684
  450MOL0     H59369   1.855   8.499   4.149 -0.2630 -5.6373 -0.1709
  450MOL0     H59370   1.967   8.342   4.293  0.7670 -0.3698 -3.1551
  450MOL0     H59371   1.965   8.487   4.376 -0.1285 -0.5749 -0.6060
  450MOL0     H59372   2.209   8.409   4.205  0.9513  0.0149  0.5233
  450MOL0     H59373   2.181   8.545   4.314 -1.5305 -0.0400 -2.0927
  450MOL0     H59374   2.166   8.395   4.510  1.1383 -0.8473  0.9473
  450MOL0     H59375   2.314   8.396   4.430 -1.4648  3.3451  2.8654
  450MOL0     H59376   2.245   8.176   4.307 -2.2728 -2.4132  0.0563
  450MOL0     H59377   2.084   8.196   4.390  0.2966 -3.7158 -0.5769
  450MOL0     H59378   2.342   8.116   4.510  0.5681 -2.4678 -0.3335
  450MOL0     H59379   2.183   8.164   4.592 -0.9996 -2.3881  0.8177
  450MOL0     H59380   2.091   7.970   4.445 -0.0183 -0.1161  2.1930
  450MOL0     H59381   2.200   7.916   4.574 -3.4828  1.7917  1.9383
  450MOL0     H59382   2.107   8.896   4.174  1.6321  3.1848  0.6496
  450MOL0     H59383   2.092   9.127   4.203 -1.1237 -0.2600 -2.3093
  450MOL0     H59384   1.978   9.433   4.508 -1.3797 -2.1869 -0.2280
  450MOL0     H59385   1.986   9.665   4.570 -0.3916 -2.7086 -0.3886
  450MOL0     H59386   0.695  10.068   4.253 -1.7659 -2.1625  0.0425
  450MOL0     H59387   0.482   9.930   4.357  1.9088 -1.5607 -3.2795
  450MOL0     H59388   0.263   9.740   4.664 -1.2589 -3.1549  0.9279
  450MOL0     H59389   0.091   9.636   4.746  1.5062  0.2478 -1.2381
  450MOL0     H59390  -0.032   9.528   4.924 -1.6456 -2.3907  0.6412
  450MOL0     H59391  -0.141   9.574   4.791 -1.7057 -2.8507 -0.3854
  450MOL0     H59392  -0.251   9.427   4.965  0.7130  0.2898 -1.1510
  450MOL0     H59393  -0.258   9.574   5.065 -0.5972  0.7059 -0.1478
  450MOL0     H59394  -0.385   9.575   4.779  1.9777 -0.2297 -0.8173
  450MOL0     H59395  -0.387   9.686   4.914 -0.0890 -0.7644  2.9348
  450MOL0     H59396  -0.516   9.423   4.881  1.4493 -1.1712  0.5861
  450MOL0     H59397  -0.501   9.497   5.039 -0.1210  1.0114 -0.2054
  450MOL0     H59398  -0.828   9.692   4.815  1.2581  1.4344 -1.2033
  450MOL0     H59399  -0.023   9.986   4.985 -0.3799 -2.3097  1.6755
  450MOL0     H59400   0.180  10.099   4.894 -2.9268  0.0377  4.3358
  451MOL0     O59401   3.659   0.242   2.363 -0.2833  0.2894  0.4413
  451MOL0     C59402   3.695   0.126   2.376  0.0316 -0.3625 -0.6827
  451MOL0     O59403   3.658   0.047   2.481  0.4720  0.1954  0.3936
  451MOL0     C59404   3.530   0.056   2.535 -0.3440  0.3383 -0.6790
  451MOL0     C59405   3.431   0.100   2.461  0.4824 -0.3767 -0.0112
  451MOL0     C59406   3.296   0.106   2.500  0.6974 -0.2002  0.3827
  451MOL0     C59407   3.264   0.061   2.631  0.8693 -0.1804  0.8975
  451MOL0     O59408   3.131   0.062   2.678  0.4553  0.5725  0.1310
  451MOL0     C59409   3.113   0.060   2.819 -0.0079  0.2418  0.7885
  451MOL0     C59410   2.993   0.146   2.853  0.5027  0.0650  0.0066
  451MOL0     C59411   2.867   0.111   2.757 -0.5708 -0.5126 -0.9141
  451MOL0     C59412   2.738   0.171   2.809 -0.4437 -0.1048 -0.8036
  451MOL0     C59413   2.666   0.126   2.941  0.2338 -0.6294  0.1505
  451MOL0     C59414   2.520   0.163   2.950 -0.0643  0.4452 -0.1175
  451MOL0     C59415   2.451   0.131   3.078  0.7048 -0.0567 -0.2422
  451MOL0     C59416   2.308   0.102   3.060  0.4386  0.1641  0.2467
  451MOL0     N59417   2.244   0.046   3.178  0.0214  0.2732 -0.1036
  451MOL0     C59418   2.215   0.116   3.299  0.1586 -0.7272  0.2647
  451MOL0     C59419   2.199   0.020   3.393  0.2619 -0.3028 -0.4729
  451MOL0     C59420   2.156   0.018   3.546  0.4449  0.0599  0.2135
  451MOL0     C59421   2.004  -0.015   3.565 -0.5372  0.2396  0.2807
  451MOL0     C59422   1.956   0.021   3.702  0.7401  0.1181  0.5823
  451MOL0     C59423   1.812  -0.007   3.722  0.8146 -0.4033 -0.0265
  451MOL0     O59424   1.792  -0.016   3.867  0.3636 -0.1032 -0.2906
  451MOL0     C59425   1.671   0.006   3.915  0.8098  0.2068  0.5690
  451MOL0     C59426   1.547   0.012   3.835 -0.9464  0.1729 -0.1213
  451MOL0     C59427   1.427   0.042   3.891  0.6152  0.3532  0.2254
  451MOL0     C59428   1.414   0.061   4.026 -0.6249 -0.3687 -0.7777
  451MOL0     C59429   1.286   0.056   4.102 -0.6729  0.3470 -1.0535
  451MOL0     O59430   1.291   0.091   4.233 -0.0103  0.2131 -0.6361
  451MOL0     C59431   1.178   0.082   4.316 -1.2493 -0.4707 -1.2102
  451MOL0     C59432   1.041   0.074   4.290 -0.0840  0.4341 -0.6694
  451MOL0     C59433   0.952   0.063   4.402 -0.4565 -0.1743  0.5850
  451MOL0     C59434   0.996   0.082   4.534 -0.0522  0.0967 -0.2028
  451MOL0     O59435   0.913   0.071   4.642  0.2041 -0.0007  0.2959
  451MOL0     C59436   0.866  -0.064   4.675 -0.0054  0.4915 -0.4415
  451MOL0     C59437   0.726  -0.066   4.721  1.0078  1.2179 -0.4278
  451MOL0     C59438   0.632  -0.028   4.606  0.4648 -0.3302 -0.4671
  451MOL0     C59439   0.479  -0.005   4.652 -0.1870  0.0339  0.8268
  451MOL0     C59440   0.386   0.062   4.548  1.1157  0.4854 -0.5305
  451MOL0     C59441   0.257   0.095   4.616  0.5060 -0.2795  1.2079
  451MOL0     C59442   0.137   0.078   4.527  0.3074 -0.5793  0.3657
  451MOL0     C59443   0.036   0.188   4.566 -0.2047  0.3616 -0.7045
  451MOL0    Cl59444  -0.124   0.157   4.486 -0.3646 -0.6051  0.2028
  451MOL0     C59445   1.133   0.111   4.564 -0.0443 -0.8340  0.2524
  451MOL0     C59446   1.224   0.102   4.455  0.2781 -0.2707  0.5866
  451MOL0     O59447   1.184   0.015   4.043 -0.2562 -0.0912  0.3314
  451MOL0     C59448   1.533   0.058   4.101 -0.3071 -0.2358 -0.5973
  451MOL0     C59449   1.655   0.037   4.046  0.1822 -0.7242 -0.6411
  451MOL0     N59450   2.213  -0.106   3.339 -0.2011 -1.1490  0.0917
  451MOL0     N59451   2.244  -0.085   3.217 -0.0120 -0.4639  0.1460
  451MOL0     C59452   3.370   0.027   2.710  0.3523  0.7652  0.0087
  451MOL0     C59453   3.504   0.020   2.665  0.4308  0.0396 -0.0252
  451MOL0     C59454   3.821   0.092   2.315 -0.3965 -0.2172  0.0022
  451MOL0     C59455   3.901  -0.010   2.365  0.0919  0.6238  0.3728
  451MOL0     C59456   4.018  -0.061   2.297  0.5994 -0.3049 -0.5299
  451MOL0     C59457   4.068  -0.006   2.176  0.8161 -0.3171  0.3306
  451MOL0     O59458   4.171  -0.065   2.105 -1.3863  0.8382 -0.0457
  451MOL0     C59459   4.183  -0.016   1.972 -0.1781 -0.6606 -1.0669
  451MOL0     C59460   4.275  -0.108   1.887  0.8697 -0.1670 -0.8012
  451MOL0     C59461   4.275  -0.050   1.751 -0.6981 -0.0668 -0.5673
  451MOL0     C59462   4.366  -0.133   1.660 -1.1251  0.3112  0.2526
  451MOL0     C59463   4.505  -0.117   1.699 -0.3774  0.4328 -0.6844
  451MOL0     C59464   4.619  -0.126   1.742 -0.0157  0.0854  0.4230
  451MOL0     C59465   3.983   0.101   2.124 -0.0187  0.7357 -0.4600
  451MOL0     C59466   3.871   0.149   2.194  0.4084 -0.0265  0.9221
  451MOL0     H59467   3.451   0.135   2.360  0.3039 -1.3215 -0.3787
  451MOL0     H59468   3.226   0.136   2.422 -0.3964 -2.8656  0.2408
  451MOL0     H59469   3.192   0.122   2.862  1.5943  1.0114 -2.9086
  451MOL0     H59470   3.108  -0.043   2.854 -2.0275 -0.0535 -0.2237
  451MOL0     H59471   3.018   0.251   2.837 -0.0879  0.2903  0.5699
  451MOL0     H59472   2.953   0.126   2.953 -0.2419 -2.4819 -0.7211
  451MOL0     H59473   2.854   0.002   2.754 -0.1299 -0.6204  0.6223
  451MOL0     H59474   2.899   0.150   2.660  0.8303  1.0383  0.1290
  451MOL0     H59475   2.758   0.276   2.828  2.9889 -1.0139  1.5020
  451MOL0     H59476   2.667   0.170   2.726 -1.0128 -1.1331 -0.3296
  451MOL0     H59477   2.719   0.162   3.030 -1.5536  2.5234  0.0892
  451MOL0     H59478   2.657   0.017   2.942  0.1700 -0.6580  2.3346
  451MOL0     H59479   2.482   0.100   2.869 -0.4761 -2.3775  2.1005
  451MOL0     H59480   2.500   0.267   2.921 -1.7151  0.4105  0.7489
  451MOL0     H59481   2.508   0.052   3.128  0.1234  0.4150  1.2217
  451MOL0     H59482   2.458   0.217   3.146 -2.3121  1.3780 -1.5579
  451MOL0     H59483   2.287   0.026   2.985 -1.7483 -1.3345  2.2162
  451MOL0     H59484   2.257   0.196   3.036  2.3339  0.9131 -1.0529
  451MOL0     H59485   2.192   0.221   3.312 -0.2964 -0.8188  0.2123
  451MOL0     H59486   2.168   0.110   3.604  2.8787  0.3309 -0.6123
  451MOL0     H59487   2.218  -0.052   3.601 -1.3087 -0.7508  1.2409
  451MOL0     H59488   1.984  -0.121   3.550 -1.7339  0.5308 -0.3288
  451MOL0     H59489   1.939   0.041   3.496  0.1363 -0.5983 -1.0863
  451MOL0     H59490   2.020  -0.032   3.773  2.6360 -0.6305 -1.5629
  451MOL0     H59491   1.964   0.126   3.729 -0.4994  0.2841  0.3581
  451MOL0     H59492   1.783  -0.103   3.679 -1.2311 -0.6071  1.6505
  451MOL0     H59493   1.752   0.070   3.673  3.0490  1.2974 -0.2568
  451MOL0     H59494   1.548  -0.010   3.728 -2.5485  1.7909 -0.5307
  451MOL0     H59495   1.341   0.033   3.826  0.6068 -1.0650  0.3877
  451MOL0     H59496   1.001   0.066   4.190 -0.6209 -2.3530 -0.3290
  451MOL0     H59497   0.849   0.029   4.394 -0.0793 -1.2223 -0.0945
  451MOL0     H59498   0.926  -0.111   4.755 -0.1359 -1.4643 -1.4348
  451MOL0     H59499   0.883  -0.134   4.593 -0.1118  2.3976 -2.1454
  451MOL0     H59500   0.713   0.008   4.801 -0.3492  1.9493 -1.2722
  451MOL0     H59501   0.702  -0.166   4.758  2.7211  1.4283  1.4184
  451MOL0     H59502   0.632  -0.113   4.537 -0.7142 -0.2086 -0.6274
  451MOL0     H59503   0.676   0.051   4.545 -1.0611  0.8971 -0.0321
  451MOL0     H59504   0.439  -0.105   4.676  0.5086 -0.7003 -0.9082
  451MOL0     H59505   0.491   0.053   4.744  3.7046  3.2999 -1.4467
  451MOL0     H59506   0.371  -0.006   4.464 -0.9440  1.1353 -0.7486
  451MOL0     H59507   0.423   0.156   4.505  0.3838  1.3654  0.6802
  451MOL0     H59508   0.267   0.200   4.647 -1.0011 -0.2060  1.5102
  451MOL0     H59509   0.242   0.036   4.707 -1.9250  0.1239  1.1412
  451MOL0     H59510   0.155   0.086   4.420 -0.6861 -0.6137  0.1899
  451MOL0     H59511   0.094  -0.022   4.536 -0.8569 -0.0631  0.7304
  451MOL0     H59512   0.077   0.288   4.549  2.2204  0.2184  3.2145
  451MOL0     H59513   0.022   0.182   4.674 -1.2395  0.5042 -0.8162
  451MOL0     H59514   1.163   0.133   4.666 -2.9046  2.0736  0.6291
  451MOL0     H59515   1.330   0.121   4.463  0.6659 -0.5363 -2.6027
  451MOL0     H59516   1.530   0.079   4.208 -1.5832 -0.0951 -0.6410
  451MOL0     H59517   1.750   0.042   4.098 -0.8628 -0.8435  1.3812
  451MOL0     H59518   3.353  -0.018   2.807  0.0659  0.3915 -0.2117
  451MOL0     H59519   3.585  -0.028   2.720  0.1756  0.3706  0.6523
  451MOL0     H59520   3.875  -0.060   2.458 -2.3406  0.7441 -0.1690
  451MOL0     H59521   4.067  -0.155   2.322  1.2629 -0.1230 -1.1511
  451MOL0     H59522   4.236   0.077   1.992  1.0128 -1.5279 -0.0242
  451MOL0     H59523   4.086  -0.010   1.923 -0.5542  0.3534 -0.2222
  451MOL0     H59524   4.376  -0.090   1.926 -0.0742  0.7633  1.3428
  451MOL0     H59525   4.249  -0.214   1.888 -1.8246  0.4145  1.3809
  451MOL0     H59526   4.310   0.052   1.771 -1.6070 -0.1029  1.4652
  451MOL0     H59527   4.173  -0.048   1.713 -0.8892  1.4540 -0.0715
  451MOL0     H59528   4.348  -0.240   1.651  0.9023 -0.0143 -0.4998
  451MOL0     H59529   4.368  -0.088   1.560  1.5558  0.2921  0.2054
  451MOL0     H59530   4.723  -0.132   1.770  0.0309 -4.8771  0.0891
  451MOL0     H59531   3.982   0.153   2.029 -0.0106  0.7153 -0.4713
  451MOL0     H59532   3.814   0.229   2.148  3.3058  1.3451 -0.5900
  452MOL0     O59533   3.080   1.721   3.798 -0.4355  0.7117 -0.5861
  452MOL0     C59534   2.999   1.708   3.702 -0.2739  0.1395 -0.5393
  452MOL0     O59535   3.008   1.772   3.581 -0.4341 -0.0709  0.9188
  452MOL0     C59536   3.123   1.838   3.538 -0.2153 -0.6476  0.7027
  452MOL0     C59537   3.253   1.839   3.592  0.8240 -0.1405 -0.3815
  452MOL0     C59538   3.359   1.900   3.521 -0.2324 -0.5941  0.4612
  452MOL0     C59539   3.341   1.980   3.409  0.6454 -0.6262 -0.1599
  452MOL0     O59540   3.431   2.059   3.343  0.3832  0.0866  0.4755
  452MOL0     C59541   3.507   1.987   3.242 -0.6437  0.5731 -0.2464
  452MOL0     C59542   3.652   2.045   3.235  0.2482 -0.0045 -0.0447
  452MOL0     C59543   3.749   1.952   3.159  0.4650 -0.2153  0.5677
  452MOL0     C59544   3.895   1.986   3.182  1.1518  0.8983 -0.0093
  452MOL0     C59545   3.985   1.921   3.086 -0.4208  0.8472  0.4215
  452MOL0     C59546   4.125   1.953   3.128 -0.8426  0.1555  0.1808
  452MOL0     C59547   4.223   1.917   3.020 -0.8315  0.0345  0.0031
  452MOL0     C59548   4.362   1.954   3.059 -0.2260  0.4860  0.0653
  452MOL0     N59549   4.468   1.881   2.993 -0.0489  0.0900  0.8306
  452MOL0     C59550   4.547   1.924   2.899 -0.3028 -0.1431 -0.3515
  452MOL0     C59551   4.634   1.819   2.868  0.0370  0.3980 -1.0410
  452MOL0     C59552   4.739   1.823   2.757 -0.1452 -0.0257 -0.5552
  452MOL0     C59553   4.850   1.720   2.796  0.8444 -0.3028 -0.0130
  452MOL0     C59554   4.976   1.711   2.713 -0.6466  0.2717 -0.1144
  452MOL0     C59555   5.097   1.640   2.773  0.7727 -0.5617 -0.7366
  452MOL0     O59556   5.065   1.511   2.830 -0.2953  0.0712 -0.1349
  452MOL0     C59557   5.108   1.416   2.743 -0.7488  0.1441 -0.1128
  452MOL0     C59558   5.241   1.368   2.741 -0.5602 -0.1518  0.1664
  452MOL0     C59559   5.267   1.240   2.696  0.0128 -0.2121  0.0016
  452MOL0     C59560   5.171   1.162   2.650  0.9304 -0.0761  0.1557
  452MOL0     C59561   5.186   1.021   2.612 -0.6244  1.2676  0.9648
  452MOL0     O59562   5.085   0.947   2.569 -0.4772  0.1901 -0.1335
  452MOL0     C59563   5.092   0.807   2.541  0.5441 -0.1810  0.2260
  452MOL0     C59564   5.172   0.710   2.601 -0.3857  0.8822 -0.1609
  452MOL0     C59565   5.180   0.582   2.536  1.1347  0.4056  0.5325
  452MOL0     C59566   5.092   0.539   2.441 -0.1305  0.0374  1.0973
  452MOL0     O59567   5.104   0.403   2.420  0.3263  0.3359 -0.0454
  452MOL0     C59568   5.011   0.343   2.331  0.3929  0.8275  0.0035
  452MOL0     C59569   5.021   0.190   2.366 -0.1389  0.1503 -0.1795
  452MOL0     C59570   5.154   0.134   2.316  0.5394  0.2668  0.0235
  452MOL0     C59571   5.167  -0.022   2.308 -0.1851 -1.0250 -0.8031
  452MOL0     C59572   5.312  -0.062   2.266 -0.4169 -0.0711  0.5020
  452MOL0     C59573   5.334  -0.213   2.250  1.1086  0.6601  0.3596
  452MOL0     C59574   5.382  -0.272   2.377  0.1002  0.6173 -0.2154
  452MOL0     C59575   5.369  -0.426   2.368 -0.7770  0.2956 -0.6491
  452MOL0    Cl59576   5.463  -0.481   2.239  0.2762 -0.1706  0.0015
  452MOL0     C59577   5.009   0.637   2.386  0.3671 -0.0216  0.8437
  452MOL0     C59578   5.011   0.769   2.436  0.2771  0.3757 -0.2505
  452MOL0     O59579   5.305   0.985   2.610  1.0377 -0.5534  0.9450
  452MOL0     C59580   5.039   1.208   2.646 -0.1302  0.5313 -1.0467
  452MOL0     C59581   5.011   1.336   2.686  0.6545  0.1403 -0.6724
  452MOL0     N59582   4.605   1.717   2.956  0.7042  0.1688  0.2671
  452MOL0     N59583   4.500   1.759   3.031 -0.2495  0.5445  0.9413
  452MOL0     C59584   3.213   1.965   3.352 -1.0038 -0.9172 -0.5735
  452MOL0     C59585   3.104   1.908   3.418  0.1572 -0.4551 -0.4587
  452MOL0     C59586   2.880   1.629   3.743 -0.3318 -1.0482 -0.5176
  452MOL0     C59587   2.781   1.607   3.649  1.1888 -0.2282 -0.8186
  452MOL0     C59588   2.660   1.548   3.684 -0.8074 -0.1234  1.0161
  452MOL0     C59589   2.635   1.500   3.812 -1.0225 -0.4509 -0.3801
  452MOL0     O59590   2.517   1.449   3.854 -0.5605  0.0816  0.4798
  452MOL0     C59591   2.485   1.317   3.804 -0.3135  0.1843  0.2155
  452MOL0     C59592   2.392   1.246   3.909  0.0023  0.2291 -0.1139
  452MOL0     C59593   2.245   1.278   3.894  0.8769  1.1287 -0.0644
  452MOL0     C59594   2.183   1.263   4.035  0.5740  0.2907  1.3482
  452MOL0     C59595   2.033   1.264   4.023 -0.8693 -0.0961  0.8259
  452MOL0     C59596   1.909   1.260   4.024 -0.1449 -0.6649 -0.0080
  452MOL0     C59597   2.738   1.511   3.906  0.1388 -0.0661 -0.5105
  452MOL0     C59598   2.850   1.584   3.876 -0.0978  0.4638 -0.1779
  452MOL0     H59599   3.281   1.781   3.680  3.3954 -2.9967 -2.8221
  452MOL0     H59600   3.455   1.900   3.571  0.1566  0.5563 -0.2494
  452MOL0     H59601   3.458   2.013   3.148 -1.5278  0.8883  0.2816
  452MOL0     H59602   3.495   1.879   3.250  2.3729  0.0374 -1.5395
  452MOL0     H59603   3.691   2.060   3.336  2.0442  4.4422 -1.1679
  452MOL0     H59604   3.646   2.143   3.187 -1.0778  0.6346  1.3142
  452MOL0     H59605   3.716   1.946   3.055  2.0237  1.4015 -0.0637
  452MOL0     H59606   3.733   1.852   3.200  1.8619 -0.9934 -0.7088
  452MOL0     H59607   3.904   2.093   3.161 -0.3520  0.5178 -3.4055
  452MOL0     H59608   3.920   1.958   3.284  1.6012 -3.0288 -1.0366
  452MOL0     H59609   3.960   1.954   2.984 -1.2074  1.2090  0.7246
  452MOL0     H59610   3.989   1.812   3.091  0.1499  0.6960 -1.8957
  452MOL0     H59611   4.151   1.903   3.222 -0.4092 -0.1863 -0.1166
  452MOL0     H59612   4.136   2.061   3.144  0.8547  0.3694 -2.0179
  452MOL0     H59613   4.223   1.809   3.003 -2.0307  0.0861 -0.4583
  452MOL0     H59614   4.197   1.973   2.930 -0.2845 -1.3577 -1.0661
  452MOL0     H59615   4.373   1.933   3.166 -0.4202 -0.5306 -0.1053
  452MOL0     H59616   4.379   2.062   3.053  1.0105  0.2590 -0.8469
  452MOL0     H59617   4.530   2.020   2.852  0.9943 -0.6833 -2.0494
  452MOL0     H59618   4.781   1.924   2.753  1.7655 -0.7830 -0.9562
  452MOL0     H59619   4.694   1.798   2.661  4.5977 -0.9657 -2.8190
  452MOL0     H59620   4.809   1.619   2.810 -2.0446  0.6356 -0.9839
  452MOL0     H59621   4.887   1.751   2.894  1.0683  2.6475 -0.9465
  452MOL0     H59622   4.950   1.663   2.618 -1.3478 -1.1124  0.7606
  452MOL0     H59623   5.015   1.812   2.695  0.4380  0.1074  1.1834
  452MOL0     H59624   5.131   1.716   2.844 -2.9447 -1.7653  2.7303
  452MOL0     H59625   5.179   1.631   2.701  2.3406  2.8934  0.4157
  452MOL0     H59626   5.325   1.424   2.780  0.7597  1.1209 -4.0098
  452MOL0     H59627   5.369   1.205   2.703 -0.0858 -0.4010  0.5584
  452MOL0     H59628   5.224   0.749   2.688 -2.5181 -0.3115  1.7671
  452MOL0     H59629   5.262   0.518   2.568  1.7665  0.9644  0.0554
  452MOL0     H59630   5.043   0.372   2.230 -1.0565  2.0566 -0.1383
  452MOL0     H59631   4.906   0.369   2.346 -0.8469 -2.2502 -2.1914
  452MOL0     H59632   4.941   0.133   2.318  0.2805  1.2147 -2.2611
  452MOL0     H59633   5.009   0.176   2.474 -2.1674  0.6397 -0.3010
  452MOL0     H59634   5.238   0.178   2.369 -0.2285 -0.2179  1.7213
  452MOL0     H59635   5.163   0.175   2.215 -0.0978  1.0502  0.2707
  452MOL0     H59636   5.148  -0.056   2.410 -0.3097 -1.6185 -1.0202
  452MOL0     H59637   5.088  -0.067   2.247 -2.9231 -0.3189  1.9800
  452MOL0     H59638   5.386  -0.024   2.336  0.4987  0.6326 -0.7950
  452MOL0     H59639   5.325  -0.024   2.164  1.6991  0.6406  0.9984
  452MOL0     H59640   5.410  -0.238   2.175  2.1323 -1.6180  2.0319
  452MOL0     H59641   5.242  -0.263   2.218  1.3689  0.5141 -0.1787
  452MOL0     H59642   5.487  -0.245   2.386  0.0402  0.4298  1.3496
  452MOL0     H59643   5.327  -0.232   2.464  0.1575 -2.6047  1.4587
  452MOL0     H59644   5.265  -0.459   2.360 -0.3328 -0.9069 -1.9084
  452MOL0     H59645   5.412  -0.467   2.460 -2.9707 -0.6746 -0.0018
  452MOL0     H59646   4.932   0.609   2.314 -0.6190  0.8152  1.5457
  452MOL0     H59647   4.955   0.839   2.374  1.0007 -0.6180 -2.1194
  452MOL0     H59648   4.948   1.151   2.635  0.4592 -1.0092  1.3161
  452MOL0     H59649   4.911   1.373   2.667  0.7394  0.5642 -0.3018
  452MOL0     H59650   3.200   2.019   3.258  1.8848 -1.6371 -1.4812
  452MOL0     H59651   3.009   1.923   3.368  0.2338 -2.8158 -1.4670
  452MOL0     H59652   2.802   1.612   3.543  1.3055  0.8241 -0.7563
  452MOL0     H59653   2.586   1.547   3.604 -1.0002 -0.6366  1.2037
  452MOL0     H59654   2.575   1.256   3.811  1.4764  2.5884 -0.6705
  452MOL0     H59655   2.441   1.319   3.703 -0.6761 -3.0639  0.1965
  452MOL0     H59656   2.413   1.139   3.911  0.1685  0.2569 -0.3191
  452MOL0     H59657   2.416   1.279   4.011 -0.7704  1.4884 -0.3144
  452MOL0     H59658   2.204   1.213   3.817 -0.2369 -1.7292  2.7226
  452MOL0     H59659   2.223   1.381   3.865  1.4514  2.1496  2.7504
  452MOL0     H59660   2.208   1.160   4.064 -0.9081  0.4853  3.6141
  452MOL0     H59661   2.208   1.340   4.109  1.7935  1.4764 -0.2451
  452MOL0     H59662   1.806   1.241   4.002 -0.5509 -1.5086  2.3818
  452MOL0     H59663   2.717   1.472   4.005  2.3480 -1.5114 -0.5578
  452MOL0     H59664   2.925   1.604   3.952 -2.4933  0.9305  2.2014
  453MOL0     O59665  10.589   6.163   7.060 -1.1855  0.5227  0.3278
  453MOL0     C59666  10.588   6.265   6.982 -0.5019 -0.0584 -0.3596
  453MOL0     O59667  10.501   6.286   6.876  0.9943  0.1049  0.9450
  453MOL0     C59668  10.397   6.206   6.845  0.1581  0.7806 -0.4417
  453MOL0     C59669  10.306   6.273   6.753 -0.1608 -0.1868 -0.8561
  453MOL0     C59670  10.183   6.217   6.716 -0.2876  0.4022 -0.6279
  453MOL0     C59671  10.144   6.098   6.769  0.2578  0.2962  0.1711
  453MOL0     O59672  10.026   6.040   6.730  0.0854 -0.5698 -0.0538
  453MOL0     C59673   9.917   6.131   6.705 -0.2574 -0.3723  0.4887
  453MOL0     C59674   9.806   6.032   6.702  0.9793  0.1162 -0.5472
  453MOL0     C59675   9.773   5.991   6.849  0.0365 -0.0888 -0.5049
  453MOL0     C59676   9.688   5.870   6.838 -0.5942 -0.1758  0.4679
  453MOL0     C59677   9.598   5.852   6.956  0.8981  0.3550  0.0528
  453MOL0     C59678   9.521   5.714   6.971  0.7720 -0.6673  0.8392
  453MOL0     C59679   9.610   5.594   6.952  0.3663  0.3297  0.3553
  453MOL0     C59680   9.538   5.463   6.988 -0.5523  0.8079  0.1241
  453MOL0     N59681   9.641   5.359   6.949 -0.3251  0.6821 -0.7213
  453MOL0     C59682   9.730   5.298   7.037 -0.0244 -0.5555  0.2981
  453MOL0     C59683   9.800   5.206   6.970  0.0827  0.4278 -1.2418
  453MOL0     C59684   9.902   5.106   7.022 -0.2867  0.4234 -0.0132
  453MOL0     C59685  10.039   5.177   7.038  0.4009 -0.1284 -1.0663
  453MOL0     C59686  10.127   5.154   6.916 -0.3567  1.4738  0.8532
  453MOL0     C59687  10.255   5.223   6.898 -1.1258 -1.0744  1.0937
  453MOL0     O59688  10.361   5.194   6.993 -0.2161  0.0794 -0.3697
  453MOL0     C59689  10.487   5.249   6.979 -1.2171  0.1882  0.8808
  453MOL0     C59690  10.529   5.319   6.870 -0.1868 -0.6628 -0.1045
  453MOL0     C59691  10.657   5.383   6.864 -0.6574 -0.4874 -0.6751
  453MOL0     C59692  10.748   5.379   6.975  0.1751  0.2912  0.0607
  453MOL0     C59693  10.881   5.438   6.966 -0.2125  0.1786 -0.2024
  453MOL0     O59694  10.935   5.437   6.848 -0.8727 -0.1394  0.5902
  453MOL0     C59695  11.074   5.446   6.835  0.2137 -0.3888  0.2064
  453MOL0     C59696  11.167   5.429   6.940  0.6980  1.4638 -0.2657
  453MOL0     C59697  11.303   5.410   6.925  0.1223 -0.5753 -0.0646
  453MOL0     C59698  11.351   5.409   6.793  0.0014  0.2434 -0.5912
  453MOL0     O59699  11.483   5.373   6.768 -0.0355 -0.3767  0.2778
  453MOL0     C59700  11.586   5.435   6.853  0.0657  0.3470  0.5384
  453MOL0     C59701  11.728   5.433   6.791  0.5553 -0.7861 -0.7186
  453MOL0     C59702  11.828   5.472   6.903 -0.3551 -0.2939 -0.4777
  453MOL0     C59703  11.976   5.488   6.850 -0.2807  0.1018  0.0115
  453MOL0     C59704  12.079   5.516   6.962  0.6382  0.2613  0.3361
  453MOL0     C59705  12.192   5.593   6.903 -0.5824  0.0273 -0.0153
  453MOL0     C59706  12.307   5.602   7.000 -0.1012  0.4163 -0.1163
  453MOL0     C59707  12.423   5.672   6.929  0.6676 -0.0568 -0.3503
  453MOL0    Cl59708  12.566   5.623   7.012  0.4043 -0.1715 -0.4143
  453MOL0     C59709  11.258   5.423   6.691  0.9825  0.1778 -0.0306
  453MOL0     C59710  11.126   5.449   6.708 -0.0445  0.1229 -0.1780
  453MOL0     O59711  10.914   5.498   7.069 -0.7361 -0.2047 -0.3895
  453MOL0     C59712  10.696   5.317   7.090 -0.1270  0.3547 -0.5503
  453MOL0     C59713  10.571   5.254   7.096  0.0620  0.6351  0.5713
  453MOL0     N59714   9.749   5.208   6.841 -0.4217  0.0183 -1.3457
  453MOL0     N59715   9.653   5.288   6.830  0.5676 -0.5510 -0.4635
  453MOL0     C59716  10.237   6.018   6.837  0.0692 -0.0425 -0.0203
  453MOL0     C59717  10.360   6.072   6.874  0.6016 -0.3546 -0.2760
  453MOL0     C59718  10.686   6.373   7.003  0.2482  0.8331  0.3221
  453MOL0     C59719  10.677   6.488   6.925  0.5359 -0.1280  0.2137
  453MOL0     C59720  10.781   6.581   6.934  0.1301  0.1887  0.1293
  453MOL0     C59721  10.880   6.580   7.027  0.5251 -0.1760  0.2764
  453MOL0     O59722  10.974   6.679   7.019 -0.9849  0.4491 -0.5706
  453MOL0     C59723  11.095   6.679   7.107  0.1481 -0.4934  0.2705
  453MOL0     C59724  11.203   6.629   7.011 -0.6005  0.7353 -0.8474
  453MOL0     C59725  11.350   6.647   7.067  0.0345  0.7325  0.4975
  453MOL0     C59726  11.372   6.789   7.113  0.3412  0.6675  0.6562
  453MOL0     C59727  11.504   6.818   7.167  0.2080  0.6746  0.8922
  453MOL0     C59728  11.619   6.836   7.206  0.8680 -0.2294 -0.7393
  453MOL0     C59729  10.882   6.459   7.109 -0.6402  0.5170 -0.0726
  453MOL0     C59730  10.796   6.349   7.086  0.7729 -0.2127 -0.4749
  453MOL0     H59731  10.332   6.365   6.702 -0.2177 -0.2981 -1.0859
  453MOL0     H59732  10.117   6.263   6.643 -2.9602 -1.9405  0.1598
  453MOL0     H59733   9.936   6.195   6.618  0.7272  0.6982  1.4593
  453MOL0     H59734   9.883   6.205   6.779 -1.0033  0.3600 -0.5544
  453MOL0     H59735   9.851   5.947   6.651  1.4841  0.2519 -0.3323
  453MOL0     H59736   9.722   6.082   6.653  1.3905  0.2931 -1.0698
  453MOL0     H59737   9.740   6.075   6.911  0.6274  0.3396 -0.7668
  453MOL0     H59738   9.864   5.958   6.900 -1.5598  0.0559  2.7364
  453MOL0     H59739   9.628   5.876   6.747 -0.1586  1.5622  0.2584
  453MOL0     H59740   9.754   5.783   6.838 -0.2106  0.1158  0.2785
  453MOL0     H59741   9.530   5.936   6.973 -0.3921 -0.5451 -0.4792
  453MOL0     H59742   9.666   5.863   7.041  0.6051 -2.9413  0.8709
  453MOL0     H59743   9.447   5.713   6.890  1.5910 -0.8802  0.0717
  453MOL0     H59744   9.479   5.701   7.071  0.9455 -3.4170  0.6321
  453MOL0     H59745   9.641   5.600   6.848 -0.4344  2.2644  0.1824
  453MOL0     H59746   9.705   5.591   7.007 -0.1056 -3.8522  1.2724
  453MOL0     H59747   9.443   5.458   6.934 -0.7119  1.9978  0.2744
  453MOL0     H59748   9.513   5.448   7.094 -1.6973 -0.8327 -0.3398
  453MOL0     H59749   9.728   5.323   7.143 -3.9488  0.4297  0.1472
  453MOL0     H59750   9.916   5.017   6.960 -0.2355 -0.4170  1.1895
  453MOL0     H59751   9.871   5.071   7.121  3.8164 -0.5180  1.1187
  453MOL0     H59752  10.093   5.145   7.128  3.3003  0.6488 -2.4424
  453MOL0     H59753  10.020   5.283   7.061 -1.6894 -1.0775  2.4818
  453MOL0     H59754  10.157   5.049   6.919  0.3576  1.6185 -0.3007
  453MOL0     H59755  10.062   5.168   6.829 -3.0621 -3.1503  1.7973
  453MOL0     H59756  10.250   5.332   6.893 -0.8859 -1.1283 -1.8176
  453MOL0     H59757  10.284   5.194   6.797 -0.2164 -1.9370  1.5823
  453MOL0     H59758  10.463   5.331   6.784 -1.1320  2.3191  0.8919
  453MOL0     H59759  10.675   5.426   6.766 -1.0826 -0.1165 -0.5959
  453MOL0     H59760  11.138   5.432   7.044 -0.3349  1.1472 -0.5388
  453MOL0     H59761  11.365   5.374   7.007 -0.7015  1.7350  1.6817
  453MOL0     H59762  11.596   5.372   6.941  2.0063 -1.8620 -1.1323
  453MOL0     H59763  11.554   5.539   6.869  0.2165  0.2081  1.8614
  453MOL0     H59764  11.732   5.514   6.718 -0.8161  1.2873  1.3650
  453MOL0     H59765  11.759   5.331   6.765  0.4405 -1.4983  1.6549
  453MOL0     H59766  11.826   5.396   6.982  0.6578 -1.5702 -1.6397
  453MOL0     H59767  11.795   5.565   6.951 -1.4153 -0.5129 -0.7621
  453MOL0     H59768  12.010   5.401   6.794 -0.2003 -1.3051  2.1371
  453MOL0     H59769  11.974   5.572   6.779  0.7607 -0.2261 -0.4217
  453MOL0     H59770  12.111   5.416   6.994 -3.1683 -1.0440  0.5960
  453MOL0     H59771  12.033   5.570   7.045 -1.2254 -0.0469 -0.4494
  453MOL0     H59772  12.162   5.691   6.865 -0.1500 -1.2452 -4.1521
  453MOL0     H59773  12.223   5.539   6.813 -0.4644 -2.1559  1.2839
  453MOL0     H59774  12.280   5.651   7.094  2.2005 -1.9931  1.9765
  453MOL0     H59775  12.341   5.502   7.027 -2.1600  0.1763  1.8488
  453MOL0     H59776  12.408   5.780   6.937 -3.4887 -0.1752 -2.9616
  453MOL0     H59777  12.423   5.640   6.824  1.1657  0.9089 -0.6509
  453MOL0     H59778  11.282   5.422   6.585 -0.8715 -1.9451 -0.5094
  453MOL0     H59779  11.055   5.431   6.629  0.3890 -2.8423 -0.0102
  453MOL0     H59780  10.759   5.316   7.179 -0.1807  0.5828 -0.5088
  453MOL0     H59781  10.533   5.233   7.195  2.7646 -0.3127  1.5049
  453MOL0     H59782  10.219   5.927   6.894  3.4715 -0.1537  1.0906
  453MOL0     H59783  10.422   6.009   6.936 -3.5867 -2.8856  1.8022
  453MOL0     H59784  10.600   6.499   6.849 -0.0985 -0.9459  0.7177
  453MOL0     H59785  10.783   6.672   6.875 -0.6964 -0.3081 -0.6970
  453MOL0     H59786  11.074   6.614   7.193  1.3445 -0.8472  0.3091
  453MOL0     H59787  11.117   6.782   7.137 -0.1190 -0.2475 -0.3458
  453MOL0     H59788  11.179   6.523   7.005  0.2480  0.5889 -2.0877
  453MOL0     H59789  11.202   6.673   6.911  0.4560  2.4312 -0.1635
  453MOL0     H59790  11.421   6.620   6.988  0.7860  1.1220  1.0296
  453MOL0     H59791  11.357   6.578   7.152 -0.1592 -0.2113 -0.2296
  453MOL0     H59792  11.342   6.856   7.032 -0.5993  1.0880  1.3289
  453MOL0     H59793  11.300   6.812   7.192 -0.8372 -0.3961 -0.0838
  453MOL0     H59794  11.723   6.856   7.223  0.5078  2.3388 -1.1505
  453MOL0     H59795  10.961   6.446   7.182 -1.4159  2.4530  1.1987
  453MOL0     H59796  10.790   6.260   7.148 -2.9935 -0.1643 -0.5392
  454MOL0     O59797   7.919   1.190   3.756 -0.1183  0.2318  0.4135
  454MOL0     C59798   7.973   1.078   3.731 -0.1255 -0.3848 -1.2602
  454MOL0     O59799   7.919   0.974   3.659  0.5812 -0.3221 -0.1965
  454MOL0     C59800   7.794   0.980   3.596  0.1135 -0.3551 -1.1519
  454MOL0     C59801   7.710   0.869   3.602  0.1749 -0.4830 -0.4220
  454MOL0     C59802   7.584   0.878   3.540 -0.4200  0.3900 -0.1293
  454MOL0     C59803   7.540   0.999   3.479 -1.1289  0.1186  0.3925
  454MOL0     O59804   7.422   1.014   3.413  0.5489 -0.3851 -0.1760
  454MOL0     C59805   7.349   1.139   3.421 -0.7578  0.0370 -0.0707
  454MOL0     C59806   7.211   1.113   3.471  1.4463  0.0806 -0.3282
  454MOL0     C59807   7.102   1.188   3.392  0.1265  0.2641  0.1316
  454MOL0     C59808   6.959   1.142   3.420 -0.1780  0.0945  0.3303
  454MOL0     C59809   6.851   1.227   3.345  0.5772  0.3231  0.3537
  454MOL0     C59810   6.712   1.182   3.405 -0.0132  0.5467  0.0738
  454MOL0     C59811   6.619   1.296   3.367  0.3698  0.2113 -0.8129
  454MOL0     C59812   6.467   1.265   3.399  0.0686 -0.1268  0.7653
  454MOL0     N59813   6.371   1.374   3.362 -0.0269  0.2304  0.2085
  454MOL0     C59814   6.237   1.393   3.414 -0.1876 -1.1020  0.2680
  454MOL0     C59815   6.204   1.517   3.368  0.4026  0.9085 -0.2674
  454MOL0     C59816   6.072   1.573   3.423 -0.2958  0.5585  0.1182
  454MOL0     C59817   6.098   1.628   3.569  0.7446  0.8586 -0.6774
  454MOL0     C59818   5.997   1.581   3.675 -0.0122  0.9610  0.3585
  454MOL0     C59819   5.861   1.649   3.651  0.5117 -1.0150  0.9852
  454MOL0     O59820   5.769   1.596   3.755  0.1988 -0.7612  0.8767
  454MOL0     C59821   5.649   1.659   3.760  0.0962 -0.2453  1.3047
  454MOL0     C59822   5.555   1.601   3.844 -1.0037  0.1637  0.0188
  454MOL0     C59823   5.428   1.648   3.863  0.5465 -0.3870  0.5992
  454MOL0     C59824   5.370   1.745   3.778 -0.5002  0.3580 -0.2892
  454MOL0     C59825   5.233   1.797   3.791 -0.2824  0.0289 -1.0997
  454MOL0     O59826   5.171   1.737   3.895  0.5125 -0.8073 -0.7222
  454MOL0     C59827   5.066   1.794   3.960 -0.0102  0.0234  0.0570
  454MOL0     C59828   5.082   1.849   4.084 -0.3204  0.2357 -0.8415
  454MOL0     C59829   4.985   1.933   4.144  0.0017 -0.0012 -0.5119
  454MOL0     C59830   4.859   1.936   4.080  0.0698 -0.9185  0.4412
  454MOL0     O59831   4.747   1.995   4.127  1.2572  0.4371 -0.4824
  454MOL0     C59832   4.770   2.130   4.170 -0.0686 -0.4655 -0.0465
  454MOL0     C59833   4.661   2.227   4.135 -0.5665 -0.3982 -0.5077
  454MOL0     C59834   4.623   2.220   3.988  0.0354 -0.4014 -0.4402
  454MOL0     C59835   4.736   2.248   3.895 -0.7266  0.4181 -0.0194
  454MOL0     C59836   4.687   2.209   3.757  0.1102 -0.4503  0.2520
  454MOL0     C59837   4.787   2.245   3.653 -0.1654 -0.7771  0.1763
  454MOL0     C59838   4.904   2.156   3.653 -0.0925 -0.4307 -0.8300
  454MOL0     C59839   4.982   2.173   3.520  0.0431  0.9109  0.6524
  454MOL0    Cl59840   5.038   2.332   3.507  0.0984 -0.0214 -0.0104
  454MOL0     C59841   4.846   1.878   3.953  0.0386  0.9253 -0.4114
  454MOL0     C59842   4.950   1.811   3.891 -0.6750  0.1366 -0.5225
  454MOL0     O59843   5.178   1.880   3.717 -0.0243 -0.2453  0.5215
  454MOL0     C59844   5.460   1.788   3.669  0.4283  0.1101  0.3715
  454MOL0     C59845   5.591   1.744   3.659 -0.5643  0.8530  0.1273
  454MOL0     N59846   6.304   1.576   3.298  0.0546  0.0559  0.4712
  454MOL0     N59847   6.403   1.489   3.289  0.0263 -0.2091 -0.3658
  454MOL0     C59848   7.633   1.106   3.468 -0.0459 -0.2237  0.6772
  454MOL0     C59849   7.761   1.095   3.520  0.7082  0.6858 -0.1927
  454MOL0     C59850   8.109   1.053   3.783 -0.4619  0.9248  0.0486
  454MOL0     C59851   8.202   1.155   3.798  0.4972  0.5409 -0.5748
  454MOL0     C59852   8.333   1.126   3.841  1.0290 -0.0856  0.0123
  454MOL0     C59853   8.362   0.998   3.881 -0.5834  0.3635  0.6020
  454MOL0     O59854   8.493   0.973   3.911 -0.1081  0.1333  0.3676
  454MOL0     C59855   8.549   1.073   4.007  0.9781  0.9444 -0.0016
  454MOL0     C59856   8.640   0.998   4.105  0.2644  0.4775  0.0963
  454MOL0     C59857   8.685   1.098   4.224 -0.7594  0.6747 -0.3934
  454MOL0     C59858   8.842   1.103   4.239 -0.3147  0.1399  0.4232
  454MOL0     C59859   8.891   0.985   4.312 -0.8567 -0.2689  0.3093
  454MOL0     C59860   8.916   0.883   4.377  0.3817  0.1807  0.1242
  454MOL0     C59861   8.270   0.896   3.867  0.8277  0.4715 -0.4619
  454MOL0     C59862   8.141   0.926   3.821 -0.1113  0.9996  0.7247
  454MOL0     H59863   7.743   0.778   3.651  1.7417 -0.1414 -0.7923
  454MOL0     H59864   7.529   0.785   3.530  1.6558 -0.7297 -2.0934
  454MOL0     H59865   7.356   1.179   3.319 -2.4166 -2.6008 -1.3302
  454MOL0     H59866   7.398   1.212   3.486 -0.1037  0.7291 -1.2934
  454MOL0     H59867   7.195   1.148   3.574  1.4273 -1.1907  0.1240
  454MOL0     H59868   7.181   1.008   3.468  1.3620  0.1357 -2.2342
  454MOL0     H59869   7.107   1.182   3.283 -0.9295  3.6422 -0.2047
  454MOL0     H59870   7.117   1.294   3.414  1.0535 -0.0208  0.9671
  454MOL0     H59871   6.949   1.046   3.369  2.5227  1.3962 -3.0405
  454MOL0     H59872   6.930   1.148   3.525 -5.1459  1.1424 -0.7954
  454MOL0     H59873   6.858   1.235   3.236  1.4534 -1.0688  0.2823
  454MOL0     H59874   6.862   1.330   3.381  2.1341  1.3564 -2.6855
  454MOL0     H59875   6.716   1.163   3.512  0.6269  1.9694  0.3235
  454MOL0     H59876   6.690   1.085   3.359 -1.2382 -0.4123  2.5156
  454MOL0     H59877   6.659   1.383   3.419  2.0457 -1.0748  0.1449
  454MOL0     H59878   6.632   1.320   3.261  1.1894  1.6134 -0.4084
  454MOL0     H59879   6.470   1.249   3.507 -1.2030 -3.8106  0.3693
  454MOL0     H59880   6.437   1.173   3.348  1.0256 -1.0342  1.7812
  454MOL0     H59881   6.185   1.317   3.470 -1.8036 -0.2948 -0.0866
  454MOL0     H59882   5.990   1.501   3.425  0.4408 -0.2964  0.1295
  454MOL0     H59883   6.037   1.649   3.352 -1.5062  0.2843  0.3870
  454MOL0     H59884   6.089   1.736   3.575 -1.1214  0.9996 -3.8027
  454MOL0     H59885   6.192   1.591   3.610 -0.9759 -0.7185  2.2575
  454MOL0     H59886   5.988   1.472   3.671 -1.6666  0.8027  4.0430
  454MOL0     H59887   6.041   1.610   3.772 -2.0904  1.8700  1.0771
  454MOL0     H59888   5.809   1.646   3.555 -0.1199  2.4390  1.0854
  454MOL0     H59889   5.878   1.756   3.665  1.2094 -0.7447 -1.5465
  454MOL0     H59890   5.597   1.520   3.903 -2.5889 -0.2642  0.6021
  454MOL0     H59891   5.358   1.611   3.937  0.0898  1.7794  1.3048
  454MOL0     H59892   5.173   1.829   4.141  0.8550  1.2549 -2.2826
  454MOL0     H59893   5.003   1.973   4.243 -2.4869  1.9951 -0.7578
  454MOL0     H59894   4.865   2.170   4.135 -0.9620  1.6401 -0.2310
  454MOL0     H59895   4.781   2.117   4.278  1.6610 -2.6478 -0.4039
  454MOL0     H59896   4.713   2.321   4.152  0.1303 -0.4944 -1.9661
  454MOL0     H59897   4.572   2.216   4.198 -0.9646 -2.4351 -1.3167
  454MOL0     H59898   4.544   2.294   3.973 -1.9832 -2.0005  1.5225
  454MOL0     H59899   4.581   2.123   3.964 -0.1062 -0.5985  0.5557
  454MOL0     H59900   4.760   2.355   3.893 -2.8210  0.9800  1.6158
  454MOL0     H59901   4.819   2.181   3.920  0.4367  0.6597 -2.8324
  454MOL0     H59902   4.594   2.261   3.733  1.1760  0.5192 -1.9850
  454MOL0     H59903   4.667   2.101   3.755 -1.6306 -0.2529 -4.1916
  454MOL0     H59904   4.822   2.348   3.661 -1.7215 -0.0504 -1.7039
  454MOL0     H59905   4.735   2.227   3.559  1.5571  0.9054 -1.1985
  454MOL0     H59906   4.956   2.195   3.741 -7.0880  2.4763  2.8138
  454MOL0     H59907   4.880   2.051   3.671 -1.7561  0.0061 -0.3496
  454MOL0     H59908   4.928   2.157   3.426  0.0618 -1.6366  1.0119
  454MOL0     H59909   5.055   2.092   3.518 -1.4041 -0.4514  0.8783
  454MOL0     H59910   4.761   1.917   3.898 -2.1855 -2.1285  0.6069
  454MOL0     H59911   4.932   1.780   3.788 -2.3455 -2.2089  0.4042
  454MOL0     H59912   5.424   1.849   3.587  1.3923 -1.6531 -1.4371
  454MOL0     H59913   5.654   1.770   3.575 -0.9208 -0.0518 -0.4252
  454MOL0     H59914   7.604   1.187   3.401 -0.2207  0.0078  1.0345
  454MOL0     H59915   7.825   1.179   3.496  0.5260  0.4963 -1.4149
  454MOL0     H59916   8.180   1.255   3.763  0.1007  0.3631 -0.8434
  454MOL0     H59917   8.394   1.213   3.860  0.0841  0.3709  1.0710
  454MOL0     H59918   8.469   1.128   4.057  0.3117 -1.5587  1.9219
  454MOL0     H59919   8.619   1.134   3.949 -0.0112 -0.2867 -2.6526
  454MOL0     H59920   8.594   0.911   4.153  4.2859 -1.9319  0.0424
  454MOL0     H59921   8.724   0.955   4.051 -1.0460  3.0828 -4.5527
  454MOL0     H59922   8.622   1.070   4.309 -2.5017  2.6155 -0.9418
  454MOL0     H59923   8.649   1.196   4.192 -0.5624  1.8410  2.6184
  454MOL0     H59924   8.890   1.121   4.142  1.9385  3.4745  1.9748
  454MOL0     H59925   8.867   1.185   4.307  0.7833 -0.7348  1.1133
  454MOL0     H59926   8.935   0.784   4.414 -0.3480 -0.1659 -0.3847
  454MOL0     H59927   8.300   0.793   3.880 -0.0433  0.1037 -1.2235
  454MOL0     H59928   8.083   0.837   3.800  3.3065 -0.9719 -1.4632
  455MOL0     O59929   5.977   2.647  10.163 -0.0932 -0.2309 -0.6546
  455MOL0     C59930   6.059   2.554  10.175 -0.7201  0.6776  0.6983
  455MOL0     O59931   6.189   2.582  10.146 -0.2329 -0.0139  0.1654
  455MOL0     C59932   6.234   2.704  10.091 -0.8501 -0.4209  0.4768
  455MOL0     C59933   6.189   2.750   9.969 -0.6121  0.5082 -0.8316
  455MOL0     C59934   6.223   2.878   9.932  0.1053 -1.1566  0.0123
  455MOL0     C59935   6.315   2.960  10.007  0.1936 -0.2899 -1.6629
  455MOL0     O59936   6.345   3.087   9.960  0.4324  0.2356 -0.2753
  455MOL0     C59937   6.350   3.193  10.058 -0.8847  0.0919 -0.5791
  455MOL0     C59938   6.206   3.209  10.131  0.9191 -0.1759  0.7886
  455MOL0     C59939   6.108   3.246  10.017 -0.3212  0.0868 -0.4565
  455MOL0     C59940   5.961   3.255  10.048  0.1606  0.3065 -0.0852
  455MOL0     C59941   5.895   3.117  10.070 -0.5169 -1.0783  1.0104
  455MOL0     C59942   5.746   3.116  10.054 -0.0549 -0.0062  0.0765
  455MOL0     C59943   5.701   3.138   9.906  0.3108 -0.7564 -0.4604
  455MOL0     C59944   5.563   3.098   9.862  0.0290 -0.2187  1.3240
  455MOL0     N59945   5.455   3.151   9.947  1.0018 -0.2642 -0.6702
  455MOL0     C59946   5.445   3.143  10.085 -0.0519  0.7843  0.0247
  455MOL0     C59947   5.314   3.189  10.107  0.0787  1.3289  0.5659
  455MOL0     C59948   5.229   3.184  10.233 -0.6112  0.4723 -0.3809
  455MOL0     C59949   5.209   3.036  10.306 -1.1589  0.3829  0.1173
  455MOL0     C59950   5.068   2.997  10.304  1.6787 -0.0182 -0.0135
  455MOL0     C59951   4.981   3.086  10.407 -0.6383 -0.0240 -0.0511
  455MOL0     O59952   5.045   3.105  10.535 -0.5921  0.3130 -0.1734
  455MOL0     C59953   4.977   3.072  10.653 -0.7054  0.4374  0.1528
  455MOL0     C59954   5.034   3.130  10.766  0.6146 -0.6200  0.0292
  455MOL0     C59955   4.974   3.129  10.894  1.0597  0.0830 -0.4238
  455MOL0     C59956   4.860   3.046  10.910  0.9591 -0.0212  0.0231
  455MOL0     C59957   4.795   3.038  11.044 -0.0801 -0.5500  0.6787
  455MOL0     O59958   4.662   3.011  11.047 -0.2815 -0.5564 -0.2868
  455MOL0     C59959   4.611   3.002  11.168  0.2763  0.0469 -0.7894
  455MOL0     C59960   4.643   2.907  11.264 -0.7830  0.1502  0.3214
  455MOL0     C59961   4.571   2.898  11.388  0.0688  0.1168 -0.3006
  455MOL0     C59962   4.467   2.982  11.411  0.1202  0.5192  0.0597
  455MOL0     O59963   4.405   2.975  11.537  0.9074  0.5245  0.6444
  455MOL0     C59964   4.286   3.052  11.566 -0.1488 -0.6179 -0.0785
  455MOL0     C59965   4.229   3.008  11.706 -0.8210 -0.1098 -0.2684
  455MOL0     C59966   4.129   3.118  11.743 -0.2257  1.2150 -0.1375
  455MOL0     C59967   4.033   3.061  11.856  0.1371  0.5588 -0.1302
  455MOL0     C59968   3.955   3.173  11.920  0.4612 -1.4537 -1.2143
  455MOL0     C59969   3.869   3.241  11.817  0.2036  0.3930 -0.8589
  455MOL0     C59970   3.781   3.343  11.882  1.3691 -1.1919 -0.5174
  455MOL0     C59971   3.686   3.289  11.988 -0.4544 -0.4078  0.4652
  455MOL0    Cl59972   3.548   3.407  12.012  0.2676 -0.3522  0.1881
  455MOL0     C59973   4.427   3.070  11.316  0.0428  0.6932 -0.1651
  455MOL0     C59974   4.500   3.088  11.206  0.1680  0.1166 -0.2764
  455MOL0     O59975   4.856   3.070  11.143  0.6666  0.3922  0.0509
  455MOL0     C59976   4.807   2.980  10.795  0.3272  0.0564 -0.7559
  455MOL0     C59977   4.866   2.985  10.669 -0.1526 -0.1381 -0.1709
  455MOL0     N59978   5.251   3.198   9.992  0.1628  0.3466  0.8317
  455MOL0     N59979   5.335   3.182   9.897  0.0670 -0.4840 -0.4089
  455MOL0     C59980   6.358   2.909  10.127  0.9234  0.4685  0.4471
  455MOL0     C59981   6.323   2.777  10.168 -0.2091  0.2310  0.5853
  455MOL0     C59982   6.026   2.413  10.193  0.1655  0.3287 -0.0626
  455MOL0     C59983   5.889   2.377  10.200  0.2288  0.3261  0.1975
  455MOL0     C59984   5.861   2.230  10.208  0.1635 -0.8033  0.7079
  455MOL0     C59985   5.963   2.134  10.210  0.4978 -0.8162  0.1498
  455MOL0     O59986   5.928   1.999  10.225  0.0791  0.1784 -0.2342
  455MOL0     C59987   5.819   1.961  10.318 -0.3114  0.0917 -0.1370
  455MOL0     C59988   5.710   1.874  10.245 -0.9692 -0.0761 -1.1883
  455MOL0     C59989   5.613   1.805  10.339 -0.6016  0.0203 -0.0119
  455MOL0     C59990   5.516   1.719  10.267  0.0433 -0.3561 -0.3841
  455MOL0     C59991   5.426   1.787  10.174  0.4675  0.3042 -0.2851
  455MOL0     C59992   5.341   1.823  10.098 -0.7386 -0.0782 -0.4615
  455MOL0     C59993   6.097   2.178  10.194 -0.1014  0.4639 -0.9912
  455MOL0     C59994   6.127   2.317  10.196 -0.3970  0.1137  1.0439
  455MOL0     H59995   6.138   2.680   9.904  1.1573 -0.5402 -1.1617
  455MOL0     H59996   6.190   2.906   9.833  3.9466 -1.0485 -1.4289
  455MOL0     H59997   6.384   3.286  10.014  0.4385  0.4913  1.1721
  455MOL0     H59998   6.429   3.175  10.131 -2.0204 -1.2318  0.3886
  455MOL0     H59999   6.197   3.302  10.189  0.4085  0.2739  0.0110
  455MOL0     H60000   6.181   3.120  10.188 -0.9814  0.2769  0.7455
  455MOL0     H60001   6.117   3.184   9.928 -0.9866  0.6978 -0.9652
  455MOL0     H60002   6.143   3.346   9.987 -1.9664  2.3964  4.2802
  455MOL0     H60003   5.934   3.319  10.132 -0.0634 -0.6208  0.5658
  455MOL0     H60004   5.915   3.303   9.962  0.5972  0.0778 -0.4513
  455MOL0     H60005   5.925   3.082  10.169 -1.6298 -2.0532  1.0302
  455MOL0     H60006   5.938   3.043  10.002 -0.5397 -0.6175  0.4925
  455MOL0     H60007   5.709   3.206  10.104  1.0817  0.7273 -0.3696
  455MOL0     H60008   5.710   3.018  10.089 -0.2766 -0.2341 -0.7686
  455MOL0     H60009   5.712   3.247   9.898 -1.9595  0.2154  4.9214
  455MOL0     H60010   5.766   3.088   9.834 -0.5076  0.5006 -2.1386
  455MOL0     H60011   5.561   2.989   9.851  0.7856  0.0421 -4.2620
  455MOL0     H60012   5.543   3.141   9.763 -0.1326 -1.4790  0.7870
  455MOL0     H60013   5.514   3.116  10.164 -1.0951 -0.0371  0.6940
  455MOL0     H60014   5.133   3.233  10.210 -2.0431  0.2544  4.1221
  455MOL0     H60015   5.284   3.255  10.296  0.1696  1.2898 -1.9244
  455MOL0     H60016   5.255   3.025  10.404 -0.4194  0.6237 -0.1945
  455MOL0     H60017   5.270   2.962  10.253 -1.6720  0.7594 -1.0362
  455MOL0     H60018   5.020   2.988  10.206  1.2854 -2.3533  0.3252
  455MOL0     H60019   5.066   2.893  10.340  0.1438  0.2188  0.6643
  455MOL0     H60020   4.879   3.044  10.410 -1.2727  1.4771  0.5652
  455MOL0     H60021   4.957   3.184  10.365  1.0341  0.4477  0.0453
  455MOL0     H60022   5.122   3.190  10.743  0.8185 -0.6009  0.8077
  455MOL0     H60023   5.033   3.170  10.976 -1.4555  0.8720  1.0954
  455MOL0     H60024   4.733   2.850  11.246  0.2178  1.8209 -0.1479
  455MOL0     H60025   4.609   2.833  11.466  0.5612 -1.1786 -1.5785
  455MOL0     H60026   4.219   3.050  11.480  2.4417  2.1351 -2.3994
  455MOL0     H60027   4.308   3.158  11.579 -2.0635 -0.1886  0.0711
  455MOL0     H60028   4.317   3.000  11.769 -0.1092  0.3068 -1.1921
  455MOL0     H60029   4.174   2.914  11.695 -3.3866  1.2230  0.2311
  455MOL0     H60030   4.066   3.141  11.657 -2.8144 -2.9382  0.4028
  455MOL0     H60031   4.178   3.203  11.792  0.6139  0.2261  0.8005
  455MOL0     H60032   3.966   2.982  11.821  3.0943 -1.7050 -1.1528
  455MOL0     H60033   4.103   3.015  11.927 -0.8071  1.2304  1.2729
  455MOL0     H60034   4.023   3.247  11.965  0.3235  0.4927 -3.9461
  455MOL0     H60035   3.904   3.135  12.009 -0.4005  2.2732  0.1035
  455MOL0     H60036   3.816   3.174  11.748  0.3912  1.8155 -2.4516
  455MOL0     H60037   3.927   3.302  11.748  0.6683  1.8553  0.7566
  455MOL0     H60038   3.832   3.431  11.923 -0.3020  0.6452 -2.1916
  455MOL0     H60039   3.726   3.392  11.801 -3.1380  0.2363  2.9701
  455MOL0     H60040   3.736   3.265  12.082 -3.1049 -2.9570  1.3977
  455MOL0     H60041   3.661   3.189  11.951  2.0036 -0.3723 -1.5431
  455MOL0     H60042   4.351   3.139  11.349 -1.4321 -0.5758 -0.8195
  455MOL0     H60043   4.491   3.166  11.131  0.7832 -2.5542 -3.3952
  455MOL0     H60044   4.709   2.934  10.801 -1.0474  2.6081 -2.0057
  455MOL0     H60045   4.819   2.932  10.587  1.0036 -0.4091 -0.6812
  455MOL0     H60046   6.431   2.946  10.199  3.1647  1.7284 -2.2900
  455MOL0     H60047   6.358   2.735  10.262  1.8731 -0.4449 -0.4512
  455MOL0     H60048   5.813   2.451  10.177  0.5286  1.1283  1.6502
  455MOL0     H60049   5.756   2.205  10.208  0.0230 -0.3687  2.6125
  455MOL0     H60050   5.767   2.050  10.354 -0.1756  0.1686 -0.1304
  455MOL0     H60051   5.872   1.927  10.407  1.4343  1.5893 -0.5385
  455MOL0     H60052   5.653   1.937  10.176 -0.6290  0.9113 -0.5864
  455MOL0     H60053   5.755   1.801  10.177  2.4797 -1.0783  1.8761
  455MOL0     H60054   5.564   1.890  10.388 -0.4998 -0.7917  1.5389
  455MOL0     H60055   5.667   1.738  10.406 -0.9419 -0.4446 -0.1960
  455MOL0     H60056   5.572   1.656  10.197 -1.0457 -0.1597 -1.4768
  455MOL0     H60057   5.461   1.654  10.335  0.9237 -0.4734  0.2250
  455MOL0     H60058   5.264   1.846  10.027 -0.0930 -1.3544 -1.6223
  455MOL0     H60059   6.172   2.101  10.180 -0.1438 -0.1532  1.6047
  455MOL0     H60060   6.234   2.326  10.188 -0.3419  0.4046  2.0032
  456MOL0     O60061   0.494   4.540   0.655 -0.6607  0.3607 -0.8325
  456MOL0     C60062   0.597   4.533   0.723 -0.1330  0.7209  0.0957
  456MOL0     O60063   0.610   4.503   0.850 -0.4277  0.2991  0.5122
  456MOL0     C60064   0.501   4.463   0.938  0.4359 -0.4445 -0.3621
  456MOL0     C60065   0.539   4.462   1.069 -0.0355 -1.0312 -0.4872
  456MOL0     C60066   0.441   4.437   1.168 -1.6128 -0.5261 -0.5253
  456MOL0     C60067   0.313   4.408   1.133 -0.3104  0.4094  0.8861
  456MOL0     O60068   0.214   4.390   1.233 -0.4144  0.1925  0.7708
  456MOL0     C60069   0.231   4.428   1.372  0.3770 -0.6533 -0.9166
  456MOL0     C60070   0.245   4.585   1.392  0.8806 -0.2686  0.0831
  456MOL0     C60071   0.124   4.661   1.342  0.8557 -0.5686  0.1570
  456MOL0     C60072   0.120   4.811   1.376  0.4091 -0.9356 -1.8516
  456MOL0     C60073   0.024   4.883   1.284 -0.1020  0.6352 -0.0266
  456MOL0     C60074   0.057   5.027   1.260 -0.7969  0.1314 -0.5325
  456MOL0     C60075  -0.080   5.109   1.234 -1.2325  0.6446 -0.2158
  456MOL0     C60076  -0.169   5.049   1.128 -0.8457 -0.5306 -0.3282
  456MOL0     N60077  -0.300   5.115   1.124  0.2924  1.0873 -0.5601
  456MOL0     C60078  -0.391   5.094   1.018 -0.1536  0.1216  0.7497
  456MOL0     C60079  -0.491   5.191   1.035  0.5228  0.0228 -0.7216
  456MOL0     C60080  -0.603   5.225   0.946  0.1552  0.6695 -0.8219
  456MOL0     C60081  -0.579   5.195   0.797 -0.0915 -0.3344  0.2669
  456MOL0     C60082  -0.717   5.188   0.740 -0.2344  0.4546  0.6492
  456MOL0     C60083  -0.724   5.204   0.586 -0.6853  0.0612  0.2814
  456MOL0     O60084  -0.834   5.129   0.539 -0.3770  0.0535  0.6525
  456MOL0     C60085  -0.954   5.180   0.565  0.2626  0.1562 -0.4570
  456MOL0     C60086  -1.055   5.090   0.596  0.2913 -0.2243  0.1539
  456MOL0     C60087  -1.175   5.140   0.636 -0.2564 -0.2456 -0.2401
  456MOL0     C60088  -1.212   5.274   0.623 -0.6119  0.4604 -0.0203
  456MOL0     C60089  -1.348   5.319   0.646  0.2310 -0.5224 -0.4736
  456MOL0     O60090  -1.438   5.216   0.663 -0.9933  0.1571  0.1188
  456MOL0     C60091  -1.565   5.250   0.706 -0.6501  0.4439 -0.5147
  456MOL0     C60092  -1.588   5.268   0.840  0.4396  0.0770  0.1100
  456MOL0     C60093  -1.720   5.291   0.888  1.1706 -0.2691 -0.1127
  456MOL0     C60094  -1.831   5.307   0.789  0.4838  0.2307 -0.3975
  456MOL0     O60095  -1.946   5.373   0.818 -0.0899 -0.4661  0.4375
  456MOL0     C60096  -1.983   5.406   0.949 -0.1815 -0.0033 -0.0564
  456MOL0     C60097  -2.119   5.464   0.967 -0.8291 -0.5983  0.3624
  456MOL0     C60098  -2.231   5.363   0.934  0.4238 -0.0393  0.5668
  456MOL0     C60099  -2.364   5.436   0.972 -0.1386 -0.1086 -0.0970
  456MOL0     C60100  -2.474   5.342   0.964  0.3759 -0.2719  0.1007
  456MOL0     C60101  -2.604   5.423   0.977  0.3011 -0.4014  0.2960
  456MOL0     C60102  -2.726   5.341   0.938 -0.4050  0.7381  1.0344
  456MOL0     C60103  -2.860   5.401   0.940  0.2925 -0.6545 -0.2087
  456MOL0    Cl60104  -2.998   5.287   0.903  0.0938  0.2292  0.4468
  456MOL0     C60105  -1.798   5.283   0.656  0.0311 -0.7577  0.2773
  456MOL0     C60106  -1.674   5.258   0.613  0.6778 -0.5806  0.1351
  456MOL0     O60107  -1.367   5.440   0.667  0.5551 -0.1490  0.2191
  456MOL0     C60108  -1.116   5.358   0.585  0.4728 -0.4314 -0.6180
  456MOL0     C60109  -0.984   5.316   0.559 -0.6025  0.0549 -0.0247
  456MOL0     N60110  -0.458   5.265   1.148 -0.0081  0.0956  0.3526
  456MOL0     N60111  -0.338   5.230   1.193  0.3594  1.0983 -1.3682
  456MOL0     C60112   0.279   4.402   0.996  0.4278 -0.8599  0.1918
  456MOL0     C60113   0.370   4.432   0.898 -0.1619 -0.0050 -0.9129
  456MOL0     C60114   0.718   4.552   0.652 -0.4062 -0.8004 -1.1009
  456MOL0     C60115   0.843   4.593   0.727  0.6848 -0.4101 -0.0214
  456MOL0     C60116   0.964   4.578   0.667 -0.1587  0.4092  1.5495
  456MOL0     C60117   0.979   4.534   0.533  1.5016  0.0868 -0.0387
  456MOL0     O60118   1.105   4.513   0.483  0.8806  0.9023  0.5456
  456MOL0     C60119   1.232   4.526   0.555  1.6628  0.5975  0.2397
  456MOL0     C60120   1.275   4.670   0.583 -0.0681 -0.3898 -0.0843
  456MOL0     C60121   1.297   4.755   0.461 -0.9412 -0.3018 -0.8364
  456MOL0     C60122   1.427   4.742   0.390 -0.0068  0.3199 -0.3278
  456MOL0     C60123   1.446   4.607   0.340  0.6556  0.6320  0.3971
  456MOL0     C60124   1.477   4.492   0.319  0.2285 -0.2071 -0.2333
  456MOL0     C60125   0.862   4.516   0.459 -0.3841 -0.0884  0.2646
  456MOL0     C60126   0.738   4.526   0.515 -0.0143  0.2514 -0.1926
  456MOL0     H60127   0.642   4.486   1.091 -0.4669  0.5110  0.0346
  456MOL0     H60128   0.468   4.433   1.273 -0.2448 -1.6531 -0.8827
  456MOL0     H60129   0.322   4.378   1.408 -0.2761 -1.8502 -0.8867
  456MOL0     H60130   0.153   4.383   1.434  1.5068  0.1089  1.1291
  456MOL0     H60131   0.335   4.617   1.339  2.5999 -1.7584  1.9911
  456MOL0     H60132   0.255   4.604   1.499 -0.4596 -0.8742  0.3411
  456MOL0     H60133   0.038   4.604   1.377 -0.3410  1.0403 -0.0430
  456MOL0     H60134   0.122   4.655   1.233 -0.3546  2.3679 -0.0776
  456MOL0     H60135   0.088   4.829   1.478 -0.3182  3.3688 -2.6729
  456MOL0     H60136   0.220   4.855   1.365  0.2240 -0.0035 -0.0822
  456MOL0     H60137  -0.074   4.872   1.331 -0.6476 -0.0978 -1.2760
  456MOL0     H60138   0.017   4.829   1.189 -0.6796 -0.2980  0.5307
  456MOL0     H60139   0.122   5.031   1.172  1.6616  4.8575  1.1822
  456MOL0     H60140   0.106   5.066   1.350  0.0921  1.4588 -1.5502
  456MOL0     H60141  -0.130   5.098   1.331  2.1649  1.9381  1.8289
  456MOL0     H60142  -0.050   5.213   1.223  2.3797 -0.0745  1.4057
  456MOL0     H60143  -0.180   4.941   1.142 -1.3319 -0.4715 -0.2644
  456MOL0     H60144  -0.120   5.062   1.031  1.4752 -1.4689  0.6417
  456MOL0     H60145  -0.390   5.015   0.943 -0.1911  0.2297  0.6355
  456MOL0     H60146  -0.618   5.332   0.962 -2.5113  0.2502  0.1299
  456MOL0     H60147  -0.687   5.170   0.990  0.6575 -1.0033 -1.8445
  456MOL0     H60148  -0.517   5.106   0.803 -0.1812 -0.3632  0.8592
  456MOL0     H60149  -0.530   5.281   0.751 -3.2978  4.5472  4.7532
  456MOL0     H60150  -0.757   5.089   0.766  1.9897  0.0897  3.0742
  456MOL0     H60151  -0.783   5.257   0.793 -1.9946 -0.0437 -0.7646
  456MOL0     H60152  -0.630   5.166   0.544 -0.8132  0.5520 -0.4508
  456MOL0     H60153  -0.728   5.306   0.548 -2.3696  0.9527  2.6400
  456MOL0     H60154  -1.041   4.984   0.578  0.3441  0.4073 -5.4714
  456MOL0     H60155  -1.245   5.063   0.666 -2.1049  1.4834  0.1231
  456MOL0     H60156  -1.503   5.256   0.907  0.6794 -3.1230 -0.6082
  456MOL0     H60157  -1.746   5.292   0.993  1.0682  0.0903 -0.1411
  456MOL0     H60158  -1.912   5.479   0.989  1.4903 -1.5490 -0.1021
  456MOL0     H60159  -1.984   5.320   1.016 -1.3365  0.5737  0.7032
  456MOL0     H60160  -2.110   5.541   0.890 -1.2278 -1.1077 -0.2073
  456MOL0     H60161  -2.141   5.511   1.063 -2.2534  0.0928 -0.2700
  456MOL0     H60162  -2.221   5.269   0.989  0.9340  0.1211  0.7487
  456MOL0     H60163  -2.218   5.339   0.828  0.2793 -0.8441  0.7266
  456MOL0     H60164  -2.355   5.484   1.070  1.3509  1.6356 -1.0202
  456MOL0     H60165  -2.378   5.506   0.888  0.0517 -0.7665 -0.6836
  456MOL0     H60166  -2.452   5.264   1.038 -0.9906  0.3170  1.1794
  456MOL0     H60167  -2.462   5.291   0.869 -0.1323 -1.7171  0.7874
  456MOL0     H60168  -2.606   5.515   0.918  0.9541 -1.2109 -1.0340
  456MOL0     H60169  -2.621   5.442   1.083  0.8533  1.0058  0.1514
  456MOL0     H60170  -2.712   5.300   0.838  2.7592 -0.0374  1.6700
  456MOL0     H60171  -2.739   5.258   1.008 -2.6125 -0.9528 -1.2490
  456MOL0     H60172  -2.860   5.489   0.874 -0.4607  0.8370  1.6736
  456MOL0     H60173  -2.864   5.441   1.042  2.1934 -2.0614  0.4702
  456MOL0     H60174  -1.877   5.286   0.581 -1.0701  1.3069  1.4546
  456MOL0     H60175  -1.653   5.257   0.506 -3.0747 -0.2003 -0.7501
  456MOL0     H60176  -1.142   5.464   0.583 -1.8291 -0.9380 -2.6014
  456MOL0     H60177  -0.915   5.397   0.539 -1.5556  1.2590  1.3658
  456MOL0     H60178   0.173   4.389   0.975  0.9811 -0.9183 -3.1554
  456MOL0     H60179   0.341   4.428   0.794 -1.6745 -2.0119 -0.4551
  456MOL0     H60180   0.841   4.624   0.831 -1.1808 -0.7551  0.0850
  456MOL0     H60181   1.046   4.592   0.737 -0.6115 -0.3466  2.2586
  456MOL0     H60182   1.305   4.469   0.498 -1.3925 -2.0254 -1.4307
  456MOL0     H60183   1.220   4.484   0.656 -1.7606  1.7382  0.4457
  456MOL0     H60184   1.197   4.712   0.648 -2.0562 -0.6189 -2.1874
  456MOL0     H60185   1.363   4.660   0.647 -0.0368 -2.1358 -0.3511
  456MOL0     H60186   1.295   4.860   0.492 -0.3679  0.0919 -2.0583
  456MOL0     H60187   1.217   4.731   0.390 -0.0010 -0.7722 -1.7628
  456MOL0     H60188   1.427   4.812   0.306 -0.9013  1.1982  0.3831
  456MOL0     H60189   1.521   4.761   0.444 -0.1195 -0.9956  0.3645
  456MOL0     H60190   1.511   4.392   0.301 -3.7316 -1.9041  0.6026
  456MOL0     H60191   0.872   4.503   0.352  1.7774 -0.4510  0.4589
  456MOL0     H60192   0.654   4.495   0.453 -0.2802 -0.1083  0.3359
  457MOL0     O60193   8.602   1.856   1.736 -0.2511  0.1414  0.2699
  457MOL0     C60194   8.558   1.848   1.621  0.6643  0.0579  0.6414
  457MOL0     O60195   8.626   1.827   1.507 -0.3517  0.5883  0.3436
  457MOL0     C60196   8.756   1.806   1.502 -0.2016 -0.4142  0.0636
  457MOL0     C60197   8.800   1.759   1.376 -1.1906 -0.7272 -0.1134
  457MOL0     C60198   8.939   1.741   1.353  0.1255 -0.3612  0.6989
  457MOL0     C60199   9.030   1.769   1.451 -0.0332  0.8929 -0.7654
  457MOL0     O60200   9.161   1.762   1.404  0.1645 -0.0478 -0.5326
  457MOL0     C60201   9.261   1.833   1.479  0.5577  0.6128 -0.1562
  457MOL0     C60202   9.393   1.820   1.404  0.6994  0.8160  0.3267
  457MOL0     C60203   9.514   1.866   1.484 -0.1017 -0.0154 -0.0649
  457MOL0     C60204   9.631   1.894   1.394 -0.0593  1.0601  0.1800
  457MOL0     C60205   9.718   1.769   1.383  0.2088 -0.4714 -0.4176
  457MOL0     C60206   9.826   1.796   1.286 -0.4280 -0.3544  0.2303
  457MOL0     C60207   9.922   1.673   1.279 -0.1690  0.3237 -0.8100
  457MOL0     C60208  10.043   1.715   1.194  0.6366  0.2255 -0.1055
  457MOL0     N60209  10.019   1.700   1.046  0.4847  0.3239 -0.1296
  457MOL0     C60210   9.996   1.584   0.974 -0.9137 -0.6840 -0.5428
  457MOL0     C60211   9.975   1.618   0.847  0.3134 -0.2455  0.6556
  457MOL0     C60212   9.954   1.522   0.730  0.1926 -0.4380  0.1585
  457MOL0     C60213  10.076   1.445   0.691 -0.1295  0.4564 -0.4630
  457MOL0     C60214  10.194   1.527   0.664  0.5588 -0.3275 -0.0928
  457MOL0     C60215  10.298   1.438   0.603  0.6306 -1.0775  0.7121
  457MOL0     O60216  10.259   1.438   0.459  0.3565  0.6468 -0.1300
  457MOL0     C60217  10.351   1.405   0.362 -0.2131  0.3092  0.1382
  457MOL0     C60218  10.471   1.335   0.393 -1.0897  0.2286 -0.7569
  457MOL0     C60219  10.553   1.294   0.292  0.3773  1.0913  0.6412
  457MOL0     C60220  10.524   1.341   0.157 -0.5613 -0.3278  0.1782
  457MOL0     C60221  10.620   1.304   0.046  0.3508 -1.1107  0.6774
  457MOL0     O60222  10.712   1.202   0.075  0.7275 -0.5401 -0.2684
  457MOL0     C60223  10.818   1.168   0.000  1.5410  0.0463 -0.0477
  457MOL0     C60224  10.893   1.061   0.042 -0.2494 -0.0797 -0.3267
  457MOL0     C60225  11.017   1.041  -0.026 -0.6206  0.2213  0.0846
  457MOL0     C60226  11.064   1.115  -0.129 -0.6045  0.6914  0.2727
  457MOL0     O60227  11.189   1.090  -0.166  0.6640  0.3077 -0.1356
  457MOL0     C60228  11.275   1.195  -0.202  0.5083 -1.2541  0.2323
  457MOL0     C60229  11.357   1.172  -0.331 -0.4214  0.0830 -0.2407
  457MOL0     C60230  11.402   1.300  -0.391 -0.0903 -0.5809  0.4298
  457MOL0     C60231  11.412   1.280  -0.548 -0.3937  0.1503 -0.4668
  457MOL0     C60232  11.370   1.408  -0.626 -0.3835 -0.0483 -0.6128
  457MOL0     C60233  11.467   1.523  -0.602 -0.0370 -0.1811  0.1852
  457MOL0     C60234  11.431   1.643  -0.690  0.8084 -0.5767 -0.6039
  457MOL0     C60235  11.552   1.740  -0.698  0.3092  0.3559 -0.8076
  457MOL0    Cl60236  11.700   1.687  -0.774  0.1332  0.0934 -0.1007
  457MOL0     C60237  10.980   1.216  -0.179  0.3585 -0.4999 -0.0448
  457MOL0     C60238  10.861   1.245  -0.119  0.4833  0.7968 -0.1296
  457MOL0     O60239  10.581   1.343  -0.066  0.2040  0.5539 -0.9342
  457MOL0     C60240  10.397   1.408   0.126 -0.6895 -0.4493  0.0269
  457MOL0     C60241  10.317   1.426   0.225  0.4214  0.8251  0.1163
  457MOL0     N60242   9.965   1.764   0.841 -0.1263 -0.8225 -0.0488
  457MOL0     N60243   9.989   1.805   0.964  0.1612 -0.9005  0.0757
  457MOL0     C60244   8.989   1.816   1.577 -0.6275  0.1202  0.1373
  457MOL0     C60245   8.852   1.826   1.603 -1.5750  0.6705  0.3443
  457MOL0     C60246   8.409   1.889   1.606 -1.2467 -1.2443 -0.7348
  457MOL0     C60247   8.323   1.876   1.718  0.2034 -0.2793 -0.1217
  457MOL0     C60248   8.187   1.909   1.713 -1.2187  0.7580 -0.5337
  457MOL0     C60249   8.123   1.948   1.601 -0.0568  0.1186 -0.1680
  457MOL0     O60250   7.986   1.969   1.602 -0.1564  0.1135 -0.6942
  457MOL0     C60251   7.928   2.033   1.497  0.5421 -0.2397  0.0532
  457MOL0     C60252   7.949   2.190   1.525  0.6032 -0.0566 -0.5866
  457MOL0     C60253   7.852   2.242   1.638  0.0956 -0.6876 -0.1654
  457MOL0     C60254   7.853   2.392   1.659 -0.3742 -0.1780  0.3653
  457MOL0     C60255   7.812   2.464   1.541 -0.6871 -0.7657  0.1337
  457MOL0     C60256   7.782   2.512   1.429 -0.1792  0.1119 -0.3677
  457MOL0     C60257   8.210   1.958   1.484  0.1215  0.5214  0.0782
  457MOL0     C60258   8.348   1.921   1.484 -0.8332 -0.2541 -0.1215
  457MOL0     H60259   8.730   1.740   1.296 -1.9996 -0.7666  0.5827
  457MOL0     H60260   8.981   1.713   1.257 -2.2510 -1.2081 -0.1711
  457MOL0     H60261   9.269   1.789   1.579 -1.1201  0.4436 -0.0734
  457MOL0     H60262   9.243   1.941   1.481 -1.7795  0.2728  1.4719
  457MOL0     H60263   9.392   1.882   1.313 -0.7576  1.1031  0.5193
  457MOL0     H60264   9.399   1.715   1.373 -1.6446 -0.0048  2.3783
  457MOL0     H60265   9.533   1.796   1.566  1.9042 -0.3039 -0.7268
  457MOL0     H60266   9.478   1.958   1.531 -3.2111 -0.1309 -1.9897
  457MOL0     H60267   9.600   1.925   1.294 -1.8331 -2.3201 -0.4639
  457MOL0     H60268   9.691   1.978   1.429  1.4103  0.8825 -1.7577
  457MOL0     H60269   9.648   1.689   1.355 -1.7464 -0.0333  2.6516
  457MOL0     H60270   9.755   1.727   1.478 -3.8299 -4.4126 -0.2404
  457MOL0     H60271   9.892   1.879   1.310 -1.3708  1.2565 -2.4004
  457MOL0     H60272   9.787   1.807   1.185 -1.3668 -1.6948  0.4118
  457MOL0     H60273   9.953   1.653   1.382 -0.7445 -3.2650 -1.2099
  457MOL0     H60274   9.862   1.589   1.244 -0.8724 -1.3253  3.6845
  457MOL0     H60275  10.121   1.639   1.213 -1.3433 -1.1672  3.5569
  457MOL0     H60276  10.091   1.811   1.214  1.8117 -0.4709  0.5463
  457MOL0     H60277  10.025   1.483   0.997 -1.6544 -0.1995  3.1477
  457MOL0     H60278   9.919   1.575   0.640  2.1449  1.5927  0.5058
  457MOL0     H60279   9.870   1.459   0.760 -2.0636  2.7060  0.9158
  457MOL0     H60280  10.061   1.390   0.598 -0.2940  0.3175 -0.3537
  457MOL0     H60281  10.091   1.385   0.781  0.3289  1.4339  0.1253
  457MOL0     H60282  10.174   1.611   0.597  2.4528 -0.7849 -1.3282
  457MOL0     H60283  10.225   1.563   0.763 -1.3538 -1.7006  1.0559
  457MOL0     H60284  10.298   1.338   0.648  0.8746 -0.1231  2.9781
  457MOL0     H60285  10.392   1.492   0.616 -0.2501  0.2847  1.6277
  457MOL0     H60286  10.499   1.310   0.495 -1.4727 -2.5473 -1.2477
  457MOL0     H60287  10.639   1.232   0.314 -0.4032 -0.3699 -0.3096
  457MOL0     H60288  10.861   0.999   0.125  1.4008 -1.3507 -0.5860
  457MOL0     H60289  11.089   0.966   0.007 -1.2390 -1.5248 -2.2549
  457MOL0     H60290  11.348   1.215  -0.122  1.9076  2.7054 -1.7880
  457MOL0     H60291  11.213   1.284  -0.214 -0.9458 -2.1481  0.8330
  457MOL0     H60292  11.289   1.124  -0.402  0.2669  2.0859 -2.3847
  457MOL0     H60293  11.436   1.099  -0.312  2.7015  2.3568 -3.2096
  457MOL0     H60294  11.502   1.325  -0.356 -0.8425  2.2746  0.8298
  457MOL0     H60295  11.336   1.385  -0.371 -0.0802 -0.3855 -0.3186
  457MOL0     H60296  11.517   1.269  -0.577 -0.6418 -1.6473 -0.8150
  457MOL0     H60297  11.345   1.197  -0.573 -1.0945  0.1788  1.1602
  457MOL0     H60298  11.275   1.447  -0.589  0.6497  0.2777  1.9453
  457MOL0     H60299  11.363   1.384  -0.732  0.0817 -1.9969 -0.2538
  457MOL0     H60300  11.569   1.495  -0.632  0.3131  1.7305 -0.5445
  457MOL0     H60301  11.467   1.549  -0.495  2.4050  0.7155  0.0403
  457MOL0     H60302  11.391   1.606  -0.785 -0.9176  1.0651 -0.5912
  457MOL0     H60303  11.355   1.704  -0.639  1.2201  0.3117 -1.0278
  457MOL0     H60304  11.589   1.752  -0.596  0.0856  3.3193 -1.0108
  457MOL0     H60305  11.514   1.833  -0.740 -0.1074  1.6275  2.1434
  457MOL0     H60306  11.012   1.261  -0.272  1.5735 -1.0466  0.0939
  457MOL0     H60307  10.799   1.326  -0.154 -0.6496  0.3074  0.6835
  457MOL0     H60308  10.366   1.435   0.026  0.0871  1.1213  0.1678
  457MOL0     H60309  10.219   1.469   0.208  0.2941 -0.1610 -1.9423
  457MOL0     H60310   9.059   1.833   1.658  1.1862  2.6128 -1.7762
  457MOL0     H60311   8.827   1.844   1.707 -2.5142 -1.3695  0.5163
  457MOL0     H60312   8.350   1.854   1.821  0.1148 -1.6467 -0.3790
  457MOL0     H60313   8.130   1.912   1.805  1.2615  1.3008  1.0634
  457MOL0     H60314   7.827   1.993   1.493  1.2519 -2.1973  0.7475
  457MOL0     H60315   7.968   2.014   1.397 -1.5909 -4.4187 -0.2143
  457MOL0     H60316   8.047   2.207   1.572  0.7793 -1.1574 -0.5178
  457MOL0     H60317   7.932   2.236   1.428 -0.5878  0.4209 -0.1661
  457MOL0     H60318   7.865   2.188   1.732  0.2427 -0.5908 -0.1307
  457MOL0     H60319   7.750   2.219   1.605  0.7325 -0.8984 -2.1333
  457MOL0     H60320   7.794   2.421   1.746 -2.4481  0.0215 -1.0477
  457MOL0     H60321   7.958   2.419   1.675  0.1984 -3.0836  2.3838
  457MOL0     H60322   7.778   2.550   1.329  1.9350  0.9362 -0.1706
  457MOL0     H60323   8.165   1.997   1.393  1.0140  2.4986  0.4412
  457MOL0     H60324   8.406   1.931   1.392 -0.4015  4.0191  0.3872
  458MOL0     O60325   6.955   0.350   3.536 -0.0467 -0.0210  0.2192
  458MOL0     C60326   6.854   0.417   3.549  0.3778  0.6976  0.0074
  458MOL0     O60327   6.831   0.537   3.488 -0.4867 -0.2365 -1.0639
  458MOL0     C60328   6.913   0.584   3.383  0.4992  0.1182 -0.2397
  458MOL0     C60329   6.946   0.513   3.272 -1.0609 -0.3816  0.5436
  458MOL0     C60330   7.054   0.557   3.183 -0.3601  0.0996 -0.0708
  458MOL0     C60331   7.098   0.685   3.192 -0.3629 -0.2738 -0.2502
  458MOL0     O60332   7.172   0.750   3.099  1.0646  0.4073 -0.3103
  458MOL0     C60333   7.295   0.682   3.079  0.2131  0.2240 -0.3815
  458MOL0     C60334   7.341   0.707   2.929 -0.2429  0.6211 -0.8381
  458MOL0     C60335   7.435   0.588   2.882 -0.4690 -0.5689 -0.2027
  458MOL0     C60336   7.449   0.595   2.724 -0.1435  0.1989 -0.8984
  458MOL0     C60337   7.540   0.486   2.671 -0.0791  0.4937 -0.2517
  458MOL0     C60338   7.463   0.350   2.670  0.1764 -0.3780 -0.6291
  458MOL0     C60339   7.351   0.378   2.568 -0.3829  0.9915 -0.1725
  458MOL0     C60340   7.262   0.247   2.584  0.6726 -1.3387  0.3663
  458MOL0     N60341   7.335   0.130   2.539  0.7782 -0.8685  0.1141
  458MOL0     C60342   7.352   0.085   2.408 -1.2840 -0.7496 -0.9094
  458MOL0     C60343   7.392  -0.049   2.413 -0.1756 -0.4208 -0.8226
  458MOL0     C60344   7.407  -0.155   2.303 -0.6558  0.0316  0.5413
  458MOL0     C60345   7.548  -0.178   2.252 -0.4899  0.8629 -0.5314
  458MOL0     C60346   7.618  -0.053   2.198  0.5992 -0.2994 -0.4555
  458MOL0     C60347   7.766  -0.063   2.180  0.6147  0.3460  0.9426
  458MOL0     O60348   7.815   0.036   2.088  1.0595 -0.5086 -0.1596
  458MOL0     C60349   7.942   0.090   2.091 -0.1542  0.3235 -0.6915
  458MOL0     C60350   8.037   0.041   2.183  0.0215 -0.5132  0.0411
  458MOL0     C60351   8.156   0.115   2.190  0.0456  0.4146  0.4279
  458MOL0     C60352   8.194   0.230   2.121  0.4225 -0.0270 -1.0474
  458MOL0     C60353   8.310   0.303   2.156  0.0894  0.2396  0.2085
  458MOL0     O60354   8.340   0.411   2.074 -1.0471 -0.9061  0.2280
  458MOL0     C60355   8.460   0.471   2.098 -0.1375 -0.1054 -0.2621
  458MOL0     C60356   8.496   0.522   2.228  0.1021  1.1847  0.4185
  458MOL0     C60357   8.631   0.561   2.245 -0.3256  0.2824  0.2429
  458MOL0     C60358   8.721   0.553   2.149 -0.7610 -0.9079 -0.1370
  458MOL0     O60359   8.843   0.597   2.190 -0.1969  0.0522  0.9338
  458MOL0     C60360   8.959   0.556   2.118  0.3230  0.2527  0.3759
  458MOL0     C60361   9.084   0.608   2.185  0.4508 -0.2296 -0.2594
  458MOL0     C60362   9.098   0.752   2.142  0.1014  0.8970 -0.7987
  458MOL0     C60363   9.209   0.827   2.217  0.7503  0.0997  0.0456
  458MOL0     C60364   9.245   0.960   2.155  0.2466  0.4243  0.1357
  458MOL0     C60365   9.358   0.958   2.057 -0.3277  0.2178  0.4882
  458MOL0     C60366   9.486   0.915   2.107 -0.6153  0.3547  0.0347
  458MOL0     C60367   9.528   0.955   2.253 -1.2364  0.3594 -0.6026
  458MOL0    Cl60368   9.562   1.129   2.276  1.0110  0.2985  0.3259
  458MOL0     C60369   8.688   0.516   2.021  0.3659  0.1971 -0.4332
  458MOL0     C60370   8.562   0.465   1.998 -0.3959 -0.2863  0.2922
  458MOL0     O60371   8.372   0.269   2.259 -0.3687  0.2998  0.1829
  458MOL0     C60372   8.106   0.269   2.024  0.4318  0.5166 -0.5984
  458MOL0     C60373   7.982   0.205   2.012 -0.5284 -0.5947 -0.0746
  458MOL0     N60374   7.392  -0.081   2.553 -0.1140  0.3590  0.2759
  458MOL0     N60375   7.355   0.027   2.622  0.3255  0.0844  0.1988
  458MOL0     C60376   7.037   0.758   3.296 -0.2645 -0.1632 -0.1642
  458MOL0     C60377   6.954   0.717   3.394  0.5081  0.3015  0.6254
  458MOL0     C60378   6.745   0.374   3.640 -1.2632  0.1656  0.6378
  458MOL0     C60379   6.630   0.455   3.650 -0.3299  0.7481 -1.2437
  458MOL0     C60380   6.518   0.403   3.719 -0.9829 -0.8201  0.0021
  458MOL0     C60381   6.526   0.280   3.787  0.6896  0.4121 -0.4611
  458MOL0     O60382   6.411   0.250   3.868  0.0182 -0.4214 -0.5845
  458MOL0     C60383   6.432   0.149   3.966 -0.2865 -0.7570  0.8034
  458MOL0     C60384   6.375   0.015   3.910 -0.1878  0.3496  0.2110
  458MOL0     C60385   6.219   0.012   3.918  0.3236  0.1351  0.0410
  458MOL0     C60386   6.177  -0.131   3.916 -0.2058 -0.2266 -0.7547
  458MOL0     C60387   6.184  -0.191   3.787  0.7800 -1.1360 -0.0356
  458MOL0     C60388   6.215  -0.242   3.676  0.1791 -0.0323 -0.0674
  458MOL0     C60389   6.640   0.204   3.771 -0.0275 -0.5668  0.2031
  458MOL0     C60390   6.749   0.250   3.696 -0.6355 -0.6223 -1.1967
  458MOL0     H60391   6.912   0.411   3.256  1.3085 -1.1205 -0.2421
  458MOL0     H60392   7.086   0.487   3.107 -0.2198 -3.6485  3.1771
  458MOL0     H60393   7.301   0.574   3.095  1.4457  0.2823 -0.3308
  458MOL0     H60394   7.377   0.719   3.142  0.9013 -1.8976  0.0706
  458MOL0     H60395   7.396   0.800   2.910  2.3334 -0.9602 -1.7059
  458MOL0     H60396   7.253   0.706   2.864  1.3593  1.4258 -3.1363
  458MOL0     H60397   7.392   0.493   2.915 -2.3536  1.0587  2.3825
  458MOL0     H60398   7.536   0.592   2.923 -0.4696 -1.2375 -0.1147
  458MOL0     H60399   7.349   0.605   2.681 -0.1627 -0.3694 -0.9928
  458MOL0     H60400   7.497   0.690   2.702  2.3623 -0.2551  1.8727
  458MOL0     H60401   7.633   0.485   2.728  0.2852 -0.2031 -0.8409
  458MOL0     H60402   7.587   0.512   2.575  1.3658  0.0233  0.3132
  458MOL0     H60403   7.422   0.327   2.768  0.1279  1.6103 -0.1325
  458MOL0     H60404   7.538   0.273   2.648  0.0878 -0.3624 -0.9973
  458MOL0     H60405   7.276   0.456   2.581 -0.9472  0.7818 -1.8129
  458MOL0     H60406   7.390   0.383   2.465  2.2450 -1.0935  0.5989
  458MOL0     H60407   7.174   0.263   2.522  1.8522 -0.3395 -1.1427
  458MOL0     H60408   7.234   0.239   2.690  1.7839  0.4403  0.8509
  458MOL0     H60409   7.334   0.137   2.315 -0.5025 -0.7912 -1.0905
  458MOL0     H60410   7.345  -0.121   2.219 -0.9825 -2.0732 -0.1108
  458MOL0     H60411   7.369  -0.251   2.338  0.9641 -0.7212  0.2746
  458MOL0     H60412   7.544  -0.260   2.179 -0.1093  0.4965 -0.1424
  458MOL0     H60413   7.598  -0.217   2.340 -2.4685  2.2037  1.2967
  458MOL0     H60414   7.571  -0.030   2.102 -1.8983 -0.1242  0.7120
  458MOL0     H60415   7.612   0.032   2.267  2.5189 -0.5314  0.0499
  458MOL0     H60416   7.801  -0.163   2.152 -1.7126  0.0419 -1.2592
  458MOL0     H60417   7.804  -0.034   2.278  1.2955  1.9074  0.2674
  458MOL0     H60418   8.027  -0.034   2.261 -1.1207 -0.7378 -0.3049
  458MOL0     H60419   8.223   0.069   2.262  0.2469 -1.4247 -0.8454
  458MOL0     H60420   8.429   0.523   2.313 -1.2650 -1.4258 -0.5019
  458MOL0     H60421   8.660   0.592   2.346 -0.7955  2.2832 -0.1830
  458MOL0     H60422   8.961   0.586   2.013 -1.5733  1.7389  0.7240
  458MOL0     H60423   8.964   0.446   2.117 -1.2254  0.1404  1.6903
  458MOL0     H60424   9.182   0.566   2.162  0.3768  0.6615 -2.5333
  458MOL0     H60425   9.066   0.614   2.292  1.3034 -0.9214 -0.0649
  458MOL0     H60426   9.006   0.805   2.166 -0.0019 -0.8303  3.5489
  458MOL0     H60427   9.128   0.750   2.037  1.1054  0.4981 -0.5138
  458MOL0     H60428   9.171   0.852   2.317  0.8983 -1.4658  0.5356
  458MOL0     H60429   9.302   0.770   2.231  1.7281  0.8525 -2.8235
  458MOL0     H60430   9.270   1.038   2.229  2.4320 -0.2657  0.1838
  458MOL0     H60431   9.153   0.995   2.108  0.8496 -0.9284 -2.2007
  458MOL0     H60432   9.360   1.061   2.018  0.7321 -0.3088 -0.9608
  458MOL0     H60433   9.320   0.908   1.967 -2.5115  2.7756 -0.1398
  458MOL0     H60434   9.484   0.805   2.099  2.2939 -0.0582  2.8029
  458MOL0     H60435   9.566   0.956   2.045 -0.6506  2.2184  1.1648
  458MOL0     H60436   9.621   0.903   2.279 -0.6325  1.5140 -0.4084
  458MOL0     H60437   9.456   0.909   2.321  1.9661 -3.1362  0.7615
  458MOL0     H60438   8.761   0.507   1.941 -0.2133 -2.4683 -0.7877
  458MOL0     H60439   8.531   0.434   1.899  2.1298 -0.2058 -0.5957
  458MOL0     H60440   8.129   0.360   1.971  1.4296  1.2970  1.1063
  458MOL0     H60441   7.908   0.247   1.945 -0.0099 -0.2341 -0.4338
  458MOL0     H60442   7.070   0.861   3.291  0.0243 -0.3018 -2.8898
  458MOL0     H60443   6.924   0.783   3.474 -1.5386 -0.8009  0.8231
  458MOL0     H60444   6.624   0.556   3.608 -1.3210  1.4488  0.5019
  458MOL0     H60445   6.430   0.461   3.745 -1.5372 -1.7915  0.3448
  458MOL0     H60446   6.380   0.186   4.055  0.7058  2.8752  0.0419
  458MOL0     H60447   6.536   0.139   3.999  0.2740  0.0851 -0.6079
  458MOL0     H60448   6.419  -0.006   3.812 -2.7122  2.4592 -1.4934
  458MOL0     H60449   6.411  -0.066   3.975  0.0858  1.0302  0.9277
  458MOL0     H60450   6.179   0.064   3.831  0.9696  2.4118  1.0282
  458MOL0     H60451   6.180   0.048   4.014 -3.5318  2.1692 -2.0526
  458MOL0     H60452   6.230  -0.190   3.991  0.2589  2.0396  0.8099
  458MOL0     H60453   6.072  -0.130   3.946 -0.0745 -0.7976 -0.2408
  458MOL0     H60454   6.249  -0.278   3.581 -2.1407  1.6097 -1.6175
  458MOL0     H60455   6.647   0.107   3.819 -0.2184  0.5440  2.6208
  458MOL0     H60456   6.833   0.182   3.684  2.2589  2.2830  0.7875
  459MOL0     O60457   0.185   5.370   2.770  0.8772 -0.8850 -0.5237
  459MOL0     C60458   0.150   5.275   2.842 -0.8857  0.8846 -0.1411
  459MOL0     O60459   0.034   5.256   2.908 -1.0806 -0.4145 -0.8766
  459MOL0     C60460  -0.075   5.312   2.855 -0.0404  0.0981  0.3946
  459MOL0     C60461  -0.118   5.298   2.713 -0.8516  0.4622 -0.5382
  459MOL0     C60462  -0.229   5.361   2.663 -0.5256 -0.0833  0.1892
  459MOL0     C60463  -0.309   5.429   2.757  0.3446 -0.8408  0.2026
  459MOL0     O60464  -0.416   5.500   2.706 -0.2719  0.0309 -0.0195
  459MOL0     C60465  -0.538   5.446   2.752 -0.0175 -0.0698  0.8254
  459MOL0     C60466  -0.648   5.503   2.678  0.3057 -0.5722  0.5676
  459MOL0     C60467  -0.774   5.428   2.698 -0.6594  1.2137 -0.3631
  459MOL0     C60468  -0.890   5.496   2.636  0.0150 -0.7119  0.1821
  459MOL0     C60469  -1.029   5.450   2.671  0.3403  0.8213  0.5073
  459MOL0     C60470  -1.061   5.480   2.813  0.7039 -0.0021  0.1181
  459MOL0     C60471  -1.209   5.487   2.845  0.9393 -0.0609 -0.2783
  459MOL0     C60472  -1.243   5.506   2.992 -0.0691 -0.4680  0.1383
  459MOL0     N60473  -1.185   5.403   3.080  0.5564 -0.5915  0.4567
  459MOL0     C60474  -1.087   5.424   3.167  0.2686 -0.3323  0.6751
  459MOL0     C60475  -1.071   5.311   3.237  0.6147 -0.6138  0.2334
  459MOL0     C60476  -0.985   5.279   3.354 -0.0132  0.6498  0.4612
  459MOL0     C60477  -0.844   5.243   3.318  0.5679  0.2049  0.0527
  459MOL0     C60478  -0.766   5.362   3.267 -1.0239 -0.2939 -0.4926
  459MOL0     C60479  -0.613   5.331   3.273  0.1927 -0.1266 -0.3164
  459MOL0     O60480  -0.535   5.453   3.244 -0.2082 -0.8762 -0.0432
  459MOL0     C60481  -0.400   5.475   3.283 -0.3497 -0.7999  0.4478
  459MOL0     C60482  -0.333   5.591   3.241 -0.1143  0.6391 -0.1610
  459MOL0     C60483  -0.200   5.590   3.258 -0.0704 -0.3978  0.1157
  459MOL0     C60484  -0.125   5.487   3.312 -0.7178  0.0541  0.3455
  459MOL0     C60485   0.018   5.482   3.295  0.4067  0.4040 -0.4519
  459MOL0     O60486   0.068   5.354   3.283  0.6353  0.0256 -0.3932
  459MOL0     C60487   0.207   5.354   3.284 -0.1983 -1.3235 -0.8918
  459MOL0     C60488   0.292   5.419   3.190 -0.3408  0.5757 -0.4416
  459MOL0     C60489   0.425   5.427   3.205  0.0444 -0.2775  0.8902
  459MOL0     C60490   0.493   5.362   3.311 -0.4258  1.6659  0.4954
  459MOL0     O60491   0.628   5.375   3.316  0.0956  0.0250 -0.0188
  459MOL0     C60492   0.691   5.300   3.426 -1.5025 -0.5515  0.6841
  459MOL0     C60493   0.842   5.312   3.421 -0.3210 -0.2101  0.3731
  459MOL0     C60494   0.882   5.455   3.372 -0.4346 -0.4180  0.2462
  459MOL0     C60495   1.037   5.455   3.376 -0.3807 -0.1335  0.2915
  459MOL0     C60496   1.095   5.563   3.285  0.6931 -0.2192 -0.3896
  459MOL0     C60497   1.240   5.546   3.263 -0.1311  0.2553 -0.3649
  459MOL0     C60498   1.315   5.562   3.400 -0.3048  0.4339 -0.6628
  459MOL0     C60499   1.457   5.583   3.380 -0.3577  0.0741 -0.0001
  459MOL0    Cl60500   1.546   5.465   3.283  0.5025 -0.0909 -0.0070
  459MOL0     C60501   0.409   5.296   3.403  0.5536 -0.4453  0.6777
  459MOL0     C60502   0.271   5.294   3.394  0.5602  0.1190  0.3227
  459MOL0     O60503   0.083   5.588   3.292 -0.4651 -0.0709 -0.2286
  459MOL0     C60504  -0.196   5.378   3.362 -0.4068  0.0397 -0.5665
  459MOL0     C60505  -0.334   5.373   3.351  0.5013 -0.4250 -0.5281
  459MOL0     N60506  -1.170   5.228   3.193 -0.0454  0.4062 -0.0378
  459MOL0     N60507  -1.236   5.281   3.100  0.0628  0.2239  0.4558
  459MOL0     C60508  -0.270   5.452   2.891  0.2320  0.4823  0.0200
  459MOL0     C60509  -0.151   5.392   2.940 -0.1121  0.5852 -0.5678
  459MOL0     C60510   0.262   5.182   2.878 -0.6702  0.4970  0.0663
  459MOL0     C60511   0.271   5.129   3.014  0.3614 -0.2186  0.4602
  459MOL0     C60512   0.389   5.063   3.052  0.0570  0.7006 -0.1256
  459MOL0     C60513   0.483   5.035   2.955 -0.9036 -0.0024 -0.4562
  459MOL0     O60514   0.595   4.973   2.995 -0.3616  0.5880 -0.3970
  459MOL0     C60515   0.685   5.054   3.061 -0.2912  0.1903  0.0330
  459MOL0     C60516   0.745   5.159   2.964 -0.1417 -0.3804 -0.3502
  459MOL0     C60517   0.870   5.209   3.043 -1.2607 -0.6086  0.1753
  459MOL0     C60518   0.935   5.323   2.964 -0.5606  0.5670  0.7634
  459MOL0     C60519   0.857   5.447   2.974  0.3326 -0.1209 -0.5085
  459MOL0     C60520   0.802   5.560   2.984  0.1731  0.1247  0.8416
  459MOL0     C60521   0.467   5.074   2.814  0.0604  0.4923  0.0162
  459MOL0     C60522   0.363   5.160   2.782  0.0045  0.2285 -0.8821
  459MOL0     H60523  -0.048   5.259   2.639  0.7384  2.0922  0.0088
  459MOL0     H60524  -0.267   5.353   2.562 -0.7992 -2.0773  0.4165
  459MOL0     H60525  -0.559   5.463   2.858  0.2761 -0.1290  0.8949
  459MOL0     H60526  -0.541   5.336   2.754 -0.5911 -0.1107 -0.9902
  459MOL0     H60527  -0.615   5.511   2.575  0.0854 -1.5472  0.4058
  459MOL0     H60528  -0.657   5.605   2.716  2.3621 -0.1599  0.0554
  459MOL0     H60529  -0.785   5.419   2.806 -0.2209  0.8602 -0.3443
  459MOL0     H60530  -0.759   5.328   2.655 -0.5005  1.8182 -1.7630
  459MOL0     H60531  -0.891   5.604   2.653 -0.1509 -0.8444  1.0836
  459MOL0     H60532  -0.864   5.477   2.532 -2.9130  0.5529 -0.8785
  459MOL0     H60533  -1.042   5.345   2.645 -1.7397  1.6376 -2.1881
  459MOL0     H60534  -1.098   5.498   2.601  1.2979  1.7098  0.1316
  459MOL0     H60535  -1.022   5.579   2.840  1.1031  0.1426 -0.9445
  459MOL0     H60536  -1.021   5.405   2.881  0.6481 -1.2941 -1.2435
  459MOL0     H60537  -1.253   5.564   2.781  1.7593 -2.8553 -4.6000
  459MOL0     H60538  -1.265   5.397   2.818 -2.0094  1.2389  1.0728
  459MOL0     H60539  -1.351   5.505   3.011  0.0094 -1.2801  0.6009
  459MOL0     H60540  -1.209   5.606   3.022 -0.0839 -0.5710  0.5029
  459MOL0     H60541  -1.028   5.513   3.185  2.3237 -1.4640 -0.0790
  459MOL0     H60542  -1.036   5.197   3.407 -1.0990  0.9334 -0.1259
  459MOL0     H60543  -0.977   5.358   3.429  4.2165 -0.5069  1.4897
  459MOL0     H60544  -0.853   5.167   3.239  0.8765  0.7471 -0.5153
  459MOL0     H60545  -0.793   5.193   3.400  2.6239  1.7814 -0.1745
  459MOL0     H60546  -0.792   5.392   3.165  0.6017  2.7768 -0.1077
  459MOL0     H60547  -0.765   5.451   3.331  3.4243 -0.4582  0.0048
  459MOL0     H60548  -0.585   5.253   3.201 -0.1009  2.0111 -2.9061
  459MOL0     H60549  -0.589   5.302   3.376  3.1006  1.0244 -0.5775
  459MOL0     H60550  -0.383   5.679   3.204  0.6636  1.3607  0.4769
  459MOL0     H60551  -0.152   5.680   3.221 -1.9177  1.2464  1.4845
  459MOL0     H60552   0.250   5.460   3.099 -0.7208 -0.4441 -0.7383
  459MOL0     H60553   0.468   5.490   3.128 -1.6073 -0.9836 -0.6769
  459MOL0     H60554   0.669   5.194   3.414  1.4605 -1.2200  0.2724
  459MOL0     H60555   0.649   5.332   3.522 -2.5004  1.4285 -0.3467
  459MOL0     H60556   0.868   5.237   3.345 -1.1732 -3.5390  3.1301
  459MOL0     H60557   0.874   5.274   3.518  0.0192  1.7268  1.0447
  459MOL0     H60558   0.842   5.533   3.438  4.3039  1.5396  1.1908
  459MOL0     H60559   0.859   5.486   3.269  1.3925 -1.0453 -0.3884
  459MOL0     H60560   1.069   5.463   3.481 -1.1778  1.1512  0.4608
  459MOL0     H60561   1.070   5.361   3.331 -1.6395 -0.0136 -0.9534
  459MOL0     H60562   1.086   5.657   3.341  0.6552  0.8760 -2.1510
  459MOL0     H60563   1.034   5.569   3.194  1.4012  1.3718 -0.8132
  459MOL0     H60564   1.269   5.626   3.195  0.1358  1.6709  1.3449
  459MOL0     H60565   1.260   5.452   3.212  1.2463  0.8349 -0.9337
  459MOL0     H60566   1.274   5.642   3.463 -2.4869  1.0439 -2.6890
  459MOL0     H60567   1.313   5.461   3.443  1.2352  1.1041  1.1078
  459MOL0     H60568   1.503   5.569   3.478  0.1634 -0.5316 -0.3291
  459MOL0     H60569   1.480   5.686   3.349  1.1922  0.2586  1.6074
  459MOL0     H60570   0.446   5.239   3.487 -2.2387 -2.7195  0.5146
  459MOL0     H60571   0.214   5.235   3.465 -0.0696  1.6908  1.1738
  459MOL0     H60572  -0.136   5.297   3.400  0.4032  0.4641 -0.9216
  459MOL0     H60573  -0.378   5.276   3.373 -0.3544 -0.0087 -0.3287
  459MOL0     H60574  -0.334   5.517   2.949 -2.2011 -2.0716  0.4575
  459MOL0     H60575  -0.105   5.405   3.037 -0.5396  0.1573 -0.3039
  459MOL0     H60576   0.186   5.150   3.078 -2.1051  2.6111 -3.2782
  459MOL0     H60577   0.414   5.022   3.150 -1.5895 -1.3774 -0.5093
  459MOL0     H60578   0.765   4.984   3.090 -0.0054  1.0117  1.2662
  459MOL0     H60579   0.634   5.095   3.148 -1.6822 -0.4779 -0.4413
  459MOL0     H60580   0.791   5.112   2.876  3.1400  0.7047  0.6286
  459MOL0     H60581   0.677   5.239   2.935  0.3164  0.8270  1.7478
  459MOL0     H60582   0.930   5.121   3.070 -2.4210 -1.4496  0.0682
  459MOL0     H60583   0.843   5.243   3.143 -2.6651  1.4847 -0.8473
  459MOL0     H60584   1.033   5.342   3.008  0.6396 -1.0779 -1.0134
  459MOL0     H60585   0.963   5.304   2.860  1.5480 -0.7869  1.4965
  459MOL0     H60586   0.765   5.661   2.990  0.8068  0.5674 -1.5798
  459MOL0     H60587   0.542   5.048   2.740 -0.2799 -1.5637  0.3438
  459MOL0     H60588   0.361   5.183   2.676  0.6419  2.4133 -0.4676
  460MOL0     O60589   5.054   9.543   0.723 -0.0572  0.0310 -0.1437
  460MOL0     C60590   5.168   9.521   0.672  0.7669  0.2074  0.6816
  460MOL0     O60591   5.195   9.528   0.537 -0.4670 -0.2264 -0.0719
  460MOL0     C60592   5.099   9.554   0.442  0.8156  0.4668  0.2885
  460MOL0     C60593   5.092   9.675   0.362 -0.2310  0.0319 -0.3100
  460MOL0     C60594   4.975   9.700   0.289  0.7442  0.0438  0.9474
  460MOL0     C60595   4.864   9.616   0.279 -0.4098  1.6085  0.0326
  460MOL0     O60596   4.754   9.656   0.205  0.3455  0.6325  0.3024
  460MOL0     C60597   4.630   9.573   0.195 -0.5933 -1.2187  0.7711
  460MOL0     C60598   4.553   9.611   0.068  0.2709 -0.5294  0.3701
  460MOL0     C60599   4.451   9.719   0.088  1.5375 -0.1628  0.2772
  460MOL0     C60600   4.491   9.860   0.042 -0.3158  0.7316  0.0824
  460MOL0     C60601   4.376   9.968   0.051  0.5235  0.2503  0.7820
  460MOL0     C60602   4.440  10.105   0.045 -0.7729  0.1186 -1.6355
  460MOL0     C60603   4.334  10.208   0.100  0.1206 -0.0115  0.8977
  460MOL0     C60604   4.295  10.210   0.252 -0.5982  0.8631 -0.6016
  460MOL0     N60605   4.193  10.311   0.288  0.3312  0.4644  0.0097
  460MOL0     C60606   4.066  10.285   0.344  0.4873  0.6182  0.6096
  460MOL0     C60607   3.997  10.402   0.331  0.0097 -0.1117  0.2341
  460MOL0     C60608   3.850  10.416   0.347 -0.1729 -0.0297 -0.0108
  460MOL0     C60609   3.817  10.496   0.458 -0.1203  0.3684 -0.7912
  460MOL0     C60610   3.803  10.398   0.582  0.1580  0.4962 -0.2252
  460MOL0     C60611   3.798  10.479   0.710  0.1790  0.1859  0.1063
  460MOL0     O60612   3.735  10.602   0.698 -0.3135  0.4213 -0.4610
  460MOL0     C60613   3.787  10.698   0.784  0.5894  0.5862 -1.4429
  460MOL0     C60614   3.925  10.717   0.811 -0.2349  0.1058 -1.1239
  460MOL0     C60615   3.966  10.813   0.901 -1.6659 -0.5803  0.1651
  460MOL0     C60616   3.862  10.900   0.959  0.6566 -0.4571  0.8484
  460MOL0     C60617   3.899  11.018   1.026  0.3780  0.0366  0.5329
  460MOL0     O60618   4.031  11.027   1.065 -0.1012 -0.1149  0.1650
  460MOL0     C60619   4.084  11.154   1.099  0.3108  0.8751 -0.1803
  460MOL0     C60620   4.051  11.282   1.055  0.2947  0.5535  0.4777
  460MOL0     C60621   4.120  11.392   1.096  0.1664  0.5735 -0.4568
  460MOL0     C60622   4.226  11.384   1.186  1.1139 -0.4427 -0.2884
  460MOL0     O60623   4.292  11.492   1.232 -0.0415 -0.0180 -0.0253
  460MOL0     C60624   4.271  11.620   1.163  1.2847 -0.1818  0.4562
  460MOL0     C60625   4.385  11.706   1.185  0.1265  0.4904  0.2173
  460MOL0     C60626   4.379  11.789   1.318 -0.1380  1.2521 -0.4254
  460MOL0     C60627   4.315  11.926   1.322  0.4671  0.6921 -0.1820
  460MOL0     C60628   4.275  11.986   1.456  0.7438 -0.7180 -0.2229
  460MOL0     C60629   4.156  12.078   1.442  0.2668 -0.3997  0.6421
  460MOL0     C60630   4.093  12.119   1.576 -0.6487  0.4490 -0.0534
  460MOL0     C60631   4.193  12.203   1.658 -1.1252 -0.3526  0.2460
  460MOL0    Cl60632   4.224  12.375   1.606 -0.0144  0.1758  0.1906
  460MOL0     C60633   4.258  11.261   1.237 -1.0401  0.7134 -0.1502
  460MOL0     C60634   4.189  11.146   1.192 -0.5554  0.2686 -0.6043
  460MOL0     O60635   3.820  11.107   1.036 -0.0012 -0.0800 -0.5314
  460MOL0     C60636   3.725  10.884   0.922  0.4422  0.0328  0.1829
  460MOL0     C60637   3.695  10.781   0.840  0.8588 -0.3746  0.7884
  460MOL0     N60638   4.081  10.487   0.279  0.0350 -0.0812 -0.3226
  460MOL0     N60639   4.192  10.433   0.233  0.6915 -0.6692 -0.4081
  460MOL0     C60640   4.874   9.501   0.364  0.2646 -0.2398  0.1361
  460MOL0     C60641   4.986   9.470   0.439  0.1586 -0.7037 -0.8648
  460MOL0     C60642   5.283   9.499   0.762 -0.3966 -0.0124 -0.2206
  460MOL0     C60643   5.272   9.510   0.900  0.1196 -0.6598 -0.9619
  460MOL0     C60644   5.375   9.463   0.981 -0.0282  0.7221 -0.7054
  460MOL0     C60645   5.500   9.424   0.931 -0.0132 -0.1331  0.3484
  460MOL0     O60646   5.601   9.396   1.022 -0.2307 -0.5224 -0.1085
  460MOL0     C60647   5.735   9.396   0.985 -1.1103  0.2871  0.3633
  460MOL0     C60648   5.788   9.267   0.950 -0.7068  0.5844  0.5726
  460MOL0     C60649   5.787   9.170   1.080  0.3994  0.5650  0.8869
  460MOL0     C60650   5.741   9.030   1.032 -1.1259  0.0898  0.2102
  460MOL0     C60651   5.734   8.922   1.130 -0.2502  0.5855 -0.8744
  460MOL0     C60652   5.738   8.834   1.216 -1.2117  0.8936  1.3320
  460MOL0     C60653   5.513   9.419   0.790 -0.2313  0.4922 -0.2247
  460MOL0     C60654   5.404   9.459   0.710 -0.9280 -0.1853  0.5311
  460MOL0     H60655   5.174   9.744   0.345 -0.7055  0.2208 -2.0441
  460MOL0     H60656   4.968   9.781   0.217 -0.2355 -1.7322 -1.1056
  460MOL0     H60657   4.574   9.588   0.288 -0.1623  2.6713  0.5787
  460MOL0     H60658   4.672   9.474   0.175  0.2282 -0.5121 -1.2416
  460MOL0     H60659   4.488   9.529   0.037 -2.4332  1.3685  0.6884
  460MOL0     H60660   4.624   9.625  -0.015 -0.0839 -0.3016  0.1011
  460MOL0     H60661   4.427   9.730   0.194 -1.3045  0.8471 -0.3978
  460MOL0     H60662   4.358   9.690   0.039  3.3623 -0.2706 -3.4613
  460MOL0     H60663   4.574   9.897   0.102  2.0871  1.4117 -3.3550
  460MOL0     H60664   4.524   9.852  -0.062 -0.8333  2.0770 -0.2126
  460MOL0     H60665   4.331   9.958   0.150  1.5006  0.5346  1.2595
  460MOL0     H60666   4.313   9.951  -0.037  2.4507 -0.3852 -0.5504
  460MOL0     H60667   4.467  10.122  -0.059  4.9265 -3.2190 -1.1217
  460MOL0     H60668   4.531  10.103   0.106  0.7270  0.1359 -3.7742
  460MOL0     H60669   4.366  10.307   0.066 -2.3541  0.4226 -0.4428
  460MOL0     H60670   4.235  10.198   0.055 -0.5377  0.7543  2.1272
  460MOL0     H60671   4.390  10.238   0.299 -0.6031  3.1591 -1.8038
  460MOL0     H60672   4.266  10.116   0.300 -0.2371  1.9595  1.9623
  460MOL0     H60673   4.034  10.186   0.377  1.1143  0.1842 -0.0579
  460MOL0     H60674   3.801  10.319   0.328 -1.8799  0.9958 -1.1414
  460MOL0     H60675   3.814  10.464   0.256  0.8050  0.3174 -0.2304
  460MOL0     H60676   3.722  10.550   0.455 -0.1222  0.5249  1.1056
  460MOL0     H60677   3.896  10.568   0.482 -1.5942  2.1256 -0.9947
  460MOL0     H60678   3.703  10.354   0.585 -0.4096  1.7678  0.2302
  460MOL0     H60679   3.887  10.328   0.583 -0.3461 -0.1331  1.3762
  460MOL0     H60680   3.903  10.483   0.742  0.0593  2.1998  0.3349
  460MOL0     H60681   3.753  10.413   0.785 -1.9570 -0.9540 -2.0544
  460MOL0     H60682   3.992  10.664   0.745  0.4642  1.4465 -1.5157
  460MOL0     H60683   4.073  10.824   0.912 -1.7310  2.2771 -1.1525
  460MOL0     H60684   3.974  11.294   0.979 -1.6736 -5.1087  1.0707
  460MOL0     H60685   4.064  11.481   1.068 -2.2086 -1.8008 -4.0496
  460MOL0     H60686   4.172  11.665   1.177  1.6668  0.6218  0.6094
  460MOL0     H60687   4.285  11.600   1.056  2.7067 -0.3486  0.6598
  460MOL0     H60688   4.390  11.782   1.106 -4.0876  1.0124  0.2167
  460MOL0     H60689   4.478  11.650   1.195 -0.2781 -0.3031 -0.3623
  460MOL0     H60690   4.473  11.794   1.375  0.1203 -1.1530 -0.5473
  460MOL0     H60691   4.301  11.738   1.375  0.3392  0.5666 -0.3767
  460MOL0     H60692   4.376  12.001   1.271 -0.6350  1.2941 -0.6449
  460MOL0     H60693   4.227  11.924   1.257  0.9041  0.0349 -0.7684
  460MOL0     H60694   4.351  12.043   1.510 -1.1558  1.0394  0.7864
  460MOL0     H60695   4.236  11.912   1.527 -2.6715  2.0086  1.1098
  460MOL0     H60696   4.076  12.039   1.378  0.0640  2.3344 -0.9407
  460MOL0     H60697   4.196  12.170   1.397 -0.5549  2.3973  5.0664
  460MOL0     H60698   4.007  12.181   1.549 -1.1016 -1.0400 -2.3483
  460MOL0     H60699   4.067  12.034   1.639 -0.1636  0.0141 -0.4298
  460MOL0     H60700   4.291  12.163   1.685 -1.8123 -0.6425  2.4994
  460MOL0     H60701   4.149  12.199   1.758  2.1914  0.4841  1.8689
  460MOL0     H60702   4.341  11.237   1.303 -1.3874  0.6300  0.2660
  460MOL0     H60703   4.226  11.047   1.218 -3.7193 -0.5147  1.5194
  460MOL0     H60704   3.656  10.954   0.968  3.6707  1.6835  3.0358
  460MOL0     H60705   3.593  10.765   0.807  2.0554  0.3502 -4.1755
  460MOL0     H60706   4.789   9.434   0.365 -0.7878  1.0304 -0.6389
  460MOL0     H60707   4.981   9.383   0.503  1.4700 -0.3328 -0.2187
  460MOL0     H60708   5.179   9.542   0.946  1.8386  1.5479  1.1806
  460MOL0     H60709   5.374   9.464   1.089  1.0919 -0.2948 -0.6633
  460MOL0     H60710   5.792   9.443   1.065  3.2673 -1.3763 -1.4831
  460MOL0     H60711   5.752   9.465   0.903 -2.2687  0.0960 -0.0617
  460MOL0     H60712   5.727   9.228   0.867  2.0517 -1.6094 -0.5979
  460MOL0     H60713   5.891   9.267   0.913 -1.6086 -0.2852 -2.2303
  460MOL0     H60714   5.711   9.208   1.149 -2.1344 -0.3441 -1.2178
  460MOL0     H60715   5.888   9.157   1.120  1.4864 -0.0400 -1.8323
  460MOL0     H60716   5.638   9.043   0.995 -0.6908  0.1795 -1.0273
  460MOL0     H60717   5.802   8.996   0.948 -1.6589  1.3189 -0.7218
  460MOL0     H60718   5.754   8.758   1.290 -0.3600  0.9374  1.2083
  460MOL0     H60719   5.602   9.385   0.738 -0.9768 -0.9747 -0.6148
  460MOL0     H60720   5.416   9.471   0.603  0.3628  3.4644  0.9594
  461MOL0     O60721   2.058   9.376   0.842  0.0792  0.0085  0.4842
  461MOL0     C60722   1.940   9.375   0.797 -0.3685  0.2557 -0.2110
  461MOL0     O60723   1.853   9.273   0.813  0.3279  0.2684  0.5841
  461MOL0     C60724   1.852   9.193   0.929  1.2285  0.8417 -0.2607
  461MOL0     C60725   1.891   9.242   1.052  0.3891 -0.3616  0.3723
  461MOL0     C60726   1.907   9.146   1.158 -0.2221  0.2898  0.0834
  461MOL0     C60727   1.881   9.007   1.142 -0.4578  0.4541  0.6161
  461MOL0     O60728   1.904   8.910   1.243 -0.3712 -0.0311 -0.0191
  461MOL0     C60729   1.858   8.774   1.246  0.4936 -0.0832  1.2239
  461MOL0     C60730   1.942   8.670   1.177  0.2125 -0.0755 -0.4632
  461MOL0     C60731   2.048   8.626   1.269 -0.3559  0.0214  0.9114
  461MOL0     C60732   2.157   8.736   1.290  0.8565 -0.5196  0.2054
  461MOL0     C60733   2.291   8.675   1.344  0.9078 -0.1415  0.2292
  461MOL0     C60734   2.289   8.649   1.496 -0.1198  0.3559 -0.8798
  461MOL0     C60735   2.427   8.610   1.543 -0.2105 -0.1637  0.4034
  461MOL0     C60736   2.441   8.579   1.694  0.1689  1.1538  0.2790
  461MOL0     N60737   2.588   8.571   1.726 -0.0789  0.1115  0.5921
  461MOL0     C60738   2.665   8.657   1.804  0.5906  0.6812  0.5122
  461MOL0     C60739   2.790   8.625   1.770  0.4536 -0.3536 -0.4510
  461MOL0     C60740   2.918   8.674   1.837  0.3941  0.1431  0.3473
  461MOL0     C60741   2.993   8.793   1.770  0.2213 -0.6676  0.5478
  461MOL0     C60742   3.048   8.757   1.631  0.4003 -0.0173 -0.7411
  461MOL0     C60743   3.096   8.879   1.557  0.0873  0.4181  0.6384
  461MOL0     O60744   3.234   8.904   1.601 -0.1465  0.3433  0.1797
  461MOL0     C60745   3.291   9.026   1.568  0.4426  0.3565 -0.6431
  461MOL0     C60746   3.392   9.073   1.645 -0.2136  0.1056  0.2561
  461MOL0     C60747   3.461   9.190   1.616 -0.4251 -1.0268  0.4088
  461MOL0     C60748   3.414   9.264   1.508 -0.3797  0.9922 -0.4177
  461MOL0     C60749   3.496   9.384   1.473 -0.4141 -0.5099  0.8396
  461MOL0     O60750   3.594   9.430   1.562  0.4762  0.2616 -0.1132
  461MOL0     C60751   3.652   9.557   1.535  0.5242 -0.5715  0.5346
  461MOL0     C60752   3.653   9.648   1.636 -0.5161  0.1157  0.3660
  461MOL0     C60753   3.737   9.763   1.626 -0.5056 -0.3251 -0.8185
  461MOL0     C60754   3.827   9.789   1.525 -0.9950  0.7413 -0.1551
  461MOL0     O60755   3.900   9.901   1.538  0.4224  0.4072 -0.2078
  461MOL0     C60756   4.010   9.916   1.448  0.6695 -0.3379  0.0057
  461MOL0     C60757   4.102  10.031   1.501 -0.0107 -0.2093 -0.1777
  461MOL0     C60758   4.221  10.074   1.401 -0.3765  0.2839  0.3906
  461MOL0     C60759   4.319  10.173   1.465 -0.1730  0.3484 -1.0705
  461MOL0     C60760   4.443  10.100   1.518 -0.3173 -0.7746  1.1065
  461MOL0     C60761   4.545  10.200   1.589 -0.0571 -0.4174  0.4568
  461MOL0     C60762   4.620  10.286   1.491  0.3750 -0.1267  0.9316
  461MOL0     C60763   4.754  10.332   1.552  0.3044  0.6419  0.1172
  461MOL0    Cl60764   4.831  10.440   1.444  0.9231  0.3272 -0.0282
  461MOL0     C60765   3.825   9.689   1.418 -0.4607 -0.7639  0.4172
  461MOL0     C60766   3.749   9.574   1.433 -1.2902  0.6017  0.5369
  461MOL0     O60767   3.455   9.437   1.374 -0.4025  0.4914  0.3405
  461MOL0     C60768   3.309   9.215   1.432 -1.0683  1.0496  0.1414
  461MOL0     C60769   3.241   9.102   1.464  0.2203 -0.2035 -0.4972
  461MOL0     N60770   2.785   8.512   1.687 -0.4240  0.7775 -0.0954
  461MOL0     N60771   2.665   8.476   1.663 -0.0240 -0.2333  0.0061
  461MOL0     C60772   1.826   8.968   1.020  0.4567 -0.3119  1.2845
  461MOL0     C60773   1.809   9.059   0.920 -0.4787 -0.2122 -0.5732
  461MOL0     C60774   1.899   9.482   0.699 -0.5388 -0.5374  0.9012
  461MOL0     C60775   1.996   9.579   0.651  0.1896  0.2172  0.3852
  461MOL0     C60776   1.969   9.675   0.554  0.0939 -0.0309  0.7896
  461MOL0     C60777   1.845   9.662   0.493 -0.3604  0.9069  0.2037
  461MOL0     O60778   1.793   9.751   0.400  0.0543 -0.0904  0.2180
  461MOL0     C60779   1.805   9.719   0.260 -1.4345  0.0205  0.5551
  461MOL0     C60780   1.793   9.861   0.199  0.0844 -0.2128  0.1506
  461MOL0     C60781   1.916   9.950   0.243 -0.1061 -0.1304 -0.6777
  461MOL0     C60782   1.984  10.029   0.122  0.1480 -0.0617 -0.4433
  461MOL0     C60783   1.890  10.108   0.038 -0.1668 -0.1269  0.3380
  461MOL0     C60784   1.816  10.176  -0.023  0.7538  0.0775 -0.5028
  461MOL0     C60785   1.752   9.559   0.533  0.4247 -0.0444  0.3627
  461MOL0     C60786   1.783   9.466   0.619  0.7385 -0.3297 -1.3484
  461MOL0     H60787   1.917   9.346   1.065  0.1550  0.3026 -3.2754
  461MOL0     H60788   1.952   9.169   1.254 -2.4647  0.2390  1.2054
  461MOL0     H60789   1.755   8.776   1.209  0.2194  0.9756  2.0048
  461MOL0     H60790   1.837   8.739   1.347 -2.4764  0.4580  0.8943
  461MOL0     H60791   1.977   8.687   1.075  1.4415 -1.6318 -0.3524
  461MOL0     H60792   1.875   8.585   1.160 -1.4815  1.4426 -1.7164
  461MOL0     H60793   2.097   8.535   1.232  0.0548  0.1834  1.0614
  461MOL0     H60794   2.009   8.582   1.361 -2.2877  0.8405  0.5478
  461MOL0     H60795   2.171   8.786   1.194 -1.3513  2.2618  1.2061
  461MOL0     H60796   2.135   8.830   1.340 -3.7471 -0.7299 -1.0158
  461MOL0     H60797   2.368   8.752   1.332  0.3031  0.1137 -2.9704
  461MOL0     H60798   2.320   8.585   1.288  0.7365 -0.4064  0.5622
  461MOL0     H60799   2.213   8.571   1.506 -0.7139  0.8489 -1.4193
  461MOL0     H60800   2.254   8.739   1.547  0.5393  0.9148 -1.3894
  461MOL0     H60801   2.465   8.539   1.469  1.3741  3.9672 -3.1529
  461MOL0     H60802   2.498   8.691   1.521  0.9933 -0.7006  2.0382
  461MOL0     H60803   2.392   8.481   1.700 -1.4155  1.8764 -0.5272
  461MOL0     H60804   2.394   8.654   1.758 -1.7351 -0.6831  1.1422
  461MOL0     H60805   2.627   8.722   1.882 -1.8456 -2.0426  1.7839
  461MOL0     H60806   2.981   8.585   1.843 -0.6290 -0.5953  0.4875
  461MOL0     H60807   2.885   8.699   1.938 -0.5424 -2.2733  0.7011
  461MOL0     H60808   3.075   8.820   1.838  0.9028 -3.0128  0.7498
  461MOL0     H60809   2.933   8.884   1.763  0.4338 -0.6331 -1.3223
  461MOL0     H60810   3.128   8.682   1.627  1.4855  1.1261 -1.4203
  461MOL0     H60811   2.966   8.713   1.573  1.1164 -1.8501 -0.4304
  461MOL0     H60812   3.027   8.963   1.571 -0.1382  0.3118  0.1748
  461MOL0     H60813   3.103   8.845   1.454  1.8377 -1.1770  1.2312
  461MOL0     H60814   3.408   9.011   1.734 -1.7203  0.1233  0.5705
  461MOL0     H60815   3.543   9.227   1.676  0.0061  0.6086 -1.1024
  461MOL0     H60816   3.596   9.627   1.726 -1.8890  3.1708  0.3420
  461MOL0     H60817   3.744   9.818   1.719  1.3246 -1.6606 -0.1001
  461MOL0     H60818   3.976   9.940   1.346 -1.4553 -1.2399  0.4385
  461MOL0     H60819   4.075   9.828   1.447  4.2392  2.0844  0.9424
  461MOL0     H60820   4.142   9.999   1.597 -0.0370  0.5743  0.0996
  461MOL0     H60821   4.039  10.121   1.502 -0.7290 -0.6733 -1.1666
  461MOL0     H60822   4.187  10.107   1.302  0.6713 -2.9089 -1.1433
  461MOL0     H60823   4.289   9.992   1.379  1.6800  1.7425  0.9437
  461MOL0     H60824   4.346  10.252   1.394  0.2221  0.9119 -0.3023
  461MOL0     H60825   4.259  10.219   1.544  0.9800 -0.9369  0.6149
  461MOL0     H60826   4.495  10.039   1.444 -1.5098  2.1854 -2.4885
  461MOL0     H60827   4.412  10.028   1.595  1.6324 -0.8749  1.8568
  461MOL0     H60828   4.609  10.137   1.651 -0.4421 -0.7350  0.5358
  461MOL0     H60829   4.503  10.270   1.662  1.2579  0.2340  0.6160
  461MOL0     H60830   4.627  10.230   1.398  1.0622  1.6988 -0.1758
  461MOL0     H60831   4.554  10.371   1.469  0.6574 -0.2296 -0.3651
  461MOL0     H60832   4.822  10.246   1.554 -2.0930 -1.3526  0.8444
  461MOL0     H60833   4.738  10.388   1.644 -0.9053  0.9814 -0.2912
  461MOL0     H60834   3.895   9.717   1.340 -0.1805  0.8748  1.2195
  461MOL0     H60835   3.753   9.500   1.354 -2.5596  0.8668  0.1916
  461MOL0     H60836   3.282   9.264   1.339  0.8609 -2.2067 -2.3338
  461MOL0     H60837   3.166   9.062   1.397 -1.4093  1.0957  0.4645
  461MOL0     H60838   1.812   8.867   0.984  2.7325 -0.0989 -0.3554
  461MOL0     H60839   1.766   9.022   0.827 -1.8655  1.6011 -0.7051
  461MOL0     H60840   2.093   9.605   0.691 -0.1974  3.5930 -0.5359
  461MOL0     H60841   2.040   9.755   0.536 -0.1272  0.7266  2.9235
  461MOL0     H60842   1.735   9.645   0.219  1.3664 -2.4111 -0.1501
  461MOL0     H60843   1.900   9.670   0.241 -2.1485 -2.2312  2.3177
  461MOL0     H60844   1.808   9.852   0.091  2.5371 -0.0916  0.4394
  461MOL0     H60845   1.692   9.900   0.216  0.9345  1.5922  1.3473
  461MOL0     H60846   1.986   9.888   0.301  0.0382  2.0221  1.6396
  461MOL0     H60847   1.872  10.022   0.313 -1.3990  1.0635 -2.6367
  461MOL0     H60848   2.054  10.100   0.167 -2.1517  2.5297 -0.7234
  461MOL0     H60849   2.034   9.957   0.056 -2.3783 -0.9943 -1.4304
  461MOL0     H60850   1.742  10.237  -0.071 -0.9514 -1.3672  0.1625
  461MOL0     H60851   1.661   9.569   0.475  2.0766  1.9836 -2.1299
  461MOL0     H60852   1.716   9.384   0.642 -1.7461  1.8864  0.0149
  462MOL0     O60853  11.333   4.734   0.602 -0.4009 -0.1622 -0.2165
  462MOL0     C60854  11.333   4.740   0.729  0.1561 -0.3080 -0.2732
  462MOL0     O60855  11.227   4.745   0.814 -0.5960  0.4397 -0.0265
  462MOL0     C60856  11.095   4.744   0.776 -0.4530  0.2681 -0.0731
  462MOL0     C60857  11.005   4.672   0.853 -0.0019 -0.2892  0.9868
  462MOL0     C60858  10.868   4.670   0.830  0.1815 -0.9152 -0.0764
  462MOL0     C60859  10.816   4.746   0.725  0.4190  0.1548 -0.7055
  462MOL0     O60860  10.701   4.739   0.655  0.8250  0.2756 -0.9806
  462MOL0     C60861  10.605   4.650   0.723 -0.1406 -1.1023  0.1226
  462MOL0     C60862  10.466   4.692   0.670  0.1279  0.5352 -0.5942
  462MOL0     C60863  10.359   4.614   0.734 -0.1816  0.0293  1.3023
  462MOL0     C60864  10.218   4.656   0.691 -0.6753 -0.3891  0.1524
  462MOL0     C60865  10.108   4.574   0.765 -0.3510 -0.1987 -0.7243
  462MOL0     C60866   9.994   4.558   0.675  0.2528  0.2576 -1.1726
  462MOL0     C60867  10.015   4.447   0.570  0.3274 -0.9760  1.1179
  462MOL0     C60868   9.868   4.432   0.497 -0.2789 -0.4941 -0.2503
  462MOL0     N60869   9.750   4.404   0.577 -0.1336 -0.5522 -0.9637
  462MOL0     C60870   9.667   4.503   0.630  0.3261 -0.2248 -0.4138
  462MOL0     C60871   9.576   4.433   0.702 -0.6150 -0.4737 -0.3188
  462MOL0     C60872   9.464   4.488   0.789 -0.7354  0.6472  0.2898
  462MOL0     C60873   9.371   4.378   0.831  0.4587  0.8943  0.3290
  462MOL0     C60874   9.299   4.422   0.961 -0.7138  0.3233  1.0021
  462MOL0     C60875   9.190   4.522   0.947  0.4494 -0.0555  0.0505
  462MOL0     O60876   9.101   4.472   0.853 -0.2389 -0.4108  0.3616
  462MOL0     C60877   8.966   4.463   0.883 -0.4961 -0.6839  0.0464
  462MOL0     C60878   8.878   4.497   0.772 -0.1219  0.6728  0.7329
  462MOL0     C60879   8.737   4.501   0.779  0.1700 -0.9190 -0.3663
  462MOL0     C60880   8.675   4.459   0.895 -1.0441  0.0069 -0.2177
  462MOL0     C60881   8.529   4.436   0.886  1.2408  0.2214 -1.0721
  462MOL0     O60882   8.460   4.510   0.798 -0.3724 -0.9609  0.1276
  462MOL0     C60883   8.327   4.530   0.813  0.1894  0.3037  0.3717
  462MOL0     C60884   8.268   4.557   0.939  0.5589  0.6744  0.1453
  462MOL0     C60885   8.124   4.562   0.953 -0.3474 -0.3692  0.0124
  462MOL0     C60886   8.048   4.547   0.845  1.1473  0.2190 -0.5794
  462MOL0     O60887   7.918   4.548   0.875  0.3165 -0.0676 -0.0246
  462MOL0     C60888   7.827   4.563   0.768 -0.0295 -0.6078 -0.2799
  462MOL0     C60889   7.684   4.550   0.829 -0.3838 -0.4665 -0.4758
  462MOL0     C60890   7.576   4.593   0.721  0.4242 -0.1077  0.1805
  462MOL0     C60891   7.425   4.545   0.755  0.5776 -1.0253  0.3642
  462MOL0     C60892   7.336   4.504   0.636  0.3975  0.7974  0.3319
  462MOL0     C60893   7.210   4.450   0.692  0.2758  0.5351 -0.1794
  462MOL0     C60894   7.115   4.392   0.591 -0.5013  0.4954 -0.1914
  462MOL0     C60895   6.990   4.339   0.667 -0.3308  1.2420 -0.3737
  462MOL0    Cl60896   6.928   4.182   0.603 -0.2345 -0.1397 -0.2193
  462MOL0     C60897   8.108   4.533   0.719 -0.6245 -0.7506 -0.5101
  462MOL0     C60898   8.246   4.522   0.701  0.0603 -0.0918 -1.1940
  462MOL0     O60899   8.478   4.351   0.964  0.5807 -0.0341 -0.5187
  462MOL0     C60900   8.754   4.432   1.002 -0.5161 -0.0407 -0.5889
  462MOL0     C60901   8.896   4.429   0.995 -0.3112  0.7480 -0.1005
  462MOL0     N60902   9.601   4.292   0.695  0.5102 -0.3342  0.4827
  462MOL0     N60903   9.707   4.281   0.621  0.1309 -0.0179  0.4306
  462MOL0     C60904  10.902   4.830   0.653  0.0044 -0.3197 -0.6260
  462MOL0     C60905  11.040   4.834   0.685  0.3018  1.0847  0.0531
  462MOL0     C60906  11.457   4.770   0.794 -0.0376 -0.2614  0.0168
  462MOL0     C60907  11.567   4.805   0.717 -0.3872 -0.4882  0.3398
  462MOL0     C60908  11.692   4.851   0.777  0.5288 -0.2798 -0.7644
  462MOL0     C60909  11.707   4.847   0.921  0.0373 -0.3962 -0.1103
  462MOL0     O60910  11.827   4.875   0.976 -0.5152  0.4310  0.4245
  462MOL0     C60911  11.840   4.899   1.113  1.2185  0.9345  1.0494
  462MOL0     C60912  11.976   4.943   1.145  0.0991  0.3963 -0.3189
  462MOL0     C60913  12.089   4.842   1.170 -0.9805  0.4307  0.3656
  462MOL0     C60914  12.156   4.770   1.052  1.1842 -1.0083  0.0977
  462MOL0     C60915  12.302   4.743   1.066  0.5569 -0.3631  0.9101
  462MOL0     C60916  12.414   4.719   1.084 -0.3089 -0.9140  0.7088
  462MOL0     C60917  11.603   4.801   0.998  0.1306  0.0634  0.1644
  462MOL0     C60918  11.475   4.768   0.934  0.2325 -0.2128  0.3920
  462MOL0     H60919  11.044   4.614   0.936  1.1258 -2.5507 -1.0169
  462MOL0     H60920  10.806   4.596   0.881 -1.1675  0.8932  1.0240
  462MOL0     H60921  10.603   4.673   0.830  1.6868  1.5904 -0.3341
  462MOL0     H60922  10.626   4.544   0.706 -0.7949 -0.9792 -1.7453
  462MOL0     H60923  10.479   4.680   0.562  3.6650 -2.4960 -0.0101
  462MOL0     H60924  10.451   4.796   0.698 -2.6175 -0.4930  2.3333
  462MOL0     H60925  10.347   4.619   0.842 -4.6997  1.2164  0.9396
  462MOL0     H60926  10.381   4.511   0.706  0.5908 -0.0816  2.2813
  462MOL0     H60927  10.211   4.765   0.696 -0.2615 -0.3913  1.0791
  462MOL0     H60928  10.217   4.624   0.587  0.2628 -0.5657  0.1885
  462MOL0     H60929  10.087   4.643   0.848  0.7903 -1.6070  0.8031
  462MOL0     H60930  10.151   4.480   0.799 -0.0976  0.2390  0.2155
  462MOL0     H60931   9.975   4.653   0.624  0.4464 -0.1202 -1.9688
  462MOL0     H60932   9.912   4.539   0.744 -0.2867 -2.6443 -2.4656
  462MOL0     H60933  10.084   4.491   0.498 -1.6511 -0.7404 -0.7507
  462MOL0     H60934  10.054   4.353   0.607 -1.6637 -1.2200  2.8066
  462MOL0     H60935   9.864   4.345   0.430  2.3740  0.6240 -2.0145
  462MOL0     H60936   9.857   4.514   0.426  0.8020 -0.8711 -0.8839
  462MOL0     H60937   9.672   4.612   0.628 -3.0334  0.1800  2.8474
  462MOL0     H60938   9.402   4.567   0.745 -0.8421  0.2476 -0.2973
  462MOL0     H60939   9.505   4.538   0.877 -0.4394  1.9733 -0.5680
  462MOL0     H60940   9.431   4.290   0.858 -0.1482  0.3931  0.0651
  462MOL0     H60941   9.304   4.353   0.748  1.0709  1.7054 -0.4154
  462MOL0     H60942   9.251   4.334   1.005  0.5919 -1.3820 -0.8032
  462MOL0     H60943   9.380   4.461   1.022  3.3006 -0.2029 -3.3912
  462MOL0     H60944   9.228   4.620   0.914 -0.1789  0.4370  0.7552
  462MOL0     H60945   9.148   4.525   1.048 -0.0605 -0.3352 -0.1541
  462MOL0     H60946   8.930   4.529   0.683  1.5821 -2.7347  0.3346
  462MOL0     H60947   8.683   4.533   0.690 -1.7571 -0.9937  0.7161
  462MOL0     H60948   8.320   4.577   1.032 -0.8978 -0.4970  1.2528
  462MOL0     H60949   8.086   4.577   1.054  1.6676 -0.6840  0.8507
  462MOL0     H60950   7.825   4.479   0.698 -1.4491  0.5229 -1.6930
  462MOL0     H60951   7.843   4.655   0.711 -1.5757  0.1095  0.3805
  462MOL0     H60952   7.684   4.620   0.913  3.4387 -0.8908  0.0327
  462MOL0     H60953   7.666   4.445   0.855  1.7137 -1.7166 -3.4898
  462MOL0     H60954   7.599   4.553   0.622  1.3970  2.6085 -0.7898
  462MOL0     H60955   7.574   4.702   0.715  1.2543  0.0347  1.8585
  462MOL0     H60956   7.433   4.455   0.817 -1.2511  0.1373  2.3975
  462MOL0     H60957   7.377   4.614   0.825  0.6277 -0.7361  0.1160
  462MOL0     H60958   7.387   4.432   0.572  3.1580  0.9708  2.1628
  462MOL0     H60959   7.310   4.593   0.579 -1.6001  0.0316 -0.0403
  462MOL0     H60960   7.159   4.528   0.749 -0.0970  0.6756 -0.6920
  462MOL0     H60961   7.231   4.369   0.762  1.3440  1.2456  0.3543
  462MOL0     H60962   7.085   4.463   0.515 -2.5872  1.2014  1.2017
  462MOL0     H60963   7.161   4.304   0.546  0.3458  0.4687  0.6867
  462MOL0     H60964   6.909   4.412   0.675  0.1964  1.6777  1.1407
  462MOL0     H60965   7.024   4.316   0.768  4.4983 -3.4282 -2.5625
  462MOL0     H60966   8.055   4.521   0.625  0.3136  1.9348 -1.4716
  462MOL0     H60967   8.303   4.501   0.611  4.2879  1.3705  0.8279
  462MOL0     H60968   8.695   4.400   1.088  1.5270 -1.0306  0.5139
  462MOL0     H60969   8.948   4.394   1.083  1.4153 -1.3907 -1.8392
  462MOL0     H60970  10.851   4.893   0.580 -0.6037  0.7686  0.6859
  462MOL0     H60971  11.112   4.894   0.630  5.1528 -2.8572  1.3720
  462MOL0     H60972  11.565   4.801   0.609  1.4042 -0.2733  0.2589
  462MOL0     H60973  11.777   4.880   0.716 -1.1577  2.8080 -1.8989
  462MOL0     H60974  11.823   4.807   1.169  2.7682 -0.0001  0.0775
  462MOL0     H60975  11.772   4.975   1.151 -1.5538  0.1290 -1.8899
  462MOL0     H60976  12.006   5.009   1.062 -0.5919  1.7061  0.4274
  462MOL0     H60977  11.959   5.003   1.235 -0.8487  1.7871 -1.3841
  462MOL0     H60978  12.059   4.759   1.235 -1.1515 -2.2160 -2.7804
  462MOL0     H60979  12.169   4.895   1.221  1.4353 -0.9582 -1.7431
  462MOL0     H60980  12.096   4.680   1.032 -1.4000  0.8201 -0.9080
  462MOL0     H60981  12.151   4.831   0.961 -0.0360 -0.2086  0.6805
  462MOL0     H60982  12.518   4.703   1.102  0.2953 -0.8033 -2.2093
  462MOL0     H60983  11.590   4.800   1.106 -1.8887  0.7785 -0.0240
  462MOL0     H60984  11.394   4.737   0.999 -0.6847  1.8582  0.3030
  463MOL0     O60985   5.583   0.816   4.875  0.2383  0.5675 -0.0041
  463MOL0     C60986   5.613   0.937   4.862  0.1467  0.0474 -0.1437
  463MOL0     O60987   5.529   1.038   4.880  0.0556 -0.1209 -0.4166
  463MOL0     C60988   5.403   1.005   4.920  0.5427 -0.2621  0.2072
  463MOL0     C60989   5.358   1.054   5.045  0.8662  0.7086  0.7664
  463MOL0     C60990   5.230   1.050   5.077 -0.1225 -0.6206  0.1051
  463MOL0     C60991   5.136   0.990   4.990  0.6475 -0.1974  1.8246
  463MOL0     O60992   5.003   0.992   5.025  0.2728  0.4555 -0.3048
  463MOL0     C60993   4.920   1.080   4.952  0.1281 -0.2476 -0.6328
  463MOL0     C60994   4.795   1.014   4.896 -0.5272  0.1901  0.5287
  463MOL0     C60995   4.717   1.114   4.815  0.8487  0.1837  0.3355
  463MOL0     C60996   4.580   1.039   4.780 -0.2037  0.4501 -0.0338
  463MOL0     C60997   4.589   0.916   4.691  0.2196 -0.2630  1.1672
  463MOL0     C60998   4.673   0.939   4.564 -0.6088 -0.2968  0.0231
  463MOL0     C60999   4.662   0.836   4.460 -0.1557  0.1765 -0.6122
  463MOL0     C61000   4.735   0.885   4.336 -0.0812  0.6311 -0.3853
  463MOL0     N61001   4.753   0.779   4.232 -0.2844 -0.9469  0.1790
  463MOL0     C61002   4.676   0.672   4.213 -0.8488 -0.5930 -0.2952
  463MOL0     C61003   4.728   0.594   4.120  0.3334  0.1189  0.0360
  463MOL0     C61004   4.669   0.467   4.062 -0.1744 -0.3652  0.0492
  463MOL0     C61005   4.644   0.351   4.153  0.2384 -0.3929 -0.0816
  463MOL0     C61006   4.778   0.296   4.212  0.5363 -1.3586 -0.1926
  463MOL0     C61007   4.755   0.225   4.340  0.5244 -0.4580  0.6393
  463MOL0     O61008   4.674   0.107   4.320  0.3936  0.1985 -0.7097
  463MOL0     C61009   4.628   0.033   4.435 -0.2838  0.1363 -0.6319
  463MOL0     C61010   4.660   0.073   4.566  0.1418  0.1886 -0.0787
  463MOL0     C61011   4.600   0.008   4.673 -0.0529  0.2961 -0.0060
  463MOL0     C61012   4.511  -0.104   4.660 -0.4889 -0.5861  0.1382
  463MOL0     C61013   4.449  -0.185   4.769  0.1832 -0.9279  0.8090
  463MOL0     O61014   4.351  -0.265   4.736  0.3917  0.3826  0.4783
  463MOL0     C61015   4.292  -0.345   4.826  1.6456  0.8875 -0.3074
  463MOL0     C61016   4.166  -0.330   4.891  0.4270  0.3557  0.6181
  463MOL0     C61017   4.114  -0.418   4.983  0.0039 -0.0111  0.0791
  463MOL0     C61018   4.189  -0.533   5.020 -0.3047  0.7355  0.4633
  463MOL0     O61019   4.140  -0.623   5.117 -0.6561 -0.4040  0.4423
  463MOL0     C61020   4.221  -0.737   5.156  0.0445 -0.7146 -0.2874
  463MOL0     C61021   4.144  -0.823   5.257  0.5010  0.4560 -0.1121
  463MOL0     C61022   4.049  -0.917   5.176  0.0223  0.0483 -0.5188
  463MOL0     C61023   3.967  -1.015   5.264 -0.9113 -0.5925  0.3695
  463MOL0     C61024   3.870  -0.948   5.379 -0.5880 -0.9124  0.0777
  463MOL0     C61025   3.765  -0.864   5.322 -1.2984 -0.9177  0.4627
  463MOL0     C61026   3.646  -0.852   5.429  0.4556 -0.2928  0.8539
  463MOL0     C61027   3.539  -0.774   5.365 -0.5814 -1.0003 -0.6672
  463MOL0    Cl61028   3.596  -0.599   5.372  0.1681  0.1390 -0.4873
  463MOL0     C61029   4.305  -0.565   4.939 -0.0522 -0.3066 -0.1164
  463MOL0     C61030   4.356  -0.467   4.846 -0.3725 -0.1588  0.1005
  463MOL0     O61031   4.510  -0.180   4.872 -0.0523  0.2533  0.4898
  463MOL0     C61032   4.475  -0.130   4.527 -0.1169  0.1821 -0.3164
  463MOL0     C61033   4.530  -0.062   4.422 -0.0287  0.9247  0.6182
  463MOL0     N61034   4.855   0.637   4.094  0.4637  0.6031 -0.3633
  463MOL0     N61035   4.871   0.750   4.165  0.4015 -0.1792  0.0095
  463MOL0     C61036   5.169   0.946   4.869 -1.2276 -0.2067 -0.3502
  463MOL0     C61037   5.309   0.954   4.829  0.5320  0.7125 -1.1793
  463MOL0     C61038   5.744   0.964   4.789  0.0765 -1.0132 -0.1102
  463MOL0     C61039   5.795   1.097   4.775 -0.0907 -0.2554  0.0797
  463MOL0     C61040   5.913   1.123   4.702 -0.8385  0.4659  0.2669
  463MOL0     C61041   5.976   1.026   4.629  0.4247 -0.5296 -0.5103
  463MOL0     O61042   6.087   1.036   4.559 -0.7255  0.1099  1.0358
  463MOL0     C61043   6.168   1.160   4.543 -0.1860 -0.0014  0.6175
  463MOL0     C61044   6.259   1.181   4.666  0.0984  0.7741 -1.0010
  463MOL0     C61045   6.374   1.284   4.636 -0.2008  0.3066 -0.5417
  463MOL0     C61046   6.332   1.409   4.560 -0.0705 -0.7298 -0.6913
  463MOL0     C61047   6.203   1.467   4.601 -1.0607  0.2037 -0.2417
  463MOL0     C61048   6.097   1.487   4.651 -0.3892  0.3001  0.1576
  463MOL0     C61049   5.917   0.897   4.636  0.2364  0.4868  0.2970
  463MOL0     C61050   5.803   0.863   4.717 -0.8841 -0.2344  0.1551
  463MOL0     H61051   5.430   1.101   5.110 -0.9463  4.0021  0.5686
  463MOL0     H61052   5.193   1.085   5.173 -2.2917 -2.3776  0.0138
  463MOL0     H61053   4.977   1.131   4.874  2.3325 -1.6014  0.0005
  463MOL0     H61054   4.872   1.151   5.020 -3.2182 -1.0788 -1.9386
  463MOL0     H61055   4.729   0.964   4.968 -0.8892 -1.9748 -1.1961
  463MOL0     H61056   4.821   0.942   4.818 -1.6592  2.3958 -2.0166
  463MOL0     H61057   4.771   1.142   4.724  0.7651 -0.9473 -0.0760
  463MOL0     H61058   4.697   1.208   4.868 -0.3878  0.2854 -0.2516
  463MOL0     H61059   4.537   1.016   4.878 -0.6629 -0.3064 -0.4010
  463MOL0     H61060   4.511   1.110   4.733  1.9069  2.2104 -0.6293
  463MOL0     H61061   4.492   0.899   4.643  0.7139  0.7011 -0.2314
  463MOL0     H61062   4.636   0.836   4.748  2.3094  1.0295  1.3665
  463MOL0     H61063   4.777   0.959   4.593 -0.9534 -1.3466  2.2205
  463MOL0     H61064   4.629   1.027   4.517 -2.2855 -1.0493  0.1344
  463MOL0     H61065   4.702   0.744   4.504 -3.8432 -0.9252  0.8655
  463MOL0     H61066   4.557   0.824   4.433 -1.0388  2.5597  1.3438
  463MOL0     H61067   4.836   0.911   4.368 -0.5948  0.8844  1.0977
  463MOL0     H61068   4.680   0.968   4.290 -0.2333  0.2901 -0.8232
  463MOL0     H61069   4.585   0.667   4.272 -1.0471 -0.1321 -0.5559
  463MOL0     H61070   4.730   0.431   3.978 -0.6265 -2.5257  0.5753
  463MOL0     H61071   4.575   0.503   4.019  1.9154  2.7322 -2.3480
  463MOL0     H61072   4.603   0.273   4.088 -0.5163  0.2039 -0.3483
  463MOL0     H61073   4.570   0.374   4.231 -0.6301 -2.5221 -0.2079
  463MOL0     H61074   4.837   0.239   4.140  3.5578  0.2528  0.8280
  463MOL0     H61075   4.843   0.373   4.254  0.1959 -0.8245 -0.6371
  463MOL0     H61076   4.699   0.301   4.396  1.6340 -0.1141  1.3004
  463MOL0     H61077   4.851   0.199   4.384  0.3714 -2.2688 -0.0152
  463MOL0     H61078   4.744   0.141   4.575  2.3488 -2.2485 -0.7859
  463MOL0     H61079   4.624   0.034   4.775 -1.4513 -1.0908  0.7138
  463MOL0     H61080   4.113  -0.242   4.855  0.4299 -0.4854 -1.5911
  463MOL0     H61081   4.022  -0.394   5.035 -2.0148  0.3755 -3.3789
  463MOL0     H61082   4.317  -0.714   5.202  0.6565  2.4483 -2.7947
  463MOL0     H61083   4.255  -0.793   5.068  0.4218  2.4321 -2.3119
  463MOL0     H61084   4.101  -0.752   5.328  0.2808  2.6428 -2.3286
  463MOL0     H61085   4.212  -0.887   5.315  1.3814 -0.0508 -1.6354
  463MOL0     H61086   4.107  -0.977   5.105 -0.8960 -0.2194 -1.0621
  463MOL0     H61087   3.984  -0.857   5.112 -1.4404 -0.0055  0.8583
  463MOL0     H61088   3.912  -1.091   5.208 -2.3188  1.6430 -1.4551
  463MOL0     H61089   4.046  -1.069   5.317 -2.2689 -0.1145  3.0566
  463MOL0     H61090   3.938  -0.894   5.446 -0.2602  1.3022 -1.8927
  463MOL0     H61091   3.835  -1.030   5.442  1.3354  0.2994  2.9483
  463MOL0     H61092   3.724  -0.913   5.233 -0.2850 -1.5425  0.3273
  463MOL0     H61093   3.800  -0.766   5.289 -1.1089 -1.2948 -0.4713
  463MOL0     H61094   3.608  -0.948   5.464  0.8353 -0.3592  1.0887
  463MOL0     H61095   3.683  -0.794   5.514  2.3919 -0.5391  0.2292
  463MOL0     H61096   3.445  -0.780   5.421 -0.0464 -2.2105  0.1538
  463MOL0     H61097   3.520  -0.810   5.264  2.1430 -2.1469 -0.8406
  463MOL0     H61098   4.359  -0.659   4.936  1.6918  0.5759  1.7696
  463MOL0     H61099   4.444  -0.488   4.786  0.7031  1.3380  1.0865
  463MOL0     H61100   4.396  -0.196   4.492 -1.8067  1.6597  0.5437
  463MOL0     H61101   4.505  -0.088   4.319  3.1786 -0.6899  0.1163
  463MOL0     H61102   5.097   0.903   4.801  1.0009 -0.8706 -2.4608
  463MOL0     H61103   5.334   0.927   4.727 -3.4202 -1.3139 -1.8284
  463MOL0     H61104   5.733   1.165   4.833 -2.9969 -4.8818  3.0295
  463MOL0     H61105   5.952   1.225   4.698  0.2439  0.0327 -0.7330
  463MOL0     H61106   6.104   1.249   4.538  0.2812  0.5562  3.0263
  463MOL0     H61107   6.230   1.146   4.454 -1.6620  0.0517 -0.4429
  463MOL0     H61108   6.190   1.205   4.748 -1.9091 -0.0719 -2.3588
  463MOL0     H61109   6.310   1.086   4.684  0.2613  0.8733 -0.9442
  463MOL0     H61110   6.448   1.234   4.572 -0.6699 -1.7024  0.4232
  463MOL0     H61111   6.421   1.320   4.728 -1.2761  0.2561  0.0318
  463MOL0     H61112   6.410   1.485   4.561 -2.2457  1.6621  0.9078
  463MOL0     H61113   6.320   1.384   4.454 -1.4342  2.6055 -1.4576
  463MOL0     H61114   5.999   1.491   4.694 -1.1289  0.9206 -1.5232
  463MOL0     H61115   5.960   0.818   4.574 -0.9562  0.0020  0.0568
  463MOL0     H61116   5.768   0.760   4.719 -1.1776 -0.1562  2.4336
  464MOL0     O61117   0.099   3.634  10.312  0.7556  0.3453 -0.0037
  464MOL0     C61118   0.131   3.539  10.246  0.3701  0.4505 -0.7614
  464MOL0     O61119   0.048   3.456  10.169 -0.3782 -0.4492  0.1897
  464MOL0     C61120  -0.091   3.492  10.185  0.5799 -0.0629 -0.0973
  464MOL0     C61121  -0.164   3.504  10.059  0.3040  0.4567 -0.6927
  464MOL0     C61122  -0.298   3.549  10.064 -0.1319  1.0155 -0.1896
  464MOL0     C61123  -0.372   3.542  10.182  0.2228  0.0243  0.3074
  464MOL0     O61124  -0.503   3.599  10.188  0.2844 -0.3182  0.6308
  464MOL0     C61125  -0.578   3.601  10.308  1.0969 -0.2270  0.4023
  464MOL0     C61126  -0.626   3.471  10.369 -0.1844  0.4113  0.2917
  464MOL0     C61127  -0.715   3.383  10.281 -0.3347 -0.5599 -0.8312
  464MOL0     C61128  -0.857   3.426  10.294  0.2180 -0.3050  0.0203
  464MOL0     C61129  -0.941   3.337  10.205 -0.4178  0.0403 -0.6400
  464MOL0     C61130  -1.091   3.343  10.227 -0.3286 -0.6949 -0.8364
  464MOL0     C61131  -1.135   3.292  10.363  0.3202  0.6535 -0.9126
  464MOL0     C61132  -1.231   3.381  10.439 -0.1496  0.0700  0.4528
  464MOL0     N61133  -1.362   3.398  10.359  0.7228 -1.6060 -0.8491
  464MOL0     C61134  -1.473   3.316  10.366  0.1317 -0.8969 -0.1529
  464MOL0     C61135  -1.583   3.388  10.333 -0.0118  0.3650 -0.3644
  464MOL0     C61136  -1.723   3.333  10.332 -0.8231  0.0226  0.4263
  464MOL0     C61137  -1.750   3.242  10.455  0.0791 -0.8120  0.0447
  464MOL0     C61138  -1.700   3.277  10.591 -0.0172 -0.0560  0.0759
  464MOL0     C61139  -1.770   3.401  10.653 -0.1473 -0.1475 -0.0160
  464MOL0     O61140  -1.705   3.440  10.779 -1.1308  1.0269  0.0647
  464MOL0     C61141  -1.586   3.518  10.773  0.2061 -0.5963 -0.1954
  464MOL0     C61142  -1.512   3.527  10.890 -0.6803 -0.4081 -0.6763
  464MOL0     C61143  -1.385   3.586  10.896  0.2286 -0.6848  0.5753
  464MOL0     C61144  -1.333   3.637  10.773 -1.0607 -0.7279 -0.1894
  464MOL0     C61145  -1.193   3.693  10.754 -0.8485  0.8838  0.1044
  464MOL0     O61146  -1.134   3.703  10.633 -0.3829  0.5315  0.4394
  464MOL0     C61147  -1.000   3.734  10.616 -0.0906  0.0087  0.8349
  464MOL0     C61148  -0.892   3.727  10.710 -0.8820 -0.0134  0.4025
  464MOL0     C61149  -0.765   3.773  10.661 -0.1985  0.9885 -0.6392
  464MOL0     C61150  -0.734   3.809  10.527  0.3307  1.1520 -0.3425
  464MOL0     O61151  -0.607   3.850  10.482  0.0464  0.3265  0.8540
  464MOL0     C61152  -0.553   3.959  10.547 -0.6376  0.0808 -0.2663
  464MOL0     C61153  -0.438   4.015  10.465 -1.3900  0.2415  0.3642
  464MOL0     C61154  -0.325   3.910  10.463 -0.3222  0.4354  0.3003
  464MOL0     C61155  -0.181   3.972  10.426 -0.1136  1.0424 -0.0929
  464MOL0     C61156  -0.075   3.877  10.473 -0.2762 -0.2314  0.9644
  464MOL0     C61157   0.064   3.944  10.485  0.6129  0.1070  0.3073
  464MOL0     C61158   0.128   4.002  10.354  0.2817 -1.1099 -0.1932
  464MOL0     C61159   0.275   4.055  10.365 -0.1599  0.0291  0.1464
  464MOL0    Cl61160   0.379   3.960  10.487 -0.3003 -0.2867  0.0270
  464MOL0     C61161  -0.841   3.796  10.429 -0.5707 -0.5134 -0.5966
  464MOL0     C61162  -0.972   3.763  10.482  0.1887 -0.1122 -0.6608
  464MOL0     O61163  -1.133   3.715  10.860  0.8087  0.4152  0.1169
  464MOL0     C61164  -1.408   3.625  10.658  0.1332  0.3513 -0.3042
  464MOL0     C61165  -1.533   3.571  10.663  0.5845  0.6669  0.4813
  464MOL0     N61166  -1.534   3.515  10.303  0.0151  0.4857 -0.2235
  464MOL0     N61167  -1.401   3.520  10.312  0.1967 -0.3836 -0.9985
  464MOL0     C61168  -0.300   3.506  10.301  0.3275 -0.4918 -0.9078
  464MOL0     C61169  -0.165   3.479  10.298  0.1977  0.5363  0.2489
  464MOL0     C61170   0.276   3.496  10.257  0.0909  0.3324  0.8463
  464MOL0     C61171   0.373   3.580  10.318 -0.3730  0.0001  0.2427
  464MOL0     C61172   0.506   3.530  10.335 -0.4906  0.0647 -0.5153
  464MOL0     C61173   0.543   3.406  10.297 -0.4742  0.6945 -0.3123
  464MOL0     O61174   0.675   3.370  10.316  0.3172 -0.2005 -0.0192
  464MOL0     C61175   0.727   3.235  10.316 -0.4735  0.5723 -0.6655
  464MOL0     C61176   0.688   3.188  10.456  0.8027 -0.1261 -0.8686
  464MOL0     C61177   0.743   3.051  10.478 -0.0711  0.2262 -0.6341
  464MOL0     C61178   0.743   3.022  10.622 -0.1194 -0.4916  0.0074
  464MOL0     C61179   0.766   2.882  10.648 -0.8125 -0.4008  0.4246
  464MOL0     C61180   0.777   2.767  10.682  0.0229 -0.1151 -0.9941
  464MOL0     C61181   0.440   3.328  10.239  1.0085  0.5325  0.1459
  464MOL0     C61182   0.310   3.364  10.219  0.7341  0.1835  0.5555
  464MOL0     H61183  -0.110   3.490   9.966  2.3144 -1.2718  0.6329
  464MOL0     H61184  -0.350   3.571   9.971  2.8638 -0.2093 -2.3504
  464MOL0     H61185  -0.665   3.661  10.280  1.1604 -1.1202 -1.9849
  464MOL0     H61186  -0.520   3.654  10.384  2.7165 -4.7641  2.6864
  464MOL0     H61187  -0.672   3.507  10.461  1.0206  0.7479  0.7792
  464MOL0     H61188  -0.554   3.400  10.412 -0.4469 -1.7386 -2.5106
  464MOL0     H61189  -0.706   3.278  10.308  1.7543  0.3101  2.4299
  464MOL0     H61190  -0.686   3.378  10.176 -0.7166  1.7834 -1.1042
  464MOL0     H61191  -0.885   3.423  10.400 -0.9203  0.2945 -0.2467
  464MOL0     H61192  -0.879   3.530  10.268 -2.8570 -0.9795 -0.4550
  464MOL0     H61193  -0.908   3.234  10.220 -0.6660  0.0441 -0.0101
  464MOL0     H61194  -0.918   3.371  10.104 -0.0831  1.1425 -0.2050
  464MOL0     H61195  -1.143   3.275  10.159  0.6137 -1.0421 -1.2247
  464MOL0     H61196  -1.127   3.444  10.205 -2.0273 -1.0285  0.2422
  464MOL0     H61197  -1.195   3.201  10.357  0.3833  0.4133  1.4578
  464MOL0     H61198  -1.049   3.264  10.424  2.6426 -2.1572 -4.9311
  464MOL0     H61199  -1.171   3.472  10.440 -1.8999  1.3876 -2.4685
  464MOL0     H61200  -1.259   3.335  10.534 -0.7930 -3.5785 -1.3218
  464MOL0     H61201  -1.472   3.217  10.411 -3.2998 -0.8554  0.2985
  464MOL0     H61202  -1.727   3.280  10.237 -0.9973 -0.1401  0.5226
  464MOL0     H61203  -1.793   3.417  10.323 -1.7292 -0.8245 -0.7032
  464MOL0     H61204  -1.719   3.141  10.427 -0.2724 -0.4117 -1.9247
  464MOL0     H61205  -1.856   3.225  10.475  0.0933 -0.0774  0.7820
  464MOL0     H61206  -1.721   3.195  10.661 -2.9004  1.8248  1.6212
  464MOL0     H61207  -1.592   3.291  10.587  0.3909 -2.2793  1.4902
  464MOL0     H61208  -1.869   3.368  10.685  0.0162  1.3897  2.3697
  464MOL0     H61209  -1.783   3.482  10.582  0.2429 -0.3799 -0.3552
  464MOL0     H61210  -1.555   3.486  10.982 -1.6617 -0.1097 -0.9933
  464MOL0     H61211  -1.331   3.581  10.990  1.4790 -1.4651 -0.1559
  464MOL0     H61212  -0.902   3.689  10.812 -1.7570 -0.9867 -0.0289
  464MOL0     H61213  -0.684   3.766  10.732  1.9305 -0.4632 -3.0524
  464MOL0     H61214  -0.517   3.923  10.644 -1.2505  2.8032  1.0576
  464MOL0     H61215  -0.635   4.028  10.568 -1.3869 -0.3159 -1.7313
  464MOL0     H61216  -0.408   4.110  10.511 -0.6546 -0.4480  1.3471
  464MOL0     H61217  -0.469   4.036  10.362  0.6363  1.0751 -0.1192
  464MOL0     H61218  -0.355   3.844  10.381 -0.8483 -0.2269  1.0124
  464MOL0     H61219  -0.314   3.847  10.552  2.6816 -0.6658 -0.7308
  464MOL0     H61220  -0.182   3.985  10.318  0.5437  2.0108  0.0040
  464MOL0     H61221  -0.171   4.073  10.466  0.3911  2.5102 -3.6168
  464MOL0     H61222  -0.074   3.788  10.410 -0.1438 -2.0715  3.4292
  464MOL0     H61223  -0.092   3.851  10.578 -0.3906  0.6814  1.1839
  464MOL0     H61224   0.134   3.877  10.534 -0.8068 -0.5131  1.5701
  464MOL0     H61225   0.051   4.031  10.551  1.1504  0.9162 -0.6197
  464MOL0     H61226   0.129   3.921  10.280  0.8216 -0.7584 -0.5783
  464MOL0     H61227   0.069   4.082  10.309 -0.8753 -0.9123  1.5712
  464MOL0     H61228   0.269   4.160  10.394 -0.9620 -0.1359  0.6086
  464MOL0     H61229   0.321   4.043  10.266  2.1467 -3.6497  1.4565
  464MOL0     H61230  -0.822   3.818  10.325 -4.8142  1.5821 -1.1539
  464MOL0     H61231  -1.060   3.775  10.420  2.5121  0.8450 -4.0395
  464MOL0     H61232  -1.385   3.667  10.561  0.3373  1.8174  0.3566
  464MOL0     H61233  -1.584   3.576  10.568 -4.0691 -0.1208  2.6637
  464MOL0     H61234  -0.339   3.507  10.402  1.2386  0.5412 -0.5382
  464MOL0     H61235  -0.104   3.446  10.382 -1.3341  0.0102  1.1884
  464MOL0     H61236   0.355   3.680  10.356  2.6179  0.5436  0.4530
  464MOL0     H61237   0.566   3.606  10.383 -0.5073  0.4324 -1.0619
  464MOL0     H61238   0.835   3.233  10.305 -0.2048 -0.0948  1.5569
  464MOL0     H61239   0.682   3.171  10.240 -0.4598 -0.5227  0.2170
  464MOL0     H61240   0.710   3.263  10.532 -2.4639  0.7817 -0.6992
  464MOL0     H61241   0.579   3.188  10.457  0.7198  1.4419  2.4405
  464MOL0     H61242   0.849   3.060  10.453  0.2886  3.7272  1.4617
  464MOL0     H61243   0.687   2.971  10.429 -0.3789  1.6946 -2.8402
  464MOL0     H61244   0.815   3.087  10.674  1.4363 -1.9574 -0.2367
  464MOL0     H61245   0.647   3.062  10.656 -0.4670 -0.9274 -0.4565
  464MOL0     H61246   0.790   2.664  10.708  2.4129  0.5974  1.0279
  464MOL0     H61247   0.480   3.234  10.201  0.5215 -0.9533  3.0711
  464MOL0     H61248   0.235   3.299  10.174  0.1477 -0.2072  2.0517
  465MOL0     O61249   1.770   1.768   5.405  0.5581 -0.7709  0.5012
  465MOL0     C61250   1.669   1.726   5.459 -0.5742  0.5357  0.3239
  465MOL0     O61251   1.667   1.665   5.575  0.9801  0.5774 -0.4609
  465MOL0     C61252   1.788   1.635   5.629 -0.5662  0.0018 -0.8104
  465MOL0     C61253   1.810   1.502   5.677  0.1630 -0.3110  1.1040
  465MOL0     C61254   1.931   1.460   5.744  0.0728 -0.5999  0.5562
  465MOL0     C61255   2.024   1.554   5.786 -0.1276 -0.2601 -0.0339
  465MOL0     O61256   2.143   1.534   5.858  0.2983  0.4909 -0.2905
  465MOL0     C61257   2.184   1.395   5.886  0.6340  0.0621 -0.7327
  465MOL0     C61258   2.306   1.363   5.803  0.7751  0.1559  0.7098
  465MOL0     C61259   2.388   1.255   5.865 -0.0290  0.5197  0.4567
  465MOL0     C61260   2.521   1.228   5.789  0.1753 -0.8013 -0.1125
  465MOL0     C61261   2.571   1.092   5.812 -0.6174 -0.2122  0.6489
  465MOL0     C61262   2.721   1.096   5.798  0.2617  0.4800 -0.0038
  465MOL0     C61263   2.792   0.958   5.808 -0.2637  0.1794  0.1506
  465MOL0     C61264   2.939   0.967   5.830 -0.2749  0.0626  0.2660
  465MOL0     N61265   2.972   1.028   5.958  0.0155  0.2811 -0.2843
  465MOL0     C61266   2.934   0.976   6.081 -0.1477 -0.1469 -0.0544
  465MOL0     C61267   2.960   1.068   6.178  0.0303 -0.2070  0.8909
  465MOL0     C61268   2.931   1.052   6.328 -0.2924  0.3543  0.5804
  465MOL0     C61269   2.810   1.147   6.366 -0.0620 -0.0414 -0.0409
  465MOL0     C61270   2.675   1.078   6.341 -0.2632 -0.1512  0.3270
  465MOL0     C61271   2.564   1.163   6.386 -0.1296  0.3398  0.3402
  465MOL0     O61272   2.441   1.114   6.341  0.5096  0.2577 -0.4681
  465MOL0     C61273   2.387   0.994   6.389 -0.7145 -0.6625  0.8884
  465MOL0     C61274   2.400   0.969   6.527 -0.2558 -1.4588 -0.3935
  465MOL0     C61275   2.344   0.859   6.582  0.0388  0.6975  0.3118
  465MOL0     C61276   2.289   0.753   6.501  1.0844 -0.3293 -0.8629
  465MOL0     C61277   2.230   0.627   6.545 -0.1662  0.7056 -0.3491
  465MOL0     O61278   2.143   0.563   6.464  0.5559  0.1635 -0.4430
  465MOL0     C61279   2.094   0.441   6.497  0.6860  0.4307 -0.0895
  465MOL0     C61280   2.121   0.324   6.427 -0.0429  1.1729  0.0204
  465MOL0     C61281   2.063   0.201   6.464 -0.2217 -0.0231 -0.4540
  465MOL0     C61282   1.961   0.197   6.565 -0.5617  0.1591 -0.1726
  465MOL0     O61283   1.901   0.073   6.603 -0.7789  0.2095 -0.4951
  465MOL0     C61284   1.980  -0.043   6.640  0.5638  0.0868  0.0882
  465MOL0     C61285   1.952  -0.089   6.775 -0.5085 -0.2064 -0.5080
  465MOL0     C61286   1.818  -0.073   6.843  0.3568  0.0610 -0.9042
  465MOL0     C61287   1.707  -0.147   6.771 -0.0221  1.0689 -0.0547
  465MOL0     C61288   1.573  -0.109   6.824  0.4166  0.0293 -0.2274
  465MOL0     C61289   1.544  -0.144   6.972  0.3760  0.0881  1.0034
  465MOL0     C61290   1.401  -0.110   7.007  0.3274 -0.6854 -0.3748
  465MOL0     C61291   1.373  -0.160   7.149 -0.4910  0.5061 -0.1082
  465MOL0    Cl61292   1.431  -0.055   7.275 -0.5066 -0.5158 -0.0405
  465MOL0     C61293   1.914   0.319   6.616  0.3148 -0.1297 -0.5483
  465MOL0     C61294   1.983   0.433   6.592  0.0170  0.2610 -0.0835
  465MOL0     O61295   2.259   0.601   6.661  0.5657  0.7622  0.3371
  465MOL0     C61296   2.279   0.781   6.360  0.8792  0.0860 -0.9296
  465MOL0     C61297   2.328   0.904   6.304 -0.2650  0.5238  0.1347
  465MOL0     N61298   3.014   1.182   6.106  0.3871 -0.1400 -0.3649
  465MOL0     N61299   3.008   1.162   5.974  0.0885 -0.2595  0.1887
  465MOL0     C61300   2.002   1.689   5.747 -0.0922 -0.0746  0.3573
  465MOL0     C61301   1.882   1.723   5.674 -0.7303 -0.8142 -0.1126
  465MOL0     C61302   1.541   1.735   5.385 -0.1016  0.7601 -0.5411
  465MOL0     C61303   1.428   1.695   5.459 -0.4218  0.3112 -0.4691
  465MOL0     C61304   1.302   1.685   5.391  0.3998 -0.6891 -1.0705
  465MOL0     C61305   1.300   1.697   5.246  0.2202  0.8552 -0.0353
  465MOL0     O61306   1.191   1.690   5.164 -0.4674  0.3527 -0.2314
  465MOL0     C61307   1.147   1.554   5.150 -0.1044 -1.0887  0.1262
  465MOL0     C61308   1.117   1.522   5.002  0.1847 -0.1927  0.4048
  465MOL0     C61309   0.989   1.587   4.953  0.5346 -0.8036 -0.3614
  465MOL0     C61310   0.859   1.530   5.009 -0.2675 -0.9255 -0.3616
  465MOL0     C61311   0.733   1.598   4.973 -0.1391  0.8706  0.2314
  465MOL0     C61312   0.631   1.653   4.937 -0.1894 -0.7821 -0.5711
  465MOL0     C61313   1.410   1.740   5.180 -0.3138  0.2855 -0.5966
  465MOL0     C61314   1.531   1.763   5.250  0.3359 -0.3085  0.7408
  465MOL0     H61315   1.722   1.441   5.660 -0.0304 -1.4159  5.0769
  465MOL0     H61316   1.919   1.353   5.755 -1.1934 -0.6350 -0.9218
  465MOL0     H61317   2.106   1.321   5.864  0.4243 -0.7198  2.1973
  465MOL0     H61318   2.198   1.378   5.993 -1.9272  0.8398 -0.2050
  465MOL0     H61319   2.367   1.453   5.802  2.1367 -0.6894 -1.7359
  465MOL0     H61320   2.264   1.336   5.705  0.4850 -1.8228  1.3229
  465MOL0     H61321   2.330   1.165   5.883  0.6836  0.5309  3.2614
  465MOL0     H61322   2.418   1.289   5.964  3.2136  0.1324 -0.2658
  465MOL0     H61323   2.514   1.253   5.682 -2.1073  0.1138  0.1843
  465MOL0     H61324   2.594   1.295   5.836 -2.6602  0.5210  2.8162
  465MOL0     H61325   2.533   1.016   5.743 -0.3495 -1.0781  1.4312
  465MOL0     H61326   2.543   1.066   5.914  1.1908  2.4999  1.9444
  465MOL0     H61327   2.768   1.170   5.864 -0.0123  2.1466 -1.6141
  465MOL0     H61328   2.732   1.131   5.696  2.1900  0.9883  0.3534
  465MOL0     H61329   2.751   0.899   5.891 -0.6788  0.1955 -0.0390
  465MOL0     H61330   2.769   0.900   5.718  0.2590 -1.9885  1.3345
  465MOL0     H61331   2.989   1.021   5.749  1.0109  0.9951  1.6328
  465MOL0     H61332   2.980   0.865   5.831  1.7036  0.8167  0.3059
  465MOL0     H61333   2.890   0.879   6.100  2.3188 -1.3944 -0.2900
  465MOL0     H61334   3.018   1.089   6.384  1.9614  0.2898 -2.6193
  465MOL0     H61335   2.919   0.946   6.349  4.7551 -0.0736  2.8111
  465MOL0     H61336   2.810   1.242   6.312 -0.2970 -0.8517 -1.5096
  465MOL0     H61337   2.805   1.160   6.475  0.8130 -1.5781  0.2132
  465MOL0     H61338   2.672   1.070   6.232 -0.2148  2.5167  0.0654
  465MOL0     H61339   2.684   0.986   6.400  0.8602  0.1069  0.5730
  465MOL0     H61340   2.571   1.260   6.338  1.8662 -0.0965 -0.3555
  465MOL0     H61341   2.574   1.180   6.494  1.6730  1.5994  0.0212
  465MOL0     H61342   2.459   1.038   6.587  0.6760  1.0797 -3.9082
  465MOL0     H61343   2.340   0.851   6.690 -2.9704  1.0478  0.3131
  465MOL0     H61344   2.198   0.339   6.353  0.3315 -1.0016 -0.0958
  465MOL0     H61345   2.090   0.105   6.420 -0.2463 -1.3664  2.3002
  465MOL0     H61346   2.087  -0.038   6.616  0.4760  0.1415 -0.3000
  465MOL0     H61347   1.947  -0.129   6.580  1.6684 -1.1951  1.2355
  465MOL0     H61348   2.009  -0.020   6.837 -0.7850 -1.2729  1.0018
  465MOL0     H61349   1.988  -0.191   6.794 -1.5163 -0.5131 -0.1799
  465MOL0     H61350   1.793   0.034   6.835 -0.0204  0.0081 -0.4993
  465MOL0     H61351   1.819  -0.099   6.949 -0.3445 -0.3553 -0.9946
  465MOL0     H61352   1.713  -0.120   6.665  0.0493 -2.4453 -1.0934
  465MOL0     H61353   1.713  -0.256   6.778 -5.5714  0.4498 -1.0056
  465MOL0     H61354   1.496  -0.150   6.757 -0.9259  1.7417  0.2001
  465MOL0     H61355   1.565   0.000   6.823  0.2872  0.0721  1.8795
  465MOL0     H61356   1.617  -0.083   7.026 -3.3260  4.2734  1.8193
  465MOL0     H61357   1.561  -0.252   6.978 -1.4741 -0.2191  1.1745
  465MOL0     H61358   1.382  -0.002   7.006  1.4011 -0.4904 -0.8740
  465MOL0     H61359   1.327  -0.139   6.932  0.8547  2.9779 -2.5751
  465MOL0     H61360   1.416  -0.260   7.156 -3.1026 -0.6582  0.4045
  465MOL0     H61361   1.264  -0.163   7.150 -0.5920  1.9342  2.5808
  465MOL0     H61362   1.836   0.319   6.691 -0.7800 -0.4854 -1.6649
  465MOL0     H61363   1.938   0.523   6.633  0.5083 -2.2295  7.2696
  465MOL0     H61364   2.238   0.715   6.284 -1.0744  0.2830 -0.1200
  465MOL0     H61365   2.332   0.931   6.199  3.8986  1.4934  0.3636
  465MOL0     H61366   2.071   1.764   5.785 -1.8749  0.4817  2.7129
  465MOL0     H61367   1.861   1.827   5.653  0.5901 -0.7220 -1.1421
  465MOL0     H61368   1.429   1.667   5.563  2.2600 -4.3457 -1.4613
  465MOL0     H61369   1.212   1.652   5.443  0.3566  2.6434  1.2391
  465MOL0     H61370   1.064   1.534   5.217 -0.7676 -2.0394 -0.9381
  465MOL0     H61371   1.229   1.488   5.181  3.6897  3.0132 -0.1782
  465MOL0     H61372   1.200   1.559   4.941 -0.6285  2.3607  0.7590
  465MOL0     H61373   1.107   1.416   4.977  0.1750 -0.5818  1.9457
  465MOL0     H61374   0.984   1.594   4.844 -0.4821  1.5291 -0.2334
  465MOL0     H61375   0.998   1.691   4.984  0.6815 -0.3708 -1.7741
  465MOL0     H61376   0.855   1.426   4.977  0.8082 -1.0729 -0.0722
  465MOL0     H61377   0.854   1.534   5.118 -5.1648  2.2918 -0.3596
  465MOL0     H61378   0.543   1.708   4.911 -0.1929 -0.8525 -0.7058
  465MOL0     H61379   1.398   1.744   5.073  1.9587 -4.8826 -1.3522
  465MOL0     H61380   1.621   1.796   5.199  0.1963  1.8217  1.7606
  466MOL0     O61381   3.117   8.407   5.331  0.1795 -0.3606 -0.7200
  466MOL0     C61382   3.176   8.330   5.259 -0.5675 -0.2777 -0.3100
  466MOL0     O61383   3.166   8.344   5.122  0.2008 -0.1538 -0.5276
  466MOL0     C61384   3.069   8.415   5.049  0.1148 -0.2783 -0.0994
  466MOL0     C61385   2.956   8.473   5.113  0.1065 -0.0671  0.3894
  466MOL0     C61386   2.878   8.559   5.036  0.4806 -0.6891  0.3187
  466MOL0     C61387   2.916   8.589   4.897  0.2246  0.9348  0.5985
  466MOL0     O61388   2.829   8.660   4.821  0.3380 -0.5257  0.0784
  466MOL0     C61389   2.875   8.709   4.689  0.7614  1.1395  0.0771
  466MOL0     C61390   2.840   8.592   4.591  0.6240 -1.2978 -0.1071
  466MOL0     C61391   2.825   8.655   4.454 -0.0265 -0.3592 -0.7192
  466MOL0     C61392   2.772   8.552   4.353  0.4648 -0.2303 -0.3333
  466MOL0     C61393   2.736   8.624   4.217 -0.0248  0.3805 -0.2813
  466MOL0     C61394   2.642   8.526   4.141 -1.1358  0.2220  0.8544
  466MOL0     C61395   2.585   8.591   4.022 -1.2101  0.3508 -0.5237
  466MOL0     C61396   2.447   8.653   4.045  0.4363 -0.0807  0.2991
  466MOL0     N61397   2.440   8.755   4.154 -1.1783  0.3024  0.4828
  466MOL0     C61398   2.500   8.881   4.147  0.4916  0.6295 -0.2016
  466MOL0     C61399   2.498   8.930   4.279 -0.9247 -0.2437  0.6898
  466MOL0     C61400   2.552   9.061   4.329  0.1421  1.0738  0.9344
  466MOL0     C61401   2.577   9.053   4.479  0.4441  0.1396 -0.5629
  466MOL0     C61402   2.653   9.177   4.510  0.0461 -0.3969  0.3305
  466MOL0     C61403   2.667   9.209   4.663 -0.0359  0.3988  0.5155
  466MOL0     O61404   2.768   9.305   4.692  0.4132  0.0544 -0.5326
  466MOL0     C61405   2.743   9.437   4.695 -0.1719 -0.5553 -0.3893
  466MOL0     C61406   2.633   9.494   4.633  0.1172 -0.4278  0.1348
  466MOL0     C61407   2.616   9.632   4.629  0.7848  0.0923  0.1531
  466MOL0     C61408   2.715   9.718   4.688  0.7075 -0.4812 -0.4391
  466MOL0     C61409   2.701   9.861   4.674  0.2772  0.1238 -1.0807
  466MOL0     O61410   2.796   9.929   4.743  0.5106  0.5938  0.4472
  466MOL0     C61411   2.790  10.057   4.763 -0.3460 -0.4330  0.7488
  466MOL0     C61412   2.884  10.137   4.700  0.2725 -0.4390 -0.9310
  466MOL0     C61413   2.886  10.278   4.714 -1.3144 -0.3354  0.4356
  466MOL0     C61414   2.782  10.346   4.785 -0.1416 -0.6466 -0.0979
  466MOL0     O61415   2.779  10.485   4.793 -0.0382 -0.0727 -0.7200
  466MOL0     C61416   2.676  10.549   4.863  0.2902 -0.3063  0.2011
  466MOL0     C61417   2.690  10.693   4.880 -0.2025 -0.0621 -1.1739
  466MOL0     C61418   2.832  10.731   4.918  0.2989 -0.8722  0.8555
  466MOL0     C61419   2.862  10.884   4.884  1.2458  0.4535  0.5154
  466MOL0     C61420   3.004  10.905   4.929 -0.7294  0.3361  0.1279
  466MOL0     C61421   3.048  11.049   4.887  1.0672  0.0421 -0.0969
  466MOL0     C61422   3.195  11.061   4.913  0.6748  0.0378 -0.7707
  466MOL0     C61423   3.240  11.210   4.918  0.1563  0.1225  0.2797
  466MOL0    Cl61424   3.164  11.314   4.784  0.0470 -0.2715 -0.0739
  466MOL0     C61425   2.688  10.266   4.853 -0.1362  0.6645 -0.8949
  466MOL0     C61426   2.695  10.128   4.843 -0.0816  1.4167  0.5296
  466MOL0     O61427   2.611   9.915   4.619  0.4827  0.2153 -0.7554
  466MOL0     C61428   2.831   9.657   4.739 -0.5288  0.7281  0.6898
  466MOL0     C61429   2.838   9.519   4.741 -0.6428  0.8661 -0.4406
  466MOL0     N61430   2.423   8.842   4.350  1.1087 -0.6645  0.1468
  466MOL0     N61431   2.394   8.738   4.281  0.8224  0.0511 -0.8102
  466MOL0     C61432   3.022   8.526   4.838 -0.6882  0.0202 -1.0073
  466MOL0     C61433   3.103   8.437   4.920  0.6147 -0.3997  0.2812
  466MOL0     C61434   3.245   8.212   5.316  0.5857 -1.3973  1.3957
  466MOL0     C61435   3.275   8.200   5.446  0.0310 -0.0828 -0.0069
  466MOL0     C61436   3.330   8.076   5.498  0.8007 -0.2002 -1.2966
  466MOL0     C61437   3.373   7.971   5.423 -0.3298  1.1386  0.1211
  466MOL0     O61438   3.425   7.854   5.468  0.4125  0.5274 -0.3623
  466MOL0     C61439   3.397   7.828   5.606 -0.1385 -0.3090  0.3715
  466MOL0     C61440   3.413   7.686   5.650 -0.1161 -0.1894  0.7574
  466MOL0     C61441   3.536   7.600   5.624  2.0014  0.7039  0.2462
  466MOL0     C61442   3.669   7.669   5.659  0.3162  0.0918  1.3516
  466MOL0     C61443   3.667   7.724   5.796  0.3316 -0.3586  0.2762
  466MOL0     C61444   3.656   7.765   5.904  0.5977  0.0027 -0.4701
  466MOL0     C61445   3.355   7.990   5.287  1.2480 -0.0263  1.0583
  466MOL0     C61446   3.293   8.105   5.232  0.4165  0.0320  0.0131
  466MOL0     H61447   2.920   8.440   5.210  0.3732 -0.8252  0.2395
  466MOL0     H61448   2.793   8.612   5.078  0.7027  1.4007 -1.6279
  466MOL0     H61449   2.981   8.734   4.681  0.4371  2.7874  0.5535
  466MOL0     H61450   2.817   8.796   4.656 -1.2716 -0.6753 -1.4580
  466MOL0     H61451   2.747   8.548   4.629 -1.7344  2.0917 -1.5329
  466MOL0     H61452   2.914   8.511   4.587  1.5516 -0.5138  0.7039
  466MOL0     H61453   2.919   8.705   4.429  0.4515 -1.9251 -2.3182
  466MOL0     H61454   2.740   8.724   4.456 -1.2543 -1.8239  0.0990
  466MOL0     H61455   2.846   8.473   4.333  0.2089 -0.2232 -1.3637
  466MOL0     H61456   2.691   8.490   4.393  0.6321  0.9874  2.0703
  466MOL0     H61457   2.824   8.649   4.159 -0.8062 -1.9858 -2.7144
  466MOL0     H61458   2.678   8.712   4.248  2.1165  0.5725  3.8195
  466MOL0     H61459   2.563   8.494   4.209  0.6145 -0.1526  2.8128
  466MOL0     H61460   2.690   8.431   4.115  1.6643  1.7230  0.1088
  466MOL0     H61461   2.656   8.661   3.975  0.2774 -1.7117 -1.5262
  466MOL0     H61462   2.581   8.507   3.951 -1.3976 -0.2120  0.1493
  466MOL0     H61463   2.389   8.565   4.070 -1.3990  0.8628 -0.4272
  466MOL0     H61464   2.404   8.700   3.956  0.0461 -2.9011 -1.1015
  466MOL0     H61465   2.537   8.936   4.061  1.7321  0.4068  0.1592
  466MOL0     H61466   2.478   9.139   4.310  0.3199  1.7395  2.7543
  466MOL0     H61467   2.644   9.086   4.276 -0.1640 -1.7635 -1.1396
  466MOL0     H61468   2.644   8.971   4.504 -0.4872 -0.8126 -1.1062
  466MOL0     H61469   2.483   9.039   4.532  1.0040  0.0502  0.4273
  466MOL0     H61470   2.749   9.187   4.458  0.7963 -2.7296  1.1521
  466MOL0     H61471   2.589   9.261   4.479  0.3249 -0.7399 -1.3069
  466MOL0     H61472   2.707   9.120   4.712  0.4220 -1.3737 -2.8218
  466MOL0     H61473   2.568   9.231   4.705  0.3759 -0.0025  1.7433
  466MOL0     H61474   2.561   9.442   4.570 -1.7073  0.8460  1.0790
  466MOL0     H61475   2.531   9.665   4.571  1.2967 -0.5725 -1.0041
  466MOL0     H61476   2.961  10.083   4.646  1.5869 -0.3401  0.7707
  466MOL0     H61477   2.972  10.337   4.685 -0.3470 -2.2052 -0.6359
  466MOL0     H61478   2.660  10.515   4.966  1.3796  2.7646  1.5162
  466MOL0     H61479   2.587  10.524   4.806  1.1350 -1.0150 -0.8299
  466MOL0     H61480   2.625  10.734   4.957  0.4938  0.4072 -0.8280
  466MOL0     H61481   2.663  10.737   4.783 -1.1133  1.8342 -0.1141
  466MOL0     H61482   2.910  10.673   4.869 -0.6730 -1.2675 -0.2705
  466MOL0     H61483   2.840  10.712   5.026  2.2550 -6.3778  0.0336
  466MOL0     H61484   2.852  10.904   4.777  2.0485  0.6169  0.4619
  466MOL0     H61485   2.792  10.946   4.940  1.3855  1.0378  0.0600
  466MOL0     H61486   3.072  10.832   4.885 -1.3383 -0.7590  0.9531
  466MOL0     H61487   3.015  10.901   5.038 -0.6918  2.9275  0.2931
  466MOL0     H61488   2.996  11.124   4.948  1.7632 -0.9887  1.8469
  466MOL0     H61489   3.026  11.060   4.781  0.4628 -1.2584 -0.1217
  466MOL0     H61490   3.206  11.026   5.016  1.2558  1.7687 -0.2136
  466MOL0     H61491   3.249  10.984   4.856  1.3495  0.6582 -0.9712
  466MOL0     H61492   3.349  11.207   4.910  0.2594  0.1162  1.4414
  466MOL0     H61493   3.224  11.262   5.013  1.9572  2.1266 -0.4273
  466MOL0     H61494   2.615  10.313   4.917  1.4384  1.6300  0.2798
  466MOL0     H61495   2.630  10.060   4.897  0.9267 -0.0655 -0.0584
  466MOL0     H61496   2.902   9.726   4.783 -0.4943  1.2699 -0.1852
  466MOL0     H61497   2.921   9.469   4.790 -1.3699 -0.9392 -1.0010
  466MOL0     H61498   3.055   8.534   4.735  1.3085 -2.0344 -0.6048
  466MOL0     H61499   3.196   8.387   4.895 -0.0232 -3.7189  3.5391
  466MOL0     H61500   3.254   8.280   5.515 -0.1609 -0.2307  0.1047
  466MOL0     H61501   3.344   8.069   5.606  0.0751 -0.9177 -1.2454
  466MOL0     H61502   3.293   7.853   5.632 -1.3419 -2.9855 -1.3526
  466MOL0     H61503   3.461   7.895   5.664  0.9404 -1.6682  0.7887
  466MOL0     H61504   3.391   7.688   5.757 -1.6458  1.3262  0.4631
  466MOL0     H61505   3.340   7.630   5.592  1.9668 -0.8647 -1.3836
  466MOL0     H61506   3.548   7.558   5.524 -1.3579 -2.0717  0.7958
  466MOL0     H61507   3.526   7.510   5.687 -1.5012  1.6533  1.2752
  466MOL0     H61508   3.741   7.587   5.649  2.2505  1.4344  3.3924
  466MOL0     H61509   3.693   7.751   5.591  0.9566 -0.3372  1.0550
  466MOL0     H61510   3.641   7.802   6.004 -0.0080 -0.2671 -0.4597
  466MOL0     H61511   3.394   7.918   5.216  2.0195  1.3825  0.0219
  466MOL0     H61512   3.279   8.102   5.124  0.4221  0.5596 -0.0012
  467MOL0     O61513   0.101   2.650  10.889 -0.3172 -0.4538 -0.1378
  467MOL0     C61514   0.152   2.570  10.969 -0.1874 -0.2698 -0.5585
  467MOL0     O61515   0.093   2.509  11.070  0.9410 -0.1321  0.7930
  467MOL0     C61516  -0.048   2.510  11.074  0.0695  0.4056 -0.9789
  467MOL0     C61517  -0.100   2.529  11.200 -0.2182 -0.1664  0.0564
  467MOL0     C61518  -0.239   2.518  11.219 -0.1623  0.0934  1.1465
  467MOL0     C61519  -0.329   2.496  11.115 -0.0375 -0.1347  0.5746
  467MOL0     O61520  -0.466   2.482  11.137 -0.1865  0.4186 -0.2169
  467MOL0     C61521  -0.512   2.349  11.166 -0.0339 -0.0046 -0.9406
  467MOL0     C61522  -0.666   2.347  11.181  0.1798  1.0715  1.0525
  467MOL0     C61523  -0.731   2.347  11.034 -0.7278 -0.3130  0.0190
  467MOL0     C61524  -0.886   2.326  11.029  0.2669 -0.9168  1.5311
  467MOL0     C61525  -0.944   2.207  11.099 -0.1601  0.0546 -0.4493
  467MOL0     C61526  -1.094   2.199  11.081  1.1668  0.0442 -0.3292
  467MOL0     C61527  -1.174   2.274  11.182 -0.2510  0.4396 -0.0689
  467MOL0     C61528  -1.302   2.343  11.141 -0.4017 -0.1915 -0.1539
  467MOL0     N61529  -1.393   2.262  11.058  0.0913 -0.4043  0.7653
  467MOL0     C61530  -1.426   2.135  11.092 -0.1107 -0.6137 -0.3144
  467MOL0     C61531  -1.518   2.089  11.014  0.6964 -0.4543  0.0502
  467MOL0     C61532  -1.561   1.941  11.010 -1.1273  0.3131  0.2569
  467MOL0     C61533  -1.454   1.857  10.944 -0.3060  0.0424 -1.3748
  467MOL0     C61534  -1.483   1.855  10.795  0.0359 -1.2934  0.4045
  467MOL0     C61535  -1.396   1.762  10.706 -0.4786  1.0963 -0.8890
  467MOL0     O61536  -1.439   1.771  10.576  0.8741  0.2858  0.3299
  467MOL0     C61537  -1.541   1.685  10.548 -0.4074  0.7899 -0.6196
  467MOL0     C61538  -1.677   1.703  10.527 -0.1360 -0.3685 -0.4357
  467MOL0     C61539  -1.761   1.602  10.472 -0.1889 -0.7048  0.3832
  467MOL0     C61540  -1.702   1.482  10.429  0.6399 -0.1264 -0.8196
  467MOL0     C61541  -1.795   1.371  10.383  0.2148  0.2624 -0.7012
  467MOL0     O61542  -1.936   1.383  10.405 -0.3800 -0.6072 -0.2644
  467MOL0     C61543  -2.027   1.293  10.358 -0.3553  0.4931  0.6379
  467MOL0     C61544  -2.137   1.245  10.419 -0.6112 -0.4294  0.3103
  467MOL0     C61545  -2.237   1.170  10.358  0.2402 -0.6943  0.4783
  467MOL0     C61546  -2.237   1.149  10.223 -0.5713  0.1255  0.4500
  467MOL0     O61547  -2.338   1.091  10.162 -0.8899 -0.4566 -0.8363
  467MOL0     C61548  -2.460   1.179  10.150  0.5243  0.5865  0.4987
  467MOL0     C61549  -2.538   1.102  10.042  0.0135  0.4261 -0.7567
  467MOL0     C61550  -2.686   1.160  10.031 -0.4406  0.1899 -0.6359
  467MOL0     C61551  -2.755   1.070   9.924 -0.0155 -0.4405 -0.2156
  467MOL0     C61552  -2.884   1.116   9.871 -0.0685  0.1791  0.6650
  467MOL0     C61553  -2.995   1.111   9.977 -1.6667 -1.0904  0.2597
  467MOL0     C61554  -3.114   1.187   9.914 -0.3229 -0.6531  0.0718
  467MOL0     C61555  -3.206   1.109   9.830  1.1211  0.1546 -0.0420
  467MOL0    Cl61556  -3.161   1.064   9.662  0.3967  0.3530 -0.2475
  467MOL0     C61557  -2.127   1.199  10.150 -0.5191 -0.5734  0.3017
  467MOL0     C61558  -2.025   1.267  10.219 -0.2322 -0.3662 -0.2703
  467MOL0     O61559  -1.749   1.272  10.339  0.4777  0.0473  0.4838
  467MOL0     C61560  -1.570   1.464  10.446 -0.1032 -0.9494  0.6275
  467MOL0     C61561  -1.489   1.559  10.508 -0.0424 -0.7206 -0.1649
  467MOL0     N61562  -1.545   2.193  10.920 -0.6317 -0.0713 -0.0859
  467MOL0     N61563  -1.465   2.290  10.944 -0.6457  0.0890  0.6034
  467MOL0     C61564  -0.277   2.469  10.988 -1.1286  0.1837 -0.0107
  467MOL0     C61565  -0.133   2.478  10.966  0.8017  0.2154  0.0888
  467MOL0     C61566   0.299   2.548  10.958  1.2881  0.4262  0.1692
  467MOL0     C61567   0.370   2.466  11.061  0.3878 -0.3185  0.6913
  467MOL0     C61568   0.497   2.425  11.047  0.0617  0.0949 -0.6309
  467MOL0     C61569   0.568   2.455  10.935  0.7227  0.3825  0.4328
  467MOL0     O61570   0.696   2.422  10.901 -0.3599 -0.4241 -0.0209
  467MOL0     C61571   0.728   2.297  10.954 -1.8160  0.0188  0.2846
  467MOL0     C61572   0.871   2.270  10.891  0.5152 -0.1594 -0.6155
  467MOL0     C61573   0.945   2.152  10.951  0.5053 -0.0419  0.5015
  467MOL0     C61574   1.085   2.128  10.900 -0.2280 -0.3754  0.2087
  467MOL0     C61575   1.173   2.113  11.016  0.0192 -0.6181  0.4868
  467MOL0     C61576   1.239   2.105  11.116 -0.0761  0.8079  0.3007
  467MOL0     C61577   0.507   2.540  10.836 -0.1989  0.2218 -0.3889
  467MOL0     C61578   0.368   2.585  10.847  0.0495 -0.3401  0.0512
  467MOL0     H61579  -0.028   2.567  11.272 -0.9640  0.5768  0.4196
  467MOL0     H61580  -0.291   2.537  11.312 -0.4411  0.5930  0.8934
  467MOL0     H61581  -0.468   2.320  11.261  0.0370  1.5101 -0.4733
  467MOL0     H61582  -0.500   2.270  11.091 -2.7545 -1.5849  0.1585
  467MOL0     H61583  -0.693   2.423  11.255 -0.4957  0.1530  1.7714
  467MOL0     H61584  -0.706   2.259  11.232 -4.1339  2.2348  0.1676
  467MOL0     H61585  -0.676   2.276  10.971  1.3826  1.2507 -0.0003
  467MOL0     H61586  -0.721   2.449  10.997 -2.6181 -0.0172  0.2490
  467MOL0     H61587  -0.935   2.418  11.063  1.2121 -0.5930  2.0457
  467MOL0     H61588  -0.913   2.326  10.923 -3.4140 -0.5977  2.3371
  467MOL0     H61589  -0.922   2.212  11.205  2.9820 -0.0432 -1.0118
  467MOL0     H61590  -0.900   2.111  11.072 -0.8550 -0.7570  1.1780
  467MOL0     H61591  -1.112   2.093  11.097 -0.5938 -0.1855 -3.1262
  467MOL0     H61592  -1.129   2.217  10.979  0.5887 -1.0483 -0.3355
  467MOL0     H61593  -1.186   2.209  11.269 -1.9834  0.0157 -0.5763
  467MOL0     H61594  -1.115   2.358  11.217  1.1546 -1.0230  1.1884
  467MOL0     H61595  -1.275   2.433  11.085 -0.4036  1.0745  1.7815
  467MOL0     H61596  -1.350   2.385  11.230  0.2579  3.6739 -1.4171
  467MOL0     H61597  -1.373   2.081  11.169 -0.3139  0.6848  0.7674
  467MOL0     H61598  -1.665   1.931  10.977 -1.7853  1.5409  1.7741
  467MOL0     H61599  -1.558   1.902  11.112 -0.8078  1.6662  0.7948
  467MOL0     H61600  -1.453   1.755  10.985 -3.7265  0.4995  0.2315
  467MOL0     H61601  -1.356   1.903  10.960 -0.4037 -0.6251  1.7886
  467MOL0     H61602  -1.589   1.827  10.785 -0.4842 -0.0579  2.0986
  467MOL0     H61603  -1.468   1.957  10.760 -1.2174 -0.8728  1.0256
  467MOL0     H61604  -1.400   1.657  10.739  3.8470  1.4260  1.5268
  467MOL0     H61605  -1.291   1.793  10.715  0.7515 -2.4679 -1.1481
  467MOL0     H61606  -1.722   1.793  10.568 -0.5883 -1.7417  2.3230
  467MOL0     H61607  -1.869   1.606  10.479 -0.4072 -4.2150  1.2563
  467MOL0     H61608  -2.144   1.259  10.526 -1.8656  2.0688 -0.0285
  467MOL0     H61609  -2.298   1.123  10.434 -0.7168 -0.2500 -0.0049
  467MOL0     H61610  -2.442   1.275  10.102 -1.9555  0.3195 -1.1579
  467MOL0     H61611  -2.505   1.171  10.249  2.2819 -0.4938  1.2623
  467MOL0     H61612  -2.535   1.000  10.081  2.3868  0.6225 -0.2439
  467MOL0     H61613  -2.487   1.092   9.946 -0.6699 -0.4910 -1.0331
  467MOL0     H61614  -2.692   1.267  10.007 -2.6952  0.8134  2.1978
  467MOL0     H61615  -2.743   1.155  10.123 -2.6410  1.3081 -1.8559
  467MOL0     H61616  -2.685   1.064   9.840  0.0537 -5.5240 -0.1079
  467MOL0     H61617  -2.770   0.970   9.965  1.2980 -0.2830  0.7086
  467MOL0     H61618  -2.908   1.052   9.785 -0.5836  1.2482 -0.0019
  467MOL0     H61619  -2.886   1.213   9.822 -2.2137  0.0131  0.2862
  467MOL0     H61620  -2.954   1.169  10.060 -1.2115  0.7104 -1.1339
  467MOL0     H61621  -3.031   1.012  10.005 -2.9764 -0.6753  0.1476
  467MOL0     H61622  -3.170   1.229   9.998 -2.4755  0.6499 -1.9149
  467MOL0     H61623  -3.078   1.265   9.846  2.4616 -1.4875  0.4511
  467MOL0     H61624  -3.305   1.157   9.828  0.9907  0.0354  1.7555
  467MOL0     H61625  -3.222   1.013   9.881 -2.4920 -0.5481 -2.0784
  467MOL0     H61626  -2.116   1.179  10.044  0.9313 -1.4174  0.5810
  467MOL0     H61627  -1.942   1.304  10.160  1.6529 -1.1052  1.7953
  467MOL0     H61628  -1.526   1.373  10.406 -0.5537 -0.6384 -0.6180
  467MOL0     H61629  -1.385   1.531  10.522 -0.0850  0.0184  2.0326
  467MOL0     H61630  -0.326   2.454  10.893  0.4399 -0.3322 -0.7726
  467MOL0     H61631  -0.088   2.458  10.869 -3.1213  0.4810 -1.9990
  467MOL0     H61632   0.320   2.430  11.151 -0.6695 -3.2193 -0.9180
  467MOL0     H61633   0.526   2.347  11.117 -0.0042  0.0355 -0.6699
  467MOL0     H61634   0.656   2.223  10.916  1.4597 -1.8971 -2.9132
  467MOL0     H61635   0.741   2.309  11.062  0.3487 -0.0442  0.0694
  467MOL0     H61636   0.858   2.248  10.785  2.3106 -0.6748 -0.7633
  467MOL0     H61637   0.930   2.361  10.901  2.0542 -1.2843  1.4965
  467MOL0     H61638   0.887   2.062  10.927 -1.1574  0.8982  0.8723
  467MOL0     H61639   0.945   2.152  11.061  0.8790  1.5523  0.5219
  467MOL0     H61640   1.088   2.038  10.838 -1.7019 -1.2327  1.3233
  467MOL0     H61641   1.121   2.201  10.827 -1.8085 -0.9298 -1.1952
  467MOL0     H61642   1.300   2.089  11.203  0.6738 -1.5130 -0.5655
  467MOL0     H61643   0.560   2.572  10.747 -1.6493  0.9468 -1.0312
  467MOL0     H61644   0.320   2.643  10.768 -1.4993 -0.5437  0.8125
  468MOL0     O61645   0.119   8.390   6.538  0.5774  1.3614 -0.4766
  468MOL0     C61646   0.169   8.502   6.556 -0.1387  0.1929 -0.2067
  468MOL0     O61647   0.180   8.563   6.672  0.8340 -0.4026 -0.2340
  468MOL0     C61648   0.146   8.495   6.782  0.3637  0.2851 -0.5184
  468MOL0     C61649   0.035   8.525   6.856  0.1223  1.0374 -0.0016
  468MOL0     C61650   0.018   8.468   6.985 -0.3499  0.2721 -0.2017
  468MOL0     C61651   0.104   8.371   7.027 -1.2929  0.6241 -0.8137
  468MOL0     O61652   0.059   8.302   7.139  0.1313  0.7203 -0.4472
  468MOL0     C61653   0.138   8.185   7.173  0.9573 -0.8723 -0.3832
  468MOL0     C61654   0.240   8.209   7.277  0.5675 -1.1152  0.4452
  468MOL0     C61655   0.347   8.104   7.278  0.1572  1.0263 -0.1181
  468MOL0     C61656   0.300   7.974   7.346  0.3315 -0.4235  0.1442
  468MOL0     C61657   0.398   7.852   7.326  0.5606  0.7781  0.2274
  468MOL0     C61658   0.308   7.732   7.373 -0.4510  0.7450 -0.8803
  468MOL0     C61659   0.396   7.604   7.388  0.4849  1.0097 -0.1502
  468MOL0     C61660   0.446   7.554   7.242  1.0498  0.3183  0.8558
  468MOL0     N61661   0.332   7.553   7.137  0.5378 -0.6757  0.3579
  468MOL0     C61662   0.321   7.628   7.023 -0.7557 -0.1190 -0.8726
  468MOL0     C61663   0.202   7.594   6.962 -0.1538 -0.4375  0.0372
  468MOL0     C61664   0.145   7.653   6.834  0.2667 -0.1834  0.0126
  468MOL0     C61665   0.020   7.729   6.873 -0.3134  1.2741 -0.0164
  468MOL0     C61666   0.050   7.844   6.974  0.2428  0.1712 -0.1388
  468MOL0     C61667  -0.068   7.932   6.990  0.1211 -0.1026 -0.0821
  468MOL0     O61668  -0.091   7.984   6.862 -0.1478  0.2112 -0.2183
  468MOL0     C61669  -0.150   8.104   6.830  0.0070 -0.0759 -0.9880
  468MOL0     C61670  -0.219   8.173   6.927 -0.1142  0.3876  0.0936
  468MOL0     C61671  -0.276   8.297   6.893  0.9390 -0.6837 -1.2260
  468MOL0     C61672  -0.252   8.356   6.766 -0.3011  0.0782  0.6540
  468MOL0     C61673  -0.297   8.497   6.736 -0.2799 -0.0813 -0.5760
  468MOL0     O61674  -0.235   8.553   6.619 -0.2527 -0.2885 -0.4619
  468MOL0     C61675  -0.227   8.684   6.583 -0.0012 -0.4792 -0.8229
  468MOL0     C61676  -0.161   8.713   6.464  0.0773 -1.2345 -0.3799
  468MOL0     C61677  -0.132   8.842   6.423  0.1822 -0.1146  0.0948
  468MOL0     C61678  -0.181   8.945   6.508 -0.1300 -0.5365 -0.8325
  468MOL0     O61679  -0.151   9.076   6.476 -0.2578  0.0155 -1.3543
  468MOL0     C61680  -0.186   9.116   6.342  0.5768  0.0815 -0.1178
  468MOL0     C61681  -0.274   9.239   6.352  0.2496 -0.5154 -0.3019
  468MOL0     C61682  -0.403   9.219   6.442 -0.8792 -0.1709  0.7193
  468MOL0     C61683  -0.505   9.336   6.441  0.5465  0.9071 -0.3791
  468MOL0     C61684  -0.627   9.285   6.519 -0.2055  0.2275  0.1554
  468MOL0     C61685  -0.744   9.374   6.528  0.4429  0.7183 -0.4971
  468MOL0     C61686  -0.842   9.359   6.411 -0.2125 -0.2832 -0.1108
  468MOL0     C61687  -0.970   9.449   6.432  0.1643  0.1976  0.6207
  468MOL0    Cl61688  -0.937   9.627   6.445 -0.2406 -0.4517 -0.0023
  468MOL0     C61689  -0.251   8.921   6.636  0.4220 -1.3946 -0.3053
  468MOL0     C61690  -0.264   8.791   6.672  0.1364 -0.3934 -0.8697
  468MOL0     O61691  -0.356   8.556   6.826 -0.7637 -0.7074  0.0217
  468MOL0     C61692  -0.171   8.290   6.682 -0.4020  0.4631  0.4384
  468MOL0     C61693  -0.120   8.162   6.706  0.1808 -0.6712 -0.0998
  468MOL0     N61694   0.133   7.511   7.045 -0.6731  0.5481  0.3805
  468MOL0     N61695   0.207   7.496   7.148 -0.6778 -0.0962 -0.2536
  468MOL0     C61696   0.221   8.340   6.956  0.0412 -0.1031 -0.9017
  468MOL0     C61697   0.243   8.407   6.832 -0.5319  1.0057 -0.6711
  468MOL0     C61698   0.206   8.584   6.439 -0.2270 -1.0933  0.1228
  468MOL0     C61699   0.222   8.731   6.435  0.2282  0.0088  0.1576
  468MOL0     C61700   0.262   8.798   6.321 -0.6755  0.0602 -0.1844
  468MOL0     C61701   0.271   8.734   6.192  0.4181  0.6147  0.2410
  468MOL0     O61702   0.330   8.787   6.077  0.1073  0.0843 -0.6492
  468MOL0     C61703   0.400   8.912   6.081 -0.3452 -0.7894  0.6116
  468MOL0     C61704   0.470   8.925   5.947  0.0915  0.1693  0.5495
  468MOL0     C61705   0.548   9.054   5.946 -0.2727  0.1358  0.7064
  468MOL0     C61706   0.563   9.092   5.792  0.3318  0.4733  0.0347
  468MOL0     C61707   0.599   9.242   5.791 -0.3811  0.6161  0.5731
  468MOL0     C61708   0.598   9.353   5.795  0.2928 -1.0394 -0.1869
  468MOL0     C61709   0.254   8.594   6.196  0.4991  0.1199  0.3077
  468MOL0     C61710   0.235   8.527   6.317 -0.1609 -0.1906 -0.5471
  468MOL0     H61711  -0.044   8.585   6.813 -0.8378  0.3154  0.6999
  468MOL0     H61712  -0.056   8.502   7.056 -0.0668 -2.5702  1.5827
  468MOL0     H61713   0.175   8.127   7.088  2.6960 -1.8026  0.9380
  468MOL0     H61714   0.063   8.126   7.226  0.0961  1.0332  0.6485
  468MOL0     H61715   0.191   8.221   7.374 -3.3015 -2.3997 -1.1582
  468MOL0     H61716   0.295   8.301   7.256  1.0982 -1.2179  1.3427
  468MOL0     H61717   0.444   8.132   7.321  1.0451 -0.5065 -0.9995
  468MOL0     H61718   0.373   8.070   7.177  0.9166  0.3034  0.3036
  468MOL0     H61719   0.269   7.987   7.450 -2.0501 -1.5804 -0.3482
  468MOL0     H61720   0.203   7.947   7.303  0.0876 -1.4459  1.2729
  468MOL0     H61721   0.479   7.852   7.399  0.1277 -2.7811  0.8842
  468MOL0     H61722   0.437   7.847   7.224 -0.2792 -1.8507 -0.0335
  468MOL0     H61723   0.220   7.718   7.310 -1.2622 -1.0457  0.5548
  468MOL0     H61724   0.276   7.743   7.477  0.7962 -0.0362 -0.4017
  468MOL0     H61725   0.485   7.616   7.451  0.5211 -5.0506  1.5589
  468MOL0     H61726   0.339   7.520   7.429  3.1067 -1.5328 -1.4256
  468MOL0     H61727   0.496   7.457   7.251  1.1060  0.4194  1.7141
  468MOL0     H61728   0.524   7.624   7.211  1.6743 -0.4896  0.5912
  468MOL0     H61729   0.390   7.705   6.990 -1.6530  1.4641  0.6886
  468MOL0     H61730   0.091   7.580   6.772 -3.6132 -0.0032  2.8093
  468MOL0     H61731   0.215   7.717   6.780 -0.2665  0.2903 -0.1284
  468MOL0     H61732  -0.055   7.667   6.923  1.6124 -0.1219  1.2969
  468MOL0     H61733  -0.029   7.761   6.781 -1.5882  0.1955  0.2688
  468MOL0     H61734   0.074   7.803   7.073  1.8780  0.2289 -0.4919
  468MOL0     H61735   0.139   7.897   6.940  1.0573 -1.4860 -0.7208
  468MOL0     H61736  -0.038   8.009   7.062  0.3959 -1.7538  1.6705
  468MOL0     H61737  -0.161   7.885   7.023 -1.7829  4.8693  2.7251
  468MOL0     H61738  -0.242   8.129   7.023  0.6303 -2.1688 -0.8304
  468MOL0     H61739  -0.323   8.357   6.970  0.6390 -0.8602 -1.2719
  468MOL0     H61740  -0.135   8.631   6.398  1.0779 -1.0737 -0.2031
  468MOL0     H61741  -0.082   8.859   6.328 -2.9023  1.1692 -1.4477
  468MOL0     H61742  -0.234   9.035   6.285  1.0465 -1.7016  1.9093
  468MOL0     H61743  -0.095   9.141   6.287  0.8027  5.1460  2.0292
  468MOL0     H61744  -0.315   9.269   6.255 -1.6763 -1.5056  0.1555
  468MOL0     H61745  -0.214   9.318   6.399 -1.9073  0.1844  1.4623
  468MOL0     H61746  -0.383   9.212   6.550 -4.6086 -1.9922  1.4184
  468MOL0     H61747  -0.444   9.122   6.415  3.6203 -2.0009 -0.6003
  468MOL0     H61748  -0.465   9.424   6.492 -0.3743  1.3607 -0.4051
  468MOL0     H61749  -0.549   9.367   6.345 -4.0624 -0.0030  1.1693
  468MOL0     H61750  -0.596   9.267   6.622 -0.4091  0.3483  0.2396
  468MOL0     H61751  -0.657   9.187   6.483  0.6775 -0.5869  1.5618
  468MOL0     H61752  -0.712   9.477   6.548  2.6846  0.4166 -2.1477
  468MOL0     H61753  -0.787   9.362   6.628  1.1826  1.2021 -0.1048
  468MOL0     H61754  -0.793   9.378   6.315  2.2561 -1.1860  0.8865
  468MOL0     H61755  -0.869   9.253   6.411  1.8855 -0.9026  1.5858
  468MOL0     H61756  -1.025   9.411   6.519 -0.8496 -0.9274 -0.4595
  468MOL0     H61757  -1.041   9.428   6.350  2.3337 -2.8405 -0.6954
  468MOL0     H61758  -0.280   9.000   6.704  0.7288 -1.7332  0.2254
  468MOL0     H61759  -0.316   8.770   6.765  1.6033  1.5569  0.4535
  468MOL0     H61760  -0.131   8.335   6.591  0.9378 -1.3598  0.0668
  468MOL0     H61761  -0.064   8.113   6.627  1.6644  1.1911 -0.2729
  468MOL0     H61762   0.290   8.260   6.983 -0.8296 -0.7742 -0.6222
  468MOL0     H61763   0.326   8.375   6.769  0.4496  0.6087  0.7694
  468MOL0     H61764   0.201   8.793   6.521 -0.4984  0.6732 -0.4870
  468MOL0     H61765   0.296   8.901   6.322 -1.3438  0.2840 -0.0082
  468MOL0     H61766   0.471   8.901   6.164  0.3449  0.5367  0.2155
  468MOL0     H61767   0.337   8.996   6.110 -0.5872  0.2173 -2.5342
  468MOL0     H61768   0.534   8.837   5.935  0.9507  0.2553  3.7683
  468MOL0     H61769   0.386   8.926   5.877 -0.4567  1.4257  1.1947
  468MOL0     H61770   0.643   9.053   5.999 -0.6739  5.6078  2.1052
  468MOL0     H61771   0.475   9.126   5.984 -2.9442 -0.5610 -2.5393
  468MOL0     H61772   0.642   9.031   5.748  0.0765 -1.3483  1.9627
  468MOL0     H61773   0.468   9.088   5.738 -0.2199 -1.4314  1.0674
  468MOL0     H61774   0.606   9.459   5.779  2.8485 -0.8922  1.5384
  468MOL0     H61775   0.272   8.543   6.103 -0.2731 -3.0163  1.7601
  468MOL0     H61776   0.227   8.419   6.311  0.3482 -0.5328  2.7973
  469MOL0     O61777   0.740   9.632   7.250  0.5169 -0.2449 -0.3392
  469MOL0     C61778   0.792   9.525   7.284  0.1038  0.5258  0.5545
  469MOL0     O61779   0.792   9.465   7.408 -0.8474 -0.1912  0.3773
  469MOL0     C61780   0.742   9.519   7.531 -0.6546 -0.8483  0.2825
  469MOL0     C61781   0.804   9.466   7.645  0.7203  0.4267 -0.3700
  469MOL0     C61782   0.755   9.507   7.769 -0.1025  0.3418  0.2031
  469MOL0     C61783   0.659   9.612   7.785 -0.9672 -0.0400 -0.5935
  469MOL0     O61784   0.618   9.654   7.912 -0.0004  0.0572 -0.4446
  469MOL0     C61785   0.686   9.611   8.029 -0.6857  0.3844 -0.1718
  469MOL0     C61786   0.810   9.691   8.044  0.1319 -0.1704  0.2883
  469MOL0     C61787   0.858   9.676   8.191  0.6698  0.4941  1.5333
  469MOL0     C61788   0.977   9.777   8.208 -1.0945 -0.4824 -0.0045
  469MOL0     C61789   1.042   9.766   8.346  0.8637 -0.3566  0.8146
  469MOL0     C61790   1.177   9.826   8.343 -0.3860  0.1665 -0.6023
  469MOL0     C61791   1.255   9.789   8.471 -0.2522 -0.0265 -0.6028
  469MOL0     C61792   1.386   9.846   8.467  0.1384  0.5370 -0.3669
  469MOL0     N61793   1.455   9.832   8.597 -1.0691  1.3900 -0.5714
  469MOL0     C61794   1.411   9.880   8.719  0.0722 -0.5748 -0.4332
  469MOL0     C61795   1.508   9.841   8.804  0.3405  0.3535 -0.2000
  469MOL0     C61796   1.517   9.859   8.954 -0.0886  1.0253 -0.4081
  469MOL0     C61797   1.568   9.990   8.993 -0.1863 -0.1812  0.2226
  469MOL0     C61798   1.617  10.008   9.137  0.3791  0.9756  0.1266
  469MOL0     C61799   1.752   9.957   9.163 -0.0389 -0.4554  0.7638
  469MOL0     O61800   1.855  10.023   9.093  0.5027 -0.3848 -0.4837
  469MOL0     C61801   1.893  10.145   9.144 -0.1728  0.2228  0.1894
  469MOL0     C61802   1.867  10.199   9.273  0.7131 -0.1919 -0.1186
  469MOL0     C61803   1.924  10.324   9.304  0.2728 -0.2838 -0.6242
  469MOL0     C61804   2.028  10.385   9.219 -0.2295 -0.0215 -0.8738
  469MOL0     C61805   2.085  10.522   9.250  0.7023 -0.4895  0.1002
  469MOL0     O61806   2.186  10.573   9.167  0.0196  0.4992 -0.0697
  469MOL0     C61807   2.262  10.682   9.216  0.4754  0.3832  0.9233
  469MOL0     C61808   2.336  10.667   9.333 -1.2458  0.1373  1.2326
  469MOL0     C61809   2.416  10.770   9.371  1.0896  0.1742  0.3811
  469MOL0     C61810   2.426  10.888   9.297  0.2238 -0.9367  0.0202
  469MOL0     O61811   2.500  10.998   9.336  0.3761  0.5024 -0.3911
  469MOL0     C61812   2.633  10.985   9.293  0.7710 -0.0086  0.5748
  469MOL0     C61813   2.698  11.112   9.329 -0.5325 -0.1134  0.4985
  469MOL0     C61814   2.698  11.242   9.232 -1.0478  0.5439  0.7289
  469MOL0     C61815   2.743  11.227   9.076 -0.2436  0.8811  0.7079
  469MOL0     C61816   2.880  11.170   9.063 -0.0776 -0.2082  0.3418
  469MOL0     C61817   2.914  11.121   8.921 -0.3728  0.5622 -0.1884
  469MOL0     C61818   3.042  11.022   8.914 -0.3929 -0.5340  0.5529
  469MOL0     C61819   3.066  10.966   8.767 -0.1568  0.7661 -0.0182
  469MOL0    Cl61820   3.118  11.098   8.652 -0.3530 -0.1049  0.1800
  469MOL0     C61821   2.358  10.894   9.177 -0.1396  0.2548  0.0947
  469MOL0     C61822   2.278  10.796   9.132 -0.6352  0.2825  0.0124
  469MOL0     O61823   2.038  10.578   9.348 -0.0036 -0.5395 -0.0706
  469MOL0     C61824   2.058  10.314   9.100  0.1900  0.5237  0.2107
  469MOL0     C61825   1.998  10.196   9.065  0.1245 -0.3611 -0.5824
  469MOL0     N61826   1.595   9.766   8.730 -0.1678  0.3325 -0.1322
  469MOL0     N61827   1.564   9.763   8.602  1.1507 -0.4138 -0.5310
  469MOL0     C61828   0.606   9.668   7.669 -0.5395  0.1387  0.2479
  469MOL0     C61829   0.654   9.626   7.545  0.1647 -0.9801  0.9779
  469MOL0     C61830   0.860   9.457   7.172  0.4807  0.0139 -0.2342
  469MOL0     C61831   0.938   9.348   7.199  0.0864 -0.4759 -0.2024
  469MOL0     C61832   0.993   9.288   7.082 -0.1901  0.0358  0.3929
  469MOL0     C61833   0.983   9.342   6.957  0.3477  0.0936 -0.0906
  469MOL0     O61834   1.038   9.283   6.842 -0.4720 -0.8014 -0.4441
  469MOL0     C61835   1.153   9.192   6.850  0.3891 -0.6871  0.8016
  469MOL0     C61836   1.165   9.145   6.711 -0.2725 -0.4289  0.0501
  469MOL0     C61837   1.036   9.070   6.655  0.9230  0.5969 -0.3516
  469MOL0     C61838   1.056   8.981   6.529 -0.4187  0.2234  0.0636
  469MOL0     C61839   1.107   9.071   6.423 -0.0413  0.0517  0.2185
  469MOL0     C61840   1.163   9.142   6.340 -0.0292  0.2530 -1.4318
  469MOL0     C61841   0.904   9.450   6.932  0.2281 -1.4793 -0.2338
  469MOL0     C61842   0.848   9.515   7.043 -0.0896  0.4519  0.7363
  469MOL0     H61843   0.877   9.387   7.630 -0.9684 -1.2908  0.1324
  469MOL0     H61844   0.806   9.465   7.855  1.9847  2.5289  0.1561
  469MOL0     H61845   0.722   9.508   8.018  2.6695  1.4275 -0.0378
  469MOL0     H61846   0.628   9.630   8.119  2.4912  4.1094  1.3508
  469MOL0     H61847   0.794   9.797   8.023  5.5565  0.8239 -0.3035
  469MOL0     H61848   0.882   9.664   7.967 -2.5490  4.0009 -4.2516
  469MOL0     H61849   0.885   9.571   8.203 -1.6180 -0.3450 -0.0641
  469MOL0     H61850   0.776   9.709   8.256 -1.0106  1.7456 -1.0405
  469MOL0     H61851   1.052   9.752   8.133 -2.5854 -1.0703 -1.3530
  469MOL0     H61852   0.943   9.879   8.186  0.7900 -0.0590 -1.1862
  469MOL0     H61853   1.046   9.659   8.368  1.4069 -1.2920 -3.0815
  469MOL0     H61854   0.976   9.808   8.422 -1.8399 -0.8762 -1.1167
  469MOL0     H61855   1.170   9.933   8.322  0.3904 -0.2050 -3.0088
  469MOL0     H61856   1.232   9.781   8.260  0.8080  1.3454 -0.4710
  469MOL0     H61857   1.200   9.819   8.561 -0.8203  1.8621 -1.5301
  469MOL0     H61858   1.260   9.680   8.471  2.9718 -0.0177  0.9918
  469MOL0     H61859   1.390   9.950   8.432  2.8486  0.7273  0.2989
  469MOL0     H61860   1.445   9.796   8.390 -1.3294 -1.6616 -0.1561
  469MOL0     H61861   1.323   9.940   8.741 -0.3930 -0.7813 -1.6417
  469MOL0     H61862   1.585   9.782   8.991  0.0616  0.9811 -0.7763
  469MOL0     H61863   1.422   9.852   9.007  0.1007  2.2242  0.1227
  469MOL0     H61864   1.485  10.060   8.977  0.6993  0.8026 -0.1548
  469MOL0     H61865   1.651  10.011   8.925 -0.5037 -1.2158 -0.5057
  469MOL0     H61866   1.615  10.116   9.156 -0.3923  0.7712  1.3366
  469MOL0     H61867   1.544   9.972   9.210 -0.8877  1.1442 -1.0031
  469MOL0     H61868   1.755   9.850   9.139  0.2607  0.2127 -2.8262
  469MOL0     H61869   1.773   9.978   9.268  1.1330  0.7386  0.3156
  469MOL0     H61870   1.798  10.173   9.353 -0.3369  0.0589 -0.9265
  469MOL0     H61871   1.889  10.372   9.395  1.2723 -2.1680  0.8215
  469MOL0     H61872   2.326  10.574   9.389  2.2503 -1.2314 -0.1521
  469MOL0     H61873   2.455  10.773   9.473  1.5140  0.4777  0.2123
  469MOL0     H61874   2.632  10.966   9.185 -0.6184 -1.4220  0.8114
  469MOL0     H61875   2.685  10.900   9.339 -0.5608 -0.1493  1.8890
  469MOL0     H61876   2.802  11.084   9.348 -0.3720 -0.4754 -0.8193
  469MOL0     H61877   2.660  11.153   9.423  0.5179 -0.3270  1.0413
  469MOL0     H61878   2.764  11.323   9.263 -0.7130  0.5917 -0.0716
  469MOL0     H61879   2.596  11.278   9.217 -1.8651 -1.7020  0.4301
  469MOL0     H61880   2.668  11.159   9.035  0.9447  2.0735 -3.9926
  469MOL0     H61881   2.738  11.322   9.022  1.5162  0.0009 -1.1216
  469MOL0     H61882   2.899  11.091   9.136  3.1214 -0.2164 -0.3219
  469MOL0     H61883   2.955  11.240   9.101  1.6044 -1.9750  0.4887
  469MOL0     H61884   2.934  11.207   8.856  2.5347 -0.3144 -0.6162
  469MOL0     H61885   2.820  11.071   8.896 -0.5310  1.0844 -0.6550
  469MOL0     H61886   3.122  11.079   8.963 -0.3730  0.3311 -0.4453
  469MOL0     H61887   3.011  10.936   8.974 -2.3729  0.0528  0.4302
  469MOL0     H61888   2.973  10.917   8.737  1.4592 -1.7654 -1.2668
  469MOL0     H61889   3.143  10.889   8.764 -1.1336 -0.3219  1.6122
  469MOL0     H61890   2.354  10.977   9.108 -0.4040 -0.8069 -1.2177
  469MOL0     H61891   2.219  10.795   9.041 -0.0982 -0.5795 -0.3328
  469MOL0     H61892   2.123  10.354   9.023 -1.5454 -1.3022 -2.3844
  469MOL0     H61893   2.012  10.140   8.973 -3.7045 -1.5871 -0.6068
  469MOL0     H61894   0.530   9.743   7.687 -1.0003 -0.0841 -0.7221
  469MOL0     H61895   0.611   9.664   7.453  1.1745  2.7947  1.8894
  469MOL0     H61896   0.948   9.301   7.296 -2.8281 -1.7059 -0.4069
  469MOL0     H61897   1.057   9.202   7.096  0.7652  0.9016  1.5405
  469MOL0     H61898   1.141   9.112   6.923  0.9916 -1.6571 -0.1376
  469MOL0     H61899   1.245   9.245   6.876 -1.3828  1.0990  4.1352
  469MOL0     H61900   1.172   9.232   6.645  0.0922  1.1123  2.0447
  469MOL0     H61901   1.252   9.079   6.703  0.8111  0.5230  2.8560
  469MOL0     H61902   0.954   9.140   6.637 -4.2126 -2.0302  7.6787
  469MOL0     H61903   0.993   9.005   6.732  1.7234  2.1785  1.5222
  469MOL0     H61904   1.133   8.906   6.549  1.3539  1.7899 -0.5410
  469MOL0     H61905   0.960   8.934   6.507 -0.1783 -1.2004  1.8329
  469MOL0     H61906   1.219   9.217   6.288  2.6872  1.0545  2.2104
  469MOL0     H61907   0.886   9.491   6.833 -1.2496  1.3070  1.0633
  469MOL0     H61908   0.793   9.605   7.020 -1.3194 -0.3479  0.4223
  470MOL0     O61909   1.149   6.583   5.293 -0.1453  0.0202  0.1767
  470MOL0     C61910   1.239   6.499   5.303  0.3607  0.8830  0.4881
  470MOL0     O61911   1.283   6.406   5.213  0.4055  0.2659 -0.3364
  470MOL0     C61912   1.227   6.409   5.093 -1.4865 -0.3314  0.6138
  470MOL0     C61913   1.308   6.382   4.981 -0.0601  0.7076  0.5434
  470MOL0     C61914   1.253   6.383   4.850  0.7254  1.3224  0.6326
  470MOL0     C61915   1.115   6.404   4.833  0.0331 -1.3523  0.4561
  470MOL0     O61916   1.060   6.417   4.708  1.6660 -0.3672  0.5257
  470MOL0     C61917   0.916   6.431   4.702  0.0944 -0.4480 -0.3315
  470MOL0     C61918   0.856   6.419   4.560  0.8198  0.1146 -0.6789
  470MOL0     C61919   0.701   6.395   4.560  0.0061 -0.1443  1.0597
  470MOL0     C61920   0.650   6.388   4.416 -0.3637 -0.4772 -0.0993
  470MOL0     C61921   0.505   6.342   4.428  0.2937 -0.3984 -0.1799
  470MOL0     C61922   0.453   6.310   4.290  1.1366  0.8741 -0.0403
  470MOL0     C61923   0.308   6.258   4.274 -1.0537 -0.2035  0.7101
  470MOL0     C61924   0.281   6.270   4.120  0.4139 -0.0171  0.6424
  470MOL0     N61925   0.369   6.217   4.017  0.4729  0.5156 -0.1530
  470MOL0     C61926   0.449   6.108   4.019  0.8346 -0.4089  0.1653
  470MOL0     C61927   0.532   6.109   3.914  0.7247  0.0005 -0.5659
  470MOL0     C61928   0.619   5.991   3.887 -0.1929  0.7775 -0.8372
  470MOL0     C61929   0.741   6.029   3.799  0.1139 -0.1010  0.5591
  470MOL0     C61930   0.701   6.026   3.651 -0.4193  0.4723 -0.9520
  470MOL0     C61931   0.748   6.141   3.565 -0.8720 -0.4790  0.2386
  470MOL0     O61932   0.695   6.122   3.429 -0.1117 -0.3763 -0.2077
  470MOL0     C61933   0.583   6.183   3.384 -0.8121  0.7917 -0.5939
  470MOL0     C61934   0.537   6.169   3.253  0.5998  0.2287  0.1352
  470MOL0     C61935   0.413   6.220   3.212  0.0688 -1.3307 -0.4706
  470MOL0     C61936   0.324   6.284   3.301  1.5782  0.5000  0.3719
  470MOL0     C61937   0.195   6.339   3.257 -0.2408  0.3154 -0.3592
  470MOL0     O61938   0.124   6.410   3.348 -0.6242  0.4645 -0.7319
  470MOL0     C61939   0.013   6.491   3.316 -0.2422  0.0260  0.6917
  470MOL0     C61940   0.001   6.604   3.397  0.1784  0.1744  0.3538
  470MOL0     C61941  -0.088   6.703   3.374 -0.9858 -0.9916 -0.3612
  470MOL0     C61942  -0.172   6.697   3.256 -0.1609  0.1321 -0.1852
  470MOL0     O61943  -0.240   6.809   3.210  0.0932 -0.4025  0.9122
  470MOL0     C61944  -0.260   6.832   3.070  0.8223  0.5155 -0.3516
  470MOL0     C61945  -0.303   6.981   3.043 -0.3598 -0.1276 -0.5260
  470MOL0     C61946  -0.308   7.031   2.901  0.2383 -0.4155  0.1405
  470MOL0     C61947  -0.418   6.978   2.815 -0.2144  0.2046  0.0820
  470MOL0     C61948  -0.418   7.037   2.678  0.7859 -0.1994 -0.7247
  470MOL0     C61949  -0.553   7.013   2.613  0.1494  0.2555  0.1151
  470MOL0     C61950  -0.577   6.880   2.556  0.0353  0.3848  0.0376
  470MOL0     C61951  -0.707   6.875   2.478 -1.2694 -0.1599  0.2859
  470MOL0    Cl61952  -0.847   6.911   2.584  0.1192  0.4552 -0.5990
  470MOL0     C61953  -0.174   6.580   3.186 -0.4989 -0.4612 -0.2060
  470MOL0     C61954  -0.084   6.469   3.222 -1.0242 -0.1015  0.5540
  470MOL0     O61955   0.163   6.313   3.138 -0.5816  0.1380 -0.0489
  470MOL0     C61956   0.364   6.278   3.435  0.9450  0.4908  1.3888
  470MOL0     C61957   0.491   6.234   3.472  0.3442  0.1299 -0.2053
  470MOL0     N61958   0.513   6.231   3.852  0.8307  0.3567  1.0594
  470MOL0     N61959   0.410   6.292   3.914  0.1718 -0.3523 -0.0340
  470MOL0     C61960   1.045   6.439   4.951  0.9145  0.1212  0.8956
  470MOL0     C61961   1.093   6.430   5.079 -0.2052 -0.7432 -0.2265
  470MOL0     C61962   1.282   6.481   5.449  0.7699 -0.0093 -0.1331
  470MOL0     C61963   1.259   6.581   5.548  1.0548 -0.1437 -0.3869
  470MOL0     C61964   1.317   6.573   5.672  0.2358 -0.4646  0.3433
  470MOL0     C61965   1.401   6.461   5.698 -0.3776 -0.4616 -1.4841
  470MOL0     O61966   1.470   6.455   5.818 -0.3089  0.0784  0.3920
  470MOL0     C61967   1.554   6.340   5.827 -0.0265  0.8222 -0.2295
  470MOL0     C61968   1.616   6.321   5.963 -0.1750 -0.1933  0.1134
  470MOL0     C61969   1.724   6.430   5.985  0.5114  0.0399 -0.0606
  470MOL0     C61970   1.789   6.407   6.119 -0.4023 -0.4876  0.4826
  470MOL0     C61971   1.856   6.269   6.125  0.3421 -0.8994  0.6090
  470MOL0     C61972   1.914   6.168   6.138  0.2233  0.6105  0.5623
  470MOL0     C61973   1.413   6.366   5.595  0.4214 -1.0555  0.5829
  470MOL0     C61974   1.332   6.369   5.484  0.0281 -0.7988  0.1109
  470MOL0     H61975   1.415   6.371   4.992 -0.1194  0.6026  1.0572
  470MOL0     H61976   1.318   6.365   4.764 -0.1435 -1.4279  0.4591
  470MOL0     H61977   0.894   6.528   4.748 -3.1009 -0.5012 -1.5528
  470MOL0     H61978   0.869   6.358   4.768 -1.6702 -0.3144 -1.3724
  470MOL0     H61979   0.912   6.341   4.509  0.8970 -0.5648  0.4138
  470MOL0     H61980   0.870   6.521   4.522  1.8897  1.8369  3.7127
  470MOL0     H61981   0.651   6.470   4.622 -0.9304 -0.4665  0.7146
  470MOL0     H61982   0.667   6.301   4.603 -2.3034  0.1011 -0.0846
  470MOL0     H61983   0.657   6.486   4.368  0.3708  0.5274  1.9218
  470MOL0     H61984   0.703   6.311   4.361  0.1674 -2.3405  2.7963
  470MOL0     H61985   0.454   6.426   4.476  0.2157 -0.5091 -0.0705
  470MOL0     H61986   0.487   6.258   4.495  0.9769 -0.7704 -0.4571
  470MOL0     H61987   0.514   6.228   4.250 -2.7880 -1.0796 -2.6522
  470MOL0     H61988   0.479   6.394   4.225 -2.0597  2.4216  0.5053
  470MOL0     H61989   0.313   6.157   4.316  1.6669 -0.3331  0.2758
  470MOL0     H61990   0.224   6.307   4.324 -1.7289  0.7032 -1.1862
  470MOL0     H61991   0.245   6.370   4.094  0.1248  0.5285  2.9161
  470MOL0     H61992   0.185   6.223   4.098 -0.4758  2.9037 -2.6439
  470MOL0     H61993   0.443   6.024   4.087  0.1172 -1.3446 -1.0088
  470MOL0     H61994   0.558   5.906   3.855  1.1236 -1.7992  2.7675
  470MOL0     H61995   0.656   5.966   3.987 -0.8266  3.0550  0.0335
  470MOL0     H61996   0.816   5.951   3.819  1.0112  0.1318 -1.6837
  470MOL0     H61997   0.787   6.126   3.821  0.5562  0.2895 -1.8841
  470MOL0     H61998   0.740   5.933   3.610 -1.3664 -0.3178 -0.1088
  470MOL0     H61999   0.592   6.029   3.648 -0.4894 -1.1716 -0.9826
  470MOL0     H62000   0.858   6.142   3.568 -0.5121 -0.8369 -4.8095
  470MOL0     H62001   0.721   6.238   3.606  4.6488  0.4800  2.6108
  470MOL0     H62002   0.612   6.126   3.188  0.7963  0.4382  0.2193
  470MOL0     H62003   0.379   6.192   3.113 -0.1018  0.7320 -1.0600
  470MOL0     H62004   0.064   6.606   3.485  2.3468 -2.4471 -1.0100
  470MOL0     H62005  -0.081   6.793   3.434 -0.6908 -0.7606 -0.7354
  470MOL0     H62006  -0.347   6.774   3.039 -0.1375  2.2212 -1.0191
  470MOL0     H62007  -0.169   6.812   3.013  0.2474  1.6650 -1.7514
  470MOL0     H62008  -0.223   7.046   3.081  0.6666  0.3446 -3.2460
  470MOL0     H62009  -0.398   6.988   3.097 -0.4365  1.0714 -0.7841
  470MOL0     H62010  -0.214   7.001   2.856  0.3449 -0.1935  0.2130
  470MOL0     H62011  -0.318   7.140   2.899  0.2733 -0.4296 -1.1379
  470MOL0     H62012  -0.432   6.870   2.820 -0.1379  0.2381  1.3164
  470MOL0     H62013  -0.511   7.019   2.854  0.7906  1.7604  0.9643
  470MOL0     H62014  -0.350   7.000   2.600  2.7479 -0.0057  0.8160
  470MOL0     H62015  -0.383   7.140   2.683  2.4175 -0.7650  0.1775
  470MOL0     H62016  -0.561   7.087   2.533  0.8407  1.6036  1.2423
  470MOL0     H62017  -0.632   7.044   2.682  0.7094 -1.1927  1.4859
  470MOL0     H62018  -0.503   6.839   2.487  0.7839  0.9719  0.4802
  470MOL0     H62019  -0.584   6.817   2.646 -1.8299 -0.5641 -0.7125
  470MOL0     H62020  -0.720   6.779   2.428  1.3207  0.0750 -1.0457
  470MOL0     H62021  -0.704   6.946   2.394  0.3733  1.1300  1.3547
  470MOL0     H62022  -0.224   6.562   3.092  0.9968  0.9536 -1.3394
  470MOL0     H62023  -0.082   6.381   3.158  1.2474  0.3667 -0.1041
  470MOL0     H62024   0.299   6.314   3.515  3.2252  2.1833  2.5767
  470MOL0     H62025   0.509   6.225   3.578  1.8167 -0.2104 -0.4595
  470MOL0     H62026   0.941   6.470   4.955  1.1370  0.7825  2.4912
  470MOL0     H62027   1.029   6.446   5.165  1.4143  0.8338  0.7299
  470MOL0     H62028   1.196   6.664   5.518 -0.0766  0.1777  2.5975
  470MOL0     H62029   1.324   6.645   5.752  1.2195 -2.9011  2.5944
  470MOL0     H62030   1.640   6.353   5.761  1.3303  2.8279  1.7796
  470MOL0     H62031   1.504   6.245   5.809  2.4379 -0.3681 -1.2212
  470MOL0     H62032   1.536   6.332   6.037  2.1948  3.0756  2.4999
  470MOL0     H62033   1.658   6.221   5.967 -0.9293 -0.4673  1.6477
  470MOL0     H62034   1.688   6.534   5.989  1.2491  0.2813  0.8777
  470MOL0     H62035   1.804   6.417   5.912  0.6460 -0.3255  0.1528
  470MOL0     H62036   1.854   6.493   6.137  0.5413 -0.2771 -3.2508
  470MOL0     H62037   1.712   6.411   6.197  1.1523 -1.6897  2.1684
  470MOL0     H62038   1.960   6.073   6.154  0.4982 -0.2293 -3.8397
  470MOL0     H62039   1.468   6.273   5.599 -1.3581 -2.4755 -3.0445
  470MOL0     H62040   1.328   6.295   5.405 -0.4105 -1.5227  0.8002
  471MOL0     O62041   0.016   2.936   8.589  0.5211 -0.2883  0.4406
  471MOL0     C62042  -0.071   2.952   8.674  0.0322  0.5824 -0.4086
  471MOL0     O62043  -0.192   2.897   8.670  0.1618 -0.4372 -0.2343
  471MOL0     C62044  -0.221   2.786   8.591  1.4367  0.0635  0.0567
  471MOL0     C62045  -0.133   2.683   8.573 -0.0721 -0.0921 -0.0036
  471MOL0     C62046  -0.166   2.574   8.500 -1.1841  0.3196 -0.9941
  471MOL0     C62047  -0.287   2.569   8.427  0.7771 -0.0722 -0.0462
  471MOL0     O62048  -0.310   2.452   8.357  0.2273  0.7812 -0.2621
  471MOL0     C62049  -0.409   2.465   8.250 -0.5488  0.3806  0.0812
  471MOL0     C62050  -0.426   2.325   8.183  0.0221 -1.3817 -0.3812
  471MOL0     C62051  -0.546   2.333   8.085 -0.6228 -1.3636 -0.0609
  471MOL0     C62052  -0.592   2.205   8.009  0.0921 -0.0199 -0.5992
  471MOL0     C62053  -0.661   2.090   8.095 -0.5425  0.1892 -0.2693
  471MOL0     C62054  -0.804   2.113   8.114 -0.5557 -0.5078  0.0938
  471MOL0     C62055  -0.874   2.017   8.222  0.1715 -0.9101  0.6294
  471MOL0     C62056  -0.841   2.057   8.365 -0.4385 -0.7272 -0.2547
  471MOL0     N62057  -0.909   2.182   8.412 -0.2981  0.2883  0.1791
  471MOL0     C62058  -1.021   2.190   8.487 -1.0764 -0.3721 -0.1172
  471MOL0     C62059  -1.043   2.325   8.493  0.1585  0.5413 -0.7253
  471MOL0     C62060  -1.170   2.390   8.544 -0.3192 -0.8989  0.5794
  471MOL0     C62061  -1.157   2.481   8.666 -0.0727  0.6437  0.1530
  471MOL0     C62062  -1.295   2.534   8.719 -0.2674  0.8010  0.2441
  471MOL0     C62063  -1.368   2.447   8.830 -0.0463  0.1178  0.4319
  471MOL0     O62064  -1.368   2.528   8.947  0.3382 -0.8622  0.7323
  471MOL0     C62065  -1.479   2.595   8.995  0.5575  0.1865 -0.3236
  471MOL0     C62066  -1.445   2.682   9.097  0.5105  0.4803  1.1805
  471MOL0     C62067  -1.552   2.768   9.139  0.2629 -0.9040  0.8243
  471MOL0     C62068  -1.684   2.750   9.106  0.4320 -0.3433  0.9238
  471MOL0     C62069  -1.794   2.836   9.163  0.5326  0.1289 -0.2355
  471MOL0     O62070  -1.932   2.825   9.135  0.7402  0.1520  0.2612
  471MOL0     C62071  -2.014   2.926   9.169  0.5730  0.0932 -0.0137
  471MOL0     C62072  -2.089   2.975   9.067  0.1989  0.3781 -0.0801
  471MOL0     C62073  -2.198   3.055   9.090 -0.1978 -0.6728 -0.3633
  471MOL0     C62074  -2.234   3.092   9.222  0.4500  0.3529  0.9050
  471MOL0     O62075  -2.352   3.159   9.222 -0.1048  1.0078 -0.1795
  471MOL0     C62076  -2.417   3.202   9.351 -0.1012  0.0821  0.6831
  471MOL0     C62077  -2.562   3.237   9.331  0.6054 -0.8427  0.5804
  471MOL0     C62078  -2.662   3.141   9.265 -0.2212 -0.2899  0.2266
  471MOL0     C62079  -2.786   3.219   9.217  0.4395 -0.3222 -0.1142
  471MOL0     C62080  -2.901   3.122   9.157  0.0485 -0.5192 -0.1473
  471MOL0     C62081  -2.961   3.022   9.255 -0.3401 -0.7503 -0.8390
  471MOL0     C62082  -3.073   2.937   9.194 -0.2028  0.1704 -0.3924
  471MOL0     C62083  -3.109   2.834   9.296  0.9187  0.4610  0.2941
  471MOL0    Cl62084  -3.268   2.768   9.251 -0.1265  0.5492 -0.0267
  471MOL0     C62085  -2.168   3.033   9.326 -0.7771  0.0266 -0.4061
  471MOL0     C62086  -2.059   2.947   9.298  0.3957 -0.2751 -1.0202
  471MOL0     O62087  -1.748   2.925   9.239  0.0455 -0.8885 -0.4288
  471MOL0     C62088  -1.713   2.662   9.004 -0.3377 -1.1491 -0.3492
  471MOL0     C62089  -1.605   2.584   8.949  0.7652  0.4166  0.3007
  471MOL0     N62090  -0.937   2.392   8.441 -0.2079 -0.6325 -0.7904
  471MOL0     N62091  -0.859   2.302   8.388 -1.4167  0.0406 -0.0943
  471MOL0     C62092  -0.374   2.675   8.435  0.1471 -0.1312 -0.2753
  471MOL0     C62093  -0.345   2.777   8.526  0.0595  0.0654 -0.5020
  471MOL0     C62094  -0.045   3.053   8.776 -0.8575  0.1337 -1.2726
  471MOL0     C62095  -0.124   3.078   8.884  0.0045  0.2209 -0.6495
  471MOL0     C62096  -0.094   3.163   8.988 -0.4799 -0.3208  0.1478
  471MOL0     C62097   0.027   3.242   8.973 -0.1558  0.5382 -0.5083
  471MOL0     O62098   0.055   3.338   9.074 -0.3227  0.6773  0.0549
  471MOL0     C62099   0.193   3.377   9.093 -0.2432  0.6529 -0.4330
  471MOL0     C62100   0.228   3.410   9.238  0.1653 -0.0334  0.2605
  471MOL0     C62101   0.219   3.291   9.337  0.3955 -0.0397 -0.1538
  471MOL0     C62102   0.224   3.333   9.494  0.2889 -0.1757  0.3638
  471MOL0     C62103   0.346   3.408   9.513 -0.0194 -0.8890 -0.5741
  471MOL0     C62104   0.432   3.496   9.513 -0.4310 -0.7537 -0.2161
  471MOL0     C62105   0.117   3.209   8.867 -0.2718 -1.5085  0.4033
  471MOL0     C62106   0.077   3.128   8.766 -0.1320  0.0622  0.0776
  471MOL0     H62107  -0.042   2.675   8.632 -0.1428  1.7982  0.4321
  471MOL0     H62108  -0.101   2.487   8.494 -0.8480  0.4918  0.0233
  471MOL0     H62109  -0.379   2.540   8.176  1.8259  0.1661  0.7298
  471MOL0     H62110  -0.510   2.488   8.284 -0.2618 -0.6887  1.7614
  471MOL0     H62111  -0.463   2.261   8.263 -1.7654  0.7793  0.6467
  471MOL0     H62112  -0.333   2.292   8.136  0.6576 -0.6149  0.3032
  471MOL0     H62113  -0.520   2.407   8.008  3.8585  0.2220  2.6213
  471MOL0     H62114  -0.635   2.356   8.145 -1.2514  0.4418 -1.5815
  471MOL0     H62115  -0.671   2.221   7.935 -1.5741 -0.9391  0.9120
  471MOL0     H62116  -0.494   2.177   7.969  1.1923  1.1659  1.1175
  471MOL0     H62117  -0.622   2.072   8.195  0.8295  0.4472 -0.7436
  471MOL0     H62118  -0.654   1.994   8.042 -1.1813 -0.2870  0.4890
  471MOL0     H62119  -0.850   2.092   8.017 -2.3995 -1.6912  1.1503
  471MOL0     H62120  -0.806   2.220   8.138  2.2278 -0.1543 -0.9221
  471MOL0     H62121  -0.982   2.020   8.205  0.3821  0.5790 -0.6938
  471MOL0     H62122  -0.850   1.911   8.207 -3.3504 -1.5681 -1.7047
  471MOL0     H62123  -0.733   2.074   8.373 -0.5527  0.5614 -1.1822
  471MOL0     H62124  -0.870   1.971   8.426 -1.2843 -0.5355 -0.3788
  471MOL0     H62125  -1.080   2.105   8.520  1.6485 -2.5339 -0.4448
  471MOL0     H62126  -1.237   2.305   8.565  0.6909 -1.2257  2.7219
  471MOL0     H62127  -1.201   2.466   8.472  1.8838  1.7870  2.2704
  471MOL0     H62128  -1.103   2.574   8.649 -1.5236  1.0107 -3.2738
  471MOL0     H62129  -1.111   2.435   8.754 -2.6121 -0.9195  0.7728
  471MOL0     H62130  -1.263   2.634   8.747 -1.6493  1.7928 -1.5200
  471MOL0     H62131  -1.360   2.551   8.632 -0.1510 -1.1612 -0.2746
  471MOL0     H62132  -1.323   2.348   8.839 -2.5191 -1.0761  0.4456
  471MOL0     H62133  -1.470   2.426   8.798  0.1298  1.5270 -1.2058
  471MOL0     H62134  -1.343   2.694   9.132  1.2201  3.7179 -1.4754
  471MOL0     H62135  -1.527   2.848   9.208  0.5311 -1.9241  1.9413
  471MOL0     H62136  -2.072   2.955   8.962 -1.1936  0.6837 -0.3787
  471MOL0     H62137  -2.265   3.077   9.008  1.0504  0.4304 -1.1296
  471MOL0     H62138  -2.370   3.294   9.386  0.0798 -0.0319  0.7368
  471MOL0     H62139  -2.408   3.124   9.427 -0.2663  0.1705  0.7959
  471MOL0     H62140  -2.559   3.333   9.278  0.4571 -0.9279  0.4191
  471MOL0     H62141  -2.613   3.256   9.426 -0.3723 -0.3788 -0.0151
  471MOL0     H62142  -2.690   3.057   9.329  1.2701  0.0807  1.4067
  471MOL0     H62143  -2.611   3.100   9.177  3.9716 -1.4272  2.9064
  471MOL0     H62144  -2.827   3.278   9.300  0.1363 -0.7547  0.0445
  471MOL0     H62145  -2.762   3.290   9.137 -0.8143 -0.6129 -0.7758
  471MOL0     H62146  -2.865   3.063   9.072 -2.0999 -2.1061 -0.0448
  471MOL0     H62147  -2.985   3.185   9.125 -1.8656 -1.2572  2.9704
  471MOL0     H62148  -2.984   3.079   9.346  0.2451  0.6911 -1.5642
  471MOL0     H62149  -2.887   2.945   9.279  2.0218  0.8132 -2.6248
  471MOL0     H62150  -3.165   2.997   9.195  0.3306  1.0294  1.5918
  471MOL0     H62151  -3.038   2.891   9.101  4.5663 -0.3355  1.3694
  471MOL0     H62152  -3.117   2.878   9.396 -0.0862 -0.3631  0.5918
  471MOL0     H62153  -3.033   2.755   9.306  0.4007 -0.6811 -3.3394
  471MOL0     H62154  -2.187   3.072   9.425  2.9827  2.5858 -0.4849
  471MOL0     H62155  -2.008   2.900   9.381  0.9559  3.0517  0.7061
  471MOL0     H62156  -1.809   2.637   8.960 -0.2814 -1.5231 -0.2616
  471MOL0     H62157  -1.629   2.503   8.881  0.1541 -0.3661  1.4092
  471MOL0     H62158  -0.444   2.685   8.353  0.6796  2.0533 -0.5202
  471MOL0     H62159  -0.404   2.867   8.541  2.6190  1.4880  2.0111
  471MOL0     H62160  -0.216   3.031   8.916  1.8372 -3.2068  0.0137
  471MOL0     H62161  -0.161   3.174   9.073 -1.2253 -1.6533 -0.2294
  471MOL0     H62162   0.223   3.462   9.031  0.7800  0.8995  0.3602
  471MOL0     H62163   0.254   3.290   9.069 -1.7646 -0.3805 -0.6751
  471MOL0     H62164   0.330   3.449   9.229 -0.7163  1.8071 -4.4914
  471MOL0     H62165   0.161   3.488   9.276  1.2060  0.9053  0.2034
  471MOL0     H62166   0.300   3.222   9.310  0.9536  2.4565 -6.7210
  471MOL0     H62167   0.122   3.243   9.323 -0.7149  1.4653  1.9072
  471MOL0     H62168   0.143   3.390   9.540  1.7256 -0.2205  3.2088
  471MOL0     H62169   0.235   3.247   9.560  2.2904  0.4247  0.8853
  471MOL0     H62170   0.510   3.569   9.509  1.4429 -2.6841 -0.6092
  471MOL0     H62171   0.209   3.266   8.862 -0.5692 -1.1118 -0.8065
  471MOL0     H62172   0.137   3.112   8.677 -0.0797  2.7253 -0.4244
  472MOL0     O62173   8.231   8.049   9.568 -0.4381  0.1038 -0.4334
  472MOL0     C62174   8.174   7.999   9.661  0.4546  1.1003  0.0888
  472MOL0     O62175   8.241   7.923   9.750  1.1566  0.8681 -0.0087
  472MOL0     C62176   8.376   7.915   9.747  0.2432  0.3536 -0.7338
  472MOL0     C62177   8.439   7.978   9.857  0.6762 -1.1240  0.1662
  472MOL0     C62178   8.579   7.973   9.864 -0.8649 -0.5469 -0.4876
  472MOL0     C62179   8.658   7.920   9.760 -0.2818  1.5897 -0.1795
  472MOL0     O62180   8.795   7.920   9.754 -0.7979 -0.1538 -0.1748
  472MOL0     C62181   8.858   7.810   9.687 -0.3613  0.8488 -0.1570
  472MOL0     C62182   8.974   7.776   9.778 -0.4178 -0.2779  0.1535
  472MOL0     C62183   9.051   7.663   9.719 -0.6959 -0.6720  0.7905
  472MOL0     C62184   9.091   7.679   9.571 -0.5813  0.4550  0.2064
  472MOL0     C62185   9.186   7.800   9.540 -0.0930  0.9341  0.4881
  472MOL0     C62186   9.316   7.831   9.624 -0.0444  0.4193  0.8364
  472MOL0     C62187   9.437   7.847   9.549  0.2386  0.4144  0.5756
  472MOL0     C62188   9.555   7.883   9.642 -0.0922 -0.6956  1.4193
  472MOL0     N62189   9.685   7.855   9.581 -0.2301  0.4468 -0.5879
  472MOL0     C62190   9.718   7.769   9.479 -0.6377 -0.5361  0.4724
  472MOL0     C62191   9.855   7.778   9.467  0.3776  0.2960  0.1298
  472MOL0     C62192   9.939   7.712   9.364  0.2943  0.4143 -0.3325
  472MOL0     C62193   9.954   7.560   9.401  1.3695  0.4946 -0.3638
  472MOL0     C62194   9.939   7.459   9.290  0.1878 -0.4308  0.5170
  472MOL0     C62195   9.932   7.309   9.350  0.2759 -0.5508  0.9333
  472MOL0     O62196   9.986   7.213   9.258 -0.0307  0.6465  0.3483
  472MOL0     C62197  10.125   7.202   9.239  0.2818  0.3702  0.4631
  472MOL0     C62198  10.225   7.235   9.332 -0.3362  0.0529  0.3934
  472MOL0     C62199  10.362   7.256   9.285  0.7416 -0.7263 -0.0161
  472MOL0     C62200  10.403   7.248   9.147  0.9568  0.6513 -0.6954
  472MOL0     C62201  10.547   7.252   9.109 -0.7779  0.0944 -0.5060
  472MOL0     O62202  10.575   7.277   8.978 -0.1927 -1.4687 -0.1286
  472MOL0     C62203  10.679   7.225   8.910  0.4881  0.6952 -0.0082
  472MOL0     C62204  10.708   7.292   8.793 -0.1720 -0.7777  0.1313
  472MOL0     C62205  10.815   7.260   8.716  0.4173  0.2567 -0.4005
  472MOL0     C62206  10.898   7.153   8.758  0.3637 -0.8877  0.4058
  472MOL0     O62207  11.007   7.117   8.685 -0.2022 -0.5929  0.6159
  472MOL0     C62208  11.117   7.219   8.672 -0.1500 -0.0399 -0.5648
  472MOL0     C62209  11.233   7.155   8.616 -0.3721  0.0487 -1.0883
  472MOL0     C62210  11.311   7.071   8.718 -0.0683 -0.3802 -0.3030
  472MOL0     C62211  11.440   7.022   8.661 -0.3209 -0.0463 -0.3610
  472MOL0     C62212  11.511   6.926   8.769  0.7377 -0.1736  0.4715
  472MOL0     C62213  11.427   6.807   8.820 -0.3841 -1.3026  0.8232
  472MOL0     C62214  11.507   6.731   8.929 -0.3446 -0.1554  0.0460
  472MOL0     C62215  11.428   6.606   8.974 -0.6927 -0.2141  0.2761
  472MOL0    Cl62216  11.509   6.533   9.116  0.3570  0.2035  0.0982
  472MOL0     C62217  10.862   7.078   8.864  0.9663 -0.5860 -0.4901
  472MOL0     C62218  10.756   7.111   8.946 -0.1238 -0.6874  0.6258
  472MOL0     O62219  10.639   7.235   9.193 -0.0517 -0.1544 -0.0843
  472MOL0     C62220  10.298   7.209   9.059  0.4821 -1.1917 -0.2480
  472MOL0     C62221  10.163   7.196   9.102  0.2814  0.5112  0.7403
  472MOL0     N62222   9.905   7.868   9.563  0.5034 -0.5224 -0.4338
  472MOL0     N62223   9.797   7.916   9.627  0.0021 -0.0616 -0.2771
  472MOL0     C62224   8.588   7.863   9.648  0.0165  0.7090 -0.8565
  472MOL0     C62225   8.450   7.865   9.640  0.0598 -0.5297 -1.7773
  472MOL0     C62226   8.041   8.043   9.695 -0.5422  0.7828 -0.4662
  472MOL0     C62227   7.989   8.013   9.827  0.7378 -0.7397 -0.5191
  472MOL0     C62228   7.868   8.062   9.878  0.0723  0.5791  0.0663
  472MOL0     C62229   7.777   8.125   9.787 -0.8133 -0.2966  0.3330
  472MOL0     O62230   7.660   8.169   9.842 -0.1917 -0.2641  0.0093
  472MOL0     C62231   7.573   8.258   9.764  0.4019 -0.5272 -0.6968
  472MOL0     C62232   7.435   8.277   9.825  0.1630 -0.3419  0.2836
  472MOL0     C62233   7.359   8.137   9.827  0.2568  0.0546  0.3152
  472MOL0     C62234   7.212   8.159   9.862 -0.6655 -0.8054  0.3169
  472MOL0     C62235   7.142   8.037   9.840 -0.4089  0.5379  0.0567
  472MOL0     C62236   7.091   7.931   9.806  0.5085  0.3169  0.4626
  472MOL0     C62237   7.825   8.150   9.650 -0.4294  0.4179  0.1673
  472MOL0     C62238   7.952   8.117   9.607  1.1308 -0.3794  0.2877
  472MOL0     H62239   8.385   8.041   9.927  2.5581  0.5133  0.2204
  472MOL0     H62240   8.637   8.012   9.947  0.4139  1.2112 -2.1158
  472MOL0     H62241   8.885   7.845   9.587 -2.5630  2.1666 -0.3504
  472MOL0     H62242   8.798   7.720   9.674 -0.6394  0.8975  0.7258
  472MOL0     H62243   8.936   7.746   9.876  0.0948  0.2990  0.5428
  472MOL0     H62244   9.028   7.871   9.788  1.1571 -1.3708  3.9251
  472MOL0     H62245   8.986   7.575   9.722 -1.4629 -0.0987  2.9420
  472MOL0     H62246   9.140   7.635   9.777 -2.4232 -0.9671  3.4730
  472MOL0     H62247   9.158   7.594   9.555  1.1141  1.6572  0.6894
  472MOL0     H62248   9.004   7.665   9.506 -0.4241 -0.7392  0.2255
  472MOL0     H62249   9.117   7.884   9.531 -0.3540  0.4937 -3.1346
  472MOL0     H62250   9.211   7.790   9.434  0.3825  0.7543  0.6151
  472MOL0     H62251   9.343   7.772   9.712  0.7875  3.3745  2.7129
  472MOL0     H62252   9.296   7.922   9.680 -1.3199  0.0537  1.0126
  472MOL0     H62253   9.464   7.748   9.511  0.1136  0.0991  1.2966
  472MOL0     H62254   9.438   7.906   9.456 -0.3394  0.6432  0.7064
  472MOL0     H62255   9.540   7.812   9.724  0.2862 -1.3262  0.9527
  472MOL0     H62256   9.551   7.985   9.681 -0.1824 -0.1155 -0.0340
  472MOL0     H62257   9.643   7.709   9.427 -2.4884  2.5515 -0.6982
  472MOL0     H62258  10.035   7.760   9.345  3.0597 -3.1079  3.0488
  472MOL0     H62259   9.884   7.722   9.270 -1.0575 -2.5092  0.0393
  472MOL0     H62260   9.873   7.540   9.471  0.5981  0.4490 -1.2636
  472MOL0     H62261  10.053   7.538   9.444  2.5280 -0.0402 -3.0682
  472MOL0     H62262   9.853   7.494   9.232  0.7803  2.2726  1.1171
  472MOL0     H62263  10.028   7.473   9.228 -1.6050 -0.9692 -2.3636
  472MOL0     H62264   9.831   7.280   9.381 -1.9196  1.4505 -3.4523
  472MOL0     H62265   9.989   7.300   9.443  0.0302  1.1893  1.2919
  472MOL0     H62266  10.208   7.246   9.439 -0.4221  0.2675  0.3588
  472MOL0     H62267  10.439   7.279   9.358  0.1337 -0.9025  0.6912
  472MOL0     H62268  10.635   7.359   8.749  0.6989 -0.7990 -1.3868
  472MOL0     H62269  10.828   7.305   8.617 -2.2308  1.6774 -0.2174
  472MOL0     H62270  11.139   7.264   8.769 -0.7656  0.1988 -0.5281
  472MOL0     H62271  11.077   7.292   8.601 -0.6786  0.2100 -0.0130
  472MOL0     H62272  11.303   7.231   8.578 -0.6360 -0.4262 -2.6055
  472MOL0     H62273  11.204   7.087   8.535  2.2450  1.3658 -3.3235
  472MOL0     H62274  11.239   6.992   8.743 -0.2469  0.1371  0.8702
  472MOL0     H62275  11.318   7.132   8.808 -0.4631 -0.3430 -0.2957
  472MOL0     H62276  11.413   6.960   8.575 -2.4925 -0.4765  0.5493
  472MOL0     H62277  11.505   7.101   8.625  1.3917 -0.3125  1.9171
  472MOL0     H62278  11.548   6.978   8.858 -0.4184  0.8352  0.3818
  472MOL0     H62279  11.596   6.882   8.716  1.8485 -0.4491  2.4039
  472MOL0     H62280  11.403   6.739   8.738  0.6226 -0.9189  0.1883
  472MOL0     H62281  11.333   6.844   8.862  1.3384  2.8882  1.4974
  472MOL0     H62282  11.603   6.707   8.883 -2.0739 -3.4689 -2.2151
  472MOL0     H62283  11.521   6.801   9.012  1.9791  2.1066 -2.0622
  472MOL0     H62284  11.428   6.525   8.901 -1.9079 -0.5792  0.6535
  472MOL0     H62285  11.327   6.642   8.997 -0.0886  0.6726  1.6914
  472MOL0     H62286  10.923   6.999   8.906  1.3035  1.1317  2.5960
  472MOL0     H62287  10.725   7.058   9.036 -1.3771 -1.3819 -0.1967
  472MOL0     H62288  10.337   7.195   8.959 -0.9294 -0.9202 -0.8621
  472MOL0     H62289  10.088   7.171   9.028  0.6906  1.0627  0.1197
  472MOL0     H62290   8.650   7.814   9.574 -0.8925 -3.4819  0.8074
  472MOL0     H62291   8.405   7.814   9.555  3.7454 -1.4825 -3.3403
  472MOL0     H62292   8.054   7.964   9.899  1.6923 -0.0236 -0.8733
  472MOL0     H62293   7.840   8.052   9.982  0.8753 -1.6351  0.1268
  472MOL0     H62294   7.563   8.238   9.657 -0.4504 -0.0258 -0.7177
  472MOL0     H62295   7.623   8.355   9.755 -2.1112  0.7852 -1.3893
  472MOL0     H62296   7.453   8.323   9.922  0.6345  2.3789 -0.9830
  472MOL0     H62297   7.377   8.351   9.768  0.4753 -0.7160 -0.5471
  472MOL0     H62298   7.409   8.070   9.897  2.1049  1.5825  0.5471
  472MOL0     H62299   7.365   8.093   9.727  0.4996  1.6490 -0.4066
  472MOL0     H62300   7.204   8.200   9.963 -0.6998 -1.6090  0.6410
  472MOL0     H62301   7.167   8.224   9.786  3.7270 -0.8897 -2.7500
  472MOL0     H62302   7.060   7.838   9.764  0.0195  0.8036 -0.2814
  472MOL0     H62303   7.761   8.196   9.576 -1.3095 -1.8119 -0.5594
  472MOL0     H62304   7.979   8.154   9.509  2.6856 -1.1503  0.4090
  473MOL0     O62305   5.813   1.209   2.105  0.2206  0.4386 -0.3956
  473MOL0     C62306   5.898   1.246   2.024 -0.2863  0.6922 -1.0417
  473MOL0     O62307   5.948   1.166   1.919  0.3137  0.3103  0.1540
  473MOL0     C62308   5.915   1.032   1.908 -0.6728 -0.7167  0.0414
  473MOL0     C62309   5.939   0.977   1.787  0.2674 -0.0270  0.1881
  473MOL0     C62310   5.920   0.838   1.767 -0.3737 -0.3189 -0.4380
  473MOL0     C62311   5.874   0.746   1.874  0.1438  0.7842  0.7210
  473MOL0     O62312   5.848   0.606   1.850  0.6701  0.0791  0.9644
  473MOL0     C62313   5.871   0.560   1.714  0.1704 -0.2672 -0.5441
  473MOL0     C62314   5.805   0.426   1.686 -0.1880  0.6853 -0.0228
  473MOL0     C62315   5.870   0.328   1.781 -0.9668 -0.3307 -0.6865
  473MOL0     C62316   5.851   0.178   1.746  0.3028  0.7209 -0.0576
  473MOL0     C62317   5.913   0.124   1.620 -0.4088 -0.4826  0.0613
  473MOL0     C62318   6.065   0.157   1.616 -0.9256 -0.1415 -0.3299
  473MOL0     C62319   6.151   0.085   1.516 -0.4044  0.4313  0.7884
  473MOL0     C62320   6.093  -0.034   1.432 -0.0839 -0.3991  0.1518
  473MOL0     N62321   6.199  -0.110   1.378 -0.2062  0.3797  0.5628
  473MOL0     C62322   6.317  -0.065   1.318 -0.9360 -0.3229  0.0257
  473MOL0     C62323   6.396  -0.177   1.282  0.4889  0.3807  0.4729
  473MOL0     C62324   6.538  -0.188   1.229  0.5261  0.2820  0.0601
  473MOL0     C62325   6.556  -0.214   1.072 -0.5132 -0.4312  0.0435
  473MOL0     C62326   6.462  -0.127   0.984 -0.4004  0.1048 -0.6840
  473MOL0     C62327   6.519  -0.103   0.841  0.0941 -1.1787  0.3812
  473MOL0     O62328   6.639  -0.019   0.843  0.1917 -0.3392  0.3515
  473MOL0     C62329   6.683   0.017   0.720 -0.8242 -0.2045  0.4239
  473MOL0     C62330   6.642  -0.037   0.597  0.4133 -0.0755 -0.7499
  473MOL0     C62331   6.698  -0.004   0.473 -0.8144 -0.5085  0.2712
  473MOL0     C62332   6.791   0.110   0.469 -0.1847  0.0613  1.1568
  473MOL0     C62333   6.836   0.175   0.333 -0.3643 -0.1203  0.5920
  473MOL0     O62334   6.941   0.271   0.340  0.4114  0.5988 -0.4298
  473MOL0     C62335   7.007   0.316   0.226 -0.4002 -0.7510  0.2544
  473MOL0     C62336   7.074   0.435   0.260 -0.0763 -0.2111 -0.1522
  473MOL0     C62337   7.155   0.509   0.172 -0.5826  0.7795 -0.0257
  473MOL0     C62338   7.167   0.449   0.043 -0.4111 -0.4038  0.2945
  473MOL0     O62339   7.248   0.495  -0.060  0.0420  0.4588  0.4440
  473MOL0     C62340   7.354   0.590  -0.023  0.0659  1.3453  1.1293
  473MOL0     C62341   7.490   0.575  -0.096 -0.6516 -0.2324 -0.3143
  473MOL0     C62342   7.564   0.446  -0.069 -0.0791 -0.8000  0.2442
  473MOL0     C62343   7.602   0.425   0.077  0.5015  0.0621  0.4497
  473MOL0     C62344   7.705   0.312   0.106  0.6251 -0.1312  0.3579
  473MOL0     C62345   7.802   0.333   0.225 -0.4002  0.1179  0.2529
  473MOL0     C62346   7.823   0.195   0.284 -0.1151  0.0223  0.3116
  473MOL0     C62347   7.893   0.204   0.417  0.5608  0.0722 -0.6961
  473MOL0    Cl62348   7.817   0.297   0.539 -0.1648 -0.0375 -0.1040
  473MOL0     C62349   7.104   0.330   0.009 -0.1361 -0.9079 -0.5722
  473MOL0     C62350   7.021   0.267   0.091 -0.3314  0.6584 -0.2809
  473MOL0     O62351   6.782   0.140   0.234  0.1519  0.4738 -0.7053
  473MOL0     C62352   6.836   0.163   0.588 -0.6104  0.1399  0.5323
  473MOL0     C62353   6.774   0.121   0.708  1.4231 -0.4432  1.0123
  473MOL0     N62354   6.319  -0.286   1.312 -0.2170  0.5541 -0.3811
  473MOL0     N62355   6.208  -0.245   1.364 -0.5831 -0.7319 -0.7466
  473MOL0     C62356   5.850   0.808   1.998  0.6767 -0.5330  0.0415
  473MOL0     C62357   5.868   0.947   2.017 -0.1309  0.0832 -0.5111
  473MOL0     C62358   5.946   1.381   2.028 -0.5110 -0.5377 -0.6804
  473MOL0     C62359   5.885   1.474   2.112  0.6349 -0.2636  0.9248
  473MOL0     C62360   5.934   1.606   2.118  0.0005 -0.5257 -1.2579
  473MOL0     C62361   6.051   1.639   2.050 -0.0432 -0.3175 -0.3163
  473MOL0     O62362   6.098   1.769   2.065  0.0096 -0.0606 -0.2781
  473MOL0     C62363   6.242   1.794   2.046 -1.1127  0.6711 -0.5464
  473MOL0     C62364   6.291   1.918   2.107  0.2745  0.0175 -0.2467
  473MOL0     C62365   6.248   1.939   2.254 -0.0706 -1.1773 -0.1035
  473MOL0     C62366   6.317   2.064   2.316  0.1723 -0.0125  0.1433
  473MOL0     C62367   6.305   2.050   2.457  0.1807 -0.3747 -0.4968
  473MOL0     C62368   6.258   2.057   2.574  0.2780  0.0549  0.8567
  473MOL0     C62369   6.111   1.551   1.960  0.8052 -0.4200  0.9601
  473MOL0     C62370   6.049   1.422   1.944  0.0649  0.1147  1.1610
  473MOL0     H62371   5.975   1.034   1.702 -1.4835 -0.2848 -0.7644
  473MOL0     H62372   5.969   0.799   1.678  4.4417  0.2352  1.6756
  473MOL0     H62373   5.973   0.546   1.677 -0.6246  1.0863 -3.5759
  473MOL0     H62374   5.824   0.625   1.640  1.5345  1.2172 -0.1587
  473MOL0     H62375   5.803   0.398   1.581 -1.9821  0.2539  0.1026
  473MOL0     H62376   5.698   0.432   1.707 -0.1646 -0.2935  0.4062
  473MOL0     H62377   5.833   0.337   1.884 -2.4108 -0.2718 -1.1864
  473MOL0     H62378   5.976   0.351   1.773 -0.6327 -1.6418 -0.2360
  473MOL0     H62379   5.895   0.118   1.826 -1.1960  1.0755  1.0799
  473MOL0     H62380   5.746   0.146   1.741  1.0150 -2.1331  1.0906
  473MOL0     H62381   5.863   0.160   1.530  0.2753 -0.2107 -0.2222
  473MOL0     H62382   5.903   0.016   1.612  0.8474 -0.5063 -1.6080
  473MOL0     H62383   6.119   0.132   1.708  5.4512 -0.6106 -3.6260
  473MOL0     H62384   6.066   0.266   1.614 -1.1094 -0.1437 -1.6363
  473MOL0     H62385   6.188   0.161   1.446 -2.8631 -0.4702 -1.6605
  473MOL0     H62386   6.233   0.034   1.567 -1.1235 -0.4913  1.0469
  473MOL0     H62387   6.036   0.016   1.354 -1.8288  2.1338  2.8386
  473MOL0     H62388   6.035  -0.100   1.497 -0.5415  0.8054  1.0101
  473MOL0     H62389   6.359   0.033   1.297  1.3850 -1.7994 -2.9428
  473MOL0     H62390   6.581  -0.271   1.285 -0.6951  0.6814  1.6687
  473MOL0     H62391   6.586  -0.093   1.252  1.2646 -0.2635  0.8340
  473MOL0     H62392   6.542  -0.319   1.044  0.2617 -0.2198 -1.1880
  473MOL0     H62393   6.651  -0.170   1.041 -2.0990  3.5315  0.2925
  473MOL0     H62394   6.363  -0.171   0.970  0.3232 -0.9089 -3.3812
  473MOL0     H62395   6.453  -0.036   1.043  1.1709 -2.0681  3.2589
  473MOL0     H62396   6.437  -0.067   0.778 -1.0712  0.1200  2.5202
  473MOL0     H62397   6.535  -0.208   0.815  0.6172 -1.9101  3.2626
  473MOL0     H62398   6.569  -0.117   0.587  0.6349 -0.4160  0.2479
  473MOL0     H62399   6.659  -0.051   0.383  2.3881  0.6248 -1.8805
  473MOL0     H62400   7.066   0.489   0.354  3.7185  0.8838 -0.2966
  473MOL0     H62401   7.200   0.604   0.196 -0.6511  0.7372  0.2707
  473MOL0     H62402   7.382   0.587   0.083  1.4633 -3.2234  0.8595
  473MOL0     H62403   7.327   0.694  -0.040  1.3831  1.4879 -0.3228
  473MOL0     H62404   7.553   0.657  -0.060  0.8335 -0.9781 -1.1222
  473MOL0     H62405   7.478   0.587  -0.204  3.1069 -1.1994 -0.9968
  473MOL0     H62406   7.655   0.445  -0.130  0.3783  0.4727  0.8867
  473MOL0     H62407   7.498   0.362  -0.094 -2.3361  0.7343  0.7738
  473MOL0     H62408   7.647   0.521   0.104  0.7410  0.5014 -1.3938
  473MOL0     H62409   7.513   0.417   0.140 -1.1674  0.2145 -1.7834
  473MOL0     H62410   7.739   0.278   0.008 -1.3688  0.3740 -0.5788
  473MOL0     H62411   7.641   0.225   0.126  0.4937 -0.6767 -2.1610
  473MOL0     H62412   7.747   0.386   0.303  2.0611 -0.3958  2.4546
  473MOL0     H62413   7.899   0.379   0.204 -0.6362  1.8326  2.5228
  473MOL0     H62414   7.727   0.145   0.299 -0.9202  1.8663  1.8356
  473MOL0     H62415   7.883   0.151   0.204 -2.0631  2.1767 -2.5862
  473MOL0     H62416   7.997   0.237   0.408 -0.3430  3.2615 -0.6551
  473MOL0     H62417   7.883   0.101   0.452 -0.4154 -0.1617 -1.6299
  473MOL0     H62418   7.125   0.279  -0.084  0.4851  2.1538 -2.2308
  473MOL0     H62419   6.964   0.179   0.064 -1.7401  0.3520  3.1408
  473MOL0     H62420   6.911   0.240   0.580 -0.5147  0.0937  0.9757
  473MOL0     H62421   6.822   0.170   0.793  1.1169 -0.2518  1.0792
  473MOL0     H62422   5.809   0.747   2.077  2.5165  0.3584  1.7708
  473MOL0     H62423   5.842   0.970   2.120 -0.7183  0.8305 -0.8155
  473MOL0     H62424   5.792   1.443   2.160 -0.4248 -2.1901 -2.1385
  473MOL0     H62425   5.878   1.672   2.184  0.2293 -1.6982  0.1792
  473MOL0     H62426   6.257   1.803   1.938 -0.0813  3.1572 -0.2733
  473MOL0     H62427   6.290   1.710   2.098  0.4712  1.5297 -0.5591
  473MOL0     H62428   6.397   1.925   2.083  0.0622  2.0347 -0.7624
  473MOL0     H62429   6.244   1.999   2.051  0.6570 -0.4024 -1.2017
  473MOL0     H62430   6.281   1.850   2.308  0.6955 -0.3721  0.7924
  473MOL0     H62431   6.140   1.958   2.254 -0.0255 -0.6484 -2.2998
  473MOL0     H62432   6.423   2.068   2.288  0.9229 -0.6548  2.6814
  473MOL0     H62433   6.276   2.157   2.276 -0.3564 -1.1026 -2.0253
  473MOL0     H62434   6.222   2.055   2.675 -0.3880  0.5377  0.6361
  473MOL0     H62435   6.202   1.585   1.912 -0.1880  3.9866  1.7312
  473MOL0     H62436   6.094   1.356   1.871  2.1688  3.6892 -1.1422
  474MOL0     O62437  10.582   9.741   1.377 -0.8208 -0.9608  0.5475
  474MOL0     C62438  10.505   9.795   1.453  0.3517 -0.3951 -0.1727
  474MOL0     O62439  10.526   9.818   1.582  0.5971 -0.4262  0.0507
  474MOL0     C62440  10.637   9.755   1.647  0.1215  0.6271  0.5074
  474MOL0     C62441  10.688   9.823   1.756 -0.2687 -0.9210  0.6013
  474MOL0     C62442  10.808   9.798   1.814  0.0484  0.5670  0.1296
  474MOL0     C62443  10.881   9.683   1.775  1.1406 -0.0757 -0.2472
  474MOL0     O62444  10.993   9.649   1.834  0.2729  0.4979 -0.2181
  474MOL0     C62445  10.983   9.570   1.961 -0.5119 -0.1024  0.2210
  474MOL0     C62446  11.117   9.567   2.039 -0.0728 -0.3261  0.0164
  474MOL0     C62447  11.107   9.485   2.173 -0.2646 -0.5199 -0.7023
  474MOL0     C62448  11.254   9.454   2.215  1.3638 -0.1734 -0.8114
  474MOL0     C62449  11.257   9.376   2.347 -0.4005 -0.0329 -0.7553
  474MOL0     C62450  11.393   9.329   2.397 -0.8968 -0.6013  0.6429
  474MOL0     C62451  11.473   9.453   2.455  0.8350  0.6808  0.5306
  474MOL0     C62452  11.599   9.419   2.548 -0.6357  0.4243 -0.4340
  474MOL0     N62453  11.566   9.340   2.662  0.9687 -0.1321  0.1298
  474MOL0     C62454  11.493   9.401   2.770 -0.3158  0.2859  0.3733
  474MOL0     C62455  11.413   9.297   2.803 -0.3362 -0.1579 -0.2409
  474MOL0     C62456  11.295   9.317   2.895  0.1380 -0.0207 -0.8470
  474MOL0     C62457  11.171   9.320   2.816  0.1578  0.0812 -0.3168
  474MOL0     C62458  11.137   9.193   2.726 -0.2819 -0.4162 -0.9069
  474MOL0     C62459  11.016   9.213   2.640  0.5731 -0.2758 -0.1112
  474MOL0     O62460  11.018   9.095   2.549  0.0704 -0.0924 -0.5301
  474MOL0     C62461  10.947   9.103   2.424  0.3415  0.2756 -0.1413
  474MOL0     C62462  10.917   8.982   2.355  0.1233  0.4064  0.1796
  474MOL0     C62463  10.847   8.983   2.233  0.1895 -0.2790  0.0937
  474MOL0     C62464  10.829   9.112   2.163 -0.1123  0.6802  0.0902
  474MOL0     C62465  10.776   9.106   2.023  0.0864 -0.5433 -0.9114
  474MOL0     O62466  10.774   9.228   1.960  0.3796 -0.1052 -0.3856
  474MOL0     C62467  10.744   9.220   1.831  0.9508 -1.1017 -0.1157
  474MOL0     C62468  10.818   9.155   1.741 -0.0100 -0.2963  0.4050
  474MOL0     C62469  10.785   9.157   1.603 -0.8027  0.5604  0.0551
  474MOL0     C62470  10.672   9.214   1.558  0.3281 -0.5023 -1.1026
  474MOL0     O62471  10.654   9.211   1.424 -0.9193  0.1081 -0.1085
  474MOL0     C62472  10.523   9.232   1.363 -0.2216 -0.8304  0.1621
  474MOL0     C62473  10.510   9.379   1.322  0.4976 -0.1925  0.0617
  474MOL0     C62474  10.363   9.418   1.316  0.3668 -0.1135  0.0364
  474MOL0     C62475  10.311   9.452   1.461  1.0836  0.1652 -0.7334
  474MOL0     C62476  10.165   9.502   1.471  0.2286 -0.2406 -0.4289
  474MOL0     C62477  10.091   9.477   1.603 -0.8317 -0.9691  0.4820
  474MOL0     C62478   9.986   9.581   1.642 -0.4303  0.3759 -0.7488
  474MOL0     C62479   9.839   9.541   1.592 -0.5792  0.1806  0.0304
  474MOL0    Cl62480   9.757   9.412   1.689  0.4103 -0.1365  0.3944
  474MOL0     C62481  10.591   9.276   1.650  0.1155 -0.2652 -0.0007
  474MOL0     C62482  10.633   9.296   1.782  0.3300 -0.5416  0.1617
  474MOL0     O62483  10.739   8.996   1.978 -0.5577  0.1320 -0.1567
  474MOL0     C62484  10.864   9.230   2.230  0.3230  0.0999 -0.5215
  474MOL0     C62485  10.919   9.224   2.355  0.7905 -0.3119 -0.0585
  474MOL0     N62486  11.470   9.177   2.751 -0.0465  0.8825  0.7128
  474MOL0     N62487  11.552   9.206   2.669 -0.3590  0.4659 -0.5126
  474MOL0     C62488  10.817   9.605   1.683 -0.7886 -0.5386 -0.4381
  474MOL0     C62489  10.703   9.634   1.615  0.0657  0.6512 -0.3206
  474MOL0     C62490  10.367   9.815   1.396  0.1162 -0.8700  0.6233
  474MOL0     C62491  10.268   9.882   1.462 -0.1743 -0.5299 -0.4774
  474MOL0     C62492  10.138   9.896   1.416 -0.3272 -0.6296  0.0923
  474MOL0     C62493  10.098   9.847   1.294 -0.1385 -0.3443 -0.0159
  474MOL0     O62494   9.960   9.855   1.260 -0.3967 -0.3578 -0.2768
  474MOL0     C62495   9.904   9.781   1.143  0.3329  0.0180  0.1299
  474MOL0     C62496   9.751   9.795   1.141 -0.3646 -0.0655 -0.7571
  474MOL0     C62497   9.669   9.707   1.242 -0.1484  0.1862 -0.1919
  474MOL0     C62498   9.522   9.709   1.212 -0.2916  0.1608 -0.0279
  474MOL0     C62499   9.464   9.830   1.264 -0.8088  0.5766  0.6000
  474MOL0     C62500   9.427   9.931   1.313  0.9818 -0.1189  0.3328
  474MOL0     C62501  10.194   9.793   1.211 -0.9024  0.2462  0.3542
  474MOL0     C62502  10.329   9.775   1.260  0.0463  0.2948  0.4236
  474MOL0     H62503  10.630   9.911   1.784  1.5917  1.7310 -3.1008
  474MOL0     H62504  10.867   9.853   1.886  4.7121 -2.7901 -0.6678
  474MOL0     H62505  10.966   9.469   1.921  1.0127  0.4082 -1.8871
  474MOL0     H62506  10.900   9.595   2.027  0.0187 -0.5705  1.0814
  474MOL0     H62507  11.141   9.671   2.060 -0.7615 -0.6592  3.0340
  474MOL0     H62508  11.195   9.532   1.971 -0.4730 -0.4423 -0.3870
  474MOL0     H62509  11.035   9.403   2.159 -2.4477  1.1494  0.1782
  474MOL0     H62510  11.057   9.552   2.243 -1.1671  0.3680 -2.1373
  474MOL0     H62511  11.303   9.394   2.138 -1.5658  0.1309 -3.0482
  474MOL0     H62512  11.309   9.548   2.227 -0.8756  1.3729 -2.0018
  474MOL0     H62513  11.197   9.287   2.328  0.7142 -1.4042  1.6231
  474MOL0     H62514  11.205   9.423   2.430 -0.6220 -4.0428  1.6326
  474MOL0     H62515  11.453   9.292   2.314  0.3065 -3.7381  2.7499
  474MOL0     H62516  11.378   9.250   2.470 -1.1827 -0.8973  0.2699
  474MOL0     H62517  11.504   9.517   2.372  0.2723  2.0131  1.3291
  474MOL0     H62518  11.402   9.515   2.509  1.6106  0.7212  1.5320
  474MOL0     H62519  11.656   9.510   2.571 -0.6373  0.0871  0.9667
  474MOL0     H62520  11.675   9.364   2.491 -1.0690  0.2068 -0.8046
  474MOL0     H62521  11.488   9.505   2.798  0.2316  0.2019  0.7995
  474MOL0     H62522  11.297   9.410   2.953  1.9377  0.9508 -2.3571
  474MOL0     H62523  11.278   9.236   2.966 -5.1597 -1.6101 -3.4277
  474MOL0     H62524  11.162   9.408   2.751  0.9227 -0.7077 -1.5329
  474MOL0     H62525  11.092   9.332   2.892  0.0344 -1.6650 -0.1336
  474MOL0     H62526  11.216   9.160   2.658 -0.6463 -1.3645 -0.8907
  474MOL0     H62527  11.115   9.102   2.784  0.9268 -1.3362 -1.8533
  474MOL0     H62528  11.021   9.312   2.593  0.4399  0.7220  1.8611
  474MOL0     H62529  10.927   9.223   2.703 -0.5619 -0.3750 -1.6417
  474MOL0     H62530  10.959   8.888   2.387 -0.2189 -0.2294 -1.1389
  474MOL0     H62531  10.822   8.892   2.180  0.8292  0.9600 -2.4672
  474MOL0     H62532  10.902   9.101   1.784 -0.5088  0.9579  3.2404
  474MOL0     H62533  10.841   9.101   1.529  1.1926  2.0064  0.3812
  474MOL0     H62534  10.441   9.206   1.431 -1.1345  0.4581 -0.4243
  474MOL0     H62535  10.519   9.176   1.269 -1.0250  1.6711 -1.3676
  474MOL0     H62536  10.567   9.388   1.229  0.6960 -0.3986  0.1645
  474MOL0     H62537  10.555   9.449   1.392  0.6324 -1.5659  1.3902
  474MOL0     H62538  10.300   9.352   1.257  0.8638 -0.3591 -0.2230
  474MOL0     H62539  10.357   9.513   1.262 -2.5785  0.3424  0.9674
  474MOL0     H62540  10.313   9.357   1.514  2.4743 -0.5786 -2.0559
  474MOL0     H62541  10.375   9.525   1.512  1.0269 -0.1839 -0.1583
  474MOL0     H62542  10.102   9.467   1.388  0.7490 -0.7021 -0.6319
  474MOL0     H62543  10.170   9.609   1.450  1.2224  0.1355  1.5025
  474MOL0     H62544  10.175   9.484   1.672 -1.1551  1.7497  0.7197
  474MOL0     H62545  10.046   9.377   1.602 -4.2238  0.3708  1.9940
  474MOL0     H62546   9.979   9.584   1.751  2.1442 -1.0944 -0.4592
  474MOL0     H62547  10.014   9.680   1.604  0.6848  1.1009  1.7073
  474MOL0     H62548   9.848   9.506   1.489  1.6603 -0.5838  0.4404
  474MOL0     H62549   9.778   9.632   1.594 -0.2939  0.3702 -0.0012
  474MOL0     H62550  10.507   9.329   1.607  0.2423  2.1475  2.4443
  474MOL0     H62551  10.578   9.362   1.849 -0.0450 -1.2909  0.6109
  474MOL0     H62552  10.846   9.325   2.181 -0.1706  0.7017  0.7874
  474MOL0     H62553  10.939   9.318   2.406 -1.5333 -0.2707  0.9249
  474MOL0     H62554  10.876   9.520   1.651 -0.7930 -0.7591  0.1252
  474MOL0     H62555  10.680   9.558   1.541 -1.8383 -0.5694  1.4151
  474MOL0     H62556  10.297   9.925   1.557 -1.0646  0.3700 -0.5996
  474MOL0     H62557  10.066   9.945   1.480 -0.1030 -0.9123  0.5646
  474MOL0     H62558   9.943   9.678   1.147 -1.6216 -0.8848 -2.1349
  474MOL0     H62559   9.937   9.832   1.052 -0.1866 -0.8603 -0.5643
  474MOL0     H62560   9.739   9.899   1.172  1.4941 -0.0290 -0.0552
  474MOL0     H62561   9.713   9.776   1.040 -0.0494 -0.8324 -0.7411
  474MOL0     H62562   9.683   9.750   1.342 -0.3207 -0.1233 -0.0324
  474MOL0     H62563   9.706   9.604   1.232 -3.4299 -1.2931  1.4342
  474MOL0     H62564   9.498   9.690   1.107  1.2345 -1.5712 -0.1065
  474MOL0     H62565   9.473   9.632   1.272 -1.4679  0.5096 -0.5136
  474MOL0     H62566   9.387  10.023   1.350  0.5565 -0.4068  0.5966
  474MOL0     H62567  10.172   9.756   1.112 -2.6199 -1.5802  1.3366
  474MOL0     H62568  10.401   9.737   1.188 -0.7580  0.4598 -0.4859
  475MOL0     O62569   5.189   8.713   7.588  0.1304 -0.2304  0.1783
  475MOL0     C62570   5.173   8.643   7.681 -0.0273  0.4427  0.1549
  475MOL0     O62571   5.168   8.680   7.813  0.2036 -0.5004 -0.1663
  475MOL0     C62572   5.187   8.811   7.838 -0.6845 -1.0354 -0.6181
  475MOL0     C62573   5.080   8.903   7.833  0.2930  0.1419  0.5137
  475MOL0     C62574   5.109   9.039   7.843  0.4858  0.7353  0.0230
  475MOL0     C62575   5.242   9.089   7.857  0.2698  0.0363 -0.4285
  475MOL0     O62576   5.273   9.223   7.859 -0.1174 -0.7107  0.3317
  475MOL0     C62577   5.175   9.327   7.818  0.6477  0.3412 -0.7984
  475MOL0     C62578   5.225   9.466   7.864 -0.4098  0.3946  1.3985
  475MOL0     C62579   5.182   9.562   7.758  0.1886  0.4220  0.3450
  475MOL0     C62580   5.031   9.571   7.779  0.3142 -0.4890  0.7470
  475MOL0     C62581   4.970   9.675   7.692  0.6437  0.2356 -0.7949
  475MOL0     C62582   4.821   9.699   7.711  0.1756  1.0267 -0.2818
  475MOL0     C62583   4.783   9.764   7.854  0.8595  0.4884  0.7066
  475MOL0     C62584   4.631   9.806   7.851 -0.2185  0.1372 -0.5524
  475MOL0     N62585   4.594   9.912   7.750 -0.3394 -0.0761 -0.6922
  475MOL0     C62586   4.669  10.032   7.738  0.1033  0.7681  0.2649
  475MOL0     C62587   4.597  10.102   7.651 -0.3803  0.2534  0.0626
  475MOL0     C62588   4.624  10.233   7.591  0.1958  0.0596 -0.3410
  475MOL0     C62589   4.682  10.213   7.452  0.0806  0.0123  0.8516
  475MOL0     C62590   4.742  10.334   7.384 -0.5409  0.3271 -0.3228
  475MOL0     C62591   4.813  10.292   7.244 -0.1063 -0.5324 -1.2309
  475MOL0     O62592   4.941  10.230   7.267  0.1093  0.3945  0.1703
  475MOL0     C62593   5.049  10.300   7.216  1.6234 -0.1355  0.7032
  475MOL0     C62594   5.100  10.432   7.250 -0.4189  0.9508 -0.2216
  475MOL0     C62595   5.216  10.477   7.196 -0.2719  0.4257  0.2235
  475MOL0     C62596   5.291  10.408   7.101  0.2094 -0.6358 -0.8195
  475MOL0     C62597   5.422  10.464   7.068  0.6966 -0.5924  0.6380
  475MOL0     O62598   5.483  10.571   7.140 -0.1358  0.1996  0.5815
  475MOL0     C62599   5.604  10.628   7.094 -0.1956 -0.8592 -0.1812
  475MOL0     C62600   5.615  10.667   6.954 -0.1366  0.8545 -0.7820
  475MOL0     C62601   5.722  10.740   6.921  0.0095 -0.2114  0.0560
  475MOL0     C62602   5.834  10.768   6.999  0.3686 -0.0982  0.0156
  475MOL0     O62603   5.942  10.824   6.930 -0.0086  1.2276  0.6291
  475MOL0     C62604   6.030  10.898   7.011 -0.1919 -0.6917 -0.6226
  475MOL0     C62605   6.149  10.952   6.938 -0.7431  0.1212  0.2980
  475MOL0     C62606   6.213  10.849   6.848 -0.0283  0.4879  0.0005
  475MOL0     C62607   6.334  10.914   6.774 -0.2971 -0.5506  0.0712
  475MOL0     C62608   6.413  10.817   6.701  0.0022 -0.0131  0.7008
  475MOL0     C62609   6.345  10.769   6.579 -0.4475  0.2828  0.2447
  475MOL0     C62610   6.424  10.647   6.526  0.6307  0.0955  0.1327
  475MOL0     C62611   6.577  10.655   6.512  0.0122  1.0076 -0.4224
  475MOL0    Cl62612   6.635  10.796   6.419 -0.4060 -0.2440  0.0651
  475MOL0     C62613   5.832  10.715   7.134  0.2154  1.0130  0.2003
  475MOL0     C62614   5.714  10.649   7.186 -0.5870  0.6491  0.8046
  475MOL0     O62615   5.470  10.408   6.968  0.2959  0.0848  0.5823
  475MOL0     C62616   5.236  10.281   7.070  0.3905  0.4043  0.6361
  475MOL0     C62617   5.122  10.228   7.118 -0.0362 -0.0871 -0.0548
  475MOL0     N62618   4.482  10.033   7.618  0.4051 -0.8118 -0.3366
  475MOL0     N62619   4.475   9.920   7.680 -0.6445 -0.7454 -0.5781
  475MOL0     C62620   5.341   9.002   7.875 -0.0718  0.4007 -0.9616
  475MOL0     C62621   5.316   8.865   7.860  0.7387  0.6299  0.2036
  475MOL0     C62622   5.171   8.491   7.655 -0.5765 -0.1932 -0.6055
  475MOL0     C62623   5.220   8.440   7.533  0.1130  0.1443 -0.4806
  475MOL0     C62624   5.258   8.303   7.532  0.4969 -0.7749  0.1695
  475MOL0     C62625   5.245   8.220   7.644  0.1139 -0.7261 -0.6021
  475MOL0     O62626   5.288   8.087   7.648 -0.4897  0.5673  0.2868
  475MOL0     C62627   5.266   8.007   7.522  0.4255  1.1367 -0.2711
  475MOL0     C62628   5.299   7.860   7.549  0.0500  0.0883  1.1304
  475MOL0     C62629   5.449   7.838   7.550  1.0275 -0.6665  0.5355
  475MOL0     C62630   5.466   7.697   7.593 -0.4813  0.8634 -0.3308
  475MOL0     C62631   5.396   7.584   7.519  0.5516 -0.5106 -0.5003
  475MOL0     C62632   5.338   7.486   7.473 -0.5580 -0.5786 -0.7500
  475MOL0     C62633   5.197   8.272   7.768  0.6995  0.9151  0.9454
  475MOL0     C62634   5.155   8.404   7.769  0.2360  0.0439  0.2581
  475MOL0     H62635   4.977   8.871   7.843  0.0094  1.0305  0.5361
  475MOL0     H62636   5.025   9.108   7.841 -1.3109 -1.2243  2.1237
  475MOL0     H62637   5.075   9.317   7.861  2.2448 -0.3005  3.2829
  475MOL0     H62638   5.171   9.326   7.709  2.2843  1.5593 -0.9081
  475MOL0     H62639   5.334   9.463   7.863 -0.2704  2.2226 -1.6853
  475MOL0     H62640   5.176   9.474   7.962 -3.6078 -2.1408  0.2047
  475MOL0     H62641   5.213   9.522   7.661  0.3534 -2.0560  1.3443
  475MOL0     H62642   5.220   9.663   7.775 -0.8609  1.0774 -1.0174
  475MOL0     H62643   4.982   9.476   7.757  1.1090 -1.6823  3.7572
  475MOL0     H62644   5.006   9.606   7.879 -1.8681  2.2206 -0.6181
  475MOL0     H62645   4.994   9.637   7.593 -1.3061 -0.3796 -1.0821
  475MOL0     H62646   5.031   9.765   7.709  2.7987 -1.7939  4.6436
  475MOL0     H62647   4.765   9.607   7.693  0.5005  1.0980 -1.8030
  475MOL0     H62648   4.799   9.781   7.641 -0.4181  1.5951  0.5441
  475MOL0     H62649   4.807   9.689   7.930  0.3712 -0.8974 -0.4694
  475MOL0     H62650   4.845   9.854   7.864  0.2767  0.8831  0.8041
  475MOL0     H62651   4.610   9.862   7.944  0.0111 -1.1025  0.2657
  475MOL0     H62652   4.568   9.717   7.852 -2.2964  1.5141  0.2825
  475MOL0     H62653   4.765  10.059   7.780 -0.6003  1.1093  1.7093
  475MOL0     H62654   4.685  10.293   7.659 -0.5247 -0.7311  1.0496
  475MOL0     H62655   4.535  10.293   7.572 -0.5678 -1.3813 -1.5268
  475MOL0     H62656   4.604  10.187   7.379 -0.2880  1.1835  0.8051
  475MOL0     H62657   4.760  10.136   7.451  3.2431  2.7841 -3.4173
  475MOL0     H62658   4.652  10.393   7.364  0.4806  2.4014  0.8363
  475MOL0     H62659   4.807  10.404   7.438 -2.0367 -1.1284  3.7435
  475MOL0     H62660   4.816  10.392   7.201  1.4174  0.9850  2.0063
  475MOL0     H62661   4.761  10.220   7.181 -0.4180 -2.3630  0.9999
  475MOL0     H62662   5.039  10.507   7.301 -1.0731  1.0324 -1.0961
  475MOL0     H62663   5.237  10.580   7.223  1.1347  2.2230 -6.0289
  475MOL0     H62664   5.540  10.636   6.883 -1.4401 -1.7552  1.5316
  475MOL0     H62665   5.726  10.776   6.818  1.1165 -3.0352 -0.9836
  475MOL0     H62666   6.070  10.835   7.091  1.1337 -1.9684 -2.2300
  475MOL0     H62667   5.968  10.976   7.057 -0.3326 -1.6038  0.8276
  475MOL0     H62668   6.227  10.988   7.006  0.7486  0.1297 -1.3452
  475MOL0     H62669   6.123  11.040   6.878  0.0838  2.1326  2.7149
  475MOL0     H62670   6.137  10.812   6.779  0.1770  1.9810 -1.0764
  475MOL0     H62671   6.252  10.757   6.892  0.6809  0.7629 -0.0387
  475MOL0     H62672   6.297  10.988   6.702  0.5404 -1.7557 -1.6652
  475MOL0     H62673   6.392  10.965   6.852  1.3798 -1.2902 -0.6428
  475MOL0     H62674   6.444  10.728   6.757  6.0417  0.1517 -1.6924
  475MOL0     H62675   6.506  10.866   6.671 -0.1149  0.9528  1.8581
  475MOL0     H62676   6.358  10.856   6.513 -2.2724  1.1444  0.9379
  475MOL0     H62677   6.240  10.738   6.577  0.2479 -2.3038 -2.2628
  475MOL0     H62678   6.387  10.566   6.589 -1.8955  1.0287 -0.0192
  475MOL0     H62679   6.389  10.617   6.426 -2.7016  0.7014  0.9963
  475MOL0     H62680   6.604  10.555   6.478  1.8284  0.4808  2.2591
  475MOL0     H62681   6.618  10.658   6.613 -0.2704  0.4131 -0.2922
  475MOL0     H62682   5.926  10.710   7.189  1.2612 -2.8091 -1.5962
  475MOL0     H62683   5.725  10.607   7.285  0.7550 -0.2849  0.2891
  475MOL0     H62684   5.285  10.237   6.984 -0.1288  2.6670 -0.9122
  475MOL0     H62685   5.081  10.136   7.076 -0.5037  0.3171 -0.4988
  475MOL0     H62686   5.441   9.033   7.903 -1.4744  2.6963  2.2844
  475MOL0     H62687   5.410   8.810   7.854  1.2899  1.1972  2.6787
  475MOL0     H62688   5.219   8.497   7.440 -0.3213 -1.2888 -1.3807
  475MOL0     H62689   5.294   8.252   7.443  2.2075 -3.7748  2.3943
  475MOL0     H62690   5.342   8.034   7.447  0.7529 -0.1005 -0.4135
  475MOL0     H62691   5.168   8.021   7.477 -0.4773  0.9078  1.5331
  475MOL0     H62692   5.270   7.817   7.645 -2.8660 -0.1111  0.2703
  475MOL0     H62693   5.234   7.797   7.488 -0.0403 -0.5295  1.8493
  475MOL0     H62694   5.503   7.902   7.620  1.4683 -1.9466  1.3973
  475MOL0     H62695   5.486   7.842   7.447  0.5610  1.2387  0.4133
  475MOL0     H62696   5.573   7.676   7.596 -0.2313  1.0973 -3.6070
  475MOL0     H62697   5.423   7.696   7.694 -2.3503  0.5990 -1.0835
  475MOL0     H62698   5.297   7.397   7.430 -1.7776  0.8279 -2.6656
  475MOL0     H62699   5.192   8.221   7.864 -1.9097  1.4891  1.1976
  475MOL0     H62700   5.124   8.443   7.865  0.4611 -0.9401  0.7447
  476MOL0     O62701   3.516   3.888   2.220  0.4875  0.3829  0.1295
  476MOL0     C62702   3.634   3.885   2.205  0.6464 -0.2999 -0.4536
  476MOL0     O62703   3.718   3.929   2.294  0.1024 -0.0987 -0.6442
  476MOL0     C62704   3.690   3.937   2.427  0.2317 -0.0942  0.1373
  476MOL0     C62705   3.605   3.852   2.502  0.6116 -0.3482 -0.2386
  476MOL0     C62706   3.587   3.873   2.642 -1.1729  0.4948 -0.4120
  476MOL0     C62707   3.663   3.976   2.707  1.6154 -0.8718 -0.1883
  476MOL0     O62708   3.654   3.995   2.845  0.6309  0.4361 -0.1455
  476MOL0     C62709   3.523   3.981   2.897  0.4981 -0.2037  0.2244
  476MOL0     C62710   3.536   3.895   3.015  0.6891 -0.4789  0.2718
  476MOL0     C62711   3.587   3.969   3.142 -0.0544  0.3409 -0.0027
  476MOL0     C62712   3.600   3.886   3.269  0.1319  0.6576  0.6199
  476MOL0     C62713   3.660   3.954   3.389 -0.3103  0.1643 -0.1767
  476MOL0     C62714   3.547   4.046   3.456 -0.3288  0.4152 -0.2572
  476MOL0     C62715   3.592   4.119   3.583 -0.3711  0.3028  0.6827
  476MOL0     C62716   3.486   4.229   3.607 -0.9647 -0.2368 -0.0769
  476MOL0     N62717   3.338   4.194   3.602 -0.5394 -0.2058 -0.2505
  476MOL0     C62718   3.277   4.078   3.655  0.3731 -0.2467 -0.2565
  476MOL0     C62719   3.134   4.096   3.646 -0.0331  0.0305 -0.7511
  476MOL0     C62720   3.018   3.991   3.660 -0.1756  0.3989 -1.0286
  476MOL0     C62721   2.886   4.058   3.675  0.2649 -0.1756 -0.3507
  476MOL0     C62722   2.786   3.943   3.705 -0.0807  0.0977 -0.7654
  476MOL0     C62723   2.644   3.989   3.700 -0.7415 -1.0353  0.4559
  476MOL0     O62724   2.626   4.110   3.774  0.1971 -0.5352 -0.1621
  476MOL0     C62725   2.499   4.161   3.792 -0.3222 -0.4827  0.1912
  476MOL0     C62726   2.386   4.126   3.729  0.7273  0.9927  0.1417
  476MOL0     C62727   2.260   4.178   3.765  0.2529  0.5080  0.2534
  476MOL0     C62728   2.259   4.252   3.891  0.6081  0.6395  1.3172
  476MOL0     C62729   2.128   4.283   3.948  0.1777 -0.0540  0.1163
  476MOL0     O62730   2.019   4.223   3.890  0.7491  0.5100 -0.1685
  476MOL0     C62731   1.889   4.233   3.938  0.0882 -0.7891 -0.3291
  476MOL0     C62732   1.799   4.157   3.855  0.2972 -0.0886  0.2261
  476MOL0     C62733   1.659   4.170   3.866  0.1296 -0.6730  0.4160
  476MOL0     C62734   1.607   4.247   3.967  0.6666  0.0025 -0.5663
  476MOL0     O62735   1.471   4.234   3.990  0.6553  0.7827 -0.1380
  476MOL0     C62736   1.422   4.344   4.057  0.5319 -0.2152  0.4845
  476MOL0     C62737   1.274   4.332   4.068  0.1325 -0.2805 -0.0472
  476MOL0     C62738   1.206   4.343   3.928 -0.3025 -0.2449 -0.1256
  476MOL0     C62739   1.054   4.368   3.947  0.0637 -0.3168  0.3170
  476MOL0     C62740   0.989   4.443   3.831 -0.8620 -0.3039 -0.8684
  476MOL0     C62741   0.844   4.462   3.876 -0.0658 -0.2193 -0.6184
  476MOL0     C62742   0.765   4.496   3.750  0.1352 -0.2353  0.3454
  476MOL0     C62743   0.826   4.602   3.664  0.1009 -0.7734 -0.3436
  476MOL0    Cl62744   0.836   4.763   3.742 -0.0952 -0.3179 -0.6191
  476MOL0     C62745   1.697   4.324   4.041 -0.5456  0.3771  0.6145
  476MOL0     C62746   1.829   4.318   4.033  0.3762  0.4887 -0.0305
  476MOL0     O62747   2.121   4.368   4.036  0.4761 -0.1892 -0.1062
  476MOL0     C62748   2.379   4.293   3.953 -0.4863  0.2755 -0.0699
  476MOL0     C62749   2.496   4.253   3.895 -0.0710  0.2777 -0.1251
  476MOL0     N62750   3.123   4.218   3.582  0.4700  0.2503 -0.1010
  476MOL0     N62751   3.238   4.273   3.559  0.5350 -0.0697 -0.4850
  476MOL0     C62752   3.757   4.056   2.639  1.3337  0.6963 -0.0533
  476MOL0     C62753   3.761   4.040   2.499  0.0868  0.1536 -1.1773
  476MOL0     C62754   3.698   3.818   2.096  1.0682 -0.3386 -0.4310
  476MOL0     C62755   3.615   3.769   1.987 -0.2027  0.7956 -0.0845
  476MOL0     C62756   3.676   3.709   1.878  0.0509 -0.8215  0.2115
  476MOL0     C62757   3.817   3.697   1.867 -1.5393 -0.3693  0.3787
  476MOL0     O62758   3.893   3.635   1.772  1.0992  0.0093 -0.3845
  476MOL0     C62759   3.835   3.602   1.638  0.4743 -0.0454 -1.6978
  476MOL0     C62760   3.957   3.563   1.554 -0.5071  0.1219  0.6524
  476MOL0     C62761   3.900   3.536   1.410 -0.3959 -0.5317 -0.9279
  476MOL0     C62762   3.867   3.655   1.320  0.8855 -0.3067  0.5847
  476MOL0     C62763   3.997   3.723   1.289  0.8731 -0.3472  0.7219
  476MOL0     C62764   4.102   3.783   1.270  0.4294 -0.4843 -0.8411
  476MOL0     C62765   3.893   3.737   1.981  0.0943  0.0587  0.3572
  476MOL0     C62766   3.837   3.810   2.089  0.1549  0.8047 -0.3980
  476MOL0     H62767   3.561   3.772   2.444 -0.3960  0.2838 -0.3724
  476MOL0     H62768   3.524   3.810   2.706 -0.0364 -0.3236 -0.0561
  476MOL0     H62769   3.448   3.938   2.832  0.3796 -2.1638  1.5723
  476MOL0     H62770   3.479   4.073   2.938 -2.6733 -0.8724 -1.4640
  476MOL0     H62771   3.585   3.801   2.986  1.1124 -0.1601 -0.0467
  476MOL0     H62772   3.432   3.866   3.034  0.2295  0.6544 -0.4497
  476MOL0     H62773   3.524   4.053   3.172  0.8075  0.2697  2.2235
  476MOL0     H62774   3.685   4.009   3.116  0.8536 -1.2045  0.8441
  476MOL0     H62775   3.506   3.843   3.304  2.2142 -3.1424  2.1173
  476MOL0     H62776   3.662   3.800   3.241 -0.4826  0.2809  0.4121
  476MOL0     H62777   3.748   4.017   3.372  0.0861 -0.4975 -0.6457
  476MOL0     H62778   3.698   3.873   3.452  1.6065  0.5054 -0.8385
  476MOL0     H62779   3.459   3.984   3.478  0.1359 -2.2356 -4.6783
  476MOL0     H62780   3.522   4.125   3.385  1.2897  1.8803  0.7403
  476MOL0     H62781   3.590   4.042   3.660 -1.8710 -0.6194 -0.2354
  476MOL0     H62782   3.693   4.160   3.575  0.4484 -1.8897 -2.0361
  476MOL0     H62783   3.501   4.310   3.536  1.4781 -0.7792 -0.2756
  476MOL0     H62784   3.507   4.260   3.710 -1.3608 -3.5060  1.1292
  476MOL0     H62785   3.338   4.002   3.704  1.5134  0.5818 -0.3480
  476MOL0     H62786   3.027   3.924   3.746 -3.8769  2.8827  1.6149
  476MOL0     H62787   3.029   3.922   3.576  0.0040 -0.4453 -0.3324
  476MOL0     H62788   2.858   4.109   3.583 -1.3943  5.0017  2.5821
  476MOL0     H62789   2.884   4.135   3.753 -3.9917 -1.8477  1.5191
  476MOL0     H62790   2.799   3.854   3.642 -0.8369 -1.6503  1.4289
  476MOL0     H62791   2.785   3.918   3.811  0.6843  1.4484 -0.4289
  476MOL0     H62792   2.573   3.915   3.739 -4.4940  2.1804  0.3665
  476MOL0     H62793   2.618   4.009   3.596  3.3029  0.1171 -0.4972
  476MOL0     H62794   2.383   4.048   3.653  2.2910  0.5735  0.4843
  476MOL0     H62795   2.171   4.158   3.708  1.0204 -1.4964 -0.3296
  476MOL0     H62796   1.844   4.082   3.790 -0.3506  0.7534 -1.2334
  476MOL0     H62797   1.586   4.111   3.811 -0.6879 -0.1772  0.9435
  476MOL0     H62798   1.452   4.441   4.016 -0.3941  0.6680  1.8152
  476MOL0     H62799   1.464   4.343   4.158  1.4804 -0.6439  0.0914
  476MOL0     H62800   1.237   4.411   4.134 -2.7920 -1.9500  0.4772
  476MOL0     H62801   1.253   4.233   4.110  2.5250 -1.1027 -0.6395
  476MOL0     H62802   1.231   4.250   3.875 -0.8902  0.2290 -1.2607
  476MOL0     H62803   1.240   4.427   3.867  0.2643 -1.1723 -1.1176
  476MOL0     H62804   1.003   4.274   3.969  1.2878 -1.3386 -0.9583
  476MOL0     H62805   1.047   4.430   4.037 -0.1625 -1.4643  1.1092
  476MOL0     H62806   0.982   4.388   3.737 -2.0252  1.7402 -2.0353
  476MOL0     H62807   1.040   4.539   3.824  1.2987 -1.2961  0.0141
  476MOL0     H62808   0.837   4.549   3.942  0.3522  0.6579 -1.7103
  476MOL0     H62809   0.812   4.367   3.920  0.8704  0.5888  1.9780
  476MOL0     H62810   0.762   4.403   3.692  2.7718  1.1887 -2.3923
  476MOL0     H62811   0.664   4.527   3.778  1.3072  0.9899  3.7723
  476MOL0     H62812   0.762   4.615   3.577  0.4187  1.9188 -0.2570
  476MOL0     H62813   0.930   4.594   3.629  0.6072 -0.9247  1.1038
  476MOL0     H62814   1.672   4.400   4.114 -0.5277  1.5165 -0.5287
  476MOL0     H62815   1.883   4.371   4.111  0.9110 -0.2450  0.1180
  476MOL0     H62816   2.377   4.343   4.050  0.8778  1.1896 -0.4881
  476MOL0     H62817   2.582   4.286   3.953  0.3456 -2.3928  0.9080
  476MOL0     H62818   3.830   4.121   2.687 -0.3076  2.6218  0.0210
  476MOL0     H62819   3.803   4.120   2.440  0.6002  1.5621  0.9985
  476MOL0     H62820   3.508   3.783   1.987 -0.9089 -2.9199  2.8737
  476MOL0     H62821   3.620   3.682   1.789 -1.5863 -0.8280  1.2147
  476MOL0     H62822   3.785   3.690   1.597 -3.2316 -0.5054  1.2322
  476MOL0     H62823   3.765   3.520   1.652  2.2690 -1.4545 -0.5017
  476MOL0     H62824   4.039   3.636   1.555  0.9543 -1.4638  0.9952
  476MOL0     H62825   3.993   3.465   1.586  1.1614 -0.0929 -1.6337
  476MOL0     H62826   3.812   3.471   1.419  0.6251 -2.2286 -2.5780
  476MOL0     H62827   3.975   3.475   1.360 -0.8857 -1.3560 -0.6959
  476MOL0     H62828   3.826   3.623   1.224  1.3177  1.5623 -0.2727
  476MOL0     H62829   3.799   3.721   1.375  0.2783  1.0411 -1.6673
  476MOL0     H62830   4.201   3.822   1.265  0.0309  0.4350 -2.0324
  476MOL0     H62831   3.998   3.751   1.960  0.1902 -1.9008 -0.8331
  476MOL0     H62832   3.885   3.856   2.175 -1.2462  1.6216 -0.0209
  477MOL0     O62833   8.690   6.352  10.901 -0.4914  0.1544  0.5437
  477MOL0     C62834   8.651   6.405  10.798  0.3503 -0.8542 -1.1764
  477MOL0     O62835   8.729   6.478  10.716  0.4210 -0.2032  0.1403
  477MOL0     C62836   8.859   6.499  10.765  1.0508  0.2977  0.3450
  477MOL0     C62837   8.873   6.590  10.878 -0.5445  0.2486  0.1277
  477MOL0     C62838   9.007   6.631  10.906  0.5383  0.1188  0.7626
  477MOL0     C62839   9.113   6.582  10.828  0.4764  0.0227 -0.7743
  477MOL0     O62840   9.240   6.627  10.836 -0.6233 -0.4042 -1.1031
  477MOL0     C62841   9.289   6.672  10.964 -0.2157  0.3019  0.5562
  477MOL0     C62842   9.437   6.702  10.950  0.0226  0.0649 -0.4622
  477MOL0     C62843   9.463   6.800  10.845  0.2972 -0.3920  0.4573
  477MOL0     C62844   9.399   6.933  10.880  0.8013 -0.2218 -0.3740
  477MOL0     C62845   9.481   7.056  10.822 -0.0868  0.5697 -0.0431
  477MOL0     C62846   9.493   7.073  10.669  1.1360 -0.7576 -0.0778
  477MOL0     C62847   9.549   7.200  10.624 -0.9402 -0.8485  0.2123
  477MOL0     C62848   9.555   7.222  10.472  0.5485  0.2082 -1.4649
  477MOL0     N62849   9.642   7.339  10.445 -0.1511  0.6663 -0.3328
  477MOL0     C62850   9.622   7.474  10.468 -0.1386  0.3328  0.2157
  477MOL0     C62851   9.731   7.533  10.418  0.4599  1.0102 -0.2545
  477MOL0     C62852   9.757   7.671  10.418  0.4884 -0.3678  0.3767
  477MOL0     C62853   9.673   7.754  10.323  0.5563 -0.6685  0.2261
  477MOL0     C62854   9.695   7.906  10.317 -0.2464 -0.2730 -0.9141
  477MOL0     C62855   9.842   7.951  10.288 -0.9109  0.7155  0.9755
  477MOL0     O62856   9.880   7.884  10.170  0.2105  0.3300 -0.9707
  477MOL0     C62857  10.002   7.910  10.112 -0.0383 -0.6123  0.1140
  477MOL0     C62858  10.004   7.906   9.966 -0.1317 -0.2860  0.7641
  477MOL0     C62859  10.123   7.948   9.906  1.6539 -0.7001 -0.2091
  477MOL0     C62860  10.236   7.963   9.983 -0.2560  0.1855  0.4583
  477MOL0     C62861  10.365   7.976   9.914 -0.1368  0.1656  0.2773
  477MOL0     O62862  10.379   7.910   9.793 -1.0068 -1.3565  0.8863
  477MOL0     C62863  10.499   7.881   9.740 -0.3319  0.1854 -0.6421
  477MOL0     C62864  10.558   7.760   9.781  0.6608 -0.1820  0.3687
  477MOL0     C62865  10.693   7.728   9.735  1.3048 -1.1208 -1.4081
  477MOL0     C62866  10.768   7.828   9.676  0.3449 -0.4180 -0.5016
  477MOL0     O62867  10.899   7.798   9.633  0.0383 -0.4237 -0.3450
  477MOL0     C62868  10.993   7.693   9.681 -0.0631  0.2356  0.0123
  477MOL0     C62869  11.057   7.734   9.818  0.6363  0.4637 -1.0443
  477MOL0     C62870  11.162   7.631   9.863 -0.6574  0.4713 -0.7160
  477MOL0     C62871  11.197   7.658  10.011  0.4229  0.0930 -0.7367
  477MOL0     C62872  11.325   7.582  10.068 -0.4992 -0.9482 -0.2112
  477MOL0     C62873  11.313   7.433  10.050  0.1404  0.2272 -0.5707
  477MOL0     C62874  11.454   7.374  10.082 -0.1422  0.2788  0.5125
  477MOL0     C62875  11.461   7.223  10.040  0.1993  0.2864  0.6986
  477MOL0    Cl62876  11.358   7.119  10.160 -0.0986 -0.0951 -0.1918
  477MOL0     C62877  10.710   7.946   9.641  0.6120 -0.8764 -0.1449
  477MOL0     C62878  10.573   7.971   9.668 -0.8403 -0.2834 -0.4338
  477MOL0     O62879  10.450   8.036   9.967 -0.3501 -0.5294 -0.1095
  477MOL0     C62880  10.232   7.964  10.125 -0.3716 -0.6130  0.0248
  477MOL0     C62881  10.112   7.948  10.188 -0.0638  0.5333 -0.7933
  477MOL0     N62882   9.812   7.434  10.370 -0.4272 -0.2873 -0.3984
  477MOL0     N62883   9.761   7.324  10.384 -0.3744 -0.3980  0.2531
  477MOL0     C62884   9.091   6.489  10.724 -0.0163  0.1267 -0.7779
  477MOL0     C62885   8.963   6.457  10.684  0.0974 -0.5857  0.4346
  477MOL0     C62886   8.523   6.382  10.759  0.6746  0.8121  0.5092
  477MOL0     C62887   8.457   6.269  10.800  0.8570 -0.6686 -0.5230
  477MOL0     C62888   8.334   6.218  10.727 -0.3367  0.4071  0.1946
  477MOL0     C62889   8.273   6.301  10.639 -0.1190 -0.4481  0.4662
  477MOL0     O62890   8.162   6.263  10.578 -0.0499 -0.2314  0.2935
  477MOL0     C62891   8.068   6.369  10.556 -0.0660  0.1722 -0.4941
  477MOL0     C62892   7.928   6.319  10.595  0.1451  0.2005  0.6094
  477MOL0     C62893   7.810   6.415  10.540 -0.6388  0.1444 -0.2309
  477MOL0     C62894   7.675   6.362  10.595  0.3007  0.5178 -0.1201
  477MOL0     C62895   7.557   6.452  10.578  0.0589  0.3687 -0.1617
  477MOL0     C62896   7.469   6.534  10.577 -1.0125  0.6398  0.0732
  477MOL0     C62897   8.339   6.432  10.619  0.5686  0.8871  0.2221
  477MOL0     C62898   8.460   6.461  10.671 -0.7356  0.8992  0.0455
  477MOL0     H62899   8.787   6.623  10.935 -1.0027  0.7347 -0.8186
  477MOL0     H62900   9.023   6.706  10.983 -0.4864 -1.3493  2.4644
  477MOL0     H62901   9.281   6.591  11.037  1.2136  0.0350  0.4460
  477MOL0     H62902   9.234   6.762  10.994 -3.4815 -0.7949 -1.5323
  477MOL0     H62903   9.481   6.602  10.940  1.6845  0.7415 -0.2394
  477MOL0     H62904   9.475   6.737  11.047  1.2814 -0.4356 -0.7463
  477MOL0     H62905   9.418   6.749  10.759 -2.0877  0.5484  1.0698
  477MOL0     H62906   9.571   6.817  10.845  0.2125  2.4285 -5.1858
  477MOL0     H62907   9.298   6.938  10.840  1.7722 -0.0457 -2.9746
  477MOL0     H62908   9.382   6.934  10.988 -0.8045  1.3360 -0.5966
  477MOL0     H62909   9.586   7.048  10.850  0.5886  3.3160 -1.4462
  477MOL0     H62910   9.440   7.147  10.867  0.7824 -0.1064  2.2682
  477MOL0     H62911   9.392   7.090  10.630  1.2663 -0.3441 -0.2417
  477MOL0     H62912   9.530   6.977  10.631  2.4979 -0.4848  0.4966
  477MOL0     H62913   9.496   7.281  10.675 -2.0622 -1.4822  0.0882
  477MOL0     H62914   9.656   7.216  10.640 -0.2981 -0.3769 -3.4982
  477MOL0     H62915   9.451   7.249  10.450 -1.0558 -1.2680  3.0900
  477MOL0     H62916   9.590   7.133  10.419  1.7698  1.1534 -2.2795
  477MOL0     H62917   9.546   7.527  10.524 -0.8536 -0.7470  0.2944
  477MOL0     H62918   9.861   7.670  10.384  0.7898  0.4299  1.2185
  477MOL0     H62919   9.766   7.708  10.521  1.8632  0.6467 -0.0650
  477MOL0     H62920   9.568   7.740  10.352  0.5991 -0.5183  0.4543
  477MOL0     H62921   9.690   7.720  10.221 -1.8925 -0.9702 -0.1488
  477MOL0     H62922   9.630   7.953  10.243 -1.2572 -1.1685 -0.6139
  477MOL0     H62923   9.674   7.943  10.418  2.0435 -1.0045 -0.0933
  477MOL0     H62924   9.912   7.917  10.365 -2.1232 -1.7005  1.1013
  477MOL0     H62925   9.840   8.061  10.286 -1.7495  0.7275 -1.3716
  477MOL0     H62926   9.915   7.886   9.906  2.1883 -1.4728 -2.5468
  477MOL0     H62927  10.135   7.947   9.798  2.8203 -1.0250 -0.0929
  477MOL0     H62928  10.503   7.699   9.852  1.0941  1.0399  1.7917
  477MOL0     H62929  10.737   7.633   9.762  2.3282 -0.0557  0.9528
  477MOL0     H62930  11.083   7.685   9.619  1.8402  3.4390  2.0558
  477MOL0     H62931  10.946   7.594   9.682 -1.2880  0.7626 -1.4469
  477MOL0     H62932  10.974   7.728   9.888  4.4864 -3.2950  4.0222
  477MOL0     H62933  11.095   7.837   9.807 -1.2899  1.4827  1.1506
  477MOL0     H62934  11.248   7.672   9.809 -1.7122  1.5507 -1.6234
  477MOL0     H62935  11.157   7.525   9.835 -1.7016 -0.2230  1.8120
  477MOL0     H62936  11.198   7.764  10.038 -0.7916  0.0675 -0.5701
  477MOL0     H62937  11.114   7.608  10.061  1.0576  1.0884  1.4529
  477MOL0     H62938  11.345   7.626  10.166 -2.2014  0.5065 -0.4372
  477MOL0     H62939  11.411   7.612  10.009  0.9489  0.2374  2.3356
  477MOL0     H62940  11.279   7.392   9.954 -1.0297 -0.0816 -0.0378
  477MOL0     H62941  11.244   7.396  10.126  0.6902 -1.6077 -0.8939
  477MOL0     H62942  11.525   7.428  10.019 -0.0682 -3.4542 -3.0174
  477MOL0     H62943  11.476   7.388  10.188 -1.1734  0.1087  0.7664
  477MOL0     H62944  11.563   7.185  10.039  1.2129  2.1404 -4.8564
  477MOL0     H62945  11.428   7.210   9.936  1.8786  0.0711  0.1663
  477MOL0     H62946  10.767   8.018   9.584 -0.2454 -1.6808 -2.1431
  477MOL0     H62947  10.537   8.070   9.643  1.0821  1.6062  3.3589
  477MOL0     H62948  10.322   7.994  10.176 -0.3137  2.8332 -1.7611
  477MOL0     H62949  10.112   7.955  10.296  1.5711 -4.0550 -0.2780
  477MOL0     H62950   9.173   6.467  10.655 -2.8448  0.9178 -4.7496
  477MOL0     H62951   8.944   6.413  10.587 -0.7522  2.6379 -0.9721
  477MOL0     H62952   8.499   6.197  10.870 -2.0449 -4.5724 -2.4012
  477MOL0     H62953   8.309   6.116  10.753 -1.0543  0.9741  1.7987
  477MOL0     H62954   8.060   6.409  10.454  0.0253  1.3150 -0.0728
  477MOL0     H62955   8.082   6.456  10.621 -0.6782 -0.0765 -0.0270
  477MOL0     H62956   7.920   6.223  10.541  0.7266  1.6814 -2.3276
  477MOL0     H62957   7.917   6.302  10.702 -1.6088 -0.7582  0.3220
  477MOL0     H62958   7.807   6.399  10.431  3.5778 -1.5816 -0.2861
  477MOL0     H62959   7.832   6.519  10.562 -1.3770  0.2002  0.2810
  477MOL0     H62960   7.640   6.277  10.536 -0.9474 -0.1357  1.4878
  477MOL0     H62961   7.674   6.336  10.701 -1.1393  2.9773  0.5283
  477MOL0     H62962   7.403   6.618  10.564  0.1330  1.5690  0.1536
  477MOL0     H62963   8.298   6.503  10.547 -3.1530  2.4659  3.5378
  477MOL0     H62964   8.502   6.550  10.624 -0.0105 -0.7960 -2.7571
  478MOL0     O62965   7.938   3.499   0.280 -0.4504  1.1340 -0.2070
  478MOL0     C62966   7.880   3.582   0.360  0.1071 -0.8848 -0.0731
  478MOL0     O62967   7.951   3.660   0.460  0.3540 -0.3329  0.2786
  478MOL0     C62968   8.089   3.669   0.469 -0.1072 -1.0265  0.0237
  478MOL0     C62969   8.168   3.730   0.364  1.2849 -0.5487  0.2876
  478MOL0     C62970   8.305   3.767   0.378 -0.2124  0.3469 -0.5128
  478MOL0     C62971   8.363   3.731   0.504 -0.2255 -0.8026 -0.2004
  478MOL0     O62972   8.496   3.772   0.536  0.0078  0.3749 -0.0121
  478MOL0     C62973   8.559   3.881   0.463  0.0442 -0.2582  0.0453
  478MOL0     C62974   8.645   3.814   0.358 -0.1833  0.6512 -0.0299
  478MOL0     C62975   8.741   3.705   0.403  0.6726  0.7435 -0.1695
  478MOL0     C62976   8.798   3.627   0.284 -0.2430 -0.1170 -0.1165
  478MOL0     C62977   8.895   3.709   0.192  0.6058 -0.4012  1.4811
  478MOL0     C62978   8.923   3.628   0.063  0.2072 -0.4653 -0.3252
  478MOL0     C62979   8.981   3.712  -0.046 -0.6556  0.4263  0.0549
  478MOL0     C62980   9.015   3.627  -0.164  0.1354 -0.1622  0.4137
  478MOL0     N62981   9.095   3.704  -0.257 -0.9069 -0.9123 -0.2374
  478MOL0     C62982   9.235   3.695  -0.286  0.0160  0.4045 -0.4146
  478MOL0     C62983   9.247   3.769  -0.398 -0.7557 -0.1708 -0.5908
  478MOL0     C62984   9.381   3.770  -0.463 -0.0429 -0.5219  0.4488
  478MOL0     C62985   9.461   3.890  -0.430 -0.0839  1.1518  0.3118
  478MOL0     C62986   9.611   3.883  -0.472  0.7152 -0.3282  1.2565
  478MOL0     C62987   9.676   4.015  -0.437 -0.3222  0.1543  0.3804
  478MOL0     O62988   9.751   4.016  -0.313  0.5447  0.3421  0.7976
  478MOL0     C62989   9.884   4.038  -0.334  0.2782  0.2342  0.6083
  478MOL0     C62990   9.960   3.976  -0.431  0.6298 -0.0864  0.5335
  478MOL0     C62991  10.104   4.002  -0.444 -1.5443  1.3438  1.2854
  478MOL0     C62992  10.175   4.065  -0.346  0.0848  0.1341 -0.1721
  478MOL0     C62993  10.325   4.057  -0.343 -0.5894  0.4050  0.3125
  478MOL0     O62994  10.403   4.047  -0.455 -0.1190 -0.3066 -0.6360
  478MOL0     C62995  10.534   4.026  -0.449 -0.8593  0.9220  0.3369
  478MOL0     C62996  10.591   3.907  -0.388  0.1393  0.0072  0.6995
  478MOL0     C62997  10.731   3.898  -0.373 -0.2195  0.2709 -0.8934
  478MOL0     C62998  10.816   4.002  -0.409 -0.2660 -0.7083 -0.2423
  478MOL0     O62999  10.949   3.983  -0.407  0.3101  0.4746  0.1942
  478MOL0     C63000  11.035   4.088  -0.369  0.1089  0.8263 -0.2733
  478MOL0     C63001  11.173   4.089  -0.436  0.2838 -0.3134 -0.2559
  478MOL0     C63002  11.257   3.979  -0.378 -0.4572  0.5652  0.2089
  478MOL0     C63003  11.382   3.959  -0.458  0.4340 -0.5500 -0.1574
  478MOL0     C63004  11.464   4.094  -0.466  0.6688  1.1838 -0.2545
  478MOL0     C63005  11.614   4.076  -0.489  0.2643 -0.5250  0.0405
  478MOL0     C63006  11.693   4.213  -0.477 -0.0488 -0.3489 -0.4049
  478MOL0     C63007  11.817   4.202  -0.391 -0.1473 -0.5433 -0.6481
  478MOL0    Cl63008  11.942   4.108  -0.457 -0.4052  0.3900  0.1323
  478MOL0     C63009  10.755   4.122  -0.458 -0.5471  1.0061 -0.5450
  478MOL0     C63010  10.618   4.125  -0.483 -0.3893 -0.3176 -0.8687
  478MOL0     O63011  10.373   4.049  -0.230 -0.6971 -0.3134 -0.2270
  478MOL0     C63012  10.093   4.119  -0.243  0.3255  0.0832 -0.0203
  478MOL0     C63013   9.947   4.114  -0.244 -0.5112 -0.7042 -0.2056
  478MOL0     N63014   9.124   3.815  -0.438 -0.2464  0.3281 -0.7599
  478MOL0     N63015   9.031   3.775  -0.350  0.2107 -0.4147  0.1183
  478MOL0     C63016   8.289   3.670   0.610 -0.0648  0.4719 -0.5052
  478MOL0     C63017   8.158   3.643   0.585  0.4130 -0.5244  0.1277
  478MOL0     C63018   7.733   3.591   0.347 -1.0686 -0.4382 -0.3306
  478MOL0     C63019   7.653   3.651   0.438  0.3162 -0.8641  0.2021
  478MOL0     C63020   7.517   3.642   0.429 -0.6186  0.5473  0.4566
  478MOL0     C63021   7.451   3.592   0.316  0.3223  0.6823  0.3070
  478MOL0     O63022   7.318   3.595   0.288 -0.6784  0.5878  0.7713
  478MOL0     C63023   7.235   3.653   0.396 -1.0658  0.4812 -0.4117
  478MOL0     C63024   7.087   3.628   0.364 -1.2027  0.2701 -0.3001
  478MOL0     C63025   6.985   3.711   0.440 -0.4004 -0.0616  0.0751
  478MOL0     C63026   6.902   3.808   0.355 -0.9965  0.6650 -0.1495
  478MOL0     C63027   6.978   3.932   0.325 -0.8004  0.5787 -1.2954
  478MOL0     C63028   7.023   4.042   0.295 -0.1383 -1.0405 -0.2121
  478MOL0     C63029   7.531   3.541   0.212  0.2467 -0.5216 -0.5878
  478MOL0     C63030   7.673   3.537   0.230  0.7443  0.1674  0.0494
  478MOL0     H63031   8.116   3.766   0.276  1.4669  1.2005  0.8539
  478MOL0     H63032   8.365   3.810   0.298 -1.8427 -0.3919 -2.1889
  478MOL0     H63033   8.625   3.939   0.529 -0.6816  2.5046 -1.5208
  478MOL0     H63034   8.488   3.953   0.422  1.3376  1.1242  0.1176
  478MOL0     H63035   8.697   3.891   0.300  1.7093 -1.6070 -1.5350
  478MOL0     H63036   8.572   3.764   0.293  0.3677  0.7915 -0.7772
  478MOL0     H63037   8.685   3.633   0.463 -0.3905  0.2664 -1.6438
  478MOL0     H63038   8.817   3.742   0.472  0.9506 -0.3490  0.1412
  478MOL0     H63039   8.846   3.539   0.327 -2.9036 -0.5458  2.2747
  478MOL0     H63040   8.712   3.592   0.226 -1.6621 -2.9343  3.3329
  478MOL0     H63041   8.983   3.761   0.232  0.9042  0.2799 -0.0001
  478MOL0     H63042   8.835   3.796   0.164 -0.1865 -0.4882  2.8048
  478MOL0     H63043   8.833   3.574   0.029 -0.0636  0.4942 -1.1990
  478MOL0     H63044   9.007   3.562   0.084  2.3618  2.7599  2.2530
  478MOL0     H63045   8.916   3.798  -0.066  0.0485  0.9944  0.1317
  478MOL0     H63046   9.068   3.760  -0.000 -0.0648  0.7810 -1.3724
  478MOL0     H63047   8.919   3.609  -0.216 -1.4213  3.9643  1.4675
  478MOL0     H63048   9.064   3.534  -0.135  1.3472  0.8874  1.8931
  478MOL0     H63049   9.312   3.640  -0.232  0.6484  0.8431 -0.8591
  478MOL0     H63050   9.375   3.756  -0.571 -0.1562 -2.2177  0.6481
  478MOL0     H63051   9.442   3.689  -0.424 -0.3848 -1.5235 -0.9980
  478MOL0     H63052   9.445   3.914  -0.324 -2.7608  2.1079 -0.2113
  478MOL0     H63053   9.418   3.970  -0.491  1.5592  0.2310 -2.2155
  478MOL0     H63054   9.660   3.803  -0.417  1.9418  1.1159  2.3645
  478MOL0     H63055   9.625   3.865  -0.579  1.4909 -0.3895  1.3573
  478MOL0     H63056   9.605   4.098  -0.432  0.6762  1.2375 -1.9798
  478MOL0     H63057   9.738   4.049  -0.520 -0.6993 -0.5220 -0.1948
  478MOL0     H63058   9.923   3.907  -0.506 -1.7855 -0.9231  2.3682
  478MOL0     H63059  10.155   3.957  -0.529 -1.2585  1.4424  1.4018
  478MOL0     H63060  10.519   3.829  -0.366  0.9401 -1.6136 -1.9710
  478MOL0     H63061  10.772   3.816  -0.315 -0.6732  2.4334  2.7843
  478MOL0     H63062  11.040   4.066  -0.262 -1.7806  0.3627 -0.2581
  478MOL0     H63063  10.992   4.187  -0.383 -0.2117  1.2069  2.7540
  478MOL0     H63064  11.221   4.181  -0.403  0.6212 -0.3500 -0.6389
  478MOL0     H63065  11.175   4.086  -0.546 -1.4678  0.7363 -0.3584
  478MOL0     H63066  11.213   3.880  -0.391  0.3343  0.4967 -2.7099
  478MOL0     H63067  11.283   4.013  -0.277 -1.1104  2.0227 -0.0803
  478MOL0     H63068  11.442   3.879  -0.414  0.4439 -0.3336  0.2226
  478MOL0     H63069  11.359   3.921  -0.558  1.0230 -4.9216  1.1561
  478MOL0     H63070  11.455   4.157  -0.378  2.8574  0.5603  0.4801
  478MOL0     H63071  11.423   4.140  -0.557 -2.2312 -0.6653 -0.0089
  478MOL0     H63072  11.639   4.033  -0.587  2.3475 -0.8721  0.6655
  478MOL0     H63073  11.651   4.002  -0.418 -4.1056 -0.8639  2.2931
  478MOL0     H63074  11.725   4.254  -0.574  0.9541  1.8060  0.7669
  478MOL0     H63075  11.637   4.286  -0.418  0.6994  1.4583 -1.8201
  478MOL0     H63076  11.794   4.157  -0.294 -2.4439  2.2823  0.2609
  478MOL0     H63077  11.866   4.300  -0.388 -2.5854  0.7640 -0.2123
  478MOL0     H63078  10.816   4.208  -0.486  0.3482  0.2118 -1.1383
  478MOL0     H63079  10.573   4.214  -0.526 -0.1818 -1.4271 -3.5514
  478MOL0     H63080  10.131   4.168  -0.154 -0.4074 -2.5144  1.8572
  478MOL0     H63081   9.886   4.174  -0.178  0.5190  0.8139 -0.5761
  478MOL0     H63082   8.332   3.657   0.709 -1.1415 -2.7536 -0.3270
  478MOL0     H63083   8.108   3.596   0.669  0.4321 -1.6501 -0.4640
  478MOL0     H63084   7.713   3.702   0.513  1.9880 -1.1944 -0.8382
  478MOL0     H63085   7.459   3.687   0.508  2.4053  0.0672  3.1473
  478MOL0     H63086   7.258   3.760   0.404 -2.9106  0.9221 -0.5792
  478MOL0     H63087   7.263   3.609   0.492 -0.5203  0.0510 -0.7622
  478MOL0     H63088   7.071   3.637   0.256  0.7513  1.5587 -0.5309
  478MOL0     H63089   7.069   3.522   0.386 -3.2881  0.6423  0.0137
  478MOL0     H63090   7.044   3.759   0.519  0.5545 -1.0647 -0.0076
  478MOL0     H63091   6.916   3.642   0.489  0.2579  0.3002  1.5427
  478MOL0     H63092   6.885   3.760   0.258  2.1179  0.2554 -0.6241
  478MOL0     H63093   6.808   3.844   0.398  0.1632  4.6270 -0.4925
  478MOL0     H63094   7.063   4.141   0.288 -0.7865 -0.2814  4.0008
  478MOL0     H63095   7.482   3.515   0.119 -3.5206  2.0532  0.4532
  478MOL0     H63096   7.730   3.492   0.150 -2.7754  1.3096 -3.4418
  479MOL0     O63097   1.386   4.372   9.512 -0.3393 -0.6651  0.0837
  479MOL0     C63098   1.377   4.483   9.466  0.3678  0.5327  0.0365
  479MOL0     O63099   1.258   4.552   9.440  0.6229 -0.0050  0.1914
  479MOL0     C63100   1.136   4.500   9.452 -0.5314  1.1969  0.1381
  479MOL0     C63101   1.101   4.371   9.406  0.3139 -0.0185 -0.1822
  479MOL0     C63102   0.969   4.330   9.397 -0.1787  0.2219  0.8828
  479MOL0     C63103   0.859   4.417   9.421  0.5952 -0.3720 -0.4557
  479MOL0     O63104   0.720   4.378   9.421 -1.1416 -0.5773  0.5626
  479MOL0     C63105   0.684   4.250   9.472 -0.6180 -0.2982  0.7133
  479MOL0     C63106   0.620   4.157   9.365  0.8090 -0.8821 -1.0838
  479MOL0     C63107   0.485   4.212   9.313 -0.1881 -0.0967  0.0115
  479MOL0     C63108   0.429   4.146   9.183 -0.2827 -0.2798  0.1029
  479MOL0     C63109   0.306   4.214   9.129 -0.1262 -0.2644 -0.5692
  479MOL0     C63110   0.333   4.304   9.009  1.3358 -0.1349 -0.2906
  479MOL0     C63111   0.204   4.335   8.927 -0.3452 -0.1155 -0.8948
  479MOL0     C63112   0.232   4.395   8.789 -0.3575 -0.1425  0.1122
  479MOL0     N63113   0.114   4.423   8.708  0.5415  0.5265 -1.0145
  479MOL0     C63114   0.029   4.341   8.633 -1.0357 -0.1623 -0.2476
  479MOL0     C63115  -0.079   4.412   8.614  0.9792 -0.6628 -0.3088
  479MOL0     C63116  -0.204   4.381   8.531 -0.8397 -0.4235 -0.0810
  479MOL0     C63117  -0.162   4.371   8.384  0.6828  0.6006  0.0453
  479MOL0     C63118  -0.131   4.500   8.315  0.1921  0.3518  0.0228
  479MOL0     C63119  -0.080   4.468   8.170 -0.0675 -0.4292  1.6266
  479MOL0     O63120   0.003   4.363   8.145 -1.0718  0.2855  0.0664
  479MOL0     C63121   0.128   4.350   8.216  0.2344  0.2751 -0.1846
  479MOL0     C63122   0.210   4.242   8.173 -0.1486 -0.0587 -0.1378
  479MOL0     C63123   0.330   4.216   8.242  0.1816 -0.5943  0.9391
  479MOL0     C63124   0.386   4.313   8.325  0.4747  0.5542 -0.0338
  479MOL0     C63125   0.519   4.295   8.384 -0.2975 -0.3247  0.3986
  479MOL0     O63126   0.567   4.401   8.465 -0.8424  0.5305 -0.4378
  479MOL0     C63127   0.700   4.388   8.492  0.5413 -1.4196 -0.5393
  479MOL0     C63128   0.799   4.425   8.398 -0.0471  0.2683 -0.2248
  479MOL0     C63129   0.930   4.386   8.421 -0.0548 -0.8421  0.7414
  479MOL0     C63130   0.971   4.344   8.547 -0.8371  0.2623  0.0273
  479MOL0     O63131   1.103   4.330   8.569  0.7420 -0.1528 -0.2455
  479MOL0     C63132   1.152   4.379   8.693  0.3571  0.4263  0.1634
  479MOL0     C63133   1.309   4.377   8.710  0.8253 -0.0915  0.3193
  479MOL0     C63134   1.372   4.470   8.611 -0.2403  1.3493  0.3148
  479MOL0     C63135   1.529   4.479   8.635 -0.0762 -0.6173 -0.3949
  479MOL0     C63136   1.570   4.627   8.634 -0.6286  0.1266  0.1298
  479MOL0     C63137   1.707   4.670   8.668 -0.4499  0.0133 -0.3731
  479MOL0     C63138   1.736   4.827   8.646  0.7699  1.3331 -0.6829
  479MOL0     C63139   1.877   4.847   8.603 -0.5088  0.6812  0.6926
  479MOL0    Cl63140   1.991   4.788   8.731  0.1196  0.4422  0.2320
  479MOL0     C63141   0.873   4.327   8.650 -0.4585 -0.7209  0.6376
  479MOL0     C63142   0.742   4.345   8.617 -0.3502 -0.1024  0.1632
  479MOL0     O63143   0.585   4.193   8.358 -0.0029 -0.9123  0.0018
  479MOL0     C63144   0.317   4.431   8.344 -0.2388 -0.4665  0.1080
  479MOL0     C63145   0.185   4.441   8.300 -0.3034 -0.6312 -0.7511
  479MOL0     N63146  -0.073   4.530   8.681 -0.5706 -0.7917  0.6375
  479MOL0     N63147   0.038   4.522   8.745 -0.3209  0.1438  0.4887
  479MOL0     C63148   0.898   4.547   9.471  0.5003  0.8014  0.2231
  479MOL0     C63149   1.029   4.585   9.486  0.1393 -1.4312  0.0281
  479MOL0     C63150   1.489   4.575   9.455 -0.3086  0.6823 -0.3367
  479MOL0     C63151   1.469   4.706   9.414 -1.0323 -0.2431 -0.3941
  479MOL0     C63152   1.581   4.787   9.397  0.0542 -0.0399 -0.4722
  479MOL0     C63153   1.711   4.761   9.444 -0.0978 -0.9216  0.6720
  479MOL0     O63154   1.820   4.842   9.437 -0.6839 -0.1658  0.4283
  479MOL0     C63155   1.807   4.986   9.415 -0.2477 -0.3845 -0.5823
  479MOL0     C63156   1.952   5.038   9.406  0.0783 -0.1227  0.1595
  479MOL0     C63157   1.973   5.183   9.375 -0.2098  0.1890 -0.3044
  479MOL0     C63158   1.954   5.202   9.221 -0.4093 -0.0097 -0.4676
  479MOL0     C63159   1.978   5.337   9.179 -0.1616 -0.0195 -0.6372
  479MOL0     C63160   1.999   5.460   9.158  0.9924  0.4108 -0.0291
  479MOL0     C63161   1.722   4.626   9.494 -0.4433 -0.7795 -0.0531
  479MOL0     C63162   1.619   4.528   9.491  0.5713 -0.5920 -0.4832
  479MOL0     H63163   1.170   4.301   9.359  0.6841  2.5850 -3.9297
  479MOL0     H63164   0.943   4.226   9.381  2.4091 -0.5358  1.1968
  479MOL0     H63165   0.610   4.261   9.552  0.8696  0.1751  2.0658
  479MOL0     H63166   0.769   4.190   9.505 -1.3531 -0.4791  2.4215
  479MOL0     H63167   0.595   4.066   9.420 -1.9657 -0.0621 -0.8453
  479MOL0     H63168   0.690   4.146   9.282  0.7281  2.6167 -1.7691
  479MOL0     H63169   0.508   4.316   9.289  0.4094  0.1110  1.4040
  479MOL0     H63170   0.412   4.202   9.394  1.2617 -2.1340  1.1504
  479MOL0     H63171   0.508   4.150   9.108  0.2750  0.0132  0.6985
  479MOL0     H63172   0.403   4.043   9.209  0.6008 -0.0893  1.8939
  479MOL0     H63173   0.265   4.279   9.207  1.3334  1.1601 -0.9308
  479MOL0     H63174   0.230   4.141   9.100 -0.6447 -0.2759  0.7291
  479MOL0     H63175   0.406   4.253   8.946 -1.7463 -0.5644 -3.9572
  479MOL0     H63176   0.366   4.405   9.036  0.8370  0.4641 -1.7447
  479MOL0     H63177   0.153   4.239   8.917 -1.6784  0.6128 -1.4090
  479MOL0     H63178   0.130   4.391   8.985 -0.4377 -0.5603 -0.5803
  479MOL0     H63179   0.307   4.331   8.743  2.0856  1.0682  2.1665
  479MOL0     H63180   0.283   4.488   8.817  0.4603 -0.7588  0.7127
  479MOL0     H63181   0.038   4.239   8.596 -1.2512 -0.6639  1.0252
  479MOL0     H63182  -0.279   4.461   8.538 -0.8528 -0.2597 -1.6625
  479MOL0     H63183  -0.254   4.292   8.569 -1.4226 -1.0885 -2.2598
  479MOL0     H63184  -0.226   4.314   8.316 -1.9258  1.3855  1.7108
  479MOL0     H63185  -0.063   4.324   8.383  2.0565  3.3287 -0.1390
  479MOL0     H63186  -0.227   4.550   8.302 -1.0664 -1.7016  0.9894
  479MOL0     H63187  -0.064   4.551   8.385  2.3755 -1.4819 -0.5934
  479MOL0     H63188  -0.022   4.555   8.139 -0.8515 -1.3580 -3.2477
  479MOL0     H63189  -0.167   4.467   8.104  0.6448  0.6202  0.6457
  479MOL0     H63190   0.165   4.171   8.104 -1.3605  2.1283 -1.7126
  479MOL0     H63191   0.388   4.129   8.215  1.9739  0.9627 -0.5317
  479MOL0     H63192   0.773   4.453   8.296 -2.2214 -3.6004 -0.9681
  479MOL0     H63193   1.012   4.402   8.351 -2.8186 -2.1112 -3.1026
  479MOL0     H63194   1.121   4.311   8.773  2.8764 -0.6692  0.3007
  479MOL0     H63195   1.104   4.476   8.711 -1.4413  0.0859 -2.2390
  479MOL0     H63196   1.346   4.275   8.696 -0.2221 -0.4412 -0.0108
  479MOL0     H63197   1.335   4.423   8.806  1.8616  3.7503 -1.5884
  479MOL0     H63198   1.331   4.570   8.624 -0.2048  1.1813  2.0526
  479MOL0     H63199   1.360   4.436   8.508 -1.1332 -1.2517  1.1986
  479MOL0     H63200   1.541   4.452   8.741 -0.5191 -0.8718 -0.4059
  479MOL0     H63201   1.583   4.414   8.565  0.0688 -1.0199  0.0794
  479MOL0     H63202   1.499   4.671   8.705 -0.7077 -1.1638  0.8977
  479MOL0     H63203   1.547   4.658   8.532  0.7968  2.0940  0.3551
  479MOL0     H63204   1.779   4.602   8.622 -0.5883 -0.1790 -0.3037
  479MOL0     H63205   1.711   4.651   8.776 -0.9220 -4.0706 -0.9145
  479MOL0     H63206   1.675   4.867   8.564 -1.3006  0.5648  0.4063
  479MOL0     H63207   1.716   4.888   8.735 -0.4898  1.3853 -0.9821
  479MOL0     H63208   1.898   4.951   8.579 -0.1207  0.0507 -2.0116
  479MOL0     H63209   1.893   4.787   8.513  1.3278 -0.5956  1.7934
  479MOL0     H63210   0.904   4.289   8.747 -0.5291  0.4599  1.1382
  479MOL0     H63211   0.675   4.303   8.692 -0.1053 -0.6870  0.0594
  479MOL0     H63212   0.340   4.514   8.411 -1.1087 -0.6177  0.6051
  479MOL0     H63213   0.138   4.539   8.308 -0.1840 -0.7020  1.5699
  479MOL0     H63214   0.823   4.619   9.503  0.4700  1.8852 -2.0965
  479MOL0     H63215   1.059   4.680   9.529 -0.1101 -1.8284  1.1349
  479MOL0     H63216   1.376   4.758   9.394 -0.0153  2.8626  2.0456
  479MOL0     H63217   1.549   4.876   9.342 -3.0284 -1.5578 -1.3845
  479MOL0     H63218   1.764   5.032   9.505  3.4816  0.5848  0.8831
  479MOL0     H63219   1.750   5.000   9.322  0.2701  1.3815 -0.6714
  479MOL0     H63220   2.013   5.028   9.496  1.2233  0.2253 -0.5514
  479MOL0     H63221   1.999   4.979   9.327 -1.3980  1.9514 -2.4200
  479MOL0     H63222   2.078   5.206   9.396 -0.1944  0.9358 -1.1054
  479MOL0     H63223   1.907   5.248   9.434  2.8198  2.4563  0.8316
  479MOL0     H63224   2.032   5.137   9.180 -0.8642 -2.0277  1.6325
  479MOL0     H63225   1.858   5.166   9.184  1.1352 -0.9119 -4.0273
  479MOL0     H63226   2.013   5.566   9.156  2.0116  0.3286  1.2635
  479MOL0     H63227   1.817   4.597   9.537 -2.0137 -2.0127  2.8731
  479MOL0     H63228   1.644   4.427   9.521  2.3696 -0.2158 -0.5987
  480MOL0     O63229   9.394   3.035   3.359  0.0195  0.4344  0.0448
  480MOL0     C63230   9.381   2.998   3.243  0.2549  0.0522  0.9101
  480MOL0     O63231   9.335   3.073   3.141  0.0295  0.1663 -0.2442
  480MOL0     C63232   9.311   3.209   3.165  0.4205 -0.5030 -0.4520
  480MOL0     C63233   9.417   3.296   3.211  0.8238 -0.0561  0.3896
  480MOL0     C63234   9.401   3.440   3.202 -0.5217  0.4130 -0.1394
  480MOL0     C63235   9.281   3.491   3.149 -1.2072  0.0691 -0.0749
  480MOL0     O63236   9.265   3.629   3.143 -0.8563 -0.8213 -0.8197
  480MOL0     C63237   9.347   3.716   3.229  0.2487  0.9546  0.5224
  480MOL0     C63238   9.326   3.697   3.375  0.2524 -0.3527 -0.9194
  480MOL0     C63239   9.416   3.779   3.467  0.1407 -0.6870 -0.0066
  480MOL0     C63240   9.559   3.723   3.474  0.7112 -0.3290 -0.1686
  480MOL0     C63241   9.636   3.774   3.591  0.0611  0.9294  0.5735
  480MOL0     C63242   9.656   3.921   3.590  0.1277 -0.9592 -0.6549
  480MOL0     C63243   9.744   3.966   3.712  0.5529 -0.0682  1.1123
  480MOL0     C63244   9.779   4.117   3.725 -0.3962 -0.2680 -0.7772
  480MOL0     N63245   9.877   4.136   3.837 -0.7546  0.6749 -0.1010
  480MOL0     C63246   9.875   4.227   3.935 -0.4170  0.6714  0.3904
  480MOL0     C63247   9.988   4.202   4.009 -0.1477  0.3836 -1.0079
  480MOL0     C63248  10.010   4.277   4.141 -0.2210 -0.4239  0.2509
  480MOL0     C63249   9.913   4.242   4.253  0.1310  0.2016 -0.9715
  480MOL0     C63250   9.938   4.338   4.374  0.3195  0.3073 -0.4908
  480MOL0     C63251   9.814   4.327   4.467 -0.6416  0.2396 -0.2836
  480MOL0     O63252   9.716   4.371   4.376  0.2764  0.0918 -0.0609
  480MOL0     C63253   9.582   4.359   4.397  0.4171  0.2024 -0.8329
  480MOL0     C63254   9.498   4.408   4.296 -0.6940 -0.2610  0.1851
  480MOL0     C63255   9.364   4.391   4.294 -0.0221 -1.0770 -0.9384
  480MOL0     C63256   9.299   4.310   4.383  0.6553  0.1513 -0.6025
  480MOL0     C63257   9.158   4.318   4.392  0.0934  0.8454 -0.4584
  480MOL0     O63258   9.096   4.406   4.312 -0.2122 -0.2223  0.3647
  480MOL0     C63259   8.960   4.413   4.295 -0.5098  0.4752  0.2448
  480MOL0     C63260   8.868   4.381   4.402  0.3221 -0.0160 -0.1324
  480MOL0     C63261   8.727   4.383   4.386 -0.5568  0.7397  1.3325
  480MOL0     C63262   8.682   4.416   4.261  0.3052 -0.5184 -0.3066
  480MOL0     O63263   8.540   4.428   4.275  0.0581 -1.1868  0.7345
  480MOL0     C63264   8.498   4.536   4.184  0.1369 -1.0226  1.1117
  480MOL0     C63265   8.349   4.571   4.193  0.7783  0.0655  0.4344
  480MOL0     C63266   8.300   4.606   4.336  0.4769 -0.1059  0.3044
  480MOL0     C63267   8.158   4.658   4.345  0.4991 -0.3743 -0.1708
  480MOL0     C63268   8.141   4.804   4.289 -0.4808 -1.2618  0.5405
  480MOL0     C63269   8.258   4.900   4.323 -0.7626 -0.8119 -0.7247
  480MOL0     C63270   8.223   5.040   4.275 -0.1527  0.0325  0.0198
  480MOL0     C63271   8.309   5.152   4.325  0.0493 -0.0668  0.1623
  480MOL0    Cl63272   8.468   5.136   4.252 -0.0187 -0.6521 -0.1738
  480MOL0     C63273   8.760   4.459   4.161 -0.5424 -0.1300  0.9968
  480MOL0     C63274   8.904   4.452   4.172 -0.0379 -0.7979 -0.0113
  480MOL0     O63275   9.102   4.224   4.452  0.3106 -0.3919  0.0568
  480MOL0     C63276   9.377   4.225   4.468  1.0364 -0.5605 -0.1338
  480MOL0     C63277   9.512   4.264   4.480  1.5895 -0.0993 -0.4739
  480MOL0     N63278  10.059   4.093   3.946 -0.0167  0.1931 -0.6081
  480MOL0     N63279   9.987   4.063   3.845 -0.1686 -0.7826 -0.0120
  480MOL0     C63280   9.181   3.402   3.097 -0.5345 -0.1873  0.4864
  480MOL0     C63281   9.197   3.260   3.102 -0.6193  0.1764 -0.2732
  480MOL0     C63282   9.421   2.862   3.202 -0.4983  1.0371  0.3222
  480MOL0     C63283   9.508   2.788   3.277 -0.5558  0.2087 -0.0507
  480MOL0     C63284   9.546   2.659   3.230 -0.0700 -0.0474  0.4884
  480MOL0     C63285   9.487   2.603   3.114  0.1190  0.1332 -0.2104
  480MOL0     O63286   9.512   2.488   3.055  1.2548 -0.1740  0.1016
  480MOL0     C63287   9.612   2.403   3.112 -0.6868  0.7391  0.6204
  480MOL0     C63288   9.578   2.263   3.066 -0.0187  0.1405  0.2771
  480MOL0     C63289   9.660   2.162   3.147 -0.7415 -0.3348  0.6906
  480MOL0     C63290   9.611   2.012   3.142 -1.0122 -0.0920  0.4877
  480MOL0     C63291   9.605   1.958   3.003 -0.1183  0.3244 -0.5160
  480MOL0     C63292   9.616   1.925   2.887 -0.7213  0.2753 -0.5900
  480MOL0     C63293   9.398   2.686   3.042 -0.2764  0.0213  0.6553
  480MOL0     C63294   9.372   2.817   3.079  0.7766  0.3877 -0.6810
  480MOL0     H63295   9.502   3.241   3.249  1.2521  0.8573  0.7877
  480MOL0     H63296   9.481   3.501   3.244  0.3358 -0.5951 -0.2450
  480MOL0     H63297   9.323   3.817   3.193 -2.4691 -0.2013 -1.1862
  480MOL0     H63298   9.453   3.706   3.207  0.1622 -2.0020  1.1020
  480MOL0     H63299   9.335   3.592   3.405  0.9082 -0.5159 -1.6702
  480MOL0     H63300   9.221   3.721   3.395  0.5360  0.8255 -0.7627
  480MOL0     H63301   9.380   3.781   3.570  0.4929  3.4913  0.2189
  480MOL0     H63302   9.425   3.882   3.432 -2.2697 -1.5167 -3.7381
  480MOL0     H63303   9.556   3.614   3.466  0.2420 -0.2887 -0.6279
  480MOL0     H63304   9.609   3.766   3.386  0.0712 -3.9646 -2.5092
  480MOL0     H63305   9.733   3.724   3.583 -2.3513 -4.5097  1.0252
  480MOL0     H63306   9.587   3.740   3.682  1.4807 -3.7637 -0.1300
  480MOL0     H63307   9.561   3.972   3.606  0.4606  0.1661 -2.0573
  480MOL0     H63308   9.702   3.944   3.493  1.7500 -4.0999 -0.7427
  480MOL0     H63309   9.704   3.926   3.806  1.3161  2.2433  2.5038
  480MOL0     H63310   9.833   3.908   3.688 -0.5936 -2.2319  1.8246
  480MOL0     H63311   9.688   4.178   3.734  0.6890  1.0432  2.4654
  480MOL0     H63312   9.819   4.150   3.629 -1.7542  4.9904  0.1464
  480MOL0     H63313   9.797   4.300   3.951  0.5818  1.4243  2.1385
  480MOL0     H63314  10.000   4.383   4.117 -1.7054  0.2532  3.3728
  480MOL0     H63315  10.114   4.264   4.173  0.3651  1.7999 -0.6081
  480MOL0     H63316   9.943   4.144   4.293 -2.5613  0.0820  1.0913
  480MOL0     H63317   9.808   4.240   4.221 -0.4807  1.7807  0.7423
  480MOL0     H63318  10.027   4.314   4.432 -0.7103  0.5316  1.2457
  480MOL0     H63319   9.950   4.444   4.349 -0.2374  0.9087  1.6205
  480MOL0     H63320   9.826   4.389   4.556  0.5573 -1.2756  0.6561
  480MOL0     H63321   9.808   4.223   4.501  2.6855  0.1393  0.3611
  480MOL0     H63322   9.531   4.482   4.223 -0.6653 -2.6082 -2.3355
  480MOL0     H63323   9.307   4.444   4.218 -0.7362  2.9739  2.0626
  480MOL0     H63324   8.904   4.352   4.500  1.3628 -0.0181 -0.5053
  480MOL0     H63325   8.652   4.358   4.460 -1.6073  2.0040  0.7428
  480MOL0     H63326   8.502   4.514   4.077 -2.7765 -0.1510  0.7337
  480MOL0     H63327   8.557   4.624   4.211 -1.8579  0.0672  2.1703
  480MOL0     H63328   8.297   4.487   4.146  2.1260  0.1817 -1.3783
  480MOL0     H63329   8.333   4.654   4.124 -0.7616  1.5907  2.5033
  480MOL0     H63330   8.372   4.677   4.380  1.4515  0.9821 -2.7996
  480MOL0     H63331   8.303   4.514   4.395 -0.9543  0.0690  0.6831
  480MOL0     H63332   8.088   4.591   4.295 -1.5325  1.0491  0.6135
  480MOL0     H63333   8.129   4.665   4.451  0.5453 -0.1090 -0.1755
  480MOL0     H63334   8.041   4.844   4.310 -0.9578 -1.0145 -1.9409
  480MOL0     H63335   8.147   4.794   4.180 -0.4385 -0.6237  0.4822
  480MOL0     H63336   8.357   4.872   4.286  1.6475  4.2626  1.0692
  480MOL0     H63337   8.268   4.898   4.432 -0.9656  2.5642 -0.5512
  480MOL0     H63338   8.225   5.029   4.166  1.1071 -0.2278  0.0452
  480MOL0     H63339   8.120   5.048   4.308 -0.5857  1.2317 -1.4949
  480MOL0     H63340   8.319   5.147   4.434  1.9697  2.3502  0.1722
  480MOL0     H63341   8.252   5.244   4.305 -2.6995 -1.1399  2.3725
  480MOL0     H63342   8.722   4.498   4.068  0.6408 -0.6873  0.2508
  480MOL0     H63343   8.969   4.498   4.098 -0.9245 -0.3885 -0.5413
  480MOL0     H63344   9.345   4.141   4.529  1.9192 -2.0699 -1.6588
  480MOL0     H63345   9.579   4.223   4.554  2.3766 -2.7014 -2.4747
  480MOL0     H63346   9.096   3.449   3.048 -1.5994 -0.9495  1.5408
  480MOL0     H63347   9.121   3.190   3.068  0.6267 -1.3968  0.0642
  480MOL0     H63348   9.552   2.833   3.365  0.9158  2.0223 -1.6522
  480MOL0     H63349   9.620   2.600   3.283  0.0688  0.0210  0.3727
  480MOL0     H63350   9.612   2.413   3.221  0.0651  1.5665  0.5519
  480MOL0     H63351   9.707   2.431   3.066 -0.6188 -1.1220 -0.4850
  480MOL0     H63352   9.473   2.235   3.070 -0.3469  0.5037 -3.0162
  480MOL0     H63353   9.608   2.248   2.962 -1.0027  1.0042 -0.1428
  480MOL0     H63354   9.647   2.203   3.248 -2.5623 -0.9775  0.7558
  480MOL0     H63355   9.765   2.166   3.117 -0.5451 -2.2697  0.9884
  480MOL0     H63356   9.681   1.948   3.197  0.2383 -1.7215 -2.6986
  480MOL0     H63357   9.512   1.986   3.179 -2.8538 -0.5663 -4.1287
  480MOL0     H63358   9.635   1.904   2.784  0.9703 -1.8596  0.0754
  480MOL0     H63359   9.338   2.636   2.967  2.3533  0.2344 -1.7513
  480MOL0     H63360   9.298   2.871   3.021  0.9404  1.7103  0.2828
  481MOL0     O63361   7.988   3.008   9.617 -1.0154  0.8468 -0.1455
  481MOL0     C63362   8.004   3.023   9.739 -0.0094  0.3604 -0.4024
  481MOL0     O63363   7.912   2.995   9.840  0.3251 -0.2090  0.2237
  481MOL0     C63364   7.786   2.953   9.820  0.1011  0.0112  0.4017
  481MOL0     C63365   7.699   3.042   9.747 -0.2948  0.9908 -0.5158
  481MOL0     C63366   7.564   3.000   9.732  0.3702 -0.1071 -0.1165
  481MOL0     C63367   7.522   2.866   9.768 -0.6899 -0.5216 -0.0546
  481MOL0     O63368   7.399   2.813   9.736  0.7085 -0.1402  0.1383
  481MOL0     C63369   7.286   2.894   9.709 -0.4183 -0.1489  0.3051
  481MOL0     C63370   7.162   2.801   9.692 -0.4071  0.0340 -0.4776
  481MOL0     C63371   7.039   2.894   9.666  0.1654  0.0085 -0.7195
  481MOL0     C63372   6.913   2.811   9.657  0.0235 -0.0244 -0.3476
  481MOL0     C63373   6.792   2.913   9.650  0.4926 -0.0969 -0.2309
  481MOL0     C63374   6.660   2.846   9.623  0.5204  0.0508 -0.8674
  481MOL0     C63375   6.598   2.788   9.759 -0.0194 -0.7803  0.4650
  481MOL0     C63376   6.461   2.728   9.726  0.8164  0.7968  0.1743
  481MOL0     N63377   6.471   2.617   9.632  0.9953  0.5124 -0.4888
  481MOL0     C63378   6.477   2.480   9.667 -0.2021 -0.1201  0.6056
  481MOL0     C63379   6.449   2.415   9.546 -0.3457 -0.4185 -0.4455
  481MOL0     C63380   6.436   2.264   9.520 -0.2276  0.5774 -0.2826
  481MOL0     C63381   6.573   2.190   9.536  0.2530  0.4956 -0.2374
  481MOL0     C63382   6.567   2.039   9.585  0.1792  0.6232 -0.9783
  481MOL0     C63383   6.479   1.942   9.506  1.0146  0.6581 -0.5396
  481MOL0     O63384   6.342   1.957   9.548 -0.4482  0.2057 -0.0757
  481MOL0     C63385   6.246   1.916   9.462  0.9884 -0.7259 -0.1439
  481MOL0     C63386   6.261   1.880   9.321 -0.0594 -0.1171 -1.2881
  481MOL0     C63387   6.148   1.854   9.244  0.1917  0.2789  1.2114
  481MOL0     C63388   6.016   1.858   9.283 -0.7639 -0.3320 -0.2631
  481MOL0     C63389   5.902   1.804   9.201  0.4733  0.4923 -0.3941
  481MOL0     O63390   5.813   1.722   9.268 -1.2346 -0.1421 -1.2799
  481MOL0     C63391   5.691   1.708   9.210 -0.0381 -0.0116  0.0560
  481MOL0     C63392   5.597   1.814   9.225  0.4345  0.3448  0.3111
  481MOL0     C63393   5.469   1.814   9.159 -0.6001  0.7646 -0.6859
  481MOL0     C63394   5.436   1.705   9.089  0.3027  0.7647 -0.1890
  481MOL0     O63395   5.325   1.722   9.019  0.2652  0.7255 -0.0510
  481MOL0     C63396   5.277   1.603   8.947  0.5274 -0.3905  0.6984
  481MOL0     C63397   5.137   1.615   8.883 -0.2492 -0.0973  0.5288
  481MOL0     C63398   5.132   1.750   8.804  0.2643 -0.6078  1.0009
  481MOL0     C63399   4.993   1.772   8.751 -0.0138 -0.1362  0.9246
  481MOL0     C63400   4.998   1.883   8.631  0.2826  0.5593 -1.4119
  481MOL0     C63401   4.856   1.877   8.564 -0.9280  0.6863  0.7241
  481MOL0     C63402   4.742   1.924   8.652  0.2311 -0.1491  0.5283
  481MOL0     C63403   4.608   1.960   8.570 -0.5200  0.9112 -0.3965
  481MOL0    Cl63404   4.577   1.852   8.439  0.0368 -0.2484  0.3199
  481MOL0     C63405   5.518   1.592   9.087 -0.2190 -0.6876 -0.6824
  481MOL0     C63406   5.642   1.588   9.155 -0.3592 -0.0702  0.3578
  481MOL0     O63407   5.902   1.833   9.084 -0.7455  0.8021  0.3039
  481MOL0     C63408   6.003   1.879   9.417 -0.0859  0.3753 -0.9466
  481MOL0     C63409   6.108   1.914   9.513 -0.2775  1.1705  0.3501
  481MOL0     N63410   6.446   2.511   9.451  0.0364  0.2687 -0.1741
  481MOL0     N63411   6.463   2.630   9.494 -0.6438  0.2072 -0.8492
  481MOL0     C63412   7.610   2.796   9.851 -0.2254 -0.0726  0.6867
  481MOL0     C63413   7.736   2.837   9.874 -0.7983 -0.5829 -0.5600
  481MOL0     C63414   8.138   3.058   9.780 -1.1025 -0.3944 -0.7128
  481MOL0     C63415   8.194   3.001   9.895 -0.1864 -0.3266  0.0237
  481MOL0     C63416   8.326   3.033   9.922 -0.0402  1.1758 -0.0575
  481MOL0     C63417   8.406   3.101   9.836 -0.0478  0.3088  0.1936
  481MOL0     O63418   8.535   3.136   9.876 -0.3292  0.3256 -0.1142
  481MOL0     C63419   8.643   3.101   9.788 -0.6862 -0.3943  0.3093
  481MOL0     C63420   8.707   2.961   9.835  0.1182  0.0421 -0.6928
  481MOL0     C63421   8.845   2.934   9.778 -0.0244 -0.0488 -0.0656
  481MOL0     C63422   8.830   2.876   9.634  0.5838 -0.2093 -1.0503
  481MOL0     C63423   8.974   2.851   9.586  0.8801 -0.9386 -0.1222
  481MOL0     C63424   9.079   2.820   9.548  0.1393  0.1272  0.0717
  481MOL0     C63425   8.353   3.155   9.721 -0.4000 -0.1212 -0.2564
  481MOL0     C63426   8.218   3.137   9.699 -0.6241 -0.7301 -1.0772
  481MOL0     H63427   7.742   3.134   9.710  0.0435  1.0452  0.0077
  481MOL0     H63428   7.498   3.065   9.675  0.4217 -1.5899 -1.9375
  481MOL0     H63429   7.307   2.949   9.617 -0.0956 -2.1293 -0.8685
  481MOL0     H63430   7.269   2.970   9.785  0.8030 -1.1967  1.6984
  481MOL0     H63431   7.162   2.757   9.792  2.3973 -0.2409 -0.5214
  481MOL0     H63432   7.177   2.725   9.615 -0.0308 -0.1946 -0.1774
  481MOL0     H63433   7.057   2.936   9.566  3.2088 -0.3480 -0.4283
  481MOL0     H63434   7.031   2.975   9.739 -2.5051  0.2957 -1.2586
  481MOL0     H63435   6.913   2.753   9.564 -1.7095 -1.3943  0.4439
  481MOL0     H63436   6.886   2.749   9.743 -1.8564 -2.3178 -2.4305
  481MOL0     H63437   6.809   2.973   9.560  0.2882 -0.6997 -0.6777
  481MOL0     H63438   6.784   2.984   9.732 -1.9835 -0.6077  0.0427
  481MOL0     H63439   6.675   2.767   9.549 -1.1917  0.3832 -1.6164
  481MOL0     H63440   6.586   2.913   9.579 -1.3482 -2.1584 -1.2947
  481MOL0     H63441   6.661   2.714   9.809  0.8476 -0.4000 -0.0543
  481MOL0     H63442   6.574   2.869   9.828  0.2339  0.2352 -0.6225
  481MOL0     H63443   6.393   2.806   9.689  0.4194  0.5673  0.4200
  481MOL0     H63444   6.416   2.675   9.810 -2.9274  0.7996 -1.6262
  481MOL0     H63445   6.494   2.436   9.765  3.6234  4.0411  2.1780
  481MOL0     H63446   6.402   2.254   9.416 -0.0147 -1.3100 -0.1993
  481MOL0     H63447   6.370   2.212   9.590 -0.6555  0.6467 -0.6339
  481MOL0     H63448   6.635   2.239   9.611  2.5851 -1.2557 -0.9222
  481MOL0     H63449   6.626   2.204   9.442 -0.1711  1.2120 -0.3784
  481MOL0     H63450   6.668   2.005   9.608 -0.2916  0.7149  1.4148
  481MOL0     H63451   6.521   2.038   9.684 -1.5363 -0.3742 -1.7391
  481MOL0     H63452   6.507   1.838   9.526 -1.2665  0.0060 -0.4106
  481MOL0     H63453   6.494   1.975   9.403 -0.1777  0.0689 -0.9240
  481MOL0     H63454   6.358   1.876   9.272  0.0026 -2.3375 -1.0943
  481MOL0     H63455   6.155   1.823   9.140 -1.0519 -3.5141  2.0901
  481MOL0     H63456   5.626   1.908   9.271  0.0656  1.0994 -0.9441
  481MOL0     H63457   5.410   1.904   9.170  0.5226  1.6247 -1.4400
  481MOL0     H63458   5.277   1.526   9.026 -1.3853  0.5927  1.7111
  481MOL0     H63459   5.349   1.573   8.871  0.7299  0.7785  0.4126
  481MOL0     H63460   5.060   1.610   8.961  0.3587 -1.3726  1.0630
  481MOL0     H63461   5.122   1.527   8.819 -0.3755 -1.5770  2.4958
  481MOL0     H63462   5.207   1.761   8.725  1.9464 -0.9550  2.4993
  481MOL0     H63463   5.156   1.839   8.863  1.6891 -0.5645  0.3796
  481MOL0     H63464   4.949   1.677   8.723 -1.8075  0.8830  0.1266
  481MOL0     H63465   4.934   1.798   8.840 -0.6122 -2.9867  1.4320
  481MOL0     H63466   5.066   1.855   8.550  1.8015  1.6007 -0.5465
  481MOL0     H63467   5.026   1.982   8.668 -0.5203 -0.3349  1.9285
  481MOL0     H63468   4.849   1.770   8.545 -0.2802  1.1037 -2.4076
  481MOL0     H63469   4.861   1.935   8.471  0.3332 -0.1660  0.2279
  481MOL0     H63470   4.705   1.840   8.712  0.7625 -0.3089  0.6300
  481MOL0     H63471   4.761   2.000   8.728  0.1870 -1.5766  2.0174
  481MOL0     H63472   4.624   2.061   8.532  1.8117  1.0226  0.6698
  481MOL0     H63473   4.525   1.949   8.640 -1.0505  1.0412 -0.9994
  481MOL0     H63474   5.494   1.502   9.032  3.6170 -0.8965 -2.3767
  481MOL0     H63475   5.703   1.498   9.148 -1.5063 -0.9338  1.2451
  481MOL0     H63476   5.914   1.856   9.474  1.6088 -0.9473  1.3668
  481MOL0     H63477   6.083   1.933   9.617 -1.9540  0.6450  0.0831
  481MOL0     H63478   7.563   2.709   9.895 -0.3972  0.2574  1.1689
  481MOL0     H63479   7.800   2.767   9.928  0.2984 -0.5610 -1.7801
  481MOL0     H63480   8.135   2.949   9.969  0.5113  0.0721  0.8682
  481MOL0     H63481   8.380   3.003  10.011 -0.6498 -1.0079 -0.3661
  481MOL0     H63482   8.725   3.173   9.785 -2.7762  2.1137 -0.2053
  481MOL0     H63483   8.609   3.095   9.684  1.6764  0.7018 -0.5915
  481MOL0     H63484   8.720   2.973   9.943  0.8500  1.3315 -0.9030
  481MOL0     H63485   8.643   2.876   9.812 -2.5548  1.1711  1.8844
  481MOL0     H63486   8.904   2.862   9.835  0.0941 -0.0241 -0.1596
  481MOL0     H63487   8.897   3.029   9.767 -1.6879  1.0272  0.8013
  481MOL0     H63488   8.774   2.782   9.626 -0.8375  0.5847 -0.5795
  481MOL0     H63489   8.777   2.946   9.569 -0.3400  0.5545  0.4892
  481MOL0     H63490   9.168   2.782   9.501 -0.8597 -0.1937 -1.6374
  481MOL0     H63491   8.408   3.211   9.646 -0.2044 -2.5707 -2.0379
  481MOL0     H63492   8.165   3.187   9.618 -1.7118 -1.5033 -0.8657
  482MOL0     O63493   4.076  10.242  10.206  0.3784  0.4952 -0.0947
  482MOL0     C63494   3.981  10.165  10.197 -0.2779  0.4366  0.3144
  482MOL0     O63495   3.979  10.056  10.117 -0.3233  0.1299 -0.3443
  482MOL0     C63496   4.095  10.030  10.046  0.4956 -1.1604  0.5155
  482MOL0     C63497   4.185   9.955  10.123 -0.0937 -0.3099  0.1397
  482MOL0     C63498   4.310   9.922  10.058 -0.2711  0.6514 -0.8555
  482MOL0     C63499   4.333   9.956   9.926 -0.5742  0.2234 -0.4483
  482MOL0     O63500   4.451   9.912   9.859 -0.0449  0.1534 -0.3153
  482MOL0     C63501   4.443   9.776   9.808  0.2362  0.2026  0.5557
  482MOL0     C63502   4.551   9.744   9.706 -0.3008  0.4665  0.1908
  482MOL0     C63503   4.544   9.590   9.666  0.2827 -0.9390  0.3074
  482MOL0     C63504   4.641   9.546   9.553 -0.8102 -0.0184 -0.2970
  482MOL0     C63505   4.622   9.395   9.512 -0.4993 -0.5052  0.3630
  482MOL0     C63506   4.637   9.289   9.618 -0.0792  0.8853 -0.4111
  482MOL0     C63507   4.750   9.327   9.723 -0.7820 -0.7408  0.5183
  482MOL0     C63508   4.758   9.224   9.836 -0.5776  0.7660 -0.3942
  482MOL0     N63509   4.854   9.259   9.931 -0.5120  0.1225 -0.5936
  482MOL0     C63510   4.974   9.196   9.949  0.0305 -0.1757 -0.4306
  482MOL0     C63511   5.028   9.256  10.064 -0.0769 -0.0734  0.1084
  482MOL0     C63512   5.152   9.207  10.134 -0.1468 -0.1133  0.1992
  482MOL0     C63513   5.175   9.261  10.268 -0.1803 -0.7018 -0.3564
  482MOL0     C63514   5.273   9.178  10.354  0.4924 -0.9769 -0.2156
  482MOL0     C63515   5.410   9.163  10.285  0.6964  0.8506 -0.5657
  482MOL0     O63516   5.498   9.068  10.336  0.1645 -0.0527 -0.1839
  482MOL0     C63517   5.559   9.095  10.454 -0.9545 -0.0433 -0.5131
  482MOL0     C63518   5.630   8.992  10.525  0.6812 -1.2277 -0.7554
  482MOL0     C63519   5.704   9.014  10.641  0.0999  0.3232  0.4127
  482MOL0     C63520   5.698   9.137  10.699 -0.1900 -0.8524  0.1785
  482MOL0     C63521   5.774   9.154  10.826  0.7205  0.1091  1.1828
  482MOL0     O63522   5.768   9.274  10.881 -0.0543  0.6863 -0.3092
  482MOL0     C63523   5.843   9.305  11.000 -1.4030 -0.5851  0.4351
  482MOL0     C63524   5.980   9.257  11.018  0.1108 -0.2370 -0.2760
  482MOL0     C63525   6.043   9.263  11.141 -0.4978  0.4910  0.3348
  482MOL0     C63526   5.983   9.323  11.253 -0.1739 -0.1529 -0.0038
  482MOL0     O63527   6.045   9.326  11.378  0.3008 -0.2779  0.3387
  482MOL0     C63528   6.177   9.276  11.388 -0.1991  0.4888 -0.2273
  482MOL0     C63529   6.236   9.312  11.534  1.3399  0.4136  0.5189
  482MOL0     C63530   6.386   9.264  11.547 -0.2897 -1.0676  0.3803
  482MOL0     C63531   6.433   9.345  11.665  0.4385 -0.9923 -0.6839
  482MOL0     C63532   6.559   9.284  11.723  0.1506  0.4330 -0.2723
  482MOL0     C63533   6.661   9.255  11.606 -0.0355 -0.4654  0.7046
  482MOL0     C63534   6.800   9.244  11.664 -0.1512  0.6321  0.1792
  482MOL0     C63535   6.873   9.125  11.580 -1.1429  0.3110  0.3763
  482MOL0    Cl63536   7.041   9.130  11.631  0.1090 -0.6352 -0.6387
  482MOL0     C63537   5.847   9.374  11.235  0.0953  0.9912 -0.2943
  482MOL0     C63538   5.785   9.367  11.111  0.4814  0.2820  0.6561
  482MOL0     O63539   5.814   9.050  10.886 -0.6962  0.2967 -0.4315
  482MOL0     C63540   5.629   9.243  10.636  0.0085  1.2200 -0.0123
  482MOL0     C63541   5.566   9.228  10.509  0.7397 -0.5297 -0.0961
  482MOL0     N63542   4.928   9.334  10.116  0.3943 -0.0526 -0.1114
  482MOL0     N63543   4.828   9.338  10.036  0.5804 -0.3388  0.1884
  482MOL0     C63544   4.242  10.034   9.860  0.6858 -0.1070 -0.3172
  482MOL0     C63545   4.118  10.071   9.913 -0.1452 -0.2355 -0.8327
  482MOL0     C63546   3.867  10.180  10.275 -0.2017  0.6467 -0.2623
  482MOL0     C63547   3.863  10.289  10.364  0.2792  0.4250 -0.6513
  482MOL0     C63548   3.747  10.318  10.435 -0.7125 -0.3822 -0.1331
  482MOL0     C63549   3.633  10.248  10.429  0.2402  1.5685  1.4753
  482MOL0     O63550   3.519  10.270  10.488  0.3671 -0.2165 -0.0462
  482MOL0     C63551   3.521  10.351  10.603 -0.8840 -0.0679  0.3287
  482MOL0     C63552   3.387  10.369  10.655 -0.4206 -0.4433 -1.0632
  482MOL0     C63553   3.305  10.233  10.653  0.3945 -1.2874  0.1849
  482MOL0     C63554   3.160  10.252  10.706 -0.1141 -0.0525  0.6621
  482MOL0     C63555   3.091  10.123  10.709  0.3717 -0.4588 -0.4392
  482MOL0     C63556   3.045  10.015  10.699  0.8090 -0.1417  0.3774
  482MOL0     C63557   3.639  10.128  10.351 -1.2183 -0.6259 -0.3534
  482MOL0     C63558   3.754  10.101  10.272  1.0585  0.1955 -0.0805
  482MOL0     H63559   4.160   9.926  10.225 -0.7505  1.6044  0.5491
  482MOL0     H63560   4.371   9.857  10.120 -1.1197 -0.8260 -1.5330
  482MOL0     H63561   4.349   9.767   9.751 -0.0817  3.3059  0.3906
  482MOL0     H63562   4.454   9.716   9.899 -1.8760 -1.2903 -0.0993
  482MOL0     H63563   4.651   9.761   9.746 -0.9200  2.2162  1.1074
  482MOL0     H63564   4.537   9.809   9.619  1.5892 -0.2530 -0.7087
  482MOL0     H63565   4.439   9.572   9.640  0.2783  0.9864 -1.2119
  482MOL0     H63566   4.558   9.529   9.756 -0.0308 -2.6084 -0.7380
  482MOL0     H63567   4.640   9.610   9.464 -3.1736  0.5772  0.0952
  482MOL0     H63568   4.745   9.557   9.586 -0.2813 -0.4578 -1.7082
  482MOL0     H63569   4.687   9.363   9.430  1.2279  1.9694  0.6590
  482MOL0     H63570   4.517   9.393   9.478 -0.6330  1.1740  0.5922
  482MOL0     H63571   4.666   9.191   9.580  3.9060  0.1333  3.7352
  482MOL0     H63572   4.539   9.279   9.666 -0.7669  0.8551 -1.7680
  482MOL0     H63573   4.845   9.330   9.669 -1.1702  2.2778 -0.1466
  482MOL0     H63574   4.731   9.425   9.768  2.9012 -0.4443  1.7816
  482MOL0     H63575   4.773   9.122   9.801  1.1257  0.9537 -0.2915
  482MOL0     H63576   4.666   9.224   9.896  0.4929  0.5690  1.3086
  482MOL0     H63577   5.027   9.118   9.895  3.3715  1.8634 -0.3562
  482MOL0     H63578   5.239   9.227  10.071  1.3756 -2.5481  1.3605
  482MOL0     H63579   5.146   9.098  10.143  1.4771 -0.1310  1.5962
  482MOL0     H63580   5.075   9.254  10.314 -0.9143  0.3502 -1.7117
  482MOL0     H63581   5.213   9.363  10.265  1.9150 -1.4095  0.4507
  482MOL0     H63582   5.285   9.226  10.452 -1.2433  0.9413 -0.8593
  482MOL0     H63583   5.226   9.080  10.360  1.9868 -1.6586  1.2124
  482MOL0     H63584   5.462   9.259  10.292  1.5517  0.2839  2.7517
  482MOL0     H63585   5.396   9.149  10.178  1.3506  0.6262 -0.6308
  482MOL0     H63586   5.631   8.889  10.491 -2.7779 -1.3952 -0.6662
  482MOL0     H63587   5.745   8.925  10.687 -0.1189  0.1627  0.3035
  482MOL0     H63588   6.017   9.209  10.928 -5.9313  0.3290 -3.6262
  482MOL0     H63589   6.129   9.196  11.150 -3.1243 -3.2905 -0.0592
  482MOL0     H63590   6.243   9.323  11.316  1.6776  0.0600  1.1464
  482MOL0     H63591   6.174   9.168  11.370 -1.4032  0.3206  0.7830
  482MOL0     H63592   6.180   9.253  11.608  3.1778  0.1659  1.7750
  482MOL0     H63593   6.219   9.418  11.556  1.5949  0.2595  1.4932
  482MOL0     H63594   6.440   9.280  11.453  0.5260  2.8943  1.3120
  482MOL0     H63595   6.392   9.158  11.570 -1.3384 -1.4079 -0.7910
  482MOL0     H63596   6.459   9.449  11.642  3.3124 -1.8463 -1.8202
  482MOL0     H63597   6.354   9.355  11.739  0.0373  5.6012 -1.4331
  482MOL0     H63598   6.545   9.183  11.764  2.2473  1.1384  2.4004
  482MOL0     H63599   6.600   9.355  11.795  0.0095 -1.3074  1.6247
  482MOL0     H63600   6.662   9.345  11.543  3.4836 -2.3779 -2.3776
  482MOL0     H63601   6.626   9.165  11.554 -4.5263 -0.2000  2.8799
  482MOL0     H63602   6.849   9.341  11.651 -2.6393  1.8368 -0.7735
  482MOL0     H63603   6.796   9.218  11.770  2.7570 -3.2816 -0.4446
  482MOL0     H63604   6.856   9.156  11.477 -1.8438 -1.6648 -0.1364
  482MOL0     H63605   6.832   9.026  11.602  0.0564  0.1799  2.3144
  482MOL0     H63606   5.792   9.417  11.318  0.4540  1.1525 -0.1372
  482MOL0     H63607   5.683   9.398  11.091 -0.0774 -2.5286 -1.3575
  482MOL0     H63608   5.622   9.334  10.694 -2.2799 -0.4668  2.6406
  482MOL0     H63609   5.540   9.322  10.462  2.3125 -0.7282 -1.4373
  482MOL0     H63610   4.267  10.062   9.758 -1.5855 -1.0882 -1.1908
  482MOL0     H63611   4.055  10.141   9.859 -2.3811 -2.4774 -1.3175
  482MOL0     H63612   3.941  10.358  10.392 -0.1767 -0.2857  2.7722
  482MOL0     H63613   3.749  10.409  10.494  4.5025 -0.7110  0.7657
  482MOL0     H63614   3.551  10.453  10.576 -1.4090 -0.1350 -0.5562
  482MOL0     H63615   3.585  10.302  10.677  1.3964 -1.2610 -2.2502
  482MOL0     H63616   3.388  10.408  10.757  0.0940 -3.4198  0.1758
  482MOL0     H63617   3.338  10.438  10.585  3.3631  1.0389 -2.5205
  482MOL0     H63618   3.361  10.162  10.715  1.7149 -0.2297  0.2409
  482MOL0     H63619   3.303  10.195  10.551  1.2150 -0.4740 -0.1451
  482MOL0     H63620   3.150  10.288  10.809 -0.5907  2.0039 -0.0417
  482MOL0     H63621   3.094  10.314  10.644 -1.8726 -1.3645  1.1523
  482MOL0     H63622   2.988   9.926  10.682  1.9541 -0.6037 -1.2821
  482MOL0     H63623   3.549  10.067  10.340 -1.1281 -0.3679 -3.2097
  482MOL0     H63624   3.756  10.018  10.202 -3.6228  0.0829 -0.3675
  483MOL0     O63625   9.374   6.655   5.379  0.4212 -0.4283  0.3652
  483MOL0     C63626   9.313   6.756   5.414 -0.0662  0.6760  0.1772
  483MOL0     O63627   9.362   6.864   5.480 -0.6678  0.2582  0.0857
  483MOL0     C63628   9.498   6.856   5.522 -0.3983  0.7555  0.0194
  483MOL0     C63629   9.610   6.857   5.437  0.1001  0.2706 -0.1900
  483MOL0     C63630   9.744   6.863   5.494  0.1143  0.1185  0.5137
  483MOL0     C63631   9.768   6.881   5.630 -0.1798  0.5050 -0.6210
  483MOL0     O63632   9.897   6.881   5.671 -0.0606  0.3383 -0.2513
  483MOL0     C63633   9.923   6.787   5.781  0.8433  0.3375 -0.2455
  483MOL0     C63634  10.079   6.786   5.816  0.8884  0.5514  0.3542
  483MOL0     C63635  10.138   6.916   5.882 -0.0380 -0.4155 -0.4322
  483MOL0     C63636  10.290   6.924   5.896  1.2149 -0.2000  0.5612
  483MOL0     C63637  10.355   7.066   5.892 -0.6592  0.8120  0.5403
  483MOL0     C63638  10.294   7.160   5.996 -0.2641 -0.5318 -1.1712
  483MOL0     C63639  10.330   7.121   6.135 -0.3765 -1.3436  0.6147
  483MOL0     C63640  10.420   7.208   6.223  0.0675 -0.3412 -0.4866
  483MOL0     N63641  10.564   7.203   6.186  0.5816 -0.0960  0.0465
  483MOL0     C63642  10.640   7.095   6.141  0.4631 -1.6512 -0.0238
  483MOL0     C63643  10.730   7.149   6.050 -0.6092  0.7406 -0.7472
  483MOL0     C63644  10.812   7.070   5.948  0.1271  0.6342  0.7976
  483MOL0     C63645  10.883   6.940   6.006  0.3291 -0.3360  0.3435
  483MOL0     C63646  11.034   6.962   6.007 -0.8232  0.1793 -0.6557
  483MOL0     C63647  11.121   6.833   6.046 -0.5856  0.0003  0.3521
  483MOL0     O63648  11.255   6.863   6.056 -0.3973  0.8236  0.3839
  483MOL0     C63649  11.348   6.781   6.111 -0.6549 -0.3207 -0.0740
  483MOL0     C63650  11.340   6.651   6.166 -0.1528 -0.0938  1.1635
  483MOL0     C63651  11.451   6.578   6.227  0.4205 -0.5381  0.5678
  483MOL0     C63652  11.575   6.646   6.235  0.7889  0.0872 -0.2590
  483MOL0     C63653  11.682   6.591   6.308  0.3246  0.4103 -0.5216
  483MOL0     O63654  11.803   6.647   6.283 -0.0978  0.2570 -0.2381
  483MOL0     C63655  11.903   6.605   6.360  0.1447  0.1838  0.1601
  483MOL0     C63656  11.971   6.486   6.330  0.2194  0.8931  0.4090
  483MOL0     C63657  12.084   6.442   6.395  0.7136 -0.3909  0.0142
  483MOL0     C63658  12.149   6.525   6.487 -0.2148 -0.3901 -0.2226
  483MOL0     O63659  12.273   6.489   6.529  0.1815  1.2539  0.7110
  483MOL0     C63660  12.306   6.351   6.559 -0.5688 -0.1647  0.0273
  483MOL0     C63661  12.461   6.335   6.570  0.1198  0.6452  0.2817
  483MOL0     C63662  12.489   6.197   6.618 -0.4285  0.7915 -0.2252
  483MOL0     C63663  12.643   6.179   6.624 -0.3611  0.6681 -0.3162
  483MOL0     C63664  12.673   6.039   6.653  0.1963 -0.0274 -0.9238
  483MOL0     C63665  12.820   6.020   6.691 -0.6190 -0.1964  0.0738
  483MOL0     C63666  12.834   5.878   6.744 -0.3855 -0.8244  0.1563
  483MOL0     C63667  12.977   5.868   6.798  1.2974  0.9696 -1.0296
  483MOL0    Cl63668  12.984   5.722   6.903 -0.2702  0.0544  0.2825
  483MOL0     C63669  12.091   6.650   6.513  0.8962  0.0873  0.1244
  483MOL0     C63670  11.971   6.693   6.445 -0.3153  0.3545 -0.4441
  483MOL0     O63671  11.668   6.486   6.375 -0.4879 -0.5755 -0.1753
  483MOL0     C63672  11.596   6.771   6.168 -0.4856  0.0555  0.2878
  483MOL0     C63673  11.481   6.835   6.112 -0.5358 -0.1960  0.5716
  483MOL0     N63674  10.718   7.281   6.058 -0.3994  0.1609  0.8583
  483MOL0     N63675  10.620   7.316   6.128  0.3820  0.0893  0.0554
  483MOL0     C63676   9.659   6.884   5.713  0.9437  0.9479 -0.3157
  483MOL0     C63677   9.529   6.880   5.656 -0.1754  0.3632  0.0822
  483MOL0     C63678   9.176   6.762   5.353 -0.7339 -0.2493 -0.6759
  483MOL0     C63679   9.095   6.872   5.385  0.3130 -0.3219 -0.5732
  483MOL0     C63680   8.964   6.888   5.333 -1.1291 -0.8343  0.5785
  483MOL0     C63681   8.913   6.786   5.254  0.6668  0.1027  0.0409
  483MOL0     O63682   8.788   6.795   5.187  0.4824  1.1385 -0.9202
  483MOL0     C63683   8.761   6.922   5.125  0.7104  1.5579  0.4065
  483MOL0     C63684   8.667   6.880   5.009  0.0544 -0.2873  0.4571
  483MOL0     C63685   8.643   6.990   4.905 -0.6322 -0.8581 -0.2152
  483MOL0     C63686   8.537   7.088   4.952  0.9987 -0.0089 -0.1007
  483MOL0     C63687   8.414   7.054   4.882  0.7988  0.2157 -0.4862
  483MOL0     C63688   8.300   7.034   4.826 -0.3007  0.0699  0.4140
  483MOL0     C63689   8.987   6.670   5.237  0.1445 -0.3726  0.2516
  483MOL0     C63690   9.123   6.666   5.272  0.5815  0.5327 -0.1609
  483MOL0     H63691   9.615   6.846   5.329 -2.8983 -1.5225 -0.2655
  483MOL0     H63692   9.831   6.863   5.430  0.3892  0.6809  0.8749
  483MOL0     H63693   9.891   6.687   5.750  4.2052 -0.2328 -2.3451
  483MOL0     H63694   9.861   6.819   5.866 -2.5041  1.9625 -3.0323
  483MOL0     H63695  10.131   6.757   5.724 -1.5590 -0.8142 -0.7085
  483MOL0     H63696  10.091   6.700   5.881 -2.8950  0.2458  0.8599
  483MOL0     H63697  10.100   6.933   5.983  0.4296 -0.3176 -0.2693
  483MOL0     H63698  10.104   7.003   5.825 -0.7770 -1.0442 -0.9718
  483MOL0     H63699  10.324   6.863   5.980 -1.3373 -0.2662  1.6453
  483MOL0     H63700  10.326   6.869   5.808  2.9005 -0.7449  1.5374
  483MOL0     H63701  10.339   7.106   5.791 -0.2425  0.3077  0.2706
  483MOL0     H63702  10.464   7.063   5.894 -0.6386  1.7272  1.0772
  483MOL0     H63703  10.185   7.155   5.998 -0.2542 -0.6833 -1.0075
  483MOL0     H63704  10.325   7.265   5.988 -0.1107 -0.3615  1.0633
  483MOL0     H63705  10.233   7.100   6.183  0.3263  1.1828  3.4279
  483MOL0     H63706  10.385   7.027   6.144  2.2292 -0.4300 -3.3332
  483MOL0     H63707  10.403   7.181   6.328  3.0443 -2.0265 -0.3192
  483MOL0     H63708  10.391   7.314   6.218  0.0054 -0.4237 -2.7495
  483MOL0     H63709  10.617   6.990   6.156 -0.1578 -1.2531  2.0465
  483MOL0     H63710  10.884   7.144   5.910  0.3496  0.5111  0.9739
  483MOL0     H63711  10.744   7.052   5.865  0.0206 -1.3389  1.2749
  483MOL0     H63712  10.864   6.867   5.926 -0.1241 -0.9800  1.0369
  483MOL0     H63713  10.845   6.913   6.104 -2.2871  1.1398 -0.1881
  483MOL0     H63714  11.076   7.004   5.915  0.9815 -2.1614 -0.9775
  483MOL0     H63715  11.056   7.035   6.086 -2.6173  0.0152  0.0574
  483MOL0     H63716  11.117   6.750   5.975 -0.9230  1.2008 -1.0968
  483MOL0     H63717  11.083   6.795   6.141 -1.4589  2.3958  1.0542
  483MOL0     H63718  11.243   6.603   6.172 -0.9918  1.6877  2.8292
  483MOL0     H63719  11.442   6.474   6.257  2.4905 -1.3234 -1.2813
  483MOL0     H63720  11.927   6.415   6.260  0.5938 -1.0697  2.0450
  483MOL0     H63721  12.109   6.336   6.388  2.2452 -0.0565  0.1491
  483MOL0     H63722  12.288   6.277   6.480  0.4970 -1.6217  1.1054
  483MOL0     H63723  12.259   6.319   6.652  0.4094  1.5569  1.1581
  483MOL0     H63724  12.513   6.416   6.623 -1.3474  1.9690 -0.2439
  483MOL0     H63725  12.494   6.325   6.466  0.2158 -1.0894  0.4376
  483MOL0     H63726  12.452   6.123   6.547  2.0056 -0.8723  0.1094
  483MOL0     H63727  12.439   6.180   6.713  0.1287  1.9250  0.2854
  483MOL0     H63728  12.682   6.212   6.527  1.0285  1.9335  0.6113
  483MOL0     H63729  12.681   6.237   6.709 -0.3147 -0.9789  0.8324
  483MOL0     H63730  12.644   5.966   6.576  0.3735 -1.2071  0.0973
  483MOL0     H63731  12.612   6.019   6.742 -0.8975  2.7133 -0.9737
  483MOL0     H63732  12.856   6.093   6.764  0.6772 -2.4158  1.7785
  483MOL0     H63733  12.889   6.028   6.606 -2.3460  2.7992 -1.1848
  483MOL0     H63734  12.766   5.867   6.829 -0.6650 -0.5890 -0.0332
  483MOL0     H63735  12.806   5.803   6.669 -1.6029  1.1186 -1.4578
  483MOL0     H63736  12.984   5.959   6.859 -1.1120 -0.3304  1.4263
  483MOL0     H63737  13.059   5.869   6.726  0.0523  0.6745 -2.4848
  483MOL0     H63738  12.152   6.719   6.571 -0.7950 -0.0839  2.2597
  483MOL0     H63739  11.928   6.793   6.449 -1.1521  0.0782 -1.9275
  483MOL0     H63740  11.689   6.828   6.169  0.0151 -0.7431  0.0742
  483MOL0     H63741  11.490   6.935   6.072 -0.8218 -0.5375 -0.3906
  483MOL0     H63742   9.671   6.907   5.819  1.6508  1.1531 -0.4387
  483MOL0     H63743   9.440   6.892   5.717 -0.8962 -1.3877 -0.5315
  483MOL0     H63744   9.131   6.945   5.456  1.9093 -2.1987  0.6411
  483MOL0     H63745   8.917   6.985   5.349  2.5240  1.6183 -1.9807
  483MOL0     H63746   8.851   6.965   5.079 -0.3875  0.9641 -2.5266
  483MOL0     H63747   8.716   6.993   5.195 -1.2481 -2.1046  3.2094
  483MOL0     H63748   8.712   6.798   4.952 -1.7677  0.0120 -1.5598
  483MOL0     H63749   8.573   6.842   5.050 -2.0943 -0.1292 -3.7352
  483MOL0     H63750   8.625   6.950   4.804 -1.5057 -1.1381  0.0355
  483MOL0     H63751   8.735   7.048   4.905 -0.7559 -0.5938  1.7722
  483MOL0     H63752   8.525   7.086   5.061  2.9904  1.9666  0.2414
  483MOL0     H63753   8.558   7.195   4.935 -1.3782  0.4582 -0.3702
  483MOL0     H63754   8.206   7.030   4.774 -0.1820 -1.3722  0.2732
  483MOL0     H63755   8.932   6.605   5.170  0.2488 -1.2362  0.9765
  483MOL0     H63756   9.181   6.580   5.240  1.1777  0.5187  0.9292
  484MOL0     O63757   9.399   4.601   4.961  0.4059 -0.1078 -0.9321
  484MOL0     C63758   9.414   4.624   4.844  0.9326  0.7301  0.6558
  484MOL0     O63759   9.316   4.613   4.741 -0.1683 -0.7739  0.4116
  484MOL0     C63760   9.193   4.568   4.775 -0.1394  0.0407 -1.5054
  484MOL0     C63761   9.090   4.655   4.801 -0.1337  0.5504 -0.3530
  484MOL0     C63762   8.959   4.615   4.812 -0.3816 -0.5176  0.1938
  484MOL0     C63763   8.931   4.474   4.796 -0.1797 -0.7381 -0.5983
  484MOL0     O63764   8.796   4.421   4.787 -0.0224  0.0158  0.2917
  484MOL0     C63765   8.757   4.337   4.899 -0.4530  0.3595 -0.3783
  484MOL0     C63766   8.640   4.244   4.874 -0.1022  0.5734 -0.2040
  484MOL0     C63767   8.515   4.313   4.939 -0.2459 -0.8719  0.4895
  484MOL0     C63768   8.504   4.313   5.090  0.2384  0.1269 -0.3492
  484MOL0     C63769   8.411   4.422   5.141 -0.1341  0.0595  0.7313
  484MOL0     C63770   8.347   4.384   5.279  0.6410 -0.8681  0.6633
  484MOL0     C63771   8.238   4.283   5.255 -0.2003 -0.2497  0.6480
  484MOL0     C63772   8.155   4.254   5.378 -0.5555  0.0956 -0.2673
  484MOL0     N63773   8.216   4.199   5.499  0.3684 -0.1674 -0.1021
  484MOL0     C63774   8.297   4.094   5.496 -0.0995 -0.4021  1.2452
  484MOL0     C63775   8.374   4.091   5.602 -0.8342 -0.0877  1.1716
  484MOL0     C63776   8.491   3.994   5.614  0.1437 -0.0169  0.1633
  484MOL0     C63777   8.623   4.061   5.572 -0.9276 -0.9133 -0.5756
  484MOL0     C63778   8.633   4.081   5.416  0.1886  0.2314 -0.0949
  484MOL0     C63779   8.767   4.144   5.370  0.4848 -0.5767  0.6665
  484MOL0     O63780   8.775   4.124   5.227 -0.2131 -0.3247 -0.6140
  484MOL0     C63781   8.897   4.142   5.163  0.3130  0.7822 -0.4411
  484MOL0     C63782   8.905   4.047   5.063 -0.1315  0.1026 -0.9033
  484MOL0     C63783   9.025   4.033   4.990  0.6246  0.0246  0.7643
  484MOL0     C63784   9.129   4.130   5.005 -0.1270 -0.9139  0.5824
  484MOL0     C63785   9.253   4.114   4.921  0.1566 -0.2920 -0.5424
  484MOL0     O63786   9.361   4.198   4.961  0.7353  0.6216 -0.7732
  484MOL0     C63787   9.475   4.178   4.893  0.2187  0.7824  0.4406
  484MOL0     C63788   9.543   4.055   4.906 -0.4012 -0.2763  0.5871
  484MOL0     C63789   9.676   4.046   4.857 -0.4441  0.4514  0.5456
  484MOL0     C63790   9.746   4.161   4.813 -0.5152 -0.3742  0.9047
  484MOL0     O63791   9.870   4.143   4.757  1.3385 -0.0269 -0.0107
  484MOL0     C63792   9.976   4.153   4.849  0.3180  0.0659  0.2773
  484MOL0     C63793  10.088   4.227   4.783  0.0998 -1.1642  0.2104
  484MOL0     C63794  10.192   4.151   4.696 -0.1836 -0.3662  0.2159
  484MOL0     C63795  10.120   4.054   4.598 -0.1879 -0.3532 -0.6417
  484MOL0     C63796  10.206   3.975   4.500 -0.6123  0.7446 -0.7403
  484MOL0     C63797  10.120   3.898   4.402 -0.2116 -0.7616  0.2765
  484MOL0     C63798  10.214   3.811   4.318  0.2628 -0.3438  0.1373
  484MOL0     C63799  10.139   3.713   4.222 -0.2886  0.5226  0.4840
  484MOL0    Cl63800  10.083   3.577   4.322  0.3302 -0.2379 -0.2406
  484MOL0     C63801   9.680   4.283   4.801 -1.0438  0.0299  0.1497
  484MOL0     C63802   9.543   4.284   4.835  0.7580  0.3356 -0.0862
  484MOL0     O63803   9.259   4.032   4.832  0.3066 -0.4266 -0.7968
  484MOL0     C63804   9.121   4.226   5.113  0.2495  0.4594  0.3843
  484MOL0     C63805   9.003   4.229   5.192  0.5944 -0.2161 -0.4089
  484MOL0     N63806   8.323   4.196   5.677  0.6060  0.3022  0.3014
  484MOL0     N63807   8.226   4.258   5.617 -0.9997  0.1059 -0.4031
  484MOL0     C63808   9.031   4.393   4.764 -0.0372 -0.3711 -0.3102
  484MOL0     C63809   9.168   4.432   4.760  0.1233 -0.3946  0.8658
  484MOL0     C63810   9.544   4.665   4.795 -1.7795  0.4054  0.4529
  484MOL0     C63811   9.641   4.732   4.874 -0.3256  0.3696  0.0009
  484MOL0     C63812   9.763   4.776   4.825 -0.1718  1.0253 -0.2549
  484MOL0     C63813   9.791   4.742   4.685 -0.0628  0.8176  0.2127
  484MOL0     O63814   9.902   4.769   4.614 -0.3003 -0.4694  0.1219
  484MOL0     C63815  10.007   4.828   4.688  0.2988 -0.4563  1.1154
  484MOL0     C63816  10.127   4.837   4.594 -0.2047 -0.0287  0.1866
  484MOL0     C63817  10.244   4.917   4.651  0.3100  1.1953  0.0607
  484MOL0     C63818  10.365   4.918   4.562 -0.8377 -0.4060  0.3451
  484MOL0     C63819  10.480   5.005   4.604  0.0393  0.1757  0.3269
  484MOL0     C63820  10.571   5.074   4.643 -0.7103 -0.1846 -0.0799
  484MOL0     C63821   9.700   4.676   4.610  0.9754  1.4766  1.1946
  484MOL0     C63822   9.578   4.639   4.665 -0.2602  0.5386  0.2040
  484MOL0     H63823   9.119   4.759   4.813  0.8973  0.2948 -0.4874
  484MOL0     H63824   8.876   4.675   4.849 -1.8771 -2.5689  0.3051
  484MOL0     H63825   8.740   4.388   4.994  1.0216  1.3872 -0.6277
  484MOL0     H63826   8.840   4.267   4.916  0.4920  1.2545 -1.1603
  484MOL0     H63827   8.662   4.149   4.922 -0.1336  0.6268 -0.0845
  484MOL0     H63828   8.628   4.244   4.765 -0.1776  1.8489 -0.2193
  484MOL0     H63829   8.427   4.269   4.891 -1.1994  1.3673  0.0563
  484MOL0     H63830   8.504   4.418   4.911 -0.2768 -0.5609  1.6305
  484MOL0     H63831   8.453   4.220   5.117 -1.6825  1.1041 -0.4546
  484MOL0     H63832   8.603   4.321   5.136 -1.1289 -2.7731  3.7979
  484MOL0     H63833   8.333   4.443   5.068  0.5114  2.0532  0.5608
  484MOL0     H63834   8.475   4.510   5.153  1.3096 -0.8620  0.0548
  484MOL0     H63835   8.315   4.479   5.324  3.5907  0.5635 -0.0110
  484MOL0     H63836   8.413   4.355   5.361  3.1437  1.0541 -0.5287
  484MOL0     H63837   8.162   4.309   5.181 -0.3064 -1.2620  0.3805
  484MOL0     H63838   8.286   4.192   5.218  0.4255  1.6233 -3.7952
  484MOL0     H63839   8.072   4.196   5.337 -0.0925 -0.8579  0.1157
  484MOL0     H63840   8.116   4.354   5.401  0.7926  0.6402 -0.2729
  484MOL0     H63841   8.306   4.037   5.404 -1.3197 -0.7290  1.3079
  484MOL0     H63842   8.469   3.908   5.550 -0.0748  0.3105 -0.2089
  484MOL0     H63843   8.490   3.961   5.718 -1.0939  0.0650  0.1967
  484MOL0     H63844   8.708   3.996   5.596  0.5365  0.5470 -1.5215
  484MOL0     H63845   8.637   4.159   5.619 -1.4981 -0.6625 -0.9167
  484MOL0     H63846   8.614   3.986   5.365  2.1506  0.0880 -0.6173
  484MOL0     H63847   8.558   4.158   5.397  0.0762  0.0871 -0.2358
  484MOL0     H63848   8.850   4.107   5.431  1.0933  2.4372  1.8742
  484MOL0     H63849   8.763   4.252   5.388 -1.8928 -0.4427 -0.2685
  484MOL0     H63850   8.829   3.973   5.041  1.5257 -1.1588 -2.7227
  484MOL0     H63851   9.034   3.940   4.934  1.7583  0.4412  0.2236
  484MOL0     H63852   9.487   3.973   4.950 -0.2067 -0.9325 -0.3567
  484MOL0     H63853   9.718   3.946   4.860 -0.0715  0.6114  2.0899
  484MOL0     H63854  10.017   4.054   4.871 -0.5458 -0.0578  1.3587
  484MOL0     H63855   9.955   4.197   4.946  2.0580  2.3638 -0.2811
  484MOL0     H63856  10.151   4.265   4.863  0.0305  4.2051 -1.8645
  484MOL0     H63857  10.053   4.320   4.737  0.9456 -2.2302 -2.8507
  484MOL0     H63858  10.262   4.092   4.756  0.4020 -2.3425 -2.2333
  484MOL0     H63859  10.256   4.231   4.658  1.2192  0.0913  3.2671
  484MOL0     H63860  10.064   3.986   4.663  2.2881 -0.3227  1.7026
  484MOL0     H63861  10.046   4.115   4.546 -1.8917 -0.2203  1.7896
  484MOL0     H63862  10.266   3.905   4.559  1.5290  1.1098 -2.3786
  484MOL0     H63863  10.270   4.043   4.442 -1.7595  1.0345 -1.6944
  484MOL0     H63864  10.064   3.961   4.332 -2.0083 -2.4583  0.0952
  484MOL0     H63865  10.043   3.843   4.457 -0.4739 -0.1865  0.4931
  484MOL0     H63866  10.277   3.875   4.255 -0.0304 -0.2850 -0.0966
  484MOL0     H63867  10.276   3.749   4.384  1.1564 -0.8538 -1.1589
  484MOL0     H63868  10.205   3.687   4.140 -2.5937 -1.7860 -0.7833
  484MOL0     H63869  10.048   3.754   4.178 -1.4353 -2.0428  0.3035
  484MOL0     H63870   9.727   4.371   4.758  1.0670 -1.4000 -0.6393
  484MOL0     H63871   9.498   4.383   4.832  2.4413  1.1599  0.5003
  484MOL0     H63872   9.203   4.296   5.126  1.3556 -0.6603 -0.3056
  484MOL0     H63873   8.986   4.288   5.282 -2.7387 -0.8465 -0.4823
  484MOL0     H63874   9.018   4.292   4.727  0.3586  0.6212 -3.4372
  484MOL0     H63875   9.238   4.351   4.740 -0.8019 -0.4722 -2.7769
  484MOL0     H63876   9.609   4.760   4.974 -4.2203 -0.3848 -0.8594
  484MOL0     H63877   9.842   4.823   4.882 -0.0964  0.5469  0.0452
  484MOL0     H63878  10.038   4.767   4.774 -2.3234 -0.1245  2.3786
  484MOL0     H63879   9.972   4.925   4.723  1.1342  1.0934 -2.0329
  484MOL0     H63880  10.160   4.733   4.589 -0.8582 -0.2926  1.0819
  484MOL0     H63881  10.104   4.870   4.492  1.3665 -1.1975 -0.5971
  484MOL0     H63882  10.282   4.878   4.746  3.4255 -0.6195 -1.7720
  484MOL0     H63883  10.214   5.022   4.652  0.6399  1.2900 -0.0853
  484MOL0     H63884  10.420   4.824   4.560  3.0833  1.6705 -0.8581
  484MOL0     H63885  10.330   4.946   4.462 -1.0460 -3.0000 -0.3864
  484MOL0     H63886  10.659   5.123   4.679 -2.5613  1.9260  1.8798
  484MOL0     H63887   9.725   4.639   4.511 -5.4570 -1.3400  0.1122
  484MOL0     H63888   9.508   4.591   4.596 -0.3127 -0.7727  1.1427
  485MOL0     O63889   4.431  10.603  10.929  0.4423 -0.2118  0.3512
  485MOL0     C63890   4.518  10.687  10.903  0.0803  0.9077  0.1676
  485MOL0     O63891   4.498  10.821  10.874  0.7656  0.6441 -0.2657
  485MOL0     C63892   4.364  10.846  10.842 -0.7367 -0.3286  0.1444
  485MOL0     C63893   4.256  10.847  10.932  0.0316  0.4566  0.3267
  485MOL0     C63894   4.122  10.871  10.895  0.4125 -0.1893 -0.1987
  485MOL0     C63895   4.095  10.914  10.765 -0.4978  0.5808 -0.1527
  485MOL0     O63896   3.979  10.975  10.728  0.0944 -0.3859  0.9389
  485MOL0     C63897   3.850  10.921  10.760 -0.3103  0.5405 -0.4617
  485MOL0     C63898   3.754  11.006  10.689  0.0394 -0.0046 -0.4340
  485MOL0     C63899   3.614  10.961  10.730 -0.0814  0.8565 -0.5456
  485MOL0     C63900   3.579  10.826  10.654 -0.1543 -0.9136 -0.4316
  485MOL0     C63901   3.489  10.739  10.739  0.2627  0.6797  0.3417
  485MOL0     C63902   3.336  10.783  10.741  0.5383  1.1707  0.4616
  485MOL0     C63903   3.264  10.681  10.838 -0.1254 -0.3377 -0.5250
  485MOL0     C63904   3.117  10.671  10.812  0.3379  0.4232  0.4419
  485MOL0     N63905   3.052  10.574  10.898 -0.1853 -0.7469 -1.1219
  485MOL0     C63906   3.046  10.581  11.030 -0.2519  0.2283 -0.1515
  485MOL0     C63907   2.957  10.482  11.068  0.5534 -0.9553  0.0903
  485MOL0     C63908   2.890  10.444  11.194  0.5863  0.4557 -0.0607
  485MOL0     C63909   2.758  10.504  11.194  1.1500 -0.4008  0.1129
  485MOL0     C63910   2.652  10.433  11.274 -0.4156  0.4584  0.0569
  485MOL0     C63911   2.678  10.440  11.426 -0.4903  0.0671  0.1912
  485MOL0     O63912   2.628  10.569  11.467 -0.1230  0.1704 -0.6461
  485MOL0     C63913   2.571  10.597  11.590 -0.1597  0.2699 -0.2770
  485MOL0     C63914   2.558  10.498  11.683 -0.3114 -0.5384 -0.5623
  485MOL0     C63915   2.479  10.521  11.793 -0.7024  1.1238  0.3440
  485MOL0     C63916   2.434  10.655  11.814  0.1475  0.1732  0.9631
  485MOL0     C63917   2.369  10.685  11.947 -0.5318 -0.3181  0.5966
  485MOL0     O63918   2.282  10.587  12.004  0.0503 -0.4303  0.1991
  485MOL0     C63919   2.234  10.620  12.123  0.9504 -0.2429 -0.5968
  485MOL0     C63920   2.098  10.603  12.149 -0.5586 -0.4083  0.1512
  485MOL0     C63921   2.046  10.630  12.272  0.1977 -0.2160 -0.1468
  485MOL0     C63922   2.119  10.673  12.381 -0.6595  0.1747 -0.2611
  485MOL0     O63923   2.049  10.716  12.495 -0.6722 -0.3806  0.7685
  485MOL0     C63924   2.116  10.715  12.623  0.0595 -0.8040  0.0104
  485MOL0     C63925   2.037  10.774  12.729  0.4465  0.2961 -0.1598
  485MOL0     C63926   1.892  10.709  12.729 -0.1677  0.2476  0.3523
  485MOL0     C63927   1.809  10.782  12.836  0.6517  0.5879  0.0650
  485MOL0     C63928   1.679  10.707  12.861 -0.7326  1.2171  0.3964
  485MOL0     C63929   1.613  10.670  12.732  0.4163  0.1392  0.4874
  485MOL0     C63930   1.465  10.650  12.748 -0.7242  0.9061  0.7580
  485MOL0     C63931   1.431  10.512  12.809 -0.4881 -0.3623  0.4326
  485MOL0    Cl63932   1.253  10.509  12.815  0.2204  0.0873  0.1502
  485MOL0     C63933   2.257  10.679  12.365 -0.6419  0.0506 -0.1439
  485MOL0     C63934   2.314  10.644  12.237  1.0829  0.0883  0.0105
  485MOL0     O63935   2.379  10.806  11.980 -0.6154  0.3284 -0.3076
  485MOL0     C63936   2.462  10.760  11.724  0.6696  0.5868 -0.8317
  485MOL0     C63937   2.517  10.722  11.609  1.1262 -0.5759  0.2934
  485MOL0     N63938   2.930  10.410  10.957  0.3216  0.6666 -0.2608
  485MOL0     N63939   2.973  10.471  10.859 -0.8463  0.3550  0.2163
  485MOL0     C63940   4.199  10.906  10.676  0.8600 -1.0768 -0.0401
  485MOL0     C63941   4.338  10.865  10.705  0.4401 -0.6611 -0.0229
  485MOL0     C63942   4.659  10.643  10.920 -0.0201 -0.1771 -0.1424
  485MOL0     C63943   4.690  10.510  10.966 -0.0681 -0.1188  0.0475
  485MOL0     C63944   4.828  10.470  10.952 -0.2396  0.0244 -0.3645
  485MOL0     C63945   4.928  10.553  10.918 -1.1485  0.8125 -0.3483
  485MOL0     O63946   5.056  10.509  10.936 -0.7113  0.6597 -0.1252
  485MOL0     C63947   5.163  10.588  10.882  0.9382  0.8624 -1.0419
  485MOL0     C63948   5.299  10.520  10.906 -0.4331 -1.0792 -0.8576
  485MOL0     C63949   5.329  10.404  10.804 -0.1724  0.7561 -0.8469
  485MOL0     C63950   5.367  10.431  10.656  0.1749  0.8948  0.1733
  485MOL0     C63951   5.474  10.526  10.660  0.8154  0.4629 -0.5892
  485MOL0     C63952   5.554  10.613  10.647 -0.3854 -0.4251  0.1310
  485MOL0     C63953   4.897  10.680  10.876  1.1210  0.2312  1.1820
  485MOL0     C63954   4.759  10.724  10.876 -0.1529 -0.4120  0.7136
  485MOL0     H63955   4.276  10.814  11.033 -1.9298  4.1856  2.1272
  485MOL0     H63956   4.038  10.872  10.963  0.5992  3.8052  0.2372
  485MOL0     H63957   3.829  10.905  10.867 -0.2896 -0.1777 -0.5579
  485MOL0     H63958   3.850  10.817  10.725 -2.1664 -0.4826  2.1909
  485MOL0     H63959   3.768  11.004  10.580 -1.8264 -1.4537 -0.6993
  485MOL0     H63960   3.775  11.105  10.732  1.5118 -0.3767 -0.2370
  485MOL0     H63961   3.536  11.035  10.712  0.4296  1.6823  0.5304
  485MOL0     H63962   3.599  10.948  10.838  0.5299  3.4736 -0.0949
  485MOL0     H63963   3.525  10.857  10.563 -0.6942 -0.9427 -0.1246
  485MOL0     H63964   3.672  10.783  10.617  2.0043  4.3735 -2.1674
  485MOL0     H63965   3.547  10.725  10.831  3.9244  1.2613 -1.6901
  485MOL0     H63966   3.499  10.643  10.686  1.1723  0.0299  1.6467
  485MOL0     H63967   3.303  10.763  10.638  0.8460  0.9090  0.4129
  485MOL0     H63968   3.318  10.886  10.773  0.0680  0.6607  1.9003
  485MOL0     H63969   3.317  10.588  10.816 -3.9427 -2.6766 -0.7282
  485MOL0     H63970   3.278  10.697  10.945  1.3697  2.5605 -1.0478
  485MOL0     H63971   3.101  10.644  10.707 -1.9066 -0.3162  0.9355
  485MOL0     H63972   3.064  10.767  10.811 -3.0796 -1.3260 -0.5140
  485MOL0     H63973   3.088  10.657  11.094 -1.3467 -0.2305  1.1751
  485MOL0     H63974   2.933  10.472  11.291  0.5144 -1.4846  0.5677
  485MOL0     H63975   2.871  10.337  11.186  2.9641  0.0728 -1.8629
  485MOL0     H63976   2.718  10.505  11.092  2.6796 -2.4507 -0.5830
  485MOL0     H63977   2.787  10.602  11.233  0.7244  0.2120 -1.0639
  485MOL0     H63978   2.552  10.464  11.243  0.0192 -0.7926 -2.9484
  485MOL0     H63979   2.658  10.326  11.256  1.5859 -0.6569  5.3544
  485MOL0     H63980   2.778  10.414  11.462 -0.6041  1.0512  1.2823
  485MOL0     H63981   2.620  10.359  11.471  2.7438 -1.4724  1.9316
  485MOL0     H63982   2.612  10.405  11.672 -1.4336 -1.3797  0.7001
  485MOL0     H63983   2.462  10.443  11.867 -1.0687 -1.0084 -1.8546
  485MOL0     H63984   2.036  10.565  12.069 -0.3733  0.2428 -0.3111
  485MOL0     H63985   1.939  10.614  12.287  0.5864 -1.1916  1.8656
  485MOL0     H63986   2.208  10.775  12.617  0.9747 -2.3048 -2.2596
  485MOL0     H63987   2.150  10.612  12.636 -0.0819 -0.8766 -0.1992
  485MOL0     H63988   2.015  10.878  12.703 -1.2934  0.3533  1.3334
  485MOL0     H63989   2.079  10.771  12.829  0.4729 -1.9085 -0.1952
  485MOL0     H63990   1.899  10.600  12.737 -2.8313 -0.3482 -3.1921
  485MOL0     H63991   1.843  10.716  12.631 -0.3491 -2.1771  0.1883
  485MOL0     H63992   1.864  10.793  12.929  2.2510 -0.7720 -0.6581
  485MOL0     H63993   1.780  10.883  12.807  0.0624  0.8994  1.6886
  485MOL0     H63994   1.614  10.770  12.923 -1.6447 -0.8208  1.6098
  485MOL0     H63995   1.699  10.619  12.923  1.7017  1.0125 -0.5825
  485MOL0     H63996   1.656  10.576  12.697 -0.6774 -0.0072 -0.5416
  485MOL0     H63997   1.636  10.745  12.656  0.7384 -0.4319  0.0083
  485MOL0     H63998   1.425  10.734  12.805 -0.1440  1.9740 -0.3516
  485MOL0     H63999   1.421  10.654  12.648  0.3852 -0.2582  0.1982
  485MOL0     H64000   1.469  10.513  12.912 -0.7420  0.5221  0.5310
  485MOL0     H64001   1.469  10.420  12.764  1.3376  0.6892 -0.2773
  485MOL0     H64002   2.329  10.708  12.440 -0.7097  1.9527 -0.7497
  485MOL0     H64003   2.420  10.649  12.218  0.6831 -0.1671 -2.6961
  485MOL0     H64004   2.431  10.863  11.732 -0.7975  0.0046  4.6822
  485MOL0     H64005   2.549  10.804  11.546  0.8835 -0.7067 -0.0037
  485MOL0     H64006   4.174  10.944  10.577 -2.0527  1.5217  1.5209
  485MOL0     H64007   4.418  10.867  10.632  0.3172  2.5011 -0.1814
  485MOL0     H64008   4.618  10.441  11.010  0.0356  1.8667  3.6900
  485MOL0     H64009   4.860  10.370  10.979  0.5176  0.5239  0.6430
  485MOL0     H64010   5.158  10.686  10.929  1.5725  0.5727 -0.3463
  485MOL0     H64011   5.146  10.585  10.774  2.5887 -0.5563 -1.3092
  485MOL0     H64012   5.373  10.600  10.896 -1.8848  0.8102  2.2009
  485MOL0     H64013   5.297  10.490  11.011 -1.3609  0.9426 -0.2427
  485MOL0     H64014   5.247  10.332  10.798  1.1354 -0.7136 -2.4021
  485MOL0     H64015   5.415  10.346  10.841  0.5508  3.6334  2.4316
  485MOL0     H64016   5.404  10.339  10.609 -0.9078  0.5908 -0.1145
  485MOL0     H64017   5.289  10.474  10.592 -0.5135 -1.4128 -0.6507
  485MOL0     H64018   5.628  10.689  10.663 -1.2584  0.8772 -1.7333
  485MOL0     H64019   4.979  10.739  10.836  0.0765 -0.2058 -1.8455
  485MOL0     H64020   4.738  10.825  10.843 -1.8087 -0.0993  2.5507
  486MOL0     O64021  10.392   1.496   5.671  1.2436  0.3535 -0.5155
  486MOL0     C64022  10.454   1.455   5.577  0.3436 -0.2388 -0.1073
  486MOL0     O64023  10.409   1.461   5.449 -0.4990 -0.0034 -0.1959
  486MOL0     C64024  10.289   1.520   5.406  0.3298  0.9160 -0.8092
  486MOL0     C64025  10.203   1.603   5.484  0.6198 -0.5904  0.4515
  486MOL0     C64026  10.079   1.651   5.436  0.6449 -0.7605 -0.3612
  486MOL0     C64027  10.047   1.616   5.299  0.7343  0.2811 -0.2895
  486MOL0     O64028   9.937   1.673   5.230 -0.2863  0.7104 -0.5555
  486MOL0     C64029   9.827   1.734   5.297 -0.9802  0.4207 -0.3800
  486MOL0     C64030   9.724   1.631   5.322  1.0817 -0.5146 -0.3613
  486MOL0     C64031   9.590   1.705   5.334  0.1472  0.5985 -0.6290
  486MOL0     C64032   9.464   1.620   5.352 -0.3236 -0.1264 -0.5623
  486MOL0     C64033   9.336   1.693   5.356 -0.9376 -0.3863  0.0920
  486MOL0     C64034   9.228   1.584   5.376  0.4654  1.1539 -0.3145
  486MOL0     C64035   9.086   1.647   5.392  0.0592 -0.0430  0.9712
  486MOL0     C64036   9.048   1.668   5.533 -0.0843  0.0595  0.0965
  486MOL0     N64037   8.915   1.734   5.542 -0.2403  0.1823  0.1262
  486MOL0     C64038   8.789   1.674   5.521  0.5675  0.0913 -0.5922
  486MOL0     C64039   8.697   1.761   5.557 -1.2121 -0.9759 -0.7249
  486MOL0     C64040   8.560   1.773   5.538  0.7412  1.0031  0.1047
  486MOL0     C64041   8.478   1.747   5.663  0.0603 -0.3022 -0.0047
  486MOL0     C64042   8.401   1.870   5.721  0.0780  0.8014  0.2920
  486MOL0     C64043   8.249   1.848   5.700 -0.1741  0.1296 -0.5299
  486MOL0     O64044   8.173   1.943   5.777 -0.7229 -0.1674 -0.9442
  486MOL0     C64045   8.140   1.916   5.910 -0.6378  0.5078  0.6008
  486MOL0     C64046   8.243   1.929   6.006 -0.6806 -0.9285 -0.1617
  486MOL0     C64047   8.228   1.883   6.134 -0.5453 -0.3547  0.0171
  486MOL0     C64048   8.103   1.830   6.174  0.6327 -0.1858  0.8295
  486MOL0     C64049   8.086   1.791   6.313  0.0707  0.8827  0.0251
  486MOL0     O64050   7.961   1.762   6.357 -0.6479  0.4026  0.2281
  486MOL0     C64051   7.933   1.734   6.487  0.0581  0.6393  0.2675
  486MOL0     C64052   7.809   1.668   6.510 -0.4525 -0.2497 -0.1630
  486MOL0     C64053   7.770   1.635   6.640  0.8597  0.1492  0.2096
  486MOL0     C64054   7.834   1.694   6.748 -0.0086 -0.4906  1.0690
  486MOL0     O64055   7.769   1.677   6.864 -0.0992  0.4773 -0.1035
  486MOL0     C64056   7.850   1.652   6.977  0.9267  1.1912 -0.7745
  486MOL0     C64057   7.753   1.566   7.070 -0.5616 -0.1207  0.3730
  486MOL0     C64058   7.832   1.474   7.157 -1.1672  0.1921 -0.0191
  486MOL0     C64059   7.725   1.382   7.220 -0.4303 -0.4284  0.3505
  486MOL0     C64060   7.753   1.270   7.319  0.0374  0.2582  0.5070
  486MOL0     C64061   7.633   1.179   7.344 -0.3397 -0.0413  0.5903
  486MOL0     C64062   7.650   1.080   7.461  0.2593 -0.3308 -0.0661
  486MOL0     C64063   7.527   1.017   7.509 -0.1389  0.5857  0.2945
  486MOL0    Cl64064   7.580   0.918   7.656 -0.4208 -0.0610 -0.1413
  486MOL0     C64065   7.954   1.758   6.730 -0.1075 -0.3079 -0.7500
  486MOL0     C64066   7.995   1.788   6.599  0.3615  0.6818 -0.0206
  486MOL0     O64067   8.192   1.774   6.372  1.1517  0.3166  0.1504
  486MOL0     C64068   7.994   1.829   6.083 -0.4374  0.5592  0.7689
  486MOL0     C64069   8.020   1.863   5.943  0.2503  0.3169  0.2556
  486MOL0     N64070   8.772   1.867   5.601  0.4171 -0.7551  0.4851
  486MOL0     N64071   8.902   1.847   5.606 -0.2545  0.7643  0.7465
  486MOL0     C64072  10.128   1.529   5.230  0.0031 -0.2038  0.1282
  486MOL0     C64073  10.244   1.482   5.278 -0.1546  0.2406 -0.3633
  486MOL0     C64074  10.596   1.408   5.597  1.9683  0.6960  0.3372
  486MOL0     C64075  10.651   1.409   5.725  0.3784  0.3261  0.1927
  486MOL0     C64076  10.786   1.386   5.746 -0.1558  0.0664  0.4160
  486MOL0     C64077  10.871   1.360   5.645 -0.9568  0.0136  0.5233
  486MOL0     O64078  11.006   1.396   5.657  0.1614  0.2878  0.3757
  486MOL0     C64079  11.118   1.298   5.664 -0.0116 -1.0564  1.4965
  486MOL0     C64080  11.148   1.248   5.809  0.0987 -0.6996  0.6793
  486MOL0     C64081  11.274   1.165   5.820  0.1626  0.4763  0.4731
  486MOL0     C64082  11.261   1.027   5.880  0.1163 -0.7082 -0.7065
  486MOL0     C64083  11.366   0.943   5.823 -1.1851  1.1712  0.4221
  486MOL0     C64084  11.459   0.880   5.774 -0.4506  0.8588 -0.1625
  486MOL0     C64085  10.817   1.354   5.515 -0.4288 -0.2096  0.0136
  486MOL0     C64086  10.684   1.378   5.496 -0.3187  0.8878  0.1056
  486MOL0     H64087  10.225   1.633   5.586  0.2419 -1.7038  0.8733
  486MOL0     H64088  10.027   1.714   5.508  2.2831 -0.8022  0.9171
  486MOL0     H64089   9.783   1.796   5.217 -1.1693 -0.6785 -1.1508
  486MOL0     H64090   9.856   1.798   5.381  1.8302 -0.3646 -0.6282
  486MOL0     H64091   9.743   1.571   5.411  0.3520 -1.0674 -0.5720
  486MOL0     H64092   9.716   1.562   5.238  0.0021 -0.4228 -0.3414
  486MOL0     H64093   9.564   1.762   5.244  1.3523  1.7792 -0.2586
  486MOL0     H64094   9.608   1.780   5.412 -3.4529  0.2769  0.6648
  486MOL0     H64095   9.465   1.553   5.267 -0.7556  2.7916 -3.0515
  486MOL0     H64096   9.471   1.572   5.450 -1.8166  1.8505  0.5831
  486MOL0     H64097   9.316   1.763   5.274  0.1931 -0.3974 -0.2169
  486MOL0     H64098   9.333   1.752   5.448  1.0502 -3.3183  2.2062
  486MOL0     H64099   9.241   1.530   5.470 -1.7538 -0.0916 -0.6558
  486MOL0     H64100   9.231   1.518   5.289  3.3589  0.1612  0.4244
  486MOL0     H64101   9.076   1.733   5.327  2.6100 -3.2713 -4.3888
  486MOL0     H64102   9.009   1.582   5.351 -0.5355  2.4155 -2.1414
  486MOL0     H64103   9.128   1.727   5.580  0.6491  0.5093 -1.6272
  486MOL0     H64104   9.040   1.570   5.580  1.2988  0.1571  0.5818
  486MOL0     H64105   8.760   1.581   5.475  0.8876  0.4373 -1.5218
  486MOL0     H64106   8.515   1.709   5.461  1.8014  1.4359 -0.8949
  486MOL0     H64107   8.545   1.873   5.496 -1.6743 -0.5622 -3.2584
  486MOL0     H64108   8.553   1.734   5.742 -1.6159  2.6469  2.2264
  486MOL0     H64109   8.415   1.658   5.650 -0.1362 -0.1396 -0.1566
  486MOL0     H64110   8.429   1.886   5.825 -0.5925  0.3209  0.5528
  486MOL0     H64111   8.417   1.965   5.670 -1.3975  1.0240  0.1818
  486MOL0     H64112   8.232   1.743   5.728  0.5984  0.3469  0.8082
  486MOL0     H64113   8.228   1.859   5.593  0.0292  1.3625 -0.4607
  486MOL0     H64114   8.330   1.993   5.996 -1.8129  0.4939 -1.3532
  486MOL0     H64115   8.308   1.892   6.207 -1.1552  3.3299  0.4186
  486MOL0     H64116   7.757   1.653   6.416  0.9492  1.2762 -1.2623
  486MOL0     H64117   7.681   1.579   6.667  2.8692 -2.3955  2.0550
  486MOL0     H64118   7.876   1.746   7.027  0.5039  0.3667  1.0610
  486MOL0     H64119   7.938   1.590   6.962  1.0801  0.8767  1.1762
  486MOL0     H64120   7.682   1.512   7.007  0.3490  1.3660 -2.0402
  486MOL0     H64121   7.706   1.636   7.140  1.8619 -0.5702  2.5981
  486MOL0     H64122   7.886   1.536   7.230 -2.5027  0.7590  0.5212
  486MOL0     H64123   7.907   1.431   7.090 -0.3907  0.2931  0.7633
  486MOL0     H64124   7.638   1.436   7.258 -1.8067 -1.5473 -1.0443
  486MOL0     H64125   7.670   1.328   7.142 -4.6469 -0.3579  2.9585
  486MOL0     H64126   7.791   1.316   7.411  0.5282 -0.6449  0.7690
  486MOL0     H64127   7.838   1.216   7.277  2.0553  1.8685  2.2450
  486MOL0     H64128   7.607   1.124   7.253  2.6736 -0.9546  0.1615
  486MOL0     H64129   7.548   1.241   7.372  1.4576  2.6717  0.4129
  486MOL0     H64130   7.726   1.007   7.429  1.4845  1.7932 -2.3422
  486MOL0     H64131   7.699   1.135   7.542 -0.4009  2.2715 -1.3427
  486MOL0     H64132   7.486   0.944   7.437  0.6848  0.6072 -0.2106
  486MOL0     H64133   7.446   1.086   7.534 -1.5084 -0.3933 -1.1623
  486MOL0     H64134   8.015   1.784   6.816 -4.7033  1.7720  2.2928
  486MOL0     H64135   8.087   1.841   6.577 -1.0859  1.8953 -3.9984
  486MOL0     H64136   7.894   1.795   6.106 -0.2460 -0.4859  0.1117
  486MOL0     H64137   7.939   1.854   5.872 -1.6880  0.0605  2.3671
  486MOL0     H64138  10.112   1.512   5.124 -1.8313  3.3767 -0.3019
  486MOL0     H64139  10.307   1.425   5.210  4.3259  2.7745  1.2030
  486MOL0     H64140  10.584   1.412   5.810 -2.0505 -1.7777 -1.4971
  486MOL0     H64141  10.828   1.386   5.846 -0.6230 -3.7758  0.7980
  486MOL0     H64142  11.206   1.355   5.631 -0.2908  0.7694  3.6607
  486MOL0     H64143  11.093   1.225   5.586 -2.6637  1.0695  0.1682
  486MOL0     H64144  11.152   1.341   5.866  0.3657  0.8788 -1.7740
  486MOL0     H64145  11.059   1.191   5.837 -1.8429  0.9792 -1.6147
  486MOL0     H64146  11.356   1.212   5.875  0.8070 -0.6339  0.4826
  486MOL0     H64147  11.305   1.148   5.717 -0.0212  2.7668 -0.0077
  486MOL0     H64148  11.263   1.036   5.989 -0.3241  0.3521 -0.7700
  486MOL0     H64149  11.166   0.980   5.852 -0.7326  0.6110 -0.1183
  486MOL0     H64150  11.544   0.840   5.723  0.3992  1.9827  0.3297
  486MOL0     H64151  10.886   1.347   5.432 -0.8795 -1.8673 -0.2421
  486MOL0     H64152  10.664   1.374   5.389  0.4723  0.7426 -0.0383
  487MOL0     O64153   5.525   5.732   5.412 -0.1837 -0.5370  0.3034
  487MOL0     C64154   5.618   5.651   5.410 -0.3043 -0.6484 -0.2154
  487MOL0     O64155   5.601   5.518   5.407  0.4717  0.0846 -0.0073
  487MOL0     C64156   5.465   5.480   5.390  0.3839 -0.1445  0.1745
  487MOL0     C64157   5.406   5.445   5.267 -0.6504  0.2953  0.2521
  487MOL0     C64158   5.273   5.408   5.266  0.4626  0.2846 -0.1821
  487MOL0     C64159   5.201   5.421   5.387  0.3837  0.2585  0.2509
  487MOL0     O64160   5.064   5.415   5.380 -0.1840  0.5590 -0.5309
  487MOL0     C64161   4.971   5.454   5.485  0.2535  0.1673 -0.3868
  487MOL0     C64162   4.837   5.521   5.437 -0.6185 -0.0618  0.3124
  487MOL0     C64163   4.736   5.514   5.549 -1.1310 -0.1520  0.8478
  487MOL0     C64164   4.631   5.629   5.524  0.3667 -0.2871  0.6824
  487MOL0     C64165   4.498   5.605   5.588  0.1116  1.4934 -0.5265
  487MOL0     C64166   4.516   5.624   5.740 -0.8881  0.3008  0.6642
  487MOL0     C64167   4.441   5.533   5.832  1.4384  0.3536  0.2638
  487MOL0     C64168   4.286   5.546   5.805  0.4313 -0.7359 -0.4997
  487MOL0     N64169   4.189   5.509   5.912  0.6849  0.8858 -0.2967
  487MOL0     C64170   4.176   5.394   5.984 -0.2007  0.7015 -0.2198
  487MOL0     C64171   4.078   5.410   6.071  0.8724  0.3024 -0.5910
  487MOL0     C64172   4.034   5.305   6.175 -0.0234 -0.7368  0.1263
  487MOL0     C64173   3.974   5.176   6.111  0.1926 -0.3808 -0.4632
  487MOL0     C64174   4.079   5.063   6.093  0.4178  0.0365 -0.1937
  487MOL0     C64175   4.019   4.932   6.043  0.9926  0.7800 -0.6752
  487MOL0     O64176   3.932   4.876   6.149 -0.6592 -0.6419 -0.2752
  487MOL0     C64177   3.900   4.749   6.137 -0.2113  0.2897  1.0932
  487MOL0     C64178   3.854   4.690   6.018  0.7098  0.4984  0.5934
  487MOL0     C64179   3.805   4.562   6.011  1.0011  0.6713 -0.1310
  487MOL0     C64180   3.842   4.476   6.118  0.0379 -0.1164 -0.4385
  487MOL0     C64181   3.804   4.335   6.116 -0.1671  0.3171 -0.6112
  487MOL0     O64182   3.833   4.261   6.228 -0.2591 -0.4417  0.5246
  487MOL0     C64183   3.778   4.142   6.235  1.3430  0.4355  0.2130
  487MOL0     C64184   3.669   4.128   6.322 -0.2867  0.4322  0.3738
  487MOL0     C64185   3.609   4.004   6.342  0.1648  1.1325  0.0941
  487MOL0     C64186   3.644   3.901   6.251 -0.5189 -0.2600 -0.5197
  487MOL0     O64187   3.586   3.778   6.278 -0.3058  0.6105 -0.9503
  487MOL0     C64188   3.616   3.673   6.183  0.3546  0.4381  0.2396
  487MOL0     C64189   3.557   3.548   6.239  0.3305  0.1744 -0.8661
  487MOL0     C64190   3.590   3.426   6.161  0.0463  0.3956 -0.1912
  487MOL0     C64191   3.537   3.298   6.225 -0.4503  0.4426  0.3957
  487MOL0     C64192   3.384   3.293   6.216 -0.8200  0.7877 -0.0085
  487MOL0     C64193   3.334   3.160   6.261  0.6507 -0.3645 -0.8314
  487MOL0     C64194   3.208   3.123   6.186 -1.1699  0.7508  0.0038
  487MOL0     C64195   3.114   3.043   6.275 -0.1806  0.1069  0.5858
  487MOL0    Cl64196   2.981   2.977   6.162  0.0843 -0.1082 -0.6456
  487MOL0     C64197   3.735   3.927   6.142  0.7172 -0.4642 -0.9465
  487MOL0     C64198   3.814   4.041   6.147  0.4246 -0.4692 -1.0368
  487MOL0     O64199   3.738   4.295   6.022  1.0222  0.6029 -0.0534
  487MOL0     C64200   3.890   4.532   6.247  0.2116  0.3487  0.0050
  487MOL0     C64201   3.922   4.664   6.252 -0.8512  0.3241  0.6865
  487MOL0     N64202   4.031   5.536   6.057 -0.3608 -0.3314 -0.1981
  487MOL0     N64203   4.101   5.600   5.962  0.3339  0.1537 -0.2047
  487MOL0     C64204   5.262   5.430   5.511 -0.6825 -0.2438 -1.0701
  487MOL0     C64205   5.393   5.468   5.506  0.4958 -1.3659 -0.1936
  487MOL0     C64206   5.748   5.715   5.403 -0.3025  1.0831 -0.3881
  487MOL0     C64207   5.773   5.852   5.403  0.0441 -0.9036 -0.0965
  487MOL0     C64208   5.899   5.904   5.409  0.4600 -0.1039  0.3662
  487MOL0     C64209   6.008   5.817   5.383 -0.4245 -0.4471 -0.2270
  487MOL0     O64210   6.140   5.882   5.372  0.0110 -0.5099 -0.2198
  487MOL0     C64211   6.260   5.806   5.390 -0.1647  0.8748  0.5472
  487MOL0     C64212   6.367   5.911   5.370 -0.1413  0.6274 -0.9208
  487MOL0     C64213   6.348   5.981   5.236 -0.3136 -0.1723 -0.6335
  487MOL0     C64214   6.462   6.069   5.199  0.0085 -1.0764  0.6060
  487MOL0     C64215   6.591   5.997   5.165  0.1781  0.2634  0.3407
  487MOL0     C64216   6.693   5.938   5.135  0.1063 -0.5190  0.0059
  487MOL0     C64217   5.985   5.686   5.386 -0.6993 -0.3271 -0.7955
  487MOL0     C64218   5.859   5.628   5.399  0.4354  0.3247 -0.4658
  487MOL0     H64219   5.462   5.447   5.173 -0.3781  1.0045  0.4211
  487MOL0     H64220   5.217   5.372   5.181 -1.1137  3.0582 -0.4249
  487MOL0     H64221   5.012   5.523   5.558  1.6052  0.1776 -1.1269
  487MOL0     H64222   4.935   5.368   5.542  0.9330 -0.0854 -0.3354
  487MOL0     H64223   4.803   5.459   5.354  2.6233  1.0255 -2.0365
  487MOL0     H64224   4.866   5.622   5.407  0.9032  0.5732  3.4946
  487MOL0     H64225   4.791   5.533   5.642 -0.8090  3.0248  0.1196
  487MOL0     H64226   4.678   5.421   5.544  2.6271 -2.6992  0.6046
  487MOL0     H64227   4.663   5.723   5.569 -0.2609 -0.5880  1.8123
  487MOL0     H64228   4.614   5.631   5.416 -2.0144 -0.7813  0.9824
  487MOL0     H64229   4.463   5.505   5.561 -1.5148  1.9583 -0.2553
  487MOL0     H64230   4.437   5.686   5.545 -2.2308  1.3539  2.2400
  487MOL0     H64231   4.501   5.731   5.760 -1.3955  0.4785 -0.5557
  487MOL0     H64232   4.618   5.597   5.767 -0.8565 -3.0631 -2.0894
  487MOL0     H64233   4.456   5.426   5.813 -0.3545  0.1835 -0.3996
  487MOL0     H64234   4.457   5.555   5.938 -0.3231 -0.7390  0.8016
  487MOL0     H64235   4.254   5.489   5.718 -4.9789  2.0042 -0.7300
  487MOL0     H64236   4.279   5.655   5.797  3.5233 -0.2855  1.0736
  487MOL0     H64237   4.227   5.302   5.959  0.3647  1.5244 -2.2591
  487MOL0     H64238   3.961   5.360   6.235 -1.7093  1.7316 -3.7899
  487MOL0     H64239   4.121   5.283   6.238  1.3802  1.2563 -0.9760
  487MOL0     H64240   3.914   5.190   6.021 -1.3907 -0.6686  0.5190
  487MOL0     H64241   3.898   5.141   6.181 -0.6305 -1.5035 -1.8703
  487MOL0     H64242   4.150   5.090   6.015 -0.5117  1.1725 -0.6717
  487MOL0     H64243   4.132   5.036   6.185 -1.5019 -0.8702  0.7237
  487MOL0     H64244   4.107   4.870   6.027  0.5198 -1.0104  2.7027
  487MOL0     H64245   3.961   4.954   5.953  1.0865  2.3446 -0.3881
  487MOL0     H64246   3.861   4.754   5.930  2.2209  0.2941  0.5248
  487MOL0     H64247   3.754   4.532   5.920 -1.9075 -2.3662  2.2568
  487MOL0     H64248   3.620   4.197   6.390 -0.1665  1.4856 -0.5716
  487MOL0     H64249   3.542   3.992   6.427  0.5156 -1.2650  0.1095
  487MOL0     H64250   3.723   3.666   6.162  0.5981 -0.1271  1.6071
  487MOL0     H64251   3.557   3.686   6.091 -1.7964  0.2536  1.5231
  487MOL0     H64252   3.448   3.560   6.246  0.6397  2.7548  0.6032
  487MOL0     H64253   3.587   3.523   6.341 -1.5172  1.8296  0.1518
  487MOL0     H64254   3.695   3.419   6.133  0.2544 -2.4053  1.0004
  487MOL0     H64255   3.537   3.428   6.065 -1.7841 -1.0654  0.7195
  487MOL0     H64256   3.592   3.223   6.166 -1.5687  0.1572 -0.3072
  487MOL0     H64257   3.566   3.289   6.330 -1.2726  3.0333  0.9261
  487MOL0     H64258   3.362   3.311   6.110 -0.3760 -3.3868 -1.0030
  487MOL0     H64259   3.338   3.368   6.280  0.1460  0.8563  0.6229
  487MOL0     H64260   3.309   3.154   6.367 -0.1668  3.3060 -0.6844
  487MOL0     H64261   3.407   3.085   6.228 -2.4612 -2.8954 -2.5711
  487MOL0     H64262   3.160   3.215   6.150 -2.7329 -0.4700 -1.2139
  487MOL0     H64263   3.227   3.070   6.093 -0.0408  1.3535 -0.1168
  487MOL0     H64264   3.056   3.113   6.336 -2.1153  1.3958 -2.4863
  487MOL0     H64265   3.170   2.966   6.330  5.3793  1.1238 -2.9110
  487MOL0     H64266   3.736   3.864   6.053 -0.7552 -0.9904 -0.6075
  487MOL0     H64267   3.889   4.056   6.070  0.0491 -0.8148 -1.4747
  487MOL0     H64268   3.901   4.466   6.333 -4.1727 -2.2257 -1.0479
  487MOL0     H64269   3.959   4.724   6.335  2.2387  0.3768 -0.5703
  487MOL0     H64270   5.219   5.419   5.610 -2.2561 -0.6365 -1.7656
  487MOL0     H64271   5.449   5.489   5.596  2.4660 -0.0488 -1.6313
  487MOL0     H64272   5.688   5.917   5.380  2.5479  1.6413 -3.1077
  487MOL0     H64273   5.913   6.011   5.401  2.9027 -0.3876  0.1882
  487MOL0     H64274   6.281   5.726   5.318 -2.3745  0.6927  0.0571
  487MOL0     H64275   6.268   5.751   5.485  0.1470  1.2049  0.7184
  487MOL0     H64276   6.367   5.987   5.449 -1.7282  1.0006 -1.2366
  487MOL0     H64277   6.459   5.854   5.379 -0.6706 -0.0719  0.3980
  487MOL0     H64278   6.253   6.036   5.241  0.4784  1.1800  0.0220
  487MOL0     H64279   6.349   5.908   5.154  1.3098  0.4754 -1.2205
  487MOL0     H64280   6.427   6.130   5.115  1.8826  0.5376  0.9234
  487MOL0     H64281   6.479   6.141   5.280  2.9633 -0.8404 -0.1133
  487MOL0     H64282   6.785   5.893   5.101  1.5318  3.1987 -1.5800
  487MOL0     H64283   6.069   5.619   5.369  1.5403  0.7795  4.0620
  487MOL0     H64284   5.835   5.523   5.396 -1.5492  0.6965  0.6536
  488MOL0     O64285   0.858   6.552   5.612 -0.3689 -0.3963 -0.4772
  488MOL0     C64286   0.790   6.610   5.698 -0.6373 -0.1558 -0.6048
  488MOL0     O64287   0.657   6.637   5.693 -0.0910 -0.5922 -0.5446
  488MOL0     C64288   0.566   6.605   5.592 -0.2467 -0.6957  0.1775
  488MOL0     C64289   0.590   6.529   5.477 -0.4622  0.9972  0.4258
  488MOL0     C64290   0.483   6.492   5.387  0.2672 -1.2153  0.8578
  488MOL0     C64291   0.357   6.541   5.413 -0.3665 -1.2311  1.1458
  488MOL0     O64292   0.257   6.504   5.325  0.0282 -0.8732  0.3991
  488MOL0     C64293   0.143   6.587   5.325  0.3826  0.5450 -0.1617
  488MOL0     C64294   0.037   6.507   5.242  0.3614  0.0340  0.0017
  488MOL0     C64295   0.028   6.363   5.277 -0.5772 -1.1446  0.1741
  488MOL0     C64296  -0.068   6.287   5.177 -0.3227 -0.5043 -0.5886
  488MOL0     C64297  -0.088   6.142   5.208  0.7469 -0.7431 -0.5617
  488MOL0     C64298  -0.192   6.081   5.111 -0.4438 -0.6189  0.1478
  488MOL0     C64299  -0.173   6.113   4.959 -0.0887  0.4374  0.2526
  488MOL0     C64300  -0.240   6.011   4.872 -0.1157  0.6912 -0.5018
  488MOL0     N64301  -0.262   6.077   4.742  0.8362 -0.2298 -0.6247
  488MOL0     C64302  -0.361   6.171   4.713  0.1619 -0.1124 -0.6087
  488MOL0     C64303  -0.339   6.176   4.582  1.2998 -0.2516  0.5181
  488MOL0     C64304  -0.402   6.290   4.501  0.7893  0.4254  0.0416
  488MOL0     C64305  -0.557   6.284   4.513  0.3499  0.9932  0.0576
  488MOL0     C64306  -0.613   6.147   4.456 -0.0399 -0.2183 -0.0465
  488MOL0     C64307  -0.760   6.129   4.469  0.2935  0.1798 -0.3186
  488MOL0     O64308  -0.799   6.007   4.405 -0.4011  0.1985 -0.1583
  488MOL0     C64309  -0.929   5.986   4.368 -0.7041 -0.0203 -0.3587
  488MOL0     C64310  -0.963   5.888   4.278  0.1633 -0.6250 -0.3191
  488MOL0     C64311  -1.094   5.880   4.231  0.1034  0.1347  0.0806
  488MOL0     C64312  -1.191   5.954   4.282  1.3668  0.1121 -1.1052
  488MOL0     C64313  -1.332   5.954   4.238 -0.3460 -0.1222 -0.1873
  488MOL0     O64314  -1.373   5.856   4.148  0.3706 -0.9461 -0.2040
  488MOL0     C64315  -1.507   5.856   4.116  0.8416 -0.3208 -0.0092
  488MOL0     C64316  -1.598   5.801   4.216 -0.1977  0.0430 -0.0338
  488MOL0     C64317  -1.723   5.780   4.171  0.5323  0.0612 -0.5314
  488MOL0     C64318  -1.760   5.802   4.043  0.0835  0.4579  0.4872
  488MOL0     O64319  -1.889   5.794   3.994  0.4068 -0.0443 -0.3120
  488MOL0     C64320  -1.975   5.890   4.044  0.5179  0.7396  0.6050
  488MOL0     C64321  -2.122   5.877   3.993 -0.7203 -0.5163 -0.5214
  488MOL0     C64322  -2.185   5.741   4.029 -0.0969 -0.3753 -0.9758
  488MOL0     C64323  -2.332   5.733   3.977  0.7149 -0.5627 -0.7465
  488MOL0     C64324  -2.360   5.753   3.826  1.0496  0.6993 -0.0399
  488MOL0     C64325  -2.511   5.721   3.784 -0.6524 -0.1279 -1.3488
  488MOL0     C64326  -2.535   5.795   3.656 -0.2644 -0.4462 -0.2336
  488MOL0     C64327  -2.683   5.795   3.637 -0.2110 -0.0945  0.1806
  488MOL0    Cl64328  -2.746   5.627   3.624  0.1296 -0.0036 -0.2167
  488MOL0     C64329  -1.671   5.862   3.952  0.6715 -0.3148 -0.7464
  488MOL0     C64330  -1.543   5.887   3.987  0.3758 -0.5695  0.2005
  488MOL0     O64331  -1.406   6.043   4.283 -0.0823  0.7494  0.2664
  488MOL0     C64332  -1.163   6.043   4.382  0.4696 -0.5460  0.5283
  488MOL0     C64333  -1.035   6.063   4.421  0.0450  0.0515 -0.0111
  488MOL0     N64334  -0.238   6.098   4.535 -0.6075  0.5134  0.1030
  488MOL0     N64335  -0.179   6.045   4.636  0.2948  0.1926  0.3600
  488MOL0     C64336   0.346   6.627   5.525  0.2347 -0.1424 -0.0882
  488MOL0     C64337   0.443   6.657   5.617 -0.2553 -0.8077 -1.0824
  488MOL0     C64338   0.862   6.637   5.828  0.1165 -0.6099  0.3900
  488MOL0     C64339   1.003   6.636   5.831 -0.2305 -0.1186  0.5067
  488MOL0     C64340   1.058   6.671   5.943  0.0269 -0.3211 -0.7960
  488MOL0     C64341   1.000   6.711   6.062  0.3281 -0.2172  0.1650
  488MOL0     O64342   1.089   6.741   6.165 -0.0797  0.2546  0.1802
  488MOL0     C64343   1.036   6.777   6.295  0.5556 -0.9081  0.8275
  488MOL0     C64344   0.999   6.926   6.304 -0.2518 -1.3326  0.2755
  488MOL0     C64345   1.118   7.049   6.283  0.2963  0.1396  0.1538
  488MOL0     C64346   1.231   7.028   6.386  0.1112  0.6222 -0.4700
  488MOL0     C64347   1.181   7.037   6.522  0.1530  0.1390 -1.5554
  488MOL0     C64348   1.132   7.050   6.627 -0.0981 -0.4015 -0.4139
  488MOL0     C64349   0.858   6.700   6.061 -0.8003  0.0358  0.3098
  488MOL0     C64350   0.789   6.651   5.945 -0.3453  0.1302 -0.3340
  488MOL0     H64351   0.689   6.488   5.462 -1.0649 -0.1778 -0.4470
  488MOL0     H64352   0.497   6.424   5.303  1.0136  0.0088 -0.0342
  488MOL0     H64353   0.165   6.685   5.281 -3.2135  1.7288  0.3663
  488MOL0     H64354   0.103   6.595   5.427  1.2833 -1.1448  0.3667
  488MOL0     H64355   0.060   6.526   5.136  0.9447  1.4200  0.3498
  488MOL0     H64356  -0.059   6.559   5.240  0.0309 -0.5796 -0.5894
  488MOL0     H64357  -0.007   6.359   5.381  0.1157  0.1188  0.4856
  488MOL0     H64358   0.123   6.310   5.270 -1.3607 -2.4626 -0.8640
  488MOL0     H64359  -0.162   6.344   5.173  1.3148  2.5074  0.7006
  488MOL0     H64360  -0.027   6.304   5.077  0.5655 -0.2636 -0.1888
  488MOL0     H64361  -0.140   6.135   5.304 -1.2002 -1.5898 -1.6377
  488MOL0     H64362   0.000   6.077   5.211 -0.8514 -3.0169 -0.6335
  488MOL0     H64363  -0.294   6.114   5.130 -0.1388 -0.0436  0.8472
  488MOL0     H64364  -0.205   5.977   5.143 -3.3483  0.0573  1.4406
  488MOL0     H64365  -0.210   6.215   4.945  0.5886  1.0321  2.3780
  488MOL0     H64366  -0.067   6.106   4.932 -0.4904 -1.0117 -1.0782
  488MOL0     H64367  -0.340   5.981   4.905  0.0650 -0.1852 -0.7304
  488MOL0     H64368  -0.183   5.918   4.870 -1.3809 -0.1776  1.0866
  488MOL0     H64369  -0.432   6.225   4.775 -1.2452 -1.8634 -0.6200
  488MOL0     H64370  -0.385   6.269   4.395 -0.8591  1.7046 -0.5081
  488MOL0     H64371  -0.370   6.391   4.530  1.2196  0.2084  0.3388
  488MOL0     H64372  -0.594   6.367   4.451  0.6481  0.7635 -0.4340
  488MOL0     H64373  -0.586   6.296   4.618  0.8475  2.6178  0.0277
  488MOL0     H64374  -0.598   6.149   4.348  2.2026  1.7096  0.2178
  488MOL0     H64375  -0.567   6.068   4.516 -1.2516  0.1365  1.4290
  488MOL0     H64376  -0.802   6.212   4.411 -0.7757 -1.8970 -2.6790
  488MOL0     H64377  -0.803   6.136   4.570  0.3499  0.9357 -0.3402
  488MOL0     H64378  -0.879   5.843   4.226  2.7079  4.2572 -0.9980
  488MOL0     H64379  -1.100   5.810   4.148 -0.1283 -0.9467  0.9777
  488MOL0     H64380  -1.579   5.781   4.321 -0.0961 -0.3420 -0.1248
  488MOL0     H64381  -1.795   5.733   4.237 -0.3203  0.9196 -0.8286
  488MOL0     H64382  -1.944   5.990   4.012  1.4307 -0.3339 -2.1966
  488MOL0     H64383  -2.000   5.876   4.149  0.3857  2.9436  0.9037
  488MOL0     H64384  -2.117   5.892   3.885  2.2005  2.3522 -0.1254
  488MOL0     H64385  -2.180   5.959   4.037  1.6154  0.3119  1.2200
  488MOL0     H64386  -2.187   5.721   4.136  1.3976  2.1894 -0.3904
  488MOL0     H64387  -2.132   5.659   3.980 -0.4058 -1.1962  0.0255
  488MOL0     H64388  -2.377   5.639   4.011 -0.7983  0.6076  0.6221
  488MOL0     H64389  -2.388   5.809   4.033 -1.5985 -2.7270  0.0467
  488MOL0     H64390  -2.293   5.688   3.769 -2.8392 -1.4984 -2.6116
  488MOL0     H64391  -2.334   5.858   3.811 -1.7447  1.1814 -2.7329
  488MOL0     H64392  -2.578   5.751   3.865  1.3433 -1.7820  1.0836
  488MOL0     H64393  -2.522   5.613   3.775  0.1761 -0.5041  1.3436
  488MOL0     H64394  -2.490   5.895   3.661  0.3308 -0.6793 -0.8275
  488MOL0     H64395  -2.488   5.758   3.565  0.6536  2.9707 -1.3002
  488MOL0     H64396  -2.708   5.849   3.546 -0.0760 -0.2466  0.0529
  488MOL0     H64397  -2.725   5.854   3.719 -0.3085  0.5834 -0.3509
  488MOL0     H64398  -1.719   5.879   3.856 -1.0295  0.3069  0.1786
  488MOL0     H64399  -1.472   5.918   3.911  0.6880  0.3377  0.8450
  488MOL0     H64400  -1.239   6.100   4.435  1.6142 -1.9465  3.9536
  488MOL0     H64401  -1.025   6.139   4.499 -0.5625 -0.5427  0.6638
  488MOL0     H64402   0.248   6.664   5.554 -0.4244 -2.0838  0.3464
  488MOL0     H64403   0.424   6.724   5.700  0.7975  0.2097 -1.6379
  488MOL0     H64404   1.067   6.603   5.750 -0.4633  0.3145  0.1435
  488MOL0     H64405   1.163   6.645   5.947 -0.1626 -0.9955 -0.0979
  488MOL0     H64406   1.100   6.739   6.375 -0.6424  2.1933  3.4741
  488MOL0     H64407   0.941   6.724   6.312 -0.3841 -0.4094 -2.3259
  488MOL0     H64408   0.922   6.943   6.228 -0.0252  1.3318  0.5463
  488MOL0     H64409   0.947   6.949   6.397 -2.6963  1.4764 -1.6104
  488MOL0     H64410   1.079   7.150   6.298  2.8916  1.4672 -1.3812
  488MOL0     H64411   1.167   7.052   6.186 -0.1187  0.3344 -0.0521
  488MOL0     H64412   1.284   6.933   6.371  0.1393  0.8256 -1.7751
  488MOL0     H64413   1.307   7.105   6.373  3.1350 -1.2586  3.8067
  488MOL0     H64414   1.111   7.060   6.732 -1.1910 -1.8163 -0.4683
  488MOL0     H64415   0.791   6.739   6.137  1.8055  1.9475  1.8202
  488MOL0     H64416   0.681   6.658   5.948 -0.2085  3.2559  0.6677
  489MOL0     O64417   2.777   6.894  10.987  0.2695  0.1108 -0.3643
  489MOL0     C64418   2.858   6.826  11.045 -0.5753  0.2043  0.1558
  489MOL0     O64419   2.879   6.820  11.174 -0.7568  0.0174 -0.4912
  489MOL0     C64420   2.799   6.876  11.264 -0.3036 -0.2241  0.6291
  489MOL0     C64421   2.672   6.838  11.294 -0.0097  0.5347  0.3181
  489MOL0     C64422   2.597   6.912  11.382 -0.0251 -0.2949  0.0107
  489MOL0     C64423   2.645   7.020  11.449 -0.1590  0.5852 -0.4445
  489MOL0     O64424   2.570   7.076  11.551 -0.3348  0.2289 -0.5102
  489MOL0     C64425   2.499   7.190  11.492 -0.0257  1.3125  0.1391
  489MOL0     C64426   2.433   7.283  11.592  1.0151 -0.1804 -0.9942
  489MOL0     C64427   2.369   7.396  11.521  0.3584 -0.3400 -0.0239
  489MOL0     C64428   2.294   7.476  11.629  1.1895  0.1411  0.1988
  489MOL0     C64429   2.248   7.620  11.585  0.3453  0.9400  0.1091
  489MOL0     C64430   2.204   7.692  11.713 -0.0307 -0.5583  0.0595
  489MOL0     C64431   2.159   7.836  11.689  0.1951  0.5020  1.0757
  489MOL0     C64432   2.047   7.858  11.585 -0.4451 -0.0756  0.1793
  489MOL0     N64433   1.917   7.807  11.633  0.5324  0.1114  0.6808
  489MOL0     C64434   1.850   7.707  11.569 -0.1767 -0.0207  0.4006
  489MOL0     C64435   1.727   7.719  11.621  1.0323 -0.2467 -0.6322
  489MOL0     C64436   1.605   7.644  11.588  0.3662 -0.5889 -0.5414
  489MOL0     C64437   1.569   7.549  11.700 -0.5089  0.5485 -0.0939
  489MOL0     C64438   1.668   7.450  11.732 -0.0993  0.2663  0.2806
  489MOL0     C64439   1.692   7.341  11.623 -0.7720  0.8548 -0.1479
  489MOL0     O64440   1.580   7.252  11.634  0.0781  0.1806 -0.1620
  489MOL0     C64441   1.579   7.111  11.632 -0.3233 -0.2409 -0.9751
  489MOL0     C64442   1.690   7.041  11.600  0.7421  0.4741  0.5249
  489MOL0     C64443   1.686   6.897  11.583 -0.4458  0.4337 -0.0884
  489MOL0     C64444   1.568   6.829  11.612 -0.2743 -0.2779  0.0926
  489MOL0     C64445   1.559   6.683  11.582  1.2689 -0.0662 -0.4151
  489MOL0     O64446   1.448   6.617  11.597  0.5560 -0.3398 -0.2637
  489MOL0     C64447   1.430   6.515  11.515 -0.6846 -1.1077  0.7293
  489MOL0     C64448   1.482   6.391  11.553  0.0719 -0.4401  0.4304
  489MOL0     C64449   1.444   6.280  11.480  0.4401  0.2309 -0.7092
  489MOL0     C64450   1.363   6.290  11.367  0.0325 -0.0555 -0.6325
  489MOL0     O64451   1.307   6.196  11.286 -1.0680 -0.1973  0.0058
  489MOL0     C64452   1.338   6.056  11.315 -0.0424  0.5486  0.3640
  489MOL0     C64453   1.229   6.000  11.414  0.2026  0.3706  0.2830
  489MOL0     C64454   1.294   5.925  11.535  0.2941  0.1715 -0.0595
  489MOL0     C64455   1.318   5.778  11.517 -0.1166  0.1651 -0.3648
  489MOL0     C64456   1.372   5.704  11.639 -0.1429  0.8437 -0.7304
  489MOL0     C64457   1.267   5.676  11.744 -0.0352  1.1917  0.0582
  489MOL0     C64458   1.332   5.575  11.857  0.1941 -0.5316  0.0690
  489MOL0     C64459   1.470   5.628  11.912  0.6937 -0.1698 -0.2287
  489MOL0    Cl64460   1.532   5.488  12.015 -0.1453 -0.1708 -0.1509
  489MOL0     C64461   1.317   6.417  11.335  0.1481  0.4832  0.1295
  489MOL0     C64462   1.344   6.528  11.411  0.6580  0.4786  0.3266
  489MOL0     O64463   1.670   6.624  11.566  0.6559 -0.7049  0.4795
  489MOL0     C64464   1.460   6.897  11.658  0.4811 -0.9427 -0.5941
  489MOL0     C64465   1.466   7.035  11.671 -0.1938 -0.0383  0.3801
  489MOL0     N64466   1.717   7.832  11.701 -0.3319  0.5424 -0.2837
  489MOL0     N64467   1.835   7.879  11.715 -0.0983 -0.6578  0.0283
  489MOL0     C64468   2.781   7.063  11.418  0.2883  0.1536  0.1258
  489MOL0     C64469   2.860   6.990  11.325 -0.2872  0.4574 -1.3280
  489MOL0     C64470   2.951   6.750  10.961 -0.2148 -0.8102 -0.3605
  489MOL0     C64471   3.068   6.710  11.019 -0.2006  1.3377 -0.1790
  489MOL0     C64472   3.158   6.620  10.947 -0.2931  0.5841 -0.5969
  489MOL0     C64473   3.125   6.577  10.822 -0.8444 -1.0850 -0.2116
  489MOL0     O64474   3.212   6.479  10.766 -0.6033  0.2888 -0.1585
  489MOL0     C64475   3.165   6.398  10.659  0.3599  0.8218  0.1885
  489MOL0     C64476   3.252   6.279  10.609  0.1552 -0.2751  0.4297
  489MOL0     C64477   3.307   6.199  10.723  0.7875 -0.2066  0.8557
  489MOL0     C64478   3.391   6.081  10.677 -0.9150  0.1028 -0.2839
  489MOL0     C64479   3.528   6.115  10.630 -0.6205 -0.4089  0.2807
  489MOL0     C64480   3.628   6.143  10.570 -0.0660  0.4800 -0.7722
  489MOL0     C64481   3.011   6.617  10.762  1.1130  0.2220 -0.4632
  489MOL0     C64482   2.928   6.710  10.826  0.3169  0.1275  0.9855
  489MOL0     H64483   2.628   6.757  11.238  0.7786 -0.0824  0.5760
  489MOL0     H64484   2.494   6.880  11.396  0.0522 -0.1356  0.9631
  489MOL0     H64485   2.419   7.142  11.434  0.1613  0.5535  0.4845
  489MOL0     H64486   2.557   7.252  11.424 -0.4717  1.9590  0.3373
  489MOL0     H64487   2.504   7.309  11.671  0.8084 -3.0719  0.2671
  489MOL0     H64488   2.352   7.233  11.646 -0.4870  2.9682 -0.0917
  489MOL0     H64489   2.302   7.358  11.443  1.3986 -1.9051 -0.2050
  489MOL0     H64490   2.447   7.461  11.480  0.1106 -0.8277 -1.3433
  489MOL0     H64491   2.211   7.419  11.672 -0.1976  1.0295 -1.1836
  489MOL0     H64492   2.361   7.483  11.714 -0.1929 -3.2899  1.7680
  489MOL0     H64493   2.165   7.615  11.513 -1.6801  2.5667  2.1575
  489MOL0     H64494   2.328   7.671  11.530 -0.6556  1.4734 -0.8953
  489MOL0     H64495   2.279   7.699  11.792 -1.7601  1.7551  1.6310
  489MOL0     H64496   2.113   7.642  11.747  1.1685 -1.2865  2.4213
  489MOL0     H64497   2.122   7.874  11.785 -3.6129 -1.0199  0.4000
  489MOL0     H64498   2.243   7.899  11.658 -0.9012  0.8734 -1.3544
  489MOL0     H64499   2.075   7.819  11.487 -0.7319 -1.6871  0.7137
  489MOL0     H64500   2.032   7.966  11.580  1.0181  0.1225 -0.2911
  489MOL0     H64501   1.887   7.637  11.495 -2.2654 -2.7042  1.7306
  489MOL0     H64502   1.626   7.590  11.495  0.3325  0.3619 -1.1113
  489MOL0     H64503   1.516   7.702  11.563 -1.0467 -1.8942  1.1558
  489MOL0     H64504   1.482   7.491  11.667  0.4480  0.8828 -3.7290
  489MOL0     H64505   1.539   7.598  11.793  0.8259 -0.2995  0.8138
  489MOL0     H64506   1.768   7.490  11.747 -0.4248  1.3768 -0.3514
  489MOL0     H64507   1.641   7.402  11.826 -1.0534 -0.0286 -0.1243
  489MOL0     H64508   1.784   7.284  11.640  0.0942  1.1867 -3.2073
  489MOL0     H64509   1.698   7.384  11.523 -0.9856 -0.7417 -0.8819
  489MOL0     H64510   1.769   7.092  11.545  1.7997  1.3395  2.7284
  489MOL0     H64511   1.784   6.869  11.545 -0.4046 -0.6666  0.7506
  489MOL0     H64512   1.539   6.371  11.643 -1.1735 -2.6789  0.8135
  489MOL0     H64513   1.477   6.187  11.527 -1.9271 -0.4891 -0.3530
  489MOL0     H64514   1.440   6.046  11.353  1.2446  3.3446 -1.9518
  489MOL0     H64515   1.329   5.993  11.226  1.7431 -2.9003  2.3942
  489MOL0     H64516   1.158   5.943  11.354  2.0626  2.2687 -4.2191
  489MOL0     H64517   1.176   6.089  11.450  1.2542  1.0720  0.1447
  489MOL0     H64518   1.230   5.931  11.624  0.7895 -0.3556  0.3378
  489MOL0     H64519   1.384   5.980  11.562 -0.3844  0.1796  2.4458
  489MOL0     H64520   1.240   5.729  11.457 -0.7481  0.0822  0.4926
  489MOL0     H64521   1.399   5.776  11.443 -0.9977 -0.8641 -1.3622
  489MOL0     H64522   1.454   5.766  11.676  2.4164 -0.6022 -3.5162
  489MOL0     H64523   1.413   5.608  11.605 -3.4503  0.8849 -5.8573
  489MOL0     H64524   1.183   5.627  11.695 -0.3120  2.1901 -0.5072
  489MOL0     H64525   1.234   5.769  11.792  0.4022  0.5116  1.7598
  489MOL0     H64526   1.260   5.551  11.935 -0.2060  1.3862  0.3233
  489MOL0     H64527   1.349   5.479  11.806  0.4893 -0.6868  0.4560
  489MOL0     H64528   1.460   5.715  11.978 -2.0522  0.9772 -1.9614
  489MOL0     H64529   1.542   5.647  11.832 -0.2349 -0.8514 -1.2542
  489MOL0     H64530   1.256   6.439  11.248  0.9072 -0.5009 -0.6780
  489MOL0     H64531   1.309   6.629  11.395 -0.9358  0.1218  1.2773
  489MOL0     H64532   1.365   6.851  11.681  0.3212 -0.4124 -0.1711
  489MOL0     H64533   1.385   7.095  11.711 -0.9361  0.6277 -1.9230
  489MOL0     H64534   2.807   7.162  11.454 -2.3626  1.1752 -0.5444
  489MOL0     H64535   2.959   7.028  11.305  0.5482  0.1806  1.8359
  489MOL0     H64536   3.089   6.708  11.126 -1.5765 -0.5327  0.1221
  489MOL0     H64537   3.252   6.586  10.990 -1.5801 -2.7589 -0.0960
  489MOL0     H64538   3.138   6.465  10.576  0.7894  0.8697  0.0857
  489MOL0     H64539   3.064   6.362  10.680  1.1764 -4.0807 -2.6639
  489MOL0     H64540   3.199   6.207  10.546  5.8481 -1.8214 -3.4000
  489MOL0     H64541   3.339   6.325  10.560 -0.7769 -0.4760 -1.5339
  489MOL0     H64542   3.228   6.145  10.775 -0.0497  1.3885  1.2992
  489MOL0     H64543   3.365   6.259  10.793  1.7955  0.8034 -0.7581
  489MOL0     H64544   3.400   6.004  10.754 -0.4241 -0.9648 -1.3754
  489MOL0     H64545   3.337   6.031  10.597 -3.3478  1.3560  0.4753
  489MOL0     H64546   3.707   6.182  10.509 -1.1647  1.1729 -1.7718
  489MOL0     H64547   2.978   6.568  10.670 -1.0318 -0.6243  0.6697
  489MOL0     H64548   2.829   6.730  10.786  0.5124 -0.3116  0.2673
  490MOL0     O64549   5.128   0.092   8.138 -0.1593 -0.4425  0.5012
  490MOL0     C64550   5.146   0.013   8.223  0.3729  0.5037 -0.1198
  490MOL0     O64551   5.266  -0.043   8.253  0.4199  0.2467 -0.7010
  490MOL0     C64552   5.387   0.022   8.221 -0.1950  0.5437 -0.0731
  490MOL0     C64553   5.417   0.137   8.149 -0.4268 -0.1647  0.6235
  490MOL0     C64554   5.547   0.185   8.132 -0.4452 -0.3888  0.1434
  490MOL0     C64555   5.651   0.104   8.177 -0.1460  0.4449  0.3031
  490MOL0     O64556   5.771   0.155   8.140  0.9583  0.0031 -0.0360
  490MOL0     C64557   5.882   0.137   8.225  0.1024  1.1110  0.2240
  490MOL0     C64558   5.989   0.234   8.174  0.0159 -1.1317 -0.3099
  490MOL0     C64559   5.960   0.379   8.191  1.0562 -0.6545  0.3597
  490MOL0     C64560   5.923   0.425   8.339  0.6538  0.0978 -0.5626
  490MOL0     C64561   5.962   0.577   8.356  0.0238 -0.0393  0.0909
  490MOL0     C64562   5.957   0.607   8.504 -0.3083  0.0472  0.0124
  490MOL0     C64563   5.973   0.762   8.511  0.1637  0.3946  0.3714
  490MOL0     C64564   5.845   0.844   8.467  0.4805  0.1813 -0.4077
  490MOL0     N64565   5.872   0.989   8.462  0.1249 -0.6998  0.1612
  490MOL0     C64566   5.948   1.067   8.368  0.2062  0.0136  0.1175
  490MOL0     C64567   5.940   1.194   8.430  0.6570 -0.7800 -0.3463
  490MOL0     C64568   6.010   1.325   8.392  1.0791  0.3400  0.7776
  490MOL0     C64569   6.151   1.337   8.448 -0.0343  0.6160  0.2114
  490MOL0     C64570   6.219   1.467   8.405 -0.1322  0.7554  0.2983
  490MOL0     C64571   6.353   1.486   8.484  0.6705 -0.1368  0.3898
  490MOL0     O64572   6.441   1.379   8.443 -0.4028 -0.2176  0.0414
  490MOL0     C64573   6.511   1.384   8.335 -0.6687 -0.1831 -1.0578
  490MOL0     C64574   6.516   1.485   8.238  0.6325 -0.4938 -0.2643
  490MOL0     C64575   6.608   1.487   8.138 -0.0421  0.6795 -0.3073
  490MOL0     C64576   6.705   1.388   8.118  0.3431  0.8484  0.8068
  490MOL0     C64577   6.799   1.385   8.008 -0.4344  1.0010 -0.7059
  490MOL0     O64578   6.877   1.279   7.986  0.5882 -0.4571 -0.1394
  490MOL0     C64579   6.955   1.275   7.875 -0.0848 -0.1926  0.8861
  490MOL0     C64580   6.911   1.228   7.754 -0.4718  0.6463 -0.2047
  490MOL0     C64581   6.982   1.235   7.632 -0.1839  0.4316  0.1755
  490MOL0     C64582   7.112   1.291   7.634  0.6306 -0.1589 -0.2250
  490MOL0     O64583   7.205   1.280   7.535  0.4922  0.7128 -0.6535
  490MOL0     C64584   7.157   1.289   7.406  0.0691  1.6963 -0.2415
  490MOL0     C64585   7.275   1.272   7.319  0.4308  0.6094 -0.4813
  490MOL0     C64586   7.224   1.286   7.172 -0.4942 -0.0506  0.2177
  490MOL0     C64587   7.353   1.308   7.089 -0.3316 -0.2728  0.0486
  490MOL0     C64588   7.336   1.288   6.943  0.2514  0.2605 -0.1619
  490MOL0     C64589   7.471   1.292   6.872 -0.0680 -0.2611  0.3043
  490MOL0     C64590   7.443   1.320   6.727  0.2621  0.1045  1.8714
  490MOL0     C64591   7.558   1.281   6.624 -0.2548 -0.9331  0.1888
  490MOL0    Cl64592   7.502   1.344   6.469 -0.6979 -0.0672 -0.1457
  490MOL0     C64593   7.165   1.344   7.757  1.0019 -0.0959 -0.0057
  490MOL0     C64594   7.076   1.339   7.874  0.0301 -0.5559 -0.6686
  490MOL0     O64595   6.782   1.475   7.929 -0.1849 -0.1307 -0.1663
  490MOL0     C64596   6.706   1.296   8.219 -0.0379 -0.1961  0.0473
  490MOL0     C64597   6.607   1.287   8.323  0.0026  0.0937  0.2018
  490MOL0     N64598   5.887   1.185   8.561 -0.0720  0.9952 -0.8935
  490MOL0     N64599   5.828   1.075   8.561 -0.5174  0.7513  0.1006
  490MOL0     C64600   5.623  -0.019   8.242  0.1159 -0.1612  0.9091
  490MOL0     C64601   5.494  -0.055   8.263  0.6795  0.0851  0.2400
  490MOL0     C64602   5.024  -0.036   8.293 -0.1950 -0.6601 -0.5037
  490MOL0     C64603   5.040  -0.132   8.387 -0.1553 -0.3689 -0.3515
  490MOL0     C64604   4.932  -0.184   8.448  0.6400  0.2399 -0.2950
  490MOL0     C64605   4.798  -0.150   8.423 -0.4966  0.8169  0.6954
  490MOL0     O64606   4.683  -0.191   8.484  0.8295  0.4330 -0.1917
  490MOL0     C64607   4.686  -0.294   8.586 -0.1042  0.3472  1.0466
  490MOL0     C64608   4.555  -0.287   8.667 -0.4023  1.4138 -0.0634
  490MOL0     C64609   4.435  -0.314   8.577  0.6087 -0.0884  0.1863
  490MOL0     C64610   4.313  -0.378   8.639  0.5948 -0.4641 -0.8496
  490MOL0     C64611   4.344  -0.519   8.655 -0.5382  0.0011 -0.1781
  490MOL0     C64612   4.369  -0.642   8.650  0.5371 -0.8211 -0.7107
  490MOL0     C64613   4.781  -0.045   8.332  0.1935  0.3954  0.2447
  490MOL0     C64614   4.890   0.006   8.267  0.1354  0.6884  1.0307
  490MOL0     H64615   5.334   0.196   8.112  0.8544 -1.7001 -5.9420
  490MOL0     H64616   5.573   0.280   8.086  1.7876 -1.4230 -0.8641
  490MOL0     H64617   5.905   0.030   8.224  1.9492  1.4703  0.3970
  490MOL0     H64618   5.860   0.157   8.331  1.1287 -1.6090  1.0441
  490MOL0     H64619   6.018   0.215   8.070 -0.3131 -1.0812 -0.4132
  490MOL0     H64620   6.084   0.237   8.227 -0.0649  1.9292 -0.1488
  490MOL0     H64621   5.872   0.402   8.130  0.3899 -1.6100  0.9326
  490MOL0     H64622   6.034   0.442   8.141 -1.2347  2.0487  0.0666
  490MOL0     H64623   5.815   0.410   8.350  1.0546 -2.1288  0.9929
  490MOL0     H64624   5.967   0.354   8.410  1.0801  0.0007 -0.9147
  490MOL0     H64625   5.891   0.632   8.294  0.4955 -1.0136 -1.3683
  490MOL0     H64626   6.059   0.595   8.309 -0.8450  0.7743 -1.4397
  490MOL0     H64627   6.038   0.565   8.564  0.0761  0.1766 -0.4093
  490MOL0     H64628   5.858   0.576   8.537 -0.3606  1.1643  0.9917
  490MOL0     H64629   5.991   0.796   8.613  0.3067 -0.4905  0.6456
  490MOL0     H64630   6.062   0.792   8.454  0.8610 -2.0759  0.0655
  490MOL0     H64631   5.775   0.829   8.550  2.5529 -0.9267  1.2511
  490MOL0     H64632   5.801   0.806   8.375 -0.7771  0.2202  0.1671
  490MOL0     H64633   6.011   1.041   8.284 -2.0794 -0.8242 -1.4336
  490MOL0     H64634   5.944   1.400   8.436 -0.4596  0.9866 -2.3661
  490MOL0     H64635   6.005   1.329   8.282  0.6917 -3.0624  0.5525
  490MOL0     H64636   6.213   1.250   8.426  0.5481  1.6888 -2.8249
  490MOL0     H64637   6.139   1.333   8.557 -2.4056  0.4590 -0.0041
  490MOL0     H64638   6.238   1.455   8.298 -0.4750  1.4133  0.1594
  490MOL0     H64639   6.160   1.559   8.411  2.8190  2.7832  0.3235
  490MOL0     H64640   6.332   1.497   8.591  0.3107  0.7785  0.2315
  490MOL0     H64641   6.399   1.583   8.463 -1.2489  0.4480 -1.4594
  490MOL0     H64642   6.441   1.561   8.219  0.1434 -0.8291  0.3009
  490MOL0     H64643   6.602   1.570   8.067 -1.3250  0.7596 -0.1275
  490MOL0     H64644   6.809   1.190   7.754 -0.5268  0.4912  2.9289
  490MOL0     H64645   6.945   1.191   7.540 -1.8629 -1.2463  1.5628
  490MOL0     H64646   7.117   1.388   7.381 -2.3969 -0.0043 -3.9815
  490MOL0     H64647   7.084   1.211   7.380  0.0369  2.4759 -2.7341
  490MOL0     H64648   7.321   1.175   7.341  0.7411  1.0176  0.7292
  490MOL0     H64649   7.348   1.350   7.341 -1.3782  1.8159  1.7213
  490MOL0     H64650   7.157   1.372   7.158  0.1777  0.9967  2.8837
  490MOL0     H64651   7.176   1.192   7.140  1.4219 -0.3398 -2.1234
  490MOL0     H64652   7.402   1.400   7.121  1.5077 -2.6286  5.1307
  490MOL0     H64653   7.426   1.234   7.123  1.2698  1.0513 -0.4114
  490MOL0     H64654   7.285   1.377   6.904  0.1637  0.3903  0.2496
  490MOL0     H64655   7.285   1.201   6.901  2.3089 -0.3968 -1.4264
  490MOL0     H64656   7.518   1.195   6.888 -0.6323 -0.6001 -0.0353
  490MOL0     H64657   7.528   1.376   6.911  0.2386 -0.5985  0.5920
  490MOL0     H64658   7.349   1.277   6.692  0.4525 -0.2688  1.8192
  490MOL0     H64659   7.425   1.428   6.718  1.2051  0.1986  0.9448
  490MOL0     H64660   7.568   1.173   6.621  1.8100 -0.7503 -1.2531
  490MOL0     H64661   7.651   1.328   6.657 -0.0884  0.0358 -1.5306
  490MOL0     H64662   7.267   1.379   7.774  0.8672  0.3372 -0.0903
  490MOL0     H64663   7.120   1.389   7.959 -1.1628  0.5185 -0.6592
  490MOL0     H64664   6.774   1.213   8.206 -2.6167 -2.0772 -3.1973
  490MOL0     H64665   6.618   1.204   8.392  2.8180 -0.8766 -1.2547
  490MOL0     H64666   5.700  -0.085   8.281  1.7217  0.1396 -1.5229
  490MOL0     H64667   5.493  -0.154   8.309  0.8187 -0.3753 -0.7382
  490MOL0     H64668   5.143  -0.155   8.415  0.5245  1.1674 -1.4929
  490MOL0     H64669   4.949  -0.266   8.516 -1.6911 -1.8558 -2.0598
  490MOL0     H64670   4.773  -0.284   8.652  0.7611  1.9304 -0.2697
  490MOL0     H64671   4.695  -0.391   8.536 -1.5090 -0.6789  2.6832
  490MOL0     H64672   4.573  -0.368   8.739  1.9103 -0.2258 -2.3223
  490MOL0     H64673   4.537  -0.198   8.728 -1.8370  1.5200 -0.5955
  490MOL0     H64674   4.456  -0.372   8.487  0.0607 -4.4819  2.5860
  490MOL0     H64675   4.409  -0.214   8.542 -2.2714 -1.1149 -0.8837
  490MOL0     H64676   4.285  -0.324   8.730 -3.6818 -0.5752 -1.8874
  490MOL0     H64677   4.228  -0.371   8.571  2.5508 -1.1332 -3.5242
  490MOL0     H64678   4.404  -0.743   8.654  0.2546 -0.8723  2.1303
  490MOL0     H64679   4.685  -0.000   8.312  0.9553  1.5216 -1.0811
  490MOL0     H64680   4.884   0.089   8.196  1.4211  0.8117  1.0264
  491MOL0     O64681   0.764   0.460   0.642  0.1386 -1.1377 -0.0049
  491MOL0     C64682   0.857   0.543   0.649 -0.4027  0.2127  0.7103
  491MOL0     O64683   0.992   0.504   0.622  0.2670  0.2745  0.5535
  491MOL0     C64684   1.001   0.379   0.556 -0.1275  0.6643  0.0852
  491MOL0     C64685   0.980   0.259   0.628 -0.1796 -0.3495 -0.8058
  491MOL0     C64686   1.005   0.138   0.561 -0.4120  0.5263  0.3099
  491MOL0     C64687   1.047   0.131   0.425 -0.5646  0.2553 -0.7184
  491MOL0     O64688   1.085   0.012   0.372 -0.2580  0.1904 -0.1913
  491MOL0     C64689   1.036  -0.015   0.240  0.2478 -1.1322  0.0607
  491MOL0     C64690   1.060  -0.157   0.209 -0.0547  0.3912 -0.2251
  491MOL0     C64691   1.029  -0.186   0.057  0.2348  0.2583  0.0496
  491MOL0     C64692   1.117  -0.102  -0.033  0.6820 -0.1640 -1.0113
  491MOL0     C64693   1.162  -0.164  -0.167  0.1747  0.2944 -0.8957
  491MOL0     C64694   1.046  -0.200  -0.258  0.5147  0.8103  0.1627
  491MOL0     C64695   1.088  -0.263  -0.390 -0.9654  1.0518 -0.7732
  491MOL0     C64696   1.147  -0.411  -0.367 -0.8728 -0.8095 -0.2354
  491MOL0     N64697   1.168  -0.476  -0.499  0.1598 -0.3179 -0.7449
  491MOL0     C64698   1.145  -0.422  -0.626  0.1824  0.7032  0.0188
  491MOL0     C64699   1.171  -0.523  -0.711  0.6509 -0.4999 -0.3180
  491MOL0     C64700   1.159  -0.515  -0.858  0.0713 -1.0322 -0.4187
  491MOL0     C64701   1.290  -0.468  -0.915 -0.5395 -0.2272 -0.0293
  491MOL0     C64702   1.317  -0.527  -1.052 -0.1934 -0.6184 -0.5190
  491MOL0     C64703   1.343  -0.674  -1.050 -0.4204 -0.1935  0.2859
  491MOL0     O64704   1.397  -0.735  -1.163 -0.6852  0.2149  0.7913
  491MOL0     C64705   1.397  -0.870  -1.151  0.0600 -0.0415  0.1663
  491MOL0     C64706   1.343  -0.951  -1.050 -0.1545 -1.2722 -0.6436
  491MOL0     C64707   1.360  -1.091  -1.061  0.2523 -0.3670  0.0626
  491MOL0     C64708   1.410  -1.155  -1.173  0.4132  0.6509  0.0771
  491MOL0     C64709   1.424  -1.301  -1.196 -0.5835 -0.7429 -0.6089
  491MOL0     O64710   1.384  -1.374  -1.085  0.4720  0.0864  0.7423
  491MOL0     C64711   1.429  -1.503  -1.068  0.4839 -0.0898 -0.3134
  491MOL0     C64712   1.370  -1.607  -1.139 -0.0690 -0.0453 -0.6183
  491MOL0     C64713   1.435  -1.732  -1.149  1.3838  0.1419  0.5439
  491MOL0     C64714   1.551  -1.760  -1.090 -0.7988  0.2356 -0.5672
  491MOL0     O64715   1.606  -1.891  -1.100  0.2694  0.5929 -0.0133
  491MOL0     C64716   1.728  -1.919  -1.031 -0.4017 -0.2529 -0.1910
  491MOL0     C64717   1.741  -2.064  -1.035 -0.1750  0.2264  0.0795
  491MOL0     C64718   1.788  -2.127  -1.161 -0.4232  0.0455 -0.8406
  491MOL0     C64719   1.828  -2.271  -1.133 -0.4597  0.0618  0.2403
  491MOL0     C64720   1.880  -2.335  -1.268  0.1079 -1.0152  0.2576
  491MOL0     C64721   1.883  -2.486  -1.242  0.5430  0.2558 -0.8919
  491MOL0     C64722   1.932  -2.564  -1.365  1.2727 -0.7559  0.2167
  491MOL0     C64723   1.968  -2.707  -1.321 -0.7173 -0.3203  0.0119
  491MOL0    Cl64724   2.139  -2.738  -1.358  0.4218  0.4230  0.2930
  491MOL0     C64725   1.609  -1.654  -1.014  0.1344  0.5892  0.1339
  491MOL0     C64726   1.557  -1.523  -1.008 -0.2304  1.2092  0.8118
  491MOL0     O64727   1.491  -1.344  -1.287 -0.9500 -0.4564  0.7554
  491MOL0     C64728   1.464  -1.070  -1.273  0.4461  0.3116  0.6052
  491MOL0     C64729   1.458  -0.932  -1.267  1.2914  0.7481  0.1578
  491MOL0     N64730   1.227  -0.625  -0.642  0.4763  0.4313  0.4832
  491MOL0     N64731   1.210  -0.604  -0.514 -0.0704 -0.7113  0.0985
  491MOL0     C64732   1.058   0.256   0.355  0.0627  0.5636 -0.7475
  491MOL0     C64733   1.037   0.380   0.421 -1.5995  0.6216  0.7419
  491MOL0     C64734   0.837   0.675   0.690  0.0773 -0.8052  1.0107
  491MOL0     C64735   0.929   0.748   0.776  0.4797  0.4709  0.0085
  491MOL0     C64736   0.901   0.884   0.812 -0.6505 -0.0782  0.6088
  491MOL0     C64737   0.784   0.950   0.769 -0.2598  0.7191 -0.0193
  491MOL0     O64738   0.759   1.076   0.811  0.1942 -0.1394 -0.2551
  491MOL0     C64739   0.625   1.138   0.787 -0.5111 -0.5971  0.6656
  491MOL0     C64740   0.525   1.077   0.888  0.6746  0.8178 -0.7936
  491MOL0     C64741   0.407   1.166   0.906  0.9996  0.4355  1.0521
  491MOL0     C64742   0.375   1.180   1.062  0.0257 -0.4924  0.0232
  491MOL0     C64743   0.306   1.304   1.098  0.0956  0.5854  0.1911
  491MOL0     C64744   0.246   1.405   1.124 -1.0301 -0.9931 -0.3899
  491MOL0     C64745   0.696   0.866   0.700  0.4603  0.1944 -0.0131
  491MOL0     C64746   0.718   0.741   0.651  0.2901  0.0385 -0.0092
  491MOL0     H64747   0.958   0.268   0.734 -0.7239  1.2703 -1.0265
  491MOL0     H64748   0.996   0.042   0.610  1.9946 -0.7364 -1.4780
  491MOL0     H64749   1.095   0.051   0.176 -1.7789  0.7465  0.0174
  491MOL0     H64750   0.928  -0.002   0.235  0.1908 -0.7571  1.5977
  491MOL0     H64751   0.996  -0.222   0.269  0.5262 -0.9318 -0.9887
  491MOL0     H64752   1.163  -0.190   0.227  0.7793  2.9018 -0.0346
  491MOL0     H64753   0.921  -0.182   0.042  0.1705  0.4745  0.5400
  491MOL0     H64754   1.065  -0.289   0.046 -1.1538 -0.5667  2.3376
  491MOL0     H64755   1.067  -0.009  -0.060  2.2299  1.0776  0.1709
  491MOL0     H64756   1.199  -0.065   0.030  0.0436  0.4017 -0.5052
  491MOL0     H64757   1.224  -0.253  -0.153 -1.0565 -0.3184  1.0546
  491MOL0     H64758   1.218  -0.084  -0.217 -0.7425  0.7433 -1.2302
  491MOL0     H64759   0.993  -0.107  -0.280  0.9544  0.6235 -1.9078
  491MOL0     H64760   0.979  -0.272  -0.211 -2.0392  2.0900 -1.3235
  491MOL0     H64761   0.993  -0.276  -0.442 -0.7820  0.6783 -1.0175
  491MOL0     H64762   1.162  -0.201  -0.441  0.4594 -0.7827 -1.0096
  491MOL0     H64763   1.066  -0.466  -0.319 -2.1211 -0.1799 -1.5438
  491MOL0     H64764   1.240  -0.402  -0.310  0.0858  0.3231 -1.8929
  491MOL0     H64765   1.107  -0.325  -0.655 -2.8446 -0.8610 -1.7553
  491MOL0     H64766   1.075  -0.452  -0.888 -0.4000 -1.2072  0.5114
  491MOL0     H64767   1.125  -0.614  -0.893  2.4948 -2.3532  0.7162
  491MOL0     H64768   1.370  -0.503  -0.849 -1.5917  2.0907  2.6637
  491MOL0     H64769   1.297  -0.359  -0.914 -1.2993 -0.1654 -0.4765
  491MOL0     H64770   1.235  -0.497  -1.119 -0.4504  0.3373  0.2049
  491MOL0     H64771   1.415  -0.496  -1.089 -0.2509 -0.3548 -0.4537
  491MOL0     H64772   1.240  -0.709  -1.044  0.3789 -2.7701  0.3432
  491MOL0     H64773   1.398  -0.684  -0.956 -0.5245  0.9610  0.4783
  491MOL0     H64774   1.300  -0.912  -0.959 -0.0807 -1.3913 -0.5580
  491MOL0     H64775   1.316  -1.147  -0.979 -1.1308  1.3050  0.5285
  491MOL0     H64776   1.277  -1.609  -1.195 -0.4273 -1.3378 -0.0061
  491MOL0     H64777   1.376  -1.806  -1.203 -0.1935  1.6746  0.0585
  491MOL0     H64778   1.730  -1.885  -0.927  0.6936  0.1524 -0.3344
  491MOL0     H64779   1.814  -1.881  -1.086 -1.7224 -3.2100 -4.8753
  491MOL0     H64780   1.646  -2.101  -0.997  0.2460 -1.4338 -0.3977
  491MOL0     H64781   1.820  -2.088  -0.964  3.1390  0.9035 -3.0479
  491MOL0     H64782   1.866  -2.066  -1.207  2.1129 -2.7442 -0.6038
  491MOL0     H64783   1.706  -2.130  -1.233 -0.3751 -4.2432 -0.9996
  491MOL0     H64784   1.905  -2.292  -1.059  0.9397 -0.2693 -1.2349
  491MOL0     H64785   1.737  -2.320  -1.098 -0.1741  1.4798  3.2605
  491MOL0     H64786   1.978  -2.294  -1.294  0.3329 -1.5255  0.2916
  491MOL0     H64787   1.801  -2.315  -1.342  0.0135  0.7760  0.8090
  491MOL0     H64788   1.783  -2.518  -1.211 -1.0344  1.8124 -3.8669
  491MOL0     H64789   1.954  -2.507  -1.162  1.8775 -0.0629 -2.1229
  491MOL0     H64790   1.851  -2.560  -1.438  3.0179  0.8653 -1.7774
  491MOL0     H64791   2.023  -2.532  -1.418  1.7904 -0.5564  1.2096
  491MOL0     H64792   1.900  -2.785  -1.359 -0.8043 -1.6158  2.6494
  491MOL0     H64793   1.941  -2.714  -1.215 -0.6439 -1.6406 -0.0412
  491MOL0     H64794   1.698  -1.668  -0.954  0.8208  0.0169 -0.9844
  491MOL0     H64795   1.604  -1.444  -0.949  1.2676  1.0081 -0.0762
  491MOL0     H64796   1.502  -1.106  -1.368 -3.8694 -0.1112 -1.2122
  491MOL0     H64797   1.498  -0.865  -1.343  0.9327 -1.2185 -1.8736
  491MOL0     H64798   1.087   0.264   0.251  0.8057 -0.4662 -0.6394
  491MOL0     H64799   1.046   0.476   0.372 -0.9972  0.0264 -0.3422
  491MOL0     H64800   1.014   0.698   0.821 -0.5067  0.7732  2.3813
  491MOL0     H64801   0.965   0.938   0.880 -0.1544  0.9914 -0.6734
  491MOL0     H64802   0.596   1.113   0.684  0.1442  0.4882  0.1970
  491MOL0     H64803   0.632   1.247   0.798 -4.8550 -0.2927  2.4556
  491MOL0     H64804   0.491   0.977   0.857 -1.3846  1.4501 -0.7479
  491MOL0     H64805   0.579   1.070   0.983  0.5239 -1.2220 -0.8150
  491MOL0     H64806   0.316   1.130   0.856  0.2632  3.0416  0.2941
  491MOL0     H64807   0.421   1.266   0.863  2.7771  0.3484  1.3660
  491MOL0     H64808   0.303   1.101   1.085  1.5782 -2.3124 -1.0857
  491MOL0     H64809   0.463   1.187   1.127 -0.0269  4.6912 -0.0492
  491MOL0     H64810   0.211   1.505   1.142  1.4339  0.9088 -4.7261
  491MOL0     H64811   0.599   0.901   0.666  1.7347  2.1391 -1.8753
  491MOL0     H64812   0.639   0.699   0.590 -1.2547  2.0781  0.4618
  492MOL0     O64813   7.439   2.289   4.749 -0.2458  0.4008  0.1790
  492MOL0     C64814   7.464   2.173   4.776 -0.2168 -0.4457 -0.4359
  492MOL0     O64815   7.376   2.072   4.760  0.1996 -0.2128 -0.7261
  492MOL0     C64816   7.274   2.074   4.664  0.1056  0.3691  0.3578
  492MOL0     C64817   7.182   1.968   4.653 -0.0298 -0.2265 -0.7573
  492MOL0     C64818   7.092   1.961   4.548 -1.0529  0.4034  0.2473
  492MOL0     C64819   7.080   2.062   4.453 -0.0960  0.0144 -0.6280
  492MOL0     O64820   6.979   2.056   4.366 -0.1749  0.2191  0.5076
  492MOL0     C64821   6.916   2.181   4.323  0.3693 -0.1709  0.2913
  492MOL0     C64822   6.799   2.144   4.222 -0.2231  0.4225 -0.3490
  492MOL0     C64823   6.774   2.256   4.120 -0.6896  0.0180 -0.2372
  492MOL0     C64824   6.660   2.231   4.021 -0.8650 -0.5603 -0.1988
  492MOL0     C64825   6.668   2.332   3.919 -0.3949 -0.0763  0.5671
  492MOL0     C64826   6.590   2.464   3.953  0.3080 -0.1411  0.3804
  492MOL0     C64827   6.613   2.582   3.857  0.0470  0.8744 -0.2790
  492MOL0     C64828   6.556   2.543   3.719  0.3117 -0.4285  0.1185
  492MOL0     N64829   6.407   2.572   3.703  0.0107 -0.5834  0.6783
  492MOL0     C64830   6.355   2.685   3.661  1.1002 -0.2248 -0.3312
  492MOL0     C64831   6.220   2.671   3.662 -0.2092 -0.0488 -1.0882
  492MOL0     C64832   6.121   2.771   3.600  0.1214 -0.0997  0.0400
  492MOL0     C64833   6.051   2.851   3.716  0.0020 -0.1823  0.0545
  492MOL0     C64834   5.931   2.930   3.663 -0.2127  0.6603  0.3851
  492MOL0     C64835   5.865   3.020   3.768  0.6538  0.7091  0.6343
  492MOL0     O64836   5.807   3.133   3.707 -0.6094 -0.2491  0.1398
  492MOL0     C64837   5.692   3.119   3.629  0.2557  0.3414  0.1772
  492MOL0     C64838   5.566   3.117   3.686 -0.2949 -0.7050 -0.6408
  492MOL0     C64839   5.452   3.098   3.612  0.1560 -0.1740  0.1951
  492MOL0     C64840   5.454   3.101   3.475 -0.1787 -0.1310 -0.2426
  492MOL0     C64841   5.327   3.095   3.392 -0.6638 -0.1138 -0.4351
  492MOL0     O64842   5.206   3.084   3.451  0.9282 -0.0327 -0.8233
  492MOL0     C64843   5.092   3.085   3.380  0.0999  0.4191 -0.1832
  492MOL0     C64844   5.060   3.178   3.285 -0.2678  0.5086  0.5403
  492MOL0     C64845   4.943   3.183   3.218  0.1035  0.5707  0.2348
  492MOL0     C64846   4.852   3.077   3.221  0.0927  0.4919 -0.0829
  492MOL0     O64847   4.733   3.070   3.154  0.3088 -0.0459  0.2632
  492MOL0     C64848   4.668   3.191   3.112  0.7513 -0.2454  0.2732
  492MOL0     C64849   4.556   3.168   3.021 -0.5668 -0.7800  0.3380
  492MOL0     C64850   4.609   3.157   2.871  0.1620  1.3524 -0.2424
  492MOL0     C64851   4.501   3.102   2.778 -0.1806  0.5487 -1.0346
  492MOL0     C64852   4.552   3.089   2.634 -0.4294  0.5313  0.5643
  492MOL0     C64853   4.446   3.105   2.532  0.0628 -0.7639  0.1317
  492MOL0     C64854   4.518   3.087   2.394 -0.2030 -0.8484  1.3167
  492MOL0     C64855   4.423   3.107   2.272  1.3090  0.2495 -1.0411
  492MOL0    Cl64856   4.316   2.965   2.261 -0.2233 -0.3501 -0.5975
  492MOL0     C64857   4.886   2.970   3.314 -0.4837  0.1979 -0.8597
  492MOL0     C64858   5.007   2.981   3.387  0.4741 -0.3160 -0.2934
  492MOL0     O64859   5.347   3.116   3.275  0.1303 -0.0972  0.7793
  492MOL0     C64860   5.579   3.104   3.406  0.9212 -0.1341  0.3511
  492MOL0     C64861   5.694   3.105   3.483 -0.2360 -0.4790 -0.3728
  492MOL0     N64862   6.191   2.544   3.698 -0.2105 -0.0362  0.6630
  492MOL0     N64863   6.306   2.484   3.718  0.2520 -0.6717 -1.0185
  492MOL0     C64864   7.174   2.165   4.460  0.8730 -0.1946  0.5451
  492MOL0     C64865   7.267   2.167   4.559  0.1427  0.3773 -0.6479
  492MOL0     C64866   7.589   2.142   4.848  0.1162  0.0515 -0.0721
  492MOL0     C64867   7.686   2.243   4.851  0.2293 -0.1656  0.0451
  492MOL0     C64868   7.809   2.224   4.914 -0.4750 -0.0668  0.5755
  492MOL0     C64869   7.842   2.095   4.962  0.0469  0.5145 -0.0133
  492MOL0     O64870   7.965   2.061   5.017 -0.4471  0.5908 -0.0819
  492MOL0     C64871   8.072   2.157   5.032 -0.5040 -0.0651 -0.6912
  492MOL0     C64872   8.157   2.170   4.913 -0.5547  0.8112  0.5443
  492MOL0     C64873   8.303   2.209   4.958  0.2175  0.3563  0.0963
  492MOL0     C64874   8.323   2.346   5.006  0.1271 -0.5302 -0.1174
  492MOL0     C64875   8.461   2.366   5.028 -0.0955 -0.1656  0.1293
  492MOL0     C64876   8.584   2.352   5.040  0.2120 -0.1429 -0.9230
  492MOL0     C64877   7.750   1.992   4.949  0.9939  1.3139 -0.3346
  492MOL0     C64878   7.620   2.015   4.907 -0.5264  0.4426  0.2205
  492MOL0     H64879   7.159   1.889   4.724 -5.5692  1.9528  0.3994
  492MOL0     H64880   7.022   1.878   4.543  0.5909 -0.9908 -0.2826
  492MOL0     H64881   6.981   2.250   4.269  1.1076 -1.6186 -0.7586
  492MOL0     H64882   6.868   2.239   4.403 -1.4101  1.5558 -1.8904
  492MOL0     H64883   6.716   2.129   4.292 -0.2106  0.6247 -0.2908
  492MOL0     H64884   6.816   2.063   4.150  0.5535 -0.6835  1.0365
  492MOL0     H64885   6.866   2.296   4.075 -3.1081  1.4964 -4.4086
  492MOL0     H64886   6.743   2.340   4.184  0.0355  1.7274 -2.0327
  492MOL0     H64887   6.674   2.131   3.978  0.5885 -1.4506  2.1716
  492MOL0     H64888   6.559   2.232   4.063 -1.2587 -0.8755 -1.1081
  492MOL0     H64889   6.613   2.276   3.842  0.7468  0.1266 -0.4401
  492MOL0     H64890   6.772   2.347   3.889  0.0751  0.9405  2.5758
  492MOL0     H64891   6.610   2.507   4.051 -0.4860 -0.2982  0.6230
  492MOL0     H64892   6.484   2.437   3.963 -0.2275  0.3442 -2.7491
  492MOL0     H64893   6.575   2.679   3.889 -0.9343  0.6791 -0.8151
  492MOL0     H64894   6.721   2.589   3.840 -0.0054  1.3812 -0.4323
  492MOL0     H64895   6.571   2.436   3.707  0.8807 -0.3452  0.0644
  492MOL0     H64896   6.615   2.596   3.644 -2.4584  1.9920 -0.5534
  492MOL0     H64897   6.419   2.770   3.635  0.3017  0.6433  0.4563
  492MOL0     H64898   6.061   2.694   3.551  1.9391 -1.4982 -0.0721
  492MOL0     H64899   6.161   2.850   3.536 -2.2733  0.1212 -1.3207
  492MOL0     H64900   6.122   2.911   3.773  0.8048 -1.2793  0.2513
  492MOL0     H64901   6.022   2.771   3.785  1.4921  0.9828  2.1276
  492MOL0     H64902   5.953   2.995   3.577  1.3484 -0.1809  0.1122
  492MOL0     H64903   5.848   2.862   3.639 -2.5488  3.0298  1.2254
  492MOL0     H64904   5.945   3.043   3.838  1.3968 -0.0676  0.0740
  492MOL0     H64905   5.786   2.972   3.826 -0.1950  0.9637 -0.2973
  492MOL0     H64906   5.536   3.116   3.791 -0.2181 -2.5556 -0.6058
  492MOL0     H64907   5.352   3.093   3.654 -0.1375  1.0432 -0.3290
  492MOL0     H64908   5.129   3.257   3.259  2.6051 -2.5474 -2.0206
  492MOL0     H64909   4.920   3.268   3.155  0.4447  1.2784  1.0459
  492MOL0     H64910   4.731   3.263   3.060 -0.7749 -0.3173 -1.8194
  492MOL0     H64911   4.640   3.238   3.207  2.0015 -3.2396  2.2793
  492MOL0     H64912   4.490   3.255   3.032  0.3331  0.0916 -0.8377
  492MOL0     H64913   4.495   3.079   3.036 -1.5865 -0.5281 -1.8838
  492MOL0     H64914   4.699   3.095   2.870 -1.5998 -1.4495  1.7548
  492MOL0     H64915   4.639   3.257   2.836 -0.6696  1.8153  0.3602
  492MOL0     H64916   4.465   3.008   2.822 -0.7357  2.5802  3.3563
  492MOL0     H64917   4.418   3.173   2.779  1.4605  2.5236 -0.4390
  492MOL0     H64918   4.606   2.995   2.614  0.6257  1.1369  0.4948
  492MOL0     H64919   4.618   3.171   2.606  1.3872 -1.4337 -1.2358
  492MOL0     H64920   4.398   3.203   2.534  1.6781  0.0617  1.7754
  492MOL0     H64921   4.365   3.031   2.538 -0.1142 -0.6608 -0.7755
  492MOL0     H64922   4.587   3.172   2.379 -1.4315 -0.1875 -1.0287
  492MOL0     H64923   4.575   2.994   2.391  2.3799  0.6195 -1.4477
  492MOL0     H64924   4.468   3.117   2.172  1.0607 -0.1858 -1.1989
  492MOL0     H64925   4.371   3.202   2.284 -0.6903 -0.7886 -1.0462
  492MOL0     H64926   4.817   2.889   3.338 -1.6228  1.1077 -0.9820
  492MOL0     H64927   5.024   2.901   3.459  1.1842  1.5341  1.7133
  492MOL0     H64928   5.584   3.112   3.298  0.2192 -1.0783  0.2391
  492MOL0     H64929   5.792   3.096   3.438 -0.9717 -1.1847 -1.9423
  492MOL0     H64930   7.173   2.238   4.380 -0.7951 -0.4751  0.2596
  492MOL0     H64931   7.342   2.244   4.543 -0.8878  1.2533 -1.4024
  492MOL0     H64932   7.670   2.339   4.803  0.6788  0.0980  0.4144
  492MOL0     H64933   7.876   2.308   4.928  0.3801 -0.5221 -0.5882
  492MOL0     H64934   8.131   2.113   5.113 -1.5181  1.2909  0.8632
  492MOL0     H64935   8.032   2.255   5.061  2.8236  1.1017  0.4672
  492MOL0     H64936   8.157   2.074   4.860 -1.5762  0.1190  1.7576
  492MOL0     H64937   8.116   2.243   4.843 -0.5774 -0.1330 -0.4586
  492MOL0     H64938   8.380   2.194   4.882  0.1485 -0.1195  0.1189
  492MOL0     H64939   8.336   2.141   5.038  0.1134  0.1311 -0.0527
  492MOL0     H64940   8.290   2.423   4.935 -3.0883 -0.3622  1.3928
  492MOL0     H64941   8.268   2.358   5.100 -2.2040 -0.5077 -1.4184
  492MOL0     H64942   8.689   2.335   5.050  0.5386  1.7949 -0.7486
  492MOL0     H64943   7.761   1.894   4.994 -1.1505  1.2482  0.1786
  492MOL0     H64944   7.556   1.927   4.909  0.1929 -0.2158 -2.1442
  493MOL0     O64945  10.227   2.776   6.794  1.0076 -0.0120 -0.1975
  493MOL0     C64946  10.254   2.786   6.678 -0.7047 -0.0058  0.5101
  493MOL0     O64947  10.373   2.750   6.620 -0.3513  0.4728  0.1044
  493MOL0     C64948  10.469   2.693   6.697 -0.1243  0.3266  0.0805
  493MOL0     C64949  10.543   2.574   6.668  0.1808  0.2929 -0.4608
  493MOL0     C64950  10.639   2.527   6.762  0.6059 -0.5084 -0.6277
  493MOL0     C64951  10.665   2.591   6.879 -0.5454 -0.5978  0.2693
  493MOL0     O64952  10.744   2.531   6.967 -0.8503 -0.3914  0.3191
  493MOL0     C64953  10.752   2.576   7.102  0.0417  0.7897 -0.3134
  493MOL0     C64954  10.861   2.484   7.171  0.2130 -0.2354 -0.1987
  493MOL0     C64955  10.803   2.356   7.228  0.9407  0.1128  0.7081
  493MOL0     C64956  10.751   2.251   7.135 -0.4986 -0.4234  0.4992
  493MOL0     C64957  10.710   2.119   7.199  0.5679  0.0478  0.1705
  493MOL0     C64958  10.654   2.024   7.092 -0.6246 -0.4690  0.0545
  493MOL0     C64959  10.564   1.917   7.159 -0.3065  0.5589  0.1088
  493MOL0     C64960  10.497   1.827   7.052  0.5388 -0.4069 -0.6508
  493MOL0     N64961  10.399   1.741   7.116 -0.3373  0.0391 -0.2498
  493MOL0     C64962  10.265   1.736   7.096  0.4471 -0.5663 -0.2451
  493MOL0     C64963  10.227   1.646   7.189 -0.4777 -0.3491 -0.3530
  493MOL0     C64964  10.084   1.627   7.218  0.0299 -0.4373 -0.3957
  493MOL0     C64965  10.062   1.636   7.371  0.1798 -0.8406  0.4558
  493MOL0     C64966  10.076   1.498   7.429 -0.0527 -0.4907 -0.5828
  493MOL0     C64967  10.073   1.500   7.584  0.3216 -1.1660  0.5196
  493MOL0     O64968  10.078   1.363   7.626  0.0132  0.3253 -0.5550
  493MOL0     C64969  10.009   1.324   7.740 -0.4820  0.1921 -0.1129
  493MOL0     C64970   9.957   1.398   7.853 -0.6965 -0.0712  0.4281
  493MOL0     C64971   9.864   1.349   7.948  0.2068 -1.0630  0.1733
  493MOL0     C64972   9.801   1.226   7.921  0.1069 -0.0062  0.1492
  493MOL0     C64973   9.676   1.188   7.993 -1.2450 -0.2299  0.1722
  493MOL0     O64974   9.609   1.076   7.952  0.1555 -0.4703 -1.2732
  493MOL0     C64975   9.487   1.041   8.012 -0.9688 -0.1980  0.7736
  493MOL0     C64976   9.382   1.137   8.007 -0.7147  0.7274 -0.2902
  493MOL0     C64977   9.261   1.112   8.062  0.3080  0.6049  0.8845
  493MOL0     C64978   9.240   0.983   8.105  0.1203 -0.2712  0.5019
  493MOL0     O64979   9.110   0.942   8.140 -0.5523  0.4859  0.1171
  493MOL0     C64980   9.086   0.984   8.272  0.9019 -0.0665  0.2153
  493MOL0     C64981   8.982   0.898   8.325  0.7072  0.5066  0.1554
  493MOL0     C64982   8.971   0.920   8.473  0.2648 -0.6572  0.0637
  493MOL0     C64983   8.851   0.859   8.539  0.1835  0.5333 -1.2507
  493MOL0     C64984   8.721   0.929   8.497 -0.1884 -0.0327 -0.0140
  493MOL0     C64985   8.692   1.061   8.581 -0.7449  0.0464  1.1600
  493MOL0     C64986   8.565   1.116   8.536  0.3741 -0.1935 -0.2989
  493MOL0     C64987   8.572   1.168   8.391 -0.2004  0.4575 -0.0109
  493MOL0    Cl64988   8.446   1.285   8.325  0.2608 -0.2289  0.3462
  493MOL0     C64989   9.341   0.894   8.114 -0.4599  0.0550 -0.9675
  493MOL0     C64990   9.467   0.913   8.069  0.1378 -0.9802  0.3328
  493MOL0     O64991   9.643   1.269   8.075  0.1908  0.1057  0.0853
  493MOL0     C64992   9.858   1.141   7.822  0.7157  0.0731 -0.8216
  493MOL0     C64993   9.948   1.194   7.729 -0.2152  0.5461 -0.4302
  493MOL0     N64994  10.340   1.595   7.258  0.0958  0.2243 -0.3399
  493MOL0     N64995  10.439   1.655   7.213  1.7427  0.1716  0.0527
  493MOL0     C64996  10.602   2.711   6.896 -0.8547 -0.1073 -0.4185
  493MOL0     C64997  10.504   2.765   6.814 -1.2937 -0.4937 -0.2729
  493MOL0     C64998  10.153   2.828   6.579 -0.2973 -0.3226  0.3407
  493MOL0     C64999  10.019   2.835   6.613 -0.9463 -0.1804 -0.0950
  493MOL0     C65000   9.918   2.868   6.514  0.2281  0.4056  0.5985
  493MOL0     C65001   9.958   2.905   6.382 -0.0373  0.3932  0.1908
  493MOL0     O65002   9.870   2.926   6.285 -0.8622 -0.1192  0.4502
  493MOL0     C65003   9.785   2.810   6.242  0.9427 -0.3306  0.3018
  493MOL0     C65004   9.643   2.852   6.222  0.3038  0.2794 -0.5931
  493MOL0     C65005   9.613   2.917   6.088 -0.6907  1.2697 -0.5718
  493MOL0     C65006   9.672   3.061   6.093 -0.0483 -0.7981  0.5117
  493MOL0     C65007   9.663   3.114   5.954 -0.7508  0.1092 -0.0512
  493MOL0     C65008   9.650   3.163   5.850  0.1672 -0.1980  0.5831
  493MOL0     C65009  10.093   2.894   6.358 -0.1829 -0.0815  0.2475
  493MOL0     C65010  10.193   2.869   6.447  0.4661  0.2725 -0.4762
  493MOL0     H65011  10.510   2.511   6.586 -2.1027 -0.3177  0.8397
  493MOL0     H65012  10.694   2.436   6.738  0.0312 -0.8454 -0.6722
  493MOL0     H65013  10.658   2.554   7.153  0.3636 -1.8590 -0.7082
  493MOL0     H65014  10.794   2.677   7.109  0.4166  0.6548 -0.5843
  493MOL0     H65015  10.902   2.533   7.260  1.2434 -4.1991  1.7484
  493MOL0     H65016  10.943   2.459   7.104  1.2489  2.0273  0.1148
  493MOL0     H65017  10.719   2.379   7.294 -0.2236 -2.1606  0.1187
  493MOL0     H65018  10.889   2.312   7.280 -0.0264 -1.7933  0.7770
  493MOL0     H65019  10.671   2.295   7.075  1.2100  0.2588 -1.3866
  493MOL0     H65020  10.841   2.239   7.073  0.2548  1.4473  1.1698
  493MOL0     H65021  10.630   2.145   7.269  0.9470  0.9194  0.2956
  493MOL0     H65022  10.794   2.078   7.255  2.4767  0.3059 -2.3135
  493MOL0     H65023  10.731   1.966   7.040 -1.3464 -3.2175  1.8377
  493MOL0     H65024  10.600   2.086   7.021 -0.9239 -0.2934  0.4344
  493MOL0     H65025  10.620   1.848   7.222  1.9656  2.3503  0.1514
  493MOL0     H65026  10.486   1.964   7.221 -0.5218 -0.5386  0.7060
  493MOL0     H65027  10.577   1.768   7.007  3.2174  1.7052  1.0787
  493MOL0     H65028  10.455   1.883   6.968  0.8939 -0.9462 -1.1953
  493MOL0     H65029  10.197   1.790   7.031 -0.6108  1.9378  2.6940
  493MOL0     H65030  10.062   1.528   7.177  0.7550  0.1925 -2.4296
  493MOL0     H65031  10.016   1.706   7.184  0.7285  1.1172  1.5911
  493MOL0     H65032   9.967   1.681   7.399  0.0097  0.6964 -2.2772
  493MOL0     H65033  10.140   1.703   7.410  0.6433 -0.5840 -0.8791
  493MOL0     H65034   9.996   1.430   7.398 -3.9726  2.7891  1.3492
  493MOL0     H65035  10.173   1.454   7.404 -0.1614 -1.1771  0.1751
  493MOL0     H65036   9.976   1.543   7.611  0.7389 -1.4219  2.5868
  493MOL0     H65037  10.151   1.564   7.624  0.4623  0.0659 -1.6028
  493MOL0     H65038   9.980   1.504   7.859 -0.1789 -0.2043  0.8429
  493MOL0     H65039   9.834   1.414   8.030  5.0527  1.2119  0.5195
  493MOL0     H65040   9.402   1.234   7.962  1.2818 -0.5799 -2.4680
  493MOL0     H65041   9.180   1.184   8.061  0.8140  1.2112  1.5901
  493MOL0     H65042   9.051   1.088   8.272  1.4227  0.3139  4.9680
  493MOL0     H65043   9.179   0.997   8.327 -0.0760 -0.2558  1.9917
  493MOL0     H65044   9.001   0.791   8.312  1.6810  0.5692  0.9229
  493MOL0     H65045   8.887   0.927   8.278 -1.7904  0.0426  4.3963
  493MOL0     H65046   8.976   1.028   8.488 -2.6701  0.3653 -4.4503
  493MOL0     H65047   9.060   0.876   8.519  0.0875 -1.0366  0.0473
  493MOL0     H65048   8.840   0.756   8.506  0.0823 -0.7676  2.3731
  493MOL0     H65049   8.861   0.863   8.648 -1.5050  0.2674 -1.0697
  493MOL0     H65050   8.647   0.854   8.525  0.7024 -1.7254 -1.9864
  493MOL0     H65051   8.720   0.936   8.388  2.4626  1.5458 -0.0063
  493MOL0     H65052   8.771   1.131   8.551 -2.4536  1.3876 -0.3649
  493MOL0     H65053   8.706   1.056   8.689  0.3299  0.2627  1.0422
  493MOL0     H65054   8.495   1.032   8.541 -0.3971  0.2800 -2.2713
  493MOL0     H65055   8.526   1.195   8.601  0.3127  1.3362 -2.1151
  493MOL0     H65056   8.567   1.081   8.325 -1.8521 -0.4340  1.2179
  493MOL0     H65057   8.672   1.211   8.378  0.4381 -1.1626 -0.6924
  493MOL0     H65058   9.314   0.797   8.153  0.9143  0.5461  1.4200
  493MOL0     H65059   9.547   0.840   8.062 -1.9799 -3.2944 -1.4113
  493MOL0     H65060   9.820   1.040   7.809  0.4640 -0.0209  0.4484
  493MOL0     H65061   9.969   1.132   7.642 -0.6430  3.1319 -2.4733
  493MOL0     H65062  10.647   2.764   6.979 -0.9404 -0.7240  0.0328
  493MOL0     H65063  10.454   2.855   6.847  1.1685  1.3151 -1.1563
  493MOL0     H65064   9.977   2.812   6.710 -4.3187 -2.1059 -1.8289
  493MOL0     H65065   9.811   2.856   6.533  0.2329 -1.7126 -0.4018
  493MOL0     H65066   9.785   2.730   6.317  1.4466  0.1447  0.8162
  493MOL0     H65067   9.827   2.781   6.145 -2.5660 -0.0795 -1.4535
  493MOL0     H65068   9.579   2.762   6.227 -1.7140  1.5581 -1.8829
  493MOL0     H65069   9.624   2.922   6.304  0.7582 -2.4353  2.0290
  493MOL0     H65070   9.504   2.922   6.073 -1.0569  0.1610  1.3231
  493MOL0     H65071   9.645   2.855   6.004 -0.5242 -2.4001  1.9674
  493MOL0     H65072   9.622   3.132   6.160  1.4635  2.7436 -1.7655
  493MOL0     H65073   9.778   3.066   6.121 -0.4138 -0.7104  1.9390
  493MOL0     H65074   9.623   3.212   5.758 -0.3262  1.1700  1.4280
  493MOL0     H65075  10.131   2.931   6.263 -0.4143  1.9074  0.8946
  493MOL0     H65076  10.295   2.884   6.416  0.2692  0.5232 -1.0061
  494MOL0     O65077   5.489   2.649  10.224  1.0319 -0.3470  0.4505
  494MOL0     C65078   5.571   2.721  10.178  0.4182 -0.9916  0.6645
  494MOL0     O65079   5.663   2.791  10.252 -0.2044 -0.2585  0.4761
  494MOL0     C65080   5.649   2.789  10.392  0.0924 -0.3342 -0.9699
  494MOL0     C65081   5.556   2.884  10.450  0.3862  0.2513  0.4901
  494MOL0     C65082   5.554   2.892  10.586  0.5142  1.3404 -0.5270
  494MOL0     C65083   5.641   2.809  10.675 -0.0509 -0.1370  0.0877
  494MOL0     O65084   5.645   2.795  10.809 -0.1620 -0.3558  0.1201
  494MOL0     C65085   5.551   2.871  10.877 -0.7737 -0.3988  0.5167
  494MOL0     C65086   5.568   2.849  11.020  0.1862 -0.1715 -0.3265
  494MOL0     C65087   5.663   2.957  11.084 -0.9627 -0.9371  0.0300
  494MOL0     C65088   5.706   2.906  11.220  0.1515  0.1399  0.6676
  494MOL0     C65089   5.789   3.004  11.291 -0.4440 -0.3290  1.0510
  494MOL0     C65090   5.814   2.977  11.437 -0.6875 -0.5936 -0.1044
  494MOL0     C65091   5.853   2.833  11.457  0.1819 -0.9999 -0.6850
  494MOL0     C65092   5.915   2.806  11.599 -0.9231  0.7714  1.1402
  494MOL0     N65093   5.813   2.797  11.703  0.8942 -0.0484 -0.3279
  494MOL0     C65094   5.765   2.688  11.768 -0.2650  0.1786 -0.5320
  494MOL0     C65095   5.645   2.725  11.823 -0.6773  0.0102 -0.5557
  494MOL0     C65096   5.558   2.636  11.900  0.1155  0.2176  0.6004
  494MOL0     C65097   5.588   2.666  12.043  0.3021  0.7676  0.7480
  494MOL0     C65098   5.468   2.662  12.140 -0.1456  0.2841  0.0795
  494MOL0     C65099   5.522   2.650  12.280 -0.2908  0.0198 -0.2856
  494MOL0     O65100   5.447   2.565  12.363  0.7296 -0.6179 -0.5909
  494MOL0     C65101   5.481   2.441  12.405 -0.0142  0.3893 -0.2038
  494MOL0     C65102   5.568   2.355  12.343  0.7401  0.7543 -0.5665
  494MOL0     C65103   5.599   2.222  12.386 -1.0624 -0.0653 -0.2266
  494MOL0     C65104   5.542   2.180  12.506 -0.3425  0.0865  0.3784
  494MOL0     C65105   5.576   2.050  12.565  0.8576  0.0640  0.1747
  494MOL0     O65106   5.636   1.953  12.489  0.9221 -0.0871  0.0676
  494MOL0     C65107   5.627   1.827  12.543  0.5828  0.2678  0.5149
  494MOL0     C65108   5.550   1.731  12.480 -0.3233  0.3696  0.9190
  494MOL0     C65109   5.531   1.602  12.530  0.3938  0.3350  0.4172
  494MOL0     C65110   5.601   1.573  12.642  0.2652 -0.1204  0.1406
  494MOL0     O65111   5.618   1.442  12.679 -0.2749  1.1627 -0.0317
  494MOL0     C65112   5.515   1.348  12.670  0.6053 -0.1193  0.3112
  494MOL0     C65113   5.384   1.393  12.731  0.1773 -0.6769  0.1156
  494MOL0     C65114   5.290   1.273  12.768  0.1453  0.1964  0.4492
  494MOL0     C65115   5.162   1.327  12.827 -0.1621 -0.7294 -0.5412
  494MOL0     C65116   5.050   1.225  12.841 -0.0276  0.2208 -0.4103
  494MOL0     C65117   4.995   1.160  12.711 -0.2101 -0.6841 -0.7012
  494MOL0     C65118   4.945   1.264  12.608  0.0017  1.2699  0.5180
  494MOL0     C65119   4.840   1.215  12.503 -0.4939  0.1388  0.1389
  494MOL0    Cl65120   4.897   1.070  12.420  0.7551 -0.0107 -0.1438
  494MOL0     C65121   5.686   1.666  12.706 -0.8701  0.3963  0.4430
  494MOL0     C65122   5.703   1.791  12.654 -0.1786 -0.7111 -0.0899
  494MOL0     O65123   5.527   2.041  12.671 -0.3716  0.5259 -0.2264
  494MOL0     C65124   5.450   2.265  12.566 -0.0368 -0.3173 -0.5993
  494MOL0     C65125   5.419   2.392  12.515 -0.6551 -0.3274  0.0221
  494MOL0     N65126   5.624   2.858  11.791 -0.4106 -0.1859 -0.2553
  494MOL0     N65127   5.726   2.901  11.726  0.0446  0.5065  0.0831
  494MOL0     C65128   5.732   2.716  10.614 -0.1790 -0.2876 -0.3062
  494MOL0     C65129   5.734   2.710  10.472 -0.0765 -0.1018  0.1309
  494MOL0     C65130   5.586   2.723  10.032 -0.4505 -1.1775 -0.6833
  494MOL0     C65131   5.474   2.701   9.952  0.3594 -0.1802 -0.3865
  494MOL0     C65132   5.476   2.685   9.815 -0.5115  0.2769 -0.0175
  494MOL0     C65133   5.595   2.716   9.753 -0.1900  0.0431  0.1256
  494MOL0     O65134   5.604   2.678   9.626 -0.4161 -0.0251  0.6623
  494MOL0     C65135   5.702   2.585   9.583 -0.2582 -0.0684 -0.0718
  494MOL0     C65136   5.703   2.585   9.435  0.4752  0.2924  0.2763
  494MOL0     C65137   5.768   2.719   9.389 -1.2806 -0.0811  0.7220
  494MOL0     C65138   5.797   2.694   9.240 -0.8828  0.1114  0.3652
  494MOL0     C65139   5.915   2.611   9.195 -0.0592 -0.3533 -0.6623
  494MOL0     C65140   6.014   2.550   9.167 -0.1191  0.4831  0.3508
  494MOL0     C65141   5.708   2.751   9.824 -0.4041 -0.6857 -0.3160
  494MOL0     C65142   5.708   2.747   9.967 -0.0782 -0.9170 -0.2599
  494MOL0     H65143   5.481   2.942  10.397 -1.5480  0.5876  3.3644
  494MOL0     H65144   5.481   2.957  10.633  0.2489  1.3980 -1.0168
  494MOL0     H65145   5.457   2.831  10.837 -0.3630 -0.3575 -0.4993
  494MOL0     H65146   5.551   2.978  10.853 -1.1948 -0.4420  0.3129
  494MOL0     H65147   5.611   2.752  11.049  2.9839  1.5251  1.6559
  494MOL0     H65148   5.470   2.850  11.069 -0.0167  1.2044 -0.7219
  494MOL0     H65149   5.617   3.055  11.099  2.6727  0.8548  0.4706
  494MOL0     H65150   5.751   2.978  11.023 -0.5978  3.7874  1.7752
  494MOL0     H65151   5.617   2.883  11.278 -0.2580 -0.0362 -0.0174
  494MOL0     H65152   5.748   2.805  11.214 -2.9677 -1.2113 -0.6794
  494MOL0     H65153   5.745   3.104  11.293 -2.7520 -1.1818 -1.2041
  494MOL0     H65154   5.890   3.016  11.249 -2.8533  0.1303 -5.9686
  494MOL0     H65155   5.717   2.989  11.486 -0.9429  1.4517 -0.9979
  494MOL0     H65156   5.889   3.043  11.481 -0.1223 -1.5853  0.4552
  494MOL0     H65157   5.765   2.770  11.446  0.1368 -0.9525 -0.5998
  494MOL0     H65158   5.928   2.803  11.384 -0.2832 -3.6755 -0.1714
  494MOL0     H65159   5.985   2.886  11.627 -1.3558  1.0056  1.5725
  494MOL0     H65160   5.959   2.706  11.599  1.2750  1.6584  1.7045
  494MOL0     H65161   5.817   2.593  11.772  2.0368  1.4112  0.9178
  494MOL0     H65162   5.557   2.530  11.876  1.7405  0.2852  0.1295
  494MOL0     H65163   5.462   2.679  11.870 -0.5343 -0.8826  1.0502
  494MOL0     H65164   5.645   2.758  12.055 -0.5704  1.1933  1.9362
  494MOL0     H65165   5.652   2.582  12.068  1.2617  0.8557 -1.2695
  494MOL0     H65166   5.412   2.756  12.136  0.6964  0.8042  0.1363
  494MOL0     H65167   5.404   2.576  12.121  3.0919 -2.5928  1.1548
  494MOL0     H65168   5.510   2.746  12.330 -3.3565  1.1662 -2.8919
  494MOL0     H65169   5.625   2.620  12.303 -0.4786 -0.1142  0.4230
  494MOL0     H65170   5.612   2.388  12.249  4.9328 -0.3596  0.8015
  494MOL0     H65171   5.658   2.158  12.322 -1.5903  0.7531 -1.5828
  494MOL0     H65172   5.511   1.761  12.382  1.9635 -0.8571 -0.4426
  494MOL0     H65173   5.471   1.525  12.481 -2.5947  3.0619 -0.5307
  494MOL0     H65174   5.540   1.254  12.721  1.0385 -0.1541  0.0365
  494MOL0     H65175   5.506   1.324  12.564 -0.0688 -2.1396  0.7784
  494MOL0     H65176   5.331   1.464  12.667 -0.7720 -3.8407 -2.8813
  494MOL0     H65177   5.418   1.438  12.825  1.7612 -3.4572  0.9915
  494MOL0     H65178   5.342   1.201  12.831  4.6043 -0.0969 -3.0849
  494MOL0     H65179   5.275   1.219  12.674 -0.4914  3.3463 -1.4155
  494MOL0     H65180   5.185   1.349  12.931  2.2712 -3.9491 -0.2370
  494MOL0     H65181   5.125   1.416  12.775 -1.5152 -1.7295 -1.3621
  494MOL0     H65182   4.976   1.276  12.903  1.9292  4.5458 -1.2485
  494MOL0     H65183   5.086   1.138  12.897 -0.6826  0.6589  0.7225
  494MOL0     H65184   4.918   1.085  12.732  0.3140 -0.7759  1.0213
  494MOL0     H65185   5.080   1.118  12.658  0.4541  0.3050 -0.4516
  494MOL0     H65186   4.897   1.348  12.660  0.1224  1.5822  0.1281
  494MOL0     H65187   5.030   1.308  12.557  0.0990  0.4951 -0.0084
  494MOL0     H65188   4.834   1.290  12.424  0.6606  0.7649  0.6208
  494MOL0     H65189   4.737   1.199  12.536 -0.1316  0.0692  1.2750
  494MOL0     H65190   5.746   1.620  12.784 -2.0318  2.3448  2.6023
  494MOL0     H65191   5.781   1.855  12.695 -1.1005  0.7029 -0.4883
  494MOL0     H65192   5.379   2.243  12.645 -1.2739  1.7364 -1.0669
  494MOL0     H65193   5.346   2.464  12.551 -1.5622 -0.5641 -1.2832
  494MOL0     H65194   5.789   2.647  10.676 -1.6012  1.0144  2.6608
  494MOL0     H65195   5.797   2.640  10.417 -0.5169 -1.8418  1.7475
  494MOL0     H65196   5.381   2.672  10.000 -0.6223  0.5318 -1.8093
  494MOL0     H65197   5.393   2.645   9.758  0.4965 -1.1994 -0.5002
  494MOL0     H65198   5.674   2.488   9.626  0.0194 -1.1284 -2.1586
  494MOL0     H65199   5.797   2.612   9.630 -0.4190 -0.9135  0.7772
  494MOL0     H65200   5.764   2.497   9.411 -1.8227 -1.7359  1.4136
  494MOL0     H65201   5.600   2.569   9.401  0.2455 -2.8465  2.0573
  494MOL0     H65202   5.861   2.741   9.443 -0.7240  1.3328 -0.7154
  494MOL0     H65203   5.701   2.805   9.394 -1.5046 -0.0995 -1.2376
  494MOL0     H65204   5.706   2.660   9.189  0.4166 -0.9842 -1.3390
  494MOL0     H65205   5.808   2.796   9.201 -2.4061  0.0702 -0.2567
  494MOL0     H65206   6.105   2.501   9.139 -1.7709 -2.6520  0.1236
  494MOL0     H65207   5.801   2.755   9.769  0.4916 -2.2877  0.9665
  494MOL0     H65208   5.796   2.767  10.027 -1.6472  1.0980  1.5531
  495MOL0     O65209   6.090   2.234   8.546 -0.0571 -0.5016 -0.1487
  495MOL0     C65210   6.087   2.158   8.450  0.0415 -0.7579  0.1546
  495MOL0     O65211   5.980   2.140   8.365  0.4510  0.4538 -0.3477
  495MOL0     C65212   5.861   2.206   8.391 -0.5892  0.2096 -0.3510
  495MOL0     C65213   5.850   2.342   8.394 -0.1141 -1.3444 -0.9424
  495MOL0     C65214   5.731   2.406   8.436  0.3519  0.4014  0.7338
  495MOL0     C65215   5.621   2.330   8.473  0.7801 -0.6600  0.3270
  495MOL0     O65216   5.500   2.390   8.520  0.4100 -0.0331  0.6206
  495MOL0     C65217   5.515   2.479   8.624 -0.2332 -0.4591  1.3333
  495MOL0     C65218   5.384   2.473   8.703  0.4446 -0.0190  0.6106
  495MOL0     C65219   5.265   2.527   8.626  0.9137 -0.3715 -0.0716
  495MOL0     C65220   5.261   2.679   8.618 -0.0825  0.3409 -0.4192
  495MOL0     C65221   5.150   2.710   8.516 -0.2599  0.5565 -0.0755
  495MOL0     C65222   5.111   2.861   8.539 -0.1239  0.0277  0.0894
  495MOL0     C65223   5.228   2.946   8.497  0.0910 -0.9794 -1.0474
  495MOL0     C65224   5.186   3.094   8.488  0.6514  0.1395 -0.1893
  495MOL0     N65225   5.107   3.117   8.366 -0.8568  0.1771  0.0664
  495MOL0     C65226   5.149   3.134   8.240 -0.2055 -0.4351  0.1968
  495MOL0     C65227   5.044   3.167   8.175  1.2189  0.4183  0.4665
  495MOL0     C65228   5.025   3.211   8.035  0.5381 -0.2902 -0.5560
  495MOL0     C65229   5.135   3.298   7.981 -0.2980  0.9586 -0.6365
  495MOL0     C65230   5.079   3.366   7.862 -0.6278 -0.1824  0.7786
  495MOL0     C65231   5.184   3.437   7.765  0.6751  0.3002  0.0307
  495MOL0     O65232   5.253   3.328   7.691 -0.2825 -0.4317  0.0686
  495MOL0     C65233   5.265   3.345   7.555 -0.2820 -0.1145  0.2928
  495MOL0     C65234   5.148   3.365   7.478  0.5693  0.6947  0.7448
  495MOL0     C65235   5.179   3.402   7.344  0.6572  0.8243  0.6064
  495MOL0     C65236   5.306   3.416   7.284 -0.2072  0.2246  0.0673
  495MOL0     C65237   5.322   3.480   7.147  0.0249 -0.2306  1.2809
  495MOL0     O65238   5.433   3.440   7.068  0.0353 -0.6806 -0.6575
  495MOL0     C65239   5.443   3.491   6.943 -0.2088  0.6864  0.6612
  495MOL0     C65240   5.374   3.438   6.836  0.3472 -0.4160 -0.3168
  495MOL0     C65241   5.375   3.495   6.708 -0.3171  0.5702 -0.0653
  495MOL0     C65242   5.456   3.603   6.683 -0.8501  0.4855 -0.0670
  495MOL0     O65243   5.463   3.664   6.564 -0.0930  0.1102  0.3492
  495MOL0     C65244   5.425   3.598   6.441 -0.8033  0.6608 -0.0508
  495MOL0     C65245   5.512   3.469   6.413  0.9007 -0.5886  0.6854
  495MOL0     C65246   5.438   3.363   6.329  0.1849  0.4359  0.0946
  495MOL0     C65247   5.529   3.242   6.291  0.1403  0.1150  0.3292
  495MOL0     C65248   5.453   3.143   6.191 -0.2532 -0.4013 -0.6274
  495MOL0     C65249   5.551   3.020   6.163 -0.2605  0.1325  0.3976
  495MOL0     C65250   5.564   2.937   6.290 -0.0025 -1.4538  0.2666
  495MOL0     C65251   5.580   2.786   6.273  0.6519  0.1773 -0.0975
  495MOL0    Cl65252   5.498   2.709   6.137 -0.0594  0.0115  0.0244
  495MOL0     C65253   5.544   3.650   6.782 -0.1494  0.8782 -0.6329
  495MOL0     C65254   5.527   3.594   6.915 -0.4871 -0.6769  0.0912
  495MOL0     O65255   5.249   3.569   7.114  0.0083  0.3856 -0.2171
  495MOL0     C65256   5.409   3.383   7.368  0.5485  0.2497  1.1314
  495MOL0     C65257   5.388   3.356   7.501 -0.1841 -0.1743  0.1874
  495MOL0     N65258   4.929   3.168   8.254  0.1383 -0.5864 -0.2881
  495MOL0     N65259   4.969   3.135   8.373 -0.4388 -0.5023 -0.5493
  495MOL0     C65260   5.637   2.186   8.461 -0.4121 -0.2211  0.8724
  495MOL0     C65261   5.756   2.130   8.438  0.2538  0.7415  0.2775
  495MOL0     C65262   6.195   2.066   8.435 -0.2704  0.5595 -0.5563
  495MOL0     C65263   6.183   1.938   8.377 -1.1730  0.0051 -0.7015
  495MOL0     C65264   6.297   1.852   8.354  0.1815  0.2306  0.0218
  495MOL0     C65265   6.425   1.897   8.393 -0.0499 -0.8863  0.4307
  495MOL0     O65266   6.536   1.816   8.343  0.0607  0.2813  0.0166
  495MOL0     C65267   6.671   1.854   8.376 -0.3200  0.4856  0.2121
  495MOL0     C65268   6.756   1.739   8.433 -0.0855 -0.1449  0.1310
  495MOL0     C65269   6.692   1.677   8.557  0.3824  0.5079 -0.0479
  495MOL0     C65270   6.694   1.760   8.684  0.7526 -0.7479 -0.4450
  495MOL0     C65271   6.676   1.695   8.809  0.4943 -0.0598  0.5235
  495MOL0     C65272   6.658   1.638   8.909 -0.0983 -0.6110  0.2372
  495MOL0     C65273   6.430   2.023   8.464 -0.5151 -1.2569  0.4125
  495MOL0     C65274   6.320   2.100   8.479  0.4967 -0.4099 -0.0698
  495MOL0     H65275   5.935   2.402   8.363 -0.9686 -0.3288 -1.3759
  495MOL0     H65276   5.714   2.513   8.437 -1.7687  0.1212  2.8065
  495MOL0     H65277   5.529   2.584   8.595  1.4036 -1.0384 -0.1613
  495MOL0     H65278   5.601   2.440   8.680  2.4023  1.9107 -0.7606
  495MOL0     H65279   5.404   2.540   8.787  1.1944 -0.4222  0.7666
  495MOL0     H65280   5.367   2.370   8.737 -0.6247 -1.9167 -4.7842
  495MOL0     H65281   5.171   2.495   8.674  1.2843 -4.4021 -1.6083
  495MOL0     H65282   5.266   2.484   8.526  3.4750 -1.8686  0.5068
  495MOL0     H65283   5.234   2.719   8.717 -1.9049  1.6308 -1.3702
  495MOL0     H65284   5.356   2.726   8.593 -0.3922  0.6533 -1.0374
  495MOL0     H65285   5.055   2.662   8.542 -0.2711  0.2362 -0.6973
  495MOL0     H65286   5.181   2.677   8.416  1.7259 -0.5116  0.8587
  495MOL0     H65287   5.070   2.871   8.639 -1.0272 -1.6165 -0.0842
  495MOL0     H65288   5.030   2.884   8.468  0.7926 -1.7520 -1.6403
  495MOL0     H65289   5.317   2.933   8.559  0.4862 -1.1151 -1.6278
  495MOL0     H65290   5.259   2.925   8.394 -0.4249  2.7675 -2.0939
  495MOL0     H65291   5.273   3.160   8.487  0.4407  0.4309  0.4139
  495MOL0     H65292   5.128   3.114   8.578 -1.0089  1.0478 -1.4161
  495MOL0     H65293   5.250   3.133   8.199 -0.0822  1.0442  0.4179
  495MOL0     H65294   4.933   3.270   8.031  0.3988 -0.2629  1.6129
  495MOL0     H65295   5.017   3.127   7.966 -0.4778 -0.2940 -0.4533
  495MOL0     H65296   5.223   3.233   7.968 -1.2945 -0.6413  0.2350
  495MOL0     H65297   5.149   3.374   8.058  0.8954 -0.7238  0.9204
  495MOL0     H65298   5.012   3.302   7.804  0.0839  0.3706 -0.7410
  495MOL0     H65299   5.009   3.444   7.892 -0.5184 -0.5451  2.0422
  495MOL0     H65300   5.259   3.490   7.824  2.0230 -0.8687 -0.5758
  495MOL0     H65301   5.129   3.499   7.693 -2.3881 -0.7793  1.2869
  495MOL0     H65302   5.047   3.350   7.512 -1.1800 -2.8580 -4.6756
  495MOL0     H65303   5.092   3.413   7.279 -1.2544 -0.9199  2.6952
  495MOL0     H65304   5.298   3.362   6.854  0.4880 -0.1197  1.8267
  495MOL0     H65305   5.306   3.458   6.634  0.4194 -1.0645  0.0166
  495MOL0     H65306   5.449   3.663   6.357 -0.4222 -1.4765 -1.6990
  495MOL0     H65307   5.317   3.576   6.440 -0.9472  1.1634 -3.0596
  495MOL0     H65308   5.556   3.423   6.502 -0.6559 -0.9671  1.2926
  495MOL0     H65309   5.599   3.505   6.357  2.5234 -0.9204  2.8617
  495MOL0     H65310   5.411   3.418   6.239  1.7073  0.1657 -0.5581
  495MOL0     H65311   5.348   3.330   6.381 -1.7415  0.4723 -3.0184
  495MOL0     H65312   5.624   3.264   6.242 -0.9005 -0.3605 -2.0332
  495MOL0     H65313   5.551   3.191   6.385  1.1357  0.7810  0.4683
  495MOL0     H65314   5.436   3.185   6.092  1.1377 -1.8012 -1.4987
  495MOL0     H65315   5.361   3.104   6.236 -0.9767  0.5898 -1.1958
  495MOL0     H65316   5.653   3.041   6.130  0.1818  1.0049  2.1731
  495MOL0     H65317   5.499   2.958   6.090 -1.1836 -1.2329  2.1290
  495MOL0     H65318   5.635   2.973   6.364  1.2393 -0.9431 -1.1056
  495MOL0     H65319   5.467   2.948   6.340 -1.6627  3.2812 -3.1283
  495MOL0     H65320   5.547   2.734   6.363 -2.1280 -1.0667 -1.7081
  495MOL0     H65321   5.688   2.770   6.259  0.3850 -2.0328 -0.0091
  495MOL0     H65322   5.619   3.722   6.751 -0.5897  1.8106  0.3908
  495MOL0     H65323   5.594   3.642   6.986 -0.7744  0.0100 -0.0901
  495MOL0     H65324   5.509   3.368   7.329  0.2150 -3.9366  1.3664
  495MOL0     H65325   5.475   3.317   7.553 -0.0374 -2.3771 -1.5662
  495MOL0     H65326   5.548   2.125   8.470 -0.9183 -0.1385 -2.3586
  495MOL0     H65327   5.781   2.025   8.445  0.5873  0.8963  1.5748
  495MOL0     H65328   6.086   1.908   8.340 -2.7969  0.3409  2.8728
  495MOL0     H65329   6.286   1.761   8.296  0.6709 -0.4294  0.9227
  495MOL0     H65330   6.676   1.935   8.448  0.8341 -0.2613  1.0012
  495MOL0     H65331   6.714   1.897   8.285 -1.3330 -0.8357 -0.9402
  495MOL0     H65332   6.769   1.660   8.359 -0.4333  1.5154 -1.7666
  495MOL0     H65333   6.856   1.774   8.462 -0.4318 -1.2162  2.9943
  495MOL0     H65334   6.737   1.579   8.578 -4.0297 -1.6117  0.7603
  495MOL0     H65335   6.585   1.656   8.541  0.0121  1.8227  0.5849
  495MOL0     H65336   6.780   1.827   8.689  0.0504  0.1499  0.1177
  495MOL0     H65337   6.609   1.829   8.683  1.7604  0.5492  0.0516
  495MOL0     H65338   6.674   1.591   9.003  0.0631  1.6831  1.4390
  495MOL0     H65339   6.520   2.073   8.497 -1.6926 -0.0790  1.9618
  495MOL0     H65340   6.347   2.192   8.530  2.9615 -0.7295 -0.6911
  496MOL0     O65341   6.499   8.408   7.989  0.2915 -0.6109  0.1108
  496MOL0     C65342   6.575   8.360   7.907 -0.0364 -0.8663 -0.7473
  496MOL0     O65343   6.550   8.256   7.830  0.1744 -0.9778  0.0575
  496MOL0     C65344   6.452   8.168   7.869  0.0000 -1.3077  0.6690
  496MOL0     C65345   6.327   8.199   7.833  0.1207 -0.2718 -0.1754
  496MOL0     C65346   6.215   8.124   7.879 -0.1422  0.1920  0.0639
  496MOL0     C65347   6.237   8.016   7.969  0.6698 -0.1088  1.2941
  496MOL0     O65348   6.128   7.934   7.987  0.2212  0.0837 -0.0133
  496MOL0     C65349   6.158   7.822   8.070  0.9100  0.5640  1.0082
  496MOL0     C65350   6.127   7.869   8.208  0.4689 -0.8550 -0.1100
  496MOL0     C65351   5.971   7.903   8.228  0.0792 -0.3130 -0.2157
  496MOL0     C65352   5.900   7.770   8.261 -0.2489  0.2462  0.4961
  496MOL0     C65353   5.788   7.792   8.359 -0.5667 -0.0981 -1.0286
  496MOL0     C65354   5.692   7.670   8.348 -0.6282 -0.0786  0.1783
  496MOL0     C65355   5.559   7.703   8.423  0.2049  0.4680  0.5414
  496MOL0     C65356   5.464   7.577   8.437 -0.4212 -1.5033  0.7344
  496MOL0     N65357   5.330   7.634   8.437  0.0511 -1.0416 -0.1824
  496MOL0     C65358   5.279   7.711   8.537  0.5432  0.2384 -0.4413
  496MOL0     C65359   5.157   7.754   8.497 -0.0467  0.8335 -0.6658
  496MOL0     C65360   5.088   7.839   8.595 -0.0637 -0.8505  0.2642
  496MOL0     C65361   4.984   7.768   8.678 -0.0479 -0.0135  0.2768
  496MOL0     C65362   4.887   7.860   8.753 -0.1874 -0.9340 -0.6840
  496MOL0     C65363   4.793   7.939   8.650  0.0479  0.6235  0.1847
  496MOL0     O65364   4.698   8.025   8.712  0.2957 -0.6302  0.6202
  496MOL0     C65365   4.741   8.144   8.761  0.1169 -0.2049 -0.8345
  496MOL0     C65366   4.650   8.220   8.843 -0.4194 -0.3869  0.8059
  496MOL0     C65367   4.681   8.350   8.888 -0.2284  0.3275  0.6581
  496MOL0     C65368   4.793   8.416   8.841 -0.1911 -0.1118  0.1675
  496MOL0     C65369   4.811   8.562   8.860 -0.0706 -0.3142  0.0171
  496MOL0     O65370   4.935   8.614   8.823  0.4018  0.5876 -0.1574
  496MOL0     C65371   4.952   8.744   8.850 -0.0961 -0.3708  0.5043
  496MOL0     C65372   4.924   8.830   8.749 -0.2709  0.2148  0.0922
  496MOL0     C65373   4.940   8.966   8.762  0.0280 -0.5174  0.2723
  496MOL0     C65374   4.971   9.014   8.896 -0.2156 -0.2707 -0.0261
  496MOL0     O65375   4.998   9.147   8.901  0.0790 -0.5902  0.0181
  496MOL0     C65376   5.109   9.194   8.817  0.2288  0.7962 -0.0158
  496MOL0     C65377   5.111   9.345   8.815  0.3008  0.1926  0.2908
  496MOL0     C65378   4.990   9.400   8.739  0.5741  0.5295 -0.6378
  496MOL0     C65379   4.980   9.560   8.747 -0.7570  0.8114  0.1882
  496MOL0     C65380   4.865   9.613   8.664  0.9617 -0.6194 -0.9754
  496MOL0     C65381   4.732   9.569   8.724  0.3772  0.4321  0.3918
  496MOL0     C65382   4.628   9.634   8.647  0.4398  0.0396  0.3518
  496MOL0     C65383   4.487   9.588   8.687  0.1618 -0.0689 -0.2590
  496MOL0    Cl65384   4.374   9.708   8.603 -0.0657  0.1633  0.3137
  496MOL0     C65385   4.995   8.924   9.008  0.1374  0.0622 -0.5143
  496MOL0     C65386   4.975   8.785   8.985  0.1914 -0.7369  0.1927
  496MOL0     O65387   4.713   8.621   8.915 -0.1110  0.1425 -0.3613
  496MOL0     C65388   4.888   8.340   8.769  0.6250  0.5482  0.5624
  496MOL0     C65389   4.861   8.206   8.724 -0.0748  0.7533 -0.0472
  496MOL0     N65390   5.130   7.701   8.375  0.3395 -0.7873  0.2795
  496MOL0     N65391   5.242   7.641   8.339 -0.2320 -0.2924  0.1146
  496MOL0     C65392   6.364   7.989   8.013 -0.8550  0.0672  0.1283
  496MOL0     C65393   6.467   8.064   7.965 -0.5949 -0.3606  0.0064
  496MOL0     C65394   6.691   8.452   7.860 -1.3616  0.2624  0.4447
  496MOL0     C65395   6.778   8.406   7.760  0.0086  0.9690 -0.1909
  496MOL0     C65396   6.881   8.488   7.722  1.0041 -0.2866  0.1230
  496MOL0     C65397   6.901   8.613   7.779  0.5299 -0.0849 -0.2056
  496MOL0     O65398   6.997   8.703   7.758  0.6936 -0.0951  0.0351
  496MOL0     C65399   7.112   8.662   7.679 -0.2223 -0.5337  0.6873
  496MOL0     C65400   7.203   8.785   7.643 -0.2754  0.3615 -1.1684
  496MOL0     C65401   7.280   8.837   7.775  0.4730 -0.4902 -0.0079
  496MOL0     C65402   7.384   8.954   7.759 -0.0802 -0.1176 -0.2336
  496MOL0     C65403   7.485   8.909   7.665  0.4894 -0.2764  0.3466
  496MOL0     C65404   7.578   8.868   7.601 -0.9234 -0.6282  0.3487
  496MOL0     C65405   6.809   8.662   7.875  0.0850  0.1797 -0.0835
  496MOL0     C65406   6.701   8.584   7.905 -0.2076 -0.0582 -0.1221
  496MOL0     H65407   6.296   8.281   7.770 -0.9944 -1.4471 -1.2268
  496MOL0     H65408   6.112   8.130   7.845  0.0485  1.4568 -0.3589
  496MOL0     H65409   6.256   7.775   8.060  1.0921  1.1401 -0.2258
  496MOL0     H65410   6.090   7.744   8.035  1.3305 -0.1676  1.8001
  496MOL0     H65411   6.188   7.958   8.229 -1.3636 -0.1409  2.7122
  496MOL0     H65412   6.150   7.794   8.284 -2.2953 -1.5800  0.1061
  496MOL0     H65413   5.929   7.959   8.144  1.4625 -0.9413 -1.3745
  496MOL0     H65414   5.960   7.974   8.311 -0.1932  0.5870 -0.9973
  496MOL0     H65415   5.864   7.727   8.167  0.0772  1.0585 -0.0128
  496MOL0     H65416   5.974   7.698   8.298  0.4693  0.1973 -0.9275
  496MOL0     H65417   5.741   7.889   8.340 -2.4201 -1.2134 -2.5487
  496MOL0     H65418   5.825   7.789   8.462 -2.2476  1.1380 -0.3574
  496MOL0     H65419   5.735   7.581   8.395  2.3776  0.6047 -1.0669
  496MOL0     H65420   5.664   7.650   8.244  0.5854 -1.7688  0.1392
  496MOL0     H65421   5.588   7.747   8.519  5.1339 -0.2849 -0.3090
  496MOL0     H65422   5.510   7.775   8.356 -0.8170 -0.4957  0.2334
  496MOL0     H65423   5.489   7.527   8.531  2.9954 -3.9773 -1.2487
  496MOL0     H65424   5.487   7.511   8.353  3.6239 -0.2142  0.6198
  496MOL0     H65425   5.322   7.723   8.636  0.4775 -4.3369  0.3762
  496MOL0     H65426   5.049   7.931   8.550 -0.5906 -0.6579  1.0693
  496MOL0     H65427   5.159   7.882   8.666 -0.1006 -0.7761  0.2564
  496MOL0     H65428   5.032   7.707   8.755 -0.7647  0.0043  0.7469
  496MOL0     H65429   4.922   7.702   8.616  0.0140  0.3520 -0.1735
  496MOL0     H65430   4.830   7.803   8.827  1.9338 -1.1390  0.8758
  496MOL0     H65431   4.930   7.935   8.820 -3.5261 -0.2505  0.9149
  496MOL0     H65432   4.733   7.869   8.590  2.5513 -0.5220 -1.1275
  496MOL0     H65433   4.843   7.991   8.568  0.5845  2.9335  1.8698
  496MOL0     H65434   4.559   8.177   8.884 -1.0385 -0.1364 -0.2611
  496MOL0     H65435   4.607   8.392   8.956  0.8476 -0.2478  2.2544
  496MOL0     H65436   4.897   8.796   8.650  0.5157 -0.0340 -0.0449
  496MOL0     H65437   4.916   9.045   8.692 -2.0533  0.6385  2.1822
  496MOL0     H65438   5.101   9.158   8.714  2.4971 -0.4162  0.1581
  496MOL0     H65439   5.201   9.156   8.862 -1.1653 -0.2974  2.0479
  496MOL0     H65440   5.198   9.365   8.752 -1.5993  0.9824 -2.2879
  496MOL0     H65441   5.121   9.391   8.914 -1.2243  0.2183  0.4567
  496MOL0     H65442   4.895   9.377   8.788  1.6112 -1.8226  0.4388
  496MOL0     H65443   4.995   9.369   8.634 -1.1515 -0.2479 -0.5351
  496MOL0     H65444   4.987   9.594   8.851  2.2515  2.0592 -0.3187
  496MOL0     H65445   5.068   9.600   8.696 -2.6034  0.8917 -3.1926
  496MOL0     H65446   4.866   9.579   8.560  1.5331 -0.1407 -1.1346
  496MOL0     H65447   4.877   9.722   8.661  2.2061 -0.6828  0.4615
  496MOL0     H65448   4.717   9.605   8.826  1.0846  3.1603 -0.3927
  496MOL0     H65449   4.708   9.463   8.736 -1.6429  0.3846 -2.9581
  496MOL0     H65450   4.635   9.741   8.668  0.5707 -0.3852  2.7962
  496MOL0     H65451   4.654   9.610   8.543 -0.7356 -1.4326  0.3698
  496MOL0     H65452   4.463   9.586   8.794 -0.2543 -0.5333 -0.3556
  496MOL0     H65453   4.466   9.487   8.653  1.0636 -0.2972 -0.1571
  496MOL0     H65454   5.018   8.979   9.098 -1.7225 -2.6556  1.7677
  496MOL0     H65455   4.974   8.714   9.067 -1.1905 -1.0029 -0.0190
  496MOL0     H65456   4.983   8.385   8.742  0.3962  0.3673 -0.6109
  496MOL0     H65457   4.929   8.154   8.657  2.0219  1.0943  1.7286
  496MOL0     H65458   6.390   7.904   8.075 -0.7849  0.7900  1.1277
  496MOL0     H65459   6.567   8.037   7.996 -0.6350  0.4630  0.8751
  496MOL0     H65460   6.773   8.303   7.728 -3.3880  0.1280  2.3811
  496MOL0     H65461   6.947   8.448   7.646  1.1487  1.9399 -1.0127
  496MOL0     H65462   7.071   8.624   7.585  2.2632 -1.2817 -0.1549
  496MOL0     H65463   7.170   8.585   7.729 -2.0918 -1.9367  0.8271
  496MOL0     H65464   7.274   8.740   7.573  0.4795  1.6689 -1.2704
  496MOL0     H65465   7.140   8.860   7.593  0.1833  0.1100 -2.1615
  496MOL0     H65466   7.326   8.751   7.825  0.6567 -0.2803  0.1882
  496MOL0     H65467   7.201   8.860   7.847 -0.7317  1.5507 -1.8850
  496MOL0     H65468   7.337   9.046   7.724 -0.1471  0.5215  1.4499
  496MOL0     H65469   7.429   8.976   7.856 -3.0903  0.9292  1.0555
  496MOL0     H65470   7.659   8.828   7.545 -2.0992 -3.3221  0.4123
  496MOL0     H65471   6.821   8.757   7.927 -0.1613 -1.3327  2.9148
  496MOL0     H65472   6.629   8.617   7.980 -0.9505 -2.6331  0.3734
  497MOL0     O65473   6.789   6.775   6.227 -0.6575  0.5506  0.1275
  497MOL0     C65474   6.870   6.828   6.300 -0.5426  0.0796 -0.3377
  497MOL0     O65475   6.896   6.962   6.308 -0.8562  0.0579 -0.8757
  497MOL0     C65476   6.841   7.045   6.212 -0.2103  0.2166 -0.6320
  497MOL0     C65477   6.846   7.026   6.075  0.1359 -0.2638  0.5480
  497MOL0     C65478   6.787   7.120   5.989 -0.5531  0.6641  0.3088
  497MOL0     C65479   6.728   7.240   6.041  0.3429 -0.3950  0.9023
  497MOL0     O65480   6.689   7.345   5.959  0.4511  0.4581  0.6819
  497MOL0     C65481   6.679   7.305   5.822  0.5072 -0.5632  0.1425
  497MOL0     C65482   6.598   7.403   5.735 -0.5081  0.0225  0.7979
  497MOL0     C65483   6.454   7.401   5.776  0.6469 -0.3234 -0.4483
  497MOL0     C65484   6.349   7.483   5.693  0.6203 -0.0686  0.2115
  497MOL0     C65485   6.351   7.465   5.546 -0.2188 -0.6007  0.2409
  497MOL0     C65486   6.311   7.322   5.514 -0.4794  0.5483  0.9396
  497MOL0     C65487   6.278   7.297   5.367  0.8139 -0.4430  0.7134
  497MOL0     C65488   6.249   7.145   5.343 -0.0293 -0.4908  0.2420
  497MOL0     N65489   6.215   7.126   5.198 -0.0989 -0.5787 -0.3816
  497MOL0     C65490   6.090   7.084   5.158 -0.5813 -0.6666 -0.8518
  497MOL0     C65491   6.105   7.064   5.026 -0.0306 -0.4771  0.0683
  497MOL0     C65492   5.999   6.996   4.948 -0.5515  0.8010 -0.8402
  497MOL0     C65493   6.030   6.955   4.814  0.1264 -0.1931  0.2861
  497MOL0     C65494   5.905   6.924   4.732  0.1265 -0.0300 -0.4022
  497MOL0     C65495   5.943   6.882   4.592 -0.0904  0.2532  0.8734
  497MOL0     O65496   5.826   6.866   4.514  0.1475 -0.3363  0.0345
  497MOL0     C65497   5.839   6.847   4.381 -0.0714  0.1895  0.4788
  497MOL0     C65498   5.947   6.787   4.316 -0.4174  0.4090 -0.0582
  497MOL0     C65499   5.940   6.778   4.177 -0.0501 -0.0220 -0.0538
  497MOL0     C65500   5.828   6.820   4.103  0.5697 -0.4199  0.3956
  497MOL0     C65501   5.825   6.806   3.956 -0.4378 -0.2307 -0.3681
  497MOL0     O65502   5.698   6.831   3.902  0.3462 -0.2840 -0.0979
  497MOL0     C65503   5.664   6.786   3.780  0.4018  0.5489  0.5604
  497MOL0     C65504   5.573   6.863   3.706 -0.5576  0.0549  0.1899
  497MOL0     C65505   5.534   6.820   3.575 -1.0546 -0.9522  1.1603
  497MOL0     C65506   5.587   6.707   3.517 -0.0187 -0.3452 -0.0764
  497MOL0     O65507   5.552   6.670   3.389  0.0999  0.6626 -0.6993
  497MOL0     C65508   5.441   6.721   3.313  0.5486 -0.1472 -0.6959
  497MOL0     C65509   5.441   6.672   3.169  0.1853  0.1057 -0.0763
  497MOL0     C65510   5.354   6.776   3.093  0.1259 -0.1211  0.7409
  497MOL0     C65511   5.306   6.744   2.952 -0.5854  0.3827 -0.4104
  497MOL0     C65512   5.217   6.863   2.908  0.7007 -0.6684 -0.2821
  497MOL0     C65513   5.211   6.857   2.751  0.2406  0.4849  0.8260
  497MOL0     C65514   5.179   6.993   2.693  0.3739 -0.6832 -0.3542
  497MOL0     C65515   5.134   7.000   2.545  0.5438  0.5764  0.2463
  497MOL0    Cl65516   5.274   6.987   2.426  0.1271  0.2381  0.1876
  497MOL0     C65517   5.673   6.620   3.602  0.0152  0.1795 -0.3569
  497MOL0     C65518   5.703   6.661   3.730 -0.5038  0.5171 -0.2195
  497MOL0     O65519   5.938   6.778   3.895  1.0437 -0.1681  1.0711
  497MOL0     C65520   5.726   6.887   4.171  0.5739 -0.0199 -0.1991
  497MOL0     C65521   5.731   6.895   4.308  0.5287  0.3291 -0.8165
  497MOL0     N65522   6.236   7.081   4.986 -0.5780  0.0025 -0.2246
  497MOL0     N65523   6.298   7.125   5.097 -0.1974 -0.1852  0.2393
  497MOL0     C65524   6.727   7.255   6.175 -0.6430  0.0763 -0.3162
  497MOL0     C65525   6.782   7.160   6.256  0.4238  0.1123 -1.1631
  497MOL0     C65526   6.933   6.732   6.387 -1.1356 -0.4667 -0.3928
  497MOL0     C65527   7.026   6.787   6.471  0.6924  0.7624 -0.6617
  497MOL0     C65528   7.110   6.699   6.548 -0.4375 -0.7245 -0.0669
  497MOL0     C65529   7.093   6.559   6.534 -0.7777  0.6247  0.3226
  497MOL0     O65530   7.174   6.470   6.599 -0.1172 -0.2407  0.1559
  497MOL0     C65531   7.268   6.520   6.692  0.5263  0.7260 -0.1873
  497MOL0     C65532   7.211   6.554   6.831  0.2535 -0.6242 -0.1552
  497MOL0     C65533   7.118   6.455   6.879  0.1042 -0.3429 -0.1599
  497MOL0     C65534   7.052   6.498   7.016  1.1442  0.6707 -0.2985
  497MOL0     C65535   7.011   6.378   7.095 -0.2625  0.5964  0.4014
  497MOL0     C65536   6.982   6.271   7.150  0.9463 -0.7239 -0.7752
  497MOL0     C65537   7.003   6.500   6.450 -0.4663  0.6513  0.5583
  497MOL0     C65538   6.927   6.594   6.369  0.7583 -0.5492  0.4726
  497MOL0     H65539   6.894   6.941   6.027 -0.1029  0.3556 -0.8534
  497MOL0     H65540   6.800   7.081   5.889  1.5216  1.0154  0.4032
  497MOL0     H65541   6.623   7.211   5.815  3.6312 -2.7484  1.7009
  497MOL0     H65542   6.777   7.284   5.778  1.6557 -0.7684  2.6380
  497MOL0     H65543   6.612   7.382   5.629  0.9516 -1.6095  1.2748
  497MOL0     H65544   6.650   7.499   5.744  0.4376  0.0343 -2.8949
  497MOL0     H65545   6.450   7.451   5.873  1.0799 -0.5648 -0.3017
  497MOL0     H65546   6.423   7.296   5.789 -0.9819  0.1971  0.1364
  497MOL0     H65547   6.251   7.462   5.737  0.8765  1.2130  1.4475
  497MOL0     H65548   6.364   7.590   5.711  1.3441 -0.1560  0.1448
  497MOL0     H65549   6.446   7.491   5.499 -0.5599  3.0526  1.2663
  497MOL0     H65550   6.281   7.529   5.491  0.7448 -1.5017 -2.1575
  497MOL0     H65551   6.218   7.293   5.563 -0.8310 -2.1675 -1.1036
  497MOL0     H65552   6.395   7.257   5.540 -2.1795 -1.7137  1.0164
  497MOL0     H65553   6.189   7.356   5.346  1.5030  1.5261  2.9007
  497MOL0     H65554   6.359   7.320   5.296 -3.3166 -0.2035 -4.5181
  497MOL0     H65555   6.161   7.104   5.393 -2.5319 -1.7529 -4.5563
  497MOL0     H65556   6.337   7.084   5.366  0.2824  0.7516  2.6392
  497MOL0     H65557   6.002   7.071   5.220 -0.7940  0.3427 -0.9275
  497MOL0     H65558   5.909   7.058   4.945 -1.6692 -0.7269 -0.4456
  497MOL0     H65559   5.979   6.902   5.001  1.1697  1.6382  1.4151
  497MOL0     H65560   6.099   6.873   4.834  1.5181  0.5868 -1.1190
  497MOL0     H65561   6.074   7.044   4.770  0.6867  0.0206  1.2554
  497MOL0     H65562   5.842   6.845   4.773  0.5394  0.0304  0.3751
  497MOL0     H65563   5.842   7.014   4.730 -0.4963 -0.4697 -1.5702
  497MOL0     H65564   6.005   6.793   4.600 -2.8335 -1.6479  2.9258
  497MOL0     H65565   5.994   6.962   4.538  0.6959 -0.3455  0.7176
  497MOL0     H65566   6.044   6.753   4.352  0.3177 -0.3130 -2.5251
  497MOL0     H65567   6.026   6.734   4.129  3.2502  2.7817  2.7348
  497MOL0     H65568   5.517   6.942   3.756 -1.8223  0.4864 -1.8073
  497MOL0     H65569   5.459   6.881   3.525  0.5292  2.6299  2.7595
  497MOL0     H65570   5.429   6.830   3.317  0.5720 -0.1751  0.8482
  497MOL0     H65571   5.362   6.687   3.381  2.5329 -0.3242  1.6649
  497MOL0     H65572   5.398   6.571   3.167 -0.3056  0.3224 -1.0522
  497MOL0     H65573   5.546   6.672   3.138  0.1175  1.9513 -0.4155
  497MOL0     H65574   5.400   6.875   3.098  0.1657 -0.0204 -1.0567
  497MOL0     H65575   5.265   6.791   3.155  0.2497  2.4687  0.3866
  497MOL0     H65576   5.395   6.737   2.890  1.3575 -1.3234  2.3209
  497MOL0     H65577   5.260   6.645   2.946  1.1208 -0.3491 -2.0500
  497MOL0     H65578   5.262   6.957   2.940  0.0719  1.1200 -4.1450
  497MOL0     H65579   5.115   6.857   2.947  1.2366 -1.2593  1.0926
  497MOL0     H65580   5.128   6.789   2.730  0.1941  0.1455  2.0420
  497MOL0     H65581   5.301   6.822   2.699 -2.1554  0.1316 -3.5652
  497MOL0     H65582   5.113   7.048   2.759  1.8932  5.0071 -2.9754
  497MOL0     H65583   5.266   7.059   2.696 -1.1516  1.5140 -1.6180
  497MOL0     H65584   5.086   7.097   2.528 -2.2276 -0.1292  3.0845
  497MOL0     H65585   5.059   6.925   2.519  1.6694  0.4335 -2.9436
  497MOL0     H65586   5.696   6.518   3.571  0.2821  0.6396 -1.7546
  497MOL0     H65587   5.753   6.593   3.798  2.5962  0.4023 -2.4172
  497MOL0     H65588   5.632   6.913   4.123 -1.7510 -1.4427  3.0934
  497MOL0     H65589   5.648   6.936   4.364  0.2364  0.9993 -1.7160
  497MOL0     H65590   6.693   7.351   6.215  2.0972  0.6485  0.8527
  497MOL0     H65591   6.803   7.170   6.362 -1.2720 -1.0344 -0.6719
  497MOL0     H65592   7.033   6.894   6.489 -0.0547  0.4624  1.8178
  497MOL0     H65593   7.185   6.743   6.613 -1.1227  1.5368 -0.7348
  497MOL0     H65594   7.337   6.595   6.652  1.8381  0.3406  1.2905
  497MOL0     H65595   7.326   6.431   6.719  0.1118  1.2511  2.6946
  497MOL0     H65596   7.290   6.557   6.906 -1.2198 -0.9597  1.4814
  497MOL0     H65597   7.157   6.648   6.813  1.1014  0.4757  2.5531
  497MOL0     H65598   7.163   6.358   6.898 -0.4796 -0.2896  1.6893
  497MOL0     H65599   7.038   6.451   6.805 -0.9849  1.6173  0.8131
  497MOL0     H65600   7.122   6.567   7.064  2.3231  0.4600 -1.6808
  497MOL0     H65601   6.963   6.552   6.982  0.6353 -0.7073 -1.2480
  497MOL0     H65602   6.954   6.178   7.195 -0.5291  0.7538  1.6038
  497MOL0     H65603   7.003   6.392   6.443 -1.4333  0.5895  1.1818
  497MOL0     H65604   6.865   6.535   6.301 -0.3610 -0.8830  1.7386
  498MOL0     O65605   3.913   1.022   9.319 -0.2090  0.5994 -1.2171
  498MOL0     C65606   3.906   1.144   9.319  1.1289 -0.3139  0.2465
  498MOL0     O65607   3.831   1.225   9.395 -0.4974  0.6846  0.4385
  498MOL0     C65608   3.750   1.180   9.500  0.1585 -0.6105 -0.1292
  498MOL0     C65609   3.779   1.073   9.591 -0.6727 -0.0725 -0.3990
  498MOL0     C65610   3.699   1.058   9.704 -0.2939  0.2085  0.5607
  498MOL0     C65611   3.572   1.118   9.711 -0.1843 -0.0082  0.0176
  498MOL0     O65612   3.477   1.100   9.809 -0.3863 -0.5061  0.0701
  498MOL0     C65613   3.511   1.002   9.909 -0.5592  0.6298 -0.7067
  498MOL0     C65614   3.407   0.996  10.017 -0.4835  0.4101 -1.2357
  498MOL0     C65615   3.267   0.968   9.953  0.2983  0.7272 -0.3855
  498MOL0     C65616   3.167   0.945  10.070  0.7804  0.7138 -0.3588
  498MOL0     C65617   3.034   0.884  10.031  0.9224 -0.8866  0.3922
  498MOL0     C65618   2.954   0.835  10.145 -0.9884  0.6145  0.1817
  498MOL0     C65619   2.926   0.944  10.242 -0.1280 -0.7744  0.0774
  498MOL0     C65620   2.816   0.898  10.329 -0.2831  0.1754  0.5898
  498MOL0     N65621   2.809   0.985  10.444 -0.1164  0.0587  0.0290
  498MOL0     C65622   2.726   1.083  10.486 -0.4734  0.2203 -0.0680
  498MOL0     C65623   2.750   1.116  10.610 -0.3864 -1.0841 -0.7112
  498MOL0     C65624   2.699   1.238  10.696 -0.0326 -0.1558  0.4340
  498MOL0     C65625   2.574   1.201  10.767  0.1156  1.6726 -0.1474
  498MOL0     C65626   2.557   1.279  10.898 -0.0229 -0.2936  0.3928
  498MOL0     C65627   2.491   1.182  10.999 -0.3386 -0.6274  0.5555
  498MOL0     O65628   2.353   1.160  10.966  0.2681  0.1790  0.8575
  498MOL0     C65629   2.255   1.220  11.039 -0.0281 -1.0606  0.4707
  498MOL0     C65630   2.266   1.345  11.111  0.7676  0.1289 -0.5197
  498MOL0     C65631   2.159   1.384  11.192 -0.4617 -0.9024 -0.0256
  498MOL0     C65632   2.041   1.306  11.215  0.2590 -0.5683  0.9416
  498MOL0     C65633   1.925   1.358  11.282 -0.1013 -0.1040  0.1448
  498MOL0     O65634   1.942   1.477  11.351  0.3403  0.9092  0.1701
  498MOL0     C65635   1.832   1.544  11.406 -0.4757  0.2251  0.0571
  498MOL0     C65636   1.721   1.569  11.325 -0.4355 -0.0605 -0.1129
  498MOL0     C65637   1.610   1.627  11.378  0.7876 -0.7638 -0.5888
  498MOL0     C65638   1.604   1.675  11.509 -0.5960 -0.0396  1.1513
  498MOL0     O65639   1.486   1.723  11.544  0.9805 -0.1427  0.2711
  498MOL0     C65640   1.482   1.844  11.632  0.2305  0.1372  0.5052
  498MOL0     C65641   1.381   1.957  11.594  1.1684 -0.9366 -0.0804
  498MOL0     C65642   1.453   2.065  11.515 -0.2418  0.8158 -0.6484
  498MOL0     C65643   1.520   2.013  11.387 -0.3152  0.0633  0.9607
  498MOL0     C65644   1.576   2.127  11.291  0.3227 -0.2676 -0.5972
  498MOL0     C65645   1.665   2.072  11.187  0.3136 -0.2114  0.3392
  498MOL0     C65646   1.631   1.941  11.109  0.4149 -0.1852 -0.1504
  498MOL0     C65647   1.720   1.945  10.981 -0.7980  1.1737 -0.0996
  498MOL0    Cl65648   1.888   1.912  11.024 -0.4425 -0.0897  0.0903
  498MOL0     C65649   1.715   1.646  11.595  0.6529 -0.0113 -0.2694
  498MOL0     C65650   1.832   1.588  11.545  0.8803  0.2879 -0.0956
  498MOL0     O65651   1.819   1.301  11.266 -0.3053 -0.3330 -0.2981
  498MOL0     C65652   2.043   1.180  11.155  0.1290  0.1499  0.0046
  498MOL0     C65653   2.146   1.140  11.062  0.2500 -0.1313 -0.3551
  498MOL0     N65654   2.851   1.040  10.643  0.3284 -0.8068 -0.0480
  498MOL0     N65655   2.885   0.962  10.549  0.3388 -0.1704 -0.8563
  498MOL0     C65656   3.544   1.215   9.613  0.0330 -0.5457 -0.4736
  498MOL0     C65657   3.629   1.245   9.511  0.5470  0.2305 -0.4009
  498MOL0     C65658   3.959   1.221   9.204 -0.4414 -0.9240 -0.7863
  498MOL0     C65659   3.894   1.340   9.138 -0.4586 -0.9023 -0.3764
  498MOL0     C65660   3.967   1.402   9.031  0.3068  0.4035  0.6857
  498MOL0     C65661   4.082   1.344   8.974 -0.0823  0.0672 -0.7738
  498MOL0     O65662   4.119   1.427   8.864 -0.5963  0.2088  0.3935
  498MOL0     C65663   4.247   1.400   8.802  0.6023 -0.7001 -0.5095
  498MOL0     C65664   4.357   1.430   8.890  1.2496  0.8612  0.4722
  498MOL0     C65665   4.483   1.452   8.819 -0.6300 -0.4452 -0.2257
  498MOL0     C65666   4.594   1.534   8.879  0.0408  0.4095  0.5584
  498MOL0     C65667   4.625   1.502   9.019  1.3855  0.1989 -1.0677
  498MOL0     C65668   4.649   1.464   9.136 -0.4832 -0.3259 -1.2314
  498MOL0     C65669   4.128   1.224   9.027  0.2199 -0.0165 -0.3920
  498MOL0     C65670   4.072   1.168   9.140 -0.5844 -0.4126  0.1943
  498MOL0     H65671   3.860   1.003   9.575 -0.8291 -0.3877  0.1809
  498MOL0     H65672   3.736   0.999   9.787 -0.3497  2.7956  2.5561
  498MOL0     H65673   3.610   1.015   9.954  0.2483  0.0146 -2.2465
  498MOL0     H65674   3.517   0.905   9.859  0.7089  1.6856 -2.7455
  498MOL0     H65675   3.405   1.092  10.069  0.1413 -0.7221  0.9734
  498MOL0     H65676   3.437   0.916  10.085  1.5369  1.2090 -1.0978
  498MOL0     H65677   3.283   0.882   9.887 -0.0526  0.2790  0.0935
  498MOL0     H65678   3.230   1.056   9.901 -0.7140  0.2560 -0.4788
  498MOL0     H65679   3.208   0.868  10.136  0.5680  0.4909 -0.4862
  498MOL0     H65680   3.156   1.035  10.131 -1.9934 -0.3072  0.8317
  498MOL0     H65681   3.056   0.809   9.954  2.7186  0.6639 -0.7149
  498MOL0     H65682   2.978   0.962   9.978  2.8102  3.2773  3.8933
  498MOL0     H65683   3.009   0.751  10.188  2.1843  1.5821 -1.6277
  498MOL0     H65684   2.868   0.788  10.097  0.8569 -1.1090 -1.6382
  498MOL0     H65685   3.008   0.960  10.313 -0.2107 -0.0002  0.0087
  498MOL0     H65686   2.899   1.039  10.195 -0.4375 -0.3297  1.1248
  498MOL0     H65687   2.841   0.797  10.362 -2.8431 -0.7616 -0.0777
  498MOL0     H65688   2.718   0.893  10.279 -0.8786 -2.7305  1.8612
  498MOL0     H65689   2.663   1.137  10.416 -1.2133  2.6548  2.3315
  498MOL0     H65690   2.655   1.313  10.630 -2.4130  0.3158  2.3903
  498MOL0     H65691   2.781   1.257  10.766 -0.8214 -1.5072  1.7816
  498MOL0     H65692   2.562   1.094  10.784  0.2975  2.0016  2.5246
  498MOL0     H65693   2.487   1.226  10.706 -1.1478 -0.5028  0.6647
  498MOL0     H65694   2.649   1.315  10.946  0.2919  0.3825 -0.6920
  498MOL0     H65695   2.495   1.368  10.888 -0.2507  0.9285  7.2431
  498MOL0     H65696   2.502   1.233  11.095 -2.9681 -0.6751  0.9660
  498MOL0     H65697   2.549   1.090  11.007 -1.4464 -1.4099 -0.0401
  498MOL0     H65698   2.358   1.401  11.095  1.8297 -1.0001  1.2263
  498MOL0     H65699   2.172   1.483  11.235 -2.0030  1.3830 -4.1907
  498MOL0     H65700   1.708   1.530  11.225  0.9261 -3.3141  0.8430
  498MOL0     H65701   1.521   1.631  11.316 -0.0456 -0.4323  0.5968
  498MOL0     H65702   1.579   1.893  11.642  0.6007 -0.5319  0.2428
  498MOL0     H65703   1.458   1.800  11.730  2.8404 -2.0488  0.2674
  498MOL0     H65704   1.329   2.000  11.679 -0.4919 -0.8482 -1.0921
  498MOL0     H65705   1.303   1.915  11.531  1.1332 -2.0951  0.7188
  498MOL0     H65706   1.528   2.101  11.587 -1.0954 -0.0966  0.7502
  498MOL0     H65707   1.385   2.146  11.487 -2.2949 -0.4140  0.5235
  498MOL0     H65708   1.599   1.939  11.406 -1.1105 -0.4892  2.2933
  498MOL0     H65709   1.454   1.949  11.327  1.0828  0.9399 -1.6361
  498MOL0     H65710   1.633   2.196  11.354  1.5820 -1.6595 -0.1662
  498MOL0     H65711   1.507   2.192  11.236 -1.9746  0.7772  3.1831
  498MOL0     H65712   1.763   2.050  11.230  0.2404  0.2817  0.7687
  498MOL0     H65713   1.664   2.142  11.103  0.1007 -0.4585  0.1345
  498MOL0     H65714   1.645   1.846  11.162 -0.8089 -0.7158 -0.7414
  498MOL0     H65715   1.529   1.961  11.075 -0.2176 -1.4223  0.9230
  498MOL0     H65716   1.716   2.044  10.934 -0.8483  1.2961  0.1644
  498MOL0     H65717   1.681   1.863  10.919  1.3995 -0.3865  0.4498
  498MOL0     H65718   1.703   1.672  11.700  0.2856  0.9083 -0.5283
  498MOL0     H65719   1.918   1.563  11.606  2.6543 -0.7721 -2.8083
  498MOL0     H65720   1.960   1.113  11.174  0.3413  0.0082  0.4540
  498MOL0     H65721   2.135   1.048  11.004  0.0947 -0.8028  0.7147
  498MOL0     H65722   3.449   1.267   9.625 -1.0099 -1.9973 -1.9269
  498MOL0     H65723   3.614   1.332   9.448 -0.0029  1.4220  1.3103
  498MOL0     H65724   3.799   1.382   9.170 -1.3657 -1.5835 -2.0936
  498MOL0     H65725   3.928   1.496   8.992  0.9832  1.4661  2.4016
  498MOL0     H65726   4.248   1.460   8.711 -1.2671 -0.2318 -0.2655
  498MOL0     H65727   4.244   1.293   8.780  0.0536 -1.4640  2.7948
  498MOL0     H65728   4.323   1.511   8.954  0.4297 -1.2096  2.8280
  498MOL0     H65729   4.365   1.346   8.960  3.1256  1.0908  0.6058
  498MOL0     H65730   4.467   1.486   8.716 -1.5259  0.5760  0.2348
  498MOL0     H65731   4.521   1.352   8.798 -3.1294 -1.1475 -1.8239
  498MOL0     H65732   4.682   1.522   8.815 -2.2934 -1.0972 -2.6532
  498MOL0     H65733   4.582   1.643   8.886 -0.4375  0.3283  1.1093
  498MOL0     H65734   4.691   1.444   9.233  0.5484  2.3527 -1.0366
  498MOL0     H65735   4.221   1.181   8.989  0.0630  0.9982 -2.0638
  498MOL0     H65736   4.119   1.086   9.195 -2.2339 -0.9530  0.8733
  499MOL0     O65737   5.311   1.145   8.465  0.2010  0.4624 -0.4457
  499MOL0     C65738   5.300   1.267   8.447  0.4942 -0.3768  1.4015
  499MOL0     O65739   5.199   1.330   8.386 -0.1740  0.2644 -0.3650
  499MOL0     C65740   5.103   1.258   8.326 -0.0709  0.7411  0.2086
  499MOL0     C65741   5.101   1.227   8.184  0.0205  0.1514  0.2756
  499MOL0     C65742   4.990   1.156   8.128  0.5597 -0.6616 -0.1603
  499MOL0     C65743   4.873   1.135   8.208 -0.5016  0.0003  0.2879
  499MOL0     O65744   4.763   1.078   8.158 -0.7721  0.3995 -0.5350
  499MOL0     C65745   4.778   0.947   8.098 -0.1602  0.7436  0.0854
  499MOL0     C65746   4.643   0.898   8.048 -0.1730 -0.8684 -0.5263
  499MOL0     C65747   4.649   0.762   7.976 -0.8753  0.1610 -0.1594
  499MOL0     C65748   4.520   0.754   7.906 -0.9706  0.9802  0.1472
  499MOL0     C65749   4.525   0.632   7.816  0.4294 -0.3348  0.9333
  499MOL0     C65750   4.397   0.614   7.727 -1.1830  0.9626 -0.2768
  499MOL0     C65751   4.411   0.506   7.614  0.1398  0.0744 -0.3357
  499MOL0     C65752   4.489   0.376   7.648  0.3226  0.0378 -0.3325
  499MOL0     N65753   4.492   0.287   7.535  0.3743  0.1797 -0.4308
  499MOL0     C65754   4.596   0.229   7.465  0.1143 -0.6809  0.2661
  499MOL0     C65755   4.550   0.156   7.367 -0.6739  0.5939 -0.0503
  499MOL0     C65756   4.639   0.089   7.259  0.7736 -0.1588  0.1060
  499MOL0     C65757   4.613  -0.056   7.217 -0.0383 -0.0294 -0.0267
  499MOL0     C65758   4.744  -0.137   7.190  0.4888 -0.2344 -0.1539
  499MOL0     C65759   4.815  -0.099   7.060  0.0864 -0.9302 -0.1805
  499MOL0     O65760   4.716  -0.101   6.958  0.5131  0.3855  0.4369
  499MOL0     C65761   4.757  -0.067   6.829  0.2233 -0.3706 -0.2223
  499MOL0     C65762   4.657  -0.094   6.735 -0.2196 -0.4381  0.0302
  499MOL0     C65763   4.685  -0.083   6.595 -0.0444 -0.1831 -0.2142
  499MOL0     C65764   4.813  -0.040   6.557  0.5854 -0.5103  0.9883
  499MOL0     C65765   4.833  -0.017   6.412 -0.0038 -1.4543 -0.7455
  499MOL0     O65766   4.959  -0.000   6.371  0.0904  0.6596 -0.5374
  499MOL0     C65767   4.980   0.020   6.237 -0.0680  0.0874 -0.5147
  499MOL0     C65768   5.060   0.132   6.195  0.7630 -0.3581  0.4199
  499MOL0     C65769   5.085   0.145   6.057 -0.4034 -0.7715 -0.3180
  499MOL0     C65770   5.028   0.063   5.960  0.0948  0.9267  0.0789
  499MOL0     O65771   5.060   0.054   5.829 -0.4311  0.4811  0.4199
  499MOL0     C65772   5.181   0.116   5.782  0.2479  0.0414 -0.8250
  499MOL0     C65773   5.218   0.062   5.649 -1.3574 -0.1440 -0.9660
  499MOL0     C65774   5.365   0.110   5.614  0.7961 -0.1756 -0.3286
  499MOL0     C65775   5.419   0.047   5.484 -0.8201 -0.1775 -0.6584
  499MOL0     C65776   5.572   0.080   5.461  0.4261 -0.8993 -1.1628
  499MOL0     C65777   5.655   0.058   5.581  0.0764  0.3019 -0.8742
  499MOL0     C65778   5.795   0.052   5.539 -0.1168  0.3374  0.6975
  499MOL0     C65779   5.898   0.061   5.650  0.2311  0.1579  0.2405
  499MOL0    Cl65780   5.889  -0.064   5.784 -0.5462 -0.3120 -0.0122
  499MOL0     C65781   4.952  -0.045   6.005 -1.0215 -0.5823 -0.8766
  499MOL0     C65782   4.926  -0.068   6.141 -0.1585 -0.3091  0.5194
  499MOL0     O65783   4.733  -0.002   6.343  1.3307  0.0048 -0.6291
  499MOL0     C65784   4.917  -0.015   6.643  0.5143 -0.0043 -0.3556
  499MOL0     C65785   4.883  -0.014   6.781  0.6610 -0.6503 -0.3074
  499MOL0     N65786   4.415   0.151   7.378  0.0304 -0.6631 -0.3343
  499MOL0     N65787   4.386   0.243   7.468 -0.4565  0.2109  0.3608
  499MOL0     C65788   4.867   1.183   8.337 -0.5278 -0.9035  0.4325
  499MOL0     C65789   4.982   1.244   8.396  0.3683  0.0744 -0.2528
  499MOL0     C65790   5.386   1.344   8.522 -0.4733 -0.2917 -1.4505
  499MOL0     C65791   5.502   1.286   8.575  1.1764 -0.1207 -0.4252
  499MOL0     C65792   5.605   1.369   8.631 -0.4164  0.3838 -0.4682
  499MOL0     C65793   5.588   1.502   8.649  0.2677  0.7046 -1.1830
  499MOL0     O65794   5.682   1.591   8.716 -0.2981  0.2479  0.7578
  499MOL0     C65795   5.822   1.551   8.725  0.5537  0.5513  0.5369
  499MOL0     C65796   5.910   1.663   8.779  0.3172 -0.2089  0.3181
  499MOL0     C65797   5.932   1.772   8.676 -0.4062  0.0554  0.0459
  499MOL0     C65798   5.984   1.899   8.736 -0.0242 -0.2630  0.7261
  499MOL0     C65799   6.132   1.887   8.759  0.4342  0.7930 -0.0950
  499MOL0     C65800   6.256   1.876   8.768  0.6001  0.2092 -0.6510
  499MOL0     C65801   5.467   1.558   8.607  0.1225 -0.3177 -0.8394
  499MOL0     C65802   5.364   1.481   8.550  0.1169 -0.3034 -0.3334
  499MOL0     H65803   5.183   1.253   8.118  0.6915  0.7270  1.3005
  499MOL0     H65804   4.996   1.122   8.025  1.1044 -0.1126 -0.3176
  499MOL0     H65805   4.827   0.883   8.172 -2.8681  0.3823  1.6817
  499MOL0     H65806   4.847   0.951   8.013 -1.1446  2.5185 -0.7071
  499MOL0     H65807   4.607   0.969   7.973  1.3715 -4.0822 -4.7314
  499MOL0     H65808   4.590   0.891   8.144 -2.6637 -3.1190 -1.9154
  499MOL0     H65809   4.668   0.680   8.046  0.0532 -0.2686 -0.8976
  499MOL0     H65810   4.729   0.769   7.902 -0.5258 -0.5048  0.1448
  499MOL0     H65811   4.436   0.751   7.976 -1.7286 -2.6321 -0.7511
  499MOL0     H65812   4.499   0.837   7.839  2.1157  1.8488  0.0871
  499MOL0     H65813   4.536   0.543   7.879 -3.5738 -1.8612 -0.1591
  499MOL0     H65814   4.615   0.655   7.758 -1.2900 -0.1917 -1.8779
  499MOL0     H65815   4.373   0.707   7.675  3.8278  1.5322 -2.0749
  499MOL0     H65816   4.311   0.576   7.784  0.0885 -3.6085 -0.9594
  499MOL0     H65817   4.311   0.486   7.574 -0.0233 -1.8451  0.8809
  499MOL0     H65818   4.473   0.553   7.537 -1.3007  2.7394 -0.0249
  499MOL0     H65819   4.441   0.323   7.731 -2.4091  2.3630 -0.2620
  499MOL0     H65820   4.592   0.402   7.677  0.2473  3.3294 -2.5167
  499MOL0     H65821   4.701   0.240   7.491  1.2145 -4.1838 -1.9677
  499MOL0     H65822   4.739   0.111   7.298  0.1648  0.6005  1.2858
  499MOL0     H65823   4.614   0.144   7.168  0.3156  0.8000  0.7986
  499MOL0     H65824   4.548  -0.048   7.129 -1.6866  1.0141  1.2260
  499MOL0     H65825   4.549  -0.112   7.285 -0.5051  0.1807 -0.2856
  499MOL0     H65826   4.811  -0.116   7.274  0.9327 -3.9434  0.6170
  499MOL0     H65827   4.714  -0.241   7.177 -0.2849 -0.0295 -0.0620
  499MOL0     H65828   4.902  -0.161   7.037 -0.8532 -1.7045 -1.8138
  499MOL0     H65829   4.856   0.001   7.076  2.3973 -2.2681  3.9530
  499MOL0     H65830   4.569  -0.135   6.783  0.5096  0.2558  2.1067
  499MOL0     H65831   4.608  -0.110   6.523  2.0191 -1.2423 -2.1356
  499MOL0     H65832   5.104   0.189   6.277 -1.8483 -1.6505  2.9185
  499MOL0     H65833   5.153   0.220   6.018 -4.1996  0.5795 -5.3802
  499MOL0     H65834   5.266   0.103   5.850 -0.2405  0.7515 -0.0661
  499MOL0     H65835   5.155   0.222   5.778 -0.6263 -0.0532  1.2432
  499MOL0     H65836   5.139   0.086   5.578 -2.0227  0.4652 -0.0439
  499MOL0     H65837   5.220  -0.047   5.655 -0.6008 -0.1458 -1.1033
  499MOL0     H65838   5.432   0.084   5.696  1.2089  1.9169  0.0657
  499MOL0     H65839   5.373   0.218   5.594  2.3273 -0.5209 -1.7722
  499MOL0     H65840   5.409  -0.061   5.492  0.3941 -0.4004 -1.7581
  499MOL0     H65841   5.355   0.082   5.403 -0.0689  1.1109 -0.7369
  499MOL0     H65842   5.576   0.186   5.432 -3.9460  0.2105  1.3086
  499MOL0     H65843   5.609   0.020   5.378  1.4985  1.0006 -2.1322
  499MOL0     H65844   5.624  -0.040   5.620 -0.8426 -0.7077 -3.8945
  499MOL0     H65845   5.645   0.135   5.658  0.6090  1.9108 -2.3627
  499MOL0     H65846   5.806  -0.040   5.481 -2.3014 -1.0034  2.2494
  499MOL0     H65847   5.803   0.132   5.465 -2.2173 -0.3803 -0.3965
  499MOL0     H65848   5.891   0.157   5.703  1.7749 -0.5882  1.9154
  499MOL0     H65849   5.992   0.062   5.595 -0.8387  1.5435 -1.6953
  499MOL0     H65850   4.924  -0.117   5.929 -0.5271 -1.6231 -0.1085
  499MOL0     H65851   4.868  -0.157   6.163  1.7154 -1.4183  1.1652
  499MOL0     H65852   5.011   0.024   6.604 -1.6686  3.3528 -2.7650
  499MOL0     H65853   4.957   0.024   6.851 -1.7460  2.9958  0.5096
  499MOL0     H65854   4.776   1.152   8.388 -0.7052 -0.9586  0.0791
  499MOL0     H65855   4.982   1.289   8.495 -1.3033  0.6312 -0.4671
  499MOL0     H65856   5.517   1.179   8.573 -0.7939 -0.4966  1.6335
  499MOL0     H65857   5.704   1.332   8.654  0.3143 -0.1365 -3.9301
  499MOL0     H65858   5.854   1.538   8.621  1.5933 -0.3211  0.9517
  499MOL0     H65859   5.830   1.463   8.789  1.1300 -1.5133 -2.2046
  499MOL0     H65860   5.866   1.711   8.867 -1.2661  0.7507 -0.9535
  499MOL0     H65861   6.009   1.626   8.809  0.1385 -0.5620  0.4687
  499MOL0     H65862   5.835   1.795   8.631 -0.6127  1.0446  0.9533
  499MOL0     H65863   5.997   1.747   8.592 -1.7064  1.5986 -1.4928
  499MOL0     H65864   5.968   1.984   8.669 -3.1212 -1.7301 -0.6413
  499MOL0     H65865   5.928   1.922   8.827 -3.5032 -1.6562 -0.8660
  499MOL0     H65866   6.361   1.868   8.781  0.7562  1.6974 -0.7921
  499MOL0     H65867   5.452   1.663   8.626  2.7493 -0.1726  1.0765
  499MOL0     H65868   5.275   1.532   8.514  0.4250 -0.2083 -0.9857
  500MOL0     O65869   8.171   5.087  10.302  0.6831  1.4899  0.3831
  500MOL0     C65870   8.166   5.182  10.228  0.5249 -0.6297 -0.5373
  500MOL0     O65871   8.066   5.219  10.145 -0.4615  0.4556 -0.2750
  500MOL0     C65872   7.938   5.201  10.176  0.2912  0.2082 -0.1175
  500MOL0     C65873   7.885   5.175  10.307  0.2686  0.1699 -0.7771
  500MOL0     C65874   7.743   5.158  10.329  0.2533 -0.8362  0.2521
  500MOL0     C65875   7.653   5.165  10.222  0.7103  0.5607 -0.0219
  500MOL0     O65876   7.522   5.152  10.260  0.8800 -0.3547  0.4750
  500MOL0     C65877   7.424   5.139  10.157 -0.2586 -0.3813 -0.5032
  500MOL0     C65878   7.397   5.291  10.115 -0.0114 -0.3071 -0.1371
  500MOL0     C65879   7.293   5.289  10.001 -0.3836  0.2470  0.0139
  500MOL0     C65880   7.158   5.225  10.038 -0.0911  0.6042  0.6859
  500MOL0     C65881   7.046   5.252   9.940  0.1302  0.1824  0.2117
  500MOL0     C65882   6.913   5.241  10.016  0.0596  0.0492 -0.8189
  500MOL0     C65883   6.789   5.230   9.923 -0.2885 -0.1616  0.1831
  500MOL0     C65884   6.779   5.335   9.819  1.2465 -0.8337 -0.0894
  500MOL0     N65885   6.647   5.328   9.751 -0.0531 -0.4278  0.6752
  500MOL0     C65886   6.558   5.427   9.769  0.3999 -0.5818  0.1431
  500MOL0     C65887   6.446   5.395   9.698  0.2896  0.6819 -0.0122
  500MOL0     C65888   6.313   5.460   9.688  0.7807  0.2288  0.5003
  500MOL0     C65889   6.233   5.410   9.810  0.3135 -0.2365 -0.4432
  500MOL0     C65890   6.090   5.452   9.818  0.1602  0.1412  0.1277
  500MOL0     C65891   6.004   5.426   9.692 -0.1602 -1.0165 -1.1451
  500MOL0     O65892   5.970   5.284   9.684  0.0353  0.3021  0.0947
  500MOL0     C65893   5.961   5.232   9.548  0.2665 -0.7638  0.2923
  500MOL0     C65894   5.987   5.096   9.536 -1.3936 -0.2544  1.4941
  500MOL0     C65895   5.986   5.048   9.402  1.0442 -0.6692 -0.6303
  500MOL0     C65896   5.934   5.129   9.291 -0.1625 -0.2056  0.3129
  500MOL0     C65897   5.915   5.068   9.158  0.9647  0.0225 -0.0736
  500MOL0     O65898   5.972   4.945   9.133 -0.0278  0.4122  0.1246
  500MOL0     C65899   5.945   4.868   9.026  0.3061  0.6040  0.7002
  500MOL0     C65900   6.038   4.770   8.982 -0.0288 -0.2113  0.2408
  500MOL0     C65901   6.009   4.683   8.877 -0.4787  0.3738 -0.6689
  500MOL0     C65902   5.886   4.685   8.813 -0.1638 -0.1739 -0.3568
  500MOL0     O65903   5.852   4.578   8.726 -0.7534  0.8466 -0.3892
  500MOL0     C65904   5.721   4.509   8.751 -0.5548 -0.8060  0.1426
  500MOL0     C65905   5.696   4.403   8.648 -0.2464 -1.7132  0.0054
  500MOL0     C65906   5.565   4.336   8.664  0.3878  0.2502  0.2357
  500MOL0     C65907   5.551   4.237   8.540  0.5417 -0.6782 -0.6523
  500MOL0     C65908   5.437   4.123   8.553 -1.3587 -0.4042 -0.2540
  500MOL0     C65909   5.478   4.019   8.654 -0.6441  0.3091 -0.7657
  500MOL0     C65910   5.550   3.888   8.603 -0.3473  0.6900 -0.5024
  500MOL0     C65911   5.604   3.786   8.715  0.1423 -0.2510 -0.7497
  500MOL0    Cl65912   5.482   3.748   8.829  0.7509 -0.2635 -0.2540
  500MOL0     C65913   5.798   4.791   8.851 -0.5397 -0.9575 -0.2942
  500MOL0     C65914   5.825   4.868   8.960  0.9259  0.1711 -0.2468
  500MOL0     O65915   5.843   5.129   9.082  0.3067  0.3987 -0.5149
  500MOL0     C65916   5.909   5.266   9.316 -0.5675 -0.7384  0.4292
  500MOL0     C65917   5.924   5.314   9.445 -0.3786  0.5126  0.1211
  500MOL0     N65918   6.475   5.281   9.612 -0.7295  0.2639 -0.7122
  500MOL0     N65919   6.600   5.253   9.643 -0.5133  0.8486  0.3575
  500MOL0     C65920   7.707   5.193  10.097 -0.3222 -0.0038  0.1428
  500MOL0     C65921   7.845   5.212  10.078  0.5304 -0.5187  1.4006
  500MOL0     C65922   8.298   5.245  10.210 -0.0500  1.1193 -0.1122
  500MOL0     C65923   8.414   5.192  10.265  0.2297  0.1132  0.2847
  500MOL0     C65924   8.533   5.273  10.263  1.0131  0.7597 -0.0990
  500MOL0     C65925   8.540   5.392  10.196  0.2490  0.4975 -0.0717
  500MOL0     O65926   8.666   5.450  10.196  0.4404  0.0188  0.2146
  500MOL0     C65927   8.684   5.598  10.188 -0.6975  0.9391  0.6439
  500MOL0     C65928   8.822   5.647  10.138  0.3307  0.0141 -0.4920
  500MOL0     C65929   8.848   5.782  10.209 -0.7846 -0.0674  0.3014
  500MOL0     C65930   8.988   5.826  10.154 -1.2505  0.6377  0.1342
  500MOL0     C65931   9.099   5.738  10.166  0.2670 -1.2655 -0.0833
  500MOL0     C65932   9.193   5.660  10.183  0.5516 -0.3725 -0.1127
  500MOL0     C65933   8.425   5.444  10.134 -0.3104  0.0842 -0.0615
  500MOL0     C65934   8.307   5.364  10.127 -0.3480 -0.1096  0.9536
  500MOL0     H65935   7.935   5.165  10.403 -2.0955  2.2216  0.7985
  500MOL0     H65936   7.698   5.148  10.427  0.5179 -0.8773  0.3723
  500MOL0     H65937   7.334   5.092  10.196 -1.2021  4.1146  3.6296
  500MOL0     H65938   7.457   5.073  10.076 -1.8433 -2.3886  0.4092
  500MOL0     H65939   7.489   5.345  10.090 -0.7477  0.2813 -1.6923
  500MOL0     H65940   7.361   5.336  10.208  0.9887 -0.4348  0.3225
  500MOL0     H65941   7.332   5.250   9.906  0.2435 -3.7521  1.7405
  500MOL0     H65942   7.266   5.393   9.980 -1.8418  0.3671  2.2364
  500MOL0     H65943   7.186   5.119  10.039 -1.2071  0.3038  0.7909
  500MOL0     H65944   7.140   5.259  10.140  0.9888  3.9207 -0.0876
  500MOL0     H65945   7.051   5.172   9.866  0.7367  0.3151  0.1036
  500MOL0     H65946   7.048   5.350   9.892 -3.0946 -0.0131 -0.5396
  500MOL0     H65947   6.898   5.318  10.092 -1.2006 -0.0133 -0.9805
  500MOL0     H65948   6.915   5.149  10.075 -2.4475  1.4759  1.7139
  500MOL0     H65949   6.785   5.127   9.888  1.1140 -1.4606  3.4230
  500MOL0     H65950   6.707   5.242   9.995  2.2689  1.0754  3.1641
  500MOL0     H65951   6.854   5.306   9.744  0.1609  1.0658 -2.0300
  500MOL0     H65952   6.796   5.434   9.861 -0.0614 -1.2704  1.5659
  500MOL0     H65953   6.564   5.515   9.832  1.7349  0.7279 -1.7032
  500MOL0     H65954   6.260   5.437   9.596  2.4207  0.9375 -0.6816
  500MOL0     H65955   6.322   5.569   9.696 -0.6658  0.2581  2.8080
  500MOL0     H65956   6.282   5.449   9.900  4.2473 -3.5517 -0.9033
  500MOL0     H65957   6.240   5.302   9.817 -0.1460 -0.1889  1.3887
  500MOL0     H65958   6.040   5.407   9.905 -0.7587 -0.9912 -0.9568
  500MOL0     H65959   6.087   5.558   9.844  0.5476 -0.4262  2.7770
  500MOL0     H65960   6.048   5.474   9.604  0.0905 -1.2322 -1.1365
  500MOL0     H65961   5.910   5.480   9.709  1.1843  1.7464 -1.9050
  500MOL0     H65962   6.011   5.029   9.618  2.2478 -1.7651 -0.5942
  500MOL0     H65963   6.006   4.944   9.379  2.8010 -0.5332  0.1535
  500MOL0     H65964   6.126   4.760   9.044 -1.3305  0.7509  2.3679
  500MOL0     H65965   6.085   4.606   8.873  1.7541  2.3432  0.8022
  500MOL0     H65966   5.645   4.587   8.744 -1.5373 -1.7820 -0.2469
  500MOL0     H65967   5.706   4.458   8.847 -3.5543 -1.4419 -0.5681
  500MOL0     H65968   5.777   4.330   8.659 -0.8035 -1.9873  3.2865
  500MOL0     H65969   5.696   4.458   8.553 -2.2458 -0.7635  0.5012
  500MOL0     H65970   5.490   4.415   8.656 -1.3873 -1.3068  0.8053
  500MOL0     H65971   5.565   4.294   8.764  1.3662  2.1457  1.0826
  500MOL0     H65972   5.532   4.300   8.452  1.3866 -0.2933 -0.5684
  500MOL0     H65973   5.648   4.190   8.524  0.8663 -0.1385 -0.2966
  500MOL0     H65974   5.421   4.080   8.454 -1.2238 -0.0047 -0.4520
  500MOL0     H65975   5.347   4.167   8.596 -0.3806  2.5173 -0.9356
  500MOL0     H65976   5.383   3.991   8.699 -1.1048 -1.1719 -2.5544
  500MOL0     H65977   5.537   4.066   8.733 -1.9981  0.1888  0.3558
  500MOL0     H65978   5.479   3.833   8.540 -1.0963 -0.5114  1.3366
  500MOL0     H65979   5.632   3.912   8.535  0.9881 -0.4806  0.6472
  500MOL0     H65980   5.687   3.839   8.762  0.7268  1.1522 -3.1628
  500MOL0     H65981   5.649   3.699   8.666  1.3152 -0.2562  0.2804
  500MOL0     H65982   5.704   4.804   8.799 -0.0856 -0.7911 -1.0806
  500MOL0     H65983   5.751   4.943   8.987  1.4955 -0.4017  3.3564
  500MOL0     H65984   5.876   5.329   9.233  1.2491 -0.8512 -0.4346
  500MOL0     H65985   5.897   5.417   9.465 -0.3769  0.3648  0.9502
  500MOL0     H65986   7.637   5.209  10.015 -1.1520 -0.7950  0.6688
  500MOL0     H65987   7.871   5.224   9.974 -3.9866  0.5723  0.1667
  500MOL0     H65988   8.429   5.094  10.310  3.1798  1.2100  1.9929
  500MOL0     H65989   8.615   5.249  10.330  1.3879  0.8520 -0.5208
  500MOL0     H65990   8.668   5.637  10.289  2.0771  2.4657  0.6051
  500MOL0     H65991   8.605   5.639  10.124 -1.6101 -1.9728 -0.2658
  500MOL0     H65992   8.897   5.575  10.171  1.7062  2.9992  3.8487
  500MOL0     H65993   8.820   5.660  10.030 -1.9107 -3.7775 -1.1166
  500MOL0     H65994   8.854   5.758  10.316  0.1667 -1.1950  0.0321
  500MOL0     H65995   8.773   5.859  10.191  0.3781  1.2452  0.8675
  500MOL0     H65996   8.981   5.862  10.051  0.7074 -2.1871 -1.1098
  500MOL0     H65997   9.025   5.897  10.228 -1.5463  1.6551 -0.6656
  500MOL0     H65998   9.279   5.597  10.197  2.9858  2.2313 -2.1323
  500MOL0     H65999   8.427   5.539  10.081  3.6260  0.3749  0.3379
  500MOL0     H66000   8.229   5.412  10.070  0.4480  0.7411  0.5509
  501MOL0     O66001   8.875  10.219   5.698 -0.5003  0.1931 -0.0772
  501MOL0     C66002   8.836  10.265   5.590  0.4337  0.0834 -0.6254
  501MOL0     O66003   8.710  10.276   5.545  0.7618 -0.8674  0.3257
  501MOL0     C66004   8.602  10.209   5.607 -0.6350 -0.5911  0.7394
  501MOL0     C66005   8.594  10.116   5.710 -0.8392 -0.2651  0.6294
  501MOL0     C66006   8.488  10.052   5.754  1.0322  0.2315  0.1691
  501MOL0     C66007   8.364  10.090   5.690  1.2187 -0.9341 -0.6502
  501MOL0     O66008   8.237  10.048   5.728  0.3138 -0.0442 -0.6697
  501MOL0     C66009   8.217   9.973   5.847 -0.6164  0.0407 -0.1930
  501MOL0     C66010   8.071   9.972   5.872 -0.8661  0.2740  0.7490
  501MOL0     C66011   8.035   9.889   5.991 -0.5889  0.1229 -0.8890
  501MOL0     C66012   7.885   9.867   6.028  0.3646 -0.2194 -0.0519
  501MOL0     C66013   7.812   9.996   6.071  0.3226  0.5620  0.9653
  501MOL0     C66014   7.656   9.968   6.081 -0.0902  0.3163 -0.8181
  501MOL0     C66015   7.621   9.892   6.207 -0.1598 -0.2066  0.8373
  501MOL0     C66016   7.522   9.972   6.296 -0.0548  0.4544  0.2138
  501MOL0     N66017   7.466   9.889   6.406  0.0398  0.3040  0.3931
  501MOL0     C66018   7.535   9.809   6.494  1.0397 -0.3768 -0.2575
  501MOL0     C66019   7.449   9.740   6.567  0.6541 -0.4326 -0.3621
  501MOL0     C66020   7.464   9.649   6.678  0.6094 -0.4125 -0.1292
  501MOL0     C66021   7.490   9.721   6.808  0.0508  0.3789 -0.0034
  501MOL0     C66022   7.540   9.634   6.921 -0.4875 -0.3690  0.8996
  501MOL0     C66023   7.574   9.725   7.040  0.3068 -0.0938  0.0490
  501MOL0     O66024   7.452   9.787   7.086  0.3068  1.1252  0.1113
  501MOL0     C66025   7.378   9.718   7.176  0.7113 -0.5784 -0.5700
  501MOL0     C66026   7.276   9.788   7.246  0.3043  0.0948 -0.2566
  501MOL0     C66027   7.209   9.727   7.353  0.4064  0.2691  0.0484
  501MOL0     C66028   7.232   9.587   7.386 -0.3097 -0.5381  0.1791
  501MOL0     C66029   7.160   9.518   7.491 -0.0586  0.2742  0.8442
  501MOL0     O66030   7.201   9.389   7.523  0.5422  0.0915  0.1787
  501MOL0     C66031   7.136   9.311   7.621 -0.5998 -0.1606  1.0020
  501MOL0     C66032   7.136   9.341   7.754  0.0176 -0.0870  0.4250
  501MOL0     C66033   7.074   9.257   7.845 -0.1371  0.0047 -0.5425
  501MOL0     C66034   7.003   9.141   7.804 -0.0216 -0.1214  0.5105
  501MOL0     O66035   6.935   9.059   7.885 -0.5934  0.0564 -0.6336
  501MOL0     C66036   6.849   9.128   7.977 -0.2010  0.6890  0.3315
  501MOL0     C66037   6.789   9.019   8.073  0.1341  0.3059  0.9829
  501MOL0     C66038   6.639   8.984   8.029 -0.2288 -0.9231 -1.3142
  501MOL0     C66039   6.525   9.041   8.115  0.0232 -0.1257 -0.7817
  501MOL0     C66040   6.512   9.185   8.130 -0.5620 -0.7865 -0.0701
  501MOL0     C66041   6.431   9.233   8.250 -0.1682 -0.1211 -0.5230
  501MOL0     C66042   6.451   9.384   8.268  0.5049 -0.4257  0.6685
  501MOL0     C66043   6.557   9.419   8.376  0.3871  0.3700 -0.1307
  501MOL0    Cl66044   6.598   9.580   8.399  0.0608  0.1769 -0.0337
  501MOL0     C66045   7.003   9.114   7.669 -0.1338 -0.2579  0.4837
  501MOL0     C66046   7.069   9.197   7.576 -0.8230 -0.0741  1.5799
  501MOL0     O66047   7.064   9.581   7.538 -0.4455  0.2105 -0.0190
  501MOL0     C66048   7.326   9.524   7.302  0.4963  0.2812  0.8320
  501MOL0     C66049   7.394   9.585   7.197 -0.2917  0.4395 -0.2251
  501MOL0     N66050   7.326   9.774   6.518 -0.5482  0.3747 -0.0765
  501MOL0     N66051   7.334   9.858   6.418 -0.4356 -0.6108 -0.6034
  501MOL0     C66052   8.369  10.191   5.582  0.6548 -0.1564 -0.0945
  501MOL0     C66053   8.488  10.251   5.550 -0.4517  0.4306 -0.3367
  501MOL0     C66054   8.935  10.320   5.497 -0.3353  0.1843 -0.3198
  501MOL0     C66055   9.062  10.387   5.538  1.4921 -0.1064 -0.4923
  501MOL0     C66056   9.151  10.439   5.447  0.2877 -0.6062 -0.0838
  501MOL0     C66057   9.130  10.410   5.316  0.5511  0.0200  0.2804
  501MOL0     O66058   9.233  10.438   5.227  0.3653  0.3821  0.1789
  501MOL0     C66059   9.208  10.548   5.135  0.5170 -0.6932 -0.1560
  501MOL0     C66060   9.328  10.554   5.046  0.0593  0.5682 -0.8575
  501MOL0     C66061   9.289  10.640   4.921  0.0015  0.9724  0.3062
  501MOL0     C66062   9.407  10.696   4.840  0.0626  0.3298 -0.6697
  501MOL0     C66063   9.512  10.591   4.835 -0.2919  0.5214  0.0080
  501MOL0     C66064   9.596  10.502   4.816 -0.1392 -0.2442  0.3352
  501MOL0     C66065   9.014  10.347   5.267  0.8159  1.1827 -0.6671
  501MOL0     C66066   8.915  10.303   5.355 -0.2365  0.3238  0.5388
  501MOL0     H66067   8.677  10.089   5.773  0.1335  0.5505 -0.2703
  501MOL0     H66068   8.490   9.971   5.827 -6.4827 -1.8544 -1.0179
  501MOL0     H66069   8.257  10.025   5.935 -1.9999  0.7594  0.0348
  501MOL0     H66070   8.255   9.871   5.839 -3.2163 -1.0397  0.2570
  501MOL0     H66071   8.003   9.941   5.792 -1.9952  0.7571  1.4858
  501MOL0     H66072   8.056  10.080   5.885  1.6334  0.9878 -1.5945
  501MOL0     H66073   8.103   9.911   6.074  2.6912 -1.5061 -2.9191
  501MOL0     H66074   8.059   9.788   5.957 -0.9522  0.1907 -1.3641
  501MOL0     H66075   7.836   9.831   5.937 -1.1424  0.1596  0.5699
  501MOL0     H66076   7.883   9.794   6.109  1.2964 -1.0655 -0.7685
  501MOL0     H66077   7.824  10.068   5.990  2.6120 -0.9371 -0.1663
  501MOL0     H66078   7.858  10.023   6.166  0.2415  1.1161  0.8471
  501MOL0     H66079   7.639   9.907   5.991  2.4684  1.1196 -1.9681
  501MOL0     H66080   7.602  10.062   6.067 -3.1044 -1.2140 -0.3302
  501MOL0     H66081   7.580   9.794   6.181 -1.3649  0.6881 -0.8524
  501MOL0     H66082   7.702   9.863   6.274  0.6213 -2.2127 -0.8650
  501MOL0     H66083   7.447  10.028   6.238  3.6355  3.0244 -2.5327
  501MOL0     H66084   7.581  10.050   6.344 -0.6942  0.9053  0.2841
  501MOL0     H66085   7.643   9.816   6.499  1.0729 -1.0980  0.1460
  501MOL0     H66086   7.536   9.569   6.656  1.6723 -0.0374  1.8319
  501MOL0     H66087   7.369   9.596   6.694 -0.2248  1.2679  0.6461
  501MOL0     H66088   7.392   9.759   6.837 -0.2084  1.5176 -2.2102
  501MOL0     H66089   7.562   9.802   6.794 -0.0562  1.1124  3.0413
  501MOL0     H66090   7.464   9.559   6.944  0.8002 -1.8722  0.4574
  501MOL0     H66091   7.632   9.580   6.897  0.0787  1.1060 -0.3993
  501MOL0     H66092   7.649   9.798   7.007  0.0765  0.0135 -0.2462
  501MOL0     H66093   7.632   9.663   7.109 -0.9606 -1.9628 -0.4949
  501MOL0     H66094   7.276   9.896   7.230  1.1791  0.3594  1.2550
  501MOL0     H66095   7.139   9.784   7.413  0.5766  0.2929  0.2253
  501MOL0     H66096   7.175   9.433   7.796 -4.2936  0.7383  3.2540
  501MOL0     H66097   7.079   9.299   7.944  2.3358  1.7506 -1.3120
  501MOL0     H66098   6.765   9.181   7.931  0.1730  1.1298  0.1532
  501MOL0     H66099   6.904   9.194   8.045  1.4465 -2.6028  2.4749
  501MOL0     H66100   6.786   9.061   8.173 -0.6371  0.4344  0.9115
  501MOL0     H66101   6.848   8.928   8.057  0.8150  1.2967 -3.4219
  501MOL0     H66102   6.626   8.876   8.043  1.5046 -1.2546 -1.9284
  501MOL0     H66103   6.628   9.011   7.924  0.9358 -0.3426 -1.3078
  501MOL0     H66104   6.428   9.019   8.070 -1.1601  1.7989  0.6580
  501MOL0     H66105   6.531   8.994   8.214 -0.1005 -0.2211 -0.8206
  501MOL0     H66106   6.487   9.237   8.037  1.3195  2.2999  1.0159
  501MOL0     H66107   6.613   9.225   8.142  0.2924 -2.5900 -0.9104
  501MOL0     H66108   6.477   9.174   8.330  0.3961 -2.0078 -2.1633
  501MOL0     H66109   6.328   9.201   8.233 -0.0056  0.6440 -3.6062
  501MOL0     H66110   6.478   9.429   8.172  1.8525 -0.3604  1.0642
  501MOL0     H66111   6.350   9.419   8.292  1.0865  2.3675 -0.5089
  501MOL0     H66112   6.654   9.385   8.338  0.8673 -0.7950  2.0114
  501MOL0     H66113   6.535   9.362   8.466  0.7220 -1.1542 -0.9754
  501MOL0     H66114   6.955   9.019   7.647  1.3143 -2.0378  4.1902
  501MOL0     H66115   7.056   9.169   7.472 -2.4525 -1.0797  2.0258
  501MOL0     H66116   7.362   9.424   7.323  1.1927  0.0116 -1.3283
  501MOL0     H66117   7.462   9.514   7.150 -2.0707 -2.6683  1.4908
  501MOL0     H66118   8.274  10.208   5.533 -0.2782  0.2480  1.7640
  501MOL0     H66119   8.488  10.327   5.473  1.9673  1.9170  0.9789
  501MOL0     H66120   9.084  10.406   5.642 -1.9583 -0.2082  0.3854
  501MOL0     H66121   9.244  10.487   5.475 -0.2394 -0.9556  2.4621
  501MOL0     H66122   9.189  10.649   5.172 -1.1247 -1.0484  0.0344
  501MOL0     H66123   9.114  10.521   5.087  0.3180  0.4512 -0.4217
  501MOL0     H66124   9.398  10.620   5.099  1.6168 -1.6441  0.0211
  501MOL0     H66125   9.362  10.451   5.031 -2.0275 -0.1009 -1.2647
  501MOL0     H66126   9.219  10.720   4.947 -0.8266  0.4441 -0.2615
  501MOL0     H66127   9.238  10.565   4.860  1.5930 -1.4056  1.7455
  501MOL0     H66128   9.381  10.723   4.737  4.0668 -0.0700 -1.9492
  501MOL0     H66129   9.441  10.790   4.885  2.4593 -0.7595 -0.0602
  501MOL0     H66130   9.680  10.435   4.808 -0.1855 -0.4530  1.3849
  501MOL0     H66131   8.993  10.332   5.162  0.1436  2.1135 -0.6774
  501MOL0     H66132   8.816  10.280   5.317  0.7099  3.5252 -4.8928
  502MOL0     O66133   1.613   8.992  10.560  0.2854  0.6433  0.0693
  502MOL0     C66134   1.604   8.894  10.486  0.7004 -0.5501 -0.4683
  502MOL0     O66135   1.506   8.879  10.399  0.3601  1.6164 -0.3213
  502MOL0     C66136   1.395   8.965  10.398 -0.9412  0.9669 -0.3998
  502MOL0     C66137   1.266   8.915  10.442 -0.2628 -0.4345  0.1583
  502MOL0     C66138   1.158   9.002  10.447  1.4641 -0.9755  0.6022
  502MOL0     C66139   1.170   9.135  10.404 -0.5129  0.2280  0.6486
  502MOL0     O66140   1.063   9.215  10.416  0.4160 -0.3304 -0.2274
  502MOL0     C66141   1.042   9.312  10.310 -0.0583 -0.5306  0.0680
  502MOL0     C66142   1.013   9.245  10.175 -0.0448 -0.2420 -0.8232
  502MOL0     C66143   0.975   9.346  10.065 -0.1482  0.0346  0.1337
  502MOL0     C66144   0.830   9.412  10.074 -0.0583  0.9736  0.5669
  502MOL0     C66145   0.811   9.526   9.959 -1.0465 -0.0997 -0.3463
  502MOL0     C66146   0.666   9.591   9.946 -0.7144  0.8632 -0.3489
  502MOL0     C66147   0.648   9.679   9.832 -0.7130 -0.3797  0.6069
  502MOL0     C66148   0.516   9.761   9.834  0.3822  0.2615  0.0205
  502MOL0     N66149   0.396   9.683   9.824  0.3848 -0.3546  0.6892
  502MOL0     C66150   0.359   9.620   9.710 -0.6501 -0.2571 -0.7370
  502MOL0     C66151   0.243   9.551   9.744 -0.1927 -0.9535 -0.0272
  502MOL0     C66152   0.174   9.453   9.650 -0.6911 -0.6470 -0.2610
  502MOL0     C66153   0.024   9.471   9.676  0.7379 -0.0652  0.1667
  502MOL0     C66154  -0.056   9.362   9.604 -0.2496 -0.0631  0.2011
  502MOL0     C66155  -0.198   9.348   9.659 -0.1928 -0.7440  0.9440
  502MOL0     O66156  -0.253   9.478   9.655 -0.3334 -0.0216 -0.4253
  502MOL0     C66157  -0.392   9.514   9.679 -0.6756  0.0712 -0.0318
  502MOL0     C66158  -0.493   9.428   9.681  0.6245 -0.6527  0.8502
  502MOL0     C66159  -0.628   9.480   9.712  0.5468  0.9096  0.2303
  502MOL0     C66160  -0.644   9.614   9.732  0.3658 -0.6567  0.9129
  502MOL0     C66161  -0.773   9.672   9.783  1.1466 -0.1032  0.1868
  502MOL0     O66162  -0.807   9.805   9.756  0.2160  0.3345 -0.0356
  502MOL0     C66163  -0.916   9.852   9.810  0.7553  0.9171  0.0208
  502MOL0     C66164  -1.037   9.857   9.736 -0.0544  0.3390 -0.6649
  502MOL0     C66165  -1.143   9.934   9.789 -0.1191  0.3223  0.9633
  502MOL0     C66166  -1.126  10.002   9.909 -0.8097 -0.4976 -0.2428
  502MOL0     O66167  -1.211  10.091   9.970 -0.3213 -0.0608 -0.8050
  502MOL0     C66168  -1.350  10.056   9.973  0.2182  0.4291  0.4600
  502MOL0     C66169  -1.431  10.181   9.947 -0.4388 -0.3134  1.2655
  502MOL0     C66170  -1.459  10.269  10.069  0.5717  0.5047  1.2100
  502MOL0     C66171  -1.545  10.388  10.053  0.0112 -0.2856  0.5596
  502MOL0     C66172  -1.471  10.486   9.953  1.5489 -0.0014 -0.4231
  502MOL0     C66173  -1.376  10.571  10.035 -1.3162 -1.3168 -0.3813
  502MOL0     C66174  -1.290  10.666   9.955 -0.3465  0.1293  0.8740
  502MOL0     C66175  -1.216  10.598   9.832 -0.2461 -0.3348  0.3497
  502MOL0    Cl66176  -1.113  10.455   9.885 -0.2099  0.1626  0.0523
  502MOL0     C66177  -1.005   9.993   9.981  0.4184 -0.8517  0.2462
  502MOL0     C66178  -0.901   9.923   9.929  0.6775  0.4287 -1.0361
  502MOL0     O66179  -0.845   9.593   9.838 -0.4652 -0.5071 -0.4311
  502MOL0     C66180  -0.531   9.704   9.722  0.1188  0.0876 -0.2066
  502MOL0     C66181  -0.410   9.647   9.698 -1.0382 -0.4952  0.2225
  502MOL0     N66182   0.228   9.571   9.885 -0.3295 -0.2637 -0.2106
  502MOL0     N66183   0.322   9.644   9.929 -0.3004 -0.7948 -1.1596
  502MOL0     C66184   1.297   9.178  10.362 -0.1522  0.5971 -0.3164
  502MOL0     C66185   1.405   9.089  10.349  0.9025  0.4604 -0.2375
  502MOL0     C66186   1.708   8.798  10.499 -0.4882  0.0054 -0.9061
  502MOL0     C66187   1.704   8.661  10.449 -0.1341 -0.4605 -0.8698
  502MOL0     C66188   1.816   8.575  10.467  0.7457  0.2856  0.8164
  502MOL0     C66189   1.943   8.630  10.510 -0.4529  0.0941 -0.1320
  502MOL0     O66190   2.062   8.558  10.519  0.1875  0.2212 -0.2293
  502MOL0     C66191   2.059   8.426  10.482  0.5948 -0.3498 -0.1395
  502MOL0     C66192   2.058   8.395  10.328  0.8121 -0.1599  0.0712
  502MOL0     C66193   2.195   8.359  10.262  0.5326  0.5241 -0.3466
  502MOL0     C66194   2.179   8.256  10.146  0.4345 -0.5974 -0.2461
  502MOL0     C66195   2.121   8.123  10.191 -0.1247 -0.1319  1.0117
  502MOL0     C66196   2.105   8.004  10.203 -0.8808  0.9440 -0.2912
  502MOL0     C66197   1.952   8.759  10.561  0.2163 -0.1471  0.2043
  502MOL0     C66198   1.836   8.841  10.561  0.2973 -0.0156  0.2896
  502MOL0     H66199   1.253   8.814  10.482 -3.1985 -0.5054 -0.7278
  502MOL0     H66200   1.061   8.980  10.491  0.8907 -1.0242 -0.6573
  502MOL0     H66201   1.131   9.374  10.298 -0.9687  0.7109 -0.3955
  502MOL0     H66202   0.959   9.375  10.341 -1.3157 -1.0778 -1.9414
  502MOL0     H66203   0.934   9.170  10.185  1.5183 -2.1874 -2.0844
  502MOL0     H66204   1.107   9.194  10.151  0.3352 -0.1197  0.3464
  502MOL0     H66205   0.994   9.305   9.966  0.3815  2.0873 -0.6648
  502MOL0     H66206   1.051   9.424  10.070  1.8717 -1.8403  0.1034
  502MOL0     H66207   0.741   9.350  10.090 -0.2297  0.9358 -0.4946
  502MOL0     H66208   0.840   9.474  10.164  1.3332  2.2210 -0.3945
  502MOL0     H66209   0.835   9.478   9.863 -0.2335  2.5815 -1.5891
  502MOL0     H66210   0.887   9.603   9.976  0.0403 -1.0770 -0.6384
  502MOL0     H66211   0.655   9.649  10.039  2.1755  1.8063 -0.4949
  502MOL0     H66212   0.594   9.510   9.937  0.7872 -0.3466 -2.1415
  502MOL0     H66213   0.727   9.754   9.842 -1.0780  0.4781 -2.0332
  502MOL0     H66214   0.665   9.630   9.735  2.8361  2.0706 -0.2078
  502MOL0     H66215   0.509   9.850   9.772 -2.7479  2.6338  3.3346
  502MOL0     H66216   0.516   9.813   9.930 -1.7816 -0.0085  0.2288
  502MOL0     H66217   0.413   9.628   9.616 -1.1263  1.4745 -0.8894
  502MOL0     H66218   0.215   9.352   9.658 -1.3760 -1.2076 -2.7876
  502MOL0     H66219   0.192   9.477   9.545 -0.3710  0.3335  0.0077
  502MOL0     H66220  -0.006   9.574   9.653  1.1862 -0.2726 -1.4895
  502MOL0     H66221   0.003   9.455   9.782  1.4768 -0.4422  0.2673
  502MOL0     H66222  -0.042   9.385   9.498  1.7939  0.9573  0.6442
  502MOL0     H66223  -0.001   9.268   9.616 -3.8308 -2.2037  1.6084
  502MOL0     H66224  -0.191   9.299   9.757  2.4420 -3.7622 -0.5394
  502MOL0     H66225  -0.266   9.287   9.599 -4.1010  3.3912  0.6575
  502MOL0     H66226  -0.476   9.331   9.634  0.7054  0.7395 -2.2120
  502MOL0     H66227  -0.717   9.418   9.709  0.2958  1.1444  1.7691
  502MOL0     H66228  -1.042   9.804   9.642 -0.8608 -0.8690  0.0348
  502MOL0     H66229  -1.234   9.954   9.734  0.8986  2.5965 -0.0324
  502MOL0     H66230  -1.383  10.008  10.066  2.5004  0.6227  1.4614
  502MOL0     H66231  -1.359   9.978   9.897  1.4065  0.5830  0.1300
  502MOL0     H66232  -1.526  10.165   9.894  1.0337  1.6387 -2.3729
  502MOL0     H66233  -1.369  10.227   9.869  0.7483 -1.7919  1.2930
  502MOL0     H66234  -1.363  10.291  10.117  1.4590 -3.5109  1.6493
  502MOL0     H66235  -1.524  10.205  10.130  0.3599 -1.8396 -1.2891
  502MOL0     H66236  -1.635  10.363   9.996  0.8235 -0.9981 -0.4545
  502MOL0     H66237  -1.571  10.436  10.148 -1.1328  0.4575 -0.1039
  502MOL0     H66238  -1.554  10.541   9.909  1.5200 -0.0495 -0.4269
  502MOL0     H66239  -1.410  10.440   9.875 -0.5040 -1.5864 -1.1720
  502MOL0     H66240  -1.315  10.519  10.109 -0.0190  0.0714 -0.4389
  502MOL0     H66241  -1.438  10.628  10.105  0.1628 -0.1810  0.0536
  502MOL0     H66242  -1.347  10.750   9.914 -0.6099 -0.4832 -0.0393
  502MOL0     H66243  -1.210  10.707  10.018  1.7083  1.3431 -2.2557
  502MOL0     H66244  -1.145  10.671   9.793  0.1919 -0.0392  1.6606
  502MOL0     H66245  -1.292  10.583   9.755 -0.7703 -0.3014  0.8478
  502MOL0     H66246  -0.996  10.042  10.077 -0.5906  0.2229 -0.1878
  502MOL0     H66247  -0.808   9.900   9.979  0.2411 -0.6347 -0.7011
  502MOL0     H66248  -0.533   9.812   9.725  3.0293  0.2947 -1.7506
  502MOL0     H66249  -0.331   9.721   9.693 -1.2333 -0.2464  0.7265
  502MOL0     H66250   1.318   9.276  10.321 -1.6080  0.5816 -1.1525
  502MOL0     H66251   1.503   9.124  10.319  1.1405 -1.4432 -1.9254
  502MOL0     H66252   1.611   8.626  10.406 -0.2202  0.4428 -1.4424
  502MOL0     H66253   1.801   8.475  10.428 -3.4208  0.9483  0.3339
  502MOL0     H66254   1.978   8.376  10.536 -0.9540 -1.2527 -3.1040
  502MOL0     H66255   2.144   8.378  10.530  1.0194 -0.5861 -1.1236
  502MOL0     H66256   1.989   8.310  10.316 -0.6010  0.8566  0.7012
  502MOL0     H66257   2.019   8.485  10.279  2.5766  1.1334  0.9371
  502MOL0     H66258   2.271   8.311  10.325 -1.0473 -1.6859  0.0009
  502MOL0     H66259   2.240   8.451  10.224 -0.3348  0.3568 -1.8873
  502MOL0     H66260   2.121   8.293  10.061  0.6141  3.6355  1.2403
  502MOL0     H66261   2.280   8.232  10.109  0.3359 -2.7216  0.7290
  502MOL0     H66262   2.087   7.899  10.208  0.8253  0.6869  1.5841
  502MOL0     H66263   2.041   8.806  10.602 -2.0512  3.4740  1.4336
  502MOL0     H66264   1.841   8.946  10.586  1.4047 -0.5250  2.4826
  503MOL0     O66265   0.689   6.965   5.625  0.5430 -0.5944 -0.7241
  503MOL0     C66266   0.796   6.947   5.565  0.1891  0.0602  0.5699
  503MOL0     O66267   0.924   6.991   5.596  0.1014 -0.2964 -0.5402
  503MOL0     C66268   0.945   7.076   5.702  0.3035  0.7250  1.1469
  503MOL0     C66269   0.964   7.023   5.834 -0.2303 -0.4478 -0.6007
  503MOL0     C66270   0.996   7.110   5.943  0.1926 -0.5615  1.2050
  503MOL0     C66271   1.012   7.251   5.913  0.9652 -1.2998  1.9045
  503MOL0     O66272   1.043   7.336   6.024 -0.1147 -0.2222  0.4762
  503MOL0     C66273   1.132   7.447   6.009 -0.9090  0.0285 -0.7296
  503MOL0     C66274   1.238   7.426   6.122  0.6486  0.2307  0.2031
  503MOL0     C66275   1.316   7.547   6.161 -0.6815 -0.5842 -0.3385
  503MOL0     C66276   1.381   7.534   6.302 -0.6593 -0.1352  0.1473
  503MOL0     C66277   1.462   7.408   6.327 -0.4067  0.2831 -0.5611
  503MOL0     C66278   1.553   7.428   6.461  0.0738  0.5039  0.2062
  503MOL0     C66279   1.612   7.295   6.485 -0.6538  0.5387  0.1172
  503MOL0     C66280   1.700   7.292   6.613 -0.2604 -0.2849 -0.1477
  503MOL0     N66281   1.603   7.316   6.724 -0.0663  0.4099 -0.5983
  503MOL0     C66282   1.514   7.219   6.770 -0.6236  0.0068 -0.6251
  503MOL0     C66283   1.442   7.271   6.870 -0.3308 -0.1427 -0.5587
  503MOL0     C66284   1.317   7.211   6.930 -1.2916 -0.8136 -0.6242
  503MOL0     C66285   1.189   7.299   6.932 -0.2320 -0.2394 -0.0448
  503MOL0     C66286   1.062   7.220   6.974  0.0520 -0.9538  0.5712
  503MOL0     C66287   0.932   7.308   6.969  0.9395  0.4620  0.1211
  503MOL0     O66288   0.916   7.353   6.829 -0.5241 -0.3773 -0.1172
  503MOL0     C66289   0.851   7.291   6.732  0.1436 -0.1214  0.4729
  503MOL0     C66290   0.786   7.169   6.743  0.5398  0.6028  0.6463
  503MOL0     C66291   0.726   7.110   6.626 -0.2404  0.2114 -0.1729
  503MOL0     C66292   0.732   7.173   6.502 -0.2325  0.6374 -0.4365
  503MOL0     C66293   0.670   7.121   6.389  0.4363 -0.0397  0.6942
  503MOL0     O66294   0.684   7.181   6.264 -0.1493 -0.6198  0.7599
  503MOL0     C66295   0.597   7.159   6.161  0.9435  0.2785 -0.2076
  503MOL0     C66296   0.647   7.146   6.035  0.5903  0.4057  0.9619
  503MOL0     C66297   0.552   7.118   5.935  0.9812  0.1023  1.0162
  503MOL0     C66298   0.414   7.113   5.957 -0.3631 -0.2430 -0.4419
  503MOL0     O66299   0.329   7.096   5.854  0.0469 -0.2439 -1.1109
  503MOL0     C66300   0.379   7.016   5.746 -0.6407 -1.5260  0.4099
  503MOL0     C66301   0.262   6.978   5.648  0.1199 -0.3206 -0.2427
  503MOL0     C66302   0.157   6.904   5.728 -0.4251  0.8795 -0.6161
  503MOL0     C66303   0.035   6.917   5.641  0.7212 -0.8715 -0.2105
  503MOL0     C66304  -0.081   6.856   5.713 -0.2521  0.6047  0.8742
  503MOL0     C66305  -0.169   6.810   5.591 -0.2629  0.4056  0.6432
  503MOL0     C66306  -0.313   6.755   5.645  0.2610 -0.4119  0.0800
  503MOL0     C66307  -0.409   6.715   5.522 -0.1561 -1.0564 -0.1783
  503MOL0    Cl66308  -0.326   6.582   5.450 -0.2662  0.3778 -0.1402
  503MOL0     C66309   0.370   7.136   6.086  0.5156 -0.7368  0.7624
  503MOL0     C66310   0.454   7.159   6.190  0.4875 -0.0212 -0.9242
  503MOL0     O66311   0.594   7.022   6.411 -0.5261  0.0458 -0.4034
  503MOL0     C66312   0.786   7.301   6.492 -0.5376  0.0896  0.1805
  503MOL0     C66313   0.848   7.357   6.606 -0.4891 -0.3554 -0.2554
  503MOL0     N66314   1.483   7.408   6.884  0.1612  0.6432 -0.2992
  503MOL0     N66315   1.591   7.427   6.802 -0.9057 -0.3597 -1.3237
  503MOL0     C66316   0.977   7.306   5.783  0.6626 -0.0317 -0.0669
  503MOL0     C66317   0.947   7.218   5.680  0.7075  0.0139  0.3308
  503MOL0     C66318   0.785   6.885   5.427  0.7895 -0.0925  0.5481
  503MOL0     C66319   0.891   6.832   5.351 -0.4954 -0.7638  0.0821
  503MOL0     C66320   0.869   6.766   5.226 -0.2020 -0.4467 -0.2859
  503MOL0     C66321   0.746   6.750   5.173  0.0554  0.3687  0.2025
  503MOL0     O66322   0.740   6.676   5.058  0.1298 -0.1928 -0.0478
  503MOL0     C66323   0.613   6.693   4.986 -0.2707  0.1012  0.0259
  503MOL0     C66324   0.503   6.587   5.020  0.0971  0.0845  0.4288
  503MOL0     C66325   0.543   6.442   4.972  1.2274 -0.8044 -1.3509
  503MOL0     C66326   0.423   6.352   4.996  0.3635  0.3458 -0.3520
  503MOL0     C66327   0.479   6.221   4.988  0.4221  0.8752  0.5455
  503MOL0     C66328   0.534   6.113   4.969  0.7181  0.9321 -0.6409
  503MOL0     C66329   0.639   6.798   5.248  0.8809  0.6145 -0.8748
  503MOL0     C66330   0.656   6.862   5.363  0.4794  0.2219  0.2358
  503MOL0     H66331   0.952   6.916   5.847 -0.3154 -0.8264 -3.2841
  503MOL0     H66332   1.008   7.068   6.043  3.4622  1.9542  2.0161
  503MOL0     H66333   1.088   7.547   6.021 -0.8194  0.1912 -1.6494
  503MOL0     H66334   1.170   7.448   5.906  1.8627  1.7142  0.1999
  503MOL0     H66335   1.309   7.346   6.098  1.1330  0.6659  0.1660
  503MOL0     H66336   1.175   7.393   6.205  1.0271  0.6500  0.6666
  503MOL0     H66337   1.267   7.645   6.156  3.0555  1.3968 -3.5622
  503MOL0     H66338   1.403   7.554   6.095  0.1516  1.4206  0.8757
  503MOL0     H66339   1.439   7.624   6.321 -2.2081  1.6465 -2.8860
  503MOL0     H66340   1.294   7.552   6.366  1.5130  1.0068  2.9558
  503MOL0     H66341   1.518   7.382   6.236  1.2257 -0.7148  0.6727
  503MOL0     H66342   1.384   7.332   6.341 -0.9135  1.1331  1.5287
  503MOL0     H66343   1.489   7.459   6.545 -2.7799  1.5369 -2.1762
  503MOL0     H66344   1.632   7.502   6.446  0.6426 -0.3332 -1.0689
  503MOL0     H66345   1.534   7.219   6.486 -0.1751 -0.0236 -2.0273
  503MOL0     H66346   1.683   7.268   6.406 -0.7023 -0.9108  0.5387
  503MOL0     H66347   1.773   7.373   6.605 -0.3695 -0.1233  0.3890
  503MOL0     H66348   1.751   7.196   6.624 -0.9899 -0.4598  2.4429
  503MOL0     H66349   1.496   7.120   6.731 -1.5686 -0.5907  1.2030
  503MOL0     H66350   1.336   7.166   7.028 -1.4046 -0.5604 -0.4853
  503MOL0     H66351   1.286   7.123   6.872  1.2737 -1.6578 -0.8301
  503MOL0     H66352   1.176   7.329   6.828 -0.6367  1.9443  0.5779
  503MOL0     H66353   1.201   7.385   6.998  1.3057  1.0570 -1.9085
  503MOL0     H66354   1.051   7.131   6.913 -0.5031 -0.3575 -0.2279
  503MOL0     H66355   1.076   7.193   7.079 -2.6252 -0.2807  1.1795
  503MOL0     H66356   0.938   7.396   7.035  3.5960  0.3236  0.1474
  503MOL0     H66357   0.838   7.255   6.990  1.1007  0.3483  0.5708
  503MOL0     H66358   0.798   7.108   6.832  1.3555 -0.3406 -0.0846
  503MOL0     H66359   0.686   7.009   6.633  0.5629 -0.0704  0.4938
  503MOL0     H66360   0.754   7.145   6.016  0.3991  1.5542 -0.3111
  503MOL0     H66361   0.582   7.095   5.834 -3.2497  1.4208 -0.7646
  503MOL0     H66362   0.441   6.933   5.782  1.0390 -0.8113 -0.7038
  503MOL0     H66363   0.447   7.077   5.686  1.4658 -3.3660  0.7881
  503MOL0     H66364   0.302   6.914   5.568 -2.8433 -0.0761 -2.0607
  503MOL0     H66365   0.223   7.073   5.612 -0.9033 -0.2254  1.0614
  503MOL0     H66366   0.149   6.940   5.831 -0.8814 -1.5402  0.2487
  503MOL0     H66367   0.192   6.801   5.739  0.0699  1.0732 -0.3638
  503MOL0     H66368   0.007   7.021   5.623  0.6406 -0.4523  2.0430
  503MOL0     H66369   0.056   6.874   5.542  0.3835  2.2002 -1.7391
  503MOL0     H66370  -0.127   6.924   5.786  0.7916  0.0694  2.0738
  503MOL0     H66371  -0.042   6.765   5.759  1.9659  0.7336 -0.6088
  503MOL0     H66372  -0.122   6.722   5.545 -0.9520 -1.4118  3.2044
  503MOL0     H66373  -0.180   6.885   5.512  2.6187  1.6094  1.2640
  503MOL0     H66374  -0.312   6.684   5.727  0.1826 -0.8359 -0.2801
  503MOL0     H66375  -0.370   6.837   5.688 -0.1097 -0.5491 -0.1448
  503MOL0     H66376  -0.414   6.800   5.453 -0.6922  0.0083  1.1219
  503MOL0     H66377  -0.515   6.688   5.534 -1.0795  2.5282  1.1549
  503MOL0     H66378   0.265   7.137   6.113  0.4092 -1.0769  0.3721
  503MOL0     H66379   0.422   7.186   6.290  1.3738 -2.3114  0.0466
  503MOL0     H66380   0.776   7.343   6.392 -1.5888  0.8274  0.5856
  503MOL0     H66381   0.902   7.452   6.612  0.7639 -1.0877  0.4685
  503MOL0     H66382   0.979   7.413   5.762 -2.6311  0.0684 -0.3295
  503MOL0     H66383   0.928   7.250   5.578 -2.2833 -4.9266 -1.0000
  503MOL0     H66384   0.995   6.840   5.383 -1.2019  1.0603  2.1790
  503MOL0     H66385   0.956   6.732   5.171  0.0523 -1.0116  0.4391
  503MOL0     H66386   0.642   6.669   4.883  2.2013 -2.1005  1.1064
  503MOL0     H66387   0.589   6.799   4.985 -1.4314 -0.1485  0.2834
  503MOL0     H66388   0.462   6.585   5.121 -1.8225 -0.5769 -0.3070
  503MOL0     H66389   0.417   6.615   4.957 -0.9319 -3.4134  0.0867
  503MOL0     H66390   0.632   6.403   5.022 -1.5108 -2.7474  2.5899
  503MOL0     H66391   0.570   6.447   4.866  1.7584 -0.5277 -1.2034
  503MOL0     H66392   0.390   6.350   5.101  0.7407 -0.8664 -0.2336
  503MOL0     H66393   0.333   6.361   4.934 -1.4971 -1.1865  1.9253
  503MOL0     H66394   0.571   6.014   4.989 -0.0412  0.6498 -0.6187
  503MOL0     H66395   0.537   6.791   5.213  1.5182 -0.0631 -2.7042
  503MOL0     H66396   0.569   6.894   5.420  1.2318  1.9923  0.4597
  504MOL0     O66397  10.888   5.415   0.524 -0.4243 -0.1978  0.2992
  504MOL0     C66398  10.954   5.438   0.419 -0.4390  0.2139  0.2784
  504MOL0     O66399  10.908   5.447   0.297 -0.4019 -0.1640 -0.5117
  504MOL0     C66400  10.775   5.422   0.274 -0.5556 -0.2363  1.0970
  504MOL0     C66401  10.695   5.536   0.241 -0.6825  0.9008  0.7559
  504MOL0     C66402  10.560   5.517   0.215  0.8193  0.1002 -1.3129
  504MOL0     C66403  10.501   5.390   0.219  0.1753 -0.6185 -0.0206
  504MOL0     O66404  10.372   5.351   0.189 -0.1110 -0.4801 -0.2530
  504MOL0     C66405  10.274   5.444   0.146 -0.4238  0.2600  0.2963
  504MOL0     C66406  10.255   5.441  -0.009 -0.0973  0.2579  0.8042
  504MOL0     C66407  10.118   5.475  -0.055  1.1457 -1.7756  0.4155
  504MOL0     C66408  10.044   5.586   0.019  0.7312  0.3088 -1.2585
  504MOL0     C66409   9.932   5.630  -0.070 -0.4551 -0.2587 -0.5531
  504MOL0     C66410   9.815   5.535  -0.084 -0.0601  0.6268  0.2946
  504MOL0     C66411   9.731   5.534   0.048 -0.0869  0.0118 -0.5089
  504MOL0     C66412   9.594   5.469   0.023 -1.2517  0.3560  0.8709
  504MOL0     N66413   9.609   5.327   0.009 -0.4606  0.1315 -0.3036
  504MOL0     C66414   9.601   5.260  -0.114 -0.5468 -0.0339  0.1986
  504MOL0     C66415   9.614   5.130  -0.075 -0.5642  0.0479  0.5445
  504MOL0     C66416   9.630   4.996  -0.159  0.0596 -0.3779 -0.0502
  504MOL0     C66417   9.767   4.967  -0.199 -0.5936 -0.4477  0.6939
  504MOL0     C66418   9.861   4.951  -0.078 -0.5375  0.9896 -0.3852
  504MOL0     C66419  10.004   4.913  -0.127  0.3530  0.1699 -0.1697
  504MOL0     O66420  10.110   4.954  -0.041 -0.4182 -0.2951 -0.1719
  504MOL0     C66421  10.238   4.962  -0.086 -0.4286  0.6070  0.3721
  504MOL0     C66422  10.329   5.048  -0.019  1.2158 -0.6345  0.0154
  504MOL0     C66423  10.460   5.064  -0.062 -0.1898  0.1914 -1.1703
  504MOL0     C66424  10.523   4.973  -0.156  0.3523  0.3998  1.1682
  504MOL0     C66425  10.669   4.975  -0.185  0.4624 -0.3903 -0.0730
  504MOL0     O66426  10.714   4.888  -0.280 -0.2759  0.4849  0.8545
  504MOL0     C66427  10.846   4.903  -0.308 -0.0998 -0.1012 -0.1258
  504MOL0     C66428  10.936   4.801  -0.259 -0.5923 -0.5394 -0.6564
  504MOL0     C66429  11.071   4.822  -0.280 -0.5725  0.3441 -0.1093
  504MOL0     C66430  11.123   4.937  -0.343 -0.1999 -0.0987 -0.5293
  504MOL0     O66431  11.257   4.956  -0.358 -0.2081  0.5771 -0.2141
  504MOL0     C66432  11.316   4.856  -0.446  0.0823 -1.6349 -0.4572
  504MOL0     C66433  11.442   4.936  -0.499  0.0071 -0.9865  0.7487
  504MOL0     C66434  11.476   4.877  -0.632 -0.2157 -0.0767  0.3718
  504MOL0     C66435  11.605   4.915  -0.698  1.0600 -0.0131 -0.6429
  504MOL0     C66436  11.717   4.820  -0.671 -0.9320 -0.2029  0.1378
  504MOL0     C66437  11.826   4.833  -0.774  0.2818  0.7150 -0.0983
  504MOL0     C66438  11.883   4.979  -0.792  0.8574 -0.0378  0.6620
  504MOL0     C66439  11.921   5.053  -0.668  0.3241 -0.2358 -0.2469
  504MOL0    Cl66440  11.947   5.231  -0.715 -0.1455  0.0637  0.6131
  504MOL0     C66441  11.027   5.025  -0.394 -0.4729  0.4097 -0.6322
  504MOL0     C66442  10.892   5.011  -0.379 -0.8518  0.1982  0.4668
  504MOL0     O66443  10.738   5.059  -0.127 -0.1573 -0.0962  0.3211
  504MOL0     C66444  10.438   4.874  -0.208  1.1583 -0.6948  0.1301
  504MOL0     C66445  10.298   4.877  -0.185  0.0810  0.7016 -0.1227
  504MOL0     N66446   9.613   5.123   0.065  0.3226  0.2307  0.1469
  504MOL0     N66447   9.624   5.244   0.117  0.5040  0.0530 -0.3459
  504MOL0     C66448  10.580   5.283   0.256  0.1036  0.0431  0.4198
  504MOL0     C66449  10.718   5.295   0.280  1.0684  0.0696  0.7086
  504MOL0     C66450  11.099   5.474   0.429  0.8743  0.6878 -0.2157
  504MOL0     C66451  11.192   5.450   0.330  1.0562  0.1660  0.0508
  504MOL0     C66452  11.333   5.460   0.336  1.3463  0.6445 -0.8701
  504MOL0     C66453  11.393   5.483   0.457  0.3719 -0.2080 -0.3390
  504MOL0     O66454  11.531   5.474   0.462 -0.5547  0.0378  0.3307
  504MOL0     C66455  11.600   5.425   0.583 -0.3282 -0.4019  0.3324
  504MOL0     C66456  11.715   5.344   0.527  0.2320  0.4125 -0.5899
  504MOL0     C66457  11.841   5.334   0.619  0.6885 -0.1585  0.2083
  504MOL0     C66458  11.815   5.250   0.735  0.7919  0.2156  0.2772
  504MOL0     C66459  11.933   5.264   0.818  0.2836  1.5522 -0.0441
  504MOL0     C66460  12.016   5.299   0.895  0.7971  0.0303 -0.1745
  504MOL0     C66461  11.308   5.508   0.566 -0.3933  0.4407  0.2427
  504MOL0     C66462  11.161   5.506   0.546 -0.5574  0.6409 -0.1581
  504MOL0     H66463  10.762   5.622   0.241  2.1389 -1.1145  2.0698
  504MOL0     H66464  10.501   5.608   0.208  1.4650  0.5412 -1.1783
  504MOL0     H66465  10.285   5.548   0.176 -2.4745  0.1910  1.4668
  504MOL0     H66466  10.184   5.425   0.206  1.0915  1.0263  2.9434
  504MOL0     H66467  10.289   5.346  -0.050  2.4089  2.1888 -1.9841
  504MOL0     H66468  10.318   5.521  -0.049  0.7226  0.3189  2.1359
  504MOL0     H66469  10.055   5.385  -0.059 -2.5065  0.5747  1.0184
  504MOL0     H66470  10.124   5.502  -0.160 -1.4305  1.1615  0.9067
  504MOL0     H66471  10.004   5.541   0.110  0.1772 -4.3855 -3.5222
  504MOL0     H66472  10.114   5.668   0.036  0.7845  0.0197 -0.0020
  504MOL0     H66473   9.956   5.666  -0.170  0.6073 -1.5879 -0.7959
  504MOL0     H66474   9.889   5.720  -0.024  1.1529  0.1978  0.1333
  504MOL0     H66475   9.848   5.435  -0.114  2.2510  2.0300 -2.2708
  504MOL0     H66476   9.740   5.564  -0.157 -2.3783 -1.8821  1.4886
  504MOL0     H66477   9.784   5.484   0.130 -1.4733 -3.7776 -1.7247
  504MOL0     H66478   9.715   5.639   0.076 -0.3064 -0.7364  2.4378
  504MOL0     H66479   9.539   5.510  -0.062 -0.4642  0.4563  0.3973
  504MOL0     H66480   9.521   5.486   0.102 -3.3268  0.4090 -0.9716
  504MOL0     H66481   9.607   5.298  -0.216  3.8601  0.1906  0.3400
  504MOL0     H66482   9.559   4.996  -0.242 -0.3777 -0.1022  0.3167
  504MOL0     H66483   9.606   4.917  -0.087  4.7073  0.5482  3.0002
  504MOL0     H66484   9.801   5.041  -0.272 -1.3828 -0.3964  0.3686
  504MOL0     H66485   9.758   4.874  -0.256  2.1502  1.3505 -3.0728
  504MOL0     H66486   9.856   5.038  -0.012 -0.7638  0.5428  0.1981
  504MOL0     H66487   9.819   4.866  -0.023  1.8664 -0.1225 -0.1398
  504MOL0     H66488  10.014   4.955  -0.227 -1.6208  1.6656  0.1956
  504MOL0     H66489  10.007   4.804  -0.141  0.0820  0.3686 -1.9385
  504MOL0     H66490  10.300   5.104   0.069  3.5476 -0.4543  0.7288
  504MOL0     H66491  10.526   5.124   0.000  1.4969  1.0341 -3.5893
  504MOL0     H66492  10.904   4.717  -0.197  2.5960 -0.7362  0.9562
  504MOL0     H66493  11.139   4.747  -0.240 -2.2383 -0.9987  0.3051
  504MOL0     H66494  11.248   4.821  -0.524 -0.2039 -2.3393  0.0811
  504MOL0     H66495  11.346   4.772  -0.381 -0.9722  0.2757  2.7447
  504MOL0     H66496  11.527   4.926  -0.432 -0.6070 -1.1795  1.5126
  504MOL0     H66497  11.422   5.043  -0.511  4.5105 -0.1720 -1.6864
  504MOL0     H66498  11.394   4.893  -0.702 -0.5931  2.0443  1.2227
  504MOL0     H66499  11.487   4.771  -0.610  1.6826  0.2304  1.1193
  504MOL0     H66500  11.578   4.909  -0.804 -0.7308 -2.1230 -0.1473
  504MOL0     H66501  11.622   5.018  -0.666 -0.9590 -0.0467  0.7046
  504MOL0     H66502  11.689   4.714  -0.666 -0.7257 -0.2679 -0.0549
  504MOL0     H66503  11.749   4.849  -0.571  0.0038 -1.4034  0.2228
  504MOL0     H66504  11.786   4.795  -0.869 -0.3415  1.2939 -0.0779
  504MOL0     H66505  11.914   4.769  -0.759  1.5731  2.7461  1.4218
  504MOL0     H66506  11.965   4.965  -0.863 -1.8557 -1.9804 -2.3270
  504MOL0     H66507  11.807   5.038  -0.843  0.5547 -1.9542 -1.2508
  504MOL0     H66508  12.013   5.015  -0.622 -0.2635  0.2732  1.3955
  504MOL0     H66509  11.841   5.043  -0.594  1.3642  0.8489  1.0758
  504MOL0     H66510  11.059   5.097  -0.469  0.4715 -0.4928 -1.1155
  504MOL0     H66511  10.825   5.091  -0.408 -2.0540 -0.8855  0.1443
  504MOL0     H66512  10.485   4.792  -0.260 -2.6535 -0.7278 -3.7799
  504MOL0     H66513  10.253   4.781  -0.209  3.8100 -1.7281  1.5383
  504MOL0     H66514  10.534   5.185   0.247  2.8431 -1.1914 -1.6426
  504MOL0     H66515  10.777   5.204   0.289 -1.6787 -1.7607  1.5103
  504MOL0     H66516  11.151   5.420   0.234 -1.0847 -1.2155  1.3014
  504MOL0     H66517  11.390   5.432   0.247  1.1906 -0.1249 -0.7402
  504MOL0     H66518  11.539   5.367   0.653 -1.0221 -0.8110 -0.5814
  504MOL0     H66519  11.639   5.505   0.646  0.4586 -1.1488  0.8170
  504MOL0     H66520  11.670   5.247   0.505 -0.6179  0.6744 -0.0574
  504MOL0     H66521  11.737   5.400   0.435 -1.5413  1.0705 -0.6502
  504MOL0     H66522  11.863   5.439   0.639 -2.7627  1.7350 -4.2838
  504MOL0     H66523  11.921   5.305   0.550  1.1612  1.7668 -0.1143
  504MOL0     H66524  11.728   5.280   0.794 -0.6523 -0.9462 -1.1503
  504MOL0     H66525  11.792   5.149   0.700 -2.4789  0.9594 -0.1058
  504MOL0     H66526  12.093   5.334   0.961 -0.6200  1.7778  0.6528
  504MOL0     H66527  11.357   5.522   0.661  0.1150 -2.2218  0.4555
  504MOL0     H66528  11.098   5.523   0.633 -0.8694  1.3309 -0.5120
  505MOL0     O66529   2.989   7.378   4.492 -0.5679 -0.0113  0.4654
  505MOL0     C66530   3.080   7.446   4.443 -0.9226  1.0302  0.0294
  505MOL0     O66531   3.085   7.481   4.311 -0.5088 -0.7227  0.0248
  505MOL0     C66532   3.020   7.422   4.206  0.3108 -0.5597  0.2038
  505MOL0     C66533   2.921   7.330   4.205  0.2346  0.0768  0.5113
  505MOL0     C66534   2.838   7.309   4.096 -0.1802 -0.6826 -0.0351
  505MOL0     C66535   2.867   7.372   3.972 -0.0566 -0.5154 -0.4321
  505MOL0     O66536   2.775   7.353   3.867  0.6187  0.0465  0.0827
  505MOL0     C66537   2.792   7.422   3.734  0.7547  1.3339  0.2122
  505MOL0     C66538   2.901   7.363   3.648 -0.8694  0.6501 -0.8569
  505MOL0     C66539   2.862   7.309   3.505 -0.3271 -0.5834  1.2974
  505MOL0     C66540   2.984   7.283   3.423 -0.2745 -1.3683 -0.8398
  505MOL0     C66541   2.957   7.225   3.292  0.6148  0.4653  0.2111
  505MOL0     C66542   3.054   7.265   3.185 -0.4682 -0.9372  0.3760
  505MOL0     C66543   3.196   7.232   3.232 -0.0015  0.1034 -0.4000
  505MOL0     C66544   3.297   7.216   3.128 -0.3632 -0.6202  0.2104
  505MOL0     N66545   3.425   7.156   3.177  0.1767  0.7896 -0.3355
  505MOL0     C66546   3.545   7.210   3.189 -0.4071 -0.5367 -0.3058
  505MOL0     C66547   3.624   7.117   3.246  0.8681  0.5233 -0.4121
  505MOL0     C66548   3.753   7.143   3.311 -0.1026  0.6830 -0.4812
  505MOL0     C66549   3.866   7.202   3.220  0.3894 -0.3784  0.2002
  505MOL0     C66550   4.005   7.179   3.281  0.5912  0.3372 -0.6854
  505MOL0     C66551   4.030   7.249   3.403 -0.3463  0.4768  0.4767
  505MOL0     O66552   4.163   7.224   3.456  0.1795  0.2321 -0.9739
  505MOL0     C66553   4.182   7.092   3.490 -0.1988  0.4657  0.2377
  505MOL0     C66554   4.095   7.010   3.568  0.3194 -0.7194 -0.0727
  505MOL0     C66555   4.106   6.869   3.580  0.1366  0.0760 -0.7295
  505MOL0     C66556   4.213   6.801   3.509  0.8169  0.2952 -0.2860
  505MOL0     C66557   4.233   6.654   3.530 -0.6994  0.3572  1.1167
  505MOL0     O66558   4.125   6.592   3.578  0.2623 -1.0370  0.0402
  505MOL0     C66559   4.139   6.460   3.585 -0.4410  0.9811  0.2048
  505MOL0     C66560   4.080   6.371   3.497 -0.2347 -1.2850 -0.1263
  505MOL0     C66561   4.102   6.230   3.507 -0.1005 -0.3522  0.2814
  505MOL0     C66562   4.177   6.173   3.615 -0.0036  0.4627  0.6155
  505MOL0     O66563   4.198   6.039   3.644 -0.4420 -0.5081  0.3579
  505MOL0     C66564   4.115   5.948   3.569  1.0950  1.6241 -0.3952
  505MOL0     C66565   4.141   5.800   3.606 -0.4501 -0.4852  0.6425
  505MOL0     C66566   4.067   5.707   3.510  0.4659 -0.2275  0.3400
  505MOL0     C66567   4.046   5.564   3.583  0.2803 -0.5741  0.5329
  505MOL0     C66568   3.982   5.473   3.479 -0.0231  0.5063 -0.8817
  505MOL0     C66569   3.929   5.344   3.547  0.7304 -0.8404 -0.9313
  505MOL0     C66570   3.866   5.254   3.445  0.4728 -0.2559 -0.1989
  505MOL0     C66571   3.967   5.201   3.335 -0.8906 -0.1487  0.1617
  505MOL0    Cl66572   3.947   5.021   3.304 -0.2633  0.1200  0.1325
  505MOL0     C66573   4.233   6.262   3.708  0.3511  0.1644  0.3577
  505MOL0     C66574   4.217   6.399   3.686  0.3214  0.3711  0.2444
  505MOL0     O66575   4.337   6.598   3.499  0.6078 -0.3590 -0.2720
  505MOL0     C66576   4.307   6.886   3.440 -0.6363 -0.1158 -0.2569
  505MOL0     C66577   4.287   7.023   3.436 -0.8152  0.0953  0.5052
  505MOL0     N66578   3.551   6.995   3.255  0.5473  0.2143  1.2045
  505MOL0     N66579   3.435   7.022   3.208 -0.1690  0.3466  0.8384
  505MOL0     C66580   2.986   7.450   3.966  0.6519 -0.0682  0.2472
  505MOL0     C66581   3.050   7.484   4.088 -0.0147 -0.0068  1.2773
  505MOL0     C66582   3.176   7.515   4.531  0.1063  1.0236 -0.8642
  505MOL0     C66583   3.272   7.605   4.495 -0.1886  0.1095  0.4421
  505MOL0     C66584   3.358   7.669   4.585  0.6210  0.6046  0.1247
  505MOL0     C66585   3.358   7.625   4.722 -0.7430 -0.0062  0.2972
  505MOL0     O66586   3.449   7.678   4.812  0.1577 -0.1507  0.1200
  505MOL0     C66587   3.530   7.791   4.773  0.0740  0.0058  0.0404
  505MOL0     C66588   3.586   7.871   4.899 -0.1933 -0.6225  0.7923
  505MOL0     C66589   3.631   7.783   5.009  0.5057 -0.5499 -0.6016
  505MOL0     C66590   3.680   7.879   5.130  0.8361  0.2881  0.3821
  505MOL0     C66591   3.803   7.950   5.097  0.3299  0.1677  0.1450
  505MOL0     C66592   3.912   7.995   5.064 -0.1000  0.6292  0.0890
  505MOL0     C66593   3.275   7.521   4.761 -0.4194  0.9468 -0.1565
  505MOL0     C66594   3.186   7.469   4.667  0.1351 -0.7134 -0.4150
  505MOL0     H66595   2.889   7.286   4.299  2.5780  2.5633  2.6172
  505MOL0     H66596   2.758   7.237   4.083 -1.2637  0.6425 -1.0004
  505MOL0     H66597   2.821   7.525   3.755  2.9980  0.8673 -0.3701
  505MOL0     H66598   2.696   7.418   3.681  1.1974 -1.6755 -0.5551
  505MOL0     H66599   2.964   7.291   3.700  0.6481  2.5152  0.0165
  505MOL0     H66600   2.969   7.447   3.633 -0.6980  0.3922 -1.5539
  505MOL0     H66601   2.798   7.383   3.457  0.9225 -0.0629  0.3963
  505MOL0     H66602   2.810   7.213   3.498 -3.5740  1.1479 -3.0357
  505MOL0     H66603   3.044   7.374   3.414 -0.8175 -0.9037  0.1395
  505MOL0     H66604   3.052   7.221   3.483 -0.6340 -2.3671 -1.4378
  505MOL0     H66605   2.853   7.241   3.262 -0.2152 -3.0658  0.6948
  505MOL0     H66606   2.969   7.116   3.293  0.4472  0.4120  2.7358
  505MOL0     H66607   3.058   7.373   3.167  1.8391 -0.9672  0.4088
  505MOL0     H66608   3.044   7.207   3.094  1.0759 -1.5643  0.5754
  505MOL0     H66609   3.220   7.304   3.310  1.0361 -1.1569  0.4876
  505MOL0     H66610   3.207   7.136   3.283  2.4113  0.8415  0.6093
  505MOL0     H66611   3.328   7.317   3.099 -4.1485  0.2399 -1.3698
  505MOL0     H66612   3.250   7.161   3.046 -1.1533 -0.2900  0.4303
  505MOL0     H66613   3.578   7.311   3.166  1.1352 -1.4296 -2.4421
  505MOL0     H66614   3.787   7.045   3.346 -1.6868 -0.3334 -1.6562
  505MOL0     H66615   3.735   7.207   3.399 -1.3619  1.9731 -1.6234
  505MOL0     H66616   3.826   7.304   3.208 -1.4287 -1.0784 -0.0421
  505MOL0     H66617   3.848   7.162   3.120 -1.5999 -1.2350  0.8479
  505MOL0     H66618   4.015   7.071   3.299 -1.0269 -0.0344 -1.7563
  505MOL0     H66619   4.080   7.202   3.206  0.2416 -0.2164 -1.2180
  505MOL0     H66620   3.948   7.227   3.472 -1.0193  3.0050  0.5933
  505MOL0     H66621   4.019   7.354   3.373  1.3884  0.4287 -0.4718
  505MOL0     H66622   4.013   7.056   3.621 -1.8056 -2.3280 -1.7939
  505MOL0     H66623   4.045   6.812   3.649  1.7448 -0.7760  0.0519
  505MOL0     H66624   4.008   6.381   3.416 -0.2725 -0.7655 -0.0280
  505MOL0     H66625   4.036   6.169   3.446 -0.2581 -0.6901  0.7842
  505MOL0     H66626   4.129   5.960   3.461 -0.2890 -2.4439 -1.2058
  505MOL0     H66627   4.009   5.971   3.588 -0.4917 -4.1105 -0.1946
  505MOL0     H66628   4.115   5.787   3.711  0.6565  3.0673  1.5199
  505MOL0     H66629   4.245   5.772   3.592 -0.2730 -0.2371  1.4190
  505MOL0     H66630   4.123   5.711   3.417  3.1432  3.6302  1.8793
  505MOL0     H66631   3.964   5.740   3.494 -0.0704 -1.6260  0.7024
  505MOL0     H66632   4.137   5.513   3.617 -0.2727 -2.8643 -1.1288
  505MOL0     H66633   3.978   5.566   3.669  1.8359 -4.3721  2.1007
  505MOL0     H66634   4.060   5.467   3.403  1.8015 -0.8223  1.0034
  505MOL0     H66635   3.897   5.521   3.430 -0.3990  0.6499 -0.1071
  505MOL0     H66636   3.853   5.361   3.624 -0.3399  0.3261 -2.1872
  505MOL0     H66637   4.008   5.309   3.614 -1.1176  0.1233  1.9154
  505MOL0     H66638   3.833   5.168   3.505  0.0756  0.8090  1.1478
  505MOL0     H66639   3.783   5.308   3.400  1.4914  1.7598  0.2153
  505MOL0     H66640   4.073   5.218   3.357 -0.4335 -3.3541  0.9893
  505MOL0     H66641   3.944   5.253   3.242  3.6343 -0.1882 -1.2137
  505MOL0     H66642   4.300   6.225   3.785 -1.1599  2.0225  2.7057
  505MOL0     H66643   4.263   6.468   3.756 -0.3537 -1.2913  2.4051
  505MOL0     H66644   4.382   6.825   3.393 -0.4390 -1.9766  2.2712
  505MOL0     H66645   4.359   7.081   3.379 -1.5791 -0.2005 -0.7961
  505MOL0     H66646   3.016   7.506   3.878  0.8455 -0.0331  0.3349
  505MOL0     H66647   3.128   7.557   4.069 -1.8001  1.1823 -2.3898
  505MOL0     H66648   3.271   7.623   4.388 -4.0535  1.5338  0.5615
  505MOL0     H66649   3.427   7.740   4.543  2.2544 -2.0208 -1.9275
  505MOL0     H66650   3.468   7.862   4.717  1.0303  1.4699  0.7604
  505MOL0     H66651   3.617   7.753   4.718  0.1030 -1.4902  1.0580
  505MOL0     H66652   3.667   7.938   4.867  0.9281 -1.3110  2.1207
  505MOL0     H66653   3.507   7.937   4.937  0.5977 -0.0459  1.4784
  505MOL0     H66654   3.720   7.723   4.985  1.5970  1.7029 -2.5847
  505MOL0     H66655   3.545   7.723   5.039  0.8499  0.2229  2.1896
  505MOL0     H66656   3.606   7.951   5.167 -1.3271 -0.6988 -1.7085
  505MOL0     H66657   3.709   7.807   5.207 -1.0096 -0.1424  0.7354
  505MOL0     H66658   4.012   8.018   5.031 -0.4690 -0.1847 -1.7253
  505MOL0     H66659   3.294   7.474   4.857 -1.6827  3.4788  1.4482
  505MOL0     H66660   3.120   7.388   4.696 -1.1458  0.5419  0.2482
  506MOL0     O66661  10.936   2.089   2.181 -0.5188  0.1722  0.1058
  506MOL0     C66662  10.900   2.177   2.099 -0.0180  0.1575 -0.1347
  506MOL0     O66663  10.800   2.163   2.008 -0.2651 -0.3517 -0.4098
  506MOL0     C66664  10.729   2.044   2.004  0.0857 -0.3848  0.7599
  506MOL0     C66665  10.791   1.922   1.971 -0.6478  0.1963 -0.0850
  506MOL0     C66666  10.716   1.806   1.959  0.1819 -0.4029  0.1886
  506MOL0     C66667  10.577   1.803   1.970  1.1237  0.2095  0.1521
  506MOL0     O66668  10.507   1.689   1.955 -0.2989 -0.0212 -0.3056
  506MOL0     C66669  10.403   1.660   2.049  0.2297 -0.7073 -0.0466
  506MOL0     C66670  10.334   1.526   1.998 -0.4434  0.0065 -0.8015
  506MOL0     C66671  10.236   1.483   2.103 -0.3878 -0.0280  0.0153
  506MOL0     C66672  10.112   1.569   2.121 -1.0971 -0.1739  0.6150
  506MOL0     C66673   9.997   1.487   2.182  0.5061  0.6720 -0.4522
  506MOL0     C66674   9.936   1.379   2.084  0.0488 -0.1215  0.2829
  506MOL0     C66675   9.893   1.428   1.949  0.2193 -0.9811  0.1115
  506MOL0     C66676   9.844   1.315   1.851  0.1909 -0.1999 -0.5299
  506MOL0     N66677   9.750   1.349   1.743  0.2535  0.5443  0.0925
  506MOL0     C66678   9.632   1.396   1.774 -0.1351  0.0408 -0.0069
  506MOL0     C66679   9.577   1.431   1.657  0.6718  0.3397  0.2406
  506MOL0     C66680   9.428   1.475   1.665  0.6979  0.3950  0.3421
  506MOL0     C66681   9.340   1.378   1.582  0.2557  0.6040  0.0835
  506MOL0     C66682   9.191   1.416   1.608 -0.5661 -0.5210 -0.5412
  506MOL0     C66683   9.089   1.303   1.595 -0.5397  0.1638  0.2850
  506MOL0     O66684   9.101   1.200   1.700 -0.3441  0.1419  0.0230
  506MOL0     C66685   9.025   1.083   1.689  0.0493 -0.1949  0.1006
  506MOL0     C66686   8.937   1.068   1.583 -1.2687 -0.4511  0.3172
  506MOL0     C66687   8.857   0.955   1.579  0.2406 -0.4871  0.7323
  506MOL0     C66688   8.873   0.860   1.680 -0.0944  0.2823  0.6885
  506MOL0     C66689   8.797   0.740   1.667 -0.2556  0.5549 -0.6072
  506MOL0     O66690   8.714   0.717   1.555  0.2409  0.0541 -0.2640
  506MOL0     C66691   8.653   0.597   1.557 -0.0323  0.1432  0.3899
  506MOL0     C66692   8.694   0.497   1.470 -0.3907  0.0763  0.5827
  506MOL0     C66693   8.627   0.376   1.469 -0.3780  0.8322  1.0290
  506MOL0     C66694   8.521   0.345   1.557  0.3023  0.4920 -0.2652
  506MOL0     O66695   8.480   0.215   1.580  0.2722 -0.2504 -0.4784
  506MOL0     C66696   8.456   0.142   1.457 -0.2665  0.0672 -0.5019
  506MOL0     C66697   8.404  -0.001   1.490  0.1871 -0.0143  0.5650
  506MOL0     C66698   8.320  -0.002   1.628  0.1814  0.8083 -0.3696
  506MOL0     C66699   8.238  -0.130   1.619  0.1028  1.2375 -0.6432
  506MOL0     C66700   8.143  -0.149   1.737  0.8213  0.4114 -0.9590
  506MOL0     C66701   8.171  -0.267   1.811  0.2292  0.7072  0.4473
  506MOL0     C66702   8.079  -0.274   1.926  0.5875  0.3353 -0.8288
  506MOL0     C66703   7.953  -0.342   1.904  0.6306  0.3874  0.4642
  506MOL0    Cl66704   7.830  -0.260   1.805 -0.3249 -0.1909 -0.1388
  506MOL0     C66705   8.477   0.445   1.639  0.8159 -0.3678  0.3325
  506MOL0     C66706   8.543   0.570   1.647 -0.6438 -0.5696 -0.7920
  506MOL0     O66707   8.823   0.655   1.758 -0.1932  0.2320  0.5643
  506MOL0     C66708   8.967   0.873   1.781  0.1243 -0.0759 -0.0634
  506MOL0     C66709   9.037   0.994   1.785 -0.8987  0.1779  0.6971
  506MOL0     N66710   9.663   1.405   1.553 -0.0389 -0.2583 -0.6065
  506MOL0     N66711   9.768   1.361   1.606 -0.0515  0.6644  0.4128
  506MOL0     C66712  10.516   1.926   1.999 -0.0354  0.3933  0.0917
  506MOL0     C66713  10.590   2.052   2.014  0.1709  0.3402 -0.5459
  506MOL0     C66714  10.962   2.313   2.116  1.0967  0.0814  0.4753
  506MOL0     C66715  11.093   2.327   2.160  0.5811  0.4647  0.0293
  506MOL0     C66716  11.170   2.442   2.150  1.5593 -0.0581  1.1934
  506MOL0     C66717  11.100   2.554   2.105  1.0815  0.2488  0.1579
  506MOL0     O66718  11.151   2.677   2.095 -0.5770 -0.1338 -0.1450
  506MOL0     C66719  11.287   2.707   2.125 -0.5046 -0.8933  0.7805
  506MOL0     C66720  11.347   2.819   2.030  0.2941  1.0176 -0.2624
  506MOL0     C66721  11.303   2.814   1.885 -0.7774 -0.6017  0.0176
  506MOL0     C66722  11.388   2.717   1.801  0.7949  0.5936  0.5844
  506MOL0     C66723  11.357   2.573   1.807 -0.0455  0.1563  0.7859
  506MOL0     C66724  11.335   2.454   1.822  0.2841  0.6772 -0.2295
  506MOL0     C66725  10.966   2.544   2.076 -0.0508  0.3597  0.3893
  506MOL0     C66726  10.899   2.423   2.072  0.9646 -0.4658 -0.3063
  506MOL0     H66727  10.899   1.911   1.965 -0.4805  0.9692  1.1624
  506MOL0     H66728  10.757   1.705   1.951  0.5475 -0.7437  4.1879
  506MOL0     H66729  10.329   1.740   2.056  0.4066 -0.6273  1.4000
  506MOL0     H66730  10.445   1.658   2.150  0.5633 -1.5588 -0.1912
  506MOL0     H66731  10.421   1.460   1.990 -1.9519 -2.3456  0.9398
  506MOL0     H66732  10.293   1.533   1.897  0.3245 -0.4299 -1.1559
  506MOL0     H66733  10.284   1.492   2.201 -0.3623 -1.4575  0.1447
  506MOL0     H66734  10.217   1.377   2.089  2.6941 -0.2881 -3.7088
  506MOL0     H66735  10.141   1.654   2.183  0.7555 -0.2846 -0.0349
  506MOL0     H66736  10.085   1.611   2.023 -0.1351 -0.5610  0.1665
  506MOL0     H66737   9.909   1.549   2.204  1.1012  1.0979  0.8098
  506MOL0     H66738  10.026   1.431   2.271 -2.2771 -0.8143 -0.3610
  506MOL0     H66739   9.854   1.334   2.139  1.5132 -2.9111  0.3520
  506MOL0     H66740  10.014   1.304   2.068 -1.8433 -2.3898  1.0979
  506MOL0     H66741   9.811   1.499   1.970  0.3692 -1.2086  1.6121
  506MOL0     H66742   9.972   1.489   1.905 -0.3534  1.0458  1.6754
  506MOL0     H66743   9.789   1.237   1.906  0.0334 -0.6663 -1.3338
  506MOL0     H66744   9.930   1.261   1.812  1.2476  0.1389  1.2133
  506MOL0     H66745   9.576   1.400   1.868 -1.5108 -0.3987 -0.7828
  506MOL0     H66746   9.428   1.577   1.628  0.0786  0.3885  0.3216
  506MOL0     H66747   9.381   1.471   1.763 -0.3633 -1.0239 -0.1824
  506MOL0     H66748   9.352   1.276   1.618 -0.3247  1.4934  3.1395
  506MOL0     H66749   9.361   1.378   1.475 -1.1755 -2.0422 -0.2823
  506MOL0     H66750   9.181   1.455   1.710  0.1511 -0.4027 -0.5112
  506MOL0     H66751   9.166   1.501   1.544 -0.7730 -0.4223 -0.3318
  506MOL0     H66752   9.119   1.260   1.499  0.0318 -0.5560  0.7784
  506MOL0     H66753   8.984   1.334   1.598 -0.9194 -1.0874  0.6588
  506MOL0     H66754   8.933   1.131   1.494 -0.4709 -3.0702 -1.7215
  506MOL0     H66755   8.782   0.925   1.507 -0.4839 -0.0769  1.3012
  506MOL0     H66756   8.780   0.515   1.406 -0.7384  5.0569  1.1011
  506MOL0     H66757   8.665   0.296   1.405  0.1776  0.6200  1.6124
  506MOL0     H66758   8.552   0.123   1.408 -0.6700 -1.5905 -0.7003
  506MOL0     H66759   8.403   0.202   1.383  1.1384  0.3096 -1.3440
  506MOL0     H66760   8.480  -0.079   1.506  0.1311 -0.0172  0.8261
  506MOL0     H66761   8.339  -0.025   1.405  1.8685 -0.4668 -0.6350
  506MOL0     H66762   8.262   0.090   1.637  2.0434  2.1903 -1.6678
  506MOL0     H66763   8.383  -0.006   1.717  0.3187  0.2491 -0.4891
  506MOL0     H66764   8.174  -0.124   1.531 -0.0865 -0.1680 -0.6301
  506MOL0     H66765   8.306  -0.213   1.599  1.5891  2.6614 -1.6971
  506MOL0     H66766   8.037  -0.143   1.708 -0.1122 -3.0466  1.2314
  506MOL0     H66767   8.168  -0.067   1.805 -0.1558 -1.8065  2.3306
  506MOL0     H66768   8.277  -0.251   1.834  0.2795  1.5321 -0.3192
  506MOL0     H66769   8.161  -0.359   1.753  0.5241  0.6501  0.4861
  506MOL0     H66770   8.127  -0.324   2.011 -2.5028 -0.0349  0.8529
  506MOL0     H66771   8.056  -0.174   1.963 -0.2941  0.3708 -1.4627
  506MOL0     H66772   7.894  -0.373   1.991 -0.4383  1.2093  0.0436
  506MOL0     H66773   7.977  -0.429   1.842 -4.3804  0.4025 -1.9554
  506MOL0     H66774   8.391   0.430   1.703  1.4311 -0.1148  1.2378
  506MOL0     H66775   8.501   0.635   1.723 -1.6545  0.2472 -2.0091
  506MOL0     H66776   8.987   0.796   1.854 -1.2484  0.2418  0.6854
  506MOL0     H66777   9.112   1.004   1.863 -0.9567  1.4215  0.6118
  506MOL0     H66778  10.408   1.919   2.007  0.0441 -5.2318 -0.2723
  506MOL0     H66779  10.534   2.146   2.019 -0.6112 -0.1771  2.4206
  506MOL0     H66780  11.136   2.247   2.220 -1.6054 -0.9485 -0.1647
  506MOL0     H66781  11.277   2.434   2.168  1.2146 -5.3396  2.3199
  506MOL0     H66782  11.349   2.618   2.111  2.6407  0.9881  1.8296
  506MOL0     H66783  11.307   2.736   2.229 -1.6447 -0.2485  0.8374
  506MOL0     H66784  11.319   2.915   2.074 -2.6766 -0.0109  0.2994
  506MOL0     H66785  11.456   2.822   2.036  0.4293 -0.7773 -1.1014
  506MOL0     H66786  11.317   2.916   1.848  0.5845 -0.5234  0.6930
  506MOL0     H66787  11.197   2.794   1.870 -0.6801  0.0828 -1.9224
  506MOL0     H66788  11.380   2.738   1.694  0.9913  1.1747  0.6851
  506MOL0     H66789  11.494   2.725   1.828  1.0303  0.8050 -0.3585
  506MOL0     H66790  11.308   2.352   1.839  1.0524  0.4947 -0.0612
  506MOL0     H66791  10.901   2.629   2.055 -1.9332 -0.6779  1.6665
  506MOL0     H66792  10.798   2.421   2.033  0.9429  1.3006 -0.4022
  507MOL0     O66793   9.664   8.611   8.301  0.1518 -0.4356 -0.6098
  507MOL0     C66794   9.737   8.619   8.403 -0.4700  0.1807  0.4511
  507MOL0     O66795   9.705   8.643   8.530 -0.8829  0.2665  0.1835
  507MOL0     C66796   9.573   8.653   8.574 -1.0574 -0.6138 -0.0767
  507MOL0     C66797   9.483   8.554   8.554  1.6356  0.1965  0.0875
  507MOL0     C66798   9.350   8.554   8.622  0.0738  0.4789 -0.1756
  507MOL0     C66799   9.316   8.665   8.697  1.0421 -0.8713  0.5790
  507MOL0     O66800   9.202   8.683   8.774  0.0653  0.1762 -0.2281
  507MOL0     C66801   9.104   8.581   8.793 -0.0199 -0.3917 -0.3087
  507MOL0     C66802   9.026   8.558   8.659 -0.2853  0.8123 -0.7617
  507MOL0     C66803   8.879   8.604   8.676 -0.7649 -0.8279 -0.4422
  507MOL0     C66804   8.872   8.760   8.671  0.3378 -0.5395  0.1581
  507MOL0     C66805   8.721   8.808   8.653 -0.3267 -0.0399 -0.1707
  507MOL0     C66806   8.624   8.745   8.750 -0.0066 -0.1209  0.6318
  507MOL0     C66807   8.521   8.852   8.790 -0.3967  0.3892  0.9139
  507MOL0     C66808   8.451   8.820   8.920  0.6036 -0.7231  0.1920
  507MOL0     N66809   8.337   8.912   8.955 -0.2203  0.3180  0.2095
  507MOL0     C66810   8.336   9.017   9.046  0.2925 -0.1286  0.6639
  507MOL0     C66811   8.217   9.078   9.035  0.8852 -0.0763  0.3739
  507MOL0     C66812   8.171   9.202   9.114 -0.4449 -0.6199 -0.3689
  507MOL0     C66813   8.019   9.228   9.147 -1.1862  0.1268 -0.3659
  507MOL0     C66814   7.949   9.269   9.017  0.0420 -0.4324 -1.0874
  507MOL0     C66815   7.813   9.323   9.043 -0.9084 -0.1719 -0.2625
  507MOL0     O66816   7.755   9.378   8.928 -0.6873 -0.0319 -0.2845
  507MOL0     C66817   7.629   9.433   8.932  0.6476 -0.1515 -0.4836
  507MOL0     C66818   7.527   9.426   9.034  0.6258  0.1219  1.1658
  507MOL0     C66819   7.407   9.496   9.022  0.5603  0.2636  0.2213
  507MOL0     C66820   7.394   9.601   8.921  0.2348  0.4274  1.0807
  507MOL0     C66821   7.264   9.680   8.911 -0.2309  0.8289  0.1718
  507MOL0     O66822   7.166   9.630   8.999 -0.6337 -0.8089  0.2711
  507MOL0     C66823   7.041   9.681   8.986 -0.4135  0.7416  0.2793
  507MOL0     C66824   6.932   9.588   8.980  0.9754 -0.6773  0.9199
  507MOL0     C66825   6.801   9.629   8.984  0.2981  0.1392  1.3286
  507MOL0     C66826   6.771   9.768   8.972  0.2993 -0.0180 -1.3103
  507MOL0     O66827   6.641   9.811   8.966 -0.1877  0.2809  0.2712
  507MOL0     C66828   6.616   9.949   8.922  0.0552  0.3061  0.0892
  507MOL0     C66829   6.470   9.950   8.856 -0.9818 -0.1778  0.0948
  507MOL0     C66830   6.452   9.852   8.743  0.7273  0.8743 -0.7775
  507MOL0     C66831   6.305   9.832   8.723  0.5546 -0.4648  0.6082
  507MOL0     C66832   6.274   9.734   8.605  0.1204  1.3891  0.2464
  507MOL0     C66833   6.126   9.702   8.603 -1.1532  0.5599  0.2009
  507MOL0     C66834   6.107   9.588   8.496  0.3930  0.5949 -0.7619
  507MOL0     C66835   5.995   9.626   8.391 -0.5766 -0.1991 -0.3395
  507MOL0    Cl66836   6.075   9.722   8.252 -0.4032  0.3763 -0.2141
  507MOL0     C66837   6.878   9.862   8.984 -0.1250 -0.3103  0.0689
  507MOL0     C66838   7.008   9.814   9.004 -0.8416 -0.1674  0.7044
  507MOL0     O66839   7.247   9.774   8.828 -0.3294 -0.2670  0.0634
  507MOL0     C66840   7.502   9.612   8.833  0.5297 -0.4812  0.3798
  507MOL0     C66841   7.608   9.531   8.835 -0.2688 -0.0388 -0.3084
  507MOL0     N66842   8.145   9.022   8.933 -0.6557 -0.0025  0.5833
  507MOL0     N66843   8.221   8.927   8.877 -0.3454  0.8343  0.4279
  507MOL0     C66844   9.413   8.782   8.706  0.2361 -0.6139 -0.1244
  507MOL0     C66845   9.537   8.772   8.644  0.2171 -0.3342 -0.2208
  507MOL0     C66846   9.893   8.601   8.394  1.1586  0.4146 -0.0082
  507MOL0     C66847   9.978   8.632   8.506  0.9870  0.0833  0.4758
  507MOL0     C66848  10.120   8.626   8.504  0.6616 -0.8011 -0.9760
  507MOL0     C66849  10.175   8.602   8.383 -0.2129  0.3499  0.1945
  507MOL0     O66850  10.312   8.599   8.370  0.6409 -0.0764  0.3992
  507MOL0     C66851  10.409   8.635   8.468  0.3217 -0.2446 -0.9852
  507MOL0     C66852  10.541   8.642   8.402 -0.6319 -0.6812 -0.4754
  507MOL0     C66853  10.540   8.750   8.294  0.2592  0.9887  0.2756
  507MOL0     C66854  10.677   8.788   8.213  0.5540 -0.4493 -0.1262
  507MOL0     C66855  10.781   8.831   8.307 -0.0130 -1.0592  0.2467
  507MOL0     C66856  10.862   8.881   8.388 -0.0854  0.2924 -0.1653
  507MOL0     C66857  10.104   8.575   8.274  0.6300  0.3508 -0.6155
  507MOL0     C66858   9.964   8.574   8.277  0.2916  0.4145 -0.4814
  507MOL0     H66859   9.521   8.465   8.504  4.0206  0.2063  1.7243
  507MOL0     H66860   9.282   8.469   8.619  1.3675 -0.7831  2.6159
  507MOL0     H66861   9.036   8.615   8.871  1.9905  2.2396  0.4407
  507MOL0     H66862   9.153   8.489   8.827 -0.4015 -1.9661 -3.6155
  507MOL0     H66863   9.023   8.450   8.644 -1.4269  0.6710  0.2977
  507MOL0     H66864   9.065   8.616   8.575 -2.0363  1.1564 -1.3768
  507MOL0     H66865   8.832   8.567   8.767  1.3268  2.5826  2.2526
  507MOL0     H66866   8.828   8.560   8.590 -1.8321 -3.7288  1.5397
  507MOL0     H66867   8.911   8.815   8.757 -0.7582 -0.9799  0.9699
  507MOL0     H66868   8.929   8.796   8.586  0.7920  2.8701  1.7631
  507MOL0     H66869   8.681   8.781   8.555  1.5388 -1.7302 -0.5191
  507MOL0     H66870   8.727   8.913   8.684  2.4565 -1.2188  4.2807
  507MOL0     H66871   8.682   8.716   8.839  1.0519  4.1883  1.5475
  507MOL0     H66872   8.575   8.662   8.697  0.0251  0.1061  0.2435
  507MOL0     H66873   8.558   8.955   8.794 -0.5177  0.4445  0.5794
  507MOL0     H66874   8.448   8.847   8.709  1.3801  0.9578 -0.8157
  507MOL0     H66875   8.530   8.834   8.994 -0.8063 -1.1207  1.8366
  507MOL0     H66876   8.420   8.716   8.926 -0.0430 -0.6398 -1.3547
  507MOL0     H66877   8.413   9.041   9.118 -0.2923  0.5787  1.0705
  507MOL0     H66878   8.217   9.290   9.067  1.6832 -0.7837  1.2187
  507MOL0     H66879   8.218   9.207   9.213 -1.3587  1.2516  0.0190
  507MOL0     H66880   8.012   9.308   9.222 -0.4469 -0.6718  0.5789
  507MOL0     H66881   7.970   9.137   9.183 -1.1056  0.0641 -0.4162
  507MOL0     H66882   8.006   9.346   8.964  0.6252  1.7189  2.3334
  507MOL0     H66883   7.941   9.179   8.956 -3.3636 -0.2032 -1.1290
  507MOL0     H66884   7.814   9.389   9.130  2.4652 -2.3893  1.6074
  507MOL0     H66885   7.751   9.241   9.080 -1.2709  1.0189  1.8874
  507MOL0     H66886   7.562   9.357   9.110  1.8042 -0.2897  0.2934
  507MOL0     H66887   7.317   9.473   9.080 -0.1370 -2.9559 -1.9168
  507MOL0     H66888   6.959   9.483   8.979 -1.6268 -1.4226 -0.7895
  507MOL0     H66889   6.722   9.558   9.008 -1.0840  1.4778  0.9300
  507MOL0     H66890   6.690   9.973   8.844  2.6719 -1.3326  1.8875
  507MOL0     H66891   6.620  10.028   8.997 -1.6870  0.5580 -0.0497
  507MOL0     H66892   6.453  10.054   8.826 -0.2014  0.5463  2.0612
  507MOL0     H66893   6.407   9.937   8.944  0.0171 -1.4802  0.6559
  507MOL0     H66894   6.466   9.750   8.781 -3.1607  0.2222 -0.6987
  507MOL0     H66895   6.512   9.875   8.655 -0.9848 -1.2629 -2.6088
  507MOL0     H66896   6.258   9.801   8.817 -1.5298  0.4830 -0.0597
  507MOL0     H66897   6.249   9.921   8.693  0.4736 -1.1922 -1.5806
  507MOL0     H66898   6.314   9.636   8.629 -3.5632  0.0395  1.5076
  507MOL0     H66899   6.295   9.772   8.504  1.4652 -1.8117 -0.8021
  507MOL0     H66900   6.068   9.786   8.565 -2.3159 -0.3777 -0.1359
  507MOL0     H66901   6.093   9.665   8.700  3.2352  1.1491  2.1723
  507MOL0     H66902   6.187   9.559   8.427  1.7773 -0.5213  1.2256
  507MOL0     H66903   6.080   9.492   8.542 -1.1759  1.7528  0.8847
  507MOL0     H66904   5.922   9.684   8.448 -0.6964  0.2639 -0.9493
  507MOL0     H66905   5.941   9.536   8.362  1.0120 -1.7014  1.1562
  507MOL0     H66906   6.862   9.969   8.989  0.0106 -0.3266  1.1094
  507MOL0     H66907   7.081   9.890   9.029 -1.2274  0.2912  0.4507
  507MOL0     H66908   7.486   9.677   8.748 -0.5558 -1.1415  0.0664
  507MOL0     H66909   7.690   9.539   8.765  1.6927 -0.1308  1.8396
  507MOL0     H66910   9.406   8.868   8.771  2.6183  0.6295 -1.3743
  507MOL0     H66911   9.612   8.849   8.657  0.5521 -0.3983 -1.6772
  507MOL0     H66912   9.921   8.654   8.597 -0.6173 -1.6159 -0.0573
  507MOL0     H66913  10.182   8.642   8.591  1.7618 -1.6296 -1.5934
  507MOL0     H66914  10.413   8.549   8.536 -0.5879 -0.8063 -1.6233
  507MOL0     H66915  10.383   8.731   8.512  0.2882 -0.2079 -1.0852
  507MOL0     H66916  10.604   8.673   8.485  1.3570  0.8758 -2.4444
  507MOL0     H66917  10.580   8.542   8.378 -0.8565 -1.1925  1.1830
  507MOL0     H66918  10.488   8.838   8.334 -3.4496 -1.6234  1.7818
  507MOL0     H66919  10.460   8.712   8.229 -3.0971  2.5714  3.1286
  507MOL0     H66920  10.706   8.691   8.172 -1.7638 -1.5829  0.6998
  507MOL0     H66921  10.672   8.873   8.144 -0.5947 -2.7969 -3.1694
  507MOL0     H66922  10.939   8.917   8.454  1.6608  0.3743 -2.1397
  507MOL0     H66923  10.152   8.545   8.181  0.3414 -0.9082 -0.3822
  507MOL0     H66924   9.908   8.552   8.186  0.6096 -0.2270 -0.5284
  508MOL0     O66925   2.915  10.499   4.131  0.2879 -0.4045 -0.7532
  508MOL0     C66926   2.888  10.509   4.253 -0.9842 -0.8844  0.9009
  508MOL0     O66927   2.828  10.417   4.337 -0.5671  0.0554  0.0444
  508MOL0     C66928   2.762  10.297   4.306 -0.5923 -0.6836  0.2906
  508MOL0     C66929   2.698  10.223   4.416  1.0814  1.3088  0.2076
  508MOL0     C66930   2.623  10.102   4.384  1.3807  0.0187 -0.7533
  508MOL0     C66931   2.633  10.051   4.253  0.1947  0.2833  0.3704
  508MOL0     O66932   2.576   9.938   4.207  1.2399 -0.2624  0.0626
  508MOL0     C66933   2.438   9.925   4.224  0.1328 -0.6795  1.0382
  508MOL0     C66934   2.388   9.868   4.089  1.0184 -0.2473  0.0156
  508MOL0     C66935   2.406   9.712   4.074  0.1320 -0.0691 -0.2821
  508MOL0     C66936   2.334   9.672   3.942 -0.0211  0.1900 -0.6519
  508MOL0     C66937   2.183   9.675   3.951  0.0668  1.3531  0.5609
  508MOL0     C66938   2.139   9.627   3.819 -0.6344 -0.3739 -0.5342
  508MOL0     C66939   1.999   9.565   3.829  0.3888  0.0850 -0.0227
  508MOL0     C66940   1.921   9.557   3.696 -0.3374 -0.0559 -0.3033
  508MOL0     N66941   1.788   9.502   3.712 -0.1204  0.8446 -1.0333
  508MOL0     C66942   1.750   9.406   3.805  0.2471 -0.0375  0.5785
  508MOL0     C66943   1.625   9.367   3.767 -0.5854 -0.0148  0.3132
  508MOL0     C66944   1.536   9.267   3.841 -0.5952  0.4135  0.6213
  508MOL0     C66945   1.592   9.181   3.955 -0.4237  0.1876 -0.4053
  508MOL0     C66946   1.479   9.136   4.048  0.6610  0.1408  0.4830
  508MOL0     C66947   1.452   9.247   4.154 -0.4054 -0.5228 -0.1215
  508MOL0     O66948   1.475   9.387   4.127  0.1613 -0.8776  0.5025
  508MOL0     C66949   1.453   9.475   4.226 -0.9988 -0.8349 -0.4578
  508MOL0     C66950   1.332   9.546   4.236  1.4983 -0.8247  0.2413
  508MOL0     C66951   1.308   9.649   4.327 -0.3591  0.6487  0.2421
  508MOL0     C66952   1.408   9.676   4.429 -0.8299  1.2888 -0.1679
  508MOL0     C66953   1.379   9.766   4.540 -0.4345  0.0716 -0.2158
  508MOL0     O66954   1.286   9.853   4.506 -0.3683  0.4367  0.4842
  508MOL0     C66955   1.228   9.930   4.605  0.1010 -0.3499  1.1265
  508MOL0     C66956   1.294  10.041   4.660  0.4886 -0.0223 -0.6713
  508MOL0     C66957   1.235  10.121   4.761 -0.1855 -0.1039 -0.5238
  508MOL0     C66958   1.106  10.094   4.799  0.2335 -0.4448  0.3815
  508MOL0     O66959   1.022  10.173   4.871  0.3828 -1.3627 -1.0288
  508MOL0     C66960   1.065  10.311   4.889  0.0381  0.7822 -0.0138
  508MOL0     C66961   0.937  10.385   4.930 -0.7232 -0.0599 -0.7581
  508MOL0     C66962   0.900  10.343   5.082 -0.1106 -0.1059  0.4599
  508MOL0     C66963   0.788  10.436   5.133  0.4320 -0.3753  0.5646
  508MOL0     C66964   0.790  10.469   5.282  0.4829 -0.2111  0.5795
  508MOL0     C66965   0.681  10.575   5.325  0.6849 -1.3493 -0.0625
  508MOL0     C66966   0.696  10.589   5.478 -0.6726 -0.7520 -0.6541
  508MOL0     C66967   0.802  10.680   5.531 -0.1846  0.0303  0.1916
  508MOL0    Cl66968   0.773  10.720   5.696 -0.1305 -0.3716 -0.1075
  508MOL0     C66969   1.038   9.984   4.748  0.3673  0.3842  0.0498
  508MOL0     C66970   1.097   9.894   4.654 -0.5385 -0.0175  0.1187
  508MOL0     O66971   1.418   9.739   4.653  0.1566 -0.2398 -0.3366
  508MOL0     C66972   1.528   9.601   4.419  0.4530 -1.0365 -0.6607
  508MOL0     C66973   1.555   9.515   4.315  1.4630  0.9935  0.1124
  508MOL0     N66974   1.584   9.446   3.661 -0.4329 -1.0608 -0.3322
  508MOL0     N66975   1.687   9.521   3.627  0.2203 -0.3700  0.1190
  508MOL0     C66976   2.705  10.114   4.159  0.0212 -0.4086  0.2053
  508MOL0     C66977   2.762  10.236   4.183  0.3534 -0.8562  0.3866
  508MOL0     C66978   2.894  10.644   4.320 -0.5243 -0.0526  0.3506
  508MOL0     C66979   2.910  10.653   4.458 -0.6201 -0.7948  0.2258
  508MOL0     C66980   2.917  10.777   4.529 -0.2522  0.3538  0.9329
  508MOL0     C66981   2.907  10.893   4.458 -0.0118 -0.1423 -0.0313
  508MOL0     O66982   2.908  11.008   4.531 -0.1127  0.2614  0.4621
  508MOL0     C66983   2.847  11.119   4.464  0.1469  0.5978  0.2551
  508MOL0     C66984   2.750  11.191   4.558  0.3041 -0.5358  0.3972
  508MOL0     C66985   2.638  11.100   4.604  0.1961  0.2477 -0.2113
  508MOL0     C66986   2.612  11.128   4.746 -0.2403 -0.3947  0.4420
  508MOL0     C66987   2.532  11.026   4.805  0.3112  0.6612  0.3423
  508MOL0     C66988   2.456  10.939   4.854  0.2873 -0.4705  0.5181
  508MOL0     C66989   2.885  10.880   4.312 -1.1857 -0.8194 -0.4816
  508MOL0     C66990   2.879  10.762   4.252 -0.5252  1.1023  0.0145
  508MOL0     H66991   2.706  10.264   4.516 -3.2127  1.5599  0.6570
  508MOL0     H66992   2.557  10.050   4.452  1.8801 -1.6125 -1.4538
  508MOL0     H66993   2.391  10.023   4.230  1.9610  0.1939  2.0475
  508MOL0     H66994   2.417   9.858   4.308  4.3418 -1.6413  1.5371
  508MOL0     H66995   2.406   9.928   4.000 -0.0547  2.2564  1.3833
  508MOL0     H66996   2.280   9.884   4.099  0.9113 -0.7027 -0.3874
  508MOL0     H66997   2.346   9.668   4.154  1.9534 -0.4857  0.9118
  508MOL0     H66998   2.513   9.689   4.064  0.1208  0.4129 -1.8899
  508MOL0     H66999   2.369   9.742   3.865 -0.3288  2.7332  1.3880
  508MOL0     H67000   2.366   9.569   3.926  0.6388 -0.0110  1.6052
  508MOL0     H67001   2.150   9.770   3.992  0.8698  0.0848  4.5784
  508MOL0     H67002   2.157   9.600   4.026  0.4207  0.8561  0.1982
  508MOL0     H67003   2.203   9.547   3.780 -0.3589 -0.0829 -0.6857
  508MOL0     H67004   2.140   9.708   3.745 -3.9157 -0.5128 -0.8426
  508MOL0     H67005   2.001   9.463   3.869  3.8659  0.0808  0.1079
  508MOL0     H67006   1.933   9.633   3.884 -0.5515  0.1881 -1.2440
  508MOL0     H67007   1.982   9.490   3.635  0.0557 -0.9792  1.0481
  508MOL0     H67008   1.915   9.650   3.638  1.1388  1.8598  2.3941
  508MOL0     H67009   1.816   9.361   3.878  0.3058 -2.5351 -0.8959
  508MOL0     H67010   1.505   9.204   3.758  0.0831 -0.0925  0.7410
  508MOL0     H67011   1.450   9.322   3.878  0.0451  0.7768  1.5989
  508MOL0     H67012   1.668   9.237   4.011  0.4672 -0.5633 -0.8428
  508MOL0     H67013   1.638   9.094   3.908  1.5122  0.1085  1.4769
  508MOL0     H67014   1.388   9.111   3.993 -0.5560  2.5891  1.2229
  508MOL0     H67015   1.490   9.042   4.103 -2.9539 -1.2710 -0.8493
  508MOL0     H67016   1.524   9.237   4.237 -0.1825  1.5200 -0.0259
  508MOL0     H67017   1.347   9.240   4.184 -0.3828 -2.4188 -0.3764
  508MOL0     H67018   1.248   9.518   4.173 -0.0250  1.6170  1.0627
  508MOL0     H67019   1.208   9.691   4.334 -0.9617 -0.5330 -0.8799
  508MOL0     H67020   1.397  10.066   4.636  0.5353  1.2808  0.6983
  508MOL0     H67021   1.289  10.204   4.804  0.3598 -0.7968  0.1760
  508MOL0     H67022   1.105  10.339   4.792 -0.6453  0.3729 -0.4195
  508MOL0     H67023   1.146  10.317   4.962  0.5714 -2.1614 -0.2490
  508MOL0     H67024   0.857  10.356   4.860 -1.0008  1.5857 -1.1629
  508MOL0     H67025   0.955  10.493   4.919 -2.9223  0.6834  1.8053
  508MOL0     H67026   0.989  10.343   5.145  0.1864  1.6707  0.0948
  508MOL0     H67027   0.866  10.239   5.092  2.6451 -1.1182  0.1456
  508MOL0     H67028   0.791  10.525   5.070 -2.3772 -1.0463 -0.6666
  508MOL0     H67029   0.692  10.387   5.117  0.7556 -1.4057  1.6414
  508MOL0     H67030   0.890  10.511   5.291  0.5379  0.5742 -2.5146
  508MOL0     H67031   0.779  10.374   5.335 -0.6962 -1.1241 -1.1997
  508MOL0     H67032   0.585  10.541   5.284  0.6833 -0.9319 -0.4097
  508MOL0     H67033   0.712  10.667   5.275  0.5627 -1.9344 -1.2727
  508MOL0     H67034   0.600  10.632   5.508 -0.5543 -0.4323 -0.7326
  508MOL0     H67035   0.709  10.491   5.524  2.0030 -0.9861 -1.7751
  508MOL0     H67036   0.806  10.774   5.474 -0.5805 -0.3970 -0.5628
  508MOL0     H67037   0.904  10.639   5.533  2.3542  5.4790  1.1366
  508MOL0     H67038   0.937   9.975   4.787  1.0806 -2.3393  1.5033
  508MOL0     H67039   1.047   9.810   4.606  1.5778  0.0235 -2.4082
  508MOL0     H67040   1.603   9.633   4.491  0.8474  0.4216 -1.6794
  508MOL0     H67041   1.655   9.472   4.321  0.7512 -0.5033  2.7238
  508MOL0     H67042   2.707  10.082   4.055  2.0001 -3.4764  1.0444
  508MOL0     H67043   2.800  10.284   4.093 -0.1839 -1.1312  0.0067
  508MOL0     H67044   2.902  10.570   4.528  0.9942 -1.8565 -0.7543
  508MOL0     H67045   2.933  10.778   4.636 -0.4146 -2.6758  1.0535
  508MOL0     H67046   2.788  11.091   4.377 -0.5635 -2.8018  1.6294
  508MOL0     H67047   2.926  11.186   4.430  2.5121 -3.7521 -3.9483
  508MOL0     H67048   2.806  11.242   4.637  2.2763  0.2890 -1.4447
  508MOL0     H67049   2.703  11.274   4.503  0.2343 -1.0809 -0.3758
  508MOL0     H67050   2.675  10.997   4.597  1.6953  0.6993  0.6437
  508MOL0     H67051   2.548  11.106   4.542  0.0471  0.7296  0.0486
  508MOL0     H67052   2.705  11.130   4.803  0.3129 -0.4615 -0.4372
  508MOL0     H67053   2.566  11.227   4.755  1.7839  0.6934 -0.4633
  508MOL0     H67054   2.376  10.870   4.870 -0.5579 -0.0847 -1.6739
  508MOL0     H67055   2.908  10.972   4.258  2.4101 -1.1314  0.2770
  508MOL0     H67056   2.870  10.755   4.144  0.0342  1.7737 -0.0838
  509MOL0     O67057   1.790   1.529   7.752  0.1395 -0.4919 -0.2110
  509MOL0     C67058   1.888   1.572   7.814 -0.3405 -0.0235  0.3044
  509MOL0     O67059   2.018   1.513   7.808 -0.6664 -0.8933 -0.0388
  509MOL0     C67060   2.042   1.404   7.724 -0.3288 -0.3598  0.1282
  509MOL0     C67061   2.037   1.284   7.779  0.3632 -0.4101 -0.1146
  509MOL0     C67062   2.053   1.167   7.710  0.2801 -0.7294  0.8588
  509MOL0     C67063   2.076   1.175   7.571 -0.1155  0.2059 -0.1433
  509MOL0     O67064   2.062   1.075   7.473  0.8012 -0.0589 -0.9637
  509MOL0     C67065   2.000   0.951   7.515  0.3969  0.0524  0.0704
  509MOL0     C67066   1.959   0.868   7.393  0.2360 -0.2134  0.1926
  509MOL0     C67067   1.930   0.718   7.436  0.0832  0.2426  0.5558
  509MOL0     C67068   1.814   0.710   7.540 -0.1610  0.2533 -0.1481
  509MOL0     C67069   1.758   0.568   7.564  0.2951 -0.4053 -0.7913
  509MOL0     C67070   1.667   0.512   7.450  0.1321 -0.4379 -0.0706
  509MOL0     C67071   1.621   0.358   7.474  0.7234 -1.2050 -0.1813
  509MOL0     C67072   1.481   0.339   7.414 -0.5024  0.6131 -0.0969
  509MOL0     N67073   1.501   0.327   7.268 -0.4275 -0.4657 -0.0884
  509MOL0     C67074   1.510   0.442   7.193  0.7182  0.3251  0.3815
  509MOL0     C67075   1.495   0.399   7.067  0.3277 -0.2169 -0.3870
  509MOL0     C67076   1.503   0.489   6.944 -1.2075 -0.1095  0.0149
  509MOL0     C67077   1.647   0.476   6.881 -0.9812 -0.7006 -0.2955
  509MOL0     C67078   1.685   0.595   6.793 -0.2360  0.1407 -1.1697
  509MOL0     C67079   1.730   0.725   6.873 -0.0871  0.2020  0.8947
  509MOL0     O67080   1.866   0.701   6.912 -0.4382  0.5541  0.0888
  509MOL0     C67081   1.944   0.811   6.928 -0.0611  1.0470  0.1986
  509MOL0     C67082   2.064   0.830   6.872 -0.4629 -0.9810 -0.7805
  509MOL0     C67083   2.144   0.942   6.897  0.0379 -0.4414  0.0482
  509MOL0     C67084   2.098   1.040   6.986 -0.6094  0.2555  0.4581
  509MOL0     C67085   2.175   1.159   7.022  0.8507  0.1424  0.3610
  509MOL0     O67086   2.132   1.223   7.134 -0.7351 -0.5748 -0.4490
  509MOL0     C67087   2.192   1.344   7.167 -0.4416  0.5799 -0.0626
  509MOL0     C67088   2.331   1.347   7.190 -0.5468 -0.4124  0.3365
  509MOL0     C67089   2.393   1.466   7.234  0.1074  0.2201  0.9707
  509MOL0     C67090   2.319   1.585   7.245  0.2500 -0.2331  0.3396
  509MOL0     O67091   2.382   1.693   7.301  0.2622 -1.1407 -1.2091
  509MOL0     C67092   2.489   1.758   7.232 -0.4184 -0.9598  0.6528
  509MOL0     C67093   2.414   1.856   7.142  0.4209  0.0267  0.7748
  509MOL0     C67094   2.369   1.974   7.220  1.0760 -0.0161 -1.0000
  509MOL0     C67095   2.307   2.100   7.150 -0.5112 -0.0861 -0.3166
  509MOL0     C67096   2.303   2.227   7.233 -0.2488  0.1027 -0.2422
  509MOL0     C67097   2.224   2.203   7.377 -0.0371  0.0371 -0.1201
  509MOL0     C67098   2.227   2.325   7.468 -1.2044  0.1360  0.3330
  509MOL0     C67099   2.123   2.304   7.577 -0.4251  0.0435  0.7375
  509MOL0    Cl67100   2.156   2.168   7.679 -0.2271  0.2921 -0.1269
  509MOL0     C67101   2.182   1.574   7.210  0.3828 -1.2335  0.1277
  509MOL0     C67102   2.121   1.458   7.174  0.3923 -0.3125 -0.1388
  509MOL0     O67103   2.276   1.189   6.956 -0.7768  0.1361 -0.7272
  509MOL0     C67104   1.966   1.029   7.034  0.2285 -0.2220 -0.7260
  509MOL0     C67105   1.893   0.915   7.008  0.8007 -0.1188  0.3534
  509MOL0     N67106   1.483   0.265   7.073 -0.3921  0.0589 -0.6261
  509MOL0     N67107   1.468   0.226   7.191 -1.2078  0.5383  0.5444
  509MOL0     C67108   2.079   1.298   7.510 -0.5361 -1.0252 -0.7828
  509MOL0     C67109   2.066   1.416   7.587 -0.1292  0.1738  0.4238
  509MOL0     C67110   1.863   1.686   7.904 -0.3911 -0.8753  0.8159
  509MOL0     C67111   1.746   1.767   7.908  1.0510  0.0644  0.2461
  509MOL0     C67112   1.731   1.874   7.987  0.5523  0.4251 -0.2767
  509MOL0     C67113   1.835   1.921   8.064  1.2253  0.3850 -0.2113
  509MOL0     O67114   1.828   2.026   8.147 -0.3416 -0.5239  0.0199
  509MOL0     C67115   1.711   2.109   8.152  0.4749  0.8675  0.3941
  509MOL0     C67116   1.699   2.219   8.255  0.3748 -1.1584  0.4769
  509MOL0     C67117   1.691   2.158   8.395  0.8893 -0.5513 -0.6738
  509MOL0     C67118   1.674   2.270   8.508 -0.0976 -0.2175  0.1336
  509MOL0     C67119   1.794   2.353   8.512 -0.3774 -1.1911  0.0392
  509MOL0     C67120   1.891   2.430   8.503  0.4925 -0.4004  0.5642
  509MOL0     C67121   1.954   1.848   8.064  0.0955 -0.1305  0.2684
  509MOL0     C67122   1.975   1.738   7.980 -0.2477 -0.3351 -0.6720
  509MOL0     H67123   2.030   1.282   7.888 -1.0634  1.3987 -0.1299
  509MOL0     H67124   2.047   1.075   7.768 -0.4121 -1.3763 -0.2242
  509MOL0     H67125   1.906   0.981   7.563 -1.8436 -3.3082 -1.7988
  509MOL0     H67126   2.067   0.899   7.584  1.0773  2.2948  1.2147
  509MOL0     H67127   2.030   0.880   7.310 -1.4370  0.1803 -1.2358
  509MOL0     H67128   1.878   0.918   7.339 -0.1333  0.1724  1.0881
  509MOL0     H67129   2.021   0.679   7.482  0.4676 -1.2477 -1.3069
  509MOL0     H67130   1.911   0.661   7.344  2.4196  2.0073 -1.1320
  509MOL0     H67131   1.849   0.748   7.637  0.3817  0.2545 -0.3459
  509MOL0     H67132   1.735   0.773   7.498 -0.1715 -0.2512 -0.9057
  509MOL0     H67133   1.715   0.556   7.664  0.1937  3.1530 -0.2668
  509MOL0     H67134   1.848   0.507   7.569  0.3331 -0.4212 -1.5065
  509MOL0     H67135   1.725   0.533   7.360 -3.6830  2.6644 -2.1281
  509MOL0     H67136   1.578   0.576   7.452  1.1572  1.0321  0.0766
  509MOL0     H67137   1.694   0.284   7.439  2.7084 -0.4912  2.1803
  509MOL0     H67138   1.614   0.348   7.582 -2.8954  2.3749  0.1612
  509MOL0     H67139   1.425   0.429   7.440  2.4902  2.4967  0.2611
  509MOL0     H67140   1.443   0.250   7.466  1.8263 -1.0693 -1.0844
  509MOL0     H67141   1.510   0.546   7.223 -1.6103 -0.3792  3.3254
  509MOL0     H67142   1.488   0.591   6.980  1.0031  0.4296 -0.4249
  509MOL0     H67143   1.419   0.460   6.880 -0.1112  1.9942 -2.5264
  509MOL0     H67144   1.642   0.382   6.826 -0.8062 -1.9544  1.7028
  509MOL0     H67145   1.719   0.459   6.962 -1.9987  0.9020  1.0282
  509MOL0     H67146   1.765   0.559   6.727  1.2710  3.4731 -1.3165
  509MOL0     H67147   1.601   0.613   6.725  0.3048 -0.9690 -2.1633
  509MOL0     H67148   1.667   0.739   6.961  1.8043  1.3799  2.1460
  509MOL0     H67149   1.725   0.815   6.810 -0.1449 -0.3497  0.0970
  509MOL0     H67150   2.110   0.753   6.811 -0.1450 -1.1534 -0.3244
  509MOL0     H67151   2.242   0.944   6.849 -0.2113  0.2794 -0.4533
  509MOL0     H67152   2.400   1.265   7.173 -0.5176 -0.1860 -0.6693
  509MOL0     H67153   2.498   1.461   7.262 -0.0212  0.4397  1.4936
  509MOL0     H67154   2.549   1.698   7.162 -1.0812 -0.7087 -0.1407
  509MOL0     H67155   2.552   1.800   7.311 -2.7922  1.9915  1.1729
  509MOL0     H67156   2.333   1.795   7.101  0.4181 -2.5314  4.2263
  509MOL0     H67157   2.474   1.893   7.058  0.1958 -2.3358 -0.4901
  509MOL0     H67158   2.459   2.003   7.274 -0.8222 -0.6406  2.8536
  509MOL0     H67159   2.293   1.945   7.294  0.5758  1.7635 -0.7661
  509MOL0     H67160   2.379   2.116   7.069 -0.9995 -1.8341 -1.1377
  509MOL0     H67161   2.211   2.078   7.103 -1.2159  0.4980  0.8083
  509MOL0     H67162   2.243   2.301   7.179 -1.3675  1.3322  2.5046
  509MOL0     H67163   2.404   2.268   7.245  0.1417 -0.3742 -1.7442
  509MOL0     H67164   2.281   2.127   7.430  1.3736  1.0419 -0.1138
  509MOL0     H67165   2.121   2.168   7.374  0.1927 -0.6005 -1.2407
  509MOL0     H67166   2.330   2.336   7.504 -0.1696  0.2040 -2.3581
  509MOL0     H67167   2.197   2.408   7.404 -0.3364  1.4041  1.5138
  509MOL0     H67168   2.021   2.307   7.537 -0.2643  0.3530  0.3499
  509MOL0     H67169   2.127   2.391   7.644 -0.7456 -0.7621  1.8270
  509MOL0     H67170   2.133   1.668   7.231  2.5753 -0.3041  1.5051
  509MOL0     H67171   2.014   1.447   7.157  0.7046 -5.7521 -0.1063
  509MOL0     H67172   1.918   1.108   7.091 -0.1904 -2.1463  1.7869
  509MOL0     H67173   1.796   0.904   7.055  1.5741 -3.7567  1.4337
  509MOL0     H67174   2.112   1.325   7.410  3.9659  1.8086  1.1047
  509MOL0     H67175   2.069   1.515   7.542 -2.5604  0.0990 -0.0522
  509MOL0     H67176   1.656   1.750   7.851  1.0399 -0.6892  0.4810
  509MOL0     H67177   1.636   1.925   7.978  0.1801 -0.2083  0.0234
  509MOL0     H67178   1.615   2.059   8.169 -0.2460  1.4453 -1.6896
  509MOL0     H67179   1.703   2.156   8.053 -1.6515 -2.3870 -1.1689
  509MOL0     H67180   1.787   2.282   8.240  0.9599 -2.4707 -2.1894
  509MOL0     H67181   1.607   2.271   8.227  0.3991 -1.4559 -0.1605
  509MOL0     H67182   1.780   2.107   8.431 -1.2269 -2.2652  2.7160
  509MOL0     H67183   1.598   2.102   8.408  0.0902  0.8754  0.0284
  509MOL0     H67184   1.583   2.327   8.492  0.6236  0.8292 -0.3400
  509MOL0     H67185   1.678   2.219   8.605  0.7898 -0.3180  0.0525
  509MOL0     H67186   1.971   2.495   8.474 -0.7648 -0.1852 -2.8601
  509MOL0     H67187   2.031   1.889   8.129  0.3289  0.1073 -0.1520
  509MOL0     H67188   2.074   1.694   7.979 -0.0088  0.0366  1.4306
  510MOL0     O67189   5.643   5.558   9.955 -0.3582  0.0583 -0.3706
  510MOL0     C67190   5.651   5.654   9.878 -0.1335 -0.1569  0.4444
  510MOL0     O67191   5.673   5.787   9.909  0.1741 -0.3114  0.4478
  510MOL0     C67192   5.728   5.813  10.035 -0.3321 -0.2759  0.5088
  510MOL0     C67193   5.852   5.878  10.039  1.0188  0.0970  0.2774
  510MOL0     C67194   5.930   5.891  10.159  0.1015 -0.2393  0.2753
  510MOL0     C67195   5.879   5.833  10.277  0.3409 -0.8293 -0.9770
  510MOL0     O67196   5.947   5.831  10.398  0.1365  0.4022 -0.6715
  510MOL0     C67197   6.081   5.789  10.398 -0.0283  0.8922  0.5863
  510MOL0     C67198   6.100   5.640  10.382  0.3253  1.9174 -0.0206
  510MOL0     C67199   6.126   5.609  10.239 -0.5299  0.9996  0.4194
  510MOL0     C67200   6.139   5.453  10.207 -0.5681 -0.0343 -0.0708
  510MOL0     C67201   6.002   5.395  10.223  1.4630 -0.4121 -1.1178
  510MOL0     C67202   5.983   5.272  10.317 -0.4105 -0.0240  0.0767
  510MOL0     C67203   5.834   5.227  10.297  0.9252 -0.1198  1.0515
  510MOL0     C67204   5.799   5.100  10.382 -0.8859 -0.6053 -0.4975
  510MOL0     N67205   5.863   4.971  10.356 -0.1847 -0.3239 -0.3150
  510MOL0     C67206   5.876   4.920  10.231 -0.6915 -0.3838 -0.2308
  510MOL0     C67207   5.928   4.799  10.259 -0.1330  0.1157 -0.1855
  510MOL0     C67208   5.969   4.688  10.169  0.5046  0.3337  0.0988
  510MOL0     C67209   5.865   4.582  10.196  0.3349 -0.0165 -0.5269
  510MOL0     C67210   5.878   4.444  10.138 -0.1746  0.0899  0.3532
  510MOL0     C67211   5.857   4.446   9.981 -1.0726 -0.1242  0.1105
  510MOL0     O67212   5.880   4.323   9.914 -0.3542  0.7556  0.3755
  510MOL0     C67213   6.010   4.279   9.900 -0.1730  1.0199  0.5604
  510MOL0     C67214   6.112   4.346   9.823  0.1149  0.3134  0.1726
  510MOL0     C67215   6.239   4.288   9.798 -0.4422 -0.6574 -0.0136
  510MOL0     C67216   6.266   4.170   9.866  0.1914 -0.6705 -0.0534
  510MOL0     C67217   6.401   4.120   9.866  0.5179  0.5383  0.3750
  510MOL0     O67218   6.430   4.005   9.930 -0.1952 -0.6312 -0.3235
  510MOL0     C67219   6.554   3.946   9.914 -0.2049 -0.1701 -0.1724
  510MOL0     C67220   6.672   3.974   9.988  0.0043  1.0888 -0.5770
  510MOL0     C67221   6.788   3.914   9.952 -0.5313 -0.3281  0.0946
  510MOL0     C67222   6.802   3.834   9.842 -0.8386  0.7608  0.3277
  510MOL0     O67223   6.928   3.805   9.779 -0.5065  0.2410 -0.3228
  510MOL0     C67224   7.043   3.803   9.860 -0.8969 -0.5628 -0.4025
  510MOL0     C67225   7.173   3.772   9.782  0.2868  1.5628 -0.5257
  510MOL0     C67226   7.301   3.789   9.882  0.5245 -0.2793 -0.6453
  510MOL0     C67227   7.422   3.751   9.809 -0.1331 -0.6819  0.2825
  510MOL0     C67228   7.542   3.767   9.906  0.4191 -0.4122  0.0749
  510MOL0     C67229   7.669   3.775   9.833  0.8946 -0.2591  0.4452
  510MOL0     C67230   7.708   3.641   9.767  0.7606 -0.3409  0.1711
  510MOL0     C67231   7.842   3.652   9.697 -0.0631  0.6199  0.1250
  510MOL0    Cl67232   7.969   3.751   9.769  0.7458  0.3886  0.3349
  510MOL0     C67233   6.688   3.811   9.767 -0.0649 -0.2518 -1.7402
  510MOL0     C67234   6.561   3.853   9.809 -0.4843 -0.1590 -0.2058
  510MOL0     O67235   6.482   4.174   9.792  0.3357  0.6227  0.1052
  510MOL0     C67236   6.172   4.110   9.951 -1.0259 -0.5297 -0.1336
  510MOL0     C67237   6.040   4.159   9.967 -0.7145 -0.5908  0.0676
  510MOL0     N67238   5.941   4.784  10.398 -0.4376  0.0020 -0.6233
  510MOL0     N67239   5.896   4.887  10.456 -0.8243  0.0654  0.1027
  510MOL0     C67240   5.747   5.786  10.269 -0.2264  0.4422 -0.4539
  510MOL0     C67241   5.681   5.766  10.150 -0.1013  0.1236  0.4979
  510MOL0     C67242   5.620   5.624   9.731 -0.1747 -0.0575  0.8463
  510MOL0     C67243   5.622   5.491   9.684  0.6329  1.8201  0.3400
  510MOL0     C67244   5.600   5.462   9.551 -0.0693  0.4267  0.1093
  510MOL0     C67245   5.563   5.566   9.464  0.1623 -0.0333  0.2775
  510MOL0     O67246   5.549   5.557   9.332 -0.2302 -0.1768 -0.6683
  510MOL0     C67247   5.565   5.427   9.282 -0.1397 -0.1083  0.2217
  510MOL0     C67248   5.545   5.439   9.134 -0.3948  0.1589  0.0735
  510MOL0     C67249   5.579   5.306   9.063  0.2225 -0.7998  0.1334
  510MOL0     C67250   5.492   5.261   8.954 -0.6957 -0.2500  0.2996
  510MOL0     C67251   5.483   5.361   8.847  0.1298 -0.1353  0.5242
  510MOL0     C67252   5.464   5.458   8.770  0.5869  0.3805  0.4831
  510MOL0     C67253   5.555   5.699   9.514 -0.7019  1.1030 -0.0730
  510MOL0     C67254   5.591   5.725   9.643 -0.3684 -0.1667  1.0866
  510MOL0     H67255   5.893   5.923   9.949 -0.9459  1.8787  0.1908
  510MOL0     H67256   6.023   5.947  10.155  0.0977 -0.3252 -2.0476
  510MOL0     H67257   6.130   5.821  10.489  0.1036  2.8488 -0.1291
  510MOL0     H67258   6.140   5.832  10.317  4.6650 -3.4111  1.2081
  510MOL0     H67259   6.007   5.593  10.416 -0.3784 -1.3088 -5.3366
  510MOL0     H67260   6.183   5.591  10.432  0.2306  0.9189 -0.8027
  510MOL0     H67261   6.221   5.659  10.218  0.8628 -0.5429  2.6149
  510MOL0     H67262   6.050   5.656  10.175  0.1007  2.1948  0.5287
  510MOL0     H67263   6.170   5.438  10.103 -0.9511 -1.6073  0.0158
  510MOL0     H67264   6.211   5.408  10.276 -0.4229  3.4043  2.2382
  510MOL0     H67265   5.982   5.349  10.126  2.7349  1.0968 -2.1625
  510MOL0     H67266   5.928   5.474  10.238  2.7922  0.2851  2.9937
  510MOL0     H67267   6.003   5.303  10.420  1.0943 -0.9496  0.1043
  510MOL0     H67268   6.053   5.189  10.300  0.0413  0.4830 -0.5662
  510MOL0     H67269   5.772   5.311  10.332 -0.0682  1.0653 -3.0234
  510MOL0     H67270   5.808   5.202  10.194  1.0757  1.1621  0.6907
  510MOL0     H67271   5.690   5.091  10.384 -0.7777 -2.0448  0.0751
  510MOL0     H67272   5.819   5.128  10.486  0.6117  1.0422 -1.1863
  510MOL0     H67273   5.841   4.951  10.134 -0.4097 -2.8515 -1.1984
  510MOL0     H67274   6.070   4.651  10.186  0.3172 -1.5543 -2.3778
  510MOL0     H67275   5.967   4.716  10.063 -2.5694  3.0354  0.6967
  510MOL0     H67276   5.768   4.614  10.157 -1.6946 -2.9918  1.5729
  510MOL0     H67277   5.856   4.564  10.304 -0.4015 -0.6017 -0.6763
  510MOL0     H67278   5.976   4.406  10.169 -0.8042 -1.1793  0.8287
  510MOL0     H67279   5.808   4.367  10.170 -2.3790  1.8362  0.0100
  510MOL0     H67280   5.913   4.528   9.933  1.4670 -2.8250 -1.9625
  510MOL0     H67281   5.752   4.471   9.964 -0.6969 -0.6169 -4.0664
  510MOL0     H67282   6.081   4.434   9.767  0.8825  0.8537  0.5591
  510MOL0     H67283   6.313   4.338   9.736  0.6853  2.1490  3.2333
  510MOL0     H67284   6.661   4.041  10.072  0.5427  0.0120  0.3839
  510MOL0     H67285   6.875   3.950  10.005  0.8526  0.0333 -2.2887
  510MOL0     H67286   7.034   3.728   9.938  1.7538 -0.4343  0.1194
  510MOL0     H67287   7.058   3.903   9.901  2.5339 -1.7963  1.8082
  510MOL0     H67288   7.184   3.836   9.694  1.7041  0.2091 -1.3800
  510MOL0     H67289   7.164   3.665   9.760  2.7799  0.1807  3.9868
  510MOL0     H67290   7.281   3.724   9.967 -2.1192  0.4354 -0.6274
  510MOL0     H67291   7.309   3.892   9.918 -3.1741 -0.0836  0.0063
  510MOL0     H67292   7.424   3.651   9.764 -3.2627 -2.7597  4.1788
  510MOL0     H67293   7.435   3.832   9.737  1.1600 -0.6289  0.5577
  510MOL0     H67294   7.542   3.689   9.982  3.0501  0.2507  0.8544
  510MOL0     H67295   7.524   3.862   9.958 -0.4967 -0.5519  0.0276
  510MOL0     H67296   7.754   3.802   9.897  1.4840  2.2152 -1.2429
  510MOL0     H67297   7.658   3.850   9.754  0.6362  0.6350  1.3251
  510MOL0     H67298   7.711   3.560   9.840 -0.5007 -0.7019 -0.1680
  510MOL0     H67299   7.636   3.618   9.688  3.0312  0.8684 -2.4604
  510MOL0     H67300   7.826   3.697   9.599 -2.0915 -0.9214 -0.3134
  510MOL0     H67301   7.881   3.551   9.679 -2.6690 -0.1206 -2.0878
  510MOL0     H67302   6.699   3.756   9.674  2.1578 -0.6184 -1.3334
  510MOL0     H67303   6.473   3.838   9.746 -2.3220  1.1684  1.9094
  510MOL0     H67304   6.192   4.023  10.013  1.2272 -1.0583 -1.5001
  510MOL0     H67305   5.968   4.092  10.012 -1.6793 -0.8801 -1.8079
  510MOL0     H67306   5.687   5.770  10.358  2.1917  0.0115  1.2134
  510MOL0     H67307   5.587   5.711  10.155 -2.3526  3.5878  0.2073
  510MOL0     H67308   5.646   5.410   9.752 -1.8494 -1.4396 -2.3654
  510MOL0     H67309   5.621   5.360   9.521 -0.3646  1.2977 -3.5313
  510MOL0     H67310   5.487   5.361   9.319 -0.3436  0.1958  0.3415
  510MOL0     H67311   5.664   5.386   9.302 -0.8685 -1.0218  2.2615
  510MOL0     H67312   5.442   5.465   9.109 -0.1084  1.5637  0.2911
  510MOL0     H67313   5.611   5.514   9.090 -0.7980  0.9670  0.8224
  510MOL0     H67314   5.586   5.226   9.137  0.9452 -0.5056  0.3983
  510MOL0     H67315   5.683   5.316   9.029  0.6281  0.6768  1.6315
  510MOL0     H67316   5.521   5.164   8.912  1.8503 -0.7625  2.8981
  510MOL0     H67317   5.393   5.246   8.998 -2.0797 -1.0360 -2.8226
  510MOL0     H67318   5.444   5.548   8.716 -0.5105  0.0545  0.3291
  510MOL0     H67319   5.509   5.770   9.447  1.4137  1.0310 -1.6969
  510MOL0     H67320   5.600   5.826   9.684  0.3823  0.5666 -0.8028
  511MOL0     O67321   1.869  10.024   6.531  0.2107 -0.4727 -0.0214
  511MOL0     C67322   1.914   9.921   6.481 -1.1040 -0.1725  0.2310
  511MOL0     O67323   1.854   9.831   6.406 -0.1665 -0.2838 -0.1878
  511MOL0     C67324   1.716   9.825   6.385 -0.5204  0.3981  0.0145
  511MOL0     C67325   1.619   9.918   6.412 -0.6343 -0.5066  0.5332
  511MOL0     C67326   1.488   9.888   6.359 -0.3105  0.1169 -0.4530
  511MOL0     C67327   1.452   9.767   6.294  0.0027  0.0823  0.4899
  511MOL0     O67328   1.324   9.722   6.257 -0.1410  0.0485 -0.8295
  511MOL0     C67329   1.298   9.638   6.141  0.5011 -0.1407 -0.1508
  511MOL0     C67330   1.175   9.693   6.072  0.3175 -0.2709  0.0761
  511MOL0     C67331   1.042   9.716   6.146  0.1641  0.5061  0.1637
  511MOL0     C67332   0.973   9.591   6.204 -0.0173  0.5241  0.4152
  511MOL0     C67333   0.940   9.493   6.091 -0.2523  0.3821 -1.0213
  511MOL0     C67334   0.874   9.363   6.139  0.2131  0.4322  0.5885
  511MOL0     C67335   0.755   9.374   6.226  0.4977  0.4584 -0.2164
  511MOL0     C67336   0.728   9.229   6.284  0.0840 -1.2870  0.5070
  511MOL0     N67337   0.595   9.223   6.350  0.1515  0.1117 -0.2883
  511MOL0     C67338   0.515   9.324   6.411  0.7014 -0.1072  0.2340
  511MOL0     C67339   0.394   9.264   6.441 -0.8724 -0.2376  0.2972
  511MOL0     C67340   0.267   9.329   6.494 -0.2532  0.0440 -1.1643
  511MOL0     C67341   0.188   9.249   6.592 -0.0637  0.9955  0.5314
  511MOL0     C67342   0.053   9.307   6.620 -0.5128 -0.4384  0.1226
  511MOL0     C67343  -0.016   9.251   6.740  0.3091 -0.3214 -0.1923
  511MOL0     O67344  -0.002   9.111   6.753  1.3876  0.4189 -0.8019
  511MOL0     C67345   0.075   9.052   6.845 -0.4309 -0.1564 -0.3792
  511MOL0     C67346   0.087   8.917   6.839  0.8503  1.1833  0.4853
  511MOL0     C67347   0.150   8.849   6.935  0.0595 -0.2314  0.7911
  511MOL0     C67348   0.215   8.919   7.038  0.8630  0.4809  1.1283
  511MOL0     C67349   0.286   8.841   7.143  0.3986  0.2325  0.5257
  511MOL0     O67350   0.292   8.715   7.119  0.6653  0.5953  0.6522
  511MOL0     C67351   0.381   8.644   7.191  0.0400  0.7964 -0.6627
  511MOL0     C67352   0.484   8.587   7.119  0.1685 -0.4411  0.1626
  511MOL0     C67353   0.573   8.504   7.181  0.6981  0.2506  0.5868
  511MOL0     C67354   0.546   8.457   7.313 -0.2724 -1.0388 -0.0706
  511MOL0     O67355   0.611   8.347   7.362  0.4954 -0.0998 -0.0766
  511MOL0     C67356   0.730   8.381   7.436  0.9836 -0.1240  0.4765
  511MOL0     C67357   0.816   8.266   7.486  0.1746 -0.9143  0.6882
  511MOL0     C67358   0.865   8.170   7.366 -0.0085  0.2678  0.2654
  511MOL0     C67359   0.872   8.030   7.416 -0.9291 -0.9930  0.1360
  511MOL0     C67360   0.897   7.934   7.300 -0.3165 -0.0681  0.0794
  511MOL0     C67361   0.773   7.878   7.223 -0.1667 -0.8045 -0.8606
  511MOL0     C67362   0.829   7.827   7.090  0.3039  0.2273  0.1675
  511MOL0     C67363   0.867   7.679   7.085  0.0597 -0.3823  0.4979
  511MOL0    Cl67364   0.730   7.560   7.113 -0.1821 -0.2816  0.0955
  511MOL0     C67365   0.454   8.530   7.392  0.2038 -0.0956 -0.8593
  511MOL0     C67366   0.372   8.623   7.329 -0.1289  0.0033  0.3656
  511MOL0     O67367   0.331   8.896   7.241 -0.0858 -0.4756  0.5421
  511MOL0     C67368   0.213   9.063   7.046 -1.0011  0.0281 -0.6426
  511MOL0     C67369   0.154   9.123   6.936  0.8889 -1.3360 -0.7593
  511MOL0     N67370   0.397   9.138   6.384  0.1498  0.6447  0.3362
  511MOL0     N67371   0.515   9.116   6.340 -0.1531  0.5641  0.1628
  511MOL0     C67372   1.555   9.673   6.282 -1.2272  0.3324  0.4149
  511MOL0     C67373   1.689   9.704   6.323  0.6924 -0.4538  0.7486
  511MOL0     C67374   2.056   9.886   6.517  0.1379 -0.2883  0.6966
  511MOL0     C67375   2.142   9.976   6.578  0.1324 -0.1033 -0.7081
  511MOL0     C67376   2.267   9.938   6.618  0.8329  0.2766 -0.4756
  511MOL0     C67377   2.328   9.820   6.582 -0.0405  0.8325  0.0607
  511MOL0     O67378   2.460   9.776   6.600 -0.8639 -0.3401  0.4757
  511MOL0     C67379   2.528   9.831   6.713  0.2223 -0.3529  0.1673
  511MOL0     C67380   2.664   9.747   6.733 -1.0534  0.4653 -0.9501
  511MOL0     C67381   2.656   9.601   6.782  0.9457 -0.3724  0.8255
  511MOL0     C67382   2.791   9.557   6.847  0.9939 -0.9611 -0.4887
  511MOL0     C67383   2.822   9.637   6.966 -0.2186  0.3620  0.0597
  511MOL0     C67384   2.856   9.692   7.062 -0.9091  0.5789  0.2753
  511MOL0     C67385   2.241   9.727   6.522 -0.2926 -0.3710  0.4671
  511MOL0     C67386   2.109   9.754   6.485  0.2032 -0.3545  0.0045
  511MOL0     H67387   1.635  10.008   6.469  0.3120 -1.3447  1.6358
  511MOL0     H67388   1.412   9.963   6.381  1.1161  1.0497  1.8010
  511MOL0     H67389   1.278   9.542   6.188 -2.0106  0.8981  1.0407
  511MOL0     H67390   1.390   9.654   6.083  1.4074  2.0743  1.7262
  511MOL0     H67391   1.141   9.626   5.992 -1.8283  2.9373 -1.9165
  511MOL0     H67392   1.210   9.784   6.022 -3.0026  0.5870 -0.9237
  511MOL0     H67393   0.974   9.760   6.072 -0.9237 -0.1795  0.7096
  511MOL0     H67394   1.066   9.779   6.232  4.5691  0.4652 -0.8452
  511MOL0     H67395   1.042   9.545   6.275  0.8340  0.9551 -0.1263
  511MOL0     H67396   0.888   9.615   6.269 -0.5037  1.6710 -0.6114
  511MOL0     H67397   1.036   9.461   6.047  0.9755  0.4477  1.4181
  511MOL0     H67398   0.878   9.542   6.016  1.4090 -2.1602 -4.3201
  511MOL0     H67399   0.955   9.302   6.181 -0.1917 -1.4677 -1.1972
  511MOL0     H67400   0.823   9.309   6.059  2.0301 -1.7547  0.7979
  511MOL0     H67401   0.791   9.435   6.310  2.1372  1.0114 -1.2894
  511MOL0     H67402   0.670   9.414   6.170 -0.0795 -3.6448 -2.6698
  511MOL0     H67403   0.802   9.197   6.358  2.8713  2.0602 -0.5566
  511MOL0     H67404   0.723   9.160   6.200 -0.6277 -2.5563  1.5560
  511MOL0     H67405   0.541   9.429   6.425  3.2751 -0.2903 -2.1723
  511MOL0     H67406   0.205   9.360   6.409  0.7970  1.4585 -1.4634
  511MOL0     H67407   0.305   9.415   6.550  0.5629  0.1814 -1.8982
  511MOL0     H67408   0.244   9.251   6.687 -0.7436 -1.9001  1.1040
  511MOL0     H67409   0.177   9.147   6.554  1.5505  1.7898 -2.3080
  511MOL0     H67410   0.055   9.416   6.631  2.5081 -0.4427  0.4643
  511MOL0     H67411  -0.006   9.282   6.531  0.1322  0.3913 -0.5508
  511MOL0     H67412  -0.123   9.274   6.729 -0.0934 -0.6790  2.2080
  511MOL0     H67413   0.005   9.316   6.826  1.6324 -1.2480  0.2133
  511MOL0     H67414   0.039   8.854   6.765  3.4761 -2.9382  1.9224
  511MOL0     H67415   0.146   8.741   6.921 -1.8936 -0.2602  1.1967
  511MOL0     H67416   0.494   8.612   7.014  0.7578 -3.6046 -0.6596
  511MOL0     H67417   0.645   8.464   7.110 -2.1099 -0.9282 -1.7908
  511MOL0     H67418   0.708   8.421   7.536  4.2677  3.6568 -0.0882
  511MOL0     H67419   0.786   8.459   7.385  0.0176  2.6555  3.3464
  511MOL0     H67420   0.766   8.208   7.564 -1.9147  0.4128  0.4042
  511MOL0     H67421   0.901   8.321   7.528 -1.3582  0.7841  1.6776
  511MOL0     H67422   0.962   8.204   7.327 -0.7561  1.6289 -0.4699
  511MOL0     H67423   0.797   8.176   7.280 -1.2169 -0.9981  1.0921
  511MOL0     H67424   0.956   8.022   7.485  0.7941 -0.5954 -1.8304
  511MOL0     H67425   0.778   8.003   7.466 -1.2003  0.1576  0.2716
  511MOL0     H67426   0.954   7.849   7.338  2.5412 -0.7544 -4.8412
  511MOL0     H67427   0.965   7.977   7.226 -2.3943 -0.0166 -1.9347
  511MOL0     H67428   0.704   7.959   7.199 -1.8288 -1.8538  0.1184
  511MOL0     H67429   0.724   7.800   7.282 -1.6507  0.8664  0.2119
  511MOL0     H67430   0.745   7.844   7.022 -1.0130 -2.5513  0.9235
  511MOL0     H67431   0.917   7.884   7.061  0.5695 -0.9549 -1.4898
  511MOL0     H67432   0.950   7.652   7.151  2.3930 -1.4392 -2.6250
  511MOL0     H67433   0.902   7.668   6.982 -1.2952 -1.6370  0.1496
  511MOL0     H67434   0.428   8.501   7.493  1.8532  1.9551  0.2338
  511MOL0     H67435   0.291   8.669   7.385  2.2248  5.1448  0.0931
  511MOL0     H67436   0.261   9.110   7.131  1.8673 -0.4301 -1.9200
  511MOL0     H67437   0.156   9.232   6.932  0.6466 -1.1859  1.5364
  511MOL0     H67438   1.545   9.569   6.255  0.7555 -0.0832  1.0650
  511MOL0     H67439   1.771   9.633   6.323  1.4671  0.4221  0.5586
  511MOL0     H67440   2.107  10.074   6.609 -1.5924 -0.0292 -2.6252
  511MOL0     H67441   2.327  10.010   6.673  3.2247 -2.1479  0.3029
  511MOL0     H67442   2.463   9.836   6.801  1.3155 -0.5004  1.0126
  511MOL0     H67443   2.562   9.928   6.674  1.6735 -2.0620 -3.1687
  511MOL0     H67444   2.702   9.733   6.631 -0.5168 -0.2391 -0.6564
  511MOL0     H67445   2.739   9.798   6.794  0.7693 -2.4039 -0.6179
  511MOL0     H67446   2.626   9.531   6.703 -1.8208 -0.5974  1.9408
  511MOL0     H67447   2.576   9.596   6.857  1.7278 -3.3623  1.5733
  511MOL0     H67448   2.786   9.451   6.872 -0.7126 -1.0876 -1.2176
  511MOL0     H67449   2.868   9.576   6.771 -2.3481  3.2951 -3.2925
  511MOL0     H67450   2.885   9.751   7.147 -2.1903  2.6849 -0.6583
  511MOL0     H67451   2.284   9.631   6.497 -0.7376 -0.1606 -1.2690
  511MOL0     H67452   2.043   9.674   6.453 -0.2946 -0.5828  1.5104
  512MOL0     O67453  10.369   3.474   7.341 -0.3428 -0.3875  0.9473
  512MOL0     C67454  10.389   3.459   7.460 -0.9385  0.9889 -0.1723
  512MOL0     O67455  10.298   3.468   7.565  0.4933  0.3258  0.6483
  512MOL0     C67456  10.167   3.449   7.530 -0.5086 -0.1076 -0.2789
  512MOL0     C67457  10.122   3.328   7.573  0.3609 -0.5415  0.0926
  512MOL0     C67458   9.984   3.303   7.570 -0.5544  0.3042  0.3549
  512MOL0     C67459   9.902   3.387   7.500  0.2498 -0.7795 -0.3046
  512MOL0     O67460   9.767   3.369   7.496  0.3008 -0.4911 -0.3632
  512MOL0     C67461   9.722   3.319   7.368  0.5857 -0.0903  0.1112
  512MOL0     C67462   9.578   3.353   7.352  0.5779 -0.0262 -1.1335
  512MOL0     C67463   9.536   3.291   7.225 -0.7347  1.1067  0.1268
  512MOL0     C67464   9.406   3.345   7.166  0.0974 -0.5859  0.1607
  512MOL0     C67465   9.281   3.267   7.220 -0.1818 -0.7381 -0.3606
  512MOL0     C67466   9.163   3.346   7.164  0.1543 -0.7635  0.4058
  512MOL0     C67467   9.032   3.287   7.211  0.2499  0.0959  0.4120
  512MOL0     C67468   8.920   3.376   7.173 -0.5810  1.0149  0.1525
  512MOL0     N67469   8.786   3.313   7.215  0.2013 -0.0790  0.2146
  512MOL0     C67470   8.717   3.228   7.143 -0.1397 -0.0873 -0.0566
  512MOL0     C67471   8.594   3.227   7.206 -0.3692 -0.4933 -0.6608
  512MOL0     C67472   8.468   3.154   7.177  0.4562 -0.9679 -1.1112
  512MOL0     C67473   8.336   3.235   7.188  0.0753  0.3424  0.6443
  512MOL0     C67474   8.299   3.289   7.044  0.3019 -0.1719 -0.4035
  512MOL0     C67475   8.176   3.377   7.058 -0.4691 -0.4546  0.3925
  512MOL0     O67476   8.152   3.443   6.939 -0.5632 -0.4510  0.7616
  512MOL0     C67477   8.045   3.511   6.914 -0.5005  0.4878 -0.9138
  512MOL0     C67478   7.948   3.547   7.017  0.0652  0.6404  0.4497
  512MOL0     C67479   7.848   3.641   6.985  0.4500  0.7588 -0.0507
  512MOL0     C67480   7.841   3.702   6.858 -0.3485  1.1012 -0.4058
  512MOL0     C67481   7.731   3.795   6.825 -0.0241 -0.5769  1.3888
  512MOL0     O67482   7.763   3.884   6.732  0.6873 -0.2066  0.1574
  512MOL0     C67483   7.674   3.982   6.687 -0.4441  0.1389 -0.1644
  512MOL0     C67484   7.628   4.075   6.783  0.6548  0.1175 -0.0070
  512MOL0     C67485   7.551   4.180   6.744  0.5501  0.1906 -0.0057
  512MOL0     C67486   7.514   4.199   6.605 -0.5497 -0.8773 -0.4721
  512MOL0     O67487   7.446   4.306   6.550  0.0244  0.0166  0.0390
  512MOL0     C67488   7.398   4.409   6.627  0.0576  0.4710 -0.5647
  512MOL0     C67489   7.296   4.470   6.542 -0.4268  0.1175 -1.0448
  512MOL0     C67490   7.238   4.580   6.625  0.8602  0.1504  0.6409
  512MOL0     C67491   7.123   4.652   6.554 -0.9291 -0.2739  0.9672
  512MOL0     C67492   7.061   4.778   6.619 -0.4790 -0.1138  0.9126
  512MOL0     C67493   7.148   4.819   6.744 -0.5372 -0.6749  0.1022
  512MOL0     C67494   7.087   4.934   6.823  0.2892 -0.3111  0.4716
  512MOL0     C67495   7.141   4.951   6.957 -0.0273 -0.1332  0.0636
  512MOL0    Cl67496   7.069   5.107   7.030 -0.1282 -0.0383 -0.9400
  512MOL0     C67497   7.564   4.111   6.514  0.1612  0.5714 -0.7522
  512MOL0     C67498   7.631   3.996   6.561 -0.9428  0.0252  0.4652
  512MOL0     O67499   7.635   3.793   6.899  0.4730 -0.4484  0.6249
  512MOL0     C67500   7.937   3.676   6.763 -0.1152 -0.5079  0.7524
  512MOL0     C67501   8.035   3.576   6.786  0.0828  0.5301 -0.0599
  512MOL0     N67502   8.608   3.310   7.317 -0.2392  0.1142  0.0950
  512MOL0     N67503   8.721   3.354   7.324 -0.4801  0.7664 -0.2834
  512MOL0     C67504   9.956   3.510   7.450  0.0932 -0.1420 -0.9085
  512MOL0     C67505  10.085   3.549   7.471 -0.0412  0.6423 -0.1647
  512MOL0     C67506  10.525   3.402   7.499 -0.0510  0.2753 -0.4688
  512MOL0     C67507  10.633   3.385   7.406 -0.2307  0.0682 -0.6885
  512MOL0     C67508  10.768   3.361   7.451 -0.2110 -0.2702 -0.3772
  512MOL0     C67509  10.781   3.327   7.588  0.0337  0.0051  0.5840
  512MOL0     O67510  10.904   3.274   7.621 -0.6112  0.3178 -0.6482
  512MOL0     C67511  10.925   3.275   7.759  0.3235  0.4120  0.7150
  512MOL0     C67512  11.073   3.263   7.784 -0.2913 -0.0904  0.0243
  512MOL0     C67513  11.106   3.276   7.932  0.6648  0.0348  0.3707
  512MOL0     C67514  11.024   3.188   8.023  0.5320  0.5513 -0.0665
  512MOL0     C67515  11.108   3.128   8.123 -0.5096 -0.6895  0.3138
  512MOL0     C67516  11.161   3.081   8.223  0.0401  0.7036 -0.3118
  512MOL0     C67517  10.667   3.333   7.678  0.3403  0.5422  0.5712
  512MOL0     C67518  10.541   3.372   7.630 -0.1363 -0.2323 -0.2334
  512MOL0     H67519  10.194   3.255   7.608  1.3817  0.6652  0.5839
  512MOL0     H67520   9.955   3.209   7.617  4.1934 -1.2950  0.6018
  512MOL0     H67521   9.745   3.213   7.360 -0.1282 -0.1079 -2.7563
  512MOL0     H67522   9.785   3.363   7.290  3.0591 -0.4166  1.7994
  512MOL0     H67523   9.563   3.461   7.350 -0.4945  0.0371  2.7055
  512MOL0     H67524   9.520   3.313   7.436  1.7468 -0.3634 -0.4505
  512MOL0     H67525   9.551   3.182   7.227 -0.5256  1.0723  3.6458
  512MOL0     H67526   9.599   3.329   7.144 -2.1234  1.8999 -0.6042
  512MOL0     H67527   9.400   3.453   7.183  1.4297  0.2106 -3.4667
  512MOL0     H67528   9.401   3.332   7.058 -3.3437 -0.0958  0.1558
  512MOL0     H67529   9.275   3.268   7.329  3.2297  3.9791  0.0712
  512MOL0     H67530   9.290   3.170   7.169 -2.0504 -0.1891 -1.8277
  512MOL0     H67531   9.171   3.332   7.056 -2.4673 -1.5611  0.2531
  512MOL0     H67532   9.172   3.454   7.178  1.0783 -1.0159  1.9506
  512MOL0     H67533   9.016   3.187   7.169  3.2479  0.2583 -1.4396
  512MOL0     H67534   9.037   3.289   7.320 -2.0583 -2.7820  0.7108
  512MOL0     H67535   8.929   3.377   7.064 -0.8366 -0.9976  0.0814
  512MOL0     H67536   8.927   3.482   7.201 -0.3207  1.3829 -1.2102
  512MOL0     H67537   8.739   3.180   7.048 -0.5800 -0.7182  0.1540
  512MOL0     H67538   8.466   3.077   7.255  2.4714  0.6661  0.6855
  512MOL0     H67539   8.470   3.097   7.084  0.5500 -1.8672 -0.5676
  512MOL0     H67540   8.335   3.311   7.266 -1.0775  1.0047  0.0161
  512MOL0     H67541   8.258   3.162   7.210  0.1557 -0.5318 -1.6739
  512MOL0     H67542   8.377   3.349   6.996 -0.0064 -1.0774 -2.1255
  512MOL0     H67543   8.269   3.207   6.977 -0.3182  0.9661 -1.5552
  512MOL0     H67544   8.199   3.452   7.135  1.4670 -1.5597  0.9742
  512MOL0     H67545   8.093   3.314   7.092 -1.8731  1.5608  0.8948
  512MOL0     H67546   7.951   3.501   7.115 -0.7315  0.7843  0.5508
  512MOL0     H67547   7.772   3.650   7.062  0.6371  2.8990 -0.0326
  512MOL0     H67548   7.650   4.063   6.889 -1.6942  0.0647  0.5348
  512MOL0     H67549   7.514   4.252   6.816 -0.0099 -0.7340  0.6544
  512MOL0     H67550   7.484   4.475   6.643 -1.6590  2.2217  2.1945
  512MOL0     H67551   7.356   4.377   6.723  0.9544  1.5691  0.2294
  512MOL0     H67552   7.217   4.396   6.525  0.4154 -2.0018  2.9529
  512MOL0     H67553   7.343   4.500   6.448  1.7679  2.5274  0.6739
  512MOL0     H67554   7.322   4.649   6.639  1.0384 -0.3105  1.9807
  512MOL0     H67555   7.210   4.547   6.725  0.5032 -1.9000 -0.1006
  512MOL0     H67556   7.171   4.681   6.460 -0.1506  0.3619  1.5521
  512MOL0     H67557   7.038   4.589   6.526 -1.5083  1.4956 -1.6269
  512MOL0     H67558   6.958   4.751   6.644 -1.5431  1.4940 -1.3354
  512MOL0     H67559   7.065   4.857   6.543 -0.3884  0.7150  1.7497
  512MOL0     H67560   7.246   4.854   6.710  0.6036 -0.5587  3.1498
  512MOL0     H67561   7.159   4.735   6.813 -1.8788 -1.4064 -0.5405
  512MOL0     H67562   7.119   5.025   6.772  0.3641 -0.4980  0.1818
  512MOL0     H67563   6.978   4.920   6.813  0.5498 -1.9653 -0.4517
  512MOL0     H67564   7.250   4.946   6.972 -0.3889 -1.3650  3.0360
  512MOL0     H67565   7.116   4.862   7.015 -0.2632 -1.2162 -1.6342
  512MOL0     H67566   7.543   4.120   6.408 -0.4478  1.8738 -0.5522
  512MOL0     H67567   7.660   3.921   6.488  2.2921  2.3058 -0.8268
  512MOL0     H67568   7.940   3.729   6.669 -0.4629 -2.5698 -0.4746
  512MOL0     H67569   8.093   3.549   6.699 -2.7054  3.4251 -3.0753
  512MOL0     H67570   9.893   3.586   7.404 -1.0252 -0.0086  0.7055
  512MOL0     H67571  10.105   3.652   7.446  0.3222  0.7180  0.4237
  512MOL0     H67572  10.616   3.414   7.303 -1.3457  1.5306 -0.1246
  512MOL0     H67573  10.856   3.353   7.388  0.2668  1.9134 -0.0833
  512MOL0     H67574  10.872   3.193   7.809 -1.0403  2.3472  2.6296
  512MOL0     H67575  10.886   3.366   7.805 -0.2876 -0.0213  1.0821
  512MOL0     H67576  11.122   3.176   7.738  0.2597  0.5618 -0.6487
  512MOL0     H67577  11.112   3.352   7.734 -4.9669  1.8482 -0.6271
  512MOL0     H67578  11.102   3.384   7.942  0.2595  0.0093  0.5312
  512MOL0     H67579  11.214   3.261   7.942  1.0512  0.9102 -1.8564
  512MOL0     H67580  10.947   3.248   8.073 -1.4995 -2.3874  0.5744
  512MOL0     H67581  10.970   3.106   7.974 -0.8084  2.0846 -1.2541
  512MOL0     H67582  11.209   3.047   8.313 -2.0961  1.1383  1.0527
  512MOL0     H67583  10.670   3.305   7.782  0.0215  2.9134  1.2703
  512MOL0     H67584  10.458   3.369   7.701 -0.3626  1.2936 -0.4033
  513MOL0     O67585   1.342   1.129   7.681 -0.3884 -0.1563  0.2997
  513MOL0     C67586   1.444   1.059   7.678  0.4954  0.4369 -0.1112
  513MOL0     O67587   1.562   1.088   7.613 -0.2151  0.0008 -0.3979
  513MOL0     C67588   1.574   1.198   7.527 -0.4600 -0.1254 -0.3220
  513MOL0     C67589   1.492   1.218   7.417 -0.0578  0.7448 -0.7024
  513MOL0     C67590   1.501   1.333   7.341  0.1431  0.3093  0.1515
  513MOL0     C67591   1.608   1.421   7.360  1.5121 -0.1726 -0.6457
  513MOL0     O67592   1.614   1.540   7.280  0.3466  0.0640 -0.3172
  513MOL0     C67593   1.707   1.638   7.323  0.5473 -0.1251  0.1134
  513MOL0     C67594   1.689   1.763   7.234 -0.6202  0.3188 -0.4248
  513MOL0     C67595   1.825   1.849   7.256 -0.6144 -0.2585  0.5275
  513MOL0     C67596   1.832   1.968   7.151 -0.8164 -0.3098  0.3095
  513MOL0     C67597   1.947   2.072   7.175 -0.4508 -0.3636 -0.0294
  513MOL0     C67598   1.956   2.185   7.073  0.1818  0.1569 -0.2470
  513MOL0     C67599   1.895   2.316   7.119  0.4756 -0.1280 -0.1287
  513MOL0     C67600   1.893   2.398   6.996  0.5232  0.0843 -0.4878
  513MOL0     N67601   2.034   2.435   6.961  0.8408  0.0305 -0.2327
  513MOL0     C67602   2.111   2.384   6.858  0.0412  0.5893 -0.0226
  513MOL0     C67603   2.233   2.439   6.881  1.4436  0.2017  0.2005
  513MOL0     C67604   2.344   2.424   6.791 -0.0265  0.0390  0.4456
  513MOL0     C67605   2.358   2.545   6.688  0.7839 -0.2516  0.0176
  513MOL0     C67606   2.226   2.558   6.589  0.4208  0.4400  0.6340
  513MOL0     C67607   2.246   2.674   6.491  1.1512  0.4700  0.4230
  513MOL0     O67608   2.319   2.625   6.380 -0.0994  0.4651  0.1585
  513MOL0     C67609   2.272   2.644   6.253  1.0595  0.1968  0.1802
  513MOL0     C67610   2.252   2.774   6.208 -0.1139 -0.0989  1.0157
  513MOL0     C67611   2.209   2.808   6.081 -0.5896 -0.5696  0.3690
  513MOL0     C67612   2.178   2.710   5.991  0.7992 -0.7784  0.2163
  513MOL0     C67613   2.136   2.754   5.856  0.2080  0.2219 -1.1167
  513MOL0     O67614   2.084   2.880   5.841  0.7372  0.0188 -0.5586
  513MOL0     C67615   2.136   2.940   5.730  0.8049 -0.5756 -0.2555
  513MOL0     C67616   2.058   2.971   5.611 -0.7630  0.5634 -0.0276
  513MOL0     C67617   2.124   3.048   5.510 -0.0445  0.3401 -0.1874
  513MOL0     C67618   2.262   3.086   5.534  0.6866  0.0221  0.9765
  513MOL0     O67619   2.310   3.156   5.425 -0.3529  0.3870  0.8721
  513MOL0     C67620   2.456   3.189   5.428 -1.2922  0.0004 -0.4335
  513MOL0     C67621   2.491   3.255   5.292 -0.9028  0.3519  1.3228
  513MOL0     C67622   2.634   3.292   5.286  0.2128 -0.4998  0.1960
  513MOL0     C67623   2.650   3.323   5.143 -1.3621 -0.1166  0.3135
  513MOL0     C67624   2.784   3.391   5.123  0.2890 -0.8282  0.5392
  513MOL0     C67625   2.772   3.489   5.011  1.0760 -0.4687  0.0154
  513MOL0     C67626   2.884   3.590   5.001  0.6018  0.3063  0.3853
  513MOL0     C67627   3.023   3.525   4.984 -0.3054 -0.3950  0.2787
  513MOL0    Cl67628   3.129   3.656   4.917 -0.1314 -0.0662 -0.0743
  513MOL0     C67629   2.335   3.053   5.644  0.2070  0.5847  0.1509
  513MOL0     C67630   2.265   2.986   5.750 -1.3674  0.4901  0.2129
  513MOL0     O67631   2.137   2.669   5.765 -0.4966  0.1842  0.0835
  513MOL0     C67632   2.165   2.579   6.041 -0.7760  0.2287  0.1502
  513MOL0     C67633   2.220   2.542   6.168 -0.7326  0.6117  0.3488
  513MOL0     N67634   2.231   2.519   6.993  0.3471 -0.0212  0.8919
  513MOL0     N67635   2.110   2.516   7.034  0.1734 -0.5886 -0.2014
  513MOL0     C67636   1.696   1.391   7.463  0.6295  1.2480 -0.6120
  513MOL0     C67637   1.683   1.282   7.548  0.1017 -0.0244 -0.7918
  513MOL0     C67638   1.447   0.940   7.770 -0.3419  0.0676  0.7790
  513MOL0     C67639   1.557   0.850   7.768  0.2931  0.4756 -0.3405
  513MOL0     C67640   1.575   0.755   7.866 -0.2514  0.1477 -0.5331
  513MOL0     C67641   1.478   0.739   7.969  0.0813  0.1940 -0.0169
  513MOL0     O67642   1.504   0.638   8.058 -0.0423  0.8559 -0.5843
  513MOL0     C67643   1.409   0.607   8.158  0.4944  0.5629  0.2791
  513MOL0     C67644   1.477   0.589   8.291  0.1824  0.9063 -0.1572
  513MOL0     C67645   1.583   0.470   8.303  0.1643  0.0875 -0.2020
  513MOL0     C67646   1.527   0.336   8.311  0.3218  0.1648 -0.2575
  513MOL0     C67647   1.436   0.327   8.428 -0.0820 -0.1580  0.0404
  513MOL0     C67648   1.363   0.334   8.521 -0.3234 -0.2190  0.5529
  513MOL0     C67649   1.370   0.825   7.970 -0.5744 -0.1920  0.0027
  513MOL0     C67650   1.353   0.923   7.875  0.1043 -1.0835 -0.1830
  513MOL0     H67651   1.406   1.152   7.407 -1.1929  1.3962  3.1443
  513MOL0     H67652   1.427   1.344   7.262 -0.8982  1.6213  1.2654
  513MOL0     H67653   1.809   1.597   7.322 -0.4129 -2.7203  0.7893
  513MOL0     H67654   1.691   1.668   7.427  1.1300 -0.2228  0.2402
  513MOL0     H67655   1.598   1.816   7.265  0.0666  1.5336 -0.4275
  513MOL0     H67656   1.683   1.729   7.130 -1.3304 -0.2040 -0.2241
  513MOL0     H67657   1.918   1.793   7.244 -1.1930 -1.4658  1.4281
  513MOL0     H67658   1.833   1.899   7.353 -0.5145 -0.4946  0.6445
  513MOL0     H67659   1.835   1.941   7.046 -1.6561  2.2513 -0.4459
  513MOL0     H67660   1.736   2.020   7.163 -2.0015 -2.5650  1.2407
  513MOL0     H67661   2.045   2.025   7.190 -0.3869 -0.7487 -1.5562
  513MOL0     H67662   1.935   2.129   7.268 -2.4904  0.0961 -0.5310
  513MOL0     H67663   1.925   2.150   6.974  1.2790  0.9032 -0.8700
  513MOL0     H67664   2.062   2.204   7.058  0.2198  0.6442  0.5673
  513MOL0     H67665   1.793   2.313   7.158  0.7823 -2.7831  0.6704
  513MOL0     H67666   1.955   2.361   7.198  0.3191  1.1712 -0.7097
  513MOL0     H67667   1.838   2.492   7.005 -0.1149 -0.4092  1.3211
  513MOL0     H67668   1.847   2.341   6.914  0.0910 -1.4143  0.7415
  513MOL0     H67669   2.087   2.342   6.761 -2.6843  1.8235  0.0133
  513MOL0     H67670   2.333   2.326   6.744 -1.8388  1.2718 -1.9624
  513MOL0     H67671   2.438   2.429   6.846  1.3912 -1.9109 -1.6114
  513MOL0     H67672   2.445   2.542   6.622 -0.1218 -2.8584 -1.1864
  513MOL0     H67673   2.361   2.633   6.753 -3.8198  1.1636 -1.2717
  513MOL0     H67674   2.222   2.472   6.523 -1.5286  3.1492 -3.1351
  513MOL0     H67675   2.133   2.570   6.645 -0.2643 -0.0259 -0.3961
  513MOL0     H67676   2.298   2.759   6.537  2.1765  1.4831 -2.3512
  513MOL0     H67677   2.148   2.718   6.468 -0.2398 -2.2832  0.7788
  513MOL0     H67678   2.270   2.857   6.275 -1.3443  1.9368 -1.0069
  513MOL0     H67679   2.195   2.913   6.055 -0.8251  0.0521  2.7174
  513MOL0     H67680   1.951   2.952   5.607 -0.5986 -1.1936  2.1813
  513MOL0     H67681   2.078   3.068   5.414  0.0250 -6.2098 -2.0117
  513MOL0     H67682   2.511   3.099   5.455  0.2312  1.4185  1.5808
  513MOL0     H67683   2.476   3.256   5.512 -1.3067  1.3047 -1.4364
  513MOL0     H67684   2.428   3.339   5.261  0.8201  2.1218  2.4268
  513MOL0     H67685   2.470   3.174   5.222  0.2862  1.9847 -1.0318
  513MOL0     H67686   2.698   3.207   5.313  1.0163  0.4013  1.2575
  513MOL0     H67687   2.668   3.376   5.347  2.1381 -1.8240  1.0613
  513MOL0     H67688   2.651   3.234   5.080  0.3043  1.9497 -2.8709
  513MOL0     H67689   2.566   3.377   5.097 -0.1338  2.0264  0.4400
  513MOL0     H67690   2.865   3.320   5.104 -1.5237 -2.7933 -0.2608
  513MOL0     H67691   2.802   3.462   5.204 -2.3280  0.3050  0.2524
  513MOL0     H67692   2.681   3.549   5.020  1.6931  0.3942  0.6698
  513MOL0     H67693   2.779   3.430   4.919  1.5169 -0.7563  0.2348
  513MOL0     H67694   2.867   3.649   4.911  2.5157 -2.2371 -1.7835
  513MOL0     H67695   2.879   3.659   5.086  2.6321  1.6345 -0.5146
  513MOL0     H67696   3.026   3.444   4.911 -1.9321  1.9465 -2.6324
  513MOL0     H67697   3.057   3.499   5.084  3.0592 -1.1055 -0.8960
  513MOL0     H67698   2.442   3.075   5.639  0.0630  1.3139 -4.5078
  513MOL0     H67699   2.321   2.960   5.839  0.1608 -3.3707 -1.6362
  513MOL0     H67700   2.140   2.497   5.975  0.5440  2.1914 -3.0465
  513MOL0     H67701   2.221   2.438   6.199 -0.0352 -0.9357 -4.1055
  513MOL0     H67702   1.785   1.450   7.483  1.5676 -0.6487  1.1167
  513MOL0     H67703   1.745   1.285   7.637 -2.2114  2.1012  0.8893
  513MOL0     H67704   1.631   0.859   7.690 -0.7651  0.0474 -1.4278
  513MOL0     H67705   1.653   0.680   7.856 -1.0195 -1.3498  2.9318
  513MOL0     H67706   1.344   0.528   8.118  1.6673 -0.0957 -0.4165
  513MOL0     H67707   1.345   0.694   8.173 -1.8313 -0.6611 -1.7293
  513MOL0     H67708   1.537   0.680   8.298  1.5592  0.0329 -0.2446
  513MOL0     H67709   1.398   0.597   8.366  2.2914 -1.5132  2.5690
  513MOL0     H67710   1.635   0.500   8.394  2.7290 -0.4251 -1.3960
  513MOL0     H67711   1.646   0.478   8.213  1.6376 -0.3786  0.7455
  513MOL0     H67712   1.478   0.299   8.221 -1.2285  0.8087  0.2946
  513MOL0     H67713   1.618   0.275   8.315 -0.5048 -1.2516 -1.8067
  513MOL0     H67714   1.299   0.338   8.607  1.0280 -2.7119  1.8047
  513MOL0     H67715   1.289   0.825   8.041 -0.0305  0.9910  0.6387
  513MOL0     H67716   1.259   0.977   7.878  0.8515  0.2243  0.9574
  514MOL0     O67717   9.778   1.131   9.104 -0.7517 -0.6686 -0.1809
  514MOL0     C67718   9.784   1.008   9.104 -0.1916 -0.4752 -0.8910
  514MOL0     O67719   9.687   0.928   9.156  0.0604 -0.0909 -0.6855
  514MOL0     C67720   9.561   0.971   9.197  0.0760 -0.4648 -0.1711
  514MOL0     C67721   9.510   1.103   9.184  0.0354  0.4542  0.0038
  514MOL0     C67722   9.383   1.144   9.234  0.0908  0.2791  0.6783
  514MOL0     C67723   9.299   1.050   9.291  0.5565 -0.7960  0.9676
  514MOL0     O67724   9.175   1.093   9.314 -0.0637 -0.6782 -0.2352
  514MOL0     C67725   9.155   1.099   9.454 -1.1808  0.5038 -0.0001
  514MOL0     C67726   9.036   1.014   9.510  0.7732 -0.2600  0.3109
  514MOL0     C67727   8.911   1.040   9.432  0.1876 -0.8118 -0.2303
  514MOL0     C67728   8.854   1.183   9.461  0.3045 -0.0050 -1.2030
  514MOL0     C67729   8.722   1.212   9.389 -0.4037 -0.7078  0.0537
  514MOL0     C67730   8.597   1.201   9.484  0.3466  0.0510 -0.4389
  514MOL0     C67731   8.460   1.229   9.410  0.3208 -0.8011 -0.4013
  514MOL0     C67732   8.435   1.378   9.401  0.3093 -0.0270 -0.3783
  514MOL0     N67733   8.512   1.461   9.311  0.4275 -0.8663  0.0531
  514MOL0     C67734   8.568   1.586   9.346  1.0667 -0.5368 -0.3634
  514MOL0     C67735   8.657   1.615   9.247  0.3266 -0.0294  0.2113
  514MOL0     C67736   8.731   1.751   9.246  0.1515  0.4493  0.0781
  514MOL0     C67737   8.870   1.742   9.179 -0.4246  0.2611  0.3773
  514MOL0     C67738   8.919   1.894   9.125 -0.1232 -0.2816 -0.4813
  514MOL0     C67739   8.959   1.989   9.237  0.5065 -0.7666 -0.3817
  514MOL0     O67740   9.032   1.928   9.349  1.1238 -0.3821 -0.7961
  514MOL0     C67741   9.160   1.895   9.349 -0.4446  0.6154  0.7795
  514MOL0     C67742   9.239   1.934   9.244  0.7046  0.2183  1.0576
  514MOL0     C67743   9.374   1.883   9.248  0.3815 -0.3729 -0.3443
  514MOL0     C67744   9.419   1.798   9.356 -0.0285 -0.6940 -0.1804
  514MOL0     C67745   9.559   1.744   9.355 -0.3105 -0.2551 -0.5781
  514MOL0     O67746   9.596   1.670   9.464  0.1536  1.1791  0.3116
  514MOL0     C67747   9.696   1.575   9.446 -0.5162  0.2515  0.5461
  514MOL0     C67748   9.805   1.565   9.542  0.1340  0.3295  0.1819
  514MOL0     C67749   9.911   1.471   9.525  0.6916 -0.3407 -0.6456
  514MOL0     C67750   9.898   1.369   9.432  0.5254 -0.6170  0.1093
  514MOL0     O67751  10.003   1.282   9.417  1.0682 -0.3450 -0.4400
  514MOL0     C67752   9.972   1.162   9.363  0.1250 -0.0574  0.3051
  514MOL0     C67753  10.039   1.045   9.452 -0.9289  0.7274 -0.3360
  514MOL0     C67754  10.193   1.073   9.455 -0.0406 -1.0898  0.4961
  514MOL0     C67755  10.264   0.964   9.547  0.8134  0.1077  0.0855
  514MOL0     C67756  10.410   1.003   9.597 -0.3897  0.3689  0.0412
  514MOL0     C67757  10.477   0.879   9.651  0.0552  0.5954  0.3469
  514MOL0     C67758  10.622   0.892   9.686  0.3573  0.1813 -0.0096
  514MOL0     C67759  10.701   0.770   9.648 -0.9140 -0.4478 -0.6918
  514MOL0    Cl67760  10.726   0.768   9.468 -0.5416  0.3196 -0.1571
  514MOL0     C67761   9.800   1.380   9.339  0.3338 -0.6965 -0.1168
  514MOL0     C67762   9.689   1.480   9.349 -0.0382  0.8335  0.0516
  514MOL0     O67763   9.625   1.766   9.250  0.3957  0.7479  0.1443
  514MOL0     C67764   9.333   1.776   9.467  0.2931 -0.9772 -0.8335
  514MOL0     C67765   9.207   1.819   9.449  0.0945  0.4783 -0.1412
  514MOL0     N67766   8.648   1.517   9.152  0.5019  0.4288  0.0990
  514MOL0     N67767   8.560   1.427   9.187  0.0792 -0.1080  0.4049
  514MOL0     C67768   9.347   0.923   9.305  0.3763  1.0404 -0.4202
  514MOL0     C67769   9.478   0.884   9.265 -0.2347  0.2368  0.2933
  514MOL0     C67770   9.915   0.938   9.066 -0.6104  0.5062  0.6308
  514MOL0     C67771   9.933   0.805   9.102  0.5363  0.6532  0.2549
  514MOL0     C67772  10.046   0.732   9.067 -0.2043 -0.1172  0.5695
  514MOL0     C67773  10.156   0.793   9.011 -0.3311 -0.7175 -0.4910
  514MOL0     O67774  10.277   0.740   8.978  0.5464  0.3393 -0.5385
  514MOL0     C67775  10.307   0.602   9.017  0.5276 -0.7225  0.2188
  514MOL0     C67776  10.454   0.571   8.985  0.5978 -0.6707  0.0057
  514MOL0     C67777  10.504   0.431   9.021 -0.4381 -0.9857 -0.4697
  514MOL0     C67778  10.658   0.421   9.028  0.7770 -0.4032 -0.7110
  514MOL0     C67779  10.716   0.400   8.898  0.0017  0.0831 -1.1101
  514MOL0     C67780  10.762   0.395   8.783  0.1056 -0.5719 -0.0630
  514MOL0     C67781  10.145   0.933   8.984 -0.8135  1.6531  0.2986
  514MOL0     C67782  10.024   1.001   9.002 -0.4019  0.1686 -0.3620
  514MOL0     H67783   9.566   1.169   9.118  2.4404 -2.0917 -0.6812
  514MOL0     H67784   9.363   1.249   9.215 -0.1951  0.2826  1.0038
  514MOL0     H67785   9.142   1.196   9.503  0.2492  1.2245 -0.9775
  514MOL0     H67786   9.238   1.054   9.509  0.3512  0.7331 -2.0145
  514MOL0     H67787   9.024   1.046   9.614 -1.6448 -1.4814  0.4833
  514MOL0     H67788   9.055   0.907   9.520  0.0287 -0.2078  3.7302
  514MOL0     H67789   8.839   0.966   9.468  0.1708 -0.3716  0.6680
  514MOL0     H67790   8.938   1.030   9.327  3.5863 -0.4480  0.5041
  514MOL0     H67791   8.855   1.196   9.570 -0.9435  0.1249 -1.1957
  514MOL0     H67792   8.932   1.248   9.421  0.7636 -0.4653 -1.0710
  514MOL0     H67793   8.716   1.136   9.311 -1.8757  0.4865 -1.0726
  514MOL0     H67794   8.720   1.307   9.334 -3.0445 -1.6328 -1.6298
  514MOL0     H67795   8.606   1.264   9.573  2.6374 -0.0531 -0.5373
  514MOL0     H67796   8.601   1.100   9.524  1.2976  1.0465  2.2279
  514MOL0     H67797   8.454   1.177   9.313  0.8740 -1.3677 -0.1405
  514MOL0     H67798   8.378   1.187   9.469 -0.1684  3.2453  2.1809
  514MOL0     H67799   8.452   1.428   9.497  1.3688 -0.9131 -0.0911
  514MOL0     H67800   8.328   1.396   9.385 -0.0221 -1.2731  0.3506
  514MOL0     H67801   8.543   1.651   9.429  0.3980 -0.9167 -0.2548
  514MOL0     H67802   8.728   1.788   9.350 -2.2226 -0.0996  0.2708
  514MOL0     H67803   8.670   1.818   9.184 -1.6136 -0.9387  0.2175
  514MOL0     H67804   8.867   1.686   9.085  1.1417  1.6823 -0.5693
  514MOL0     H67805   8.946   1.697   9.243 -0.2499 -0.0806 -0.0683
  514MOL0     H67806   9.011   1.874   9.069  0.5041 -1.6794  0.9629
  514MOL0     H67807   8.854   1.946   9.053  1.5003  0.2643 -1.6335
  514MOL0     H67808   8.871   2.020   9.294  0.8148 -0.1495 -0.2346
  514MOL0     H67809   9.009   2.079   9.202 -1.7181  0.9879  0.7247
  514MOL0     H67810   9.206   1.987   9.155 -2.3005 -1.5146  1.0024
  514MOL0     H67811   9.445   1.915   9.173  2.3904  3.8131  2.8794
  514MOL0     H67812   9.823   1.631   9.626  1.2675  0.5677 -0.2347
  514MOL0     H67813   9.987   1.459   9.601  1.3139 -2.3637 -1.5194
  514MOL0     H67814  10.008   1.173   9.261 -1.8991  0.0729 -0.4455
  514MOL0     H67815   9.865   1.138   9.359  0.8525 -4.2116  1.5152
  514MOL0     H67816  10.023   0.941   9.421  2.4086  0.1211 -0.4985
  514MOL0     H67817   9.999   1.057   9.552 -1.3993  1.2501 -0.5813
  514MOL0     H67818  10.210   1.173   9.497 -1.4560  0.7033 -2.7486
  514MOL0     H67819  10.236   1.075   9.354 -3.4480  2.9245 -1.1849
  514MOL0     H67820  10.203   0.937   9.634  0.8864 -1.0345 -0.1985
  514MOL0     H67821  10.272   0.875   9.484  2.5661  0.5397 -0.3626
  514MOL0     H67822  10.412   1.086   9.668  2.9774  0.9520 -0.5929
  514MOL0     H67823  10.470   1.040   9.514 -1.3065 -1.7271 -1.6606
  514MOL0     H67824  10.471   0.804   9.571 -0.7447 -0.5054  1.4028
  514MOL0     H67825  10.410   0.847   9.731  2.2854 -0.3925  1.8985
  514MOL0     H67826  10.667   0.988   9.661  2.5747  0.0807  3.0057
  514MOL0     H67827  10.620   0.898   9.795 -3.8084 -1.7533  0.2078
  514MOL0     H67828  10.641   0.689   9.690 -1.5030  0.6476  0.6453
  514MOL0     H67829  10.795   0.759   9.703 -1.5885  0.3641  0.6743
  514MOL0     H67830   9.782   1.318   9.251 -0.8131  2.9611 -2.7249
  514MOL0     H67831   9.615   1.477   9.269  0.8126 -0.7734 -0.7425
  514MOL0     H67832   9.368   1.721   9.554  0.9315 -0.9460 -1.0644
  514MOL0     H67833   9.130   1.791   9.520 -0.7862  1.0148 -0.8559
  514MOL0     H67834   9.275   0.851   9.345  0.6108  0.4017 -1.1356
  514MOL0     H67835   9.506   0.781   9.284  1.6934  0.4600 -1.0482
  514MOL0     H67836   9.855   0.753   9.156 -0.3576  1.3574 -0.3340
  514MOL0     H67837  10.055   0.627   9.094  0.9762  0.0213  0.7664
  514MOL0     H67838  10.247   0.538   8.952  1.4240  0.9189 -2.4049
  514MOL0     H67839  10.284   0.584   9.122 -0.0172 -0.0520  0.2232
  514MOL0     H67840  10.470   0.578   8.877 -1.1050 -0.3802 -0.2582
  514MOL0     H67841  10.506   0.654   9.034 -1.0654  0.0869  0.5673
  514MOL0     H67842  10.465   0.353   8.955  0.9386  0.5051 -3.1877
  514MOL0     H67843  10.467   0.415   9.123  1.3625 -1.0375  0.2157
  514MOL0     H67844  10.698   0.516   9.064  1.9193 -1.6362  1.4644
  514MOL0     H67845  10.681   0.334   9.090  0.3245  1.0972  1.6762
  514MOL0     H67846  10.807   0.378   8.688 -0.6680 -3.6471  0.0383
  514MOL0     H67847  10.223   0.992   8.937 -1.7997  3.5094  0.8585
  514MOL0     H67848  10.015   1.104   8.969  2.6311  0.3251 -1.0236
  515MOL0     O67849   7.189   4.008   9.377  0.3146  0.1003  0.0022
  515MOL0     C67850   7.132   4.068   9.464  0.0063 -0.9040 -0.0864
  515MOL0     O67851   7.182   4.116   9.581  0.0608 -0.0761 -0.0475
  515MOL0     C67852   7.316   4.134   9.604 -0.4229 -0.2878 -1.0930
  515MOL0     C67853   7.411   4.138   9.506 -0.1959  0.6460  0.7647
  515MOL0     C67854   7.546   4.148   9.534 -0.0003  0.3048  0.2584
  515MOL0     C67855   7.592   4.175   9.661  0.4311  0.4229  0.1779
  515MOL0     O67856   7.721   4.201   9.700  1.2875  0.4945  0.0148
  515MOL0     C67857   7.810   4.245   9.602 -0.1596  0.0697  0.4623
  515MOL0     C67858   7.949   4.271   9.667 -0.1534 -0.1904 -0.2881
  515MOL0     C67859   7.988   4.173   9.762 -0.2607 -0.8028  0.7270
  515MOL0     C67860   8.137   4.180   9.808  0.0492  0.5036 -0.5570
  515MOL0     C67861   8.175   4.041   9.878  0.1428 -0.3034 -0.8236
  515MOL0     C67862   8.263   4.061  10.000 -0.1949  0.1762  1.0310
  515MOL0     C67863   8.339   3.934  10.026  0.3399  0.6930  0.8429
  515MOL0     C67864   8.449   3.893   9.930  0.3231  0.1185  0.5605
  515MOL0     N67865   8.550   3.993   9.915 -0.6821  0.2153 -0.5658
  515MOL0     C67866   8.597   4.071  10.007  0.2184 -0.3170 -0.0931
  515MOL0     C67867   8.686   4.153   9.945  1.1790 -1.2525 -0.1629
  515MOL0     C67868   8.774   4.264  10.002  0.2005  0.6811 -0.3332
  515MOL0     C67869   8.859   4.216  10.121  0.3344 -0.6453  0.8342
  515MOL0     C67870   8.955   4.329  10.169  0.3273  0.0635  0.9961
  515MOL0     C67871   9.036   4.290  10.293  0.0413  0.0977 -0.3244
  515MOL0     O67872   9.116   4.397  10.336  0.3880 -0.1814  0.5389
  515MOL0     C67873   9.250   4.410  10.295  0.5968  0.0458  0.0977
  515MOL0     C67874   9.311   4.333  10.198  0.7161  0.3472 -0.7295
  515MOL0     C67875   9.447   4.345  10.165 -0.0379  0.2331  0.4766
  515MOL0     C67876   9.538   4.421  10.239  0.5885 -0.0349 -0.3191
  515MOL0     C67877   9.685   4.433  10.208  0.6126 -0.5571  0.5088
  515MOL0     O67878   9.759   4.501  10.303 -0.2588  0.3891  0.6506
  515MOL0     C67879   9.895   4.523  10.269 -0.1375  0.6676  0.0465
  515MOL0     C67880   9.941   4.568  10.140  0.1972  0.3804 -0.6861
  515MOL0     C67881  10.084   4.562  10.124 -0.6030 -0.0966 -0.8666
  515MOL0     C67882  10.179   4.542  10.227  0.8018 -1.1124 -0.6044
  515MOL0     O67883  10.316   4.546  10.195 -0.2277 -0.6777  0.5309
  515MOL0     C67884  10.368   4.615  10.080 -1.0741  0.4028 -0.5390
  515MOL0     C67885  10.518   4.614  10.093  0.1011  0.9009 -0.1561
  515MOL0     C67886  10.579   4.631   9.949 -0.0557 -0.1786 -0.5782
  515MOL0     C67887  10.707   4.718   9.943 -1.4400 -0.3387  0.8366
  515MOL0     C67888  10.790   4.674   9.822  0.1747  0.3739  0.0880
  515MOL0     C67889  10.927   4.732   9.822  0.0970 -0.9830  0.5904
  515MOL0     C67890  11.019   4.678   9.937 -1.5198 -0.5523  1.0560
  515MOL0     C67891  11.168   4.735   9.904  0.2150  0.3115 -0.5528
  515MOL0    Cl67892  11.174   4.905   9.935  0.3249  0.3709  0.1371
  515MOL0     C67893  10.131   4.513  10.352  0.1420  0.1234 -0.8739
  515MOL0     C67894   9.990   4.513  10.374  0.3062  0.9596 -0.1282
  515MOL0     O67895   9.728   4.356  10.120  0.1442 -0.4285 -0.5332
  515MOL0     C67896   9.488   4.487  10.348  0.0736  0.4352  0.5209
  515MOL0     C67897   9.348   4.479  10.372 -0.1617 -0.2557  0.7394
  515MOL0     N67898   8.672   4.139   9.809 -0.9002  0.8193 -0.7232
  515MOL0     N67899   8.598   4.032   9.797 -0.7251  0.4266  0.0203
  515MOL0     C67900   7.490   4.175   9.756  1.6112  0.1634 -0.1282
  515MOL0     C67901   7.353   4.151   9.736 -0.2176  0.1680  0.2309
  515MOL0     C67902   6.979   4.080   9.435  0.2741  0.1174 -0.7551
  515MOL0     C67903   6.881   4.076   9.538 -0.3219 -0.0741 -0.1430
  515MOL0     C67904   6.744   4.064   9.507  0.0116 -0.1757  0.1864
  515MOL0     C67905   6.708   4.057   9.376  0.5004 -0.2638 -0.0711
  515MOL0     O67906   6.576   4.044   9.325 -0.0314  0.4782 -0.8546
  515MOL0     C67907   6.467   4.059   9.412  1.0413 -0.7146  0.3610
  515MOL0     C67908   6.325   4.094   9.349 -0.8588  0.2560 -0.9190
  515MOL0     C67909   6.217   4.147   9.453  0.6922 -0.1238 -0.7833
  515MOL0     C67910   6.076   4.091   9.457  0.2711  0.5550 -0.4937
  515MOL0     C67911   6.073   3.959   9.529  0.6734  0.4082 -0.2191
  515MOL0     C67912   6.060   3.862   9.595 -0.3747 -0.2839  0.2855
  515MOL0     C67913   6.806   4.073   9.274 -0.7441  0.0547 -0.6059
  515MOL0     C67914   6.942   4.074   9.300  0.2907 -1.2698 -0.8147
  515MOL0     H67915   7.397   4.140   9.399  3.1103  1.1485  0.2393
  515MOL0     H67916   7.616   4.154   9.452  2.0294 -0.5647  1.8375
  515MOL0     H67917   7.766   4.329   9.548 -1.4562 -2.6021 -3.0040
  515MOL0     H67918   7.821   4.159   9.535  0.4854  0.8401 -0.4544
  515MOL0     H67919   7.934   4.372   9.706  0.9684  0.5296 -1.6176
  515MOL0     H67920   8.015   4.283   9.580 -1.0583  0.8578 -0.8486
  515MOL0     H67921   7.963   4.076   9.718 -2.1561 -0.8635  1.7923
  515MOL0     H67922   7.930   4.194   9.853  3.0578  0.8460  2.6738
  515MOL0     H67923   8.202   4.199   9.723  0.1490  1.9390 -0.1774
  515MOL0     H67924   8.139   4.270   9.870 -0.8765  0.1163  0.0554
  515MOL0     H67925   8.228   3.978   9.807 -0.5796 -0.8319 -0.8971
  515MOL0     H67926   8.088   3.988   9.918 -0.1147  1.7087  1.5526
  515MOL0     H67927   8.198   4.080  10.085 -0.9208 -2.0192  1.0280
  515MOL0     H67928   8.338   4.141   9.991  1.1885 -1.1289  0.3674
  515MOL0     H67929   8.375   3.930  10.130  3.6008 -1.4500 -0.1972
  515MOL0     H67930   8.261   3.858  10.019  0.3458  0.8695 -1.9418
  515MOL0     H67931   8.413   3.858   9.833 -3.8664  1.6716  1.3200
  515MOL0     H67932   8.489   3.799   9.969 -0.5030 -0.8800 -0.8988
  515MOL0     H67933   8.565   4.081  10.110  1.8941  3.0277  0.2364
  515MOL0     H67934   8.710   4.341  10.046  0.6569 -0.7613  3.2713
  515MOL0     H67935   8.850   4.301   9.933  0.7506  0.7376  0.2895
  515MOL0     H67936   8.923   4.130  10.100  1.0401 -0.1808  1.0440
  515MOL0     H67937   8.798   4.181  10.205 -1.0284 -0.6345 -0.1331
  515MOL0     H67938   9.015   4.354  10.081 -1.9341 -2.0747 -1.3208
  515MOL0     H67939   8.897   4.415  10.204 -1.0749 -0.9774  1.2946
  515MOL0     H67940   9.102   4.206  10.267  0.5867  1.1484 -2.5190
  515MOL0     H67941   8.962   4.272  10.372 -1.8043 -0.0900 -2.0339
  515MOL0     H67942   9.240   4.282  10.133  0.8038  1.1021 -1.4263
  515MOL0     H67943   9.493   4.287  10.086 -2.7055 -1.6074  0.1510
  515MOL0     H67944   9.880   4.604  10.058 -1.7618 -0.2818  0.4148
  515MOL0     H67945  10.120   4.603  10.030  0.2543 -2.0906 -1.4551
  515MOL0     H67946  10.339   4.720  10.089 -0.2816  0.5652  0.1743
  515MOL0     H67947  10.327   4.580   9.985  1.3629  0.6027 -1.7339
  515MOL0     H67948  10.545   4.515  10.131 -3.2572 -0.1647 -0.2597
  515MOL0     H67949  10.555   4.693  10.159  0.5462  0.7079 -0.1715
  515MOL0     H67950  10.499   4.674   9.888 -0.4453  0.7933  0.5768
  515MOL0     H67951  10.601   4.528   9.918  1.3797  0.3738 -1.4856
  515MOL0     H67952  10.691   4.824   9.965 -1.8547 -0.2261  0.0634
  515MOL0     H67953  10.759   4.676  10.029 -0.8697  0.4627  0.8842
  515MOL0     H67954  10.735   4.709   9.734 -1.6595  0.8816  1.3892
  515MOL0     H67955  10.805   4.566   9.812  1.0606  0.7027 -3.3108
  515MOL0     H67956  10.921   4.841   9.822 -2.9821 -1.0450 -0.8883
  515MOL0     H67957  10.977   4.711   9.727  1.2719  1.3732  0.6290
  515MOL0     H67958  10.990   4.707  10.038  2.2860  0.1812  2.1125
  515MOL0     H67959  11.035   4.570   9.929  0.3932 -0.1650 -2.3154
  515MOL0     H67960  11.190   4.715   9.798  2.6693  0.2897 -0.0951
  515MOL0     H67961  11.236   4.675   9.965  1.1942  2.0120  0.0773
  515MOL0     H67962  10.196   4.491  10.436  1.0656  0.4775 -1.4813
  515MOL0     H67963   9.952   4.481  10.470  0.2488 -2.0888 -1.0561
  515MOL0     H67964   9.546   4.544  10.420 -1.1727  1.0916  1.0481
  515MOL0     H67965   9.323   4.516  10.471  2.5960  1.0099  1.0458
  515MOL0     H67966   7.522   4.196   9.858  3.9280 -0.7672 -0.6072
  515MOL0     H67967   7.282   4.154   9.819 -1.0975  0.8309 -0.5265
  515MOL0     H67968   6.914   4.090   9.640 -1.0947  2.2257 -0.1530
  515MOL0     H67969   6.672   4.089   9.585  0.2143  1.2252 -0.0642
  515MOL0     H67970   6.485   4.156   9.459 -1.2235  0.2480 -0.6338
  515MOL0     H67971   6.462   3.981   9.489  1.4493 -1.4026 -0.2880
  515MOL0     H67972   6.331   4.179   9.280  1.7808 -1.8552 -3.4888
  515MOL0     H67973   6.294   4.001   9.301 -4.3133  0.6008  0.3764
  515MOL0     H67974   6.198   4.254   9.441  1.4407  0.5155  2.7615
  515MOL0     H67975   6.266   4.135   9.550  0.0271 -2.7345 -0.6870
  515MOL0     H67976   6.002   4.150   9.513 -0.6111  0.1133 -1.1757
  515MOL0     H67977   6.039   4.082   9.354 -1.4993  0.2788  0.1257
  515MOL0     H67978   6.055   3.776   9.658  1.3199 -0.5849  0.0593
  515MOL0     H67979   6.770   4.080   9.172 -2.7824 -1.1161 -0.0235
  515MOL0     H67980   7.017   4.068   9.221  1.3482  1.1707 -0.1078
  516MOL0     O67981   0.546   3.480   0.706  0.4105  0.0488 -0.4330
  516MOL0     C67982   0.589   3.536   0.612 -0.1466  0.2224 -0.2784
  516MOL0     O67983   0.554   3.657   0.572  0.0676 -0.5604  1.1047
  516MOL0     C67984   0.445   3.713   0.640 -1.0831  0.0452 -0.7546
  516MOL0     C67985   0.462   3.828   0.725  0.2585  0.1409  0.1233
  516MOL0     C67986   0.359   3.897   0.788 -0.0100 -0.1792  0.1143
  516MOL0     C67987   0.224   3.847   0.780 -0.3748 -0.2307  0.7073
  516MOL0     O67988   0.114   3.908   0.837 -0.0474 -0.0974  0.1587
  516MOL0     C67989   0.125   4.028   0.919  0.0417  0.4376  0.1836
  516MOL0     C67990   0.009   4.038   1.018  0.0303  0.0659  0.8824
  516MOL0     C67991   0.003   3.926   1.127 -0.5015 -0.9725 -1.0673
  516MOL0     C67992  -0.079   3.969   1.240  0.4780 -0.6711 -0.3333
  516MOL0     C67993  -0.228   3.991   1.193  0.3939 -0.4378 -0.6063
  516MOL0     C67994  -0.311   4.031   1.325  0.0610 -1.0284 -0.5743
  516MOL0     C67995  -0.454   4.045   1.299  0.5098 -0.3897  0.7194
  516MOL0     C67996  -0.473   4.199   1.261 -0.9480  0.9905 -0.2302
  516MOL0     N67997  -0.560   4.284   1.339 -0.1730 -0.3164  0.3240
  516MOL0     C67998  -0.529   4.349   1.456 -0.0904  0.9493  0.0578
  516MOL0     C67999  -0.654   4.385   1.506  0.6718 -0.1041  0.2565
  516MOL0     C68000  -0.697   4.477   1.616  0.5694  0.1499  0.5739
  516MOL0     C68001  -0.794   4.579   1.575  0.0909  0.2535 -0.4497
  516MOL0     C68002  -0.873   4.650   1.686 -0.3397 -0.7051  0.2684
  516MOL0     C68003  -0.991   4.737   1.638 -0.8137  0.2984  0.3561
  516MOL0     O68004  -1.076   4.656   1.551  0.5248 -0.0577  0.6110
  516MOL0     C68005  -1.208   4.713   1.522 -0.3231 -0.0191  0.4257
  516MOL0     C68006  -1.299   4.630   1.449 -0.3043  0.1812  0.7148
  516MOL0     C68007  -1.421   4.673   1.419  0.0716  0.1142  0.2065
  516MOL0     C68008  -1.470   4.805   1.456  0.0404 -0.1642 -0.0423
  516MOL0     C68009  -1.614   4.846   1.432 -0.2151  0.3187  0.3478
  516MOL0     O68010  -1.705   4.748   1.434 -0.3384 -0.0461  0.8065
  516MOL0     C68011  -1.835   4.767   1.425  0.8153  0.5895 -0.1479
  516MOL0     C68012  -1.901   4.657   1.369  0.9795  0.7178 -0.1523
  516MOL0     C68013  -2.043   4.668   1.349 -1.1090 -0.6236  0.7290
  516MOL0     C68014  -2.116   4.780   1.395  0.0724 -0.1008  0.7295
  516MOL0     O68015  -2.253   4.795   1.374  0.4182  0.6910 -1.2530
  516MOL0     C68016  -2.279   4.815   1.231  0.0996  0.6396  0.5773
  516MOL0     C68017  -2.427   4.823   1.220  0.4153 -0.1425  0.0246
  516MOL0     C68018  -2.451   4.872   1.081  0.2446 -0.5556  0.7232
  516MOL0     C68019  -2.601   4.883   1.040 -0.2513  0.4029  0.1437
  516MOL0     C68020  -2.620   4.896   0.886 -0.5576 -0.7629  0.1465
  516MOL0     C68021  -2.768   4.900   0.835  0.2826  0.2946 -0.1581
  516MOL0     C68022  -2.791   4.900   0.686  0.0772  0.3300 -0.0369
  516MOL0     C68023  -2.720   5.025   0.631 -0.8383 -0.2917  1.0099
  516MOL0    Cl68024  -2.790   5.083   0.483 -0.0676 -0.5128  0.5594
  516MOL0     C68025  -2.049   4.885   1.460  0.0355  0.7313 -0.3253
  516MOL0     C68026  -1.911   4.876   1.476  0.0700  0.1330 -0.1135
  516MOL0     O68027  -1.639   4.964   1.413  0.1796 -0.7174 -0.1524
  516MOL0     C68028  -1.374   4.895   1.519 -1.0310  0.2342 -1.1831
  516MOL0     C68029  -1.247   4.840   1.558 -0.2886  0.7438  0.6707
  516MOL0     N68030  -0.753   4.324   1.428  0.0465  0.0162  0.3150
  516MOL0     N68031  -0.691   4.282   1.322 -0.2508  0.0918  0.4310
  516MOL0     C68032   0.213   3.735   0.690 -0.2646  0.7391 -0.4193
  516MOL0     C68033   0.314   3.673   0.621 -0.4637 -0.0521  0.2352
  516MOL0     C68034   0.687   3.470   0.530 -0.5140 -0.5943  0.5442
  516MOL0     C68035   0.731   3.334   0.552 -0.7318  0.5574 -0.3834
  516MOL0     C68036   0.851   3.274   0.497  0.0076  0.3301 -0.1437
  516MOL0     C68037   0.918   3.338   0.398 -0.8611  0.8522 -0.2081
  516MOL0     O68038   1.032   3.299   0.334 -0.0016 -0.4920 -0.6882
  516MOL0     C68039   1.090   3.164   0.334 -0.0247  0.1259  0.3825
  516MOL0     C68040   1.191   3.145   0.226 -0.1811 -1.6749 -0.1592
  516MOL0     C68041   1.124   3.107   0.085 -0.6162  0.1012  0.1895
  516MOL0     C68042   1.168   2.967   0.038  0.9197  0.0338  0.1075
  516MOL0     C68043   1.050   2.888   0.021 -0.1237  0.2359  0.4982
  516MOL0     C68044   0.945   2.830   0.031  1.1518 -0.2116  0.4551
  516MOL0     C68045   0.877   3.468   0.368 -0.3947  1.1006  1.0874
  516MOL0     C68046   0.760   3.533   0.430 -0.0845 -0.0071  0.2621
  516MOL0     H68047   0.569   3.846   0.735  0.3284 -0.9768  1.9620
  516MOL0     H68048   0.387   3.983   0.848 -2.1007 -1.1922  2.7955
  516MOL0     H68049   0.135   4.117   0.857  2.2448 -0.2470 -0.5575
  516MOL0     H68050   0.217   4.020   0.979 -1.4879 -5.3199  2.3836
  516MOL0     H68051  -0.079   4.040   0.953  0.9894 -0.1491 -0.4417
  516MOL0     H68052  -0.000   4.139   1.059 -3.8427  0.1963  0.0782
  516MOL0     H68053   0.104   3.902   1.159 -0.7492 -0.7892 -0.1299
  516MOL0     H68054  -0.043   3.840   1.077 -0.0628  0.8644 -5.0365
  516MOL0     H68055  -0.075   3.882   1.306  4.5981 -0.7985 -0.4974
  516MOL0     H68056  -0.057   4.061   1.295 -4.3204 -0.2014  1.2924
  516MOL0     H68057  -0.276   3.911   1.135 -1.2180  2.5050 -3.7171
  516MOL0     H68058  -0.232   4.077   1.125  0.8171 -0.7941 -1.0909
  516MOL0     H68059  -0.264   4.122   1.364 -1.1267  0.5470 -2.5955
  516MOL0     H68060  -0.294   3.937   1.379 -2.8078 -2.6646 -2.2752
  516MOL0     H68061  -0.500   3.975   1.228 -2.4656  0.4129  1.7073
  516MOL0     H68062  -0.516   4.034   1.388 -3.0449 -1.5646 -1.6412
  516MOL0     H68063  -0.522   4.195   1.164 -1.3188  0.4244 -0.0228
  516MOL0     H68064  -0.376   4.242   1.236  0.8680 -2.9809 -0.8617
  516MOL0     H68065  -0.429   4.369   1.492 -0.3911  1.6838  0.5211
  516MOL0     H68066  -0.613   4.536   1.653  1.0201 -0.8907  1.2788
  516MOL0     H68067  -0.720   4.428   1.711 -0.6772  2.6386  1.6590
  516MOL0     H68068  -0.874   4.536   1.514 -1.7173  1.2329  1.0989
  516MOL0     H68069  -0.744   4.644   1.503  0.8552 -4.7066 -4.9853
  516MOL0     H68070  -0.911   4.572   1.752 -1.4909  0.4554  1.0249
  516MOL0     H68071  -0.816   4.719   1.748 -2.3248  0.3033  1.0700
  516MOL0     H68072  -0.950   4.826   1.591 -1.2574  0.2732 -0.0872
  516MOL0     H68073  -1.052   4.762   1.725 -0.3383  2.0614  0.2202
  516MOL0     H68074  -1.265   4.530   1.424  2.4378  0.8368  1.4592
  516MOL0     H68075  -1.493   4.610   1.368 -0.6005  1.9218 -1.1954
  516MOL0     H68076  -1.838   4.582   1.322 -0.9823  1.1757 -3.9162
  516MOL0     H68077  -2.075   4.588   1.282 -0.5265 -0.0154 -0.3136
  516MOL0     H68078  -2.241   4.727   1.179  1.5708  0.5426  1.7565
  516MOL0     H68079  -2.224   4.899   1.187 -1.7731  0.6831 -1.9407
  516MOL0     H68080  -2.467   4.897   1.289  1.0017 -0.3884  0.6530
  516MOL0     H68081  -2.474   4.729   1.249  0.5018 -0.0198  0.5745
  516MOL0     H68082  -2.396   4.800   1.020  0.7641 -1.4609  2.1911
  516MOL0     H68083  -2.405   4.970   1.069 -0.2910 -0.2675  0.9652
  516MOL0     H68084  -2.656   4.790   1.058 -0.0399  0.1652 -0.4253
  516MOL0     H68085  -2.632   4.976   1.088  1.9271  0.8062  0.8968
  516MOL0     H68086  -2.572   4.824   0.819  1.9780  1.0844 -0.1505
  516MOL0     H68087  -2.574   4.989   0.854 -0.6943 -0.1333  1.7206
  516MOL0     H68088  -2.831   4.978   0.880 -2.9842 -3.0989  1.6691
  516MOL0     H68089  -2.825   4.813   0.867  2.3681 -1.8713 -1.9664
  516MOL0     H68090  -2.766   4.806   0.637  0.5714 -1.1511  2.8014
  516MOL0     H68091  -2.900   4.908   0.692  0.0413  0.4183 -0.7970
  516MOL0     H68092  -2.619   4.994   0.605 -0.9911 -0.3994  0.5327
  516MOL0     H68093  -2.723   5.104   0.706 -3.0798 -0.8416  1.5691
  516MOL0     H68094  -2.101   4.969   1.504  0.7673  2.4846 -2.5845
  516MOL0     H68095  -1.853   4.961   1.510 -0.2619  0.9121 -1.3839
  516MOL0     H68096  -1.400   4.992   1.559  1.9490  0.0777  1.5514
  516MOL0     H68097  -1.188   4.903   1.625 -2.1535  1.7484  1.4410
  516MOL0     H68098   0.108   3.716   0.670 -0.3265 -3.3534  2.6250
  516MOL0     H68099   0.295   3.597   0.546  3.8167  2.0799 -3.4939
  516MOL0     H68100   0.683   3.276   0.630 -0.1246 -1.3750 -1.3665
  516MOL0     H68101   0.873   3.176   0.540  1.1209  0.7606  0.2929
  516MOL0     H68102   1.009   3.091   0.326  0.3455 -0.3843  1.2719
  516MOL0     H68103   1.133   3.153   0.433  1.0628  1.5210  0.1021
  516MOL0     H68104   1.235   3.243   0.209 -0.8550 -0.9356  2.0059
  516MOL0     H68105   1.268   3.077   0.263  2.2920  2.1061  2.2027
  516MOL0     H68106   1.166   3.182   0.017 -2.1735  0.3016 -0.5906
  516MOL0     H68107   1.016   3.120   0.092 -0.1728  4.9344  2.5312
  516MOL0     H68108   1.222   2.980  -0.056 -0.6480  3.5522 -0.4680
  516MOL0     H68109   1.225   2.907   0.109 -0.6899 -1.3962  0.2762
  516MOL0     H68110   0.865   2.766   0.061 -1.8259  0.3389 -5.0460
  516MOL0     H68111   0.928   3.528   0.294 -0.4009  1.4419  1.3548
  516MOL0     H68112   0.740   3.638   0.408  0.8037 -0.2381 -1.8800
  517MOL0     O68113   9.491   6.155   5.614  0.3289 -0.3007 -0.4415
  517MOL0     C68114   9.432   6.265   5.631 -0.5634 -0.5578 -0.6667
  517MOL0     O68115   9.496   6.380   5.632  0.6851 -0.1147 -0.1951
  517MOL0     C68116   9.635   6.386   5.629 -0.5335  0.3367  0.9938
  517MOL0     C68117   9.723   6.305   5.701  0.4451  0.1800 -0.9829
  517MOL0     C68118   9.865   6.334   5.700 -0.4913  0.5772 -0.1688
  517MOL0     C68119   9.915   6.448   5.631  0.0791 -0.4341 -0.3488
  517MOL0     O68120  10.050   6.482   5.632 -0.0744 -0.3837  0.1095
  517MOL0     C68121  10.160   6.394   5.635 -0.4394  0.3345  1.0209
  517MOL0     C68122  10.292   6.470   5.607  0.2416  0.0788  0.3823
  517MOL0     C68123  10.419   6.393   5.632 -0.4132 -0.8486 -0.2889
  517MOL0     C68124  10.539   6.477   5.590 -0.5856 -0.1084  0.3193
  517MOL0     C68125  10.677   6.406   5.583 -0.0984 -0.8032  0.0707
  517MOL0     C68126  10.727   6.354   5.715 -0.2273 -0.1109 -0.5271
  517MOL0     C68127  10.878   6.368   5.716  0.1190  0.7683  0.4044
  517MOL0     C68128  10.953   6.325   5.846  0.5269 -0.3089 -0.3712
  517MOL0     N68129  11.088   6.382   5.854 -0.7951 -0.6085  0.1356
  517MOL0     C68130  11.177   6.380   5.750 -0.0920  0.3273 -0.1595
  517MOL0     C68131  11.284   6.443   5.796 -0.3059  0.2623  0.8132
  517MOL0     C68132  11.423   6.443   5.731  0.0473 -0.3171  0.1759
  517MOL0     C68133  11.538   6.449   5.827 -1.0161 -0.3802 -0.8840
  517MOL0     C68134  11.525   6.316   5.909 -0.3788  0.3907  0.3080
  517MOL0     C68135  11.644   6.314   6.007  0.2100  0.5188  0.4188
  517MOL0     O68136  11.767   6.339   5.933  0.2668  0.4267 -0.5434
  517MOL0     C68137  11.834   6.235   5.872  0.9058  0.3886 -0.9270
  517MOL0     C68138  11.950   6.268   5.801  0.0392 -0.4548 -0.1549
  517MOL0     C68139  12.022   6.182   5.717  0.1148  0.2008  0.5396
  517MOL0     C68140  11.974   6.047   5.710 -0.6075  1.1646 -0.1204
  517MOL0     C68141  12.045   5.936   5.636  0.9059 -0.0862 -0.8370
  517MOL0     O68142  12.161   5.980   5.580  0.5729 -0.1345  0.1436
  517MOL0     C68143  12.274   5.899   5.600 -0.2242  0.2453  0.8678
  517MOL0     C68144  12.325   5.845   5.483 -0.3220  0.1276 -0.5936
  517MOL0     C68145  12.432   5.754   5.483 -0.2199  0.2133 -0.9588
  517MOL0     C68146  12.489   5.717   5.603 -0.3896 -0.3341 -0.2140
  517MOL0     O68147  12.588   5.626   5.598  0.7566  0.7836 -0.3656
  517MOL0     C68148  12.709   5.654   5.675 -0.6945  0.2629  0.4069
  517MOL0     C68149  12.813   5.713   5.581 -1.0481 -0.1485 -0.0047
  517MOL0     C68150  12.920   5.618   5.533  0.2753 -0.1117 -0.0518
  517MOL0     C68151  12.996   5.685   5.419  0.4307 -0.0466 -0.0693
  517MOL0     C68152  13.074   5.593   5.330 -0.9144 -0.2721  0.1226
  517MOL0     C68153  13.158   5.675   5.235 -0.1520  0.7064  0.2886
  517MOL0     C68154  13.170   5.586   5.106  1.0285 -0.2983 -0.5868
  517MOL0     C68155  13.231   5.447   5.124  0.0414  0.2998  0.7213
  517MOL0    Cl68156  13.195   5.369   4.962 -0.0514  0.3603  0.5651
  517MOL0     C68157  12.430   5.761   5.725 -0.2861 -0.8845 -0.3633
  517MOL0     C68158  12.315   5.849   5.725  0.5101 -0.5168 -0.5832
  517MOL0     O68159  11.995   5.823   5.645  0.4912 -0.3236  0.0530
  517MOL0     C68160  11.855   6.011   5.776  0.4358  0.1524 -0.5386
  517MOL0     C68161  11.786   6.102   5.859 -0.3032  0.0762 -0.2655
  517MOL0     N68162  11.266   6.497   5.921  0.1175 -0.6053  0.0742
  517MOL0     N68163  11.146   6.455   5.958  0.4388 -0.0534 -0.4797
  517MOL0     C68164   9.824   6.532   5.567  0.0717  0.9894  0.7215
  517MOL0     C68165   9.688   6.509   5.574 -0.6486  0.3474  0.4514
  517MOL0     C68166   9.281   6.264   5.648 -0.8413  0.1172 -0.0979
  517MOL0     C68167   9.213   6.372   5.598 -0.5535 -0.1507  0.9697
  517MOL0     C68168   9.076   6.372   5.568  0.2124 -0.7791  0.0658
  517MOL0     C68169   9.001   6.259   5.593 -0.3093  1.4993  0.7506
  517MOL0     O68170   8.865   6.255   5.572  0.2877  0.3470  0.0477
  517MOL0     C68171   8.777   6.157   5.631 -0.1443 -0.6082 -0.4077
  517MOL0     C68172   8.634   6.215   5.625  0.0871  0.4862  0.2765
  517MOL0     C68173   8.519   6.108   5.645 -0.1053 -0.2570  0.4076
  517MOL0     C68174   8.375   6.167   5.622  0.9448 -0.1214  0.0365
  517MOL0     C68175   8.293   6.060   5.575  0.8785 -1.2194  1.6006
  517MOL0     C68176   8.220   5.974   5.529 -1.3170  0.3395 -0.1319
  517MOL0     C68177   9.077   6.151   5.642  0.7820 -0.5148 -0.3327
  517MOL0     C68178   9.212   6.144   5.681 -0.0797 -0.5527 -0.6953
  517MOL0     H68179   9.687   6.218   5.755  0.7299  0.8275  0.2844
  517MOL0     H68180   9.926   6.268   5.761 -0.9671  1.4809  1.3427
  517MOL0     H68181  10.155   6.314   5.561 -0.8367 -0.6173  2.0542
  517MOL0     H68182  10.163   6.338   5.729 -3.2517 -2.1741 -0.2343
  517MOL0     H68183  10.291   6.566   5.660  1.1432 -0.0308  0.6101
  517MOL0     H68184  10.289   6.495   5.500  1.1575 -0.6829  0.1693
  517MOL0     H68185  10.433   6.312   5.561  1.8748 -0.6236 -0.1646
  517MOL0     H68186  10.425   6.364   5.737  0.5841  2.7043  0.7975
  517MOL0     H68187  10.523   6.520   5.490 -0.5903 -0.0082  0.3628
  517MOL0     H68188  10.544   6.573   5.642 -3.7028  0.6577 -0.5761
  517MOL0     H68189  10.741   6.483   5.540 -2.1712  1.2543  0.4775
  517MOL0     H68190  10.684   6.319   5.517 -0.0120  2.0348 -3.9840
  517MOL0     H68191  10.698   6.249   5.720 -1.1317  0.1056 -1.0413
  517MOL0     H68192  10.688   6.409   5.801  4.3536 -0.2746  1.9833
  517MOL0     H68193  10.927   6.318   5.632  3.5943  6.0040 -1.0968
  517MOL0     H68194  10.898   6.474   5.701 -1.9250  1.2536  0.7214
  517MOL0     H68195  10.950   6.221   5.882 -3.8020 -0.5873 -0.8985
  517MOL0     H68196  10.901   6.372   5.930 -1.0644  0.4693 -1.7175
  517MOL0     H68197  11.177   6.331   5.653 -3.2904  0.0294 -0.1173
  517MOL0     H68198  11.415   6.541   5.683  0.2986  0.1761  1.1164
  517MOL0     H68199  11.425   6.365   5.655 -0.0032 -1.1373  0.9917
  517MOL0     H68200  11.532   6.544   5.881 -0.8702 -0.2632 -1.0762
  517MOL0     H68201  11.630   6.437   5.769 -1.1047 -1.3030 -0.8582
  517MOL0     H68202  11.432   6.315   5.968 -1.0023 -1.3450 -0.6236
  517MOL0     H68203  11.521   6.232   5.839 -1.0649 -1.3141  2.2813
  517MOL0     H68204  11.656   6.221   6.062  0.9780 -0.0457 -0.6599
  517MOL0     H68205  11.630   6.392   6.082  0.0478  1.1969 -0.2980
  517MOL0     H68206  11.982   6.369   5.823  1.5723 -1.3003  1.8943
  517MOL0     H68207  12.107   6.226   5.666 -0.8787 -0.3143 -1.6760
  517MOL0     H68208  12.281   5.882   5.391 -2.6755 -3.8336 -1.2779
  517MOL0     H68209  12.478   5.715   5.393 -1.7080  0.5294 -1.8919
  517MOL0     H68210  12.748   5.562   5.718 -1.2080 -1.1480 -1.9444
  517MOL0     H68211  12.682   5.726   5.753  0.8249  0.6690  0.5867
  517MOL0     H68212  12.868   5.788   5.638 -0.1201 -0.1632 -0.8449
  517MOL0     H68213  12.761   5.762   5.498  0.8730 -1.5651 -2.1851
  517MOL0     H68214  12.872   5.522   5.510 -1.8272  1.1551 -1.2061
  517MOL0     H68215  12.998   5.596   5.606  1.4453 -2.0063 -1.7767
  517MOL0     H68216  12.913   5.736   5.370 -1.8042  1.4750  4.6658
  517MOL0     H68217  13.052   5.763   5.472 -2.5899  1.6753  0.8735
  517MOL0     H68218  12.998   5.531   5.282 -1.9531  3.4070 -3.5885
  517MOL0     H68219  13.137   5.539   5.402 -0.2713  2.5972  1.8900
  517MOL0     H68220  13.260   5.695   5.268  0.6399  0.4781 -1.9024
  517MOL0     H68221  13.117   5.773   5.211  0.2722  0.9369  0.4948
  517MOL0     H68222  13.068   5.574   5.069  0.3125  1.1990  0.7524
  517MOL0     H68223  13.224   5.641   5.028  0.5485  0.1104 -0.6310
  517MOL0     H68224  13.176   5.376   5.187 -3.0488 -0.1634 -2.1583
  517MOL0     H68225  13.338   5.450   5.146  0.8093 -0.2748 -2.3446
  517MOL0     H68226  12.468   5.733   5.822  4.4290 -0.6724 -1.9104
  517MOL0     H68227  12.264   5.879   5.816  2.4397  1.4046 -0.0550
  517MOL0     H68228  11.810   5.912   5.770 -1.0792  0.8624 -1.3769
  517MOL0     H68229  11.707   6.066   5.924  1.9853 -3.2802  0.9420
  517MOL0     H68230   9.863   6.623   5.523 -3.1857  0.9377 -2.7670
  517MOL0     H68231   9.612   6.575   5.534  0.6261  1.6212  0.0529
  517MOL0     H68232   9.259   6.467   5.573 -0.9559 -0.0227  0.7038
  517MOL0     H68233   9.039   6.465   5.525  1.7721 -0.1620  0.0062
  517MOL0     H68234   8.802   6.129   5.734  1.1694  1.5061 -0.0752
  517MOL0     H68235   8.795   6.072   5.565 -1.3909 -2.1917  1.2013
  517MOL0     H68236   8.625   6.276   5.715  2.0391  2.0413 -0.5012
  517MOL0     H68237   8.619   6.269   5.531 -1.4723  1.3318  0.9763
  517MOL0     H68238   8.526   6.063   5.744  3.2820 -0.7721  0.0371
  517MOL0     H68239   8.535   6.030   5.570  1.9454 -0.9804  1.5339
  517MOL0     H68240   8.335   6.211   5.714 -1.3408 -1.8355 -0.0513
  517MOL0     H68241   8.379   6.258   5.562 -3.1727  1.8769  2.3521
  517MOL0     H68242   8.178   5.883   5.491  1.8117 -1.8225  1.1996
  517MOL0     H68243   9.024   6.057   5.642  0.0393 -0.1303  1.3454
  517MOL0     H68244   9.250   6.044   5.698  3.1975  0.9204  1.5644
  518MOL0     O68245   9.594   6.688   1.440  0.3151 -0.4387 -0.1348
  518MOL0     C68246   9.513   6.636   1.513  0.7575  0.1344 -0.4633
  518MOL0     O68247   9.537   6.545   1.611 -0.3456  0.4072  0.2340
  518MOL0     C68248   9.660   6.544   1.683 -0.6483 -0.5566  0.3997
  518MOL0     C68249   9.673   6.450   1.780 -0.7146  0.5138  0.5841
  518MOL0     C68250   9.779   6.448   1.869  0.8371  0.2426 -0.0881
  518MOL0     C68251   9.881   6.533   1.859 -0.4871 -0.5347 -0.4424
  518MOL0     O68252   9.966   6.513   1.967 -0.0206 -0.4660 -0.1838
  518MOL0     C68253  10.108   6.521   1.960 -0.9908 -0.3769 -0.0693
  518MOL0     C68254  10.166   6.428   1.863  0.6192  0.8003  0.5566
  518MOL0     C68255  10.309   6.475   1.835  0.4836  0.0287  0.4304
  518MOL0     C68256  10.398   6.370   1.783 -0.3663  0.5318  0.2297
  518MOL0     C68257  10.535   6.414   1.758  0.1869  0.4163 -0.5883
  518MOL0     C68258  10.639   6.299   1.724 -0.6911  0.5135  0.3284
  518MOL0     C68259  10.587   6.202   1.614 -0.5547  0.1595  0.8611
  518MOL0     C68260  10.694   6.129   1.541  0.3929 -0.7007  0.5633
  518MOL0     N68261  10.789   6.215   1.466 -0.3248  0.1748  0.0439
  518MOL0     C68262  10.773   6.281   1.348 -0.3485 -0.1833  0.6760
  518MOL0     C68263  10.902   6.328   1.315  0.2966  0.5686  0.2414
  518MOL0     C68264  10.933   6.415   1.202  0.0927  0.0233 -0.1139
  518MOL0     C68265  11.080   6.400   1.164  0.5119  0.1724  0.2783
  518MOL0     C68266  11.103   6.264   1.096  0.6593 -0.2023  0.5412
  518MOL0     C68267  11.107   6.270   0.944 -0.0342  0.8248  0.3920
  518MOL0     O68268  10.986   6.316   0.888 -0.0287  0.3415  0.1743
  518MOL0     C68269  10.982   6.337   0.754  0.1414  0.6921  0.3913
  518MOL0     C68270  11.055   6.276   0.641  0.0015 -0.5252  0.3656
  518MOL0     C68271  11.018   6.309   0.510  0.4247  0.0484 -0.3513
  518MOL0     C68272  10.902   6.389   0.486 -0.0755  0.8615  0.2620
  518MOL0     C68273  10.864   6.403   0.343  0.4155 -0.0193  0.0336
  518MOL0     O68274  10.930   6.327   0.246  0.0404 -0.6215  0.7067
  518MOL0     C68275  10.912   6.355   0.117  0.3387 -0.1947  0.8803
  518MOL0     C68276  10.879   6.480   0.070 -0.1749  0.1040 -0.7061
  518MOL0     C68277  10.845   6.508  -0.059  0.1685 -0.1000  0.8046
  518MOL0     C68278  10.869   6.409  -0.160  0.1394  0.0644 -0.1373
  518MOL0     O68279  10.836   6.439  -0.291 -1.0827 -0.1948  0.0906
  518MOL0     C68280  10.775   6.566  -0.328 -0.6275  0.5528  0.6117
  518MOL0     C68281  10.716   6.552  -0.471  0.5914  0.4018 -0.3771
  518MOL0     C68282  10.617   6.440  -0.481 -0.0031  0.0258  0.2692
  518MOL0     C68283  10.483   6.472  -0.405  0.7291 -1.0476 -1.6114
  518MOL0     C68284  10.373   6.367  -0.436  0.2668 -0.5911 -0.7978
  518MOL0     C68285  10.233   6.391  -0.380 -0.4935 -0.2230  0.9632
  518MOL0     C68286  10.125   6.388  -0.496  0.2839 -0.5890 -0.3620
  518MOL0     C68287  10.129   6.513  -0.580  0.8550 -1.0658  0.7320
  518MOL0    Cl68288   9.986   6.527  -0.698  0.0374 -0.0219  0.0652
  518MOL0     C68289  10.899   6.284  -0.115 -0.4713 -0.4202 -0.7307
  518MOL0     C68290  10.925   6.257   0.025  0.1285 -0.5819 -0.3767
  518MOL0     O68291  10.765   6.463   0.325 -0.1300  0.1670 -0.1603
  518MOL0     C68292  10.834   6.442   0.593 -0.1324 -0.4730  0.0753
  518MOL0     C68293  10.875   6.417   0.726 -0.4229  0.0237 -0.9957
  518MOL0     N68294  10.984   6.270   1.410  0.3053  0.6767 -0.3805
  518MOL0     N68295  10.918   6.207   1.500 -0.1602  0.7641  0.7570
  518MOL0     C68296   9.888   6.631   1.760 -0.2398  0.7274 -1.0108
  518MOL0     C68297   9.772   6.637   1.678  0.0276 -0.7654  0.1284
  518MOL0     C68298   9.366   6.673   1.510 -0.4699 -0.3666 -0.2407
  518MOL0     C68299   9.271   6.600   1.586 -0.5688 -1.2297 -0.2100
  518MOL0     C68300   9.141   6.647   1.584 -0.2672  0.0783  0.8607
  518MOL0     C68301   9.093   6.753   1.503 -0.7202 -0.0592  0.6276
  518MOL0     O68302   8.958   6.778   1.484 -0.2809  0.2720  0.1418
  518MOL0     C68303   8.900   6.906   1.509 -0.2185  0.5591 -0.0033
  518MOL0     C68304   8.753   6.915   1.471 -0.5665 -0.0736 -1.0543
  518MOL0     C68305   8.728   6.911   1.321  0.6990 -0.7786  0.4782
  518MOL0     C68306   8.782   7.035   1.256  0.5716 -0.1821 -0.2120
  518MOL0     C68307   8.712   7.084   1.141  0.4549 -0.1112  0.7410
  518MOL0     C68308   8.638   7.114   1.046  0.1665 -0.2349  0.1102
  518MOL0     C68309   9.189   6.820   1.429 -1.0794  0.7428  0.2429
  518MOL0     C68310   9.325   6.787   1.442  0.4095  0.7145  0.7515
  518MOL0     H68311   9.603   6.367   1.774 -1.5952  1.1837  1.2815
  518MOL0     H68312   9.789   6.371   1.944 -3.1023  0.5498  1.0189
  518MOL0     H68313  10.160   6.499   2.053  1.1904  0.4202 -1.0456
  518MOL0     H68314  10.139   6.624   1.940  0.1445 -0.6931  0.0295
  518MOL0     H68315  10.114   6.438   1.767  0.6826  1.4690  0.5847
  518MOL0     H68316  10.159   6.324   1.896  0.0093  0.4726 -0.5720
  518MOL0     H68317  10.355   6.495   1.932  0.4995 -1.3177  0.7303
  518MOL0     H68318  10.304   6.558   1.764 -1.0010 -0.7216 -0.3895
  518MOL0     H68319  10.397   6.298   1.864 -0.0234 -1.3596 -1.3734
  518MOL0     H68320  10.363   6.321   1.691  1.5984 -0.3046 -0.1388
  518MOL0     H68321  10.569   6.472   1.844 -2.1787 -2.1459  2.3318
  518MOL0     H68322  10.530   6.477   1.669 -2.7427 -0.7562 -1.3572
  518MOL0     H68323  10.655   6.232   1.809 -0.6384 -1.9633 -1.4968
  518MOL0     H68324  10.734   6.351   1.707 -1.6571  1.7015 -1.8420
  518MOL0     H68325  10.532   6.121   1.663 -1.8455 -0.7608 -1.8904
  518MOL0     H68326  10.516   6.237   1.538 -0.7330 -1.1617  0.3976
  518MOL0     H68327  10.647   6.059   1.470  1.0690 -0.2911 -0.3049
  518MOL0     H68328  10.744   6.050   1.598 -0.7683 -3.9940 -2.5685
  518MOL0     H68329  10.687   6.304   1.287  1.2212  0.0652 -1.5790
  518MOL0     H68330  10.919   6.519   1.232  1.6120 -0.5107  2.7484
  518MOL0     H68331  10.867   6.382   1.121  1.4347 -2.7108 -0.2160
  518MOL0     H68332  11.145   6.414   1.251  1.4888 -1.5163 -0.1416
  518MOL0     H68333  11.091   6.472   1.083 -0.3752 -1.8715 -1.7467
  518MOL0     H68334  11.201   6.233   1.134  0.3182  1.5475  3.0853
  518MOL0     H68335  11.027   6.187   1.108 -0.0497  0.2013 -1.0763
  518MOL0     H68336  11.144   6.179   0.896 -2.4504  0.3224 -0.6822
  518MOL0     H68337  11.191   6.336   0.919  1.2447 -0.2402  1.7074
  518MOL0     H68338  11.137   6.206   0.648  1.3487  0.8244 -1.1501
  518MOL0     H68339  11.087   6.282   0.431  2.5424  2.3019  0.6073
  518MOL0     H68340  10.870   6.566   0.135 -3.9986 -2.8490  3.2647
  518MOL0     H68341  10.804   6.606  -0.084 -1.1440 -0.6213  0.8013
  518MOL0     H68342  10.847   6.648  -0.324 -1.0616  1.2013 -2.5321
  518MOL0     H68343  10.692   6.591  -0.262  0.1505  0.7430  1.5386
  518MOL0     H68344  10.793   6.541  -0.548  1.6939 -2.5494  0.9858
  518MOL0     H68345  10.652   6.638  -0.492  0.2626  0.7222  1.7636
  518MOL0     H68346  10.654   6.339  -0.461 -0.4109 -0.4436 -1.1904
  518MOL0     H68347  10.584   6.429  -0.585 -0.7879 -3.5499  0.7813
  518MOL0     H68348  10.491   6.461  -0.296  5.1840 -0.9060 -1.7138
  518MOL0     H68349  10.432   6.567  -0.421 -1.3801 -2.0053 -0.8959
  518MOL0     H68350  10.413   6.273  -0.397 -1.8610 -1.3292 -0.2838
  518MOL0     H68351  10.367   6.369  -0.545 -1.5447  3.5163 -0.8104
  518MOL0     H68352  10.226   6.494  -0.345 -1.0180  0.0872 -0.0075
  518MOL0     H68353  10.213   6.322  -0.298  0.6651  0.0913  1.5313
  518MOL0     H68354  10.129   6.300  -0.560  0.1450 -1.1920  0.4543
  518MOL0     H68355  10.026   6.392  -0.451 -0.4560  1.4472 -2.0209
  518MOL0     H68356  10.223   6.511  -0.635  1.4201 -3.2288  1.6466
  518MOL0     H68357  10.119   6.598  -0.513 -0.9489 -1.5265  1.1100
  518MOL0     H68358  10.919   6.213  -0.195 -1.3370 -1.1275 -0.3275
  518MOL0     H68359  10.958   6.159   0.059  3.1244  0.2707 -0.5067
  518MOL0     H68360  10.753   6.514   0.588  0.9158  0.6740 -3.7847
  518MOL0     H68361  10.822   6.467   0.806  0.2879  1.0269 -1.1308
  518MOL0     H68362   9.960   6.711   1.747  0.5359  0.0545 -0.9020
  518MOL0     H68363   9.767   6.715   1.603 -4.5036  0.1638  1.0640
  518MOL0     H68364   9.290   6.516   1.653 -2.5902 -1.2026  0.4602
  518MOL0     H68365   9.065   6.593   1.639  0.7344  1.0200  3.3057
  518MOL0     H68366   8.964   6.988   1.475  1.3841  0.2367  2.0392
  518MOL0     H68367   8.910   6.933   1.615 -1.9701  1.3097  0.0081
  518MOL0     H68368   8.714   6.826   1.520 -0.4479 -0.6061 -1.9092
  518MOL0     H68369   8.711   7.005   1.518  0.6809  0.8705 -1.6621
  518MOL0     H68370   8.626   6.877   1.300 -0.6764  1.4228  3.0220
  518MOL0     H68371   8.775   6.824   1.274 -0.9837 -1.0094 -0.8842
  518MOL0     H68372   8.796   7.115   1.329 -0.7867 -2.2544  2.5228
  518MOL0     H68373   8.886   7.006   1.236  0.6079 -0.7823  0.7940
  518MOL0     H68374   8.572   7.155   0.973  0.6997  0.2877 -0.0906
  518MOL0     H68375   9.149   6.893   1.360  1.3421 -1.2543 -3.6762
  518MOL0     H68376   9.401   6.849   1.394  1.4386 -2.2007 -1.8299
  519MOL0     O68377  10.327   8.997   2.966  0.2162  0.2755 -0.1232
  519MOL0     C68378  10.310   8.918   3.057  0.5065  1.5390 -0.4588
  519MOL0     O68379  10.394   8.811   3.084 -0.1187 -0.3250 -0.1314
  519MOL0     C68380  10.517   8.808   3.011 -0.0395  1.0714  0.1158
  519MOL0     C68381  10.587   8.904   2.954  0.0652 -0.3958 -0.7652
  519MOL0     C68382  10.707   8.883   2.885  0.0822 -0.1551 -0.1871
  519MOL0     C68383  10.763   8.760   2.855  0.3754 -0.4778 -0.2167
  519MOL0     O68384  10.870   8.749   2.779 -0.7199  0.2528 -0.4863
  519MOL0     C68385  10.918   8.618   2.747  0.2951 -0.5365  0.7636
  519MOL0     C68386  11.039   8.609   2.660  0.3069  0.3638 -0.6475
  519MOL0     C68387  11.100   8.472   2.684 -0.0871 -0.6634  0.9085
  519MOL0     C68388  11.202   8.438   2.576 -0.0099 -0.2165 -1.3430
  519MOL0     C68389  11.253   8.298   2.603 -0.3907 -0.0159 -0.4191
  519MOL0     C68390  11.162   8.184   2.570  0.7347 -0.1834 -0.7061
  519MOL0     C68391  11.242   8.060   2.554  0.5461 -0.0660 -0.4145
  519MOL0     C68392  11.170   7.932   2.573 -0.3859 -0.0125 -0.1083
  519MOL0     N68393  11.264   7.817   2.573 -0.5211  0.1116  0.1009
  519MOL0     C68394  11.348   7.783   2.474  0.6702  0.4786  0.1972
  519MOL0     C68395  11.438   7.705   2.524 -0.7972  1.2149 -0.3012
  519MOL0     C68396  11.551   7.651   2.437 -0.2011  0.6788 -0.1760
  519MOL0     C68397  11.684   7.622   2.506 -0.9848 -1.1078 -0.0522
  519MOL0     C68398  11.777   7.745   2.528  0.2128  0.4418  0.4483
  519MOL0     C68399  11.921   7.688   2.562  1.4044  1.0086  0.2609
  519MOL0     O68400  11.920   7.587   2.665 -0.7091  0.0455  0.6314
  519MOL0     C68401  11.926   7.614   2.798 -0.1609 -0.4491  0.2113
  519MOL0     C68402  11.956   7.506   2.881  0.0970 -0.1108  0.7733
  519MOL0     C68403  11.967   7.514   3.019 -0.7215  0.4896 -0.1402
  519MOL0     C68404  11.946   7.638   3.070  0.2218 -0.0161 -0.3081
  519MOL0     C68405  11.958   7.659   3.223  0.4495  0.6886  0.3684
  519MOL0     O68406  11.975   7.781   3.258 -0.5502 -0.2658 -0.5504
  519MOL0     C68407  11.966   7.818   3.391  0.2544  0.3990  1.4464
  519MOL0     C68408  11.869   7.772   3.482  1.0488  1.1215  0.0302
  519MOL0     C68409  11.888   7.806   3.620  0.2117  0.4255 -0.3005
  519MOL0     C68410  11.987   7.889   3.666 -0.2385 -0.6972  0.4639
  519MOL0     O68411  11.989   7.928   3.796 -1.2716 -0.1694  0.0884
  519MOL0     C68412  12.097   7.872   3.870 -0.7558  0.1042  0.2534
  519MOL0     C68413  12.175   7.998   3.904  0.0037  0.9173 -0.1613
  519MOL0     C68414  12.118   8.079   4.024  0.5495 -0.1897  1.1139
  519MOL0     C68415  12.114   8.230   3.983 -0.6675  0.4070  0.1394
  519MOL0     C68416  12.061   8.318   4.089  0.0345 -1.0344  0.0412
  519MOL0     C68417  12.044   8.468   4.035 -0.2617  0.5031 -0.1352
  519MOL0     C68418  11.952   8.547   4.123  0.7081 -0.2577 -0.0014
  519MOL0     C68419  11.801   8.510   4.077  0.0091  0.0745 -0.0810
  519MOL0    Cl68420  11.690   8.567   4.202  0.4432  0.3067 -0.3172
  519MOL0     C68421  12.088   7.921   3.577  0.1986 -0.0195 -0.3664
  519MOL0     C68422  12.076   7.883   3.437 -0.3579 -0.3787 -0.0141
  519MOL0     O68423  11.931   7.557   3.291  0.3040 -0.4181 -0.5413
  519MOL0     C68424  11.913   7.750   2.987 -0.4098 -0.2977 -0.1309
  519MOL0     C68425  11.906   7.742   2.855  0.3963 -0.4079  0.2337
  519MOL0     N68426  11.411   7.675   2.656 -0.8425 -0.3494  0.6885
  519MOL0     N68427  11.308   7.744   2.684 -0.4359 -0.3852 -0.9798
  519MOL0     C68428  10.692   8.654   2.911  0.8341  0.0500  0.2120
  519MOL0     C68429  10.574   8.678   2.993  0.9900 -0.8498 -0.0032
  519MOL0     C68430  10.176   8.927   3.132  0.3392 -0.6876  0.0459
  519MOL0     C68431  10.124   8.813   3.195  0.0141  0.5123  0.5982
  519MOL0     C68432  10.001   8.819   3.252  0.2117 -0.4172 -1.3922
  519MOL0     C68433   9.939   8.943   3.256 -0.8525 -0.6300 -0.3313
  519MOL0     O68434   9.813   8.968   3.313 -0.4492  0.3288  0.3617
  519MOL0     C68435   9.804   8.960   3.459  0.0709  0.1927  0.5573
  519MOL0     C68436   9.663   8.994   3.514  0.1040  0.1380  0.4650
  519MOL0     C68437   9.599   9.121   3.457 -0.0307 -0.0721 -0.0377
  519MOL0     C68438   9.447   9.119   3.423 -0.7751 -0.0667  0.2121
  519MOL0     C68439   9.367   9.115   3.541  0.0465  0.2771 -0.4811
  519MOL0     C68440   9.318   9.110   3.655 -0.2108 -0.5531 -0.3649
  519MOL0     C68441   9.993   9.064   3.210  0.1510  0.7035  0.3627
  519MOL0     C68442  10.112   9.051   3.128 -0.0007 -0.0741  0.4763
  519MOL0     H68443  10.556   9.004   2.984 -3.1305 -1.1652 -1.1388
  519MOL0     H68444  10.748   8.979   2.853  0.0781  0.3286  1.1689
  519MOL0     H68445  10.833   8.575   2.694 -1.1106  1.8021  0.9794
  519MOL0     H68446  10.936   8.558   2.837 -2.8290 -1.6013  0.8083
  519MOL0     H68447  11.106   8.691   2.689  0.0341 -0.7647  3.9428
  519MOL0     H68448  11.002   8.621   2.558  0.8156  3.4091 -0.5622
  519MOL0     H68449  11.024   8.395   2.698  0.0960 -1.1174 -0.4804
  519MOL0     H68450  11.147   8.478   2.782 -2.1361 -0.8827  1.9728
  519MOL0     H68451  11.155   8.448   2.477 -0.4393  3.0847 -0.9118
  519MOL0     H68452  11.280   8.513   2.570 -0.8091  0.5927 -5.7714
  519MOL0     H68453  11.279   8.284   2.708 -1.9720  3.1398  0.5236
  519MOL0     H68454  11.340   8.290   2.536  1.0507 -0.0084  1.3779
  519MOL0     H68455  11.116   8.218   2.477 -0.1546  1.3818  0.2694
  519MOL0     H68456  11.087   8.180   2.648 -1.3804 -1.2333 -2.6698
  519MOL0     H68457  11.278   8.058   2.451 -0.2226 -3.9705 -0.7870
  519MOL0     H68458  11.325   8.083   2.621  1.1402  5.1330 -2.5249
  519MOL0     H68459  11.096   7.926   2.492 -2.1526  1.7708  1.2896
  519MOL0     H68460  11.127   7.947   2.672  3.1133  2.0047  1.2906
  519MOL0     H68461  11.347   7.834   2.378  1.6605 -0.9402 -0.6026
  519MOL0     H68462  11.570   7.715   2.350 -0.5775  0.9538 -0.0624
  519MOL0     H68463  11.523   7.556   2.391 -1.1385  0.5700  0.5885
  519MOL0     H68464  11.733   7.543   2.448 -0.8372 -0.6819 -0.5192
  519MOL0     H68465  11.663   7.586   2.607 -0.3180 -0.7202  0.2329
  519MOL0     H68466  11.786   7.799   2.433 -0.2383  2.7846  1.6516
  519MOL0     H68467  11.737   7.812   2.605  1.1363  1.2842  0.2101
  519MOL0     H68468  11.989   7.772   2.580  1.1130  1.7993 -1.9670
  519MOL0     H68469  11.964   7.646   2.471 -2.0982  0.6925 -1.4132
  519MOL0     H68470  11.977   7.405   2.846 -2.9264 -0.7143  0.4164
  519MOL0     H68471  11.996   7.433   3.085  0.4738  1.2230  0.2591
  519MOL0     H68472  11.789   7.710   3.442  2.1219  1.3794 -2.7007
  519MOL0     H68473  11.810   7.796   3.695  0.3471  0.6871 -0.1220
  519MOL0     H68474  12.155   7.799   3.813  2.1654  2.7114 -0.3242
  519MOL0     H68475  12.062   7.832   3.966 -1.5396 -2.6482 -1.0802
  519MOL0     H68476  12.187   8.062   3.816 -1.3325  0.3949 -0.7615
  519MOL0     H68477  12.283   7.985   3.919  0.2079  3.1066  0.6135
  519MOL0     H68478  12.197   8.076   4.100  3.0691 -3.8408 -1.3110
  519MOL0     H68479  12.026   8.047   4.073  1.3295  0.6296  3.2204
  519MOL0     H68480  12.213   8.266   3.954 -1.0141 -0.1865 -1.9591
  519MOL0     H68481  12.051   8.241   3.894  2.1547  0.3984 -2.0229
  519MOL0     H68482  12.123   8.308   4.179  0.8365  0.3818 -0.3254
  519MOL0     H68483  11.966   8.277   4.124 -0.9012  3.8247  4.2245
  519MOL0     H68484  12.008   8.462   3.931  1.5804  3.2507 -1.0259
  519MOL0     H68485  12.147   8.505   4.034  1.6401 -3.9518  2.1224
  519MOL0     H68486  11.954   8.528   4.231  1.1383  3.1647  0.7250
  519MOL0     H68487  11.981   8.652   4.112  0.0522  0.2961  2.7520
  519MOL0     H68488  11.795   8.402   4.060  1.3902 -0.0920  0.3906
  519MOL0     H68489  11.776   8.567   3.986  0.5101 -1.5146 -1.2449
  519MOL0     H68490  12.172   7.978   3.615 -1.3849  1.6692  0.7507
  519MOL0     H68491  12.163   7.904   3.375  1.7491 -0.5692  2.6636
  519MOL0     H68492  11.904   7.841   3.047  0.2879 -1.2176  1.4424
  519MOL0     H68493  11.890   7.831   2.794  1.7690  1.5785  2.5616
  519MOL0     H68494  10.715   8.550   2.893 -3.2339 -0.8327 -1.0247
  519MOL0     H68495  10.526   8.597   3.048 -0.8734  0.3044  0.1616
  519MOL0     H68496  10.181   8.722   3.184  2.4677  2.1391 -1.2755
  519MOL0     H68497   9.958   8.731   3.299  1.9240 -0.6690 -0.1908
  519MOL0     H68498   9.884   9.026   3.493  0.1567  1.2485 -1.5757
  519MOL0     H68499   9.834   8.864   3.503  1.6983  0.1699 -0.5158
  519MOL0     H68500   9.609   8.906   3.477 -0.3841  1.6124 -2.5884
  519MOL0     H68501   9.664   8.993   3.624  1.5726 -0.8580  0.4667
  519MOL0     H68502   9.660   9.152   3.372  0.3994  0.7889  0.5704
  519MOL0     H68503   9.602   9.203   3.529 -1.9596  0.4192 -0.4534
  519MOL0     H68504   9.438   9.215   3.371  0.6495 -0.5541 -0.9924
  519MOL0     H68505   9.426   9.035   3.357 -3.2901  0.8815 -0.3197
  519MOL0     H68506   9.253   9.126   3.738 -0.6854 -0.1119 -0.8166
  519MOL0     H68507   9.940   9.157   3.224 -3.3215 -1.0486 -0.0844
  519MOL0     H68508  10.156   9.128   3.066  1.9558 -2.4141 -1.2416
  520MOL0     O68509   3.038   3.516   4.206 -0.0270 -0.0417 -0.1152
  520MOL0     C68510   3.064   3.592   4.302 -0.2837  0.1673 -0.0269
  520MOL0     O68511   3.189   3.624   4.346  0.0495  0.6372 -0.4599
  520MOL0     C68512   3.301   3.591   4.278  0.7715  0.4914 -1.0548
  520MOL0     C68513   3.320   3.471   4.207 -0.8446  0.8692  0.0557
  520MOL0     C68514   3.458   3.440   4.156  0.2800 -0.5585  0.0876
  520MOL0     C68515   3.564   3.528   4.180 -0.2317  1.1064 -0.1145
  520MOL0     O68516   3.681   3.504   4.108  0.1295 -0.1286 -0.0797
  520MOL0     C68517   3.765   3.617   4.102  1.0019  0.3691  0.4683
  520MOL0     C68518   3.861   3.596   3.980 -0.4788 -0.1900 -0.0115
  520MOL0     C68519   3.945   3.469   4.009 -0.1624 -0.6348  0.2532
  520MOL0     C68520   4.084   3.477   3.935  0.2180 -0.5668 -0.9542
  520MOL0     C68521   4.181   3.578   3.966 -0.6055 -0.1968  0.3076
  520MOL0     C68522   4.216   3.596   4.112  0.8296 -0.7150  0.0802
  520MOL0     C68523   4.326   3.692   4.132 -0.3534  0.6327 -0.6030
  520MOL0     C68524   4.290   3.831   4.176  0.1554  0.0778 -0.2413
  520MOL0     N68525   4.201   3.897   4.082  0.4005 -0.5492  0.4751
  520MOL0     C68526   4.062   3.877   4.056  0.6563  1.1090 -0.6957
  520MOL0     C68527   4.019   3.960   3.960 -0.5058 -0.8175  0.7888
  520MOL0     C68528   3.871   3.981   3.929 -0.7463 -0.0854 -0.4359
  520MOL0     C68529   3.803   4.069   4.035  0.5429 -0.8629 -0.1566
  520MOL0     C68530   3.665   4.096   3.983  0.5074 -0.2260  0.5729
  520MOL0     C68531   3.600   4.229   4.039  0.0574  1.2805 -0.1743
  520MOL0     O68532   3.497   4.288   3.961  1.0608  0.1251  0.9152
  520MOL0     C68533   3.392   4.349   4.019 -0.1375 -0.7360 -0.3511
  520MOL0     C68534   3.400   4.391   4.153 -0.3771 -0.6600  0.4905
  520MOL0     C68535   3.297   4.442   4.221  0.4089 -0.7713  0.0223
  520MOL0     C68536   3.166   4.456   4.152 -0.8742 -0.7490 -0.3570
  520MOL0     C68537   3.047   4.503   4.226 -0.7843 -0.1901  0.2386
  520MOL0     O68538   2.927   4.494   4.157 -0.5354 -1.2034 -0.3689
  520MOL0     C68539   2.807   4.544   4.200 -0.0306  0.6439  0.5302
  520MOL0     C68540   2.704   4.522   4.107  0.5610 -0.0697  0.2169
  520MOL0     C68541   2.566   4.544   4.138  1.0755 -0.1069 -0.5126
  520MOL0     C68542   2.535   4.617   4.258  0.4414  1.0910  0.2706
  520MOL0     O68543   2.404   4.657   4.293  0.2637 -0.3481  0.3998
  520MOL0     C68544   2.302   4.645   4.189  0.2042 -0.3511  0.6783
  520MOL0     C68545   2.164   4.673   4.261 -0.0735  0.2806  0.7138
  520MOL0     C68546   2.050   4.698   4.161  0.1032  0.0029 -0.8845
  520MOL0     C68547   1.929   4.708   4.236 -0.7154 -0.2744 -0.8177
  520MOL0     C68548   1.803   4.732   4.156  0.2392  0.2180  0.9091
  520MOL0     C68549   1.684   4.709   4.251  0.2617  0.1260  0.0898
  520MOL0     C68550   1.563   4.710   4.167  0.2558  0.0721 -1.8667
  520MOL0     C68551   1.428   4.683   4.253  0.2276  0.3798  1.2570
  520MOL0    Cl68552   1.271   4.705   4.173 -0.2585 -0.7009  0.5823
  520MOL0     C68553   2.647   4.652   4.333  0.6270  0.1864 -0.4374
  520MOL0     C68554   2.775   4.613   4.311 -0.4815  0.1983  0.6684
  520MOL0     O68555   3.061   4.533   4.341 -0.1602 -0.0815 -0.5750
  520MOL0     C68556   3.167   4.420   4.012  0.3404 -0.4112 -0.7532
  520MOL0     C68557   3.274   4.368   3.946 -0.2123  0.2080  0.4839
  520MOL0     N68558   4.132   4.029   3.922 -0.6981 -0.3946  0.5381
  520MOL0     N68559   4.236   3.996   3.997 -0.1445 -0.0032 -0.8118
  520MOL0     C68560   3.533   3.645   4.253 -0.1828 -0.4015 -0.8113
  520MOL0     C68561   3.405   3.678   4.294 -0.2460  0.2030 -0.4138
  520MOL0     C68562   2.945   3.637   4.386  0.2078  0.4045 -0.7256
  520MOL0     C68563   2.963   3.737   4.486 -0.8746  0.0391 -0.4729
  520MOL0     C68564   2.869   3.755   4.583  0.2867  0.0264  0.5373
  520MOL0     C68565   2.745   3.691   4.582 -0.1935 -0.7344  0.1258
  520MOL0     O68566   2.662   3.724   4.689 -0.1180 -0.0852  1.2532
  520MOL0     C68567   2.537   3.651   4.696  0.5742 -0.1658 -0.0724
  520MOL0     C68568   2.448   3.691   4.819  0.7377  0.5726  0.5430
  520MOL0     C68569   2.347   3.578   4.855  0.1305  0.8385 -0.1386
  520MOL0     C68570   2.320   3.569   5.007  0.0295  0.3974 -0.7679
  520MOL0     C68571   2.207   3.479   5.043  0.1020 -0.1943 -0.3518
  520MOL0     C68572   2.131   3.395   5.084 -0.1964 -0.0007  0.1524
  520MOL0     C68573   2.711   3.622   4.471 -0.2854  0.0402  0.0437
  520MOL0     C68574   2.813   3.577   4.390 -0.7032  0.9569 -0.0994
  520MOL0     H68575   3.235   3.408   4.185 -2.1354  2.8620 -0.9004
  520MOL0     H68576   3.485   3.351   4.099 -0.0140 -1.0488  0.7009
  520MOL0     H68577   3.822   3.643   4.192  1.8328 -0.6355  0.2496
  520MOL0     H68578   3.704   3.703   4.073 -1.9204 -1.9960 -1.0273
  520MOL0     H68579   3.914   3.690   3.961  0.2958 -0.7664 -0.8196
  520MOL0     H68580   3.811   3.568   3.886  1.0165 -1.3194 -0.5296
  520MOL0     H68581   3.893   3.375   3.987 -2.0696  0.0358  1.6266
  520MOL0     H68582   3.978   3.468   4.113  2.2553  2.1389 -0.3525
  520MOL0     H68583   4.135   3.381   3.945  0.5340 -0.5224 -2.0113
  520MOL0     H68584   4.055   3.492   3.830  0.5872 -0.7407 -1.0818
  520MOL0     H68585   4.134   3.669   3.929 -1.4768 -0.2512  1.2416
  520MOL0     H68586   4.276   3.555   3.917  0.1705  1.4443  0.9695
  520MOL0     H68587   4.234   3.493   4.143 -1.3532 -0.2180  3.4836
  520MOL0     H68588   4.126   3.632   4.163  1.2887  0.2520  0.2416
  520MOL0     H68589   4.387   3.652   4.213 -0.9330 -1.2954 -1.0584
  520MOL0     H68590   4.384   3.697   4.039 -1.1410 -0.9689 -1.2343
  520MOL0     H68591   4.378   3.894   4.187  1.0253 -1.0309 -0.6695
  520MOL0     H68592   4.228   3.820   4.266 -0.3432  0.2311 -0.5601
  520MOL0     H68593   3.997   3.812   4.114 -0.9577  3.2769  0.0389
  520MOL0     H68594   3.813   3.889   3.921 -1.0025  0.0858 -0.5726
  520MOL0     H68595   3.876   4.043   3.839  0.0657 -0.5472 -0.7133
  520MOL0     H68596   3.863   4.161   4.041  0.9215 -1.1852  1.5378
  520MOL0     H68597   3.812   4.021   4.132  0.5459  0.8903  0.7625
  520MOL0     H68598   3.654   4.102   3.874  0.9031 -2.2454  0.3939
  520MOL0     H68599   3.600   4.010   4.001 -0.3748 -0.0161 -1.3544
  520MOL0     H68600   3.677   4.307   4.030  0.7967  0.3371 -3.0441
  520MOL0     H68601   3.568   4.203   4.141  1.7768  0.4189  0.1877
  520MOL0     H68602   3.486   4.355   4.209  0.1399 -2.0819 -1.1377
  520MOL0     H68603   3.316   4.484   4.319 -3.1938  3.0459 -0.6352
  520MOL0     H68604   2.731   4.471   4.014 -0.5734  2.1967 -1.4383
  520MOL0     H68605   2.499   4.511   4.060 -0.6630  0.4173  0.7026
  520MOL0     H68606   2.293   4.545   4.144 -0.7134  0.3686 -0.8068
  520MOL0     H68607   2.320   4.728   4.120  3.3264  0.0622  1.8037
  520MOL0     H68608   2.162   4.762   4.325 -0.8206  0.1441  0.8881
  520MOL0     H68609   2.142   4.584   4.320  2.2152 -1.8190 -1.4198
  520MOL0     H68610   2.049   4.616   4.088 -2.1783 -0.3348 -0.5726
  520MOL0     H68611   2.072   4.793   4.112  2.3046  0.1695  0.3552
  520MOL0     H68612   1.907   4.614   4.288 -2.0182  2.0052  3.0822
  520MOL0     H68613   1.947   4.783   4.313  4.0252 -1.4897 -0.4646
  520MOL0     H68614   1.794   4.651   4.084  2.4269  1.2292 -0.6008
  520MOL0     H68615   1.792   4.827   4.102 -0.9597  0.8475  2.1792
  520MOL0     H68616   1.686   4.790   4.324  3.0364  1.0312 -0.8797
  520MOL0     H68617   1.690   4.613   4.303 -1.9372  0.2475  0.6533
  520MOL0     H68618   1.542   4.805   4.117 -0.8130  0.2699 -1.0777
  520MOL0     H68619   1.573   4.627   4.097 -1.4743 -1.5645 -0.2936
  520MOL0     H68620   1.430   4.730   4.351 -2.0084  1.0772  1.0323
  520MOL0     H68621   1.429   4.575   4.269 -1.2183 -0.2199 -1.8586
  520MOL0     H68622   2.624   4.708   4.423 -0.0664  0.9285 -1.0568
  520MOL0     H68623   2.851   4.637   4.385  1.7131 -0.5295 -1.2462
  520MOL0     H68624   3.071   4.428   3.961 -0.4048 -2.4204  0.2339
  520MOL0     H68625   3.264   4.330   3.845 -0.2981 -0.1517  0.6257
  520MOL0     H68626   3.606   3.714   4.294 -0.0282 -2.4055  2.7027
  520MOL0     H68627   3.389   3.769   4.352  0.0804  1.0374 -1.6104
  520MOL0     H68628   3.055   3.788   4.511 -1.0860  0.5558 -0.7259
  520MOL0     H68629   2.888   3.831   4.658 -0.5873  0.3521  0.4430
  520MOL0     H68630   2.581   3.553   4.720  1.4646  1.0346  3.9553
  520MOL0     H68631   2.480   3.650   4.603  1.5897 -1.4484 -0.7101
  520MOL0     H68632   2.523   3.727   4.889  0.6961  0.9300  0.4066
  520MOL0     H68633   2.396   3.785   4.797 -0.1704 -0.3702 -1.6115
  520MOL0     H68634   2.393   3.483   4.829 -0.9077 -0.1742  1.5132
  520MOL0     H68635   2.253   3.578   4.800  0.8198 -0.9466 -1.3899
  520MOL0     H68636   2.413   3.523   5.042  0.5329  1.4474 -0.6890
  520MOL0     H68637   2.304   3.661   5.064  0.6364 -0.7963  1.4841
  520MOL0     H68638   2.069   3.323   5.134 -0.7204  1.3771  1.6110
  520MOL0     H68639   2.611   3.586   4.450  0.3253 -0.8835 -1.4011
  520MOL0     H68640   2.794   3.512   4.305  0.0055 -0.3305  0.6899
  521MOL0     O68641   2.215   4.721   3.887 -0.1909  0.8948 -0.0137
  521MOL0     C68642   2.218   4.637   3.797 -0.5100  0.0486 -0.2402
  521MOL0     O68643   2.115   4.559   3.760 -0.2475  0.1570 -0.2067
  521MOL0     C68644   1.982   4.602   3.777 -0.0445  0.3510 -0.0025
  521MOL0     C68645   1.934   4.735   3.811 -0.2080  0.0472  0.4928
  521MOL0     C68646   1.797   4.771   3.822 -0.2742 -0.9024  0.9538
  521MOL0     C68647   1.702   4.667   3.814  0.2569 -0.7143 -0.3689
  521MOL0     O68648   1.564   4.685   3.826  0.0382  0.0984  0.0997
  521MOL0     C68649   1.514   4.814   3.782  0.4360  0.5212 -0.2020
  521MOL0     C68650   1.361   4.796   3.779 -0.3965  0.3225 -0.8040
  521MOL0     C68651   1.294   4.927   3.749  0.5831 -0.3556  0.2459
  521MOL0     C68652   1.142   4.910   3.768  0.5848  0.3723 -1.2640
  521MOL0     C68653   1.087   5.052   3.808 -0.2906  0.4338  1.2111
  521MOL0     C68654   0.936   5.055   3.817 -0.2944 -0.6158 -0.2650
  521MOL0     C68655   0.888   5.201   3.833 -0.5779  0.0027  0.3574
  521MOL0     C68656   0.747   5.235   3.884  0.3187  0.0020 -0.1591
  521MOL0     N68657   0.648   5.136   3.819 -0.1290  0.7046  0.4243
  521MOL0     C68658   0.610   5.016   3.879 -0.7600 -0.0878  0.3964
  521MOL0     C68659   0.529   4.962   3.787 -0.7295 -0.3244  0.4922
  521MOL0     C68660   0.435   4.854   3.811  0.4702  0.1392 -0.1679
  521MOL0     C68661   0.283   4.893   3.801 -0.9680  0.3921  0.8990
  521MOL0     C68662   0.195   4.775   3.840  1.4007 -0.4776 -0.1248
  521MOL0     C68663   0.051   4.787   3.776  0.8501  0.2296  0.1961
  521MOL0     O68664  -0.018   4.914   3.795  0.2138 -0.2815  0.6446
  521MOL0     C68665  -0.149   4.905   3.778  0.0623  0.5357  1.0354
  521MOL0     C68666  -0.234   4.847   3.877  0.1193 -0.1988 -0.0865
  521MOL0     C68667  -0.365   4.851   3.861 -0.8217 -0.7018  0.1220
  521MOL0     C68668  -0.420   4.903   3.746 -0.0031  0.1784 -0.2531
  521MOL0     C68669  -0.561   4.874   3.731 -0.3637  0.6763 -1.1559
  521MOL0     O68670  -0.617   4.768   3.794 -0.1542 -0.4458 -0.4258
  521MOL0     C68671  -0.754   4.741   3.765  0.5083  0.0607  0.9966
  521MOL0     C68672  -0.862   4.827   3.795  0.2072  0.7056  0.5971
  521MOL0     C68673  -0.989   4.785   3.798  1.1609  0.8581  0.4280
  521MOL0     C68674  -1.026   4.661   3.750 -1.0496  0.1449  0.1619
  521MOL0     O68675  -1.159   4.629   3.761  0.0488 -1.0468  0.0088
  521MOL0     C68676  -1.200   4.504   3.715  0.3240  0.3130  0.0894
  521MOL0     C68677  -1.350   4.468   3.712 -0.7614 -0.1956  0.3405
  521MOL0     C68678  -1.437   4.565   3.621  0.5527  0.3473 -0.6964
  521MOL0     C68679  -1.585   4.521   3.638  1.4508 -0.1983 -0.0219
  521MOL0     C68680  -1.622   4.411   3.531 -0.1214  0.0063 -1.0741
  521MOL0     C68681  -1.780   4.401   3.542 -0.0722  0.4039  0.3884
  521MOL0     C68682  -1.817   4.315   3.425  0.4093  0.9375  0.2998
  521MOL0     C68683  -1.965   4.286   3.430  0.0601  0.1524  0.7475
  521MOL0    Cl68684  -2.007   4.170   3.558 -0.0904  0.2184 -0.3807
  521MOL0     C68685  -0.918   4.576   3.704 -0.0750  0.0035 -0.3227
  521MOL0     C68686  -0.787   4.617   3.711  0.0379 -0.0063  0.0919
  521MOL0     O68687  -0.623   4.946   3.655  0.0762  0.5892  0.8580
  521MOL0     C68688  -0.344   4.955   3.645 -0.8212 -0.3658 -0.6470
  521MOL0     C68689  -0.207   4.952   3.659  0.2634  1.3383 -0.2914
  521MOL0     N68690   0.528   5.035   3.674 -0.1487  0.8663  0.4222
  521MOL0     N68691   0.597   5.138   3.696  0.4674 -0.3847  0.1613
  521MOL0     C68692   1.744   4.536   3.777  0.1105 -0.5523 -0.2266
  521MOL0     C68693   1.879   4.502   3.766  0.3799 -0.4036  0.1955
  521MOL0     C68694   2.358   4.609   3.752  0.7115  0.4115 -0.9251
  521MOL0     C68695   2.382   4.515   3.654 -0.4358 -0.9098 -0.5255
  521MOL0     C68696   2.514   4.477   3.614  0.2152  0.6268  0.3257
  521MOL0     C68697   2.624   4.541   3.671 -0.3622  0.7022  0.0167
  521MOL0     O68698   2.758   4.508   3.653 -0.3375 -0.3427  0.4533
  521MOL0     C68699   2.811   4.455   3.529 -0.1728  0.2152 -1.3986
  521MOL0     C68700   2.826   4.566   3.429 -0.2060 -0.7838 -0.5154
  521MOL0     C68701   2.790   4.523   3.287  0.0743 -0.8276  0.4539
  521MOL0     C68702   2.790   4.632   3.181  0.6066 -0.0166 -0.0434
  521MOL0     C68703   2.677   4.727   3.179  0.8160 -0.4524 -0.2977
  521MOL0     C68704   2.582   4.808   3.187 -0.8310  0.2534  0.2867
  521MOL0     C68705   2.596   4.645   3.757 -0.3239 -0.1982  0.8088
  521MOL0     C68706   2.468   4.680   3.801  0.0994 -0.3960  0.3066
  521MOL0     H68707   2.003   4.819   3.818 -2.4650  2.8814 -5.0483
  521MOL0     H68708   1.764   4.874   3.834 -1.1615 -1.3201  2.2789
  521MOL0     H68709   1.553   4.840   3.683  0.2998 -1.9742 -0.9642
  521MOL0     H68710   1.545   4.889   3.856 -3.3096  1.7243  0.3154
  521MOL0     H68711   1.333   4.753   3.875  2.6658  1.2692  0.6410
  521MOL0     H68712   1.333   4.732   3.694  1.1639  3.3275 -3.8046
  521MOL0     H68713   1.317   4.961   3.647 -0.3241  1.2498  0.5306
  521MOL0     H68714   1.339   5.005   3.811  1.9232  0.5077 -1.7005
  521MOL0     H68715   1.099   4.882   3.671  2.2374 -0.5309 -1.7797
  521MOL0     H68716   1.121   4.845   3.853 -1.8143  1.6588 -0.7743
  521MOL0     H68717   1.126   5.129   3.741  2.1666 -0.4682  1.5285
  521MOL0     H68718   1.135   5.086   3.900  0.5409 -1.2594  1.4490
  521MOL0     H68719   0.903   5.001   3.906 -0.0663 -2.3223 -1.1784
  521MOL0     H68720   0.891   4.999   3.735  0.3160  0.2924 -1.2474
  521MOL0     H68721   0.941   5.260   3.908 -0.3416  1.1698 -0.7054
  521MOL0     H68722   0.900   5.240   3.731 -2.9475  2.1570  0.8076
  521MOL0     H68723   0.723   5.338   3.854  3.0655 -0.8174 -7.2394
  521MOL0     H68724   0.739   5.226   3.993  2.8756  2.3515  0.3401
  521MOL0     H68725   0.627   4.977   3.979  2.9019  1.3601  0.5040
  521MOL0     H68726   0.447   4.794   3.901 -2.9119  0.3509  0.5732
  521MOL0     H68727   0.465   4.779   3.737  3.4405 -0.3210  1.3636
  521MOL0     H68728   0.271   4.927   3.697  0.4916 -2.5076 -0.3457
  521MOL0     H68729   0.272   4.984   3.860  0.5652 -1.6970  4.7183
  521MOL0     H68730   0.241   4.679   3.814  2.0694 -0.2559  0.2241
  521MOL0     H68731   0.196   4.773   3.949  1.7871 -2.9678 -0.1071
  521MOL0     H68732  -0.005   4.697   3.803  2.4529 -1.2778 -1.2642
  521MOL0     H68733   0.079   4.775   3.671  1.5943  1.1652  0.2827
  521MOL0     H68734  -0.200   4.811   3.973  1.5668  3.2717  0.8650
  521MOL0     H68735  -0.417   4.817   3.950 -0.2570  0.8845  1.1138
  521MOL0     H68736  -0.827   4.929   3.809  0.0586  0.8036  0.2538
  521MOL0     H68737  -1.065   4.855   3.832  1.4365  1.0558  0.6398
  521MOL0     H68738  -1.151   4.425   3.771  0.4466  1.5257  1.7885
  521MOL0     H68739  -1.157   4.496   3.615  0.9622  1.7969  0.2170
  521MOL0     H68740  -1.387   4.470   3.815 -1.9456  0.4660 -0.0820
  521MOL0     H68741  -1.351   4.368   3.667  1.6511 -0.4888  0.8036
  521MOL0     H68742  -1.408   4.556   3.516  1.8518 -1.2850 -0.2341
  521MOL0     H68743  -1.430   4.669   3.653 -0.3195  0.2615 -0.2041
  521MOL0     H68744  -1.625   4.468   3.725 -2.3366  0.3271 -1.2536
  521MOL0     H68745  -1.640   4.615   3.633 -0.3118 -1.2589 -1.9284
  521MOL0     H68746  -1.572   4.315   3.547  1.5879  0.9030 -0.6952
  521MOL0     H68747  -1.600   4.445   3.429 -2.5637 -0.3475 -1.7799
  521MOL0     H68748  -1.823   4.501   3.536  0.5429  0.6296 -0.7216
  521MOL0     H68749  -1.802   4.358   3.640 -1.2683  0.4483  0.1436
  521MOL0     H68750  -1.788   4.365   3.332  0.7702 -1.7519 -1.1532
  521MOL0     H68751  -1.768   4.217   3.430  0.9254  1.2606  4.0596
  521MOL0     H68752  -1.980   4.221   3.343  1.6840 -3.8517  3.1725
  521MOL0     H68753  -2.036   4.369   3.427 -1.9540 -1.4908  0.5081
  521MOL0     H68754  -0.932   4.478   3.658 -2.7693 -0.6698  1.6521
  521MOL0     H68755  -0.703   4.555   3.681  2.0263  2.2728  0.6405
  521MOL0     H68756  -0.393   4.985   3.552 -1.5084 -0.5723 -0.3552
  521MOL0     H68757  -0.145   4.988   3.577  0.7786 -2.6387 -1.8472
  521MOL0     H68758   1.665   4.463   3.761  1.4906 -1.7983 -1.6762
  521MOL0     H68759   1.905   4.405   3.725  0.9197  0.3153 -1.2364
  521MOL0     H68760   2.297   4.459   3.615 -1.3162  0.7533 -1.0814
  521MOL0     H68761   2.529   4.386   3.557  1.3555 -0.5437  2.3835
  521MOL0     H68762   2.733   4.389   3.491  0.8169 -1.8635  0.0033
  521MOL0     H68763   2.898   4.393   3.553 -2.9938 -3.2676  0.8570
  521MOL0     H68764   2.765   4.650   3.462 -0.7516 -0.4956 -2.1944
  521MOL0     H68765   2.929   4.603   3.437 -0.8970  1.3348 -0.8030
  521MOL0     H68766   2.690   4.480   3.291 -0.2539  0.0151  1.6958
  521MOL0     H68767   2.862   4.452   3.245 -1.0579 -1.3453 -0.6711
  521MOL0     H68768   2.879   4.694   3.195  0.0767  0.3970  1.7733
  521MOL0     H68769   2.787   4.575   3.088 -2.5922 -3.7735  2.0863
  521MOL0     H68770   2.500   4.876   3.197 -1.7194 -0.8797  1.1951
  521MOL0     H68771   2.689   4.689   3.793  0.9708 -2.0552 -0.0875
  521MOL0     H68772   2.445   4.763   3.867 -3.3381 -0.5951 -0.4745
  522MOL0     O68773   5.843   6.076   1.645  0.2139 -0.3696 -0.4120
  522MOL0     C68774   5.892   6.070   1.533  0.0816  0.2310 -0.4602
  522MOL0     O68775   5.833   6.104   1.413 -0.8303  0.0986  0.0015
  522MOL0     C68776   5.700   6.144   1.419  0.2542 -0.2627 -0.0602
  522MOL0     C68777   5.678   6.271   1.363  0.6285  0.4631  0.1780
  522MOL0     C68778   5.538   6.311   1.347 -0.0024  0.1282 -0.2978
  522MOL0     C68779   5.435   6.222   1.359 -0.2998  0.7928 -0.4364
  522MOL0     O68780   5.302   6.269   1.326 -0.8435 -0.4777 -0.7794
  522MOL0     C68781   5.208   6.284   1.439 -0.2625 -0.0456  0.0214
  522MOL0     C68782   5.093   6.383   1.398  0.0666  0.5458 -0.3858
  522MOL0     C68783   5.141   6.529   1.422  0.9491 -0.6602 -0.1644
  522MOL0     C68784   5.040   6.625   1.364  0.6102 -0.4261  0.4294
  522MOL0     C68785   5.091   6.766   1.357 -0.8243  0.5793 -0.1534
  522MOL0     C68786   5.000   6.848   1.270 -0.0227  0.3542 -0.4511
  522MOL0     C68787   5.061   6.990   1.240  1.2101  0.3708 -0.4452
  522MOL0     C68788   4.948   7.071   1.169  0.7249  0.9944 -0.7178
  522MOL0     N68789   4.846   7.141   1.257 -0.1341  0.6783  0.2967
  522MOL0     C68790   4.798   7.268   1.226  0.8851 -0.8357  0.1027
  522MOL0     C68791   4.731   7.305   1.339 -1.0754 -0.4586 -0.0771
  522MOL0     C68792   4.648   7.429   1.347 -0.3141 -0.3122 -0.1766
  522MOL0     C68793   4.527   7.407   1.428 -0.4867  0.2765  0.1851
  522MOL0     C68794   4.462   7.520   1.516 -0.2370  0.3336  1.1017
  522MOL0     C68795   4.328   7.479   1.577  0.3156  0.5687 -0.1384
  522MOL0     O68796   4.224   7.465   1.486 -0.5455  0.6316  0.2103
  522MOL0     C68797   4.101   7.433   1.524  0.5096 -0.4449 -0.9258
  522MOL0     C68798   4.057   7.418   1.660 -0.2459  0.7350 -0.0453
  522MOL0     C68799   3.928   7.417   1.703 -0.2739 -0.0730  0.3246
  522MOL0     C68800   3.827   7.389   1.612 -0.2308  0.4090  0.0569
  522MOL0     C68801   3.682   7.352   1.645  0.3484 -0.0334  0.3853
  522MOL0     O68802   3.600   7.303   1.546 -0.3020 -0.1581  0.0172
  522MOL0     C68803   3.496   7.213   1.566  0.3375  0.0832  0.6901
  522MOL0     C68804   3.433   7.180   1.445 -0.5633 -0.7697 -0.1541
  522MOL0     C68805   3.331   7.083   1.442  0.9418  0.1518 -0.6580
  522MOL0     C68806   3.273   7.032   1.562 -0.9272 -0.8055  0.7453
  522MOL0     O68807   3.153   6.960   1.548 -0.6286  0.5163  0.9347
  522MOL0     C68808   3.112   6.884   1.655 -0.0295 -0.6390 -0.2046
  522MOL0     C68809   3.001   6.789   1.633 -0.0554  0.5482 -0.6170
  522MOL0     C68810   3.011   6.665   1.733 -0.3016  0.3036 -0.3628
  522MOL0     C68811   2.874   6.599   1.774  0.1079  0.0085 -0.7422
  522MOL0     C68812   2.819   6.500   1.659 -0.9481  0.0733 -0.6494
  522MOL0     C68813   2.899   6.370   1.674  0.3406 -0.7219 -0.0086
  522MOL0     C68814   2.877   6.270   1.564  0.0329  1.2383 -0.3633
  522MOL0     C68815   2.724   6.218   1.553 -1.1452 -0.8478  0.5088
  522MOL0    Cl68816   2.637   6.179   1.696  0.6597 -0.4401  0.1232
  522MOL0     C68817   3.343   7.055   1.684 -0.5182  0.1895  0.4210
  522MOL0     C68818   3.446   7.148   1.687 -0.3632 -0.5781  0.2956
  522MOL0     O68819   3.654   7.364   1.764 -0.6334  0.5067  0.4039
  522MOL0     C68820   3.866   7.388   1.474 -0.6299 -0.2506 -0.4360
  522MOL0     C68821   4.000   7.422   1.431 -0.1821  0.7333 -1.3450
  522MOL0     N68822   4.747   7.202   1.436  0.9554 -0.2630  0.6680
  522MOL0     N68823   4.818   7.106   1.385 -0.0096  0.4948 -0.4916
  522MOL0     C68824   5.460   6.097   1.406 -0.1762 -0.4856 -0.2674
  522MOL0     C68825   5.596   6.051   1.431  0.7131  0.2999 -0.1610
  522MOL0     C68826   6.037   6.039   1.527 -0.2702 -0.8923  0.4114
  522MOL0     C68827   6.102   5.983   1.642 -0.6832 -0.9774 -0.7631
  522MOL0     C68828   6.230   5.935   1.633 -1.1000 -1.2835 -0.2436
  522MOL0     C68829   6.311   5.975   1.524 -0.2753  0.6983  0.4048
  522MOL0     O68830   6.446   5.951   1.506  0.9970  0.3624 -0.3626
  522MOL0     C68831   6.528   5.872   1.601 -0.1395  0.9457  0.3400
  522MOL0     C68832   6.572   5.978   1.714  0.3069  0.9589  0.1473
  522MOL0     C68833   6.561   6.130   1.680 -1.2911 -0.6237 -1.0244
  522MOL0     C68834   6.636   6.222   1.774 -0.5648 -0.0037 -0.4778
  522MOL0     C68835   6.774   6.239   1.723 -0.2216 -0.2486  1.1425
  522MOL0     C68836   6.883   6.235   1.666  0.3548 -0.2620  0.4890
  522MOL0     C68837   6.253   6.039   1.410  0.3096 -0.9572  0.0347
  522MOL0     C68838   6.117   6.068   1.412  0.0992 -0.0823  0.1217
  522MOL0     H68839   5.762   6.338   1.344  0.2202  0.4582 -1.8423
  522MOL0     H68840   5.517   6.413   1.320 -0.1747 -0.2187 -1.5239
  522MOL0     H68841   5.263   6.336   1.518  0.9049 -0.3406 -0.5680
  522MOL0     H68842   5.163   6.192   1.478  1.0971 -1.4878 -1.6318
  522MOL0     H68843   5.006   6.359   1.461 -0.6259 -0.2155 -1.5987
  522MOL0     H68844   5.069   6.369   1.293  2.5556  1.0076 -1.0924
  522MOL0     H68845   5.233   6.549   1.367  1.7193 -1.8866  0.6189
  522MOL0     H68846   5.144   6.554   1.528 -1.1173 -1.3600  0.1054
  522MOL0     H68847   5.032   6.586   1.262 -1.2877 -1.0143  0.7618
  522MOL0     H68848   4.943   6.599   1.408  0.0291 -3.4986 -2.2893
  522MOL0     H68849   5.195   6.773   1.323  0.0638  0.6067  2.2984
  522MOL0     H68850   5.081   6.810   1.457  0.4990  1.7855 -0.5175
  522MOL0     H68851   4.898   6.857   1.309 -0.1376 -1.7900 -0.1704
  522MOL0     H68852   4.989   6.803   1.171  1.1651 -2.7254  0.7161
  522MOL0     H68853   5.081   7.038   1.336 -1.1043 -4.0107  2.5474
  522MOL0     H68854   5.155   6.984   1.184  1.7452  1.8922  0.2404
  522MOL0     H68855   4.908   6.994   1.102  1.9690 -1.0373  0.7663
  522MOL0     H68856   5.003   7.146   1.111 -0.7096  0.8638 -2.3377
  522MOL0     H68857   4.798   7.323   1.132 -2.4678 -1.6264 -0.4804
  522MOL0     H68858   4.615   7.462   1.248 -0.1520  0.2210 -0.0578
  522MOL0     H68859   4.713   7.509   1.384 -0.1190 -0.8925  0.7941
  522MOL0     H68860   4.539   7.322   1.496 -0.6626 -0.4124 -0.6285
  522MOL0     H68861   4.460   7.362   1.354  0.4768 -0.0158 -0.5305
  522MOL0     H68862   4.532   7.538   1.598  2.0064 -2.3035 -0.0320
  522MOL0     H68863   4.443   7.613   1.463 -1.3061 -1.2761 -1.5863
  522MOL0     H68864   4.305   7.549   1.658 -4.1458  0.7507 -1.3267
  522MOL0     H68865   4.347   7.380   1.619 -1.0441 -0.0144 -0.8429
  522MOL0     H68866   4.139   7.438   1.728  1.1710  0.4069 -1.5824
  522MOL0     H68867   3.883   7.416   1.801  0.3392  1.6613  0.6705
  522MOL0     H68868   3.466   7.224   1.352 -1.2575  3.2813  1.2906
  522MOL0     H68869   3.287   7.059   1.345  2.7912  2.4945 -2.1902
  522MOL0     H68870   3.084   6.952   1.736 -0.9783 -1.3035  0.0461
  522MOL0     H68871   3.198   6.828   1.694 -0.3965  0.0465  1.7064
  522MOL0     H68872   3.006   6.745   1.533  1.7056  1.4867 -0.9852
  522MOL0     H68873   2.905   6.840   1.637  0.5329  1.9563 -2.9540
  522MOL0     H68874   3.049   6.704   1.827 -1.7616  0.8768  0.0133
  522MOL0     H68875   3.081   6.594   1.688 -1.4740 -0.4115 -1.1175
  522MOL0     H68876   2.877   6.532   1.861 -2.3360  1.6885  0.7699
  522MOL0     H68877   2.800   6.673   1.806  1.2627  0.1839  1.7308
  522MOL0     H68878   2.849   6.547   1.565  2.9342 -2.3331 -0.8707
  522MOL0     H68879   2.711   6.489   1.663 -0.8488 -0.7816  1.1067
  522MOL0     H68880   2.886   6.320   1.770 -0.6804 -2.4695 -1.0067
  522MOL0     H68881   3.006   6.390   1.660  1.0984 -2.5628  2.3210
  522MOL0     H68882   2.909   6.299   1.463  1.0875 -0.5593 -0.5734
  522MOL0     H68883   2.944   6.185   1.579  0.7686  2.0495  1.0715
  522MOL0     H68884   2.729   6.121   1.502  1.8888 -0.6600  0.2661
  522MOL0     H68885   2.665   6.287   1.492 -0.3537  1.1892  1.9333
  522MOL0     H68886   3.309   7.006   1.774 -3.8223  2.9983  0.9045
  522MOL0     H68887   3.491   7.162   1.785  0.8275 -0.3172 -0.2656
  522MOL0     H68888   3.800   7.378   1.389  1.9788 -1.7482 -2.4394
  522MOL0     H68889   4.020   7.422   1.324 -0.7764 -0.3776 -1.4677
  522MOL0     H68890   5.381   6.027   1.430  1.5576 -2.2989  0.3994
  522MOL0     H68891   5.635   5.955   1.464 -0.1260 -1.6179 -4.1191
  522MOL0     H68892   6.053   5.952   1.733 -1.2144 -2.9347 -1.6651
  522MOL0     H68893   6.268   5.877   1.716  2.7251 -1.7224 -2.1017
  522MOL0     H68894   6.613   5.819   1.557  1.2188  1.8561  1.7505
  522MOL0     H68895   6.454   5.802   1.642 -1.7660  1.9394 -0.7854
  522MOL0     H68896   6.506   5.954   1.798  1.1177 -1.1300  0.2398
  522MOL0     H68897   6.673   5.965   1.754  0.7158  1.2133 -0.7656
  522MOL0     H68898   6.458   6.167   1.677 -1.1449  0.1479  1.4023
  522MOL0     H68899   6.594   6.151   1.578  1.6934 -1.5542 -0.3389
  522MOL0     H68900   6.575   6.312   1.789 -1.7856 -1.0916  1.4822
  522MOL0     H68901   6.633   6.175   1.872  3.3552 -1.6670 -0.9758
  522MOL0     H68902   6.972   6.226   1.607  2.1080  1.1813  2.7281
  522MOL0     H68903   6.313   6.065   1.323 -0.9703  2.4620 -0.0023
  522MOL0     H68904   6.061   6.105   1.328 -2.7322 -2.0055  1.0174
  523MOL0     O68905   2.572   6.117   6.944  0.0126 -0.7942 -0.2312
  523MOL0     C68906   2.693   6.125   6.941  0.0361  0.3172 -0.6767
  523MOL0     O68907   2.763   6.234   6.940  0.6323  0.0213  0.2633
  523MOL0     C68908   2.701   6.355   6.978 -0.2291 -0.2679  0.8089
  523MOL0     C68909   2.727   6.470   6.901  0.3005  1.2612  0.4375
  523MOL0     C68910   2.661   6.589   6.932 -0.2222  0.0173  0.5012
  523MOL0     C68911   2.582   6.598   7.049 -0.4659 -0.0385 -0.5780
  523MOL0     O68912   2.521   6.710   7.087 -0.7913  0.3092 -0.1621
  523MOL0     C68913   2.524   6.831   7.009 -0.6179  0.4019 -0.9236
  523MOL0     C68914   2.435   6.944   7.050  0.3561 -0.0027  0.3211
  523MOL0     C68915   2.405   6.947   7.199 -0.9855  0.7132  0.5388
  523MOL0     C68916   2.338   7.079   7.226 -0.2630  1.4255  0.7964
  523MOL0     C68917   2.260   7.093   7.347  0.0420 -0.5045  0.9366
  523MOL0     C68918   2.344   7.126   7.475  0.4022 -0.2032  1.1423
  523MOL0     C68919   2.248   7.115   7.594  0.2097 -0.5383 -0.6905
  523MOL0     C68920   2.241   6.974   7.652 -0.0765  0.0816 -0.9763
  523MOL0     N68921   2.153   6.975   7.777  0.2499 -0.0672  0.5303
  523MOL0     C68922   2.075   6.865   7.820 -0.1643 -0.2186 -0.1600
  523MOL0     C68923   1.993   6.914   7.915 -0.6069 -0.2700  0.2177
  523MOL0     C68924   1.889   6.815   7.968 -0.3072  0.9315  0.6947
  523MOL0     C68925   1.842   6.863   8.106  0.3880  0.3331  0.7974
  523MOL0     C68926   1.746   6.751   8.163 -0.6750  0.9429  0.1534
  523MOL0     C68927   1.689   6.805   8.292  1.1145 -0.0903  0.0816
  523MOL0     O68928   1.577   6.725   8.335 -0.4195 -0.1680 -0.1164
  523MOL0     C68929   1.465   6.796   8.353  0.2242  0.4470 -0.6133
  523MOL0     C68930   1.408   6.818   8.473  0.3272  0.5253 -0.4476
  523MOL0     C68931   1.292   6.895   8.478 -0.6963  0.4806  0.0926
  523MOL0     C68932   1.225   6.941   8.365 -0.0526  0.0687 -0.4880
  523MOL0     C68933   1.105   7.022   8.366 -0.5131  0.6168  1.0520
  523MOL0     O68934   1.075   7.089   8.257 -1.1911  1.1922  0.3833
  523MOL0     C68935   0.998   7.191   8.289  0.6184  0.2468 -0.0559
  523MOL0     C68936   1.062   7.319   8.286  0.6871 -0.3276  0.2976
  523MOL0     C68937   0.992   7.439   8.310  0.3823  0.5966  0.4699
  523MOL0     C68938   0.845   7.426   8.331 -0.6131  0.6696  0.5395
  523MOL0     O68939   0.787   7.539   8.365  0.2379 -0.3826  0.0952
  523MOL0     C68940   0.678   7.547   8.455  0.2453 -0.7028  0.0521
  523MOL0     C68941   0.661   7.690   8.513  0.2543  0.3916 -0.7257
  523MOL0     C68942   0.700   7.804   8.416 -0.4205  0.1585  0.9370
  523MOL0     C68943   0.660   7.947   8.456 -0.5570  0.7841 -0.8526
  523MOL0     C68944   0.697   8.053   8.358 -0.3621  0.0129 -0.0890
  523MOL0     C68945   0.593   8.075   8.247 -1.2616 -0.0630 -0.7116
  523MOL0     C68946   0.637   8.198   8.168  0.2534 -0.1163  0.0998
  523MOL0     C68947   0.542   8.215   8.059  0.1835  0.7236 -1.2356
  523MOL0    Cl68948   0.373   8.263   8.103  0.4718 -0.0223  0.2686
  523MOL0     C68949   0.783   7.306   8.349  0.4061 -0.3710 -0.6367
  523MOL0     C68950   0.856   7.186   8.316 -0.0945 -0.1889 -0.1167
  523MOL0     O68951   1.037   7.023   8.472 -0.8416  0.0708  0.7047
  523MOL0     C68952   1.284   6.912   8.242 -0.7805  0.8213  0.7407
  523MOL0     C68953   1.402   6.840   8.236 -0.0691  0.2430 -0.5603
  523MOL0     N68954   2.024   7.049   7.936 -0.0289  0.3305  0.3198
  523MOL0     N68955   2.116   7.084   7.852  0.6612 -0.0156 -0.0252
  523MOL0     C68956   2.568   6.490   7.130  0.3089  1.2136 -0.3172
  523MOL0     C68957   2.630   6.370   7.089  0.3035 -0.1308 -0.5587
  523MOL0     C68958   2.762   5.992   6.944 -0.3128 -0.7043 -0.5433
  523MOL0     C68959   2.903   5.984   6.935 -0.3164  0.0638 -0.2347
  523MOL0     C68960   2.972   5.866   6.964  0.7571  1.2619  1.3048
  523MOL0     C68961   2.899   5.748   7.004  0.5684  0.7823  0.0116
  523MOL0     O68962   2.938   5.630   7.039  0.1256  0.3567  0.2822
  523MOL0     C68963   3.080   5.624   7.082 -0.5123 -0.0134  0.1857
  523MOL0     C68964   3.119   5.475   7.113 -0.1082 -0.3111  1.1578
  523MOL0     C68965   3.097   5.380   6.992 -0.2488 -0.6212  0.0874
  523MOL0     C68966   3.217   5.363   6.892  0.2964 -0.4429  0.0810
  523MOL0     C68967   3.331   5.311   6.965 -0.0968  0.3986 -0.1399
  523MOL0     C68968   3.408   5.250   7.029 -0.0866  0.1143 -0.3978
  523MOL0     C68969   2.752   5.754   6.996  0.5858 -0.1848 -0.5842
  523MOL0     C68970   2.690   5.871   6.966  0.8795 -1.6903  1.4069
  523MOL0     H68971   2.790   6.462   6.813  1.2487  0.4305  1.1722
  523MOL0     H68972   2.672   6.684   6.881 -2.9454 -1.4527 -3.2194
  523MOL0     H68973   2.510   6.816   6.901 -0.8217  1.3436 -1.0393
  523MOL0     H68974   2.628   6.861   7.025  0.2063 -3.2838  1.6344
  523MOL0     H68975   2.337   6.935   7.003 -1.0368  2.6023  2.4204
  523MOL0     H68976   2.481   7.039   7.019  0.4937 -0.6826 -1.6842
  523MOL0     H68977   2.491   6.929   7.264 -0.9503 -0.0425  0.2856
  523MOL0     H68978   2.346   6.857   7.215  1.9178 -1.2350  1.0476
  523MOL0     H68979   2.407   7.163   7.215  0.2518  1.0153  0.8792
  523MOL0     H68980   2.268   7.092   7.143  1.1316 -4.1608 -1.7341
  523MOL0     H68981   2.210   6.998   7.365 -0.7988 -0.4759 -1.0582
  523MOL0     H68982   2.185   7.168   7.320  3.3533  2.3506 -1.2927
  523MOL0     H68983   2.390   7.224   7.459  1.9839 -1.3584 -2.2735
  523MOL0     H68984   2.431   7.061   7.488 -0.5010 -1.1126  3.1817
  523MOL0     H68985   2.277   7.180   7.677 -1.6390 -1.2699  0.6007
  523MOL0     H68986   2.150   7.154   7.565 -0.1410  0.6533  1.8357
  523MOL0     H68987   2.335   6.931   7.686 -1.4910 -1.0758  1.8247
  523MOL0     H68988   2.188   6.915   7.577 -0.0483  0.8357 -1.6015
  523MOL0     H68989   2.080   6.763   7.784  2.4889  0.9947 -3.7761
  523MOL0     H68990   1.940   6.718   7.972  2.0196  1.8034 -2.9311
  523MOL0     H68991   1.803   6.802   7.902 -0.4624 -1.0554  1.2108
  523MOL0     H68992   1.789   6.959   8.099 -1.3307 -0.6596 -0.7623
  523MOL0     H68993   1.929   6.874   8.171  1.0579  0.6753 -0.1377
  523MOL0     H68994   1.664   6.728   8.095 -0.7773  1.4400  0.1099
  523MOL0     H68995   1.802   6.658   8.179  2.3831  2.7013  0.5274
  523MOL0     H68996   1.661   6.911   8.284 -1.0092 -0.7796 -3.5761
  523MOL0     H68997   1.756   6.797   8.379 -0.7954  2.4179  1.9686
  523MOL0     H68998   1.449   6.790   8.569 -3.1415 -0.4003  0.9205
  523MOL0     H68999   1.244   6.925   8.571 -0.0623  0.2397  0.5038
  523MOL0     H69000   1.168   7.322   8.264  1.0516  0.2651  1.9894
  523MOL0     H69001   1.032   7.540   8.313 -1.1636  1.2605 -0.1798
  523MOL0     H69002   0.676   7.469   8.532  2.0534 -0.8771 -0.0399
  523MOL0     H69003   0.588   7.532   8.395 -0.5814 -0.0079  1.0619
  523MOL0     H69004   0.728   7.692   8.599 -0.6888  1.0385  0.0197
  523MOL0     H69005   0.562   7.700   8.558 -0.2639  0.5989 -1.8689
  523MOL0     H69006   0.658   7.786   8.317  0.9582  0.3273  0.3019
  523MOL0     H69007   0.809   7.805   8.409 -0.4357  2.3943  0.5777
  523MOL0     H69008   0.557   7.958   8.491 -0.7281  1.1478 -1.4626
  523MOL0     H69009   0.722   7.963   8.546  0.2422 -2.0664 -0.8254
  523MOL0     H69010   0.799   8.029   8.323 -0.3000  2.9496 -2.3060
  523MOL0     H69011   0.693   8.149   8.409  0.0739 -1.6707  3.4439
  523MOL0     H69012   0.491   8.079   8.286 -0.7586 -4.4421  1.7571
  523MOL0     H69013   0.597   7.982   8.189  0.1006 -0.8740  0.6154
  523MOL0     H69014   0.631   8.286   8.232  0.6833 -0.3671  0.4859
  523MOL0     H69015   0.737   8.178   8.129 -0.2151  0.5523 -1.5841
  523MOL0     H69016   0.521   8.116   8.016  0.3665  0.6961 -1.2633
  523MOL0     H69017   0.585   8.279   7.981 -0.1511  0.3333 -1.7512
  523MOL0     H69018   0.685   7.300   8.395 -0.7451  3.6617 -2.1413
  523MOL0     H69019   0.812   7.088   8.329  0.2546 -0.1828  1.1732
  523MOL0     H69020   1.242   6.933   8.144  0.1715 -3.9513 -0.9209
  523MOL0     H69021   1.435   6.835   8.132 -2.3538  1.9861 -1.4411
  523MOL0     H69022   2.512   6.488   7.223 -1.0735 -1.3179 -1.0915
  523MOL0     H69023   2.625   6.281   7.151  0.1763 -0.3949 -0.9475
  523MOL0     H69024   2.957   6.068   6.893 -0.9336  0.9351  0.6528
  523MOL0     H69025   3.079   5.860   6.949  0.4496 -0.8535 -0.5352
  523MOL0     H69026   3.106   5.690   7.166  1.7175  0.3729 -0.7316
  523MOL0     H69027   3.139   5.657   6.996 -2.8076  2.7999 -0.4377
  523MOL0     H69028   3.224   5.470   7.145  0.5448  1.8663 -0.4006
  523MOL0     H69029   3.064   5.448   7.204 -0.5700 -1.6043  0.5141
  523MOL0     H69030   3.015   5.418   6.931 -1.4190 -0.4909  1.6675
  523MOL0     H69031   3.070   5.280   7.028 -0.4244  0.5570  3.6370
  523MOL0     H69032   3.198   5.300   6.805  1.2520  0.2062 -0.6169
  523MOL0     H69033   3.237   5.456   6.837  1.2993 -0.6031  0.1614
  523MOL0     H69034   3.485   5.191   7.074 -0.4067  0.4680  0.6498
  523MOL0     H69035   2.702   5.661   7.020  3.4220 -1.2137  1.9398
  523MOL0     H69036   2.582   5.876   6.970  0.6552 -0.0527 -2.2331
  524MOL0     O69037   5.994   4.162   1.368 -0.7921 -0.5634  0.2553
  524MOL0     C69038   5.992   4.054   1.308 -0.2108  0.8286  0.0561
  524MOL0     O69039   5.888   3.996   1.246  0.6789  0.2798  0.1498
  524MOL0     C69040   5.769   4.063   1.258 -1.4189 -0.7525 -0.0524
  524MOL0     C69041   5.665   3.995   1.320  0.4649  0.8451  0.4620
  524MOL0     C69042   5.539   4.056   1.331  0.0397 -0.3208 -0.3748
  524MOL0     C69043   5.510   4.183   1.295 -0.8617 -0.4844  1.0220
  524MOL0     O69044   5.388   4.245   1.324 -0.1588  0.4757 -0.1233
  524MOL0     C69045   5.340   4.346   1.236 -0.5209  0.2104 -0.1368
  524MOL0     C69046   5.199   4.381   1.281  0.0771 -0.7812  0.0154
  524MOL0     C69047   5.144   4.501   1.195  0.0645 -0.5683 -0.0213
  524MOL0     C69048   4.990   4.520   1.219  0.1701  0.2739 -0.0981
  524MOL0     C69049   4.949   4.651   1.155 -0.2858  0.3491  0.3763
  524MOL0     C69050   4.800   4.673   1.177 -0.5445 -0.3249 -0.4965
  524MOL0     C69051   4.776   4.817   1.128 -0.1265  0.1436  1.2605
  524MOL0     C69052   4.640   4.869   1.138 -0.4458  0.0922  0.2451
  524MOL0     N69053   4.615   4.994   1.074 -0.2768 -0.7952  0.0309
  524MOL0     C69054   4.712   5.081   1.023 -0.1839 -0.4724  0.2438
  524MOL0     C69055   4.632   5.165   0.956  0.4358 -0.7296 -0.2311
  524MOL0     C69056   4.678   5.283   0.866 -0.5279 -1.2351 -0.0719
  524MOL0     C69057   4.689   5.406   0.969  0.2532 -0.0757  0.7273
  524MOL0     C69058   4.737   5.533   0.895 -0.0003 -0.1886  0.7521
  524MOL0     C69059   4.686   5.662   0.947 -0.2747 -1.4032  0.2981
  524MOL0     O69060   4.764   5.759   0.874  0.1817  0.2145  0.3852
  524MOL0     C69061   4.726   5.896   0.884 -0.9077 -0.2761  0.1870
  524MOL0     C69062   4.767   5.992   0.797  1.0172 -0.0800 -0.1300
  524MOL0     C69063   4.721   6.128   0.790 -0.2305 -0.5334 -1.2321
  524MOL0     C69064   4.640   6.174   0.902 -0.9208  0.2852  0.3693
  524MOL0     C69065   4.582   6.312   0.901  0.2745  0.2239  0.1248
  524MOL0     O69066   4.472   6.342   0.979 -0.2610 -0.2843 -1.1711
  524MOL0     C69067   4.392   6.449   0.953  0.3541 -0.5896 -0.5656
  524MOL0     C69068   4.367   6.489   0.825 -0.6645  0.3881  0.3018
  524MOL0     C69069   4.281   6.598   0.791  0.0477 -0.3232  0.0412
  524MOL0     C69070   4.217   6.665   0.896  0.5320  0.1822  0.6489
  524MOL0     O69071   4.137   6.776   0.880 -0.2190  0.3894  0.0918
  524MOL0     C69072   4.123   6.855   0.762 -0.5076  0.2193 -0.5842
  524MOL0     C69073   3.976   6.895   0.740 -0.0743  0.6775 -0.6823
  524MOL0     C69074   3.953   6.991   0.619  0.0628 -0.8136 -0.0340
  524MOL0     C69075   3.804   7.016   0.587 -0.0490 -0.3720  0.1730
  524MOL0     C69076   3.730   7.094   0.693  0.2191 -0.3841  0.5525
  524MOL0     C69077   3.797   7.228   0.720  0.0982  1.1397  0.7036
  524MOL0     C69078   3.722   7.334   0.792 -0.3963 -0.0600  0.2757
  524MOL0     C69079   3.621   7.401   0.689 -0.4414  0.5486  0.0041
  524MOL0    Cl69080   3.680   7.456   0.527 -0.1285  0.1852 -0.4294
  524MOL0     C69081   4.233   6.615   1.028 -0.0967  0.4411 -0.3257
  524MOL0     C69082   4.320   6.511   1.057  0.3865  0.0600  0.3915
  524MOL0     O69083   4.637   6.393   0.829 -0.3703 -0.5620  0.2432
  524MOL0     C69084   4.611   6.074   1.004 -0.0165 -0.2681 -0.0092
  524MOL0     C69085   4.646   5.941   0.991  0.4683 -0.2329  0.1036
  524MOL0     N69086   4.500   5.135   0.974  1.6534 -0.3060 -0.9830
  524MOL0     N69087   4.490   5.031   1.045  0.4888 -0.3381 -0.1750
  524MOL0     C69088   5.621   4.258   1.236  0.2101 -0.6192 -0.2060
  524MOL0     C69089   5.744   4.202   1.214 -0.6218  0.3472  0.4432
  524MOL0     C69090   6.110   3.965   1.306  0.5201  0.8321 -0.2805
  524MOL0     C69091   6.131   3.856   1.227 -0.4389  0.6885  0.7903
  524MOL0     C69092   6.255   3.797   1.225 -0.0689  0.0931  0.9966
  524MOL0     C69093   6.363   3.838   1.300  0.6656 -1.2427 -0.4491
  524MOL0     O69094   6.483   3.775   1.303 -0.0962 -0.6374 -0.6727
  524MOL0     C69095   6.547   3.752   1.176 -0.4992 -0.5338  0.5380
  524MOL0     C69096   6.690   3.700   1.206 -0.5819 -0.0913 -0.3243
  524MOL0     C69097   6.796   3.814   1.255 -0.1079  0.2341 -0.7797
  524MOL0     C69098   6.897   3.750   1.340 -0.2528 -0.1072  0.8229
  524MOL0     C69099   6.998   3.851   1.388 -0.8284 -0.3976 -0.0202
  524MOL0     C69100   7.095   3.914   1.432  0.7487 -0.1428  0.2508
  524MOL0     C69101   6.340   3.940   1.390 -0.1788  1.0682  0.3147
  524MOL0     C69102   6.217   3.998   1.391  0.6978  0.4378  0.2662
  524MOL0     H69103   5.670   3.893   1.355  0.7310  0.4798 -0.6042
  524MOL0     H69104   5.462   3.993   1.375  0.6358 -0.5992  0.2987
  524MOL0     H69105   5.337   4.319   1.131  0.5490 -3.2489  0.6107
  524MOL0     H69106   5.410   4.430   1.233  1.1861 -1.1136  1.1254
  524MOL0     H69107   5.194   4.410   1.386  0.7533  1.5191 -0.5330
  524MOL0     H69108   5.134   4.293   1.281  0.4892 -1.2101  2.9789
  524MOL0     H69109   5.177   4.485   1.092  2.4084 -0.1653  0.6098
  524MOL0     H69110   5.195   4.594   1.221 -1.4349  1.3693 -3.3101
  524MOL0     H69111   4.946   4.435   1.165 -0.8257  1.7133 -1.6923
  524MOL0     H69112   4.972   4.512   1.326  0.5939  1.1433  0.0473
  524MOL0     H69113   4.966   4.632   1.048  1.5728 -0.5410  0.7876
  524MOL0     H69114   5.014   4.729   1.196 -0.7570 -1.0133  4.0962
  524MOL0     H69115   4.783   4.645   1.281 -0.8181 -1.7836 -0.9118
  524MOL0     H69116   4.735   4.599   1.129 -0.8891 -1.7819  2.0088
  524MOL0     H69117   4.828   4.899   1.178 -2.2391  2.8011 -0.6203
  524MOL0     H69118   4.802   4.815   1.022 -1.7130 -3.1095  0.8315
  524MOL0     H69119   4.620   4.878   1.245  1.4193  0.9480  0.5565
  524MOL0     H69120   4.568   4.798   1.097  1.2325 -1.7038  0.2180
  524MOL0     H69121   4.820   5.079   1.034  0.0015 -4.3263 -0.7623
  524MOL0     H69122   4.627   5.302   0.771 -0.7302 -3.1048 -0.3803
  524MOL0     H69123   4.780   5.252   0.838 -0.2791 -1.4157  1.0101
  524MOL0     H69124   4.738   5.371   1.061 -2.9563 -3.5251  1.3795
  524MOL0     H69125   4.580   5.414   0.971  0.2035 -0.3838 -0.3542
  524MOL0     H69126   4.844   5.529   0.875  0.0221  1.8650  0.1625
  524MOL0     H69127   4.696   5.548   0.794  0.7029  0.2226  0.5178
  524MOL0     H69128   4.717   5.677   1.051  2.1883  2.1186 -0.7749
  524MOL0     H69129   4.576   5.665   0.943 -0.2342 -0.3722 -0.2832
  524MOL0     H69130   4.832   5.969   0.713  0.1033  0.3273 -0.9764
  524MOL0     H69131   4.768   6.201   0.724  0.2657  0.7653  0.4601
  524MOL0     H69132   4.417   6.439   0.743 -0.1462  0.8867  0.3120
  524MOL0     H69133   4.265   6.628   0.688 -1.3977  3.0939  1.1265
  524MOL0     H69134   4.153   6.795   0.676  2.1875  0.7163 -0.0999
  524MOL0     H69135   4.175   6.951   0.760 -3.4520  1.9523 -3.6046
  524MOL0     H69136   3.937   6.935   0.834  2.3430 -3.7754  2.5612
  524MOL0     H69137   3.928   6.798   0.726  2.6182 -0.7953 -0.3959
  524MOL0     H69138   4.007   6.968   0.527 -0.7363 -0.3848 -0.6247
  524MOL0     H69139   3.995   7.086   0.651 -0.6830 -0.5295  0.1280
  524MOL0     H69140   3.807   7.073   0.493  1.2898 -1.3408 -0.4045
  524MOL0     H69141   3.747   6.923   0.583 -3.3723  1.4587  0.6289
  524MOL0     H69142   3.732   7.031   0.783 -0.6832 -1.4330 -0.1284
  524MOL0     H69143   3.627   7.106   0.657  1.2225  4.5444 -1.4471
  524MOL0     H69144   3.823   7.260   0.619 -1.9013 -0.5470 -0.4137
  524MOL0     H69145   3.886   7.210   0.782  1.1084  0.1568 -0.9596
  524MOL0     H69146   3.676   7.304   0.887  2.6018 -2.2894  1.1782
  524MOL0     H69147   3.794   7.413   0.814 -1.3130  1.0157 -0.4586
  524MOL0     H69148   3.563   7.474   0.747 -1.4554 -0.6832  0.5928
  524MOL0     H69149   3.554   7.320   0.662  0.1335 -0.2076  0.8043
  524MOL0     H69150   4.189   6.663   1.115  0.4742 -4.3047  2.9799
  524MOL0     H69151   4.355   6.487   1.157  1.3530 -1.2103 -0.2271
  524MOL0     H69152   4.567   6.105   1.098  0.4404  1.9256 -0.4615
  524MOL0     H69153   4.632   5.880   1.080  1.4257 -0.9022 -0.1785
  524MOL0     H69154   5.615   4.365   1.219  2.8103 -0.8241 -3.5621
  524MOL0     H69155   5.835   4.249   1.180 -1.6621  3.5813  1.7193
  524MOL0     H69156   6.050   3.825   1.161 -1.3257 -1.1833  2.6442
  524MOL0     H69157   6.267   3.713   1.157  1.4978  0.8107  0.3481
  524MOL0     H69158   6.550   3.838   1.109 -2.2956 -0.7717  0.1165
  524MOL0     H69159   6.492   3.669   1.131 -0.6113  0.4585 -1.2494
  524MOL0     H69160   6.682   3.618   1.279  0.5924  0.4823  0.4844
  524MOL0     H69161   6.732   3.648   1.119  0.5868 -0.6300  0.5262
  524MOL0     H69162   6.740   3.899   1.296  3.3762  1.7407  1.2774
  524MOL0     H69163   6.846   3.855   1.167  0.6286 -1.1898 -1.0487
  524MOL0     H69164   6.854   3.698   1.427 -0.7226  0.8245  1.1573
  524MOL0     H69165   6.963   3.692   1.275 -1.2319  0.8231 -1.0629
  524MOL0     H69166   7.173   3.967   1.482 -1.1823  2.6747  0.5083
  524MOL0     H69167   6.423   3.976   1.451  0.1908  0.2434  0.3119
  524MOL0     H69168   6.210   4.089   1.450  4.2076  1.4369 -0.6257
  525MOL0     O69169   3.807   2.338   8.575  0.5228 -0.3667  0.3961
  525MOL0     C69170   3.882   2.324   8.480 -0.5962  0.0445 -0.3238
  525MOL0     O69171   4.005   2.372   8.464 -0.0575 -1.1796 -0.2528
  525MOL0     C69172   4.034   2.509   8.511 -0.1726  0.6536 -0.6847
  525MOL0     C69173   4.166   2.532   8.524  0.2718  0.5539 -0.3980
  525MOL0     C69174   4.205   2.667   8.553 -0.1650  0.0796  0.1258
  525MOL0     C69175   4.115   2.772   8.590 -0.2073  0.4277 -0.5800
  525MOL0     O69176   4.151   2.900   8.627 -0.0580 -0.5088 -0.0378
  525MOL0     C69177   4.216   2.962   8.523 -0.2883 -0.8354 -0.0046
  525MOL0     C69178   4.254   3.110   8.565 -0.2310  0.6056 -0.2352
  525MOL0     C69179   4.340   3.180   8.459  0.7237 -0.4694 -0.4971
  525MOL0     C69180   4.356   3.326   8.489  0.0019  0.3413 -0.6618
  525MOL0     C69181   4.462   3.383   8.389  0.1879 -0.1964 -0.3801
  525MOL0     C69182   4.464   3.534   8.399 -0.4549  0.5645 -0.4630
  525MOL0     C69183   4.539   3.609   8.282 -0.6664 -0.0333 -0.7562
  525MOL0     C69184   4.689   3.582   8.265  0.0192  0.5448 -1.4098
  525MOL0     N69185   4.752   3.646   8.158 -0.4630  0.3790  0.4087
  525MOL0     C69186   4.873   3.714   8.163  0.1959  0.4563  0.2107
  525MOL0     C69187   4.893   3.757   8.034 -0.0544  0.3809 -0.7750
  525MOL0     C69188   5.014   3.847   7.987 -0.6854 -0.3767 -1.0489
  525MOL0     C69189   5.040   3.826   7.833 -0.1711  0.0833 -0.4255
  525MOL0     C69190   5.071   3.949   7.744  0.5507 -0.5594 -0.9332
  525MOL0     C69191   5.187   4.027   7.806 -0.8479 -0.9053  1.0451
  525MOL0     O69192   5.213   4.136   7.713 -0.2274 -0.4656  0.3557
  525MOL0     C69193   5.332   4.190   7.707 -0.3627 -0.7049 -0.1747
  525MOL0     C69194   5.347   4.297   7.621  0.9628  0.5846  0.5155
  525MOL0     C69195   5.472   4.362   7.605  0.3626 -0.3747  0.0490
  525MOL0     C69196   5.584   4.329   7.686  0.3203 -0.2842  0.1671
  525MOL0     C69197   5.712   4.401   7.670  0.1109  0.4184 -0.2099
  525MOL0     O69198   5.723   4.494   7.574 -0.2563  0.0321 -0.0389
  525MOL0     C69199   5.792   4.605   7.577 -0.1060  0.3330 -0.1669
  525MOL0     C69200   5.889   4.651   7.663 -0.6248 -0.0989 -0.3619
  525MOL0     C69201   5.951   4.778   7.639 -1.5071 -0.3952 -0.5420
  525MOL0     C69202   5.908   4.870   7.552 -1.0929  0.0572  1.2784
  525MOL0     O69203   5.963   4.994   7.562  0.4077 -0.0817 -0.5644
  525MOL0     C69204   5.994   5.056   7.435 -0.5702  0.0293  0.8060
  525MOL0     C69205   6.105   5.165   7.448  0.2521  0.2290 -0.1162
  525MOL0     C69206   6.079   5.289   7.367 -0.2169 -0.1003 -0.0465
  525MOL0     C69207   5.985   5.385   7.443 -0.0531  0.3946  0.2837
  525MOL0     C69208   5.924   5.491   7.352  1.0095  0.7670  0.0818
  525MOL0     C69209   5.799   5.557   7.426 -0.0151  0.8388 -0.6836
  525MOL0     C69210   5.759   5.696   7.360  0.0254 -0.3330 -0.6956
  525MOL0     C69211   5.673   5.787   7.449 -0.4149 -0.5670  0.7338
  525MOL0    Cl69212   5.792   5.857   7.567  0.4762 -0.1298 -0.1847
  525MOL0     C69213   5.802   4.837   7.469  0.9798 -0.4079  1.0946
  525MOL0     C69214   5.762   4.699   7.467  0.2760  0.7902  1.3280
  525MOL0     O69215   5.807   4.362   7.727  0.2036 -0.3369 -0.7056
  525MOL0     C69216   5.564   4.227   7.786 -0.3673  0.6287 -0.7246
  525MOL0     C69217   5.436   4.157   7.798 -0.5231  0.6607  0.5955
  525MOL0     N69218   4.778   3.729   7.964 -0.4173 -0.6735 -0.7645
  525MOL0     N69219   4.692   3.667   8.036  0.6242 -0.2547  0.5802
  525MOL0     C69220   3.984   2.738   8.588  0.7009  0.4354 -0.5378
  525MOL0     C69221   3.938   2.611   8.544 -0.2462  0.5099 -0.2782
  525MOL0     C69222   3.843   2.217   8.378  0.0719 -0.5962  0.4145
  525MOL0     C69223   3.939   2.168   8.285 -0.9153 -0.5792 -0.2514
  525MOL0     C69224   3.916   2.081   8.181  0.6451 -0.4277 -0.1761
  525MOL0     C69225   3.781   2.029   8.180 -0.0308  0.3543 -0.5208
  525MOL0     O69226   3.741   1.950   8.087 -0.0594  0.5105 -0.8137
  525MOL0     C69227   3.673   2.002   7.969  0.5855 -0.2271 -1.0622
  525MOL0     C69228   3.759   1.983   7.840 -0.0172 -0.3481 -0.3278
  525MOL0     C69229   3.717   1.868   7.750 -0.2001 -0.5924 -0.0276
  525MOL0     C69230   3.827   1.839   7.646  0.2044  0.4006 -0.2365
  525MOL0     C69231   3.773   1.747   7.546  0.5081 -0.6475 -0.1525
  525MOL0     C69232   3.725   1.691   7.451  0.0201 -0.6158 -0.8211
  525MOL0     C69233   3.690   2.063   8.275  0.3035  0.5228 -0.5129
  525MOL0     C69234   3.719   2.158   8.374 -0.7816 -0.5561 -0.1445
  525MOL0     H69235   4.238   2.458   8.493 -0.6437 -0.9092  0.8189
  525MOL0     H69236   4.310   2.688   8.566 -0.7776  3.8130  0.0636
  525MOL0     H69237   4.157   2.970   8.432 -1.8243  0.1324  1.0295
  525MOL0     H69238   4.302   2.904   8.487  1.3995  2.9160 -2.7629
  525MOL0     H69239   4.309   3.104   8.659  0.9516  1.2522 -0.8593
  525MOL0     H69240   4.165   3.170   8.587 -0.8741  0.2142 -1.6418
  525MOL0     H69241   4.288   3.168   8.363 -2.7173  3.2046  0.6458
  525MOL0     H69242   4.433   3.124   8.447 -0.5267 -2.4988 -1.4152
  525MOL0     H69243   4.259   3.376   8.483 -0.3168  0.4251  2.9618
  525MOL0     H69244   4.384   3.347   8.592  0.1582 -0.1659 -0.5974
  525MOL0     H69245   4.439   3.351   8.287  0.3386  0.4507 -0.6254
  525MOL0     H69246   4.559   3.354   8.429  1.2232  1.2235 -1.7622
  525MOL0     H69247   4.510   3.548   8.497  2.6508 -1.7789 -1.4237
  525MOL0     H69248   4.357   3.554   8.387 -0.6840 -1.4197 -2.6915
  525MOL0     H69249   4.492   3.590   8.185 -0.4026 -0.2720 -0.8378
  525MOL0     H69250   4.533   3.717   8.300  0.3000  0.0941 -1.1631
  525MOL0     H69251   4.705   3.474   8.266  0.6916  0.6495 -0.7434
  525MOL0     H69252   4.746   3.614   8.352 -0.4111  1.3204 -1.3997
  525MOL0     H69253   4.928   3.725   8.256  2.4367  3.0921 -1.2862
  525MOL0     H69254   5.103   3.812   8.039 -1.1978 -0.2300 -0.0476
  525MOL0     H69255   4.998   3.954   8.006  2.5338  0.6045 -3.0067
  525MOL0     H69256   4.952   3.777   7.790  1.2947 -3.2123 -0.0120
  525MOL0     H69257   5.128   3.761   7.822 -0.3894  0.0840 -2.8297
  525MOL0     H69258   5.089   3.919   7.640 -1.1716  0.7333 -1.6540
  525MOL0     H69259   4.983   4.014   7.734  0.1989 -0.8517  0.1048
  525MOL0     H69260   5.267   3.953   7.817  0.0946 -0.6947 -2.8276
  525MOL0     H69261   5.154   4.080   7.896 -2.2969  3.8871 -1.9501
  525MOL0     H69262   5.255   4.325   7.570 -1.6190 -0.6876  4.1223
  525MOL0     H69263   5.473   4.454   7.548 -2.3827  0.1583  0.7473
  525MOL0     H69264   5.939   4.589   7.737 -0.5518  0.3009 -0.0753
  525MOL0     H69265   6.036   4.802   7.701 -2.3785  0.0177  0.5312
  525MOL0     H69266   5.903   5.093   7.388 -0.3904 -2.5163 -1.8575
  525MOL0     H69267   6.032   4.984   7.361  0.3112 -0.5919  1.8311
  525MOL0     H69268   6.201   5.121   7.423 -0.0333  0.0428 -0.9057
  525MOL0     H69269   6.116   5.196   7.553 -0.0411 -2.9445  0.9418
  525MOL0     H69270   6.021   5.268   7.276 -1.6649  0.0480  0.8287
  525MOL0     H69271   6.175   5.342   7.367 -0.0903 -0.3255  0.4874
  525MOL0     H69272   5.907   5.333   7.499  0.0715  0.6016  0.6549
  525MOL0     H69273   6.036   5.444   7.520  1.4254  1.5290 -1.4727
  525MOL0     H69274   5.895   5.455   7.253  2.1487 -0.7446  0.2614
  525MOL0     H69275   5.999   5.566   7.325  0.6905  0.8475 -0.5956
  525MOL0     H69276   5.831   5.579   7.529  3.4901  0.6576 -1.6039
  525MOL0     H69277   5.714   5.489   7.433  1.3528 -0.9873 -1.2559
  525MOL0     H69278   5.854   5.743   7.334  0.7798 -0.2907  1.9235
  525MOL0     H69279   5.706   5.682   7.264  2.2170  4.0918 -2.8497
  525MOL0     H69280   5.586   5.736   7.491 -3.8554  3.5220 -0.6889
  525MOL0     H69281   5.641   5.866   7.381 -0.9363 -1.8375 -0.5455
  525MOL0     H69282   5.762   4.915   7.404  1.1493 -1.1555  0.0731
  525MOL0     H69283   5.681   4.676   7.398  1.4723  0.9857 -0.1825
  525MOL0     H69284   5.647   4.198   7.849 -1.1229  1.0158  0.4744
  525MOL0     H69285   5.443   4.070   7.862  3.0679  0.8345  0.6678
  525MOL0     H69286   3.919   2.820   8.616 -1.0733 -1.3266  0.7622
  525MOL0     H69287   3.835   2.580   8.529  0.2022 -0.9311 -0.6130
  525MOL0     H69288   4.040   2.207   8.274 -0.8501 -1.2971 -3.0360
  525MOL0     H69289   3.993   2.065   8.106  2.8951  2.2129  1.3823
  525MOL0     H69290   3.662   2.110   7.976  0.8283 -0.2729  0.2545
  525MOL0     H69291   3.568   1.970   7.965  0.9656 -1.7122 -0.0146
  525MOL0     H69292   3.752   2.078   7.786  0.9670 -0.6562 -1.0428
  525MOL0     H69293   3.860   1.962   7.876 -0.2745  0.1104  0.6800
  525MOL0     H69294   3.616   1.880   7.709 -0.5035 -0.7919  0.6499
  525MOL0     H69295   3.717   1.777   7.810  1.7786  1.1053  2.7869
  525MOL0     H69296   3.857   1.932   7.596 -1.4103  0.3690 -1.3117
  525MOL0     H69297   3.919   1.805   7.694  1.3999  2.9988 -0.4916
  525MOL0     H69298   3.681   1.649   7.362 -1.1566 -2.1729  0.4390
  525MOL0     H69299   3.594   2.013   8.282  0.5028  0.3521  2.0440
  525MOL0     H69300   3.644   2.179   8.450 -1.3063  3.3109 -1.4862
  526MOL0     O69301   1.262   3.594   3.905  0.5243 -0.0969  0.0132
  526MOL0     C69302   1.330   3.697   3.892  0.1618 -0.9731  0.2655
  526MOL0     O69303   1.289   3.824   3.841  0.2152 -0.1781 -0.4773
  526MOL0     C69304   1.159   3.853   3.820 -0.7525  0.4382  0.3484
  526MOL0     C69305   1.041   3.768   3.835 -0.3581  0.0809  0.6796
  526MOL0     C69306   0.918   3.820   3.798  0.7942 -0.3473  0.4752
  526MOL0     C69307   0.913   3.952   3.762 -0.5371  0.5012  1.1713
  526MOL0     O69308   0.796   4.001   3.710 -0.2177  0.0436  0.6897
  526MOL0     C69309   0.669   3.952   3.757 -0.4468 -0.3589 -0.8339
  526MOL0     C69310   0.556   4.066   3.764 -0.2802 -0.5041  1.4891
  526MOL0     C69311   0.535   4.149   3.631 -0.1958 -0.7701 -0.7043
  526MOL0     C69312   0.451   4.274   3.652 -0.0925  0.6172  0.4762
  526MOL0     C69313   0.407   4.336   3.515  0.7061 -0.2381 -1.2569
  526MOL0     C69314   0.298   4.445   3.542 -0.3811 -0.5348  0.2866
  526MOL0     C69315   0.184   4.445   3.429 -0.3663  0.1922  0.1832
  526MOL0     C69316   0.074   4.335   3.452  0.9583 -0.1724  0.1712
  526MOL0     N69317  -0.027   4.382   3.550 -0.0163  1.2093  0.2643
  526MOL0     C69318  -0.107   4.494   3.535 -0.5471 -0.1966  0.3113
  526MOL0     C69319  -0.196   4.469   3.635  0.7433 -0.8168 -0.7587
  526MOL0     C69320  -0.308   4.579   3.660 -0.0603 -0.0145 -0.3871
  526MOL0     C69321  -0.444   4.572   3.593 -0.6137  0.0725  0.7577
  526MOL0     C69322  -0.425   4.542   3.441  0.4197 -0.8277  0.6849
  526MOL0     C69323  -0.564   4.549   3.369  0.1694 -0.2709 -0.6784
  526MOL0     O69324  -0.643   4.658   3.431 -0.2815  0.0277 -0.0241
  526MOL0     C69325  -0.770   4.681   3.381  0.6476 -1.0447 -0.2010
  526MOL0     C69326  -0.836   4.804   3.402  0.4951  0.8164 -0.0128
  526MOL0     C69327  -0.963   4.830   3.344  0.4093  0.9315  0.2404
  526MOL0     C69328  -1.017   4.744   3.252  0.3007 -1.5878 -1.0608
  526MOL0     C69329  -1.151   4.768   3.196 -0.1176  0.2166 -1.0485
  526MOL0     O69330  -1.227   4.875   3.243  0.0728  0.6571  0.6575
  526MOL0     C69331  -1.365   4.863   3.204  0.3182  0.8301 -0.5786
  526MOL0     C69332  -1.463   4.794   3.276  0.1430  0.1253 -0.1438
  526MOL0     C69333  -1.585   4.759   3.210  1.0893  0.5321 -0.2938
  526MOL0     C69334  -1.625   4.823   3.093  0.4509  0.6157 -0.4250
  526MOL0     O69335  -1.751   4.816   3.037  0.1122  0.2873  0.1233
  526MOL0     C69336  -1.852   4.718   3.088 -0.6726  0.1626 -0.1445
  526MOL0     C69337  -1.994   4.729   3.032  0.3673 -0.1835  0.1790
  526MOL0     C69338  -2.009   4.696   2.886 -0.5881  1.2474 -1.2013
  526MOL0     C69339  -2.161   4.699   2.855  0.0910  0.5774 -0.2577
  526MOL0     C69340  -2.193   4.625   2.727 -0.1719  0.1794  0.1668
  526MOL0     C69341  -2.342   4.607   2.702  0.8926  0.2203 -0.0734
  526MOL0     C69342  -2.413   4.747   2.678 -0.7236  0.7386  0.6347
  526MOL0     C69343  -2.564   4.739   2.643  0.2466  0.3906  0.0598
  526MOL0    Cl69344  -2.656   4.627   2.754  0.1484 -0.3090 -0.2842
  526MOL0     C69345  -1.537   4.908   3.032  0.4102  0.0352  0.8802
  526MOL0     C69346  -1.409   4.929   3.085 -0.1531  0.9026 -0.2804
  526MOL0     O69347  -1.191   4.683   3.115 -0.2037  0.7509  0.3690
  526MOL0     C69348  -0.952   4.625   3.232 -0.4743  1.3541  0.9553
  526MOL0     C69349  -0.829   4.587   3.287  0.2763 -0.5460 -0.0246
  526MOL0     N69350  -0.177   4.345   3.701  0.2565  0.1622 -0.0795
  526MOL0     N69351  -0.071   4.294   3.643  0.1549  0.3955 -0.3444
  526MOL0     C69352   1.021   4.037   3.742 -0.9670  0.7522  0.0115
  526MOL0     C69353   1.145   3.985   3.779  0.9547  0.0319  0.2468
  526MOL0     C69354   1.464   3.684   3.947 -0.2921  0.2029  0.3005
  526MOL0     C69355   1.555   3.793   3.943  0.2453 -0.3788 -0.5835
  526MOL0     C69356   1.684   3.782   3.982  0.0345 -0.1996  0.7551
  526MOL0     C69357   1.740   3.662   4.038  0.6585  0.0625  0.9590
  526MOL0     O69358   1.871   3.644   4.073 -0.2817 -0.5406 -0.7235
  526MOL0     C69359   1.970   3.749   4.051  1.3325 -0.0733 -0.0112
  526MOL0     C69360   2.110   3.715   4.108 -0.0612 -0.8897 -0.7398
  526MOL0     C69361   2.164   3.590   4.037  0.0764  0.5906  0.4544
  526MOL0     C69362   2.256   3.618   3.918  0.3045  0.5123 -0.6111
  526MOL0     C69363   2.382   3.683   3.969  0.4757  0.4637  1.0941
  526MOL0     C69364   2.480   3.745   4.005  0.3363  0.7975  0.7886
  526MOL0     C69365   1.652   3.559   4.056  0.5276 -0.3383 -0.5759
  526MOL0     C69366   1.514   3.568   4.011  0.3021 -0.7331 -0.3175
  526MOL0     H69367   1.053   3.662   3.851 -2.1263 -0.0327  1.3802
  526MOL0     H69368   0.837   3.757   3.763  0.6745 -1.1164  2.0835
  526MOL0     H69369   0.681   3.918   3.860 -3.7071  0.0545 -0.2179
  526MOL0     H69370   0.645   3.865   3.696 -2.2366 -1.4885  1.3335
  526MOL0     H69371   0.601   4.143   3.827  0.5338  0.9145 -0.7101
  526MOL0     H69372   0.464   4.024   3.806  0.1441 -1.4122  1.5437
  526MOL0     H69373   0.490   4.077   3.562 -2.5267 -0.4516  0.4051
  526MOL0     H69374   0.629   4.190   3.593  0.6454 -0.4280  1.5642
  526MOL0     H69375   0.355   4.246   3.695  0.4847 -0.6483  0.9948
  526MOL0     H69376   0.499   4.342   3.722  3.7251 -1.7815  0.5120
  526MOL0     H69377   0.368   4.257   3.450 -0.0785  2.2541 -4.0500
  526MOL0     H69378   0.485   4.381   3.454  1.1945  1.0657  0.2809
  526MOL0     H69379   0.341   4.544   3.563 -0.5570 -0.6931  1.4436
  526MOL0     H69380   0.237   4.428   3.631 -3.6050 -2.3643 -2.0845
  526MOL0     H69381   0.141   4.545   3.431 -3.0720 -0.8643  3.2370
  526MOL0     H69382   0.218   4.426   3.326  1.4476  1.6797  0.4640
  526MOL0     H69383   0.138   4.249   3.476  1.8147 -0.4905 -2.8402
  526MOL0     H69384   0.021   4.302   3.362  0.6182 -0.9321  0.6347
  526MOL0     H69385  -0.086   4.572   3.463  2.3028  0.9820  2.2200
  526MOL0     H69386  -0.264   4.677   3.641 -0.8556  0.6459  1.0779
  526MOL0     H69387  -0.319   4.580   3.769  1.1137 -4.1038 -0.0598
  526MOL0     H69388  -0.476   4.676   3.606  1.2633  1.3322 -3.0411
  526MOL0     H69389  -0.494   4.486   3.637 -1.7360  0.8540  1.0579
  526MOL0     H69390  -0.357   4.616   3.398  1.4402 -2.2827 -0.2941
  526MOL0     H69391  -0.372   4.448   3.423  0.3859 -0.9374  1.1488
  526MOL0     H69392  -0.621   4.456   3.380 -1.1860  0.4859 -1.1167
  526MOL0     H69393  -0.551   4.584   3.266  1.7091  6.1666  1.2350
  526MOL0     H69394  -0.792   4.869   3.477 -1.7932  1.0469  1.2296
  526MOL0     H69395  -1.015   4.914   3.390  0.3697  0.8980  0.2547
  526MOL0     H69396  -1.432   4.768   3.377  2.2379  0.4260 -0.6537
  526MOL0     H69397  -1.651   4.683   3.249 -1.1174  1.6843 -1.5400
  526MOL0     H69398  -1.848   4.750   3.192 -0.5533 -1.3136  0.3354
  526MOL0     H69399  -1.812   4.616   3.088  1.7526  1.0435 -0.5356
  526MOL0     H69400  -2.022   4.834   3.045 -1.3962 -0.3294 -1.8539
  526MOL0     H69401  -2.056   4.658   3.087  0.5887 -2.0602 -1.8459
  526MOL0     H69402  -1.970   4.595   2.867 -0.1881  1.2395 -0.3871
  526MOL0     H69403  -1.942   4.760   2.828 -2.0509  2.6590 -1.3915
  526MOL0     H69404  -2.221   4.647   2.931  2.0169 -2.2212 -0.4910
  526MOL0     H69405  -2.206   4.799   2.859 -2.5871 -0.5589  1.3775
  526MOL0     H69406  -2.148   4.525   2.725 -2.7039 -1.0220  0.2929
  526MOL0     H69407  -2.149   4.684   2.646  3.4223 -0.9445  1.1243
  526MOL0     H69408  -2.383   4.548   2.785  1.7102 -1.4943 -0.8582
  526MOL0     H69409  -2.357   4.542   2.616  0.4794  0.8632 -0.4973
  526MOL0     H69410  -2.416   4.805   2.770  0.1759 -0.6635  1.5889
  526MOL0     H69411  -2.363   4.798   2.596 -0.4532 -2.6618 -1.5270
  526MOL0     H69412  -2.575   4.702   2.540 -0.7436 -0.5857  0.5067
  526MOL0     H69413  -2.609   4.839   2.648  0.1282  0.3112  5.0125
  526MOL0     H69414  -1.576   4.966   2.949 -2.9372 -2.8880  0.1764
  526MOL0     H69415  -1.345   5.003   3.038 -3.0099  1.8735 -2.9801
  526MOL0     H69416  -1.007   4.555   3.170  1.1433 -0.5353  1.5736
  526MOL0     H69417  -0.787   4.494   3.251  3.6184  0.7721  0.0610
  526MOL0     H69418   0.994   4.137   3.710 -0.4121 -0.4143 -4.8217
  526MOL0     H69419   1.232   4.050   3.784  0.1694  0.9965  2.6279
  526MOL0     H69420   1.524   3.883   3.891  4.4298  1.4668 -0.3059
  526MOL0     H69421   1.754   3.864   3.968 -1.2825  1.0992  1.4750
  526MOL0     H69422   1.927   3.837   4.099 -2.5046 -3.5030  3.7120
  526MOL0     H69423   1.985   3.752   3.942 -1.2507 -3.9883 -0.6872
  526MOL0     H69424   2.184   3.796   4.100  1.0823 -1.8072  0.1058
  526MOL0     H69425   2.095   3.700   4.216 -0.0758  1.4490 -0.3618
  526MOL0     H69426   2.083   3.526   4.002  1.1622 -1.3190  1.3106
  526MOL0     H69427   2.220   3.536   4.113 -1.2593  1.3912  2.0804
  526MOL0     H69428   2.266   3.524   3.862 -3.4892  0.0501 -0.7492
  526MOL0     H69429   2.204   3.690   3.854  0.7063  2.6340  1.3363
  526MOL0     H69430   2.564   3.810   4.016 -0.9964  2.6321  0.7943
  526MOL0     H69431   1.680   3.477   4.121 -1.6707 -1.8101 -1.3904
  526MOL0     H69432   1.450   3.483   4.031  1.9461 -2.3168 -1.4503
  527MOL0     O69433   2.997   2.184   0.937 -0.1659  0.1595  0.2242
  527MOL0     C69434   3.000   2.097   1.023 -0.4612  0.2854 -0.3921
  527MOL0     O69435   3.117   2.037   1.074 -0.9236 -0.7441  0.3616
  527MOL0     C69436   3.237   2.051   1.009 -0.5228 -0.2733  0.2454
  527MOL0     C69437   3.354   2.090   1.085  0.2615 -0.4478  0.2675
  527MOL0     C69438   3.482   2.094   1.026  0.3133 -0.2122  0.2563
  527MOL0     C69439   3.498   2.082   0.891 -0.5477 -0.1652 -0.3083
  527MOL0     O69440   3.622   2.081   0.818  1.0604 -0.8112 -0.6748
  527MOL0     C69441   3.738   2.102   0.910 -0.3458 -0.5242  0.6020
  527MOL0     C69442   3.871   2.102   0.828  0.4641 -0.0841 -0.7170
  527MOL0     C69443   3.886   1.969   0.751  0.1552  0.1919 -0.7137
  527MOL0     C69444   4.023   1.934   0.703  0.1431 -0.8073  0.6864
  527MOL0     C69445   4.081   2.035   0.603  0.2335  0.5205  0.0759
  527MOL0     C69446   4.205   1.972   0.538  0.5394  0.6693 -0.0684
  527MOL0     C69447   4.279   2.064   0.429  0.3623 -0.2409 -1.2393
  527MOL0     C69448   4.389   1.997   0.352  0.5219 -0.2249 -0.3671
  527MOL0     N69449   4.343   1.876   0.290  0.1721 -0.3071  0.7483
  527MOL0     C69450   4.273   1.865   0.172 -1.1166 -0.0059  0.2483
  527MOL0     C69451   4.286   1.736   0.146  0.7675 -0.0733  0.0685
  527MOL0     C69452   4.225   1.657   0.022 -0.0451 -0.5073  0.2707
  527MOL0     C69453   4.324   1.624  -0.094  0.6946  0.4058 -0.1484
  527MOL0     C69454   4.452   1.536  -0.048 -0.1698  0.0069  0.4637
  527MOL0     C69455   4.564   1.536  -0.156  0.0350 -0.5643  0.2594
  527MOL0     O69456   4.687   1.542  -0.089  0.4201 -0.6431  0.0214
  527MOL0     C69457   4.808   1.538  -0.163 -0.1936 -0.0348 -0.1286
  527MOL0     C69458   4.935   1.541  -0.095  0.4406 -0.1783  0.7094
  527MOL0     C69459   5.052   1.520  -0.168  0.4156  0.6518 -0.1005
  527MOL0     C69460   5.052   1.482  -0.303 -0.5437  0.2309 -0.4327
  527MOL0     C69461   5.181   1.465  -0.367 -0.5209 -0.2103  0.2797
  527MOL0     O69462   5.180   1.384  -0.472  0.1116  0.9146 -0.0181
  527MOL0     C69463   5.294   1.361  -0.537 -0.5637  0.4317 -0.5036
  527MOL0     C69464   5.318   1.465  -0.623  0.5038 -0.1904  0.2084
  527MOL0     C69465   5.444   1.470  -0.681 -0.5182 -0.3884 -0.8796
  527MOL0     C69466   5.530   1.359  -0.677 -0.4122  0.0484  0.5735
  527MOL0     O69467   5.648   1.352  -0.756 -0.0983  0.5217 -0.5017
  527MOL0     C69468   5.660   1.431  -0.878  0.7442  0.9993 -0.4274
  527MOL0     C69469   5.800   1.432  -0.919  0.1411 -0.4668 -0.4280
  527MOL0     C69470   5.831   1.435  -1.072  0.6418  0.1976  0.7402
  527MOL0     C69471   5.788   1.312  -1.148  0.3181  0.0981 -0.1805
  527MOL0     C69472   5.889   1.262  -1.259  1.2203 -0.8005 -0.1795
  527MOL0     C69473   5.813   1.224  -1.386  0.2430 -0.8904 -0.2411
  527MOL0     C69474   5.904   1.152  -1.484  0.0485  0.5284  0.2197
  527MOL0     C69475   5.852   1.178  -1.634  0.3154  0.1929 -0.7169
  527MOL0    Cl69476   5.935   1.062  -1.743 -0.5735 -0.5441  0.0852
  527MOL0     C69477   5.500   1.252  -0.586  0.1703 -0.2720 -0.3239
  527MOL0     C69478   5.374   1.258  -0.516 -0.2167  0.4448  0.5912
  527MOL0     O69479   5.282   1.515  -0.317 -0.5182 -0.1512 -0.0683
  527MOL0     C69480   4.930   1.475  -0.363 -0.5077  0.4586  0.0700
  527MOL0     C69481   4.814   1.502  -0.298  0.4285 -0.0331 -0.2812
  527MOL0     N69482   4.343   1.673   0.257  0.2605 -0.0064 -0.0810
  527MOL0     N69483   4.379   1.758   0.341  0.2340  0.5495 -1.3021
  527MOL0     C69484   3.389   2.047   0.816 -0.5665 -0.2326  0.0508
  527MOL0     C69485   3.264   2.022   0.869 -0.6560  0.3762 -0.0156
  527MOL0     C69486   2.876   2.048   1.086 -0.6140  0.6682  0.0013
  527MOL0     C69487   2.749   2.103   1.055  0.0522 -0.0849  0.3848
  527MOL0     C69488   2.634   2.060   1.126 -0.3972  0.0652  0.1923
  527MOL0     C69489   2.641   1.953   1.219  0.0537  0.2057 -0.1327
  527MOL0     O69490   2.532   1.900   1.276  0.3829 -0.3410 -0.2524
  527MOL0     C69491   2.438   1.826   1.194  0.2864  0.3277  0.0209
  527MOL0     C69492   2.508   1.737   1.082  0.6612 -1.2419 -0.7800
  527MOL0     C69493   2.392   1.668   1.013 -0.8748 -0.8017  0.4429
  527MOL0     C69494   2.461   1.568   0.911  0.3385  0.3813  1.2921
  527MOL0     C69495   2.376   1.462   0.857 -0.3989 -0.9773  0.0672
  527MOL0     C69496   2.314   1.370   0.800  0.2094  0.0013 -0.5408
  527MOL0     C69497   2.767   1.885   1.239  0.3929 -0.5851 -0.1683
  527MOL0     C69498   2.885   1.939   1.186  0.2174  0.6345  0.7876
  527MOL0     H69499   3.357   2.106   1.192 -1.0838  1.8605  0.0241
  527MOL0     H69500   3.571   2.112   1.087  0.0532  4.4039 -0.3659
  527MOL0     H69501   3.750   2.030   0.991  3.5225 -1.3948 -0.5369
  527MOL0     H69502   3.736   2.193   0.970  1.4633 -1.0103  1.4626
  527MOL0     H69503   3.957   2.111   0.895  0.6320 -1.0897 -0.7910
  527MOL0     H69504   3.872   2.195   0.770 -1.3792  0.0997 -0.5301
  527MOL0     H69505   3.824   1.974   0.662 -0.2277  1.1660 -0.3985
  527MOL0     H69506   3.856   1.886   0.817  0.3888  0.0567 -0.7767
  527MOL0     H69507   4.099   1.922   0.780  1.7922 -1.5776 -0.9555
  527MOL0     H69508   4.017   1.839   0.647  0.5169 -1.4393  1.6897
  527MOL0     H69509   4.118   2.119   0.663 -0.1442 -0.5100  1.8396
  527MOL0     H69510   4.007   2.064   0.528 -0.9017  0.4150  1.1136
  527MOL0     H69511   4.169   1.880   0.490  0.7626  1.0506 -0.9978
  527MOL0     H69512   4.281   1.957   0.615  0.4582 -1.7081 -0.3782
  527MOL0     H69513   4.200   2.098   0.361 -2.1074  1.4995  2.1988
  527MOL0     H69514   4.313   2.154   0.481  1.8952  0.2422 -2.9732
  527MOL0     H69515   4.468   1.974   0.424  1.2268  0.2147 -0.9844
  527MOL0     H69516   4.428   2.057   0.269  0.2048 -1.7476 -1.6810
  527MOL0     H69517   4.233   1.941   0.105 -0.5460 -0.3756 -0.5322
  527MOL0     H69518   4.135   1.707  -0.014 -0.3014  0.5947  2.2922
  527MOL0     H69519   4.197   1.562   0.069 -2.0163 -1.1452 -2.0050
  527MOL0     H69520   4.363   1.721  -0.126  2.3153  0.5323  1.9967
  527MOL0     H69521   4.273   1.577  -0.179  1.5205  1.2661 -1.1467
  527MOL0     H69522   4.487   1.579   0.046  0.2457 -1.1346  0.8531
  527MOL0     H69523   4.430   1.432  -0.020  0.4109  0.4219  2.6704
  527MOL0     H69524   4.551   1.629  -0.212 -1.4615  0.1744  1.7494
  527MOL0     H69525   4.552   1.449  -0.221 -2.2126 -0.1392  0.0249
  527MOL0     H69526   4.939   1.566   0.010 -4.6158 -0.0027  1.0825
  527MOL0     H69527   5.144   1.518  -0.111  1.3751  2.7367 -1.4903
  527MOL0     H69528   5.253   1.551  -0.630 -0.6434 -0.6533  3.4517
  527MOL0     H69529   5.460   1.566  -0.729 -0.3342  0.0785  0.0939
  527MOL0     H69530   5.620   1.532  -0.873  0.0296  0.7914 -1.7418
  527MOL0     H69531   5.608   1.367  -0.950 -1.6176  2.3151  0.0164
  527MOL0     H69532   5.850   1.342  -0.880  0.8351 -0.5288 -1.4470
  527MOL0     H69533   5.844   1.523  -0.877 -1.5275  0.1691  0.0415
  527MOL0     H69534   5.940   1.435  -1.086  0.4813  0.2691 -0.6578
  527MOL0     H69535   5.809   1.530  -1.122  0.5477  1.2482  2.6651
  527MOL0     H69536   5.774   1.234  -1.073  1.4427  2.7512  3.0737
  527MOL0     H69537   5.688   1.331  -1.189 -0.0888 -0.0841  0.6975
  527MOL0     H69538   5.952   1.180  -1.224  3.4535  1.2934  1.0082
  527MOL0     H69539   5.957   1.338  -1.299 -1.5019  1.8417 -0.0976
  527MOL0     H69540   5.775   1.321  -1.419  2.9424  0.1763 -0.4667
  527MOL0     H69541   5.723   1.168  -1.359  0.4208 -0.0042  2.5110
  527MOL0     H69542   6.008   1.178  -1.463 -0.2013  2.0756 -0.3427
  527MOL0     H69543   5.914   1.045  -1.462  1.5883  0.7420  0.6739
  527MOL0     H69544   5.874   1.283  -1.655  3.3628  0.2004  1.7668
  527MOL0     H69545   5.744   1.163  -1.641  0.3960 -0.1274 -1.4163
  527MOL0     H69546   5.572   1.172  -0.570 -2.1969 -2.4591  0.0023
  527MOL0     H69547   5.330   1.176  -0.460 -2.4634  1.7431  0.8430
  527MOL0     H69548   4.919   1.440  -0.465  2.6100  1.6771 -0.7909
  527MOL0     H69549   4.720   1.503  -0.352  0.0654  3.3160  0.1926
  527MOL0     H69550   3.416   2.030   0.713  1.0315 -1.9600  0.6950
  527MOL0     H69551   3.185   1.983   0.807  1.0563 -0.1924 -1.9681
  527MOL0     H69552   2.741   2.186   0.986 -1.6200 -0.2060  0.4031
  527MOL0     H69553   2.540   2.113   1.115 -1.6054 -1.5936  1.8657
  527MOL0     H69554   2.373   1.898   1.144  1.0831  0.6828 -0.5381
  527MOL0     H69555   2.380   1.753   1.251  0.6383  1.0421  1.3356
  527MOL0     H69556   2.571   1.795   1.014  1.8547 -0.3729  0.9756
  527MOL0     H69557   2.566   1.664   1.139  0.3363  0.3601  1.7614
  527MOL0     H69558   2.326   1.734   0.956 -0.0472  2.0211  2.4804
  527MOL0     H69559   2.339   1.609   1.088 -3.1823  0.1165 -0.3950
  527MOL0     H69560   2.494   1.635   0.831 -2.1323  1.4450  1.0778
  527MOL0     H69561   2.543   1.510   0.954  3.6977  2.0003 -2.2639
  527MOL0     H69562   2.261   1.287   0.758 -2.1434  1.1025  0.1049
  527MOL0     H69563   2.765   1.793   1.297  1.1348 -1.0239 -0.8147
  527MOL0     H69564   2.984   1.896   1.203 -0.0616 -0.5764 -0.4808
  528MOL0     O69565   6.893   9.722  10.354  0.5049  0.8015 -0.0877
  528MOL0     C69566   6.837   9.790  10.438 -0.0871 -0.4023 -0.7163
  528MOL0     O69567   6.846   9.769  10.572  0.3173 -0.1798 -0.4604
  528MOL0     C69568   6.923   9.664  10.620  0.3448  0.3620  1.0117
  528MOL0     C69569   7.025   9.695  10.707 -0.2024  0.3631  0.4253
  528MOL0     C69570   7.117   9.595  10.745  0.8221  1.0231  0.3897
  528MOL0     C69571   7.094   9.459  10.695 -0.6858  0.8420 -0.3739
  528MOL0     O69572   7.177   9.362  10.741 -0.6411 -0.3272  0.1617
  528MOL0     C69573   7.293   9.338  10.658 -0.1138  0.5098  1.0057
  528MOL0     C69574   7.345   9.193  10.674  0.0142  0.0480  0.1404
  528MOL0     C69575   7.252   9.082  10.616 -0.0138 -0.3151 -0.4455
  528MOL0     C69576   7.311   8.946  10.668 -0.1343 -0.3755  0.4003
  528MOL0     C69577   7.218   8.826  10.625  0.5577 -0.3962  0.0188
  528MOL0     C69578   7.175   8.814  10.480  0.8435  0.0553 -0.1711
  528MOL0     C69579   7.287   8.791  10.387  0.4672 -0.9957  0.1518
  528MOL0     C69580   7.339   8.647  10.385  0.2425 -0.7011  0.1722
  528MOL0     N69581   7.447   8.617  10.477  0.1453 -0.2304  0.1012
  528MOL0     C69582   7.565   8.688  10.479 -0.2912  0.3881 -1.0697
  528MOL0     C69583   7.635   8.640  10.586 -1.0415 -0.2014 -0.5066
  528MOL0     C69584   7.771   8.695  10.644 -0.8655  0.3004 -0.2846
  528MOL0     C69585   7.886   8.637  10.573 -0.7726  0.2036  0.5080
  528MOL0     C69586   8.014   8.690  10.627 -0.2525 -0.0521 -0.1440
  528MOL0     C69587   8.141   8.619  10.584 -0.6231 -0.0717 -0.2397
  528MOL0     O69588   8.242   8.724  10.576  0.4959  0.0342  1.0389
  528MOL0     C69589   8.378   8.710  10.576  0.9058  0.5460 -0.4678
  528MOL0     C69590   8.434   8.589  10.589 -0.1377 -0.4368  0.5327
  528MOL0     C69591   8.570   8.571  10.622 -0.1640 -0.4249 -0.3075
  528MOL0     C69592   8.660   8.677  10.622  0.6660 -0.2170  0.9587
  528MOL0     C69593   8.802   8.651  10.654  0.2228 -0.0193 -1.3761
  528MOL0     O69594   8.833   8.530  10.714  0.9973 -0.5419 -0.6304
  528MOL0     C69595   8.958   8.497  10.743  0.4674  0.7837  0.0708
  528MOL0     C69596   9.019   8.408  10.660  0.6498  0.2588  0.5661
  528MOL0     C69597   9.136   8.347  10.707  0.2252 -0.2172 -0.4209
  528MOL0     C69598   9.206   8.407  10.813 -0.4291  0.1364 -0.6808
  528MOL0     O69599   9.325   8.355  10.838  0.0490 -0.9473  0.2992
  528MOL0     C69600   9.409   8.433  10.924 -0.2443 -0.2017 -0.2570
  528MOL0     C69601   9.553   8.371  10.923  0.1287 -0.3664 -0.2212
  528MOL0     C69602   9.621   8.425  11.050 -1.6738 -1.2782 -0.6127
  528MOL0     C69603   9.778   8.448  11.031  0.5307  0.1672 -0.7906
  528MOL0     C69604   9.848   8.476  11.178 -0.4175  0.3386  1.9235
  528MOL0     C69605   9.991   8.535  11.153 -0.1434  0.6531  0.5895
  528MOL0     C69606  10.094   8.417  11.166  0.0540  0.2890 -0.0140
  528MOL0     C69607  10.239   8.467  11.159 -0.1507  0.2213 -0.8723
  528MOL0    Cl69608  10.283   8.557  11.006 -0.5661 -0.3578 -0.1883
  528MOL0     C69609   9.150   8.521  10.882 -0.0632  0.0316 -0.5985
  528MOL0     C69610   9.023   8.555  10.852 -1.1873 -0.6443  1.0114
  528MOL0     O69611   8.885   8.741  10.634  0.5828  0.4859  0.5803
  528MOL0     C69612   8.604   8.808  10.606  1.1795 -0.9967 -0.8846
  528MOL0     C69613   8.460   8.826  10.594  1.2779  0.6367  0.0675
  528MOL0     N69614   7.567   8.528  10.630 -0.6740 -0.1715  0.0165
  528MOL0     N69615   7.454   8.516  10.568  0.2011  0.9356 -0.6688
  528MOL0     C69616   6.977   9.432  10.624  0.1390  0.1714  0.8128
  528MOL0     C69617   6.891   9.532  10.586 -0.6027  0.8536 -0.6002
  528MOL0     C69618   6.757   9.901  10.398 -0.9478 -0.6678  0.0051
  528MOL0     C69619   6.738   9.921  10.258 -0.3036 -1.0668  0.2720
  528MOL0     C69620   6.652  10.021  10.222 -0.2704 -0.2238 -0.8653
  528MOL0     C69621   6.601  10.119  10.305 -0.9388  0.7963 -0.5377
  528MOL0     O69622   6.515  10.213  10.248 -0.7254 -0.5493 -0.1458
  528MOL0     C69623   6.408  10.258  10.331  0.1806 -0.6995 -0.3500
  528MOL0     C69624   6.449  10.389  10.397  0.0991  0.5067 -0.7375
  528MOL0     C69625   6.321  10.467  10.455  0.7517 -0.3089  0.5741
  528MOL0     C69626   6.260  10.393  10.578  0.0579  0.3299 -0.3243
  528MOL0     C69627   6.154  10.492  10.622  0.2389  0.3667  0.2877
  528MOL0     C69628   6.069  10.559  10.671 -0.8588 -0.7087  0.2045
  528MOL0     C69629   6.623  10.102  10.441  0.5970  0.5701  0.3798
  528MOL0     C69630   6.700   9.995  10.495  0.1016 -0.5050  0.0768
  528MOL0     H69631   7.047   9.799  10.731  0.7908  0.2769 -0.1041
  528MOL0     H69632   7.207   9.607  10.804  1.5127 -3.0456  0.4533
  528MOL0     H69633   7.371   9.409  10.686  1.4622 -1.7195  2.6666
  528MOL0     H69634   7.268   9.337  10.551 -0.4172  3.0933  0.9895
  528MOL0     H69635   7.360   9.178  10.781 -0.0868 -2.7193 -0.1769
  528MOL0     H69636   7.441   9.199  10.622  0.6828  1.8518  1.4594
  528MOL0     H69637   7.238   9.093  10.508 -0.5332 -3.6901 -0.8274
  528MOL0     H69638   7.153   9.091  10.661 -0.7184 -0.3472 -1.9241
  528MOL0     H69639   7.413   8.937  10.629  1.3473 -2.0255  4.2403
  528MOL0     H69640   7.327   8.960  10.775  2.4716  1.4770 -0.1191
  528MOL0     H69641   7.122   8.826  10.677 -0.0705  1.9513 -0.9999
  528MOL0     H69642   7.274   8.738  10.657  0.0641 -1.5556 -2.0787
  528MOL0     H69643   7.112   8.897  10.450 -0.6575  0.2977  3.2141
  528MOL0     H69644   7.105   8.730  10.477  1.0473 -0.2089  1.5513
  528MOL0     H69645   7.240   8.820  10.292 -0.7834  3.0872  1.8207
  528MOL0     H69646   7.369   8.862  10.394 -1.1589  1.5546 -3.3963
  528MOL0     H69647   7.372   8.629  10.282  1.6749 -3.8604  1.0586
  528MOL0     H69648   7.257   8.576  10.397 -1.4277  0.7781 -1.7973
  528MOL0     H69649   7.607   8.767  10.417  3.9959  0.1834  1.1594
  528MOL0     H69650   7.776   8.662  10.749 -0.2677 -0.6477 -0.5986
  528MOL0     H69651   7.783   8.804  10.645 -1.1307  0.3770 -2.3784
  528MOL0     H69652   7.880   8.674  10.471  1.3988 -2.0168 -0.5327
  528MOL0     H69653   7.880   8.527  10.571 -2.3764  0.2893 -0.7151
  528MOL0     H69654   8.035   8.790  10.588  2.9740  0.0083  1.4784
  528MOL0     H69655   8.010   8.688  10.737  1.5658 -0.7011 -0.0515
  528MOL0     H69656   8.152   8.582  10.481  2.6985  0.7390 -0.2996
  528MOL0     H69657   8.154   8.547  10.664  0.0049 -2.3726 -2.2866
  528MOL0     H69658   8.373   8.500  10.580  1.8756 -1.6559 -3.0182
  528MOL0     H69659   8.612   8.473  10.644 -0.0398 -0.1416  0.7786
  528MOL0     H69660   8.971   8.381  10.566  1.2466 -0.3903  0.4381
  528MOL0     H69661   9.190   8.269  10.654  0.6818 -0.1787 -0.0220
  528MOL0     H69662   9.380   8.448  11.028 -0.2667  2.3366 -0.5686
  528MOL0     H69663   9.413   8.533  10.881  1.0777 -1.2354 -2.7513
  528MOL0     H69664   9.593   8.408  10.828 -1.4764 -0.0273 -0.8006
  528MOL0     H69665   9.551   8.262  10.919  1.6175 -0.4129 -0.1430
  528MOL0     H69666   9.601   8.352  11.129 -1.9871 -1.6878 -1.0604
  528MOL0     H69667   9.579   8.524  11.069 -2.5002 -1.6157 -0.6066
  528MOL0     H69668   9.822   8.361  10.981 -2.7143 -1.8942 -0.3975
  528MOL0     H69669   9.799   8.540  10.977  3.8699  0.5544  0.9380
  528MOL0     H69670   9.857   8.379  11.228 -0.3097 -0.6365  0.1157
  528MOL0     H69671   9.780   8.543  11.232 -1.6529  0.2073  0.5800
  528MOL0     H69672  10.018   8.610  11.228 -0.8636 -0.2404  1.7637
  528MOL0     H69673  10.003   8.581  11.054  2.9679  0.0360  0.5569
  528MOL0     H69674  10.083   8.376  11.267  2.5972  2.0493  1.0924
  528MOL0     H69675  10.071   8.340  11.091 -4.2371 -2.3821  3.5628
  528MOL0     H69676  10.294   8.373  11.167  0.3815  0.2485 -3.4681
  528MOL0     H69677  10.263   8.541  11.235 -1.8109  0.7367 -0.8003
  528MOL0     H69678   9.199   8.578  10.961 -0.1246 -1.7969  0.8330
  528MOL0     H69679   8.972   8.614  10.927  2.5103  1.2331  2.2505
  528MOL0     H69680   8.668   8.894  10.623  0.1394 -0.5737  1.2670
  528MOL0     H69681   8.414   8.924  10.584  1.0728  0.6926  1.4238
  528MOL0     H69682   6.958   9.330  10.592 -1.1046  1.2288 -2.2127
  528MOL0     H69683   6.816   9.505  10.513 -0.6326 -0.8002  0.0111
  528MOL0     H69684   6.787   9.850  10.192  1.4731 -1.1285  1.5563
  528MOL0     H69685   6.635  10.033  10.116 -2.8770  0.4605 -0.4555
  528MOL0     H69686   6.367  10.183  10.399 -0.4110 -0.2936 -0.2503
  528MOL0     H69687   6.328  10.290  10.262 -0.9310 -2.7414 -0.0912
  528MOL0     H69688   6.531  10.387  10.470 -0.2516 -0.6377 -0.3594
  528MOL0     H69689   6.492  10.459  10.325 -1.0568  0.2415 -1.7080
  528MOL0     H69690   6.242  10.484  10.381 -0.6746  2.0210  2.4667
  528MOL0     H69691   6.362  10.567  10.475  1.9402 -0.5888 -0.3476
  528MOL0     H69692   6.228  10.296  10.538 -1.1011  0.9699 -1.0068
  528MOL0     H69693   6.328  10.373  10.661 -1.4948  0.9078  1.1511
  528MOL0     H69694   6.002  10.615  10.733 -1.7723 -2.3916  0.8093
  528MOL0     H69695   6.589  10.174  10.514 -1.4570 -0.3886  0.4411
  528MOL0     H69696   6.718   9.989  10.602 -0.1599 -1.5377  0.0707
  529MOL0     O69697   9.951  11.217   5.152  1.0176  0.3764 -0.3619
  529MOL0     C69698  10.005  11.123   5.199  0.1857  0.5550 -0.5979
  529MOL0     O69699   9.958  11.060   5.309  0.0407 -0.1098  0.7220
  529MOL0     C69700   9.846  11.084   5.375  0.2825  0.3348 -0.9688
  529MOL0     C69701   9.863  11.123   5.509  0.2760 -0.4301 -0.2915
  529MOL0     C69702   9.757  11.172   5.595 -0.0758  0.2456  0.5866
  529MOL0     C69703   9.628  11.166   5.550  0.1137  0.0090  0.0778
  529MOL0     O69704   9.522  11.213   5.627 -0.3377  0.4459  0.6742
  529MOL0     C69705   9.497  11.131   5.744 -0.4709 -0.5837  0.1574
  529MOL0     C69706   9.342  11.145   5.778 -0.4748  0.1792 -0.1036
  529MOL0     C69707   9.246  11.107   5.664  0.2226 -1.9065  0.3228
  529MOL0     C69708   9.101  11.161   5.693  0.1814 -0.3680 -0.1648
  529MOL0     C69709   9.014  11.131   5.580  0.0481  0.4653 -0.5591
  529MOL0     C69710   8.867  11.111   5.615 -0.2169  0.1160  0.7462
  529MOL0     C69711   8.785  11.085   5.491  0.0791 -0.2312  0.6966
  529MOL0     C69712   8.643  11.062   5.553 -0.4955  0.5186  0.3787
  529MOL0     N69713   8.559  10.997   5.448 -0.0884  0.4620 -0.9543
  529MOL0     C69714   8.590  10.883   5.381 -0.1557 -0.0369  0.6539
  529MOL0     C69715   8.473  10.860   5.317 -0.3804  0.5395 -0.9440
  529MOL0     C69716   8.419  10.729   5.257  0.6889 -0.3254  0.7836
  529MOL0     C69717   8.274  10.694   5.304 -0.0348  0.0851 -0.6127
  529MOL0     C69718   8.260  10.681   5.455 -0.3881 -0.1498 -0.8482
  529MOL0     C69719   8.110  10.645   5.493 -0.3587  0.1243 -0.5044
  529MOL0     O69720   8.108  10.499   5.503 -0.8659 -0.0913 -0.2012
  529MOL0     C69721   8.000  10.442   5.572 -0.3909 -0.1645  0.3966
  529MOL0     C69722   7.882  10.515   5.593  0.1839 -0.4314 -0.3174
  529MOL0     C69723   7.780  10.459   5.664  0.6030 -0.5502  0.5686
  529MOL0     C69724   7.787  10.327   5.698  0.8364 -0.1127 -0.5549
  529MOL0     C69725   7.672  10.257   5.770 -0.3205 -1.0270  0.6158
  529MOL0     O69726   7.565  10.341   5.807  0.0933  0.2158 -0.1046
  529MOL0     C69727   7.453  10.286   5.879 -0.7520 -0.4472  0.1775
  529MOL0     C69728   7.444  10.296   6.016 -1.0455  0.5838  0.3243
  529MOL0     C69729   7.334  10.250   6.086  0.1967 -1.0584 -0.3826
  529MOL0     C69730   7.222  10.193   6.020 -0.1218 -0.4852  0.8875
  529MOL0     O69731   7.112  10.142   6.085  0.1729 -0.2367 -0.0674
  529MOL0     C69732   7.143  10.057   6.197 -0.1275  0.1618  0.6502
  529MOL0     C69733   7.104  10.133   6.315 -0.4959  0.6693  0.0191
  529MOL0     C69734   6.953  10.156   6.320  0.5647  0.3121  0.4935
  529MOL0     C69735   6.910  10.272   6.407  0.5150 -0.5935 -0.0793
  529MOL0     C69736   6.765  10.299   6.390  0.5803  0.1377  0.3393
  529MOL0     C69737   6.673  10.185   6.442 -0.1253 -0.0661  0.4463
  529MOL0     C69738   6.520  10.214   6.430 -0.3656  0.5079  0.5347
  529MOL0     C69739   6.419  10.101   6.430  0.1154 -0.4944  0.5060
  529MOL0    Cl69740   6.423   9.982   6.569  0.1628 -0.4864 -0.1447
  529MOL0     C69741   7.222  10.205   5.880 -0.2290 -0.2943 -0.1974
  529MOL0     C69742   7.342  10.242   5.810  0.3963  0.6758  0.0317
  529MOL0     O69743   7.675  10.135   5.788  0.3313 -0.2638  0.0821
  529MOL0     C69744   7.905  10.254   5.680  0.5340  0.1713 -0.1173
  529MOL0     C69745   8.011  10.316   5.617  0.2942 -0.2361 -0.3714
  529MOL0     N69746   8.388  10.963   5.342 -0.2767  0.5809 -0.1156
  529MOL0     N69747   8.435  11.036   5.418 -0.3101 -0.3036 -0.1478
  529MOL0     C69748   9.603  11.118   5.420 -0.0571  0.1144 -0.4320
  529MOL0     C69749   9.711  11.077   5.339 -0.2006 -0.4085 -0.3533
  529MOL0     C69750  10.136  11.077   5.152  0.3792  0.4334 -0.6068
  529MOL0     C69751  10.221  10.998   5.222  0.3775 -0.1934 -0.5237
  529MOL0     C69752  10.355  10.962   5.184  0.0004 -0.5336 -0.6951
  529MOL0     C69753  10.390  11.012   5.058 -0.6013 -0.2522  0.3414
  529MOL0     O69754  10.518  10.967   5.009  0.9586  0.7066 -0.2534
  529MOL0     C69755  10.534  10.948   4.871  0.0633  0.1806  0.5122
  529MOL0     C69756  10.640  10.842   4.831 -0.4209  0.0224 -0.7285
  529MOL0     C69757  10.592  10.698   4.824 -0.8944  0.3582 -0.0959
  529MOL0     C69758  10.543  10.649   4.966 -0.1380  0.5840 -0.1461
  529MOL0     C69759  10.639  10.651   5.077 -0.5521 -0.0206 -0.1962
  529MOL0     C69760  10.720  10.637   5.165 -1.0318 -0.4115  0.3002
  529MOL0     C69761  10.304  11.091   4.985  0.0842 -0.0291 -0.4896
  529MOL0     C69762  10.176  11.124   5.026  0.4562  0.4403 -0.2841
  529MOL0     H69763   9.966  11.144   5.536  0.5221  0.7625 -1.9819
  529MOL0     H69764   9.786  11.214   5.691 -0.6196  0.7229  0.5455
  529MOL0     H69765   9.550  11.172   5.830 -2.1995 -0.1164  1.0563
  529MOL0     H69766   9.530  11.027   5.740  2.2915 -0.1679  4.8354
  529MOL0     H69767   9.320  11.250   5.804  0.1565  0.1419  0.6008
  529MOL0     H69768   9.328  11.071   5.858  2.1832 -0.0169  0.2579
  529MOL0     H69769   9.246  11.001   5.639 -3.1277 -1.6634 -1.4267
  529MOL0     H69770   9.277  11.157   5.571 -3.7408  0.9571  0.2426
  529MOL0     H69771   9.059  11.123   5.787 -1.1590  0.7852 -0.2749
  529MOL0     H69772   9.097  11.269   5.710 -1.2621 -0.5935  1.1645
  529MOL0     H69773   9.052  11.033   5.551  1.7794 -0.0195  2.7985
  529MOL0     H69774   9.027  11.204   5.499 -3.9751 -0.2975 -2.0986
  529MOL0     H69775   8.823  11.194   5.670 -1.7133  0.8470 -1.4083
  529MOL0     H69776   8.859  11.018   5.673  1.1044 -0.5170 -0.0379
  529MOL0     H69777   8.797  11.175   5.429  3.0360 -0.8239  0.2482
  529MOL0     H69778   8.821  10.996   5.438 -2.1094 -1.3349  0.9738
  529MOL0     H69779   8.612  11.160   5.592 -1.2633  0.4694 -0.1005
  529MOL0     H69780   8.652  10.995   5.639  2.2614  0.7256  0.3435
  529MOL0     H69781   8.674  10.816   5.393  0.7250  0.2052 -2.9784
  529MOL0     H69782   8.489  10.648   5.282 -0.8351 -1.4766  1.5202
  529MOL0     H69783   8.408  10.734   5.148  0.1545 -3.4053  0.6058
  529MOL0     H69784   8.256  10.600   5.251  1.9887 -0.5965 -0.1889
  529MOL0     H69785   8.200  10.767   5.269 -0.0515 -1.8165 -5.2376
  529MOL0     H69786   8.339  10.616   5.492  0.7605  1.4758 -0.3418
  529MOL0     H69787   8.271  10.784   5.490  2.7396 -0.4237 -0.7590
  529MOL0     H69788   8.044  10.672   5.410  1.8073 -1.3379 -2.8483
  529MOL0     H69789   8.078  10.693   5.586 -0.1846 -1.6625  0.5236
  529MOL0     H69790   7.858  10.610   5.547  0.5992 -0.7408 -1.2063
  529MOL0     H69791   7.686  10.514   5.672  0.0463 -1.3046 -0.6008
  529MOL0     H69792   7.526  10.345   6.067  0.0260 -0.2353 -0.5610
  529MOL0     H69793   7.323  10.251   6.194 -1.4869 -0.3919 -0.5205
  529MOL0     H69794   7.249  10.030   6.207  0.2268  1.6397  1.0687
  529MOL0     H69795   7.090   9.961   6.194 -0.9642  0.5977 -2.6677
  529MOL0     H69796   7.159  10.227   6.325  1.6271 -0.7414  2.5434
  529MOL0     H69797   7.123  10.081   6.409 -1.9173 -0.0756 -0.0656
  529MOL0     H69798   6.904  10.063   6.350 -2.4469  1.3616 -0.7494
  529MOL0     H69799   6.917  10.178   6.219 -2.7716 -0.3775  1.4039
  529MOL0     H69800   6.938  10.244   6.509 -0.2566 -3.0334 -0.4578
  529MOL0     H69801   6.958  10.364   6.374 -0.9833 -0.0832 -0.9208
  529MOL0     H69802   6.751  10.320   6.283 -0.8188  0.2709  0.5372
  529MOL0     H69803   6.744  10.392   6.444  2.3344  0.8185 -0.0864
  529MOL0     H69804   6.683  10.181   6.551 -1.4725 -1.6142  0.5391
  529MOL0     H69805   6.694  10.088   6.398 -0.1023  1.0748 -2.2349
  529MOL0     H69806   6.499  10.280   6.514 -0.9886 -4.0604  4.3765
  529MOL0     H69807   6.508  10.279   6.342  1.5201 -0.8017 -0.7659
  529MOL0     H69808   6.438  10.041   6.340  2.6175 -2.1522  2.0157
  529MOL0     H69809   6.319  10.144   6.430  0.3674  0.1180  1.8286
  529MOL0     H69810   7.136  10.181   5.818  0.3475 -1.7750 -0.4655
  529MOL0     H69811   7.346  10.241   5.702  1.2249 -1.2810  0.0317
  529MOL0     H69812   7.902  10.156   5.725  0.2787 -0.9776 -2.4776
  529MOL0     H69813   8.105  10.265   5.596  0.9088  1.1859 -1.2267
  529MOL0     H69814   9.502  11.109   5.381 -0.4839 -0.6990  0.8169
  529MOL0     H69815   9.688  11.043   5.238  1.0792 -0.3878 -0.6746
  529MOL0     H69816  10.197  10.969   5.324  1.4572  0.9992  0.1046
  529MOL0     H69817  10.435  10.910   5.235  1.7913  1.6619 -1.0898
  529MOL0     H69818  10.558  11.046   4.829 -0.1312  1.3251  2.9095
  529MOL0     H69819  10.444  10.913   4.820  1.3249 -0.3120 -1.4805
  529MOL0     H69820  10.675  10.866   4.730  3.7842  0.6618  0.6759
  529MOL0     H69821  10.735  10.849   4.886  1.3446 -3.5646 -2.8968
  529MOL0     H69822  10.660  10.622   4.784  0.7951  1.5087  0.5035
  529MOL0     H69823  10.503  10.703   4.760 -2.0457  1.8276  1.5233
  529MOL0     H69824  10.453  10.705   4.992  1.4806  2.5548  1.6331
  529MOL0     H69825  10.517  10.543   4.961 -1.8167  1.0085 -3.3748
  529MOL0     H69826  10.780  10.603   5.247 -1.8681 -0.8629  0.7494
  529MOL0     H69827  10.344  11.121   4.888  0.2860 -2.5163 -1.2365
  529MOL0     H69828  10.110  11.188   4.967 -1.9891 -0.6671  1.0969
  530MOL0     O69829  10.307   6.811   4.864 -0.2306 -0.7550  0.7490
  530MOL0     C69830  10.369   6.921   4.867 -0.3396  0.8641  0.3045
  530MOL0     O69831  10.340   7.028   4.795 -0.3516  0.8524  0.0534
  530MOL0     C69832  10.215   7.036   4.738 -0.7759  0.4735 -0.5175
  530MOL0     C69833  10.100   7.050   4.820  0.5971 -0.0286  0.1895
  530MOL0     C69834   9.974   7.076   4.762  0.5432 -0.2985 -0.2464
  530MOL0     C69835   9.947   7.068   4.626  0.0871  0.4674  0.3420
  530MOL0     O69836   9.825   7.063   4.567 -0.2735 -0.1611 -0.6427
  530MOL0     C69837   9.701   7.049   4.649  0.3001 -0.5164  0.0227
  530MOL0     C69838   9.586   7.060   4.555 -0.6455 -0.5748  0.5220
  530MOL0     C69839   9.598   6.966   4.435 -0.3726 -0.4095  0.5040
  530MOL0     C69840   9.500   7.025   4.336 -0.6244 -0.1512  0.1978
  530MOL0     C69841   9.361   6.961   4.358  0.1653  0.2055 -0.6017
  530MOL0     C69842   9.253   7.020   4.276 -0.3299  0.2019  0.0263
  530MOL0     C69843   9.110   6.967   4.303  0.1700 -0.1476  0.6830
  530MOL0     C69844   9.061   7.017   4.441  0.1237 -0.3754 -0.8508
  530MOL0     N69845   8.918   6.978   4.459  0.2034  0.5817  0.0118
  530MOL0     C69846   8.819   7.030   4.387 -1.1636 -0.4253  0.5917
  530MOL0     C69847   8.708   6.991   4.443  0.5614 -0.4400  0.1981
  530MOL0     C69848   8.577   7.049   4.404 -0.5715 -0.1184 -0.5470
  530MOL0     C69849   8.545   7.194   4.461  0.0681  0.0910 -0.6031
  530MOL0     C69850   8.401   7.237   4.414  0.1571 -0.0670 -0.4844
  530MOL0     C69851   8.377   7.384   4.446 -0.9509  0.1064  0.0781
  530MOL0     O69852   8.347   7.403   4.592 -0.7821 -0.6274  0.0940
  530MOL0     C69853   8.255   7.497   4.608 -0.6188  0.1816 -1.6189
  530MOL0     C69854   8.191   7.492   4.739 -0.2061  0.0074 -0.5664
  530MOL0     C69855   8.094   7.584   4.780 -0.1972  0.3066 -0.3112
  530MOL0     C69856   8.077   7.698   4.703  0.5312  0.2139  0.1673
  530MOL0     C69857   7.980   7.802   4.736 -0.1762  0.4949  0.3741
  530MOL0     O69858   7.919   7.795   4.850  0.5567  0.0626 -0.1656
  530MOL0     C69859   7.851   7.908   4.894  0.0527 -0.1494  0.8782
  530MOL0     C69860   7.723   7.889   4.952  0.4344 -1.1306  0.2280
  530MOL0     C69861   7.654   7.989   5.026  0.7273 -0.5870  0.3683
  530MOL0     C69862   7.692   8.122   5.024  0.9481 -0.6495  0.3026
  530MOL0     O69863   7.618   8.224   5.075 -0.5119 -0.4305 -0.2964
  530MOL0     C69864   7.478   8.203   5.121 -0.6145 -0.0066 -0.3071
  530MOL0     C69865   7.477   8.145   5.265 -0.3377 -0.0292  0.2629
  530MOL0     C69866   7.362   8.041   5.291 -0.0686 -0.4613 -0.5880
  530MOL0     C69867   7.327   8.035   5.439  0.3146  0.1027  0.5058
  530MOL0     C69868   7.217   7.938   5.474  1.0662 -0.3179 -0.5903
  530MOL0     C69869   7.182   7.937   5.622 -0.0849 -0.2682 -0.3325
  530MOL0     C69870   7.057   7.868   5.663  0.2657 -0.0634  0.0741
  530MOL0     C69871   6.925   7.939   5.634  0.0658  0.3238 -0.7808
  530MOL0    Cl69872   6.927   8.069   5.767  0.2133  0.1606  0.3677
  530MOL0     C69873   7.809   8.145   4.956 -0.1309 -0.4534  0.0784
  530MOL0     C69874   7.890   8.043   4.889 -0.2504  0.1317  0.0138
  530MOL0     O69875   7.966   7.897   4.658 -0.5121  0.4501  0.2336
  530MOL0     C69876   8.143   7.706   4.582 -0.2881 -0.5070 -1.1775
  530MOL0     C69877   8.223   7.604   4.525 -0.0710  0.7473  0.1497
  530MOL0     N69878   8.731   6.908   4.539 -0.6907  1.0084  0.4584
  530MOL0     N69879   8.860   6.894   4.545 -0.4572 -0.3530  0.4438
  530MOL0     C69880  10.062   7.040   4.540  0.8484  0.1759 -0.5737
  530MOL0     C69881  10.189   7.022   4.599 -0.3825 -0.1388  0.0202
  530MOL0     C69882  10.494   6.929   4.946  0.3174 -0.3185 -0.2326
  530MOL0     C69883  10.557   7.052   4.965 -0.5340 -0.0927 -0.7648
  530MOL0     C69884  10.676   7.050   5.040  0.5465  0.1608  0.8795
  530MOL0     C69885  10.729   6.932   5.096 -0.2149 -0.5996  0.7191
  530MOL0     O69886  10.832   6.931   5.181  0.2106 -0.2505  0.4663
  530MOL0     C69887  10.892   7.058   5.228 -1.4630 -0.6299  0.5303
  530MOL0     C69888  11.004   7.095   5.127 -0.0610 -0.4893  0.5838
  530MOL0     C69889  11.109   6.984   5.100 -0.4792  0.0927  0.3838
  530MOL0     C69890  11.188   6.937   5.221 -0.0990  0.1662 -1.5417
  530MOL0     C69891  11.280   7.039   5.280  0.1404 -0.4168 -0.1796
  530MOL0     C69892  11.363   7.127   5.308 -0.5385 -0.7584 -0.1822
  530MOL0     C69893  10.674   6.807   5.065  0.0251 -0.8589  0.2792
  530MOL0     C69894  10.559   6.815   4.994 -0.7233  0.3479  0.2818
  530MOL0     H69895  10.117   7.041   4.927  3.2810  0.6871 -0.0948
  530MOL0     H69896   9.896   7.096   4.835  3.2473  0.9032  2.5037
  530MOL0     H69897   9.701   7.140   4.709 -2.9578  2.0826 -3.4389
  530MOL0     H69898   9.689   6.954   4.703  0.5379 -0.6085 -0.0829
  530MOL0     H69899   9.590   7.162   4.517  0.1439 -0.7990 -0.0205
  530MOL0     H69900   9.494   7.049   4.614 -1.3472 -0.9128 -0.6199
  530MOL0     H69901   9.590   6.860   4.462 -0.3885 -0.4957  0.1706
  530MOL0     H69902   9.702   6.969   4.399 -0.5493 -1.0181 -0.0863
  530MOL0     H69903   9.498   7.134   4.346 -0.5441 -0.2435  1.3456
  530MOL0     H69904   9.531   7.004   4.233  0.6097  1.7785  0.1383
  530MOL0     H69905   9.336   6.983   4.462 -2.3491  0.7270 -1.2641
  530MOL0     H69906   9.359   6.853   4.344  1.2872 -0.0140  0.7025
  530MOL0     H69907   9.285   7.009   4.172  1.5471 -1.1199  0.6793
  530MOL0     H69908   9.243   7.127   4.295 -0.7360  0.5711 -2.1101
  530MOL0     H69909   9.043   7.001   4.224 -0.6843 -1.1417  0.9564
  530MOL0     H69910   9.107   6.858   4.303 -0.7345 -0.1619 -1.3679
  530MOL0     H69911   9.073   7.124   4.462  2.3522 -0.4594 -1.4628
  530MOL0     H69912   9.118   6.960   4.515  0.0511 -1.0119 -1.2751
  530MOL0     H69913   8.836   7.079   4.292 -0.0057 -1.2861  0.3267
  530MOL0     H69914   8.503   6.978   4.442  1.8836 -1.5226  1.9678
  530MOL0     H69915   8.570   7.053   4.295  1.5258  3.0598 -0.6976
  530MOL0     H69916   8.617   7.263   4.416  3.0402 -2.9157 -0.8428
  530MOL0     H69917   8.549   7.201   4.570 -2.5002  1.3475 -0.5124
  530MOL0     H69918   8.394   7.215   4.308  0.3319 -4.2911  0.2252
  530MOL0     H69919   8.319   7.184   4.463 -1.2140 -1.4039 -3.9727
  530MOL0     H69920   8.294   7.408   4.380 -0.5610 -2.2778 -1.3686
  530MOL0     H69921   8.456   7.448   4.404 -0.8055  0.3739  0.7383
  530MOL0     H69922   8.219   7.415   4.810  0.6989  0.8339 -0.0080
  530MOL0     H69923   8.031   7.573   4.868 -1.3987  2.5405 -0.8099
  530MOL0     H69924   7.677   7.791   4.959  1.7635 -1.7861  0.1981
  530MOL0     H69925   7.556   7.960   5.062 -0.9368  0.6674 -2.7527
  530MOL0     H69926   7.428   8.131   5.056  0.0126 -0.7878  0.0532
  530MOL0     H69927   7.422   8.296   5.110 -0.3716  0.1118 -0.5639
  530MOL0     H69928   7.447   8.225   5.333 -0.9863 -0.6624  0.7329
  530MOL0     H69929   7.569   8.110   5.313 -2.0479 -1.4249  2.7432
  530MOL0     H69930   7.384   7.939   5.258 -0.4541 -1.1668  1.2254
  530MOL0     H69931   7.274   8.076   5.237 -1.5633 -2.3723  0.5130
  530MOL0     H69932   7.414   8.028   5.505  0.2490  3.2757  1.0580
  530MOL0     H69933   7.290   8.134   5.465  0.1380  0.0751  0.3555
  530MOL0     H69934   7.250   7.840   5.437  2.3648  0.5088 -1.7066
  530MOL0     H69935   7.122   7.966   5.428 -0.1984 -1.7075  1.0247
  530MOL0     H69936   7.164   8.036   5.665 -0.9982 -1.1431  1.4210
  530MOL0     H69937   7.271   7.903   5.676 -2.1553 -2.4526  1.9822
  530MOL0     H69938   7.057   7.772   5.611 -1.0970  0.1969 -0.4409
  530MOL0     H69939   7.074   7.854   5.770 -0.5995 -0.1962  0.1973
  530MOL0     H69940   6.839   7.872   5.641 -0.1654  0.6763 -0.0301
  530MOL0     H69941   6.933   7.974   5.531 -2.3534  0.2309 -1.0713
  530MOL0     H69942   7.844   8.246   4.936  0.0399 -0.7674 -1.2926
  530MOL0     H69943   7.981   8.066   4.833  0.6123 -3.2489 -0.1883
  530MOL0     H69944   8.131   7.792   4.517 -1.8608 -0.1493 -0.4748
  530MOL0     H69945   8.256   7.618   4.423 -1.1876 -3.7031 -1.0259
  530MOL0     H69946  10.049   7.024   4.434  0.3960 -2.2600 -0.1999
  530MOL0     H69947  10.268   6.992   4.531 -0.3913  3.0413 -1.5415
  530MOL0     H69948  10.524   7.147   4.924 -1.0918 -0.7575 -1.9085
  530MOL0     H69949  10.725   7.147   5.040  0.8169  0.0351  1.8173
  530MOL0     H69950  10.938   7.047   5.327 -1.8986 -1.7448  0.6220
  530MOL0     H69951  10.820   7.140   5.223 -1.8268 -0.9704  0.0942
  530MOL0     H69952  10.958   7.111   5.029  2.8043  0.6460 -0.6834
  530MOL0     H69953  11.055   7.190   5.145  1.2465 -0.4638 -2.6354
  530MOL0     H69954  11.180   7.021   5.026  0.1507 -1.8624 -0.0454
  530MOL0     H69955  11.057   6.896   5.061  3.5172 -3.8210  2.9643
  530MOL0     H69956  11.122   6.901   5.301  0.5743 -0.1911 -1.1415
  530MOL0     H69957  11.252   6.851   5.202  1.1784  0.1191  2.0754
  530MOL0     H69958  11.425   7.213   5.325 -0.6367 -0.4740 -1.2288
  530MOL0     H69959  10.709   6.711   5.103  2.6476 -1.0928 -2.3690
  530MOL0     H69960  10.513   6.719   4.969  0.3070  0.1132 -0.8066
  531MOL0     O69961  10.432  10.254   4.764  0.5044  0.2679  0.1184
  531MOL0     C69962  10.364  10.169   4.825 -0.1686  0.3504  0.2151
  531MOL0     O69963  10.405  10.039   4.849  0.8499 -0.0518 -0.5006
  531MOL0     C69964  10.523  10.000   4.799 -0.2333  0.6032  0.1943
  531MOL0     C69965  10.520   9.966   4.660  0.3638  0.2267  0.1160
  531MOL0     C69966  10.639   9.944   4.593 -0.1765  0.0911  0.5017
  531MOL0     C69967  10.760   9.968   4.665 -0.5664  0.5750  0.9807
  531MOL0     O69968  10.884   9.959   4.602 -0.7606 -0.1204 -0.4473
  531MOL0     C69969  10.966  10.080   4.603  0.6392 -0.1831 -0.6617
  531MOL0     C69970  11.110  10.055   4.571  0.2427 -0.2015 -0.0013
  531MOL0     C69971  11.151  10.105   4.437 -0.5683 -0.1938 -0.8929
  531MOL0     C69972  11.305  10.089   4.431 -0.6874 -1.0683  0.0545
  531MOL0     C69973  11.373  10.146   4.306  0.7579 -0.2685  0.6545
  531MOL0     C69974  11.522  10.171   4.323  0.2136  0.7206 -0.1265
  531MOL0     C69975  11.568  10.234   4.185 -0.1673 -0.0132  0.3247
  531MOL0     C69976  11.721  10.231   4.164  0.4272 -0.9135 -0.5286
  531MOL0     N69977  11.776  10.339   4.249  1.2127 -0.4191 -0.1785
  531MOL0     C69978  11.812  10.341   4.378 -0.4118  0.2001 -0.2581
  531MOL0     C69979  11.907  10.438   4.395  0.1882  0.1783  0.0730
  531MOL0     C69980  11.973  10.488   4.525  0.2988  0.0379  0.7429
  531MOL0     C69981  11.879  10.522   4.643 -0.4776  0.8074  0.1904
  531MOL0     C69982  11.755  10.615   4.604 -0.5039 -0.1592 -0.3356
  531MOL0     C69983  11.644  10.615   4.716 -0.3845  0.0192  0.7950
  531MOL0     O69984  11.598  10.474   4.729 -0.1996 -0.3816 -0.1695
  531MOL0     C69985  11.481  10.441   4.779  0.0297 -1.0725 -0.3100
  531MOL0     C69986  11.425  10.507   4.891  0.7617 -0.2740 -0.2937
  531MOL0     C69987  11.301  10.474   4.952 -0.4755 -0.1145  0.5731
  531MOL0     C69988  11.240  10.351   4.903  0.6912 -0.1752 -0.9060
  531MOL0     C69989  11.101  10.313   4.955 -0.4092 -0.4522  0.1464
  531MOL0     O69990  11.027  10.401   5.034 -0.1038 -0.6197  0.3265
  531MOL0     C69991  10.903  10.348   5.075 -0.4469 -0.3848 -0.7194
  531MOL0     C69992  10.791  10.347   4.998  0.5260 -0.1987 -0.4847
  531MOL0     C69993  10.669  10.305   5.054 -0.0318  1.1057  0.9342
  531MOL0     C69994  10.674  10.253   5.186 -0.1260 -0.9604  0.5195
  531MOL0     O69995  10.563  10.219   5.259 -0.7951 -0.6694  0.3706
  531MOL0     C69996  10.440  10.276   5.213 -0.4377 -0.7260 -0.0344
  531MOL0     C69997  10.340  10.255   5.331  0.7107 -0.1143  0.6723
  531MOL0     C69998  10.210  10.318   5.296  0.1122 -0.4730 -0.3123
  531MOL0     C69999  10.193  10.467   5.343  0.3363  0.1932  0.2233
  531MOL0     C70000  10.070  10.510   5.284  0.2102 -0.3611  0.0216
  531MOL0     C70001  10.033  10.658   5.298  0.3284 -0.2010  0.1228
  531MOL0     C70002   9.890  10.696   5.288  0.0795  0.1216 -0.5382
  531MOL0     C70003   9.830  10.664   5.148 -0.2823  0.7750  0.1795
  531MOL0    Cl70004   9.661  10.704   5.125  0.6258 -0.2693  0.0472
  531MOL0     C70005  10.793  10.241   5.259  0.9283  0.2636  0.4385
  531MOL0     C70006  10.907  10.294   5.205 -0.8745  0.8240 -0.4754
  531MOL0     O70007  11.064  10.207   4.910 -0.4642  0.2266  0.3976
  531MOL0     C70008  11.311  10.282   4.807  0.4520  1.1418 -0.7620
  531MOL0     C70009  11.426  10.324   4.750  0.2493 -0.9003  0.4969
  531MOL0     N70010  11.918  10.504   4.275 -0.4832  0.2957 -0.3176
  531MOL0     N70011  11.844  10.438   4.194 -0.5510  0.4077  0.9697
  531MOL0     C70012  10.758   9.992   4.804 -0.4108 -1.4234  0.4274
  531MOL0     C70013  10.638  10.007   4.878 -0.4470 -0.0522  0.4291
  531MOL0     C70014  10.236  10.215   4.875  0.3228 -1.4027  0.7174
  531MOL0     C70015  10.190  10.353   4.872 -0.6347  0.2698 -0.2025
  531MOL0     C70016  10.061  10.382   4.919 -0.6757  0.0452  0.7898
  531MOL0     C70017   9.986  10.283   4.972 -0.6528 -0.1561  0.1173
  531MOL0     O70018   9.872  10.320   5.036  1.1433 -0.9951  0.2200
  531MOL0     C70019   9.824  10.232   5.142  0.1391 -0.6462  0.0735
  531MOL0     C70020   9.686  10.263   5.191 -0.0488 -0.6627 -0.2819
  531MOL0     C70021   9.691  10.344   5.323 -0.0279 -0.4442  0.7609
  531MOL0     C70022   9.551  10.398   5.358 -0.4913 -0.3200  0.1759
  531MOL0     C70023   9.463  10.292   5.407 -1.1174  0.1873 -0.0417
  531MOL0     C70024   9.395  10.199   5.447 -0.0320 -0.8959 -0.3245
  531MOL0     C70025  10.030  10.145   4.980  0.2485 -0.4623 -0.8184
  531MOL0     C70026  10.159  10.116   4.934  0.1011 -0.0149 -0.3997
  531MOL0     H70027  10.427   9.966   4.603  0.3557  1.4560  0.1022
  531MOL0     H70028  10.639   9.928   4.486 -0.7926  4.0701 -0.2310
  531MOL0     H70029  10.965  10.116   4.707 -1.0040 -1.5496 -0.1633
  531MOL0     H70030  10.917  10.155   4.540 -2.9691 -2.0418 -0.3184
  531MOL0     H70031  11.129   9.947   4.568  0.3844 -0.1830 -2.8857
  531MOL0     H70032  11.179  10.098   4.645 -1.1524  1.9680  0.1065
  531MOL0     H70033  11.129  10.212   4.421 -2.2736 -0.2118  0.8858
  531MOL0     H70034  11.111  10.041   4.358  2.9361 -3.6805 -0.1268
  531MOL0     H70035  11.352  10.146   4.511  2.3662  0.6063 -2.7026
  531MOL0     H70036  11.334   9.986   4.451  0.3907 -0.3040  3.0809
  531MOL0     H70037  11.343  10.250   4.289  2.3713  0.1320  0.0424
  531MOL0     H70038  11.340  10.086   4.221 -2.6005  3.4738 -0.9962
  531MOL0     H70039  11.577  10.080   4.350 -0.9499 -0.0942 -0.4160
  531MOL0     H70040  11.546  10.239   4.405 -2.6348  1.1535  0.4469
  531MOL0     H70041  11.522  10.186   4.098 -2.6060  1.3490  0.7931
  531MOL0     H70042  11.543  10.340   4.182  2.4546  0.7019  0.6996
  531MOL0     H70043  11.756  10.236   4.060  1.0947  1.0006 -0.2485
  531MOL0     H70044  11.745  10.130   4.198 -0.4753 -1.0620 -0.3114
  531MOL0     H70045  11.796  10.274   4.462  0.8761  2.7680  2.2195
  531MOL0     H70046  12.033  10.572   4.488 -0.8277  1.3916  1.8598
  531MOL0     H70047  12.046  10.413   4.558 -0.6056 -1.1850  0.0205
  531MOL0     H70048  11.938  10.560   4.726  2.8551 -2.9030 -0.1879
  531MOL0     H70049  11.841  10.429   4.688  1.4436  0.9877  2.3551
  531MOL0     H70050  11.795  10.716   4.611 -0.1531 -0.3773  1.2943
  531MOL0     H70051  11.706  10.600   4.508 -1.3450 -0.3985  0.1150
  531MOL0     H70052  11.560  10.676   4.682  1.0175  0.4681 -2.1464
  531MOL0     H70053  11.690  10.655   4.807  1.7430 -0.5313  0.0037
  531MOL0     H70054  11.464  10.603   4.922 -2.4167  0.6599  1.3000
  531MOL0     H70055  11.261  10.541   5.028  4.6932  0.1730  3.5613
  531MOL0     H70056  10.781  10.397   4.903  1.7436  0.2892 -0.3832
  531MOL0     H70057  10.583  10.314   4.989 -1.2224 -1.2613  2.0395
  531MOL0     H70058  10.403  10.241   5.117 -0.0514 -4.5161  1.0385
  531MOL0     H70059  10.458  10.384   5.206  0.0040 -0.9108 -2.1751
  531MOL0     H70060  10.380  10.294   5.426  2.1902  2.0614 -0.7543
  531MOL0     H70061  10.342  10.147   5.349  0.4332  0.0815  2.0263
  531MOL0     H70062  10.143  10.265   5.364  0.4798 -0.2084  0.2631
  531MOL0     H70063  10.182  10.308   5.191  1.4728  0.6618 -0.8258
  531MOL0     H70064  10.196  10.486   5.450 -2.8526  5.7523 -0.3187
  531MOL0     H70065  10.270  10.534   5.303 -1.5560  0.5134 -3.2414
  531MOL0     H70066   9.995  10.455   5.342  2.1484 -0.0623  3.0328
  531MOL0     H70067  10.058  10.491   5.177  2.8399 -4.5912  0.2725
  531MOL0     H70068  10.081  10.731   5.231  1.2636  0.8874  1.9050
  531MOL0     H70069  10.071  10.682   5.397  3.0539 -1.2146 -0.5695
  531MOL0     H70070   9.833  10.637   5.361  0.7089  0.5234  0.2908
  531MOL0     H70071   9.880  10.798   5.324 -1.2467 -0.4289  0.7766
  531MOL0     H70072   9.841  10.556   5.134 -2.0188  0.4168  1.2154
  531MOL0     H70073   9.879  10.717   5.066 -2.6295  0.7412 -1.3429
  531MOL0     H70074  10.792  10.203   5.361 -3.8798 -0.3508  0.3582
  531MOL0     H70075  11.001  10.293   5.258 -0.6227 -1.1312 -0.8862
  531MOL0     H70076  11.282  10.181   4.780  1.8438  0.6261 -0.3863
  531MOL0     H70077  11.485  10.260   4.685  2.3316  0.6627  0.7591
  531MOL0     H70078  10.849  10.004   4.862  0.2683 -1.0195 -0.6861
  531MOL0     H70079  10.623  10.042   4.979 -3.1400  5.4386 -1.4349
  531MOL0     H70080  10.256  10.429   4.832 -2.3520  1.5225 -0.7586
  531MOL0     H70081  10.027  10.485   4.919  0.3231  0.3822  1.0199
  531MOL0     H70082   9.907  10.222   5.213  0.2566  0.5187  0.1101
  531MOL0     H70083   9.808  10.132   5.099 -0.3905  0.5798 -2.7539
  531MOL0     H70084   9.633  10.308   5.107 -2.2595 -1.1154  0.8001
  531MOL0     H70085   9.628  10.174   5.219 -3.9593  2.1696  1.4657
  531MOL0     H70086   9.754  10.430   5.296 -1.1171  0.6680  1.6383
  531MOL0     H70087   9.745  10.283   5.396  0.3138 -2.3263 -0.9731
  531MOL0     H70088   9.562  10.475   5.435  0.0053  1.3090 -1.4285
  531MOL0     H70089   9.512  10.447   5.268  2.1972  0.3466 -0.7310
  531MOL0     H70090   9.342  10.116   5.488  1.8886 -1.6828  0.7454
  531MOL0     H70091   9.977  10.061   5.024 -2.8501  2.0403  0.5494
  531MOL0     H70092  10.193  10.016   4.957 -0.9905  0.0390  1.7640
  532MOL0     O70093   8.491   9.977   8.983 -0.2817 -0.3391  0.1402
  532MOL0     C70094   8.484   9.926   8.874  0.7096  0.1065 -0.0494
  532MOL0     O70095   8.385   9.942   8.779 -0.6473  0.0170  0.2708
  532MOL0     C70096   8.286  10.028   8.805  0.6277 -1.2709  0.4519
  532MOL0     C70097   8.194  10.008   8.907  0.3582 -0.8281 -0.5625
  532MOL0     C70098   8.090  10.099   8.927 -0.5487  0.6010 -0.1146
  532MOL0     C70099   8.076  10.205   8.841  0.8468 -0.7064 -0.1843
  532MOL0     O70100   7.977  10.297   8.869 -0.6365  0.0890 -0.2027
  532MOL0     C70101   7.871  10.307   8.779 -0.8090  0.4566  0.2354
  532MOL0     C70102   7.812  10.454   8.784 -0.3840  0.0918 -1.0167
  532MOL0     C70103   7.789  10.511   8.924 -0.1447 -0.0117  0.2098
  532MOL0     C70104   7.913  10.597   8.966 -0.4273 -0.3907 -0.5013
  532MOL0     C70105   7.903  10.668   9.096  0.2208  0.7434  0.9707
  532MOL0     C70106   7.901  10.562   9.215  0.2297  0.2959 -0.5093
  532MOL0     C70107   8.035  10.488   9.231  0.2078 -0.7658 -0.7055
  532MOL0     C70108   8.036  10.439   9.380  0.5897 -1.1048 -0.2231
  532MOL0     N70109   8.168  10.373   9.407 -0.1266  0.3293 -0.4100
  532MOL0     C70110   8.218  10.258   9.340 -0.1015  0.4131  0.4289
  532MOL0     C70111   8.330  10.224   9.394  0.1190 -0.3439  0.8877
  532MOL0     C70112   8.404  10.103   9.353 -0.4507  0.0190 -0.7192
  532MOL0     C70113   8.387   9.985   9.456 -0.4529 -2.0599 -0.3915
  532MOL0     C70114   8.443   9.848   9.410  0.9663 -0.1507  0.2168
  532MOL0     C70115   8.592   9.852   9.386 -0.2274 -0.2084  0.1489
  532MOL0     O70116   8.624   9.731   9.309  0.3601  0.0643 -0.8245
  532MOL0     C70117   8.752   9.692   9.292  0.0369  0.1443 -0.0288
  532MOL0     C70118   8.773   9.590   9.206  0.5562 -0.1062 -0.7179
  532MOL0     C70119   8.902   9.530   9.196  0.4451 -1.0460  0.6567
  532MOL0     C70120   9.008   9.575   9.282 -0.0421  0.0881 -0.8178
  532MOL0     C70121   9.135   9.502   9.286 -0.2478 -0.1002 -0.4049
  532MOL0     O70122   9.170   9.425   9.176  0.3323  0.8317  0.7669
  532MOL0     C70123   9.276   9.330   9.177  0.2739 -0.8168  1.0667
  532MOL0     C70124   9.249   9.198   9.150  0.1228 -0.3647 -0.3379
  532MOL0     C70125   9.350   9.109   9.130 -0.0562 -0.1120  0.3524
  532MOL0     C70126   9.483   9.161   9.127 -0.8416 -0.8551 -0.0624
  532MOL0     O70127   9.586   9.075   9.095 -0.5087 -0.3141 -1.1040
  532MOL0     C70128   9.686   9.112   9.006  0.2901 -0.8235 -0.2935
  532MOL0     C70129   9.812   9.122   9.075 -0.3768  0.1645 -0.3185
  532MOL0     C70130   9.938   9.148   8.982  0.7294 -0.7547  0.3045
  532MOL0     C70131  10.044   9.235   9.052  0.7103 -0.0775  1.0553
  532MOL0     C70132  10.143   9.267   8.941  0.1684 -0.0455  0.5275
  532MOL0     C70133  10.257   9.362   8.992  0.0214  0.1040 -1.0550
  532MOL0     C70134  10.365   9.378   8.877  0.5556  0.9557  0.2103
  532MOL0     C70135  10.496   9.446   8.932  0.8324  0.4259  0.2322
  532MOL0    Cl70136  10.615   9.515   8.817  0.0128  0.2326  0.5434
  532MOL0     C70137   9.511   9.303   9.139  0.3774  0.1311 -0.3696
  532MOL0     C70138   9.405   9.383   9.171  0.9384 -1.1166 -0.9039
  532MOL0     O70139   9.200   9.505   9.391 -0.1365 -0.0365 -0.0498
  532MOL0     C70140   8.985   9.681   9.369  0.3190 -0.7034  0.3074
  532MOL0     C70141   8.858   9.744   9.369  0.5664 -1.0896 -0.1705
  532MOL0     N70142   8.344  10.314   9.498  1.1051 -0.4171 -0.2826
  532MOL0     N70143   8.261  10.415   9.498 -0.1691 -0.7837  0.4808
  532MOL0     C70144   8.164  10.230   8.735 -0.5183 -0.1205 -0.7132
  532MOL0     C70145   8.270  10.150   8.721 -0.8208  0.6351 -0.2150
  532MOL0     C70146   8.599   9.834   8.840 -0.0343  1.3739 -0.4724
  532MOL0     C70147   8.604   9.756   8.715 -1.0099 -0.4035  0.3260
  532MOL0     C70148   8.710   9.677   8.685 -0.1896 -0.9982 -0.0591
  532MOL0     C70149   8.815   9.670   8.778 -0.6441  0.9165 -0.9079
  532MOL0     O70150   8.924   9.595   8.733  0.0415 -0.7596  0.0384
  532MOL0     C70151   8.995   9.527   8.832  0.5895  0.3587  0.0068
  532MOL0     C70152   9.112   9.461   8.757  0.1802  0.1975 -0.3338
  532MOL0     C70153   9.211   9.371   8.840  1.4363 -0.3372  0.1090
  532MOL0     C70154   9.319   9.306   8.757  0.4254 -0.0412 -0.1289
  532MOL0     C70155   9.261   9.201   8.680  0.1080  0.1685 -0.7237
  532MOL0     C70156   9.246   9.098   8.617  0.1633 -0.6804 -1.0031
  532MOL0     C70157   8.818   9.743   8.897  0.8129  0.2276 -0.4165
  532MOL0     C70158   8.708   9.819   8.926  0.0217  0.0388 -0.2544
  532MOL0     H70159   8.202   9.925   8.977 -0.2433 -0.8186 -0.4754
  532MOL0     H70160   8.012  10.087   9.001 -1.3178  2.1385 -0.6178
  532MOL0     H70161   7.790  10.237   8.801  0.6090 -2.2151 -2.3762
  532MOL0     H70162   7.914  10.291   8.680  0.3185  0.6763  0.6780
  532MOL0     H70163   7.717  10.453   8.730 -0.2866  2.1005 -1.3214
  532MOL0     H70164   7.874  10.518   8.720 -1.4195  1.3363 -0.8260
  532MOL0     H70165   7.772  10.432   8.998 -0.8612  1.2357  1.4355
  532MOL0     H70166   7.695  10.567   8.922 -0.5471 -0.5796 -3.1823
  532MOL0     H70167   8.003  10.535   8.971 -0.4838 -0.4484 -0.2165
  532MOL0     H70168   7.930  10.671   8.887 -0.1153  0.5235  0.4057
  532MOL0     H70169   7.805  10.717   9.101 -2.1057 -2.4753 -4.1114
  532MOL0     H70170   7.985  10.739   9.108  0.4610  0.2730  2.2339
  532MOL0     H70171   7.819  10.490   9.206 -0.2445  0.8314 -0.4976
  532MOL0     H70172   7.872  10.617   9.305 -2.6108  0.6454 -1.5413
  532MOL0     H70173   8.057  10.399   9.172  0.3588 -0.7207 -0.7180
  532MOL0     H70174   8.115  10.563   9.229 -2.3779  2.2022 -0.3007
  532MOL0     H70175   7.955  10.367   9.397 -1.4060  1.2895  1.1367
  532MOL0     H70176   8.034  10.527   9.445  0.9806 -1.4293  0.2296
  532MOL0     H70177   8.165  10.202   9.264 -0.4074 -3.3249  3.1089
  532MOL0     H70178   8.509  10.132   9.338  0.0919 -0.4833  1.6768
  532MOL0     H70179   8.370  10.056   9.260 -1.0488 -4.1137  1.3403
  532MOL0     H70180   8.283   9.984   9.488 -0.4166  1.0889  0.1380
  532MOL0     H70181   8.448  10.014   9.542 -2.0911  2.9037 -0.5936
  532MOL0     H70182   8.424   9.771   9.485 -0.9432  0.6882  0.6504
  532MOL0     H70183   8.378   9.824   9.326  0.5096 -4.2190  1.5388
  532MOL0     H70184   8.632   9.854   9.487 -3.4674  2.7081  1.5719
  532MOL0     H70185   8.622   9.947   9.339 -0.9398  0.4898  1.0660
  532MOL0     H70186   8.684   9.552   9.159 -0.5393 -1.0671  1.9128
  532MOL0     H70187   8.902   9.434   9.144 -1.2021 -1.8817  2.0748
  532MOL0     H70188   9.145   9.165   9.149  0.6216 -2.0572 -0.1206
  532MOL0     H70189   9.332   9.005   9.102  1.1172  0.3583 -2.5224
  532MOL0     H70190   9.679   9.210   8.957  4.0973 -0.3546 -0.2166
  532MOL0     H70191   9.700   9.037   8.928 -0.2278  0.0531 -1.2456
  532MOL0     H70192   9.815   9.023   9.120  1.8513  0.1645 -0.3882
  532MOL0     H70193   9.795   9.213   9.135 -0.9302  2.3567 -3.5230
  532MOL0     H70194   9.906   9.211   8.898 -0.5206 -2.9709 -0.9755
  532MOL0     H70195   9.971   9.057   8.931 -0.7741 -0.3567 -1.4904
  532MOL0     H70196   9.995   9.330   9.077 -2.4648 -1.3345  0.2221
  532MOL0     H70197  10.099   9.190   9.134 -1.6229 -3.0982  1.1601
  532MOL0     H70198  10.095   9.327   8.864  1.2976 -1.1533 -1.1154
  532MOL0     H70199  10.182   9.184   8.881 -0.6615  0.2341 -0.4074
  532MOL0     H70200  10.311   9.314   9.074 -1.4986  0.5792  0.2748
  532MOL0     H70201  10.210   9.452   9.032 -0.4034 -0.9292  0.8709
  532MOL0     H70202  10.392   9.289   8.820 -1.7024  0.9278 -0.9649
  532MOL0     H70203  10.308   9.451   8.817  2.1966  1.2078 -1.1167
  532MOL0     H70204  10.557   9.374   8.987  1.6000  1.9808  1.5016
  532MOL0     H70205  10.476   9.528   9.002  3.1277  1.3430 -0.1070
  532MOL0     H70206   9.610   9.347   9.130  0.1714  0.3627 -1.7230
  532MOL0     H70207   9.416   9.486   9.206 -0.8266 -2.2401  3.7035
  532MOL0     H70208   9.067   9.721   9.427  0.3314  0.7791 -0.6726
  532MOL0     H70209   8.845   9.820   9.445 -0.7126  0.0545 -1.4777
  532MOL0     H70210   8.141  10.318   8.677 -1.4110  2.9204  3.7274
  532MOL0     H70211   8.340  10.175   8.643 -0.9556  1.0709 -0.1981
  532MOL0     H70212   8.515   9.763   8.653 -1.0524 -3.8185 -0.2441
  532MOL0     H70213   8.730   9.630   8.590 -1.1276 -0.5926 -0.4722
  532MOL0     H70214   8.923   9.453   8.868  2.5462 -2.3775 -1.3999
  532MOL0     H70215   9.030   9.591   8.914 -0.7859  0.2415  0.7199
  532MOL0     H70216   9.073   9.398   8.676 -0.1920  2.4399 -1.9970
  532MOL0     H70217   9.161   9.539   8.698  0.0605 -1.0758 -2.2229
  532MOL0     H70218   9.150   9.296   8.891  0.7908  0.1471  0.0611
  532MOL0     H70219   9.242   9.435   8.922  0.3350  0.9513 -0.4378
  532MOL0     H70220   9.363   9.378   8.688  3.4042  0.2360  1.8529
  532MOL0     H70221   9.404   9.273   8.818  0.6619 -0.4982 -0.6970
  532MOL0     H70222   9.237   9.007   8.562 -0.5290 -1.4651  0.3531
  532MOL0     H70223   8.898   9.739   8.971  1.0524  0.3068 -0.6738
  532MOL0     H70224   8.724   9.879   9.015  3.4960  1.6808 -1.7771
  533MOL0     O70225   0.697   4.634   1.468  0.2577  0.3321 -0.1379
  533MOL0     C70226   0.703   4.529   1.534 -0.0866  0.3865  0.5843
  533MOL0     O70227   0.621   4.498   1.632  0.4588  0.3211 -0.7479
  533MOL0     C70228   0.541   4.592   1.704 -0.1515  0.2446  1.5239
  533MOL0     C70229   0.580   4.723   1.731  0.0939 -0.4979  0.6243
  533MOL0     C70230   0.502   4.803   1.814  0.6909  0.0663 -0.3885
  533MOL0     C70231   0.377   4.766   1.861  0.5347  0.1433 -1.0082
  533MOL0     O70232   0.294   4.848   1.938 -0.2266  0.0729  0.7850
  533MOL0     C70233   0.253   4.976   1.880 -0.4493  0.4151  0.2640
  533MOL0     C70234   0.160   4.948   1.765  0.1763 -0.0219 -0.4973
  533MOL0     C70235   0.045   4.849   1.792 -0.2159 -0.4446  0.1681
  533MOL0     C70236  -0.046   4.887   1.914 -0.5436 -1.0758  0.4298
  533MOL0     C70237  -0.145   4.773   1.928  1.2003  1.0004 -0.5624
  533MOL0     C70238  -0.262   4.782   1.824  0.9475  1.2643 -0.2330
  533MOL0     C70239  -0.371   4.672   1.832 -0.5344 -0.3624 -0.4671
  533MOL0     C70240  -0.326   4.543   1.763 -0.3501  0.1748  0.2451
  533MOL0     N70241  -0.296   4.560   1.622 -0.3033  0.1772  0.5386
  533MOL0     C70242  -0.376   4.622   1.536 -0.1970  0.0500 -0.1318
  533MOL0     C70243  -0.316   4.612   1.413  0.2612 -0.2046  0.3553
  533MOL0     C70244  -0.375   4.693   1.298  1.0787 -0.4184 -0.0970
  533MOL0     C70245  -0.520   4.669   1.273 -0.3528  0.9691  0.6305
  533MOL0     C70246  -0.593   4.769   1.196 -0.4629  0.3679 -0.4675
  533MOL0     C70247  -0.751   4.751   1.183 -0.7536  0.5158 -0.3423
  533MOL0     O70248  -0.794   4.853   1.097 -0.0124 -0.5032  0.2462
  533MOL0     C70249  -0.933   4.865   1.087 -0.6924 -0.2401 -0.0831
  533MOL0     C70250  -0.972   4.977   1.018 -0.1635 -0.2457 -0.0554
  533MOL0     C70251  -1.115   5.007   1.002  0.0150  0.0701 -0.8307
  533MOL0     C70252  -1.208   4.908   1.043 -0.0963 -0.9201  0.0526
  533MOL0     C70253  -1.347   4.943   1.007  0.5337  0.6262  0.5081
  533MOL0     O70254  -1.437   4.838   1.029  0.1016 -0.1950  0.3429
  533MOL0     C70255  -1.564   4.845   0.977  0.1060 -0.5714  0.0544
  533MOL0     C70256  -1.599   4.876   0.847 -0.1488 -0.0949 -0.3967
  533MOL0     C70257  -1.732   4.891   0.809 -0.2090 -0.4272  0.2354
  533MOL0     C70258  -1.836   4.840   0.894  0.3109 -0.5721  0.7856
  533MOL0     O70259  -1.961   4.847   0.853 -0.5402  0.3333 -0.3913
  533MOL0     C70260  -2.035   4.939   0.942  0.0598  0.4010  0.1366
  533MOL0     C70261  -2.160   4.975   0.863  1.0131 -0.6179 -0.2805
  533MOL0     C70262  -2.151   5.051   0.721  0.0896  0.5225 -0.2255
  533MOL0     C70263  -2.277   5.107   0.665 -0.2478  0.7489 -0.3066
  533MOL0     C70264  -2.250   5.172   0.529  0.7635  0.1188  0.5083
  533MOL0     C70265  -2.383   5.203   0.452 -1.5234  0.0062  0.2506
  533MOL0     C70266  -2.366   5.288   0.323  0.4553 -0.2866 -0.8315
  533MOL0     C70267  -2.293   5.215   0.216 -0.0227 -0.0783 -0.4605
  533MOL0    Cl70268  -2.266   5.295   0.063 -0.0730  0.2548  0.2281
  533MOL0     C70269  -1.803   4.805   1.029 -0.2805  0.5776  0.7608
  533MOL0     C70270  -1.669   4.814   1.068  0.4737 -0.1550  0.3661
  533MOL0     O70271  -1.372   5.053   0.959 -0.1054 -0.2111  0.2978
  533MOL0     C70272  -1.163   4.795   1.111 -0.1771 -0.2766 -0.1926
  533MOL0     C70273  -1.027   4.778   1.142 -0.1929 -0.8012  0.1096
  533MOL0     N70274  -0.203   4.543   1.429  0.5758  0.2129 -0.5989
  533MOL0     N70275  -0.190   4.508   1.550 -0.5100  0.2780 -0.2409
  533MOL0     C70276   0.346   4.625   1.843  0.3668 -0.9377  1.0017
  533MOL0     C70277   0.418   4.546   1.757 -0.0110  0.3203 -0.0744
  533MOL0     C70278   0.799   4.429   1.486 -0.4866 -1.1162  0.6311
  533MOL0     C70279   0.908   4.473   1.407  0.2769  0.0231  0.1645
  533MOL0     C70280   1.005   4.387   1.363 -0.4718 -0.5546 -0.0751
  533MOL0     C70281   0.995   4.253   1.404 -1.3319 -0.1157 -0.3690
  533MOL0     O70282   1.084   4.164   1.336  0.5579  0.1689  0.0450
  533MOL0     C70283   1.030   4.079   1.226 -0.3607 -0.0437  0.4307
  533MOL0     C70284   1.051   4.140   1.079 -0.9640  0.0331  0.2770
  533MOL0     C70285   0.976   4.273   1.042 -0.6743 -0.1988 -0.1030
  533MOL0     C70286   0.960   4.286   0.889 -0.3772 -0.2981 -0.5672
  533MOL0     C70287   1.087   4.277   0.826  0.4096  0.7593  0.0135
  533MOL0     C70288   1.190   4.248   0.772 -0.5434 -0.1427 -0.0632
  533MOL0     C70289   0.900   4.218   1.495 -0.3703  0.1104  0.3308
  533MOL0     C70290   0.796   4.301   1.536 -0.0996  0.2072 -0.3877
  533MOL0     H70291   0.682   4.748   1.701  1.4639 -1.1738  4.1883
  533MOL0     H70292   0.538   4.902   1.841  0.4611  0.2742 -0.8422
  533MOL0     H70293   0.338   5.030   1.836  1.0649  0.6939  3.2541
  533MOL0     H70294   0.212   5.045   1.954 -1.0257  1.0546 -0.6242
  533MOL0     H70295   0.216   4.910   1.679  0.1987  0.0794 -0.5264
  533MOL0     H70296   0.114   5.046   1.755 -2.5655 -0.9710  1.5598
  533MOL0     H70297   0.081   4.746   1.795 -1.8543 -1.1764 -2.3435
  533MOL0     H70298  -0.030   4.858   1.712 -0.2016 -1.0432  0.0845
  533MOL0     H70299   0.010   4.906   2.006  1.8130  0.3311 -1.2077
  533MOL0     H70300  -0.099   4.979   1.888 -1.3410 -1.4846  0.5710
  533MOL0     H70301  -0.185   4.764   2.030 -3.2301 -4.2123 -2.2102
  533MOL0     H70302  -0.114   4.668   1.924 -0.7506  0.2430  1.5977
  533MOL0     H70303  -0.232   4.777   1.719 -2.6978  2.1045 -1.4668
  533MOL0     H70304  -0.304   4.879   1.854  1.6682  1.4458  0.2034
  533MOL0     H70305  -0.394   4.648   1.936 -0.6644 -3.2350 -1.0687
  533MOL0     H70306  -0.457   4.721   1.785  0.0465  4.8691  3.1037
  533MOL0     H70307  -0.395   4.459   1.773  1.5751 -1.4049  0.9367
  533MOL0     H70308  -0.233   4.507   1.808 -0.6587  1.1301  1.7295
  533MOL0     H70309  -0.466   4.672   1.571 -1.8251 -2.5420 -0.3135
  533MOL0     H70310  -0.325   4.671   1.203 -0.6785 -1.0256 -0.9291
  533MOL0     H70311  -0.347   4.796   1.324  2.7672 -0.8495 -0.1187
  533MOL0     H70312  -0.576   4.662   1.366 -2.1333 -2.2029 -0.5261
  533MOL0     H70313  -0.526   4.571   1.224  0.4767  0.6903  1.0634
  533MOL0     H70314  -0.572   4.869   1.233  0.8198 -0.6405  1.6941
  533MOL0     H70315  -0.557   4.769   1.092 -1.6709  3.3025 -0.9911
  533MOL0     H70316  -0.781   4.768   1.286  3.2356  2.2130  0.7387
  533MOL0     H70317  -0.778   4.648   1.159 -0.5560  0.1720  0.8908
  533MOL0     H70318  -0.902   5.053   0.985 -0.1703  0.3606  1.2566
  533MOL0     H70319  -1.139   5.103   0.957 -1.1650 -0.5514 -1.5983
  533MOL0     H70320  -1.527   4.892   0.767 -0.8228 -0.9802 -1.2116
  533MOL0     H70321  -1.759   4.929   0.711  1.0076  2.8772  1.0679
  533MOL0     H70322  -1.972   5.025   0.963  2.1652 -0.1411 -3.2043
  533MOL0     H70323  -2.063   4.880   1.030 -1.0383 -0.4563 -0.7485
  533MOL0     H70324  -2.221   5.051   0.912 -0.4532 -0.0959 -2.7174
  533MOL0     H70325  -2.219   4.885   0.846 -1.3643  0.6110  0.9172
  533MOL0     H70326  -2.114   4.983   0.644 -3.3675 -1.6962 -0.0940
  533MOL0     H70327  -2.081   5.136   0.724  1.9379 -0.7668 -2.9119
  533MOL0     H70328  -2.337   5.017   0.649  0.8402 -0.3273  1.2713
  533MOL0     H70329  -2.321   5.180   0.733 -0.5646 -1.0862  1.5668
  533MOL0     H70330  -2.193   5.099   0.471 -0.8885 -2.1817  1.6323
  533MOL0     H70331  -2.196   5.267   0.531  0.0438  0.9277 -4.3050
  533MOL0     H70332  -2.460   5.249   0.514 -1.4441  0.2809  0.1471
  533MOL0     H70333  -2.428   5.107   0.425 -0.8440  0.0380 -1.0861
  533MOL0     H70334  -2.464   5.313   0.283  0.7565 -2.1340 -2.8804
  533MOL0     H70335  -2.297   5.372   0.340 -1.9373  1.3467  1.7084
  533MOL0     H70336  -2.352   5.125   0.198 -3.6686  1.2585  3.1097
  533MOL0     H70337  -2.195   5.184   0.254 -0.9104 -1.3433  0.9090
  533MOL0     H70338  -1.885   4.766   1.088 -1.1586  2.6181  0.9853
  533MOL0     H70339  -1.651   4.786   1.172 -1.8112 -5.0214 -0.2761
  533MOL0     H70340  -1.249   4.734   1.139  1.0893 -1.0585  2.1940
  533MOL0     H70341  -0.986   4.693   1.196  4.4442 -1.5354 -3.8425
  533MOL0     H70342   0.254   4.584   1.882 -0.7547  0.8736  0.3622
  533MOL0     H70343   0.385   4.445   1.736  1.3620 -0.2119  0.1644
  533MOL0     H70344   0.914   4.575   1.372 -0.0258 -0.4909 -1.4636
  533MOL0     H70345   1.079   4.424   1.292 -2.0944  0.7067 -1.1850
  533MOL0     H70346   0.921   4.075   1.231 -0.2782 -2.4466  1.9275
  533MOL0     H70347   1.069   3.978   1.238  1.5363  0.6967  0.9102
  533MOL0     H70348   1.160   4.155   1.076 -1.1804  1.6262 -0.6004
  533MOL0     H70349   1.013   4.070   1.005  1.9869 -1.4321 -0.0159
  533MOL0     H70350   1.034   4.359   1.078  0.5879 -0.5910 -1.0877
  533MOL0     H70351   0.875   4.276   1.082 -0.7415  0.5690 -0.3190
  533MOL0     H70352   0.881   4.229   0.838 -2.4277  1.0725  0.8931
  533MOL0     H70353   0.926   4.387   0.864 -1.7949 -1.1897 -2.5563
  533MOL0     H70354   1.287   4.238   0.729  0.2951  2.0106  1.1886
  533MOL0     H70355   0.892   4.114   1.525  1.1510 -0.2269 -0.3576
  533MOL0     H70356   0.726   4.269   1.612  0.6276 -0.3625  0.0506
  534MOL0     O70357   3.323  11.244   1.082  0.5246 -0.0773 -0.5309
  534MOL0     C70358   3.437  11.252   1.130  1.1999  1.1594 -0.1799
  534MOL0     O70359   3.496  11.159   1.222  0.5437  0.1128  0.0075
  534MOL0     C70360   3.462  11.028   1.221 -0.1637 -0.4940 -0.1192
  534MOL0     C70361   3.570  10.945   1.243  0.1369 -0.1093 -0.1165
  534MOL0     C70362   3.548  10.805   1.261  0.9980  0.4663 -0.2835
  534MOL0     C70363   3.424  10.752   1.255  0.5513  1.5461 -0.3266
  534MOL0     O70364   3.420  10.611   1.261  0.4596  1.1792 -0.1911
  534MOL0     C70365   3.305  10.542   1.224 -0.0337  0.5646  0.2764
  534MOL0     C70366   3.278  10.538   1.076 -0.6448  0.0934  1.1193
  534MOL0     C70367   3.402  10.478   1.007  0.0371  0.4341  0.7118
  534MOL0     C70368   3.383  10.322   1.003  0.7785 -0.2482 -0.1259
  534MOL0     C70369   3.498  10.276   0.897 -0.2328  0.0653  0.0972
  534MOL0     C70370   3.482  10.124   0.887  0.4953  0.1228  0.4973
  534MOL0     C70371   3.583  10.052   0.790 -0.4376 -0.1090  0.1754
  534MOL0     C70372   3.568  10.102   0.648  0.4548  0.3482  1.4363
  534MOL0     N70373   3.654  10.035   0.543 -0.6890 -0.1365  0.0007
  534MOL0     C70374   3.648   9.907   0.528 -0.0349 -0.2988  0.0938
  534MOL0     C70375   3.767   9.870   0.472  0.2759  0.0791 -0.1792
  534MOL0     C70376   3.816   9.739   0.409  0.2380  0.0420  0.1198
  534MOL0     C70377   3.895   9.739   0.276 -0.0306 -0.5643  0.1688
  534MOL0     C70378   4.044   9.794   0.285  0.4517  0.5898  1.2807
  534MOL0     C70379   4.145   9.697   0.337 -0.6097 -0.2312 -1.1687
  534MOL0     O70380   4.134   9.577   0.254 -0.4345  0.2800  0.1050
  534MOL0     C70381   4.226   9.476   0.260  0.3076 -0.1310  1.7998
  534MOL0     C70382   4.329   9.466   0.351  0.1378 -0.0618  0.2534
  534MOL0     C70383   4.411   9.354   0.357 -0.2785  0.7406  0.7668
  534MOL0     C70384   4.393   9.254   0.261 -0.5992 -0.1956 -1.1309
  534MOL0     C70385   4.489   9.140   0.261  0.0742  0.4485 -0.4603
  534MOL0     O70386   4.569   9.130   0.370  0.8353  0.0386 -0.3476
  534MOL0     C70387   4.630   9.006   0.396  0.2587 -0.6252  0.2073
  534MOL0     C70388   4.733   8.959   0.317  0.5282 -0.0221  0.1733
  534MOL0     C70389   4.805   8.840   0.342 -0.1906 -0.3862 -0.4565
  534MOL0     C70390   4.796   8.768   0.462 -0.0115 -0.7306  0.4772
  534MOL0     O70391   4.864   8.658   0.501 -0.0559 -0.2797  0.2241
  534MOL0     C70392   4.998   8.661   0.447  0.2821  0.3263 -0.7055
  534MOL0     C70393   5.086   8.584   0.548 -0.2241  0.0577 -0.6478
  534MOL0     C70394   5.085   8.641   0.689 -0.2438 -0.1798 -0.5198
  534MOL0     C70395   5.228   8.627   0.749  0.0050 -0.3347 -0.2930
  534MOL0     C70396   5.274   8.478   0.760 -0.5416  0.5081 -0.3533
  534MOL0     C70397   5.396   8.464   0.841  0.7105 -0.7173  0.3420
  534MOL0     C70398   5.414   8.316   0.886  0.7453  0.4755  0.6092
  534MOL0     C70399   5.566   8.290   0.899  0.2077 -0.3406 -0.7183
  534MOL0    Cl70400   5.577   8.135   0.966 -0.0660 -0.1909  0.3139
  534MOL0     C70401   4.697   8.827   0.544 -0.0713  0.8452 -1.0299
  534MOL0     C70402   4.616   8.944   0.514 -0.3873 -0.0831  0.5870
  534MOL0     O70403   4.482   9.055   0.177  0.2175  0.1793  0.3639
  534MOL0     C70404   4.290   9.259   0.171  0.9835  0.3412 -0.6555
  534MOL0     C70405   4.204   9.366   0.168 -0.3395  0.5409 -0.6599
  534MOL0     N70406   3.827   9.987   0.453 -0.7390  0.4036  0.9251
  534MOL0     N70407   3.769  10.093   0.495 -0.7086 -0.2705 -0.0953
  534MOL0     C70408   3.312  10.835   1.220 -0.2941 -0.8899 -0.4560
  534MOL0     C70409   3.336  10.975   1.204  0.4272 -0.5958 -0.4341
  534MOL0     C70410   3.520  11.368   1.104 -0.4251  0.1818  0.1683
  534MOL0     C70411   3.475  11.476   1.025 -0.3189  0.5893  0.2753
  534MOL0     C70412   3.564  11.585   0.993  0.8708  0.3248 -0.5226
  534MOL0     C70413   3.688  11.584   1.052 -0.2510  0.1534  0.5405
  534MOL0     O70414   3.746  11.702   1.041  0.9022 -0.7815 -0.9792
  534MOL0     C70415   3.876  11.740   1.083  0.1354  0.2010 -0.3613
  534MOL0     C70416   3.878  11.834   1.209  0.0700 -0.6924  0.3322
  534MOL0     C70417   3.824  11.761   1.337  0.0870 -0.3673  0.1557
  534MOL0     C70418   3.673  11.782   1.369 -1.0680 -0.5962  0.5342
  534MOL0     C70419   3.631  11.921   1.390  1.0249 -0.2857  0.6302
  534MOL0     C70420   3.583  12.037   1.393 -0.4528 -0.0624 -0.3643
  534MOL0     C70421   3.734  11.483   1.130  0.8102 -0.6640  0.2839
  534MOL0     C70422   3.656  11.370   1.153  0.7192 -1.2698  1.0931
  534MOL0     H70423   3.664  10.993   1.266  0.3060 -1.6293  2.8625
  534MOL0     H70424   3.631  10.743   1.294  2.8138  1.8678 -1.9927
  534MOL0     H70425   3.218  10.593   1.265  1.4564  3.6723 -0.1363
  534MOL0     H70426   3.311  10.450   1.282 -2.2227  1.2655  1.7174
  534MOL0     H70427   3.260  10.635   1.030  3.2912 -0.1485 -1.3086
  534MOL0     H70428   3.190  10.473   1.062 -2.2835  2.6803 -2.1741
  534MOL0     H70429   3.496  10.502   1.057  2.2637 -3.6691 -0.9606
  534MOL0     H70430   3.403  10.516   0.905  0.9594 -0.3334  0.4113
  534MOL0     H70431   3.394  10.265   1.096  1.3647 -2.5360 -1.5008
  534MOL0     H70432   3.281  10.292   0.976 -1.0225  0.3022  4.8811
  534MOL0     H70433   3.600  10.303   0.926 -0.5975 -0.3109  1.8516
  534MOL0     H70434   3.482  10.325   0.800 -2.5754 -0.2858  0.2386
  534MOL0     H70435   3.377  10.114   0.859  0.7257  1.6463 -1.0686
  534MOL0     H70436   3.478  10.083   0.988 -0.0787 -1.3430 -0.0763
  534MOL0     H70437   3.679  10.074   0.837 -0.7044  0.9520  0.2336
  534MOL0     H70438   3.573   9.943   0.793  1.5925 -0.3749 -0.8190
  534MOL0     H70439   3.588  10.210   0.653 -2.6645  1.0626  0.9445
  534MOL0     H70440   3.466  10.099   0.609  1.0933 -1.0603 -0.2385
  534MOL0     H70441   3.556   9.856   0.556 -1.9255  2.8437  0.1087
  534MOL0     H70442   3.729   9.673   0.403  1.3838 -1.7430  1.7782
  534MOL0     H70443   3.877   9.690   0.486  0.8389  3.3598  1.9305
  534MOL0     H70444   3.843   9.815   0.217  1.0768  1.1155  1.2515
  534MOL0     H70445   3.889   9.646   0.220 -0.2698 -0.1490 -0.5081
  534MOL0     H70446   4.079   9.823   0.186  0.0887 -0.8638  0.7050
  534MOL0     H70447   4.049   9.886   0.345  0.7664  1.1863  0.3587
  534MOL0     H70448   4.133   9.678   0.444 -1.6868  4.3007 -0.2691
  534MOL0     H70449   4.242   9.736   0.307 -0.4339 -0.7474 -1.2727
  534MOL0     H70450   4.354   9.553   0.410  2.8557  0.9700 -2.1577
  534MOL0     H70451   4.493   9.346   0.427 -2.1148 -2.0407  2.8156
  534MOL0     H70452   4.756   9.016   0.228  0.6324 -0.8323 -0.3283
  534MOL0     H70453   4.881   8.815   0.268  1.5181  4.7307 -0.7866
  534MOL0     H70454   5.039   8.761   0.432  0.9475 -0.0992 -1.8854
  534MOL0     H70455   4.999   8.605   0.353 -1.1320  0.4751 -0.8314
  534MOL0     H70456   5.189   8.596   0.514  1.5311 -1.2383  3.4856
  534MOL0     H70457   5.064   8.477   0.555 -0.0126 -0.2112 -3.1771
  534MOL0     H70458   5.018   8.585   0.754 -1.6236 -0.7255 -2.3462
  534MOL0     H70459   5.054   8.745   0.702 -2.0351 -0.8579  1.0208
  534MOL0     H70460   5.300   8.687   0.692 -0.6405  1.1522  0.4082
  534MOL0     H70461   5.218   8.656   0.854  2.2069 -1.6629  0.3496
  534MOL0     H70462   5.296   8.424   0.668 -0.4274 -3.7804  1.9239
  534MOL0     H70463   5.193   8.415   0.799  1.4500 -1.9874 -0.0006
  534MOL0     H70464   5.392   8.534   0.925  0.6058 -0.0275 -0.2281
  534MOL0     H70465   5.485   8.495   0.787 -0.7943 -1.9355 -3.1620
  534MOL0     H70466   5.375   8.283   0.983 -0.2311  0.4432  0.2088
  534MOL0     H70467   5.374   8.249   0.809 -1.1187 -0.5007  2.3232
  534MOL0     H70468   5.624   8.342   0.976 -1.9088  2.0309 -0.6224
  534MOL0     H70469   5.615   8.318   0.805  0.3031  0.8929 -0.3244
  534MOL0     H70470   4.661   8.771   0.629  1.6018 -1.2447 -1.6051
  534MOL0     H70471   4.538   8.978   0.582  1.0990  0.8848  1.8886
  534MOL0     H70472   4.258   9.171   0.115  1.4429  0.5458 -1.2443
  534MOL0     H70473   4.121   9.354   0.099 -0.4232  0.1856 -0.4996
  534MOL0     H70474   3.211  10.796   1.207  0.5928 -2.8489 -1.8127
  534MOL0     H70475   3.255  11.045   1.187 -0.8327 -2.0544 -0.7148
  534MOL0     H70476   3.375  11.470   0.982 -0.3081  0.0896  0.3156
  534MOL0     H70477   3.533  11.665   0.926 -2.4801  0.0552  0.4840
  534MOL0     H70478   3.933  11.789   1.003  0.2117 -1.6843 -1.5024
  534MOL0     H70479   3.930  11.655   1.125  2.0848  1.7022  0.3262
  534MOL0     H70480   3.980  11.863   1.236  0.7136 -2.2747 -0.2311
  534MOL0     H70481   3.823  11.926   1.189 -1.1513 -1.2398  1.0587
  534MOL0     H70482   3.869  11.817   1.420  2.1319  0.1851 -1.2512
  534MOL0     H70483   3.853  11.656   1.336  0.5215 -0.2490  0.3025
  534MOL0     H70484   3.615  11.747   1.284  0.5855  0.5306 -1.1221
  534MOL0     H70485   3.639  11.731   1.460  0.3629  1.4056  2.3282
  534MOL0     H70486   3.552  12.140   1.401  0.1112  0.0125  1.2435
  534MOL0     H70487   3.829  11.484   1.181  0.1399  0.2217  1.5656
  534MOL0     H70488   3.686  11.295   1.225  0.0605  0.3342  3.1062
  535MOL0     O70489  10.272   6.175   2.076 -0.0083  0.1103 -0.8609
  535MOL0     C70490  10.324   6.096   1.996 -0.2737  0.0510  0.1436
  535MOL0     O70491  10.261   6.025   1.903  0.6159  0.8010  0.4231
  535MOL0     C70492  10.126   6.045   1.895  0.2024  0.2267  0.7560
  535MOL0     C70493  10.046   5.977   1.991 -0.1075 -0.4345 -0.6265
  535MOL0     C70494   9.910   5.974   1.972 -0.1288 -0.5306  0.2168
  535MOL0     C70495   9.845   6.051   1.864 -0.2613  0.3490  0.0953
  535MOL0     O70496   9.710   6.062   1.852  0.2694  0.0127 -0.2283
  535MOL0     C70497   9.639   6.070   1.975  0.5166 -0.1538  0.6814
  535MOL0     C70498   9.491   6.107   1.959  0.2066  0.6838  0.0870
  535MOL0     C70499   9.384   5.998   1.972  0.5046 -0.0958  0.2288
  535MOL0     C70500   9.256   6.069   1.963  0.2654 -0.8862 -0.6453
  535MOL0     C70501   9.147   5.998   2.032  0.3030  0.4059 -0.1177
  535MOL0     C70502   9.013   6.074   2.021  0.5278 -0.0733  0.3694
  535MOL0     C70503   8.891   5.994   2.070 -0.3170  0.1539 -1.0536
  535MOL0     C70504   8.773   6.086   2.053  0.4217  0.2887 -0.0639
  535MOL0     N70505   8.655   6.006   2.044 -1.0222  0.1242  0.0665
  535MOL0     C70506   8.616   5.916   2.139  0.1045  0.5045 -0.7827
  535MOL0     C70507   8.481   5.916   2.139 -0.0738 -0.2926 -0.6201
  535MOL0     C70508   8.395   5.830   2.223 -0.5897 -1.0345 -0.6461
  535MOL0     C70509   8.371   5.686   2.180  0.7795 -0.6735  0.1195
  535MOL0     C70510   8.296   5.589   2.278  0.2395  0.4016  0.6535
  535MOL0     C70511   8.241   5.464   2.205 -0.6775 -0.2146 -0.7173
  535MOL0     O70512   8.169   5.395   2.312 -0.8102 -0.3837 -0.0993
  535MOL0     C70513   8.035   5.385   2.319 -0.2595  0.5400  0.4976
  535MOL0     C70514   7.982   5.334   2.444 -0.8126  0.0235 -0.5130
  535MOL0     C70515   7.843   5.316   2.464 -0.2676  0.2144 -0.3542
  535MOL0     C70516   7.755   5.341   2.359  0.0777 -0.3084  0.1524
  535MOL0     C70517   7.613   5.312   2.375  0.7171 -0.8392 -0.7129
  535MOL0     O70518   7.538   5.301   2.257 -1.1685 -0.0165  0.4307
  535MOL0     C70519   7.396   5.303   2.247 -0.0121 -0.5164  0.2277
  535MOL0     C70520   7.313   5.231   2.326 -0.5864  0.8730 -0.0518
  535MOL0     C70521   7.174   5.219   2.305  0.0806  1.2305  0.5744
  535MOL0     C70522   7.126   5.276   2.184  0.2745 -0.4003 -0.7902
  535MOL0     O70523   6.996   5.258   2.150  0.0189 -0.2337  0.4185
  535MOL0     C70524   6.918   5.375   2.135  0.2129 -0.4853  0.3278
  535MOL0     C70525   6.770   5.354   2.116 -0.6653 -0.2589 -0.4998
  535MOL0     C70526   6.705   5.490   2.106 -0.5103  0.1751 -0.1572
  535MOL0     C70527   6.556   5.473   2.066  0.5322  0.6745  0.1804
  535MOL0     C70528   6.496   5.588   1.979  0.5576 -0.1844 -0.2986
  535MOL0     C70529   6.340   5.569   2.005 -0.9893 -0.2623 -0.6963
  535MOL0     C70530   6.263   5.454   1.938  0.0816  0.4275  0.6740
  535MOL0     C70531   6.215   5.496   1.797 -1.1052  0.6283 -0.3488
  535MOL0    Cl70532   6.075   5.607   1.796  0.2687 -0.3828 -0.2827
  535MOL0     C70533   7.209   5.358   2.113  0.5030 -0.0743  0.1598
  535MOL0     C70534   7.339   5.362   2.133 -0.2819 -0.5937 -0.3945
  535MOL0     O70535   7.563   5.312   2.488  0.5279  0.5495 -0.5156
  535MOL0     C70536   7.809   5.392   2.234  0.2539 -0.7883  0.1711
  535MOL0     C70537   7.946   5.428   2.222 -0.1273 -0.9349  0.2022
  535MOL0     N70538   8.441   6.014   2.049  1.0505 -1.0233 -0.6313
  535MOL0     N70539   8.542   6.060   1.994  0.0853 -0.8143  0.4406
  535MOL0     C70540   9.934   6.111   1.773 -0.0308 -0.5406  0.0962
  535MOL0     C70541  10.076   6.113   1.788  0.6957  0.9203 -0.1960
  535MOL0     C70542  10.472   6.075   2.000  0.1544 -1.4430 -1.0219
  535MOL0     C70543  10.544   6.151   2.094 -0.1808  0.5283  0.5156
  535MOL0     C70544  10.680   6.126   2.094  0.5306  0.3242 -1.3594
  535MOL0     C70545  10.747   6.022   2.025 -0.1530  0.1439 -0.5993
  535MOL0     O70546  10.879   6.001   2.072  0.2503  0.5482  0.4228
  535MOL0     C70547  10.983   5.983   1.983 -0.9404  0.1511 -0.4995
  535MOL0     C70548  11.048   6.118   1.941  0.5797 -0.7226 -0.2083
  535MOL0     C70549  11.151   6.163   2.045  0.3762  0.0987  0.9867
  535MOL0     C70550  11.288   6.162   1.975 -0.4165  0.1631  0.4097
  535MOL0     C70551  11.398   6.207   2.051 -0.2662 -0.2606  0.2507
  535MOL0     C70552  11.478   6.253   2.130  0.4976  0.1694  0.0794
  535MOL0     C70553  10.678   5.950   1.932  0.5544  0.2186 -0.5987
  535MOL0     C70554  10.539   5.987   1.913  0.3960 -0.7880 -0.6240
  535MOL0     H70555  10.095   5.927   2.074  1.7796 -0.2999 -1.5985
  535MOL0     H70556   9.848   5.917   2.041 -0.6633 -0.4514 -0.1972
  535MOL0     H70557   9.698   6.133   2.042 -1.5372  0.6385  1.8584
  535MOL0     H70558   9.630   5.976   2.030  0.1884 -1.5390 -1.5777
  535MOL0     H70559   9.487   6.162   1.865  2.9449 -0.6342 -0.8918
  535MOL0     H70560   9.465   6.175   2.041 -1.4596  0.7516 -0.4582
  535MOL0     H70561   9.399   5.941   2.064  0.0364  0.7457  0.8404
  535MOL0     H70562   9.395   5.931   1.886  0.9421 -2.3706  1.9513
  535MOL0     H70563   9.259   6.171   2.002 -0.4325  0.1675 -3.1447
  535MOL0     H70564   9.228   6.098   1.861 -0.7025  0.7482  0.0417
  535MOL0     H70565   9.174   5.978   2.136 -0.0022  0.9736  0.0778
  535MOL0     H70566   9.145   5.897   1.991 -1.3475  0.9354 -1.4797
  535MOL0     H70567   9.002   6.109   1.918  2.0980  0.8786  0.4969
  535MOL0     H70568   9.020   6.160   2.087 -3.7310  0.3312  0.5924
  535MOL0     H70569   8.874   5.902   2.014 -0.4051 -2.3244  2.7004
  535MOL0     H70570   8.901   5.963   2.174  0.4188 -1.9865 -1.7199
  535MOL0     H70571   8.773   6.152   1.966 -1.4622 -0.6085 -0.7944
  535MOL0     H70572   8.770   6.148   2.143 -0.3914  0.6928 -0.3631
  535MOL0     H70573   8.681   5.844   2.188  0.1556  0.1675 -1.3366
  535MOL0     H70574   8.307   5.888   2.251  1.6050  1.9590  0.6111
  535MOL0     H70575   8.450   5.819   2.317 -2.6618  1.0332  0.9095
  535MOL0     H70576   8.471   5.645   2.166  0.8883 -1.4558  2.7014
  535MOL0     H70577   8.311   5.694   2.089  1.1646 -0.9978 -0.1636
  535MOL0     H70578   8.363   5.556   2.359  0.6573 -0.0215  0.1468
  535MOL0     H70579   8.213   5.640   2.328  1.1600  1.6505  0.9501
  535MOL0     H70580   8.312   5.395   2.159  1.7375  1.3421  0.4479
  535MOL0     H70581   8.177   5.507   2.127 -1.6668  1.1281  0.7930
  535MOL0     H70582   8.047   5.315   2.529 -1.8886 -1.1122  0.0793
  535MOL0     H70583   7.805   5.284   2.561 -0.4321 -0.1351 -0.5342
  535MOL0     H70584   7.359   5.179   2.409  0.6617 -0.1385 -1.3212
  535MOL0     H70585   7.121   5.139   2.357  0.3666 -0.7871 -2.0709
  535MOL0     H70586   6.959   5.424   2.047 -0.7069 -1.2229 -0.5396
  535MOL0     H70587   6.934   5.430   2.228  2.7897  1.7758 -1.3158
  535MOL0     H70588   6.724   5.302   2.201 -3.2826  0.4081 -1.4164
  535MOL0     H70589   6.763   5.299   2.022  0.3577  0.6278 -1.1263
  535MOL0     H70590   6.761   5.552   2.036  1.8480 -1.3758  0.2519
  535MOL0     H70591   6.707   5.538   2.204 -2.4741 -0.5437  0.2991
  535MOL0     H70592   6.542   5.388   1.998  2.1172  1.1098 -0.7403
  535MOL0     H70593   6.500   5.451   2.157 -0.8078  0.3076 -0.7030
  535MOL0     H70594   6.525   5.585   1.874  2.7981  0.5826  0.2410
  535MOL0     H70595   6.530   5.684   2.020 -0.8740 -0.6323  2.1644
  535MOL0     H70596   6.296   5.667   1.985  0.3618  0.4311 -0.4231
  535MOL0     H70597   6.331   5.566   2.114  0.4392  0.8413 -0.5183
  535MOL0     H70598   6.325   5.363   1.930 -1.2194 -0.3983 -0.4072
  535MOL0     H70599   6.172   5.435   1.995  1.8646  0.0605  3.6602
  535MOL0     H70600   6.182   5.408   1.742  1.5853 -1.1685  0.6673
  535MOL0     H70601   6.299   5.545   1.747  0.7606 -0.0843  1.8779
  535MOL0     H70602   7.174   5.398   2.018  3.8699  3.2565  0.0993
  535MOL0     H70603   7.407   5.418   2.069 -0.9264 -1.0076 -1.4672
  535MOL0     H70604   7.743   5.392   2.148  1.0125  0.6111 -0.4486
  535MOL0     H70605   7.977   5.470   2.126 -2.0030  1.0979  0.4112
  535MOL0     H70606   9.889   6.166   1.691  1.0561  2.5715  1.4306
  535MOL0     H70607  10.145   6.163   1.721  1.3355 -2.2413 -2.0619
  535MOL0     H70608  10.511   6.223   2.168  0.9592  0.0735  1.4967
  535MOL0     H70609  10.740   6.181   2.166 -1.7679  2.7470 -1.1126
  535MOL0     H70610  10.953   5.929   1.893  1.3990 -1.5320 -0.3811
  535MOL0     H70611  11.054   5.910   2.026 -0.4799 -0.7669 -2.6875
  535MOL0     H70612  11.108   6.103   1.851 -0.5648  0.6377 -1.2468
  535MOL0     H70613  10.969   6.187   1.911  1.7138  1.6331  1.8810
  535MOL0     H70614  11.159   6.098   2.133  2.8315  1.6392  2.0175
  535MOL0     H70615  11.113   6.258   2.083 -1.6783 -0.0476 -0.5613
  535MOL0     H70616  11.324   6.061   1.954  1.4826  0.6039  1.3621
  535MOL0     H70617  11.292   6.215   1.879  0.7612  0.4520  0.6038
  535MOL0     H70618  11.545   6.288   2.206  0.0372  0.4886  0.3450
  535MOL0     H70619  10.728   5.878   1.868 -2.2494 -2.1611 -0.2850
  535MOL0     H70620  10.480   5.931   1.840  2.1370 -2.2345 -0.9905
  536MOL0     O70621   2.529   6.253   2.657  0.4031  0.1546 -0.2448
  536MOL0     C70622   2.463   6.170   2.603 -1.1588  0.3593  0.5868
  536MOL0     O70623   2.509   6.055   2.552  0.1254  0.7755  0.5584
  536MOL0     C70624   2.643   6.047   2.540 -0.0058 -0.7364 -0.1772
  536MOL0     C70625   2.725   6.031   2.650 -0.6788 -0.2209 -0.5618
  536MOL0     C70626   2.863   6.021   2.650 -0.6881  0.3561  0.5974
  536MOL0     C70627   2.929   6.015   2.528  0.1088 -0.2449 -0.7577
  536MOL0     O70628   3.065   6.017   2.513 -0.4752 -0.6900 -0.3163
  536MOL0     C70629   3.153   6.033   2.630  0.4098  0.3974  0.4675
  536MOL0     C70630   3.299   6.007   2.591  0.1828 -0.4239 -0.9553
  536MOL0     C70631   3.386   5.943   2.700  0.9118 -0.3237  0.1733
  536MOL0     C70632   3.375   6.026   2.830 -0.3508 -0.4261  0.6953
  536MOL0     C70633   3.477   6.007   2.927  0.3366 -0.6427 -0.4240
  536MOL0     C70634   3.458   6.106   3.043 -0.0408 -0.7388 -0.0812
  536MOL0     C70635   3.330   6.067   3.118  0.7325 -0.5007  0.1871
  536MOL0     C70636   3.325   6.101   3.271 -1.2404 -0.0268  0.5696
  536MOL0     N70637   3.179   6.099   3.303  0.2338  0.2093  0.1283
  536MOL0     C70638   3.094   6.202   3.305 -0.1665 -0.0280 -0.7576
  536MOL0     C70639   2.982   6.173   3.388 -0.3317  0.2039  0.1232
  536MOL0     C70640   2.855   6.248   3.410 -0.1790  0.0033 -0.5571
  536MOL0     C70641   2.861   6.320   3.542 -0.6281 -0.7853 -0.6663
  536MOL0     C70642   2.728   6.384   3.575 -0.2146 -0.0181 -0.9096
  536MOL0     C70643   2.733   6.487   3.695  0.0107 -0.1553 -0.5261
  536MOL0     O70644   2.612   6.549   3.734  0.4229 -0.0451  0.5737
  536MOL0     C70645   2.505   6.478   3.779  0.6431 -1.2035 -1.0890
  536MOL0     C70646   2.388   6.543   3.822 -0.0543  0.5009 -0.4272
  536MOL0     C70647   2.292   6.474   3.900  0.3045 -0.3013  0.2695
  536MOL0     C70648   2.314   6.349   3.949  0.7516 -0.0548  0.6209
  536MOL0     C70649   2.213   6.282   4.035 -0.2098  1.6058 -0.0894
  536MOL0     O70650   2.088   6.330   4.046  0.5804  0.0865 -0.6590
  536MOL0     C70651   1.993   6.255   4.116  0.1421 -0.1411  0.1069
  536MOL0     C70652   1.977   6.266   4.259  0.4557 -0.2803 -0.1560
  536MOL0     C70653   1.871   6.201   4.325  0.5858 -0.7371  0.4794
  536MOL0     C70654   1.781   6.123   4.242 -0.1289  0.4284  0.0687
  536MOL0     O70655   1.678   6.060   4.304  0.3056 -0.7601 -0.1923
  536MOL0     C70656   1.547   6.081   4.249 -0.3384 -0.4875 -0.5575
  536MOL0     C70657   1.496   6.206   4.326  0.6820  0.3108 -0.1540
  536MOL0     C70658   1.367   6.266   4.248 -0.8590 -0.1841 -0.8002
  536MOL0     C70659   1.280   6.325   4.355  0.6364 -0.5093  0.0150
  536MOL0     C70660   1.329   6.446   4.433  0.6096  0.4565  0.1290
  536MOL0     C70661   1.341   6.585   4.361 -0.4063  0.1061  0.3246
  536MOL0     C70662   1.207   6.651   4.324 -0.1590  0.7077  0.4597
  536MOL0     C70663   1.224   6.781   4.246 -0.0400 -0.1948 -0.3289
  536MOL0    Cl70664   1.272   6.754   4.070 -0.1307 -0.1209  0.4122
  536MOL0     C70665   1.809   6.098   4.112 -0.3146 -0.4106 -0.0261
  536MOL0     C70666   1.910   6.171   4.042  0.1888  0.1870 -0.2291
  536MOL0     O70667   2.248   6.172   4.086 -0.1832 -0.2596 -0.6101
  536MOL0     C70668   2.429   6.290   3.917 -0.4908  1.1834 -0.3531
  536MOL0     C70669   2.521   6.349   3.828  0.3573 -0.3181 -0.5835
  536MOL0     N70670   3.010   6.044   3.427 -0.1503  0.9304  0.2930
  536MOL0     N70671   3.127   6.008   3.382 -0.4995  0.1056  0.1056
  536MOL0     C70672   2.849   6.032   2.411  0.3767 -0.4510 -0.1093
  536MOL0     C70673   2.706   6.048   2.422  0.4066  0.2866 -0.4876
  536MOL0     C70674   2.314   6.195   2.581 -1.3630  0.0333 -0.0685
  536MOL0     C70675   2.229   6.095   2.529 -0.5493 -0.2106 -0.3792
  536MOL0     C70676   2.096   6.128   2.508  0.0754 -0.4021  0.5562
  536MOL0     C70677   2.036   6.252   2.538 -0.3212  0.0289 -1.0311
  536MOL0     O70678   1.902   6.258   2.544  0.1725 -0.2790 -0.2320
  536MOL0     C70679   1.840   6.360   2.457 -0.3740  0.2207 -0.1348
  536MOL0     C70680   1.704   6.308   2.412  0.7914  0.5118 -0.7593
  536MOL0     C70681   1.649   6.407   2.320  0.1613  0.4177 -0.4664
  536MOL0     C70682   1.513   6.365   2.277  0.0513  0.1107  0.1026
  536MOL0     C70683   1.498   6.441   2.144  0.2075 -0.1737  0.2640
  536MOL0     C70684   1.504   6.510   2.047 -0.2394  0.9037  0.0608
  536MOL0     C70685   2.119   6.343   2.601 -0.2070 -0.9362  0.6360
  536MOL0     C70686   2.260   6.323   2.608 -0.1816 -1.0428 -0.6954
  536MOL0     H70687   2.683   6.026   2.749  1.0986 -1.9223  0.1674
  536MOL0     H70688   2.914   6.009   2.745 -0.7117  1.4725  0.7625
  536MOL0     H70689   3.120   5.973   2.715 -0.7012 -0.4875 -0.5615
  536MOL0     H70690   3.144   6.136   2.667 -5.1392  0.3964  0.0048
  536MOL0     H70691   3.339   6.106   2.569  0.7633 -0.6105 -0.7594
  536MOL0     H70692   3.295   5.952   2.497 -1.3043  1.8549 -2.3258
  536MOL0     H70693   3.491   5.969   2.679  0.5861  1.1083  0.2466
  536MOL0     H70694   3.365   5.839   2.723  0.1175  0.7193  5.2051
  536MOL0     H70695   3.360   6.130   2.802  0.5493  0.1564  2.2414
  536MOL0     H70696   3.284   6.002   2.886  0.4763 -1.9567  1.4508
  536MOL0     H70697   3.572   6.021   2.876  2.4144 -2.2120  2.7046
  536MOL0     H70698   3.494   5.902   2.955 -0.0867 -1.0902 -1.7831
  536MOL0     H70699   3.473   6.211   3.016  1.0356 -0.9182 -0.1897
  536MOL0     H70700   3.542   6.087   3.110  0.1166  2.1643  0.6849
  536MOL0     H70701   3.247   6.122   3.074  0.8468  1.6284  2.4002
  536MOL0     H70702   3.314   5.959   3.112  1.5161 -0.7686  2.1565
  536MOL0     H70703   3.372   6.199   3.285 -3.1349  0.9481  0.4622
  536MOL0     H70704   3.391   6.039   3.333  0.0177  0.6469 -0.0576
  536MOL0     H70705   3.100   6.297   3.253 -0.2725  0.7814  0.6516
  536MOL0     H70706   2.767   6.185   3.427 -1.6080  2.6386  3.5283
  536MOL0     H70707   2.839   6.324   3.333  0.2385 -1.2634 -1.9358
  536MOL0     H70708   2.932   6.399   3.517 -0.2752  0.4645  3.5388
  536MOL0     H70709   2.891   6.251   3.621 -0.8727 -1.8980 -1.5248
  536MOL0     H70710   2.685   6.431   3.487 -0.0810  2.5345  0.3019
  536MOL0     H70711   2.658   6.303   3.598 -2.2253  2.0954  0.9055
  536MOL0     H70712   2.789   6.574   3.660 -0.4080  1.5734  2.7864
  536MOL0     H70713   2.802   6.450   3.772 -1.9400 -0.8059  0.9817
  536MOL0     H70714   2.375   6.646   3.791  2.9812  0.6514 -1.5197
  536MOL0     H70715   2.194   6.520   3.910 -0.1968 -1.6102  1.9727
  536MOL0     H70716   2.037   6.334   4.319 -1.7300  1.1371  0.5096
  536MOL0     H70717   1.859   6.217   4.431 -5.0786 -0.4205  0.1200
  536MOL0     H70718   1.481   5.999   4.277  0.6977 -0.9350  0.7239
  536MOL0     H70719   1.552   6.092   4.141 -0.8422 -2.1583 -0.7762
  536MOL0     H70720   1.575   6.281   4.334  1.0535  0.0428 -1.1613
  536MOL0     H70721   1.466   6.173   4.426 -0.0496  1.1608 -0.0862
  536MOL0     H70722   1.312   6.191   4.189 -5.6810  2.2240  0.1701
  536MOL0     H70723   1.386   6.351   4.182 -1.5449  0.7004  0.1285
  536MOL0     H70724   1.186   6.357   4.307  1.5574 -1.6277 -2.7156
  536MOL0     H70725   1.273   6.248   4.432  0.3548 -0.5100 -0.0092
  536MOL0     H70726   1.427   6.414   4.469  0.3565 -1.1363 -0.5466
  536MOL0     H70727   1.261   6.464   4.517  0.4334  4.7187 -0.6867
  536MOL0     H70728   1.392   6.570   4.265 -2.0301  0.0939 -0.5580
  536MOL0     H70729   1.399   6.656   4.421  2.7178 -1.5723 -0.4404
  536MOL0     H70730   1.161   6.579   4.257  1.9870 -0.6144  0.3087
  536MOL0     H70731   1.153   6.672   4.417 -0.5843 -0.8918  0.5968
  536MOL0     H70732   1.301   6.845   4.290  1.3289 -0.8237 -1.7078
  536MOL0     H70733   1.138   6.846   4.262  2.0300  3.0778 -1.4815
  536MOL0     H70734   1.751   6.025   4.056 -0.9246  0.6562 -0.8307
  536MOL0     H70735   1.920   6.169   3.934 -0.6532  0.0374 -0.3127
  536MOL0     H70736   2.451   6.188   3.945  1.3023  1.4999 -0.5057
  536MOL0     H70737   2.612   6.299   3.795  0.0915 -0.6684 -0.7852
  536MOL0     H70738   2.897   6.041   2.314  0.6828 -0.0297  0.0752
  536MOL0     H70739   2.644   6.056   2.333 -1.0432  3.4296  0.6381
  536MOL0     H70740   2.269   5.999   2.500 -1.0511 -0.0169 -1.7527
  536MOL0     H70741   2.041   6.046   2.464  0.1220 -0.0227 -0.2335
  536MOL0     H70742   1.902   6.370   2.367 -0.9639 -1.3715 -0.7548
  536MOL0     H70743   1.828   6.457   2.505  0.5565  1.0638 -1.5446
  536MOL0     H70744   1.709   6.211   2.362 -0.0561  0.7227 -1.2730
  536MOL0     H70745   1.646   6.291   2.504 -0.6487  2.0415 -1.3358
  536MOL0     H70746   1.722   6.400   2.239 -0.4302 -0.9222 -0.9089
  536MOL0     H70747   1.647   6.507   2.364  0.4365  0.9692 -1.6747
  536MOL0     H70748   1.507   6.257   2.259  1.2827  0.3245 -1.9451
  536MOL0     H70749   1.441   6.399   2.351  0.5914  1.8563 -0.1246
  536MOL0     H70750   1.536   6.576   1.969  0.3341 -2.4704 -2.8092
  536MOL0     H70751   2.066   6.432   2.633 -2.1271 -2.3228  1.4971
  536MOL0     H70752   2.328   6.394   2.653 -3.8330  0.7843  2.5008
  537MOL0     O70753   7.686   6.361   5.246  0.4968 -0.3676 -0.5944
  537MOL0     C70754   7.752   6.273   5.306  0.6978 -0.6847  0.6016
  537MOL0     O70755   7.730   6.233   5.427 -0.4277  0.3447 -0.0207
  537MOL0     C70756   7.626   6.292   5.495 -0.0873  0.9553 -0.3771
  537MOL0     C70757   7.499   6.231   5.479 -0.1378 -0.6062  0.0248
  537MOL0     C70758   7.383   6.280   5.539 -0.9624 -0.2265  0.2552
  537MOL0     C70759   7.397   6.377   5.638  0.4803 -0.4245 -0.4722
  537MOL0     O70760   7.296   6.420   5.720 -0.2637  0.7939 -0.7163
  537MOL0     C70761   7.163   6.421   5.675  0.1795 -0.2953  0.4999
  537MOL0     C70762   7.077   6.502   5.784 -0.3149  0.1778 -0.3769
  537MOL0     C70763   6.923   6.462   5.800 -0.5463  0.9678 -0.1420
  537MOL0     C70764   6.852   6.556   5.893  0.2021 -1.0544  0.2351
  537MOL0     C70765   6.705   6.514   5.899 -0.5492  0.2322  0.3121
  537MOL0     C70766   6.622   6.604   5.989  0.3847 -0.0598 -0.0502
  537MOL0     C70767   6.474   6.587   5.958 -0.0597  0.1340 -0.4923
  537MOL0     C70768   6.427   6.442   5.995 -0.2323 -0.4412  0.1546
  537MOL0     N70769   6.277   6.439   5.996 -1.8224  0.7537  0.3569
  537MOL0     C70770   6.198   6.428   5.883  0.1953 -1.3671  0.1489
  537MOL0     C70771   6.077   6.409   5.936  0.1649  1.1432 -0.3549
  537MOL0     C70772   5.948   6.380   5.862  1.3572 -0.2577 -0.5267
  537MOL0     C70773   5.868   6.505   5.828 -0.4847  0.3113 -0.5514
  537MOL0     C70774   5.852   6.612   5.931 -0.7935 -0.0875 -0.7078
  537MOL0     C70775   5.785   6.727   5.879 -0.2051  0.3429 -0.8555
  537MOL0     O70776   5.648   6.702   5.879 -0.6188 -0.0847 -0.2984
  537MOL0     C70777   5.555   6.799   5.923  0.0563  0.7508  0.8414
  537MOL0     C70778   5.434   6.744   5.959 -0.0610  0.0919 -0.3857
  537MOL0     C70779   5.327   6.830   5.987 -0.0358 -0.2710  0.4007
  537MOL0     C70780   5.343   6.963   5.974  0.8864 -0.1435 -0.0228
  537MOL0     C70781   5.228   7.054   5.982  0.0738 -0.6860 -0.3537
  537MOL0     O70782   5.112   7.001   5.931 -0.0212  0.2771  0.1340
  537MOL0     C70783   5.019   7.090   5.874  1.2097  1.0814 -0.7765
  537MOL0     C70784   4.880   7.087   5.914 -0.6665 -0.0253  1.0618
  537MOL0     C70785   4.781   7.159   5.846  0.4157  0.0284 -0.0462
  537MOL0     C70786   4.821   7.253   5.740 -1.2044  0.5768 -0.3164
  537MOL0     O70787   4.732   7.325   5.660  0.1955  0.2583  0.6645
  537MOL0     C70788   4.591   7.334   5.715 -0.6489  0.2477  0.3458
  537MOL0     C70789   4.512   7.416   5.616 -1.3936 -0.0662 -0.5574
  537MOL0     C70790   4.398   7.459   5.692  0.3026 -1.2909 -0.1207
  537MOL0     C70791   4.301   7.524   5.603 -0.3199  0.3342 -0.9289
  537MOL0     C70792   4.341   7.672   5.570 -0.0171  0.7981 -0.2890
  537MOL0     C70793   4.319   7.714   5.425  0.9868  0.1070  0.0392
  537MOL0     C70794   4.175   7.701   5.374 -0.6865  0.3847  0.0438
  537MOL0     C70795   4.067   7.751   5.472  1.0147  0.1069  0.4474
  537MOL0    Cl70796   3.924   7.663   5.395  0.0920  0.2069 -0.3011
  537MOL0     C70797   4.959   7.255   5.707 -0.3799 -0.5653  0.2181
  537MOL0     C70798   5.047   7.176   5.774 -0.8949 -0.4485 -0.2332
  537MOL0     O70799   5.254   7.176   6.008  0.7630  0.3653  0.8571
  537MOL0     C70800   5.474   7.006   5.941 -0.6926 -0.0325  0.1611
  537MOL0     C70801   5.577   6.924   5.905 -0.5485 -0.7475 -0.4086
  537MOL0     N70802   6.081   6.399   6.070  0.0962 -0.4132 -0.8952
  537MOL0     N70803   6.205   6.427   6.112  0.1801 -0.2271 -0.1750
  537MOL0     C70804   7.532   6.445   5.657 -0.0862  0.4976  1.1840
  537MOL0     C70805   7.642   6.393   5.589  0.1085 -0.9598 -0.8573
  537MOL0     C70806   7.866   6.211   5.230  0.0194  0.1743 -0.2605
  537MOL0     C70807   7.951   6.121   5.291 -0.2306  0.5038 -0.3213
  537MOL0     C70808   8.063   6.070   5.233 -0.2463  0.5433  0.6859
  537MOL0     C70809   8.103   6.110   5.098 -0.0279  0.0816  0.0763
  537MOL0     O70810   8.212   6.068   5.025 -0.4928 -0.4761 -0.3281
  537MOL0     C70811   8.314   5.982   5.070  0.9975  1.0654  0.0051
  537MOL0     C70812   8.444   6.010   4.994 -0.0830  0.6395  0.0739
  537MOL0     C70813   8.550   5.896   5.042 -0.6519 -0.5999  0.5538
  537MOL0     C70814   8.688   5.950   5.019  0.4258 -0.0199 -0.5633
  537MOL0     C70815   8.705   5.972   4.883 -0.6811 -0.0028 -0.2140
  537MOL0     C70816   8.731   5.989   4.770 -0.1463 -0.3738  0.6050
  537MOL0     C70817   8.003   6.188   5.039 -0.9815  0.2489  0.2804
  537MOL0     C70818   7.891   6.231   5.097  0.5235  0.0496 -0.1932
  537MOL0     H70819   7.467   6.162   5.401 -4.4952  1.7255 -0.5799
  537MOL0     H70820   7.295   6.221   5.515  0.6371 -1.9996 -1.5705
  537MOL0     H70821   7.127   6.318   5.682  0.3221 -0.4099 -0.3079
  537MOL0     H70822   7.148   6.458   5.573  0.0325  1.4248  1.1167
  537MOL0     H70823   7.090   6.605   5.751 -0.8413  0.3912  0.0496
  537MOL0     H70824   7.130   6.496   5.880  0.9372  0.3872 -1.0326
  537MOL0     H70825   6.926   6.359   5.836  2.6704  1.0187  0.0138
  537MOL0     H70826   6.876   6.465   5.701 -1.1558 -0.4555  0.0933
  537MOL0     H70827   6.898   6.574   5.991  2.4070  0.5793 -1.0104
  537MOL0     H70828   6.854   6.657   5.852 -4.4914 -0.5318  0.7215
  537MOL0     H70829   6.701   6.424   5.961  3.1404  0.5304  1.1953
  537MOL0     H70830   6.656   6.491   5.805 -2.2691  3.0992  0.3906
  537MOL0     H70831   6.653   6.699   5.945  0.7809 -1.9765 -4.5784
  537MOL0     H70832   6.642   6.588   6.095 -1.4949 -0.3297  0.2956
  537MOL0     H70833   6.421   6.669   6.007  2.0749  0.3319  1.6650
  537MOL0     H70834   6.453   6.600   5.851  1.0363  0.9531 -0.6264
  537MOL0     H70835   6.464   6.406   6.092  1.1780 -4.0676 -1.5363
  537MOL0     H70836   6.467   6.387   5.909 -0.4597  3.5188 -2.7577
  537MOL0     H70837   6.225   6.438   5.779 -0.9610  1.7173  0.0552
  537MOL0     H70838   5.887   6.324   5.933  1.5243  0.0505 -0.1329
  537MOL0     H70839   5.963   6.317   5.774  0.4653 -0.0580 -0.8263
  537MOL0     H70840   5.770   6.480   5.785 -0.2069 -1.5556 -0.1911
  537MOL0     H70841   5.926   6.555   5.750 -0.0681  1.6579  0.5813
  537MOL0     H70842   5.799   6.571   6.018  1.7280 -0.9605  0.5536
  537MOL0     H70843   5.944   6.658   5.971 -0.2582 -0.0439 -1.9552
  537MOL0     H70844   5.828   6.740   5.780  2.0579  1.1206  0.1551
  537MOL0     H70845   5.791   6.815   5.944 -0.2334  1.5720 -2.4701
  537MOL0     H70846   5.426   6.638   5.976  1.8460  0.0819  0.6605
  537MOL0     H70847   5.233   6.776   5.994  0.2428 -0.6783  1.0949
  537MOL0     H70848   4.853   7.022   5.997  3.2846 -1.6703  1.2641
  537MOL0     H70849   4.678   7.150   5.880  0.3673  0.6937  0.0132
  537MOL0     H70850   4.601   7.387   5.810 -0.7541  0.0093  0.4891
  537MOL0     H70851   4.539   7.241   5.735 -4.5063  2.4902  1.8504
  537MOL0     H70852   4.494   7.349   5.532  2.1885  0.1523 -1.6811
  537MOL0     H70853   4.560   7.503   5.570  0.3747  1.3513  3.4735
  537MOL0     H70854   4.418   7.534   5.769  0.2230 -1.0595 -0.3251
  537MOL0     H70855   4.342   7.377   5.737 -2.4701  0.5545  0.0416
  537MOL0     H70856   4.285   7.470   5.509 -5.3366 -1.1634  0.4377
  537MOL0     H70857   4.207   7.519   5.659  1.6428 -1.1450  2.5183
  537MOL0     H70858   4.449   7.682   5.585 -0.0743  3.2962 -1.0322
  537MOL0     H70859   4.290   7.736   5.642  3.3461  0.1700  2.9796
  537MOL0     H70860   4.367   7.632   5.371 -0.3240 -0.0787 -0.9162
  537MOL0     H70861   4.365   7.809   5.398  1.6667 -0.0480  0.6454
  537MOL0     H70862   4.174   7.762   5.283  0.8763 -1.8869 -1.5889
  537MOL0     H70863   4.167   7.596   5.347  0.5935  0.5288 -0.9590
  537MOL0     H70864   4.062   7.860   5.466  1.9968  0.2043  1.1943
  537MOL0     H70865   4.073   7.722   5.577  0.3016 -0.0042  0.4666
  537MOL0     H70866   4.995   7.307   5.619  0.0170 -0.9099  0.1775
  537MOL0     H70867   5.144   7.174   5.725 -2.0374  0.5678 -2.6716
  537MOL0     H70868   5.481   7.114   5.946  2.1365 -0.1671  0.7094
  537MOL0     H70869   5.670   6.970   5.875 -0.6639  0.9831  1.6138
  537MOL0     H70870   7.550   6.528   5.724  4.6685 -0.9685  2.1022
  537MOL0     H70871   7.735   6.449   5.596 -0.8395  0.5154  1.0356
  537MOL0     H70872   7.938   6.094   5.396 -2.6263  1.2906 -0.3733
  537MOL0     H70873   8.127   6.013   5.300 -1.5332 -1.2075  0.5268
  537MOL0     H70874   8.287   5.878   5.047  2.0507  0.8748 -0.4130
  537MOL0     H70875   8.331   5.982   5.178  3.8665  0.5960 -0.3754
  537MOL0     H70876   8.444   5.998   4.885 -1.9620  0.0233  0.1053
  537MOL0     H70877   8.465   6.116   5.013  1.7881  0.1921  0.7018
  537MOL0     H70878   8.533   5.805   4.983 -1.6417 -0.4608  0.6038
  537MOL0     H70879   8.535   5.875   5.148 -1.1910 -0.4969  0.5010
  537MOL0     H70880   8.708   6.033   5.089 -1.3756 -1.0879  1.3414
  537MOL0     H70881   8.757   5.870   5.048 -0.2321 -2.2905 -4.5388
  537MOL0     H70882   8.760   6.021   4.672 -0.3385  4.8182  1.9477
  537MOL0     H70883   8.016   6.218   4.935  0.1484 -1.2673 -0.0539
  537MOL0     H70884   7.818   6.291   5.044 -0.0978 -0.2486  0.3037
  538MOL0     O70885   3.336   6.067   1.210  0.0508  0.5450  0.6250
  538MOL0     C70886   3.404   6.145   1.139  0.5530  0.3838  1.0939
  538MOL0     O70887   3.419   6.281   1.164  0.6511  0.3047  0.1359
  538MOL0     C70888   3.400   6.325   1.294 -0.0837  0.5116  0.2233
  538MOL0     C70889   3.283   6.322   1.374  0.1862  0.2073  0.5078
  538MOL0     C70890   3.300   6.359   1.505  0.8232 -0.0526 -0.9072
  538MOL0     C70891   3.416   6.403   1.570 -0.2849  0.7718  0.4105
  538MOL0     O70892   3.419   6.434   1.710  0.1783 -0.8615 -0.2834
  538MOL0     C70893   3.529   6.384   1.790  0.6942 -1.2255 -0.8819
  538MOL0     C70894   3.449   6.329   1.909 -0.8841 -2.1816  0.8876
  538MOL0     C70895   3.545   6.245   2.001  1.6930 -0.7668 -0.3506
  538MOL0     C70896   3.471   6.223   2.135  0.4807 -0.0646  0.3967
  538MOL0     C70897   3.528   6.099   2.199 -0.0458  0.4312 -0.2013
  538MOL0     C70898   3.677   6.076   2.208 -0.3789 -0.5063  0.0001
  538MOL0     C70899   3.744   6.167   2.312 -0.0602  1.2181 -1.0856
  538MOL0     C70900   3.710   6.139   2.457  0.6102 -0.2713  0.4402
  538MOL0     N70901   3.725   6.256   2.540 -0.4288 -0.4258  0.5744
  538MOL0     C70902   3.842   6.327   2.549 -0.6440  0.6022 -0.9115
  538MOL0     C70903   3.814   6.404   2.660 -0.4515  0.5844 -0.4397
  538MOL0     C70904   3.917   6.497   2.721  0.3487 -0.6043  0.2441
  538MOL0     C70905   3.875   6.641   2.716 -0.5651 -0.4988 -0.3477
  538MOL0     C70906   3.846   6.687   2.569  0.1319  0.1982  0.5864
  538MOL0     C70907   3.845   6.841   2.539  0.1227 -0.1505 -0.0991
  538MOL0     O70908   3.804   6.915   2.654  0.3383  1.0377 -0.1100
  538MOL0     C70909   3.674   6.898   2.690 -1.1200  0.2812 -1.0793
  538MOL0     C70910   3.572   6.858   2.603 -1.2937  0.3244  0.7791
  538MOL0     C70911   3.438   6.850   2.651  0.8984 -0.0927  0.0021
  538MOL0     C70912   3.411   6.865   2.794  0.1510 -0.6433  0.4530
  538MOL0     C70913   3.275   6.839   2.838 -0.0895  0.8420  0.5617
  538MOL0     O70914   3.246   6.834   2.975 -0.3274  0.0267  0.1550
  538MOL0     C70915   3.119   6.827   3.016 -0.0224 -0.4367 -0.9051
  538MOL0     C70916   3.070   6.712   3.086  0.2167  0.9582 -0.2026
  538MOL0     C70917   2.946   6.703   3.147 -0.3624  0.2318  0.6068
  538MOL0     C70918   2.862   6.821   3.147 -0.2736  0.1746 -0.0081
  538MOL0     O70919   2.738   6.825   3.206 -0.2459  0.2787 -0.1100
  538MOL0     C70920   2.657   6.944   3.196 -0.5746  0.2129  0.3233
  538MOL0     C70921   2.530   6.945   3.282  0.0458  0.0953  0.3290
  538MOL0     C70922   2.545   6.878   3.422 -0.0943  0.0972 -0.4677
  538MOL0     C70923   2.662   6.941   3.503  0.4446  0.0265  0.2258
  538MOL0     C70924   2.656   6.907   3.648 -0.6595  0.0047  0.4759
  538MOL0     C70925   2.752   6.966   3.744 -0.0547  0.4310 -0.4357
  538MOL0     C70926   2.714   6.939   3.902  0.0209  0.1311 -0.2744
  538MOL0     C70927   2.838   6.880   3.973  1.0825  0.7198 -1.1861
  538MOL0    Cl70928   2.976   6.992   3.983 -0.0287  0.1323  0.4151
  538MOL0     C70929   2.917   6.935   3.075  0.6193  0.0972  0.2689
  538MOL0     C70930   3.037   6.932   3.009 -0.9771  0.2789 -0.0644
  538MOL0     O70931   3.191   6.833   2.746  0.3331  0.6729 -0.0338
  538MOL0     C70932   3.513   6.901   2.882 -0.5719  0.1601 -0.5576
  538MOL0     C70933   3.644   6.921   2.825  0.9837  1.2830  0.0915
  538MOL0     N70934   3.688   6.384   2.708 -0.8856 -0.5296  0.2410
  538MOL0     N70935   3.634   6.293   2.632  0.4387 -0.1184  0.1956
  538MOL0     C70936   3.524   6.412   1.480  0.1641 -0.0679 -1.2670
  538MOL0     C70937   3.518   6.374   1.348  0.3259 -0.7782 -0.2749
  538MOL0     C70938   3.469   6.096   1.024  0.4008  0.2307 -0.3185
  538MOL0     C70939   3.518   6.172   0.914 -0.6064 -0.2541 -0.3178
  538MOL0     C70940   3.590   6.110   0.810  0.6660 -0.0418  0.8015
  538MOL0     C70941   3.611   5.971   0.804  0.3002  0.3253 -0.8249
  538MOL0     O70942   3.666   5.909   0.691  0.3843 -0.8112 -0.4491
  538MOL0     C70943   3.789   5.963   0.635 -0.3155  0.1400  0.0756
  538MOL0     C70944   3.883   5.845   0.612  0.0495 -0.1713 -0.3821
  538MOL0     C70945   4.004   5.886   0.530 -0.9611 -0.5202  0.7645
  538MOL0     C70946   4.106   5.928   0.632 -0.9598 -0.3743  0.8314
  538MOL0     C70947   4.213   6.009   0.574 -0.6887  0.7900  0.3099
  538MOL0     C70948   4.323   6.047   0.529 -0.1343 -0.1286 -0.0964
  538MOL0     C70949   3.568   5.898   0.916  1.2856  0.1267 -0.2476
  538MOL0     C70950   3.502   5.958   1.024 -0.5262 -0.7452 -0.1423
  538MOL0     H70951   3.191   6.290   1.326  0.1276  2.1095 -0.7913
  538MOL0     H70952   3.213   6.348   1.569  1.1904 -3.1978 -0.8056
  538MOL0     H70953   3.594   6.466   1.821  1.2507 -1.6153 -1.0023
  538MOL0     H70954   3.597   6.318   1.735  2.2860  0.1474 -0.6598
  538MOL0     H70955   3.371   6.270   1.859 -0.6715 -2.4777  0.9042
  538MOL0     H70956   3.404   6.412   1.963  2.0891 -0.1320  0.4628
  538MOL0     H70957   3.639   6.295   2.025  0.6770  1.1775 -0.3000
  538MOL0     H70958   3.558   6.146   1.955  1.8893 -1.6877  1.5783
  538MOL0     H70959   3.479   6.314   2.195  0.1833  0.0257  0.3024
  538MOL0     H70960   3.366   6.215   2.106  0.9626  0.8216 -1.8170
  538MOL0     H70961   3.493   6.008   2.150 -0.6393  0.2869  0.4647
  538MOL0     H70962   3.481   6.094   2.298 -1.1700  0.0833 -0.7346
  538MOL0     H70963   3.729   6.081   2.111 -2.7484 -1.1853 -1.3745
  538MOL0     H70964   3.697   5.970   2.227 -0.2231 -0.0053  3.0476
  538MOL0     H70965   3.853   6.160   2.312 -0.1198 -0.4478  0.7484
  538MOL0     H70966   3.720   6.271   2.286  1.8770  1.8950 -0.2994
  538MOL0     H70967   3.779   6.069   2.506 -1.5367 -0.7295  3.0402
  538MOL0     H70968   3.613   6.092   2.479  1.1289 -0.7059  1.9257
  538MOL0     H70969   3.939   6.303   2.505  1.5262  1.1146  3.1098
  538MOL0     H70970   4.009   6.482   2.663  0.5950  1.9265 -0.1318
  538MOL0     H70971   3.932   6.469   2.826 -0.0662  2.2647  1.1303
  538MOL0     H70972   3.968   6.693   2.739 -0.9215  0.9753 -1.9912
  538MOL0     H70973   3.798   6.676   2.786 -0.6468  1.7315 -1.4759
  538MOL0     H70974   3.926   6.649   2.506  1.9236 -3.1494  4.3949
  538MOL0     H70975   3.752   6.644   2.533  0.5866  0.9237 -1.5868
  538MOL0     H70976   3.778   6.856   2.453 -0.0577  0.2875  0.1135
  538MOL0     H70977   3.949   6.861   2.513  1.2904 -0.4806  3.7377
  538MOL0     H70978   3.587   6.840   2.497 -0.9029  0.0001  0.8839
  538MOL0     H70979   3.361   6.814   2.584  0.6713  1.0350 -0.3741
  538MOL0     H70980   3.134   6.624   3.088  1.1593  1.6336  0.6271
  538MOL0     H70981   2.913   6.606   3.184 -1.5123 -0.0910 -1.1024
  538MOL0     H70982   2.628   6.970   3.093 -1.2256 -3.0255 -0.4213
  538MOL0     H70983   2.722   7.025   3.231 -1.4075 -0.1495  2.8875
  538MOL0     H70984   2.458   6.882   3.229  0.0011 -1.6621  2.3634
  538MOL0     H70985   2.485   7.044   3.294  0.3066  0.4660 -1.4835
  538MOL0     H70986   2.573   6.773   3.404  1.1088  0.4476 -0.7186
  538MOL0     H70987   2.453   6.891   3.480  0.9076 -0.0433  1.2261
  538MOL0     H70988   2.756   6.911   3.457 -0.2131 -0.3509 -0.9028
  538MOL0     H70989   2.650   7.049   3.491  1.9883 -0.0171 -2.4134
  538MOL0     H70990   2.667   6.800   3.667  0.3138  0.1139  0.5434
  538MOL0     H70991   2.553   6.922   3.681 -0.6776  0.5693  0.1772
  538MOL0     H70992   2.770   7.073   3.728  0.5592  0.7297  1.9222
  538MOL0     H70993   2.845   6.914   3.719 -0.1645  0.4031 -0.7840
  538MOL0     H70994   2.675   7.026   3.956  0.4464  0.7091 -0.8757
  538MOL0     H70995   2.639   6.861   3.914  1.3416 -1.4314 -1.6859
  538MOL0     H70996   2.860   6.776   3.946  1.4542  0.1991  0.9753
  538MOL0     H70997   2.792   6.871   4.071 -0.3580 -2.3961 -2.0330
  538MOL0     H70998   2.860   7.025   3.056 -1.5982 -0.9325  1.6406
  538MOL0     H70999   3.064   7.022   2.955 -0.2218  0.3372  0.3885
  538MOL0     H71000   3.496   6.921   2.987  3.3593  0.7376  0.1369
  538MOL0     H71001   3.710   6.974   2.893  1.7910 -2.2661  2.3574
  538MOL0     H71002   3.608   6.465   1.525 -2.5518  3.5776 -0.0422
  538MOL0     H71003   3.606   6.375   1.285  0.4461 -1.7368 -0.1460
  538MOL0     H71004   3.499   6.279   0.903  0.7010  0.1300  0.9402
  538MOL0     H71005   3.617   6.173   0.726 -1.6127  1.3219  0.9931
  538MOL0     H71006   3.837   6.033   0.705  0.9104 -2.3560  1.8767
  538MOL0     H71007   3.785   6.012   0.537  1.5562 -0.5850 -0.3838
  538MOL0     H71008   3.912   5.806   0.710  3.1759 -0.1077 -1.1965
  538MOL0     H71009   3.839   5.757   0.563 -1.0572 -1.8338  3.2320
  538MOL0     H71010   3.982   5.960   0.453  1.9523 -2.5894 -2.4023
  538MOL0     H71011   4.044   5.803   0.471  0.7590  1.2762 -0.7678
  538MOL0     H71012   4.064   5.989   0.712  1.4566  0.3849  1.6334
  538MOL0     H71013   4.137   5.835   0.682 -1.3986 -2.1161 -1.9598
  538MOL0     H71014   4.421   6.062   0.488 -0.0411 -1.8126 -0.5789
  538MOL0     H71015   3.579   5.791   0.919 -0.9124 -0.1402  0.8173
  538MOL0     H71016   3.483   5.901   1.115 -2.4306  0.8999  0.5879
  539MOL0     O71017   3.431  10.478   3.086 -0.0837 -0.5181  0.2981
  539MOL0     C71018   3.522  10.557   3.057 -0.4881 -0.3858 -0.9298
  539MOL0     O71019   3.550  10.596   2.929 -0.3597  0.0348 -0.0904
  539MOL0     C71020   3.482  10.536   2.829  0.3236 -0.6025  0.0681
  539MOL0     C71021   3.558  10.455   2.753 -0.2868 -0.7599  0.5936
  539MOL0     C71022   3.502  10.393   2.639 -0.6178  1.3697  0.1628
  539MOL0     C71023   3.358  10.401   2.621  0.8860  0.1572 -0.6174
  539MOL0     O71024   3.305  10.320   2.529  0.3084  0.7174  0.0239
  539MOL0     C71025   3.179  10.350   2.473 -0.4654  0.3103 -0.3960
  539MOL0     C71026   3.192  10.476   2.375 -0.3326 -0.1254 -0.3289
  539MOL0     C71027   3.282  10.456   2.251 -0.3071  0.4939 -0.4947
  539MOL0     C71028   3.228  10.529   2.127  0.4928  0.6854  0.2356
  539MOL0     C71029   3.320  10.548   2.015 -0.2447  0.3674 -0.0852
  539MOL0     C71030   3.249  10.582   1.880  0.3996 -0.5206  0.2402
  539MOL0     C71031   3.348  10.548   1.763  0.2952  0.7258 -0.3835
  539MOL0     C71032   3.321  10.606   1.631 -0.8068  0.9021  0.7774
  539MOL0     N71033   3.185  10.636   1.594  0.0264  0.3540  0.1935
  539MOL0     C71034   3.115  10.563   1.498 -0.6145  0.1517 -0.3979
  539MOL0     C71035   2.994  10.621   1.493 -0.5271 -0.4787 -0.2276
  539MOL0     C71036   2.891  10.588   1.394  0.0297  0.2579  1.0536
  539MOL0     C71037   2.889  10.710   1.294 -0.0349  0.1971 -0.0509
  539MOL0     C71038   2.886  10.655   1.151 -0.5778 -1.0072  0.5186
  539MOL0     C71039   2.768  10.575   1.107  0.2047 -1.1566  1.1932
  539MOL0     O71040   2.654  10.659   1.130  0.0576  0.6376 -0.6215
  539MOL0     C71041   2.563  10.617   1.231 -0.6670 -0.6425 -0.2302
  539MOL0     C71042   2.499  10.499   1.222 -0.1414 -0.2139  0.1201
  539MOL0     C71043   2.412  10.457   1.323  0.6930  0.4822 -0.0782
  539MOL0     C71044   2.374  10.541   1.426 -0.4511  0.1158  0.1359
  539MOL0     C71045   2.284  10.496   1.535  0.1095 -0.1282 -0.7223
  539MOL0     O71046   2.253  10.584   1.640 -0.1003  0.5237 -0.2700
  539MOL0     C71047   2.182  10.531   1.746  0.6880  0.1645 -0.1671
  539MOL0     C71048   2.039  10.562   1.762  0.2093  0.6168 -0.0344
  539MOL0     C71049   1.957  10.507   1.867 -0.8039  0.5329 -0.7074
  539MOL0     C71050   2.033  10.436   1.974  1.3330 -0.0331 -0.0069
  539MOL0     O71051   1.970  10.398   2.086  0.0345  0.3418  0.3525
  539MOL0     C71052   1.882  10.280   2.071  0.7967  0.4813 -0.2715
  539MOL0     C71053   1.961  10.162   2.109  0.4622  0.1046  0.2444
  539MOL0     C71054   2.011  10.159   2.251 -0.1164 -1.4599  0.1821
  539MOL0     C71055   1.994  10.014   2.316  0.2789 -0.2714 -0.1183
  539MOL0     C71056   1.984  10.009   2.476  0.6909  0.1031 -0.3445
  539MOL0     C71057   2.124  10.044   2.541  0.4766  0.4039 -0.4033
  539MOL0     C71058   2.140  10.007   2.693 -0.3359  0.5258  0.2726
  539MOL0     C71059   2.274  10.056   2.751  0.0181  0.8696 -0.4428
  539MOL0    Cl71060   2.319   9.957   2.896 -0.0466  0.2128 -0.0124
  539MOL0     C71061   2.167  10.406   1.946 -0.2637 -0.1362 -0.3216
  539MOL0     C71062   2.241  10.455   1.840 -0.0886  0.1379  0.6934
  539MOL0     O71063   2.249  10.378   1.539 -0.1935  0.7794  0.5611
  539MOL0     C71064   2.426  10.671   1.425  0.2742  0.0442  0.1882
  539MOL0     C71065   2.522  10.704   1.336 -0.4375 -0.7749 -0.7477
  539MOL0     N71066   2.986  10.721   1.576 -0.5604 -0.4718  0.0652
  539MOL0     N71067   3.100  10.740   1.642 -0.3845 -0.3386  0.3476
  539MOL0     C71068   3.281  10.490   2.708 -0.5793 -0.3280 -0.0270
  539MOL0     C71069   3.346  10.549   2.809  0.1717  0.1213  0.3924
  539MOL0     C71070   3.611  10.609   3.162 -0.0763 -0.6691 -0.7881
  539MOL0     C71071   3.743  10.664   3.124 -0.6722  0.4646 -0.1270
  539MOL0     C71072   3.826  10.738   3.217  0.5883  0.6714  0.0710
  539MOL0     C71073   3.788  10.745   3.345 -0.4757 -0.5673  0.2192
  539MOL0     O71074   3.863  10.797   3.446 -0.4285 -0.5475 -0.0280
  539MOL0     C71075   3.962  10.886   3.405 -0.5457 -1.1770 -0.2218
  539MOL0     C71076   3.996  10.969   3.526  0.4575  0.3257 -0.2529
  539MOL0     C71077   4.072  11.092   3.494 -0.3866 -0.1205 -0.3522
  539MOL0     C71078   4.119  11.170   3.618  0.3615 -0.1404  0.3722
  539MOL0     C71079   4.134  11.309   3.587  0.1103 -0.2497  0.1762
  539MOL0     C71080   4.133  11.420   3.544  0.6657 -0.2340 -0.9014
  539MOL0     C71081   3.664  10.702   3.388  0.2988 -0.1816 -0.0265
  539MOL0     C71082   3.574  10.633   3.297  0.6916 -0.4422  1.0460
  539MOL0     H71083   3.666  10.449   2.764 -0.1844  0.6651  0.5590
  539MOL0     H71084   3.572  10.342   2.575  0.3190  0.8602  1.5494
  539MOL0     H71085   3.109  10.376   2.553  0.1996  0.5264  0.1205
  539MOL0     H71086   3.128  10.271   2.415 -2.2886  1.0893  0.0660
  539MOL0     H71087   3.237  10.554   2.437  1.0820 -1.8890  0.9842
  539MOL0     H71088   3.097  10.523   2.350 -0.0422  0.4483 -0.3516
  539MOL0     H71089   3.298  10.351   2.225  2.5089  0.4129  1.1595
  539MOL0     H71090   3.385  10.487   2.267 -0.2109 -0.0188 -0.0872
  539MOL0     H71091   3.130  10.488   2.101  0.3899  0.8633  0.3360
  539MOL0     H71092   3.211  10.631   2.163 -2.9345  0.4789 -0.4690
  539MOL0     H71093   3.377  10.456   1.998  0.3143  1.0247 -1.9324
  539MOL0     H71094   3.388  10.629   2.041  0.6011 -1.0033  2.3693
  539MOL0     H71095   3.239  10.690   1.873  0.2713 -0.2141  3.6687
  539MOL0     H71096   3.159  10.522   1.863 -0.8540  0.3624  3.2152
  539MOL0     H71097   3.450  10.580   1.784  0.1427  1.5974 -0.9474
  539MOL0     H71098   3.353  10.439   1.760 -0.9878  0.4370  2.9608
  539MOL0     H71099   3.365  10.545   1.552  1.8802  1.9704  1.3055
  539MOL0     H71100   3.373  10.703   1.637 -1.3864  1.1124  3.2654
  539MOL0     H71101   3.163  10.489   1.434 -1.8510  0.1540 -1.3401
  539MOL0     H71102   2.796  10.589   1.449 -1.7688  0.0457 -1.7881
  539MOL0     H71103   2.913  10.495   1.341 -0.1005  0.7349  0.1432
  539MOL0     H71104   2.980  10.770   1.298  1.6258 -2.1699 -0.1067
  539MOL0     H71105   2.818  10.787   1.328  0.5498  0.7290 -0.0299
  539MOL0     H71106   2.894  10.739   1.081  2.7766 -2.3695 -0.9578
  539MOL0     H71107   2.976  10.597   1.130 -0.3721 -0.4637 -0.1460
  539MOL0     H71108   2.757  10.476   1.152  1.0410 -1.3908  0.8839
  539MOL0     H71109   2.795  10.567   1.001  0.5758  4.0176  0.6299
  539MOL0     H71110   2.529  10.439   1.137  1.6419  2.0742 -0.9576
  539MOL0     H71111   2.356  10.364   1.309  1.7037 -0.4091  1.5100
  539MOL0     H71112   1.990  10.617   1.682 -2.0119 -3.7046 -2.0194
  539MOL0     H71113   1.849  10.502   1.883 -0.5588 -2.4342  0.8095
  539MOL0     H71114   1.842  10.270   1.970 -1.1016 -1.4940  0.6071
  539MOL0     H71115   1.795  10.291   2.137  1.1477 -1.8683  0.6720
  539MOL0     H71116   2.029  10.144   2.026 -0.8757 -1.8648 -0.5023
  539MOL0     H71117   1.901  10.072   2.090  2.3682 -1.4212  1.1374
  539MOL0     H71118   1.964  10.236   2.313  1.7574  1.5718 -1.8689
  539MOL0     H71119   2.118  10.182   2.258 -0.7220  2.1910 -0.4894
  539MOL0     H71120   1.895   9.987   2.278 -0.3703  0.9577  0.5996
  539MOL0     H71121   2.066   9.938   2.286 -0.9248 -1.8179  0.7795
  539MOL0     H71122   1.940   9.913   2.506  1.7676 -0.4233 -0.4366
  539MOL0     H71123   1.917  10.082   2.522 -1.0041 -1.7524  0.2944
  539MOL0     H71124   2.142  10.152   2.530 -2.2960  1.0293  0.4672
  539MOL0     H71125   2.196   9.977   2.492 -1.3235 -1.2287 -0.9057
  539MOL0     H71126   2.051  10.043   2.746 -0.5496 -1.0354  1.0326
  539MOL0     H71127   2.129   9.898   2.696 -1.0311  0.5811  3.0589
  539MOL0     H71128   2.248  10.159   2.776 -1.6756  0.7310 -1.4494
  539MOL0     H71129   2.354  10.062   2.677  2.0063  0.1299  1.5616
  539MOL0     H71130   2.222  10.337   2.009 -3.3336 -0.0924  2.7485
  539MOL0     H71131   2.345  10.426   1.830 -0.7128 -1.3931 -2.5780
  539MOL0     H71132   2.391  10.749   1.493 -0.2451  0.9019 -1.0396
  539MOL0     H71133   2.569  10.802   1.334 -0.9712 -0.5219 -0.9609
  539MOL0     H71134   3.173  10.500   2.702 -0.8641 -3.2773 -2.4017
  539MOL0     H71135   3.283  10.612   2.871 -1.9038 -1.8483  0.4145
  539MOL0     H71136   3.777  10.654   3.022  0.4160  2.6590 -0.0522
  539MOL0     H71137   3.923  10.773   3.184 -0.4288  2.3645 -1.3689
  539MOL0     H71138   3.923  10.963   3.337  1.9919  1.0931  0.7177
  539MOL0     H71139   4.051  10.834   3.368  1.4529  1.3984  0.6654
  539MOL0     H71140   3.914  11.000   3.590 -0.5822  1.9064 -2.2560
  539MOL0     H71141   4.069  10.913   3.587  1.1275 -0.5840 -1.8242
  539MOL0     H71142   4.002  11.156   3.440  1.4179  1.8976 -0.4341
  539MOL0     H71143   4.164  11.070   3.439  0.7006 -0.7015  1.5953
  539MOL0     H71144   4.038  11.157   3.691 -1.9718  2.0820 -1.6126
  539MOL0     H71145   4.213  11.126   3.652  0.5143  0.1695  0.3514
  539MOL0     H71146   4.114  11.524   3.523 -0.8039  0.2493  2.1715
  539MOL0     H71147   3.632  10.702   3.491 -1.0827  0.9665 -0.4149
  539MOL0     H71148   3.483  10.592   3.339  1.9346 -1.3248  3.0545
  540MOL0     O71149   4.517   8.635   3.692 -0.4533  0.1692 -0.3705
  540MOL0     C71150   4.471   8.619   3.808  0.3232 -0.9103  0.3028
  540MOL0     O71151   4.345   8.594   3.836 -0.0045 -0.1396  0.5402
  540MOL0     C71152   4.250   8.609   3.735  1.0045 -0.4733  0.2765
  540MOL0     C71153   4.229   8.705   3.630  0.1144 -0.0743  0.7727
  540MOL0     C71154   4.112   8.731   3.569 -0.1698  0.5235 -0.2604
  540MOL0     C71155   3.997   8.658   3.604  0.2125 -0.0625 -0.1774
  540MOL0     O71156   3.867   8.670   3.552  0.1947  0.8049 -0.8970
  540MOL0     C71157   3.796   8.782   3.598 -0.0402 -0.6188  0.4844
  540MOL0     C71158   3.789   8.889   3.495 -0.5038  0.2822  1.1048
  540MOL0     C71159   3.680   8.854   3.389  0.1675 -0.1878 -0.9921
  540MOL0     C71160   3.665   8.966   3.288  0.6212  0.4324  0.0457
  540MOL0     C71161   3.608   8.936   3.148  0.2460  0.0193  0.2101
  540MOL0     C71162   3.469   8.878   3.153 -0.7114 -0.0358  0.5150
  540MOL0     C71163   3.419   8.802   3.026  1.1167  0.0085 -0.2834
  540MOL0     C71164   3.506   8.685   2.990 -0.0382 -0.2380  1.3701
  540MOL0     N71165   3.474   8.568   3.077 -0.3311 -0.7846  0.0807
  540MOL0     C71166   3.385   8.478   3.031 -0.0183 -0.1302 -0.3746
  540MOL0     C71167   3.372   8.384   3.131 -0.3082 -0.1120  0.5997
  540MOL0     C71168   3.262   8.281   3.104 -1.1693  1.3819  0.1385
  540MOL0     C71169   3.130   8.348   3.146  0.0057 -0.9887  0.6889
  540MOL0     C71170   3.130   8.405   3.298  0.3346  0.0719  0.2423
  540MOL0     C71171   2.983   8.421   3.341  0.5027 -0.2314 -0.5145
  540MOL0     O71172   2.930   8.538   3.285  0.3904  0.6188  0.3781
  540MOL0     C71173   2.796   8.523   3.294  0.0026  0.1335 -0.9921
  540MOL0     C71174   2.735   8.570   3.406 -0.3777 -0.4299 -0.3619
  540MOL0     C71175   2.602   8.547   3.428  0.4066 -0.3421  0.1962
  540MOL0     C71176   2.527   8.465   3.333  0.1636  0.1902 -0.1593
  540MOL0     C71177   2.392   8.426   3.366 -0.5023 -0.8907 -0.0712
  540MOL0     O71178   2.312   8.377   3.265 -0.0334  0.1419  0.0857
  540MOL0     C71179   2.195   8.309   3.295 -0.8931 -0.4617  0.2713
  540MOL0     C71180   2.181   8.220   3.403  0.2644 -0.4303  0.1390
  540MOL0     C71181   2.070   8.154   3.425 -0.2685 -0.3761 -0.5806
  540MOL0     C71182   1.957   8.178   3.344 -0.6927 -0.0483 -0.4713
  540MOL0     O71183   1.838   8.126   3.393 -0.0694 -0.3627 -0.2169
  540MOL0     C71184   1.727   8.221   3.418 -0.4067  0.4480  0.7276
  540MOL0     C71185   1.593   8.160   3.393  0.0548  0.0833  0.0300
  540MOL0     C71186   1.576   8.038   3.481  0.2519  1.0230 -0.8045
  540MOL0     C71187   1.468   7.944   3.414 -0.1504 -0.9640 -0.5491
  540MOL0     C71188   1.424   7.819   3.483 -0.0255  0.3197  0.4823
  540MOL0     C71189   1.343   7.849   3.610  0.1913  0.0722  0.1869
  540MOL0     C71190   1.264   7.724   3.645 -0.1189  0.0432 -0.4353
  540MOL0     C71191   1.127   7.752   3.714  0.0260 -0.1122 -0.4304
  540MOL0    Cl71192   1.003   7.830   3.625  0.0703 -0.2915 -0.0209
  540MOL0     C71193   1.973   8.276   3.246  0.5342  0.1200 -0.0170
  540MOL0     C71194   2.087   8.343   3.224 -0.5144  0.0853 -0.1541
  540MOL0     O71195   2.359   8.426   3.488 -0.1042 -0.0199  0.3014
  540MOL0     C71196   2.591   8.429   3.216  0.2794  0.1835  0.1869
  540MOL0     C71197   2.723   8.462   3.184  0.5631 -0.4532 -0.4612
  540MOL0     N71198   3.466   8.409   3.225 -0.5010  1.0455  0.7368
  540MOL0     N71199   3.537   8.523   3.188 -0.2942  0.6881  0.0328
  540MOL0     C71200   4.012   8.545   3.685 -0.1893  0.8742 -0.9828
  540MOL0     C71201   4.135   8.529   3.761 -0.6309  0.2846  0.6708
  540MOL0     C71202   4.575   8.625   3.923  0.0924  0.1926 -0.2463
  540MOL0     C71203   4.706   8.588   3.904  0.4314 -0.4545 -0.0989
  540MOL0     C71204   4.790   8.580   4.014  0.1841 -0.7929 -0.7800
  540MOL0     C71205   4.755   8.610   4.140  0.8954 -0.1895 -0.0173
  540MOL0     O71206   4.830   8.601   4.255  0.5068  0.7614 -0.0222
  540MOL0     C71207   4.892   8.479   4.286  0.5318 -0.0766 -0.3248
  540MOL0     C71208   4.878   8.443   4.430 -0.9595 -0.5704 -0.1225
  540MOL0     C71209   4.982   8.322   4.476 -0.3476 -0.8148  0.3309
  540MOL0     C71210   4.901   8.206   4.515 -0.1956 -0.0421 -1.1533
  540MOL0     C71211   4.818   8.225   4.635 -0.1847  0.4589 -0.2216
  540MOL0     C71212   4.739   8.232   4.735 -0.7120 -0.7055  0.3483
  540MOL0     C71213   4.624   8.647   4.163 -0.2070  0.4815  0.5397
  540MOL0     C71214   4.535   8.649   4.058 -0.0607  0.5482 -0.8779
  540MOL0     H71215   4.316   8.768   3.612  1.0227 -0.9241  1.9450
  540MOL0     H71216   4.110   8.827   3.517 -2.1246  2.1568  2.5070
  540MOL0     H71217   3.837   8.824   3.690 -1.7781 -1.1960  1.5680
  540MOL0     H71218   3.692   8.757   3.622 -0.4839  0.6093 -0.0677
  540MOL0     H71219   3.892   8.901   3.459  0.0102 -0.8688  2.1028
  540MOL0     H71220   3.764   8.983   3.544 -1.1419  1.8466 -2.0216
  540MOL0     H71221   3.583   8.840   3.437  0.1970 -1.7902 -1.3293
  540MOL0     H71222   3.712   8.766   3.331 -1.9613 -1.0189 -0.9874
  540MOL0     H71223   3.604   9.044   3.334  2.7431  1.6597  0.9599
  540MOL0     H71224   3.761   9.011   3.260 -0.6413  2.6724 -0.9526
  540MOL0     H71225   3.675   8.862   3.103 -0.3382 -0.2771 -0.1900
  540MOL0     H71226   3.630   9.027   3.093  0.8168 -1.2598 -1.7843
  540MOL0     H71227   3.396   8.958   3.170  0.6026  1.1724  0.6756
  540MOL0     H71228   3.469   8.803   3.233  0.0848  0.8622  1.3853
  540MOL0     H71229   3.317   8.772   3.049  0.7340  2.5689  1.8087
  540MOL0     H71230   3.413   8.875   2.945 -2.3631 -0.5982 -0.7314
  540MOL0     H71231   3.611   8.712   2.976 -0.2550 -0.3571 -0.9422
  540MOL0     H71232   3.477   8.654   2.889 -0.3654  0.6240  1.1891
  540MOL0     H71233   3.322   8.486   2.943  0.3849 -0.2747 -0.6771
  540MOL0     H71234   3.279   8.188   3.160 -2.0691  1.6065  0.7953
  540MOL0     H71235   3.257   8.246   3.001 -0.1149 -2.7142  1.2766
  540MOL0     H71236   3.044   8.280   3.144 -0.8758 -0.1527  4.1214
  540MOL0     H71237   3.111   8.426   3.072  2.0490  0.2043  1.3583
  540MOL0     H71238   3.171   8.325   3.361  1.8530  0.8556  0.2945
  540MOL0     H71239   3.193   8.494   3.310  1.2096 -0.4817 -0.0762
  540MOL0     H71240   2.990   8.425   3.450  2.2910  1.4667 -0.6332
  540MOL0     H71241   2.923   8.338   3.302 -2.5769  2.6526 -2.4510
  540MOL0     H71242   2.808   8.617   3.471 -1.6624 -0.5857  1.2571
  540MOL0     H71243   2.560   8.585   3.521  0.3158  0.1006 -0.0218
  540MOL0     H71244   2.272   8.197   3.457 -0.8184  1.5295  3.0257
  540MOL0     H71245   2.075   8.073   3.497  1.1353 -2.1965 -2.6241
  540MOL0     H71246   1.726   8.311   3.356  0.9182 -1.3307 -2.0460
  540MOL0     H71247   1.731   8.245   3.525  0.5111  0.8690  0.6094
  540MOL0     H71248   1.587   8.134   3.287  0.4136 -1.1382  0.2996
  540MOL0     H71249   1.522   8.241   3.414 -0.9040 -0.3619 -1.3511
  540MOL0     H71250   1.561   8.062   3.587 -0.8663 -0.4602 -0.5981
  540MOL0     H71251   1.667   7.977   3.482 -1.1748 -1.2774  0.8974
  540MOL0     H71252   1.377   8.004   3.408 -0.9220 -1.9455  0.7165
  540MOL0     H71253   1.510   7.923   3.315  1.2975 -1.3456  0.1259
  540MOL0     H71254   1.518   7.771   3.512  0.3345  0.7307  0.0089
  540MOL0     H71255   1.383   7.749   3.410  0.5175  0.0802  0.3986
  540MOL0     H71256   1.264   7.924   3.596  0.1946 -0.3318 -2.4146
  540MOL0     H71257   1.404   7.884   3.693  0.4941  1.8392 -0.7318
  540MOL0     H71258   1.248   7.649   3.567 -1.8736  0.6405 -0.6930
  540MOL0     H71259   1.325   7.675   3.721 -0.7534 -1.2841 -0.7563
  540MOL0     H71260   1.143   7.822   3.797  0.8661 -0.0905 -0.5997
  540MOL0     H71261   1.090   7.660   3.761 -0.1698  0.7872  1.2671
  540MOL0     H71262   1.890   8.308   3.185 -0.6522  1.3597  2.1300
  540MOL0     H71263   2.094   8.410   3.139 -0.6124 -1.1455 -1.1725
  540MOL0     H71264   2.538   8.379   3.135 -1.3322  3.4606 -0.9553
  540MOL0     H71265   2.774   8.419   3.098  2.8496  5.0082 -2.3034
  540MOL0     H71266   3.938   8.474   3.721 -0.6614  1.4402 -0.8276
  540MOL0     H71267   4.131   8.461   3.845 -0.8625 -1.5025 -0.7148
  540MOL0     H71268   4.731   8.576   3.799 -3.9318  2.5385 -1.7681
  540MOL0     H71269   4.894   8.570   3.984 -0.5170  2.4488 -5.3866
  540MOL0     H71270   4.997   8.479   4.253 -0.6552 -1.4125 -4.7090
  540MOL0     H71271   4.842   8.399   4.231  1.9910 -0.0825 -1.7426
  540MOL0     H71272   4.900   8.538   4.479 -0.0480 -0.0479 -1.5194
  540MOL0     H71273   4.774   8.422   4.459 -0.5149 -1.5542  0.8591
  540MOL0     H71274   5.052   8.363   4.550  0.9683 -0.1180 -1.2510
  540MOL0     H71275   5.043   8.287   4.393 -0.0145  0.8808 -0.1877
  540MOL0     H71276   4.829   8.183   4.436 -0.3044 -2.5600 -0.3981
  540MOL0     H71277   4.959   8.115   4.532 -1.9710 -0.8488  1.2361
  540MOL0     H71278   4.676   8.237   4.821  2.0849 -0.2319  2.4977
  540MOL0     H71279   4.592   8.679   4.262 -1.2749  1.5129 -0.1218
  540MOL0     H71280   4.428   8.668   4.062  0.0377  2.1667 -3.5149
  541MOL0     O71281   0.581   9.372   1.157  0.2068 -0.1175  0.2746
  541MOL0     C71282   0.643   9.474   1.182 -0.2210  0.0592 -0.4735
  541MOL0     O71283   0.754   9.486   1.255  0.4377 -0.2486 -0.5450
  541MOL0     C71284   0.812   9.370   1.304 -0.1078 -0.2203 -0.3709
  541MOL0     C71285   0.942   9.340   1.276 -0.1172 -0.1940 -0.0581
  541MOL0     C71286   1.001   9.218   1.322  0.7086  0.4548  0.2973
  541MOL0     C71287   0.922   9.134   1.405 -0.7097  0.4165 -0.5239
  541MOL0     O71288   0.987   9.029   1.465  0.4802  0.1549  0.2332
  541MOL0     C71289   0.979   9.025   1.602  0.5332  0.0582 -0.1472
  541MOL0     C71290   1.090   8.948   1.682 -0.4398  0.4393  0.9689
  541MOL0     C71291   1.036   8.802   1.704 -0.2640 -0.5135  0.2355
  541MOL0     C71292   1.132   8.750   1.808  0.4849  0.4528 -0.4241
  541MOL0     C71293   1.077   8.615   1.853 -0.9991  0.3436  0.4858
  541MOL0     C71294   1.109   8.500   1.760 -0.0592  0.0427 -0.5258
  541MOL0     C71295   1.071   8.362   1.811 -0.2008 -0.2765  0.0712
  541MOL0     C71296   0.914   8.346   1.830  0.1693 -0.6310  0.4666
  541MOL0     N71297   0.882   8.209   1.872  0.4780 -1.2241 -0.3845
  541MOL0     C71298   0.800   8.127   1.809  0.3478  0.5533  0.8144
  541MOL0     C71299   0.824   8.006   1.871 -0.3201 -0.3756  0.3804
  541MOL0     C71300   0.736   7.879   1.854 -0.4724 -0.5494  0.6797
  541MOL0     C71301   0.618   7.890   1.758 -0.2974 -0.1015  1.1460
  541MOL0     C71302   0.525   7.777   1.770 -0.3322 -0.1932  0.2480
  541MOL0     C71303   0.428   7.805   1.884 -0.4174 -0.8957  0.1977
  541MOL0     O71304   0.316   7.718   1.855  0.2527 -0.5693 -0.0487
  541MOL0     C71305   0.192   7.739   1.924  0.4688 -0.3111  0.1486
  541MOL0     C71306   0.123   7.852   1.913  0.1500 -0.8588  0.2878
  541MOL0     C71307   0.003   7.869   1.986  0.3737 -0.3449 -0.3335
  541MOL0     C71308  -0.041   7.763   2.068  0.0305 -0.0317  0.0683
  541MOL0     C71309  -0.162   7.784   2.145  0.5690 -0.3803 -0.6433
  541MOL0     O71310  -0.241   7.672   2.163  0.4984  0.0973  0.2828
  541MOL0     C71311  -0.353   7.687   2.244  0.3849  0.2390 -0.5482
  541MOL0     C71312  -0.465   7.767   2.217  0.6431 -0.7715 -0.3505
  541MOL0     C71313  -0.566   7.787   2.313  0.0235  0.7377  0.1827
  541MOL0     C71314  -0.572   7.703   2.430 -0.0604 -0.3553 -0.0460
  541MOL0     O71315  -0.672   7.694   2.525 -0.6319  0.3298  0.2798
  541MOL0     C71316  -0.803   7.743   2.494 -0.3132  0.7933  0.1274
  541MOL0     C71317  -0.911   7.717   2.601  0.4105  0.4461 -0.6706
  541MOL0     C71318  -1.053   7.755   2.536  0.2564  0.7058 -0.8126
  541MOL0     C71319  -1.160   7.691   2.626  0.1964  0.3937 -1.1990
  541MOL0     C71320  -1.185   7.779   2.742 -0.0874 -0.0241  0.1738
  541MOL0     C71321  -1.317   7.758   2.804 -0.2619  0.1399 -1.1412
  541MOL0     C71322  -1.318   7.839   2.940  0.4526  0.0084 -0.8929
  541MOL0     C71323  -1.456   7.807   3.007  0.6205 -1.2703 -0.2475
  541MOL0    Cl71324  -1.585   7.910   2.926  0.5756 -0.0080  0.6416
  541MOL0     C71325  -0.455   7.626   2.455 -0.4899  0.0515 -0.1047
  541MOL0     C71326  -0.347   7.622   2.369  0.4224 -0.3647  0.3451
  541MOL0     O71327  -0.186   7.893   2.196  0.3719  0.0653  0.3065
  541MOL0     C71328   0.029   7.640   2.064 -0.2298 -0.2331  0.0961
  541MOL0     C71329   0.141   7.631   1.991  0.5900  0.1270 -0.0411
  541MOL0     N71330   0.908   8.026   1.980  0.7265 -0.5159 -0.2914
  541MOL0     N71331   0.941   8.153   1.978 -0.3623  0.2277 -0.1746
  541MOL0     C71332   0.794   9.175   1.445 -0.4863 -0.7079  0.1069
  541MOL0     C71333   0.741   9.282   1.386 -0.5359 -0.0170 -0.1886
  541MOL0     C71334   0.593   9.600   1.127 -0.5579 -0.6187  0.2255
  541MOL0     C71335   0.488   9.617   1.031 -1.3042  0.7248 -0.1396
  541MOL0     C71336   0.441   9.735   0.986  0.1254  0.3110  0.0082
  541MOL0     C71337   0.476   9.852   1.052 -0.3571 -0.3498 -0.1981
  541MOL0     O71338   0.422   9.973   1.017  0.0123  0.0125 -0.7410
  541MOL0     C71339   0.515  10.078   0.980 -0.0252  0.3819 -0.3330
  541MOL0     C71340   0.453  10.173   0.873 -0.6387  0.3908 -0.2012
  541MOL0     C71341   0.304  10.225   0.890 -0.6018 -0.0495  0.1033
  541MOL0     C71342   0.270  10.276   1.030 -0.3830 -0.5924  0.4092
  541MOL0     C71343   0.331  10.406   1.066  0.2616  0.6467 -0.4335
  541MOL0     C71344   0.373  10.505   1.119  0.6524 -0.4250 -0.1943
  541MOL0     C71345   0.575   9.848   1.154 -0.4563  0.4237  0.7201
  541MOL0     C71346   0.633   9.726   1.194  1.1565  0.5778 -0.1051
  541MOL0     H71347   1.005   9.401   1.213 -0.4079 -1.8237 -2.0343
  541MOL0     H71348   1.101   9.205   1.282 -0.3087  1.2976 -2.8271
  541MOL0     H71349   0.877   9.003   1.633  1.2932 -0.1769  2.4058
  541MOL0     H71350   1.003   9.126   1.636  2.0588 -0.8267  1.6273
  541MOL0     H71351   1.115   8.996   1.778 -1.2455  2.9280  0.0277
  541MOL0     H71352   1.181   8.950   1.621 -1.0228 -2.0481 -0.1039
  541MOL0     H71353   1.043   8.747   1.609 -0.5524  2.7722 -1.8512
  541MOL0     H71354   0.934   8.800   1.743 -0.1601  2.9955  1.0000
  541MOL0     H71355   1.233   8.730   1.771 -0.0315 -3.4601 -0.2278
  541MOL0     H71356   1.120   8.807   1.901 -4.5644 -3.2979  1.7570
  541MOL0     H71357   0.969   8.624   1.861 -1.0772  0.6374 -0.7121
  541MOL0     H71358   1.139   8.586   1.939  0.9747  0.9769 -0.6533
  541MOL0     H71359   1.218   8.506   1.757 -0.1057  3.4699  0.1359
  541MOL0     H71360   1.079   8.533   1.660  2.6763  3.8866 -0.3108
  541MOL0     H71361   1.117   8.284   1.750 -0.0208 -0.6827  0.7264
  541MOL0     H71362   1.119   8.350   1.908  0.8437 -3.1646 -0.6944
  541MOL0     H71363   0.846   8.381   1.751 -0.7412  2.9133  2.5720
  541MOL0     H71364   0.883   8.415   1.909  0.0835  0.5923 -0.6010
  541MOL0     H71365   0.718   8.143   1.740  1.3282  1.7191 -0.1179
  541MOL0     H71366   0.698   7.846   1.952 -0.9851 -0.5808  0.4698
  541MOL0     H71367   0.795   7.791   1.826  0.9384  0.9468 -1.2606
  541MOL0     H71368   0.648   7.902   1.653 -1.1763  0.4166  0.9462
  541MOL0     H71369   0.564   7.982   1.781 -1.3403  0.1906 -1.9596
  541MOL0     H71370   0.471   7.775   1.675 -1.6274  1.4038  0.9115
  541MOL0     H71371   0.584   7.686   1.782  0.6043  0.3039 -0.4749
  541MOL0     H71372   0.390   7.908   1.877  1.7385  0.0154  0.9583
  541MOL0     H71373   0.469   7.786   1.984  0.1839  0.0983  0.1584
  541MOL0     H71374   0.172   7.936   1.866  1.2911 -1.3562  0.5710
  541MOL0     H71375  -0.043   7.968   1.991 -0.1708 -0.5163 -1.6629
  541MOL0     H71376  -0.463   7.827   2.126 -2.5814 -0.1417 -0.1248
  541MOL0     H71377  -0.639   7.863   2.287 -2.6400 -0.6719  2.9260
  541MOL0     H71378  -0.842   7.694   2.405  0.6675 -3.2507  1.7228
  541MOL0     H71379  -0.800   7.851   2.472 -1.8712  0.3944 -2.5212
  541MOL0     H71380  -0.891   7.770   2.695  2.4796  3.2454 -2.5406
  541MOL0     H71381  -0.897   7.612   2.628 -2.1704  0.0976 -0.4521
  541MOL0     H71382  -1.075   7.716   2.436 -1.5327  2.0168 -1.0032
  541MOL0     H71383  -1.065   7.863   2.520  0.4291  0.6283 -1.4845
  541MOL0     H71384  -1.248   7.673   2.563  0.3872 -1.9093 -0.8931
  541MOL0     H71385  -1.133   7.594   2.669 -1.4809  0.5000  0.1708
  541MOL0     H71386  -1.166   7.884   2.720  1.4931 -0.6328 -1.6333
  541MOL0     H71387  -1.114   7.752   2.821  2.2095 -1.2310 -2.1373
  541MOL0     H71388  -1.327   7.654   2.836  0.8711 -0.0450 -1.3429
  541MOL0     H71389  -1.401   7.782   2.738 -1.3139  0.3973  0.2337
  541MOL0     H71390  -1.233   7.807   3.001  0.7941  2.9619  0.3490
  541MOL0     H71391  -1.302   7.944   2.913 -0.5711  0.4587  0.1765
  541MOL0     H71392  -1.447   7.842   3.111  0.4478 -1.7425 -0.0728
  541MOL0     H71393  -1.476   7.700   3.019 -3.7874 -0.4104  2.0442
  541MOL0     H71394  -0.446   7.568   2.546  0.0671 -0.8551 -0.7274
  541MOL0     H71395  -0.253   7.569   2.383  0.4214 -0.0796  1.5746
  541MOL0     H71396   0.001   7.554   2.123  2.2102 -0.9312  0.3443
  541MOL0     H71397   0.199   7.539   1.994  0.1647 -0.1318  0.5248
  541MOL0     H71398   0.736   9.137   1.528  0.5984 -0.0839  1.1821
  541MOL0     H71399   0.639   9.289   1.421 -0.7662 -5.2695  1.0039
  541MOL0     H71400   0.438   9.531   0.986 -1.8987  2.2015 -2.4964
  541MOL0     H71401   0.377   9.742   0.898 -2.2226 -2.8084  1.2444
  541MOL0     H71402   0.609  10.038   0.942 -1.5035 -1.6501 -2.0701
  541MOL0     H71403   0.541  10.136   1.069  1.6661 -1.9934  0.8719
  541MOL0     H71404   0.520  10.260   0.865  1.0826 -0.8686 -0.1042
  541MOL0     H71405   0.459  10.118   0.779 -4.7142 -2.4879  0.9805
  541MOL0     H71406   0.227  10.154   0.856 -0.7712 -1.1604  2.5652
  541MOL0     H71407   0.298  10.307   0.819 -0.7822 -1.1957 -1.2537
  541MOL0     H71408   0.162  10.288   1.031 -0.2382  0.9243  0.4423
  541MOL0     H71409   0.301  10.196   1.098 -0.8139 -0.9449  0.1922
  541MOL0     H71410   0.416  10.584   1.177  0.6867 -0.2803 -0.4116
  541MOL0     H71411   0.607   9.933   1.213 -2.6211  1.3806  0.6167
  541MOL0     H71412   0.695   9.728   1.283 -0.7548 -1.8881  1.4198
  542MOL0     O71413   7.331  11.268   8.520 -0.4293  0.4230 -0.1084
  542MOL0     C71414   7.348  11.186   8.431 -0.5499  0.3712 -0.1195
  542MOL0     O71415   7.445  11.195   8.335  0.3008  0.2521 -0.4736
  542MOL0     C71416   7.533  11.301   8.352 -0.3220  0.7498  0.7540
  542MOL0     C71417   7.637  11.314   8.447  0.1784  0.5809  0.5584
  542MOL0     C71418   7.713  11.421   8.458  0.1043 -0.5928 -0.2199
  542MOL0     C71419   7.707  11.524   8.362 -0.3776 -0.6383 -1.0038
  542MOL0     O71420   7.776  11.644   8.356 -0.0883  0.2528  0.5420
  542MOL0     C71421   7.888  11.645   8.438 -0.0398  0.3302 -0.0033
  542MOL0     C71422   7.963  11.778   8.412  0.2798 -0.0418  0.1848
  542MOL0     C71423   8.095  11.757   8.491 -1.1999 -0.5957 -0.5380
  542MOL0     C71424   8.173  11.890   8.465 -0.1534  0.0068 -0.0370
  542MOL0     C71425   8.292  11.906   8.549 -0.1297  0.2490  0.2570
  542MOL0     C71426   8.260  11.889   8.697 -0.0778 -0.1719  0.0551
  542MOL0     C71427   8.365  11.948   8.791 -0.6361  0.0953 -0.4370
  542MOL0     C71428   8.498  11.877   8.754 -1.1392  1.3273  0.5375
  542MOL0     N71429   8.605  11.957   8.823  0.1979  0.0433  0.0040
  542MOL0     C71430   8.641  11.948   8.956 -0.2134 -0.2775 -0.1345
  542MOL0     C71431   8.762  12.018   8.957 -0.2573  0.2402 -0.7578
  542MOL0     C71432   8.846  12.055   9.076 -0.0196  0.2229 -0.4423
  542MOL0     C71433   8.907  11.933   9.136  0.0362  0.3633 -0.8489
  542MOL0     C71434   9.001  11.967   9.251 -0.1773  0.1890 -0.1082
  542MOL0     C71435   9.113  11.870   9.267  0.9684 -1.0275  0.5064
  542MOL0     O71436   9.188  11.834   9.153  0.1331  0.0958  0.2444
  542MOL0     C71437   9.324  11.838   9.161  0.8415 -0.0216  0.2309
  542MOL0     C71438   9.387  11.919   9.068 -0.1427 -0.3802 -0.1960
  542MOL0     C71439   9.528  11.917   9.053  0.3078 -0.1518 -0.3732
  542MOL0     C71440   9.603  11.829   9.138  0.0210 -0.6465 -0.4976
  542MOL0     C71441   9.754  11.815   9.123  0.5032  0.6288  0.6186
  542MOL0     O71442   9.814  11.746   9.223  0.0462 -0.3302 -0.2633
  542MOL0     C71443   9.952  11.716   9.213  0.4981  0.9805  0.0231
  542MOL0     C71444  10.016  11.685   9.094  0.9442  0.0910  0.1630
  542MOL0     C71445  10.147  11.638   9.089  1.2301  0.9192  0.0045
  542MOL0     C71446  10.216  11.600   9.205  0.6126 -0.0178 -0.0300
  542MOL0     O71447  10.341  11.550   9.197  1.1944  0.1414 -0.9536
  542MOL0     C71448  10.342  11.415   9.151  0.8569 -0.9515 -0.1719
  542MOL0     C71449  10.463  11.401   9.056  0.1551 -0.4978  0.8915
  542MOL0     C71450  10.589  11.413   9.132  0.3710  0.8664 -0.4526
  542MOL0     C71451  10.711  11.392   9.040  0.1977  0.0570 -0.2686
  542MOL0     C71452  10.836  11.398   9.125 -0.3331  0.8489  0.7311
  542MOL0     C71453  10.945  11.324   9.037  0.2617  0.2364  1.0206
  542MOL0     C71454  10.985  11.397   8.898 -0.3585 -0.6385 -0.1993
  542MOL0     C71455  11.102  11.490   8.916 -0.8931 -0.7001  0.4231
  542MOL0    Cl71456  11.155  11.524   8.754 -0.2252  0.0441 -0.6230
  542MOL0     C71457  10.144  11.612   9.325 -0.2508 -0.0890  0.1417
  542MOL0     C71458  10.018  11.675   9.331  0.1216 -0.4672 -0.1012
  542MOL0     O71459   9.816  11.881   9.033 -0.2994  0.5221 -0.0342
  542MOL0     C71460   9.537  11.749   9.236 -0.5872 -0.0517 -0.1077
  542MOL0     C71461   9.404  11.756   9.247 -0.8506  0.3257  0.1236
  542MOL0     N71462   8.790  12.057   8.828 -0.3217  0.4001 -0.0372
  542MOL0     N71463   8.697  12.023   8.751  0.0731 -0.2394  0.0460
  542MOL0     C71464   7.617  11.508   8.256  0.4420 -0.0659 -0.1141
  542MOL0     C71465   7.519  11.400   8.258 -0.8618 -1.1097  0.9381
  542MOL0     C71466   7.230  11.093   8.414  0.4917 -0.0608 -0.3730
  542MOL0     C71467   7.117  11.100   8.492 -0.1170 -0.1249  0.8567
  542MOL0     C71468   7.013  11.016   8.463  0.7730 -0.1929  0.6631
  542MOL0     C71469   7.006  10.926   8.353 -0.5445  0.0582 -0.3412
  542MOL0     O71470   6.883  10.861   8.330  0.2797 -0.3610  0.2265
  542MOL0     C71471   6.871  10.799   8.203  0.5509  0.0321 -1.3288
  542MOL0     C71472   6.723  10.747   8.211 -0.3841 -0.7966  0.2759
  542MOL0     C71473   6.690  10.637   8.315 -0.1721 -0.3683 -0.9619
  542MOL0     C71474   6.582  10.671   8.416  0.8528 -0.1933 -0.2466
  542MOL0     C71475   6.435  10.692   8.375  0.7290  0.3388 -0.6488
  542MOL0     C71476   6.324  10.726   8.337  0.5174  0.0479  0.4075
  542MOL0     C71477   7.117  10.934   8.272 -0.6597 -1.0026 -0.6905
  542MOL0     C71478   7.227  11.012   8.297 -0.2669  0.0281  0.0222
  542MOL0     H71479   7.642  11.231   8.516 -2.0443 -0.0950  0.0022
  542MOL0     H71480   7.790  11.422   8.534  1.8482 -1.4320 -1.8845
  542MOL0     H71481   7.958  11.564   8.413  2.1301  1.2977  2.5271
  542MOL0     H71482   7.866  11.643   8.545  1.1142 -2.1632  0.2547
  542MOL0     H71483   7.896  11.854   8.453 -2.0750 -1.4167 -0.8902
  542MOL0     H71484   7.983  11.798   8.307  0.7043  2.7965  0.7416
  542MOL0     H71485   8.155  11.678   8.444  0.7366 -0.5315  1.6700
  542MOL0     H71486   8.079  11.730   8.595 -0.3431 -2.0353 -0.7565
  542MOL0     H71487   8.198  11.910   8.360 -1.2574  1.8879  0.0238
  542MOL0     H71488   8.105  11.970   8.493 -1.9535 -2.2674  2.5929
  542MOL0     H71489   8.336  12.004   8.528 -2.3401  0.9631 -1.3857
  542MOL0     H71490   8.368  11.834   8.515 -0.9530  0.2876 -1.8647
  542MOL0     H71491   8.256  11.781   8.716 -0.3296  0.2203  2.4417
  542MOL0     H71492   8.162  11.933   8.717 -0.0553  0.1038 -0.4360
  542MOL0     H71493   8.382  12.056   8.782  2.7692 -0.2369  0.6412
  542MOL0     H71494   8.337  11.925   8.895  0.9086 -2.1073 -0.4647
  542MOL0     H71495   8.531  11.885   8.650 -3.4709  0.3664 -0.3521
  542MOL0     H71496   8.506  11.774   8.789  2.5381  0.4139 -2.3589
  542MOL0     H71497   8.584  11.906   9.038 -1.8998 -0.8397 -1.5192
  542MOL0     H71498   8.785  12.109   9.149 -0.0410 -0.8729  0.3769
  542MOL0     H71499   8.925  12.117   9.031  1.4914 -1.5105 -0.2728
  542MOL0     H71500   8.967  11.880   9.062  1.0001 -2.5651  1.8491
  542MOL0     H71501   8.834  11.856   9.162  0.0596 -0.2224 -2.3999
  542MOL0     H71502   9.040  12.069   9.252 -0.9564  0.5682  3.4987
  542MOL0     H71503   8.944  11.962   9.344  1.3852 -1.2539  0.8204
  542MOL0     H71504   9.055  11.784   9.301 -0.2585 -0.9165 -1.1890
  542MOL0     H71505   9.184  11.907   9.342 -1.1915 -2.1654  3.3054
  542MOL0     H71506   9.328  11.989   9.010  0.2650  0.6243  0.5554
  542MOL0     H71507   9.581  11.983   8.985 -0.4654  1.6671  0.7182
  542MOL0     H71508   9.964  11.688   8.999  2.2736 -0.7402 -0.6138
  542MOL0     H71509  10.187  11.614   8.992 -1.7171  3.9044 -2.1666
  542MOL0     H71510  10.249  11.374   9.109  0.7955  1.1425 -2.2690
  542MOL0     H71511  10.363  11.345   9.233  1.7806 -2.1767 -1.4023
  542MOL0     H71512  10.457  11.476   8.977  2.5118 -1.3797 -0.2071
  542MOL0     H71513  10.466  11.305   9.003 -2.0462 -0.3488  0.3834
  542MOL0     H71514  10.597  11.333   9.205  3.2776 -0.5820 -2.1930
  542MOL0     H71515  10.613  11.506   9.184 -1.6480  0.0430  2.1252
  542MOL0     H71516  10.702  11.298   8.985  0.3767  0.6554 -1.3424
  542MOL0     H71517  10.708  11.472   8.966 -4.5447 -1.4853 -2.1706
  542MOL0     H71518  10.820  11.347   9.220 -1.8910 -1.2835 -0.5638
  542MOL0     H71519  10.870  11.500   9.146  1.9792 -0.7068  6.5238
  542MOL0     H71520  10.913  11.221   9.020  1.2441 -0.1135  1.2283
  542MOL0     H71521  11.031  11.314   9.103 -0.6315 -0.0286  2.1726
  542MOL0     H71522  11.020  11.315   8.835  0.1857 -0.6903  0.1557
  542MOL0     H71523  10.897  11.441   8.850 -0.7999 -2.1478 -0.8157
  542MOL0     H71524  11.184  11.456   8.979  1.9150  0.4653 -2.3353
  542MOL0     H71525  11.058  11.577   8.966 -2.1263 -2.0914  1.8975
  542MOL0     H71526  10.196  11.592   9.418 -3.3611  0.2914  2.1022
  542MOL0     H71527   9.971  11.691   9.427  1.1847 -0.9853  0.5249
  542MOL0     H71528   9.598  11.690   9.304  0.0417  0.7370  0.0236
  542MOL0     H71529   9.350  11.693   9.318  0.6933 -0.8189  0.3296
  542MOL0     H71530   7.602  11.579   8.175 -4.0574 -1.5168 -0.8206
  542MOL0     H71531   7.464  11.388   8.165  2.7888 -2.8247 -1.2152
  542MOL0     H71532   7.105  11.148   8.588 -2.3119 -6.2114  4.2040
  542MOL0     H71533   6.919  11.029   8.516 -0.2926  0.7030 -1.3469
  542MOL0     H71534   6.929  10.707   8.190 -2.7472 -2.2111 -1.3667
  542MOL0     H71535   6.897  10.863   8.118 -2.6271 -2.0030 -4.1269
  542MOL0     H71536   6.658  10.833   8.231  2.3587  1.4720  0.0406
  542MOL0     H71537   6.698  10.710   8.111  0.4704 -2.6176  0.6982
  542MOL0     H71538   6.774  10.603   8.377 -1.9878 -2.2090  0.6173
  542MOL0     H71539   6.670  10.543   8.264  2.0053 -0.1309 -2.4063
  542MOL0     H71540   6.576  10.579   8.476  1.3843 -1.5750 -2.1976
  542MOL0     H71541   6.610  10.756   8.478 -0.5397  1.4555 -1.7990
  542MOL0     H71542   6.231  10.744   8.287 -0.8302 -5.5788  0.2056
  542MOL0     H71543   7.112  10.874   8.182  1.9816  1.1463 -2.4215
  542MOL0     H71544   7.314  10.997   8.235  0.3130  3.0898 -0.0727
  543MOL0     O71545   2.152  10.864   5.297  0.3363  0.0462 -0.3566
  543MOL0     C71546   2.269  10.868   5.321  0.6199 -0.1011 -0.1097
  543MOL0     O71547   2.337  10.958   5.387 -0.3453 -0.5650 -0.6825
  543MOL0     C71548   2.264  11.052   5.458 -0.7174  0.6529  1.2804
  543MOL0     C71549   2.157  11.020   5.542 -0.0580  0.0044 -0.0213
  543MOL0     C71550   2.078  11.116   5.597  0.7263  0.0940 -0.0197
  543MOL0     C71551   2.117  11.253   5.598 -0.0478  0.1441  1.6475
  543MOL0     O71552   2.055  11.350   5.671  0.2447 -0.4897 -0.6402
  543MOL0     C71553   2.015  11.313   5.809  0.0201 -0.8847  0.3346
  543MOL0     C71554   1.932  11.417   5.859 -0.1747 -1.0658  0.5505
  543MOL0     C71555   1.861  11.400   5.985 -0.0009  0.5162  0.3096
  543MOL0     C71556   1.943  11.328   6.088  0.1786  0.4280  0.9544
  543MOL0     C71557   1.852  11.252   6.182 -0.7545 -0.5408 -0.6112
  543MOL0     C71558   1.928  11.189   6.301 -0.3734  0.3972  0.0074
  543MOL0     C71559   2.047  11.086   6.272 -0.5144  0.0514  0.9221
  543MOL0     C71560   1.996  10.968   6.194 -0.3409  0.5845 -0.0669
  543MOL0     N71561   2.097  10.887   6.125  0.8166  0.0012 -0.9616
  543MOL0     C71562   2.119  10.876   5.991  0.7326  0.4104  0.6378
  543MOL0     C71563   2.207  10.772   5.990 -0.2526  0.0534 -0.0175
  543MOL0     C71564   2.289  10.713   5.873 -0.2411 -0.2474 -0.6718
  543MOL0     C71565   2.441  10.738   5.871  0.0226 -0.1268 -0.4340
  543MOL0     C71566   2.492  10.877   5.823  0.2009 -0.6012 -0.2547
  543MOL0     C71567   2.457  10.989   5.920 -0.3474  0.7571  0.0494
  543MOL0     O71568   2.455  11.110   5.846  1.3529 -0.3659  0.3554
  543MOL0     C71569   2.422  11.229   5.911 -0.0382  0.0626  0.4884
  543MOL0     C71570   2.365  11.239   6.033 -0.0304 -0.1107 -0.5410
  543MOL0     C71571   2.322  11.369   6.077  0.2346  0.2122 -0.7425
  543MOL0     C71572   2.338  11.485   5.997 -0.0206  0.1804 -1.1761
  543MOL0     C71573   2.297  11.623   6.044 -0.3469  0.0025  0.7239
  543MOL0     O71574   2.339  11.721   5.962 -0.0722  0.0265 -0.6460
  543MOL0     C71575   2.282  11.849   5.979 -1.3424  0.0947  0.0431
  543MOL0     C71576   2.143  11.869   5.971  0.4975  0.2131 -0.5019
  543MOL0     C71577   2.089  12.003   5.985 -0.5079  0.1854  0.3544
  543MOL0     C71578   2.180  12.115   5.998  0.0946  0.2848 -0.0012
  543MOL0     O71579   2.147  12.257   6.020  0.2989  0.6514  0.8613
  543MOL0     C71580   2.011  12.298   6.004  0.6519  0.5083 -0.1146
  543MOL0     C71581   2.010  12.446   6.030  0.4312  0.7913  0.4766
  543MOL0     C71582   1.878  12.519   5.997 -0.2642 -0.9738  0.4808
  543MOL0     C71583   1.876  12.652   6.082 -0.2855 -0.3846 -0.8342
  543MOL0     C71584   1.758  12.737   6.029 -0.5403  0.1290 -0.1964
  543MOL0     C71585   1.772  12.877   6.093  0.1720 -0.8036  0.5123
  543MOL0     C71586   1.663  12.978   6.054 -0.3165  0.0305 -0.5379
  543MOL0     C71587   1.644  12.998   5.904 -0.0450 -1.4502  0.3439
  543MOL0    Cl71588   1.530  13.125   5.884  0.0580  0.7701 -0.0201
  543MOL0     C71589   2.313  12.090   6.009  0.2331 -0.0160 -0.2151
  543MOL0     C71590   2.370  11.958   5.994  0.6201 -0.7203 -0.7944
  543MOL0     O71591   2.204  11.623   6.122  0.2433  0.0671  0.7747
  543MOL0     C71592   2.403  11.472   5.875 -0.2235  0.7800 -0.0371
  543MOL0     C71593   2.450  11.343   5.833  0.3485 -1.0466  1.0471
  543MOL0     N71594   2.230  10.715   6.111 -0.1488 -1.4505  0.6521
  543MOL0     N71595   2.166  10.797   6.200 -0.3208 -0.7271  0.7952
  543MOL0     C71596   2.230  11.293   5.521  0.1781 -0.1541 -0.5185
  543MOL0     C71597   2.299  11.196   5.455  0.2641  0.4313  0.1764
  543MOL0     C71598   2.358  10.763   5.275 -0.4318  0.3124  0.3372
  543MOL0     C71599   2.356  10.717   5.140  0.5261  0.5739 -0.2273
  543MOL0     C71600   2.413  10.592   5.110 -1.3762 -0.4795  0.1813
  543MOL0     C71601   2.489  10.528   5.200 -0.0267 -0.4632  0.2236
  543MOL0     O71602   2.516  10.401   5.162  0.9360 -0.0950  0.2544
  543MOL0     C71603   2.613  10.323   5.232 -0.4072 -0.0852  0.3834
  543MOL0     C71604   2.762  10.372   5.229 -0.6756  0.9763 -0.8747
  543MOL0     C71605   2.845  10.261   5.290 -0.7962 -0.3908 -0.5980
  543MOL0     C71606   2.998  10.287   5.308 -1.3060 -0.1729  1.6472
  543MOL0     C71607   3.031  10.406   5.389  0.0518  0.1036 -0.8761
  543MOL0     C71608   3.062  10.503   5.458 -0.5757 -0.2606 -0.3387
  543MOL0     C71609   2.498  10.574   5.325 -0.1049  0.0472  0.0256
  543MOL0     C71610   2.445  10.694   5.366  0.5243 -1.0863  0.5968
  543MOL0     H71611   2.132  10.914   5.543  0.4165 -0.1704 -2.0582
  543MOL0     H71612   1.985  11.083   5.641  0.4022 -0.3648 -1.0258
  543MOL0     H71613   2.104  11.310   5.873 -1.2967 -3.0492  2.2417
  543MOL0     H71614   1.965  11.215   5.807  1.3344 -1.6339  1.4874
  543MOL0     H71615   1.863  11.439   5.777  1.3409 -0.7595 -0.6816
  543MOL0     H71616   1.995  11.503   5.882 -1.8977  0.7785 -1.2721
  543MOL0     H71617   1.769  11.345   5.962  0.3363  0.9061 -2.2276
  543MOL0     H71618   1.841  11.500   6.025  0.1095 -0.0371  1.8460
  543MOL0     H71619   2.004  11.249   6.043 -2.2787  0.2764 -2.5297
  543MOL0     H71620   2.015  11.399   6.132  0.3176  2.0065 -1.6199
  543MOL0     H71621   1.803  11.167   6.134 -4.4475  1.6620 -1.1314
  543MOL0     H71622   1.775  11.319   6.221  0.3846  2.0631 -2.5195
  543MOL0     H71623   1.854  11.134   6.361  2.2262 -1.8117  1.4148
  543MOL0     H71624   1.982  11.263   6.359 -0.8763  2.4417 -1.9673
  543MOL0     H71625   2.127  11.139   6.220 -0.9095  1.5630  1.7690
  543MOL0     H71626   2.070  11.047   6.372 -1.4089 -3.5251 -0.1252
  543MOL0     H71627   1.929  11.009   6.118 -0.6627 -1.8730 -1.2230
  543MOL0     H71628   1.931  10.896   6.247 -0.6108 -0.8875 -2.2859
  543MOL0     H71629   2.081  10.928   5.904 -1.6500 -0.1626  1.2493
  543MOL0     H71630   2.246  10.756   5.783 -1.6117  0.8048  0.4396
  543MOL0     H71631   2.268  10.605   5.874  2.4273 -0.8648  1.0371
  543MOL0     H71632   2.494  10.664   5.810 -1.0190 -2.1464  1.0027
  543MOL0     H71633   2.481  10.723   5.971 -0.8727  1.4021  0.1764
  543MOL0     H71634   2.601  10.866   5.820  0.0489 -2.4633  0.1712
  543MOL0     H71635   2.466  10.904   5.720  0.9756 -0.7339 -0.4888
  543MOL0     H71636   2.532  11.009   5.997 -0.7901  4.7922 -0.3856
  543MOL0     H71637   2.364  10.957   5.969  0.2352 -1.6062 -0.2304
  543MOL0     H71638   2.331  11.162   6.102 -2.2147  1.4019  0.1876
  543MOL0     H71639   2.289  11.367   6.181 -0.5261 -0.4130 -0.9891
  543MOL0     H71640   2.070  11.793   5.946  0.8446 -0.3847  0.2782
  543MOL0     H71641   1.986  12.033   5.971 -0.2878 -0.6942 -5.1360
  543MOL0     H71642   1.941  12.243   6.067 -0.2869  0.0863 -1.4756
  543MOL0     H71643   1.970  12.291   5.903  1.6432  0.7459 -0.5547
  543MOL0     H71644   2.087  12.484   5.962  0.4755 -0.8451 -0.4369
  543MOL0     H71645   2.051  12.462   6.130  1.2107  0.2850  0.2543
  543MOL0     H71646   1.790  12.470   6.039 -1.4904  1.3191  0.7609
  543MOL0     H71647   1.877  12.529   5.888 -4.1553  1.8846  0.5566
  543MOL0     H71648   1.867  12.643   6.191  4.5486 -1.8125 -0.3061
  543MOL0     H71649   1.970  12.706   6.064  1.2558 -1.9442  1.8897
  543MOL0     H71650   1.666  12.687   6.061  0.1048 -3.3156 -3.1058
  543MOL0     H71651   1.772  12.741   5.921 -0.3534  0.0835 -0.1739
  543MOL0     H71652   1.873  12.917   6.088  0.1788 -0.9866 -1.7711
  543MOL0     H71653   1.765  12.857   6.200  1.5744  3.6623  1.6289
  543MOL0     H71654   1.565  12.949   6.094 -0.5203  4.0086  2.4859
  543MOL0     H71655   1.692  13.070   6.106  0.8844 -1.6888  2.0535
  543MOL0     H71656   1.605  12.910   5.851 -0.0334 -1.0586 -0.3242
  543MOL0     H71657   1.739  13.040   5.871  0.8548 -1.8856  2.2760
  543MOL0     H71658   2.383  12.171   6.023 -0.0228  1.4994 -5.4077
  543MOL0     H71659   2.477  11.947   6.009  0.6906 -2.4929 -2.3183
  543MOL0     H71660   2.442  11.551   5.811  1.5636 -0.6362 -0.7898
  543MOL0     H71661   2.500  11.335   5.737 -2.1844 -1.3192 -0.3155
  543MOL0     H71662   2.265  11.395   5.524  0.6962 -0.3093 -0.9050
  543MOL0     H71663   2.393  11.228   5.411 -0.0417  2.2346  0.7838
  543MOL0     H71664   2.283  10.759   5.072 -0.5726 -0.4568  0.2670
  543MOL0     H71665   2.393  10.550   5.012  1.1446 -1.5543  0.0563
  543MOL0     H71666   2.620  10.227   5.181 -0.3549  1.7876 -3.5117
  543MOL0     H71667   2.579  10.319   5.335 -0.8852  1.7156  0.3260
  543MOL0     H71668   2.796  10.377   5.125  0.0239  0.7789 -0.6631
  543MOL0     H71669   2.774  10.467   5.281  1.3163 -0.2490  1.0761
  543MOL0     H71670   2.831  10.171   5.230  1.7171 -0.6314 -0.9089
  543MOL0     H71671   2.798  10.254   5.389  0.0858  2.4407  0.1339
  543MOL0     H71672   3.034  10.196   5.357 -0.7265 -1.4419 -0.9736
  543MOL0     H71673   3.049  10.291   5.211 -1.9870  1.3670  1.3246
  543MOL0     H71674   3.081  10.594   5.511 -0.0945 -3.1295  5.1422
  543MOL0     H71675   2.548  10.516   5.402 -2.6601 -0.3665  1.4752
  543MOL0     H71676   2.470  10.736   5.464  0.6222  1.1830 -0.3321
  544MOL0     O71677   3.292   7.255   6.236 -0.4697 -0.6268  0.0893
  544MOL0     C71678   3.299   7.136   6.196  1.1570 -0.5801 -0.3336
  544MOL0     O71679   3.224   7.087   6.093 -0.1111 -0.0202  0.5594
  544MOL0     C71680   3.162   7.179   6.006 -0.2280  0.9842  0.0317
  544MOL0     C71681   3.025   7.172   5.996 -0.6031 -0.4480 -1.2460
  544MOL0     C71682   2.958   7.273   5.927  1.1166  0.0514  0.2814
  544MOL0     C71683   3.024   7.365   5.846 -0.3596 -0.7734 -0.5567
  544MOL0     O71684   2.946   7.451   5.779  0.0342 -0.6177 -0.6465
  544MOL0     C71685   3.004   7.571   5.729 -0.0230  0.2257  0.1538
  544MOL0     C71686   2.896   7.639   5.643  0.7482  0.0395 -0.4202
  544MOL0     C71687   2.958   7.745   5.544 -0.3525 -0.0585  0.3242
  544MOL0     C71688   2.855   7.815   5.452 -0.1638  0.6541  0.7630
  544MOL0     C71689   2.933   7.923   5.373  0.7295 -0.3736 -0.0376
  544MOL0     C71690   2.832   7.999   5.282  0.4080 -1.1209 -0.0634
  544MOL0     C71691   2.897   8.094   5.180  0.0287  1.0501  0.2670
  544MOL0     C71692   2.799   8.168   5.091 -0.7228 -1.5111 -0.5356
  544MOL0     N71693   2.705   8.080   5.023  0.1522 -0.6151  0.1296
  544MOL0     C71694   2.700   8.043   4.890  0.5019  0.7487  0.1104
  544MOL0     C71695   2.581   7.972   4.883 -0.0521  0.0171 -0.0896
  544MOL0     C71696   2.534   7.927   4.750  0.6787  0.5680 -0.4056
  544MOL0     C71697   2.582   7.779   4.741  0.9283  0.5162 -0.5430
  544MOL0     C71698   2.517   7.699   4.624  0.1521  0.3348  0.6721
  544MOL0     C71699   2.578   7.733   4.481  0.6456 -0.8145 -0.3947
  544MOL0     O71700   2.678   7.636   4.461  0.0370  0.2371 -0.5618
  544MOL0     C71701   2.782   7.689   4.393  0.2878  0.1484 -1.1140
  544MOL0     C71702   2.780   7.675   4.256 -0.5758 -0.4833 -0.3973
  544MOL0     C71703   2.884   7.734   4.182  0.4518  0.5918  0.9368
  544MOL0     C71704   2.997   7.794   4.240  0.3175  0.2225  0.2500
  544MOL0     C71705   3.104   7.844   4.154 -0.7982  0.3008 -0.0845
  544MOL0     O71706   3.098   7.798   4.019 -0.1412  0.5811  0.5292
  544MOL0     C71707   3.203   7.821   3.936 -1.0049 -0.4551 -0.2003
  544MOL0     C71708   3.264   7.947   3.926 -0.1610 -0.1330  0.5628
  544MOL0     C71709   3.381   7.977   3.859  0.9086  0.6667 -0.4734
  544MOL0     C71710   3.463   7.875   3.805  0.3894  0.1623  0.1584
  544MOL0     O71711   3.572   7.907   3.720  0.6846 -0.2047  0.1957
  544MOL0     C71712   3.694   7.835   3.757  0.4776 -0.1607 -0.3607
  544MOL0     C71713   3.812   7.938   3.761 -0.7446 -0.9545 -0.3738
  544MOL0     C71714   3.851   7.988   3.625  0.3431  0.3377 -0.2623
  544MOL0     C71715   3.978   8.062   3.617 -0.2126  0.3712 -0.2806
  544MOL0     C71716   4.002   8.134   3.478  0.6778  0.1991  0.2648
  544MOL0     C71717   4.107   8.242   3.473  0.3690  0.3635  0.2548
  544MOL0     C71718   4.246   8.172   3.455  0.9502  0.4989  0.2692
  544MOL0     C71719   4.356   8.260   3.493  0.2456 -0.3359  1.2227
  544MOL0    Cl71720   4.503   8.172   3.444 -0.1341  0.1652  0.0314
  544MOL0     C71721   3.405   7.749   3.818  0.0346  0.6447 -0.7429
  544MOL0     C71722   3.273   7.721   3.880  0.3853 -0.8692  0.2784
  544MOL0     O71723   3.196   7.905   4.206 -0.2388 -0.0508  0.4931
  544MOL0     C71724   3.000   7.802   4.382 -0.2568 -0.5608  1.0571
  544MOL0     C71725   2.895   7.752   4.451  0.3008 -0.9541  0.2985
  544MOL0     N71726   2.512   7.979   4.997 -0.6429 -0.0646  0.2065
  544MOL0     N71727   2.587   8.034   5.093 -0.0395 -0.0436  0.3142
  544MOL0     C71728   3.163   7.366   5.831 -0.0239  0.1726  0.0705
  544MOL0     C71729   3.231   7.275   5.922 -0.1219  0.6302 -1.2146
  544MOL0     C71730   3.403   7.043   6.257 -0.2229  0.0951  0.6631
  544MOL0     C71731   3.425   6.916   6.195  0.0171  0.3588  0.6515
  544MOL0     C71732   3.509   6.822   6.251 -0.4468 -0.5507  0.8757
  544MOL0     C71733   3.591   6.844   6.362 -0.0342  0.4005  0.3642
  544MOL0     O71734   3.693   6.766   6.410 -0.1593 -0.4071  0.3599
  544MOL0     C71735   3.745   6.645   6.345  0.0731  0.3818 -1.1892
  544MOL0     C71736   3.834   6.557   6.440 -0.6313  0.5490  0.5096
  544MOL0     C71737   3.931   6.466   6.360 -0.1043 -0.3109 -0.0097
  544MOL0     C71738   3.997   6.372   6.458  0.2045  0.0951 -0.7987
  544MOL0     C71739   3.924   6.253   6.473 -0.0983 -0.4863  0.8660
  544MOL0     C71740   3.866   6.149   6.485  0.9640 -0.3318 -0.1511
  544MOL0     C71741   3.574   6.970   6.419  0.8343 -0.3255 -0.5367
  544MOL0     C71742   3.474   7.066   6.376 -1.4172 -0.4849 -0.4950
  544MOL0     H71743   2.978   7.099   6.061 -0.9230  0.6744 -0.1839
  544MOL0     H71744   2.851   7.289   5.932  0.8771 -1.2050 -0.4085
  544MOL0     H71745   3.092   7.545   5.669  0.5825 -0.9920  1.5004
  544MOL0     H71746   3.022   7.648   5.804  0.6166  2.6126 -2.3109
  544MOL0     H71747   2.815   7.693   5.693  1.7334  2.2739 -1.1218
  544MOL0     H71748   2.850   7.565   5.576  0.0546  0.5133 -0.4709
  544MOL0     H71749   3.028   7.687   5.484  0.3685  1.4661 -0.3723
  544MOL0     H71750   3.015   7.818   5.603 -1.1540  1.6823 -0.9744
  544MOL0     H71751   2.816   7.742   5.380 -0.0773 -0.1751  1.5462
  544MOL0     H71752   2.763   7.857   5.494 -2.1053 -0.9451 -1.5930
  544MOL0     H71753   3.011   7.870   5.318  0.6716  0.1961 -0.6771
  544MOL0     H71754   2.983   7.996   5.437  2.9335  0.2249 -2.2836
  544MOL0     H71755   2.761   8.055   5.343  1.6701  0.1152  0.3105
  544MOL0     H71756   2.774   7.925   5.225 -2.6408  2.1771 -1.5828
  544MOL0     H71757   2.952   8.159   5.250 -0.5146 -1.0402  2.7974
  544MOL0     H71758   2.961   8.031   5.117 -2.4141 -0.9644 -0.3149
  544MOL0     H71759   2.853   8.235   5.023 -0.6305 -2.2616 -1.2221
  544MOL0     H71760   2.750   8.237   5.160  1.0775  0.1245 -0.8059
  544MOL0     H71761   2.775   8.061   4.814  0.8822 -0.8202  0.0840
  544MOL0     H71762   2.570   7.993   4.671  0.5234  0.2571 -0.7386
  544MOL0     H71763   2.425   7.932   4.748  0.4738  0.7217  3.5358
  544MOL0     H71764   2.565   7.719   4.831 -0.0708  0.8893 -0.4601
  544MOL0     H71765   2.691   7.785   4.735  1.1871 -2.1304  0.1730
  544MOL0     H71766   2.534   7.592   4.637  1.9876  0.3013 -1.3926
  544MOL0     H71767   2.409   7.712   4.618  0.3460  1.5472 -0.6646
  544MOL0     H71768   2.617   7.835   4.479  1.4887 -1.1272 -0.3527
  544MOL0     H71769   2.503   7.738   4.401 -0.6055  1.2064  0.8382
  544MOL0     H71770   2.695   7.633   4.203 -3.4191  3.4499  0.5535
  544MOL0     H71771   2.879   7.735   4.074  2.2629  1.9279  0.8341
  544MOL0     H71772   3.213   8.024   3.982 -1.4490 -0.9355  0.5324
  544MOL0     H71773   3.413   8.080   3.853 -1.6633  1.4661 -1.8015
  544MOL0     H71774   3.711   7.758   3.681 -0.4252 -0.6710 -0.0582
  544MOL0     H71775   3.685   7.787   3.854  3.9165 -1.6685 -0.6591
  544MOL0     H71776   3.895   7.885   3.808 -0.8114 -1.1728 -0.5008
  544MOL0     H71777   3.797   8.022   3.830 -1.3770 -0.0762 -1.5393
  544MOL0     H71778   3.764   8.049   3.598 -0.6493 -1.4619 -1.3645
  544MOL0     H71779   3.874   7.906   3.556  3.9264 -3.0461  4.2963
  544MOL0     H71780   3.993   8.126   3.704  1.4001 -0.7164  0.2958
  544MOL0     H71781   4.060   7.990   3.611  2.1452  2.8776 -0.0413
  544MOL0     H71782   3.904   8.180   3.459 -0.3299 -2.2678 -0.9904
  544MOL0     H71783   4.019   8.057   3.402 -0.0767  0.8599 -0.6027
  544MOL0     H71784   4.099   8.292   3.570 -1.2389 -0.8138  0.7901
  544MOL0     H71785   4.088   8.306   3.386  1.0071 -0.9361 -0.8888
  544MOL0     H71786   4.252   8.077   3.510 -3.2524 -0.7943 -1.0593
  544MOL0     H71787   4.255   8.138   3.351  0.8506 -0.1705  0.4694
  544MOL0     H71788   4.365   8.270   3.601 -0.3463 -1.7378  1.4148
  544MOL0     H71789   4.343   8.363   3.457  3.1485 -0.7256 -1.3896
  544MOL0     H71790   3.470   7.679   3.767 -0.1000 -2.4204  2.8886
  544MOL0     H71791   3.224   7.625   3.869  0.1313 -0.6553 -0.5182
  544MOL0     H71792   3.089   7.852   4.419  0.3523 -2.0732  1.7155
  544MOL0     H71793   2.891   7.754   4.559 -0.1266 -0.6054  0.2816
  544MOL0     H71794   3.236   7.421   5.773  0.8194 -0.0874  0.8624
  544MOL0     H71795   3.338   7.261   5.934 -0.3859  0.4452  1.5098
  544MOL0     H71796   3.374   6.883   6.105  4.6357 -2.2052 -1.3642
  544MOL0     H71797   3.510   6.726   6.201 -0.5189  0.3853 -1.0047
  544MOL0     H71798   3.784   6.669   6.246 -0.4092  1.4111 -1.1477
  544MOL0     H71799   3.657   6.581   6.339  1.1974 -1.7613  2.1937
  544MOL0     H71800   3.890   6.636   6.492 -1.2892 -0.8654  3.5823
  544MOL0     H71801   3.774   6.506   6.515  2.6444 -0.8759  2.3974
  544MOL0     H71802   4.005   6.526   6.306  0.8912 -1.7795 -0.3353
  544MOL0     H71803   3.876   6.408   6.286  1.4604  1.4622 -2.7630
  544MOL0     H71804   4.094   6.347   6.415  1.4160  0.7482  1.3807
  544MOL0     H71805   4.008   6.429   6.551  1.8117  0.4645 -1.1896
  544MOL0     H71806   3.796   6.072   6.508  1.3315 -0.7841 -0.5341
  544MOL0     H71807   3.630   6.989   6.510 -1.4774  1.4383  0.6419
  544MOL0     H71808   3.468   7.166   6.417  1.2273  1.1644 -3.6732
  545MOL0     O71809   2.385   2.270   4.615  0.3802 -0.5267  0.4614
  545MOL0     C71810   2.394   2.148   4.600 -0.9750 -0.5413 -0.2263
  545MOL0     O71811   2.311   2.073   4.535  0.0674  0.3695 -0.5800
  545MOL0     C71812   2.188   2.122   4.510 -0.2767  0.1931  0.4863
  545MOL0     C71813   2.145   2.112   4.373 -0.6300 -0.5969 -0.5027
  545MOL0     C71814   2.024   2.172   4.335 -0.7007 -0.8214 -0.8471
  545MOL0     C71815   1.952   2.245   4.431 -1.1908 -1.0575 -0.9126
  545MOL0     O71816   1.842   2.323   4.406  0.3906  0.5949  0.4178
  545MOL0     C71817   1.782   2.315   4.278  1.0918  0.4893  0.9107
  545MOL0     C71818   1.677   2.426   4.255 -0.0918  0.5436  0.2003
  545MOL0     C71819   1.609   2.399   4.128 -0.1025 -0.1162 -0.2937
  545MOL0     C71820   1.468   2.469   4.114  0.1547 -0.2760 -0.6041
  545MOL0     C71821   1.380   2.406   3.998 -0.2187 -0.1857  0.5334
  545MOL0     C71822   1.226   2.439   4.016 -0.3233 -0.1175  0.3249
  545MOL0     C71823   1.202   2.580   3.947  0.0386 -0.1015  0.4048
  545MOL0     C71824   1.061   2.644   3.975 -0.8258  0.2362  0.1302
  545MOL0     N71825   1.052   2.773   3.914 -0.5083  0.6553 -0.9465
  545MOL0     C71826   1.126   2.881   3.956 -1.1380 -0.3077  0.1794
  545MOL0     C71827   1.095   2.982   3.877  0.3923 -0.5128  1.0056
  545MOL0     C71828   1.130   3.133   3.866 -0.2552 -0.3389 -0.5083
  545MOL0     C71829   1.176   3.196   3.997 -0.5198 -0.2459 -0.0204
  545MOL0     C71830   1.053   3.235   4.091 -0.5986  0.3702  0.1296
  545MOL0     C71831   0.974   3.363   4.043 -0.4832  0.0492 -0.3411
  545MOL0     O71832   0.838   3.362   4.094 -1.7550 -0.4459 -0.9239
  545MOL0     C71833   0.724   3.407   4.028  1.4674  1.1458 -0.3708
  545MOL0     C71834   0.605   3.358   4.086  0.4664  0.4758  0.3377
  545MOL0     C71835   0.479   3.401   4.028 -1.0444 -0.7242 -0.8000
  545MOL0     C71836   0.474   3.500   3.937 -0.1143 -0.1276  0.3345
  545MOL0     C71837   0.343   3.540   3.874  0.0492 -0.6655  0.7361
  545MOL0     O71838   0.228   3.489   3.921 -0.1279 -0.1139  0.1558
  545MOL0     C71839   0.102   3.501   3.865  0.1396  0.2713  0.2730
  545MOL0     C71840   0.008   3.586   3.935  0.0011 -0.1874  0.0662
  545MOL0     C71841  -0.124   3.588   3.880 -0.5375 -0.2924  0.2444
  545MOL0     C71842  -0.157   3.541   3.758 -0.4142  0.5277  1.3423
  545MOL0     O71843  -0.283   3.562   3.718 -0.1646 -0.3951 -0.3220
  545MOL0     C71844  -0.337   3.499   3.600 -0.1707  0.4048 -0.0739
  545MOL0     C71845  -0.488   3.507   3.627 -0.0456 -0.2570  0.3471
  545MOL0     C71846  -0.538   3.657   3.615 -0.0509 -0.6042  1.3431
  545MOL0     C71847  -0.567   3.715   3.474 -0.5574  0.5713  0.0202
  545MOL0     C71848  -0.610   3.860   3.482 -0.7889  0.8360 -0.1419
  545MOL0     C71849  -0.623   3.902   3.336 -0.5151 -0.3259 -0.2308
  545MOL0     C71850  -0.764   3.898   3.284 -0.4893  1.5353  0.0343
  545MOL0     C71851  -0.807   3.977   3.159  0.2245  0.4747 -0.1366
  545MOL0    Cl71852  -0.720   3.903   3.020  0.1510 -0.5423 -0.0986
  545MOL0     C71853  -0.065   3.471   3.681 -0.1213  0.1211 -0.2741
  545MOL0     C71854   0.067   3.454   3.740  0.0759 -0.0463  0.4064
  545MOL0     O71855   0.345   3.612   3.775 -0.8554  0.0724  0.6215
  545MOL0     C71856   0.599   3.544   3.880  0.8314 -0.0211  0.2505
  545MOL0     C71857   0.722   3.501   3.927  0.2134 -0.7590 -0.1778
  545MOL0     N71858   0.996   2.933   3.796  0.6359 -0.2441 -0.7879
  545MOL0     N71859   0.968   2.805   3.815  0.4534 -0.3556 -0.7054
  545MOL0     C71860   1.993   2.247   4.569 -0.6843  0.2675 -0.1224
  545MOL0     C71861   2.108   2.187   4.610  0.2231 -0.1480  0.9217
  545MOL0     C71862   2.515   2.074   4.639  0.7849  1.2319  0.9712
  545MOL0     C71863   2.518   1.925   4.628  0.0430 -0.8141 -0.0531
  545MOL0     C71864   2.634   1.859   4.668 -0.2267 -0.2165  0.2583
  545MOL0     C71865   2.743   1.930   4.718  0.2191  0.7554  0.0211
  545MOL0     O71866   2.849   1.845   4.743 -0.4249 -0.2445 -0.4598
  545MOL0     C71867   2.956   1.897   4.821  0.1656  0.1860  0.7056
  545MOL0     C71868   3.044   1.991   4.730 -0.0503  0.1183 -0.0348
  545MOL0     C71869   3.100   2.096   4.824  0.1176 -0.6596  0.3849
  545MOL0     C71870   3.224   2.176   4.772  0.6074  0.0683  0.2756
  545MOL0     C71871   3.275   2.257   4.882 -0.7555 -0.0228  0.2706
  545MOL0     C71872   3.303   2.329   4.979 -0.8840  0.0048  0.0194
  545MOL0     C71873   2.737   2.071   4.741 -0.1985  0.1743 -0.5183
  545MOL0     C71874   2.630   2.144   4.689  0.1583 -1.1086 -0.1504
  545MOL0     H71875   2.210   2.064   4.300  3.4286  3.3991  0.0440
  545MOL0     H71876   1.985   2.166   4.234 -3.0141 -1.2445  0.0176
  545MOL0     H71877   1.732   2.218   4.262  0.9271  0.4015  1.8892
  545MOL0     H71878   1.858   2.335   4.203  0.5734 -0.6722  0.0410
  545MOL0     H71879   1.729   2.521   4.239  2.1366 -0.6572 -0.0514
  545MOL0     H71880   1.602   2.446   4.332 -1.9361  4.3255 -2.2688
  545MOL0     H71881   1.576   2.295   4.133 -1.3654  0.2812  4.3406
  545MOL0     H71882   1.669   2.418   4.038 -0.1783 -0.5307 -0.4336
  545MOL0     H71883   1.410   2.459   4.206 -1.9457 -0.5785 -1.8999
  545MOL0     H71884   1.486   2.576   4.100  1.6405 -0.6901 -2.3213
  545MOL0     H71885   1.394   2.297   3.994  2.1647  0.0860 -3.0771
  545MOL0     H71886   1.409   2.442   3.899  3.1362  0.1440  1.5067
  545MOL0     H71887   1.214   2.427   4.124  0.7371 -3.4955  0.1947
  545MOL0     H71888   1.163   2.361   3.972  0.9531 -1.8998  1.4778
  545MOL0     H71889   1.285   2.645   3.975  0.0276 -0.0227  0.2557
  545MOL0     H71890   1.199   2.548   3.842 -0.6034 -1.7788  0.9108
  545MOL0     H71891   1.063   2.669   4.082  2.9719 -1.1386  0.5283
  545MOL0     H71892   0.986   2.569   3.950  2.4141 -3.2838 -0.0123
  545MOL0     H71893   1.193   2.894   4.041  0.7146 -0.4936 -1.1970
  545MOL0     H71894   1.037   3.184   3.838 -1.7291 -1.6466  1.6512
  545MOL0     H71895   1.212   3.134   3.794  1.3248 -0.1984  1.2245
  545MOL0     H71896   1.226   3.291   3.978 -0.9988 -0.4572 -2.7518
  545MOL0     H71897   1.249   3.128   4.042 -0.0735 -0.2915 -0.8032
  545MOL0     H71898   0.988   3.147   4.097 -0.7653  0.3841 -1.1848
  545MOL0     H71899   1.088   3.252   4.193 -0.4427 -0.4569  0.2177
  545MOL0     H71900   0.968   3.360   3.934 -0.3305 -0.7471 -0.3331
  545MOL0     H71901   1.030   3.452   4.073  0.3151 -0.2515 -0.9089
  545MOL0     H71902   0.605   3.288   4.168 -0.4999  1.4072  1.1644
  545MOL0     H71903   0.390   3.353   4.066  0.9679 -5.9126 -1.8288
  545MOL0     H71904   0.045   3.643   4.019 -0.4665  0.3197 -0.0626
  545MOL0     H71905  -0.197   3.648   3.933  0.7871  2.5209 -0.8902
  545MOL0     H71906  -0.318   3.392   3.587  0.5739  0.5137  0.0838
  545MOL0     H71907  -0.323   3.550   3.505 -0.1785  1.1710  0.3334
  545MOL0     H71908  -0.505   3.463   3.726  0.3310 -2.2825 -0.4599
  545MOL0     H71909  -0.534   3.443   3.552 -0.7234  2.1791 -1.4489
  545MOL0     H71910  -0.474   3.731   3.662  0.1480  0.1920 -0.1352
  545MOL0     H71911  -0.635   3.658   3.666 -1.0920 -1.7846 -0.4584
  545MOL0     H71912  -0.480   3.691   3.413  0.3881  0.0547  1.5257
  545MOL0     H71913  -0.644   3.655   3.425  1.6914 -2.4553 -0.0678
  545MOL0     H71914  -0.532   3.925   3.523 -1.0176  2.1725 -1.7282
  545MOL0     H71915  -0.695   3.885   3.546 -1.1990  0.7429 -0.6368
  545MOL0     H71916  -0.558   3.846   3.269 -0.0847 -1.9780  1.4954
  545MOL0     H71917  -0.585   4.003   3.321 -2.6466  0.5738 -0.0240
  545MOL0     H71918  -0.785   3.795   3.252 -0.0760  1.1960  0.8268
  545MOL0     H71919  -0.839   3.909   3.363  1.5798 -0.9743  2.5651
  545MOL0     H71920  -0.780   4.081   3.181  1.1249  0.1277  0.3969
  545MOL0     H71921  -0.916   3.972   3.150 -0.2463  4.2908  1.4435
  545MOL0     H71922  -0.064   3.450   3.574  0.2502 -1.7048  0.0469
  545MOL0     H71923   0.151   3.402   3.695  1.7023  0.9769  2.1006
  545MOL0     H71924   0.613   3.607   3.793  2.9827 -1.5875 -0.6018
  545MOL0     H71925   0.818   3.537   3.893  0.1593  0.9508  1.3397
  545MOL0     H71926   1.923   2.311   4.623  0.4499  0.9773  0.5473
  545MOL0     H71927   2.145   2.201   4.711  0.0595  0.5610  0.8929
  545MOL0     H71928   2.433   1.876   4.582  0.3231 -1.2995 -0.0546
  545MOL0     H71929   2.636   1.752   4.649 -1.2031  0.3430 -3.9819
  545MOL0     H71930   3.028   1.821   4.853  0.1131  0.2694  1.0185
  545MOL0     H71931   2.911   1.951   4.905  0.7002 -1.5430  2.1702
  545MOL0     H71932   3.124   1.928   4.688  0.8833  2.5458 -2.1871
  545MOL0     H71933   2.989   2.036   4.647 -0.5130 -1.7546 -0.8140
  545MOL0     H71934   3.132   2.047   4.917  3.6343  0.7426  0.0593
  545MOL0     H71935   3.024   2.174   4.824 -2.9402 -3.4061 -1.0402
  545MOL0     H71936   3.301   2.115   4.724  0.0932 -0.1052 -0.3400
  545MOL0     H71937   3.187   2.232   4.686  0.0309  0.1972  0.6077
  545MOL0     H71938   3.330   2.390   5.062  2.1298 -0.7507 -0.2818
  545MOL0     H71939   2.817   2.128   4.788  2.7507 -0.0328 -4.6680
  545MOL0     H71940   2.645   2.251   4.706 -2.6330  0.3337 -4.8769
  546MOL0     O71941   8.404   4.266  10.823 -0.6140  0.4910  0.2158
  546MOL0     C71942   8.358   4.198  10.916  1.1236  0.3294  0.8667
  546MOL0     O71943   8.385   4.215  11.050 -0.1598 -0.0666  0.3429
  546MOL0     C71944   8.470   4.311  11.086 -0.0881 -0.0808 -0.7955
  546MOL0     C71945   8.422   4.441  11.076 -0.0258 -0.0825 -0.5834
  546MOL0     C71946   8.510   4.546  11.099  0.5060  0.4978 -0.4035
  546MOL0     C71947   8.645   4.534  11.141  1.2253  0.5081 -0.0776
  546MOL0     O71948   8.709   4.653  11.153 -0.5074  0.2958 -0.1442
  546MOL0     C71949   8.853   4.657  11.184  0.5056  0.8782 -0.0816
  546MOL0     C71950   8.892   4.789  11.236 -0.0329  0.5091 -1.2162
  546MOL0     C71951   9.044   4.799  11.224  0.0453 -0.4843  0.8359
  546MOL0     C71952   9.092   4.932  11.278  0.2346  0.1978 -0.0066
  546MOL0     C71953   9.238   4.960  11.242 -0.2912 -0.6273 -1.3361
  546MOL0     C71954   9.256   5.026  11.098  0.2015  1.1025 -0.4141
  546MOL0     C71955   9.230   5.174  11.105  0.4111 -0.5525 -0.1272
  546MOL0     C71956   9.244   5.222  10.958 -0.2063  0.1484  0.3261
  546MOL0     N71957   9.377   5.275  10.921 -0.5880  0.4694 -0.5914
  546MOL0     C71958   9.478   5.210  10.857 -0.3636  0.5625  0.9347
  546MOL0     C71959   9.578   5.301  10.875 -0.7432  0.1081 -0.4379
  546MOL0     C71960   9.715   5.292  10.816 -0.4597  0.1782 -0.3640
  546MOL0     C71961   9.829   5.300  10.922  0.1488  0.0297 -0.7738
  546MOL0     C71962   9.946   5.207  10.884  0.2463 -0.1425  1.2426
  546MOL0     C71963  10.062   5.210  10.983 -0.7880  0.3576 -1.0978
  546MOL0     O71964  10.149   5.099  10.954 -0.2449  1.0058 -0.7218
  546MOL0     C71965  10.253   5.123  10.872 -0.3822  0.4865  0.1052
  546MOL0     C71966  10.375   5.154  10.926  0.9174 -0.1567  0.5801
  546MOL0     C71967  10.484   5.174  10.856  0.7780 -1.7469 -0.2448
  546MOL0     C71968  10.473   5.190  10.718  0.4418  0.1958 -0.2079
  546MOL0     C71969  10.593   5.197  10.631 -0.2943 -0.5671  0.2013
  546MOL0     O71970  10.718   5.195  10.691 -0.0966  0.8309 -0.2761
  546MOL0     C71971  10.842   5.225  10.632  1.0407  0.0966 -0.1326
  546MOL0     C71972  10.951   5.147  10.673  0.6437  0.5857 -0.3673
  546MOL0     C71973  11.075   5.172  10.620 -0.0896 -0.5432 -0.5698
  546MOL0     C71974  11.096   5.293  10.547  0.0979  0.7916 -0.2622
  546MOL0     O71975  11.217   5.347  10.514  0.5757  0.5695  0.5119
  546MOL0     C71976  11.342   5.276  10.536  0.2274 -0.3564  0.2085
  546MOL0     C71977  11.357   5.157  10.441 -0.3733 -0.2503 -0.3288
  546MOL0     C71978  11.360   5.211  10.292 -0.3136 -0.2210 -0.9417
  546MOL0     C71979  11.352   5.115  10.180 -0.4142  0.9460  1.1577
  546MOL0     C71980  11.464   5.002  10.184 -1.0422  0.3949 -0.3389
  546MOL0     C71981  11.618   5.042  10.176 -0.4272  0.9078  0.4710
  546MOL0     C71982  11.647   5.130  10.052 -0.1519  0.8815  0.1747
  546MOL0     C71983  11.762   5.221  10.049 -0.5271 -0.4622 -1.1677
  546MOL0    Cl71984  11.747   5.340  10.177 -0.1995  0.4967  0.2059
  546MOL0     C71985  10.990   5.374  10.515  1.3872  0.5797 -1.0205
  546MOL0     C71986  10.856   5.338  10.550  0.7370 -0.5597  0.1394
  546MOL0     O71987  10.573   5.209  10.512 -0.5951 -0.8575  0.1631
  546MOL0     C71988  10.354   5.163  10.650  0.8344  0.0823  0.6004
  546MOL0     C71989  10.248   5.127  10.732  0.4527  0.5276 -0.5948
  546MOL0     N71990   9.532   5.419  10.931  0.6116  0.4600  1.1430
  546MOL0     N71991   9.411   5.401  10.963 -0.5713  0.0888 -0.0984
  546MOL0     C71992   8.688   4.396  11.166 -0.9796  0.5021  0.4160
  546MOL0     C71993   8.601   4.292  11.129  0.6546  0.8578 -0.5760
  546MOL0     C71994   8.266   4.087  10.879  0.0278  0.2344  0.0601
  546MOL0     C71995   8.173   4.112  10.773 -0.5532  0.3782 -0.6249
  546MOL0     C71996   8.080   4.014  10.734  0.1950 -0.2216  0.2154
  546MOL0     C71997   8.072   3.894  10.807 -0.2078 -0.1151  0.5867
  546MOL0     O71998   7.969   3.809  10.766  0.4122  0.1492  0.4088
  546MOL0     C71999   7.940   3.704  10.852  0.6626  0.5179 -0.2150
  546MOL0     C72000   7.798   3.654  10.820 -0.1773 -1.3171 -0.2326
  546MOL0     C72001   7.790   3.569  10.693  0.3285  0.2825 -0.3469
  546MOL0     C72002   7.802   3.422  10.720  0.2973  0.7621  0.1314
  546MOL0     C72003   7.706   3.356  10.808 -0.2500 -0.7641  0.6563
  546MOL0     C72004   7.623   3.299  10.876 -0.1442 -0.1406  0.0601
  546MOL0     C72005   8.169   3.869  10.917 -0.1544 -0.1427 -0.3831
  546MOL0     C72006   8.271   3.964  10.945  0.4004 -0.2723  0.0297
  546MOL0     H72007   8.317   4.455  11.052 -1.2598 -3.6423  1.9002
  546MOL0     H72008   8.475   4.649  11.090  1.6741  0.9810  0.3034
  546MOL0     H72009   8.910   4.633  11.094  0.1244 -1.1374  0.1598
  546MOL0     H72010   8.886   4.588  11.262  0.5038  1.1480  0.1567
  546MOL0     H72011   8.861   4.790  11.341  1.2093  0.9269 -0.8440
  546MOL0     H72012   8.842   4.871  11.184  0.0186  0.7827 -0.8385
  546MOL0     H72013   9.072   4.788  11.118  2.1246  3.2916  0.8030
  546MOL0     H72014   9.095   4.719  11.278 -3.0870 -2.4865  1.0188
  546MOL0     H72015   9.038   5.004  11.216 -0.6406  2.1238  2.8358
  546MOL0     H72016   9.067   4.959  11.380 -0.9235  0.2318 -0.2871
  546MOL0     H72017   9.293   4.866  11.248  1.4690  0.4485  0.5518
  546MOL0     H72018   9.287   5.028  11.313  0.3299 -1.5808 -0.8309
  546MOL0     H72019   9.194   4.975  11.023  3.7582 -0.9385 -2.2221
  546MOL0     H72020   9.355   5.003  11.057 -0.3038 -4.0567  0.6274
  546MOL0     H72021   9.127   5.203  11.129  0.2237 -1.6155  0.3786
  546MOL0     H72022   9.308   5.230  11.157  0.6804 -1.3008  0.2857
  546MOL0     H72023   9.171   5.300  10.935  1.7047  2.2847  1.0916
  546MOL0     H72024   9.215   5.145  10.886 -0.3194 -0.3483  0.8982
  546MOL0     H72025   9.476   5.108  10.820 -2.4989  1.9823 -3.5665
  546MOL0     H72026   9.726   5.370  10.740 -0.6738  0.6885  0.1175
  546MOL0     H72027   9.714   5.191  10.774 -1.1075 -0.9826  2.2192
  546MOL0     H72028   9.786   5.261  11.015 -2.7473  2.3423 -0.9708
  546MOL0     H72029   9.860   5.404  10.932 -0.9739  0.2551  0.8767
  546MOL0     H72030   9.903   5.109  10.863 -0.6952  1.0757 -3.8855
  546MOL0     H72031   9.983   5.240  10.786 -2.4373 -3.5946 -1.1690
  546MOL0     H72032  10.024   5.200  11.085  1.7113 -0.5507 -0.1793
  546MOL0     H72033  10.121   5.302  10.978  1.4400 -0.8664  0.8816
  546MOL0     H72034  10.380   5.148  11.034  0.9420 -2.9688  0.4923
  546MOL0     H72035  10.576   5.199  10.909  1.3071  0.5730 -2.1217
  546MOL0     H72036  10.931   5.053  10.724  0.1905  1.0671  0.3541
  546MOL0     H72037  11.164   5.113  10.640 -1.7400 -3.4336 -1.2421
  546MOL0     H72038  11.346   5.245  10.641 -0.9297  0.0541  0.3828
  546MOL0     H72039  11.426   5.342  10.512 -0.0941  0.5768  1.5533
  546MOL0     H72040  11.283   5.078  10.458 -3.0282  2.5565  2.4231
  546MOL0     H72041  11.455   5.114  10.462  0.6196  2.4331  0.9807
  546MOL0     H72042  11.452   5.267  10.272 -0.6994  0.0566 -2.0476
  546MOL0     H72043  11.279   5.285  10.290 -0.7984 -0.7512 -1.1874
  546MOL0     H72044  11.251   5.073  10.182 -1.1721  2.4440 -1.1989
  546MOL0     H72045  11.345   5.172  10.087 -2.9619 -2.1197 -0.7243
  546MOL0     H72046  11.445   4.948  10.090  3.2368  1.8467 -2.2745
  546MOL0     H72047  11.447   4.949  10.278  0.0779  2.3452  1.0222
  546MOL0     H72048  11.679   4.950  10.174 -1.0916  0.4459  1.0287
  546MOL0     H72049  11.648   5.082  10.274  2.6218 -0.7202  0.3423
  546MOL0     H72050  11.652   5.054   9.973  0.2254  1.3080 -0.2230
  546MOL0     H72051  11.555   5.183  10.026  0.0098  0.6799 -0.8446
  546MOL0     H72052  11.781   5.278   9.958  2.5031 -0.8537 -0.8920
  546MOL0     H72053  11.852   5.168  10.080 -0.5634 -0.3035 -0.7782
  546MOL0     H72054  10.992   5.464  10.453 -1.2556  0.7372 -1.0111
  546MOL0     H72055  10.769   5.402  10.546  1.5746  0.7613  1.7640
  546MOL0     H72056  10.343   5.167  10.542  1.2512 -4.1543  0.2538
  546MOL0     H72057  10.157   5.099  10.680  0.2067  2.5201 -1.3231
  546MOL0     H72058   8.789   4.379  11.201  1.1583  3.1187 -3.7492
  546MOL0     H72059   8.642   4.193  11.140 -0.6081  0.4896  1.2813
  546MOL0     H72060   8.171   4.208  10.723  0.6385  0.8453  0.1783
  546MOL0     H72061   8.007   4.045  10.660  1.4831  1.4009 -0.4474
  546MOL0     H72062   7.933   3.730  10.958  0.7310 -1.3113  0.2813
  546MOL0     H72063   8.015   3.624  10.851  1.3244  1.1363 -0.6160
  546MOL0     H72064   7.749   3.602  10.903  0.7865 -1.5670  0.1863
  546MOL0     H72065   7.741   3.746  10.807 -0.1253 -1.5282 -2.3548
  546MOL0     H72066   7.870   3.592  10.622 -0.9609 -1.3551 -2.4663
  546MOL0     H72067   7.695   3.591  10.645  1.1677 -0.5268 -2.5353
  546MOL0     H72068   7.785   3.379  10.620  1.2243  0.9323 -0.1155
  546MOL0     H72069   7.901   3.399  10.762 -0.5908  0.2385  2.0517
  546MOL0     H72070   7.557   3.257  10.949  2.1311 -0.0397  2.3318
  546MOL0     H72071   8.181   3.777  10.972 -2.8379 -0.1937  0.2106
  546MOL0     H72072   8.350   3.931  11.011  0.4950 -1.1196 -0.4940
  547MOL0     O72073   0.289   1.546   9.901 -0.0676 -1.2446 -0.3948
  547MOL0     C72074   0.229   1.643   9.932 -0.3035 -0.5189  1.3445
  547MOL0     O72075   0.239   1.765   9.857 -0.6423  0.1550  0.5354
  547MOL0     C72076   0.339   1.769   9.760  0.4446  0.0882  0.4387
  547MOL0     C72077   0.316   1.855   9.655 -0.5776  0.3591  0.1538
  547MOL0     C72078   0.409   1.878   9.554  0.6646  0.9091 -0.0520
  547MOL0     C72079   0.536   1.816   9.559  0.1889  0.2364 -0.0391
  547MOL0     O72080   0.630   1.861   9.465 -0.3804  0.4654  0.3519
  547MOL0     C72081   0.712   1.758   9.405  0.1256 -0.1704  0.2756
  547MOL0     C72082   0.818   1.818   9.315  0.1670  0.1060  0.9549
  547MOL0     C72083   0.758   1.830   9.177  0.1500 -0.0580 -0.4505
  547MOL0     C72084   0.846   1.906   9.069  0.5416 -0.7031 -0.4667
  547MOL0     C72085   0.804   1.869   8.928 -0.2907 -0.2261 -0.4002
  547MOL0     C72086   0.899   1.936   8.825  0.1074  0.9817 -0.6828
  547MOL0     C72087   0.879   1.872   8.691  0.4986  0.0087  0.2734
  547MOL0     C72088   0.976   1.919   8.583 -0.3435  0.1661 -0.3246
  547MOL0     N72089   0.949   1.860   8.449  0.7049  1.1811 -0.0049
  547MOL0     C72090   0.838   1.881   8.369  0.2019  0.4761  0.4079
  547MOL0     C72091   0.843   1.792   8.269  0.3017 -0.9114 -0.1665
  547MOL0     C72092   0.746   1.764   8.156  0.7963 -0.4637  0.0720
  547MOL0     C72093   0.596   1.739   8.213  0.2220 -0.8840 -0.0156
  547MOL0     C72094   0.492   1.729   8.097 -0.2742 -0.7235  0.2599
  547MOL0     C72095   0.357   1.743   8.150  0.1884  0.1102 -0.4003
  547MOL0     O72096   0.338   1.654   8.256 -0.4937  0.8441  0.0607
  547MOL0     C72097   0.246   1.689   8.357 -1.0012 -0.0067 -0.0067
  547MOL0     C72098   0.139   1.778   8.334  0.0046  0.3713  0.4506
  547MOL0     C72099   0.058   1.813   8.430  0.1495 -0.0146  1.3760
  547MOL0     C72100   0.071   1.765   8.559  0.4693 -0.5946 -0.2027
  547MOL0     C72101  -0.020   1.814   8.670 -0.4881  0.5628  0.6997
  547MOL0     O72102   0.044   1.814   8.796  1.3856 -0.3288 -0.3192
  547MOL0     C72103  -0.025   1.861   8.911  0.8781  0.3762 -0.9293
  547MOL0     C72104   0.004   1.795   9.028 -0.4125  0.3047  0.2105
  547MOL0     C72105  -0.075   1.822   9.142 -0.3216  0.4903 -0.5678
  547MOL0     C72106  -0.169   1.935   9.142  0.6593  0.5791 -0.7446
  547MOL0     O72107  -0.231   1.966   9.261  0.2131  0.0622 -0.1397
  547MOL0     C72108  -0.320   2.076   9.278  0.4838  0.3426 -0.1644
  547MOL0     C72109  -0.403   2.029   9.401  0.3761  0.5628  0.7063
  547MOL0     C72110  -0.497   2.142   9.456  0.1371 -0.4047 -0.2393
  547MOL0     C72111  -0.536   2.105   9.595  0.6023 -1.0156 -0.6029
  547MOL0     C72112  -0.594   2.223   9.678 -0.4333 -1.3444 -0.1732
  547MOL0     C72113  -0.682   2.175   9.797 -0.8564 -0.7838 -0.0539
  547MOL0     C72114  -0.760   2.291   9.852 -0.0097 -0.0814 -0.7774
  547MOL0     C72115  -0.868   2.254   9.947 -0.4768 -0.9539  0.0321
  547MOL0    Cl72116  -0.964   2.401  10.005 -0.0994 -0.3245 -0.3525
  547MOL0     C72117  -0.190   2.001   9.023 -0.0968  0.3043  0.5789
  547MOL0     C72118  -0.118   1.967   8.909 -0.0190 -0.5664  0.1365
  547MOL0     O72119  -0.130   1.852   8.649 -0.0588 -0.1274  0.2822
  547MOL0     C72120   0.168   1.667   8.579  0.5628 -0.1065  0.3933
  547MOL0     C72121   0.265   1.635   8.482 -0.9388  0.2522 -0.2805
  547MOL0     N72122   0.961   1.712   8.288  0.0526  0.2314  0.2660
  547MOL0     N72123   1.018   1.752   8.398 -0.1042 -0.7656 -0.3946
  547MOL0     C72124   0.572   1.734   9.677  1.0124  0.4114  0.3288
  547MOL0     C72125   0.468   1.714   9.776 -0.4810 -0.4859  0.3167
  547MOL0     C72126   0.148   1.636  10.054  0.3222  0.5235  0.2994
  547MOL0     C72127   0.123   1.517  10.130  0.1542 -0.2484  0.5615
  547MOL0     C72128   0.014   1.507  10.221 -0.3019 -0.0741  0.5179
  547MOL0     C72129  -0.063   1.614  10.235  1.0322 -0.3165  0.0354
  547MOL0     O72130  -0.170   1.591  10.314 -0.2793  0.9043  0.3995
  547MOL0     C72131  -0.192   1.673  10.420 -0.2271 -0.1212  0.3688
  547MOL0     C72132  -0.312   1.763  10.397 -0.0300 -0.0601  0.2423
  547MOL0     C72133  -0.445   1.685  10.415  0.0064 -0.7168 -0.3626
  547MOL0     C72134  -0.552   1.782  10.362 -0.1664 -1.0968  0.1015
  547MOL0     C72135  -0.683   1.719  10.399  0.2170 -0.3273 -0.1002
  547MOL0     C72136  -0.783   1.657  10.442 -0.7479  0.5954 -1.0097
  547MOL0     C72137  -0.038   1.742  10.182 -0.2075  0.1408  0.3248
  547MOL0     C72138   0.069   1.751  10.091  0.1726 -0.7470 -0.2961
  547MOL0     H72139   0.218   1.900   9.650 -0.0257  1.5977  0.0455
  547MOL0     H72140   0.388   1.934   9.464 -1.8071 -1.0793 -0.8220
  547MOL0     H72141   0.644   1.685   9.360 -0.2444 -1.2157  2.4166
  547MOL0     H72142   0.766   1.702   9.481 -1.6618 -3.7342 -0.8635
  547MOL0     H72143   0.906   1.753   9.315  2.1290  2.5282  3.3066
  547MOL0     H72144   0.857   1.912   9.353  2.1085 -0.3492  0.1963
  547MOL0     H72145   0.657   1.871   9.176  0.1621 -0.0165 -1.8651
  547MOL0     H72146   0.743   1.732   9.131 -2.6386  0.7117 -1.3916
  547MOL0     H72147   0.842   2.015   9.079 -1.1323 -0.7638 -0.2571
  547MOL0     H72148   0.950   1.871   9.077  0.8576 -0.3796 -2.6699
  547MOL0     H72149   0.703   1.903   8.906  0.5655  2.4063 -0.6072
  547MOL0     H72150   0.814   1.760   8.916  0.5653 -0.0699 -1.3524
  547MOL0     H72151   1.002   1.913   8.849  0.3942  1.3255 -1.5127
  547MOL0     H72152   0.886   2.043   8.806 -1.6104  0.4807 -2.7967
  547MOL0     H72153   0.877   1.763   8.692  1.1971 -0.0174  2.3545
  547MOL0     H72154   0.781   1.908   8.659  0.2900 -0.8999 -0.1463
  547MOL0     H72155   1.079   1.903   8.615 -0.7903 -3.2900 -0.2906
  547MOL0     H72156   0.970   2.027   8.562  1.0058 -0.3591 -4.5143
  547MOL0     H72157   0.760   1.952   8.393 -0.1341  0.9944 -1.9469
  547MOL0     H72158   0.787   1.692   8.084 -0.6796  0.0460 -1.3629
  547MOL0     H72159   0.736   1.857   8.100 -2.8660 -1.6438 -1.5555
  547MOL0     H72160   0.564   1.816   8.284 -1.0925  0.2958 -1.7904
  547MOL0     H72161   0.602   1.643   8.265  1.0233 -1.9744 -2.0163
  547MOL0     H72162   0.491   1.799   8.013 -1.4765 -2.0380 -0.8699
  547MOL0     H72163   0.503   1.634   8.045  2.0042 -1.2328  1.5608
  547MOL0     H72164   0.284   1.720   8.072  1.5544  0.4065 -1.8120
  547MOL0     H72165   0.335   1.847   8.177  0.0951 -0.2132  0.8206
  547MOL0     H72166   0.131   1.833   8.240 -0.8128 -2.8688 -1.5479
  547MOL0     H72167  -0.019   1.882   8.397  0.3724 -1.7201 -3.4515
  547MOL0     H72168   0.073   1.711   9.024 -1.8227 -0.9517  1.1852
  547MOL0     H72169  -0.070   1.760   9.231  0.6261  0.6378 -0.5091
  547MOL0     H72170  -0.384   2.094   9.192 -0.5096  2.8174  1.0196
  547MOL0     H72171  -0.259   2.165   9.293 -0.4464  0.7717  1.2473
  547MOL0     H72172  -0.335   2.006   9.483  1.5179 -0.8409 -0.5802
  547MOL0     H72173  -0.464   1.941   9.376  0.5790  0.9047 -1.1848
  547MOL0     H72174  -0.588   2.170   9.401 -1.1482 -0.9973  1.4988
  547MOL0     H72175  -0.445   2.238   9.466 -1.0932  0.2719 -0.1609
  547MOL0     H72176  -0.610   2.024   9.600  2.6641 -2.9057  2.3059
  547MOL0     H72177  -0.446   2.081   9.651  0.5189 -2.4875 -1.0456
  547MOL0     H72178  -0.654   2.290   9.616 -2.9621 -1.7554  1.6653
  547MOL0     H72179  -0.510   2.288   9.703 -2.6211  1.4353  0.4348
  547MOL0     H72180  -0.605   2.138   9.865  1.1381  1.8880 -0.6898
  547MOL0     H72181  -0.748   2.101   9.750  0.2180 -0.9829 -1.2993
  547MOL0     H72182  -0.693   2.369   9.889  0.7871  0.0832 -2.4848
  547MOL0     H72183  -0.820   2.325   9.767 -1.0147 -2.7426 -1.2232
  547MOL0     H72184  -0.818   2.205  10.031 -0.7012  1.8731  1.9295
  547MOL0     H72185  -0.943   2.188   9.902 -0.4590 -0.7858 -0.2499
  547MOL0     H72186  -0.253   2.089   9.021  0.8731  1.0133  0.6545
  547MOL0     H72187  -0.140   2.031   8.824  1.5201  0.6658  0.6093
  547MOL0     H72188   0.178   1.628   8.679 -1.6414 -1.5332  0.1267
  547MOL0     H72189   0.351   1.571   8.502 -2.3168 -2.1930 -1.7195
  547MOL0     H72190   0.671   1.690   9.683 -0.2671 -2.8176 -0.3709
  547MOL0     H72191   0.500   1.650   9.858  2.0082  0.1108 -0.1248
  547MOL0     H72192   0.166   1.427  10.088 -2.2560  0.4114 -3.9509
  547MOL0     H72193  -0.018   1.418  10.272 -0.5260 -0.0650  0.3951
  547MOL0     H72194  -0.103   1.736  10.431 -0.7842  0.6014  0.7292
  547MOL0     H72195  -0.214   1.613  10.508  0.0415 -0.3106  0.3104
  547MOL0     H72196  -0.312   1.844  10.471 -1.3730  1.7677 -1.6574
  547MOL0     H72197  -0.310   1.808  10.298 -1.9671 -2.3793 -0.9475
  547MOL0     H72198  -0.474   1.678  10.520  1.9811 -3.1880  0.1280
  547MOL0     H72199  -0.448   1.591  10.360  2.7320 -0.6396 -0.7966
  547MOL0     H72200  -0.548   1.888  10.387 -5.1975 -0.0790 -2.2802
  547MOL0     H72201  -0.544   1.789  10.253  3.2698  4.0996  0.2914
  547MOL0     H72202  -0.854   1.591  10.487  0.4038 -1.1948 -1.7080
  547MOL0     H72203  -0.092   1.835  10.198  0.8886  1.0562 -1.0550
  547MOL0     H72204   0.097   1.850  10.054  2.0211 -0.5747  1.3896
  548MOL0     O72205   1.044  11.101  10.314 -0.3042 -0.6760  0.3459
  548MOL0     C72206   0.997  11.208  10.347 -0.2921 -0.0146 -0.1305
  548MOL0     O72207   0.907  11.231  10.451 -0.1125  0.5039 -0.2665
  548MOL0     C72208   0.858  11.124  10.517  0.0016  0.3578  0.0621
  548MOL0     C72209   0.804  11.153  10.651  0.1506  0.4165  0.4763
  548MOL0     C72210   0.726  11.063  10.720  0.2414  0.4075 -0.4807
  548MOL0     C72211   0.695  10.938  10.663  0.5981  0.2916  0.9095
  548MOL0     O72212   0.631  10.860  10.748 -0.5138 -0.6216  0.3211
  548MOL0     C72213   0.623  10.721  10.720 -0.1647  0.1293  0.1449
  548MOL0     C72214   0.603  10.644  10.850 -0.0471 -0.3761 -0.2714
  548MOL0     C72215   0.568  10.502  10.840 -0.0860 -0.2341  0.0841
  548MOL0     C72216   0.546  10.433  10.970 -0.4567 -1.6110 -0.3458
  548MOL0     C72217   0.427  10.343  10.973  0.6827  0.2461  0.3812
  548MOL0     C72218   0.423  10.272  11.100  0.0188  0.1578 -1.4810
  548MOL0     C72219   0.284  10.204  11.127 -0.1656 -0.6801 -0.1550
  548MOL0     C72220   0.242  10.250  11.278 -0.1415 -0.1157  0.2654
  548MOL0     N72221   0.177  10.389  11.274  1.0626 -0.0161  0.3668
  548MOL0     C72222   0.226  10.510  11.231 -0.9531 -0.0017  0.2485
  548MOL0     C72223   0.128  10.592  11.257  1.0879  0.2148  0.8236
  548MOL0     C72224   0.138  10.735  11.218  0.4604 -0.1345  0.0163
  548MOL0     C72225   0.102  10.761  11.074 -0.8877 -0.1650  0.2653
  548MOL0     C72226   0.207  10.695  10.974  0.2743  0.2510  1.0385
  548MOL0     C72227   0.223  10.770  10.851 -0.4013  0.8280 -0.3965
  548MOL0     O72228   0.136  10.721  10.754 -0.1547  0.9274 -0.8463
  548MOL0     C72229   0.110  10.778  10.635 -0.0118 -0.6130 -0.2692
  548MOL0     C72230   0.137  10.918  10.605  0.5490  0.1137 -0.1961
  548MOL0     C72231   0.093  10.972  10.488 -0.0686 -0.8616 -0.0511
  548MOL0     C72232   0.055  10.886  10.380  0.9441 -0.0492 -0.6591
  548MOL0     C72233   0.030  10.929  10.246  0.1044 -1.6395  0.5457
  548MOL0     O72234   0.039  11.066  10.218 -0.6083 -0.5091 -0.0670
  548MOL0     C72235   0.002  11.112  10.089  0.6354 -0.4481 -0.4257
  548MOL0     C72236   0.084  11.202  10.022  0.2722  0.0703 -0.5599
  548MOL0     C72237   0.061  11.245   9.890 -0.1290 -0.1028  0.8577
  548MOL0     C72238  -0.047  11.200   9.810  0.3407 -0.1348 -0.4375
  548MOL0     O72239  -0.065  11.231   9.679  0.2005 -0.4054  0.0427
  548MOL0     C72240  -0.085  11.126   9.583 -0.8965  0.2043 -0.4283
  548MOL0     C72241   0.023  11.018   9.585 -0.5267  0.6918  0.5867
  548MOL0     C72242   0.164  11.069   9.534  0.2031  0.0187  0.1462
  548MOL0     C72243   0.270  10.956   9.513  1.1342 -0.2094  0.4168
  548MOL0     C72244   0.313  10.887   9.648  0.8669  0.4316 -0.2996
  548MOL0     C72245   0.384  10.754   9.625  0.3771  0.3871  1.0497
  548MOL0     C72246   0.308  10.647   9.547  0.4022  0.0936 -0.2601
  548MOL0     C72247   0.386  10.516   9.537 -0.2226 -0.5238 -0.8920
  548MOL0    Cl72248   0.509  10.526   9.404 -0.2991 -0.1835 -0.0885
  548MOL0     C72249  -0.137  11.118   9.880  0.7730 -0.8991  0.5543
  548MOL0     C72250  -0.117  11.074  10.017 -0.5179  0.4734 -0.9104
  548MOL0     O72251   0.005  10.844  10.161 -0.1880 -0.4126 -0.6462
  548MOL0     C72252   0.011  10.755  10.410 -0.7644  0.6060  1.4958
  548MOL0     C72253   0.038  10.710  10.539  0.0945  0.6858 -0.0271
  548MOL0     N72254   0.018  10.529  11.299  1.0896  0.5309 -0.5332
  548MOL0     N72255   0.049  10.407  11.313  0.1722  0.4455  1.9368
  548MOL0     C72256   0.728  10.912  10.532  1.1231 -0.2979 -0.6202
  548MOL0     C72257   0.803  11.006  10.456 -0.0842 -0.4449 -0.1936
  548MOL0     C72258   1.063  11.318  10.275  0.1399  0.0286 -0.3014
  548MOL0     C72259   1.010  11.444  10.300  0.2983 -0.1589  0.4520
  548MOL0     C72260   1.036  11.556  10.217 -0.9660  0.8337 -0.1461
  548MOL0     C72261   1.129  11.538  10.117 -0.4060  0.7274  0.5538
  548MOL0     O72262   1.155  11.639  10.020 -0.8987 -0.1582 -0.2633
  548MOL0     C72263   1.034  11.689   9.952 -1.4533 -0.4601  0.7022
  548MOL0     C72264   1.067  11.731   9.811 -0.7555 -0.5268 -0.1707
  548MOL0     C72265   1.115  11.604   9.728 -0.3623 -0.1457  0.1199
  548MOL0     C72266   1.089  11.610   9.575  0.2320  0.3689 -0.7468
  548MOL0     C72267   0.947  11.580   9.552 -0.0094 -0.3504 -0.1178
  548MOL0     C72268   0.829  11.579   9.535 -0.9763  0.7467  0.9884
  548MOL0     C72269   1.190  11.412  10.096 -0.1541  0.7989  0.1954
  548MOL0     C72270   1.168  11.304  10.179  0.2808  0.8086  0.0973
  548MOL0     H72271   0.840  11.244  10.696  0.0550 -0.0630  1.5423
  548MOL0     H72272   0.666  11.093  10.806 -3.5612  0.5110 -2.9400
  548MOL0     H72273   0.714  10.687  10.670  0.9513  1.7133  1.0161
  548MOL0     H72274   0.534  10.702  10.658  0.6534  0.5812 -1.2050
  548MOL0     H72275   0.523  10.706  10.891 -0.0040  0.4250 -1.3416
  548MOL0     H72276   0.689  10.664  10.915 -0.9103  1.4004  0.4047
  548MOL0     H72277   0.651  10.445  10.796 -0.2188 -0.4123  0.0654
  548MOL0     H72278   0.485  10.486  10.771  0.6435  1.2339 -1.2029
  548MOL0     H72279   0.634  10.374  10.995  0.2352  0.6551  3.3980
  548MOL0     H72280   0.538  10.506  11.052 -2.2813  0.1986 -2.0111
  548MOL0     H72281   0.440  10.275  10.888  3.1232 -2.4616  2.6854
  548MOL0     H72282   0.338  10.405  10.958  0.7861  0.7632  1.7723
  548MOL0     H72283   0.452  10.335  11.185 -2.8814 -1.0565  0.5844
  548MOL0     H72284   0.494  10.190  11.087 -1.5128 -1.4428 -0.3048
  548MOL0     H72285   0.207  10.233  11.054  0.6824 -1.7512 -1.5369
  548MOL0     H72286   0.294  10.095  11.123 -2.3875 -0.9123 -1.2634
  548MOL0     H72287   0.324  10.250  11.350 -0.7664  1.6740  1.0066
  548MOL0     H72288   0.165  10.182  11.315  0.0648 -1.0733 -0.9742
  548MOL0     H72289   0.323  10.536  11.190 -2.0790  1.0616 -1.8857
  548MOL0     H72290   0.239  10.774  11.229  1.0492 -0.2640 -3.6886
  548MOL0     H72291   0.063  10.791  11.275  1.9717  3.3918 -1.1251
  548MOL0     H72292   0.102  10.869  11.059 -3.5301 -0.1846 -0.2569
  548MOL0     H72293   0.006  10.718  11.047 -1.4097  1.8022 -1.2158
  548MOL0     H72294   0.305  10.698  11.022 -0.3567 -0.6593  2.4675
  548MOL0     H72295   0.171  10.592  10.977  0.9434  0.0220  1.3826
  548MOL0     H72296   0.324  10.764  10.808 -0.2753  0.9410 -0.1240
  548MOL0     H72297   0.206  10.875  10.878 -3.6420 -0.5121  3.6790
  548MOL0     H72298   0.181  10.991  10.673  2.2579  0.1057 -1.2333
  548MOL0     H72299   0.098  11.076  10.457 -1.8367 -1.5284 -3.0709
  548MOL0     H72300   0.181  11.236  10.057 -0.1017 -0.9521  1.6365
  548MOL0     H72301   0.131  11.318   9.851 -1.3442  1.0496  0.7514
  548MOL0     H72302  -0.090  11.169   9.483 -2.4549 -1.3496 -1.0693
  548MOL0     H72303  -0.173  11.066   9.606 -1.5376  1.0244 -0.7040
  548MOL0     H72304  -0.007  10.928   9.531  1.2865 -0.2191  1.0234
  548MOL0     H72305   0.029  10.990   9.690 -0.4872  1.5713  0.8244
  548MOL0     H72306   0.204  11.133   9.614 -0.1083  2.0310 -1.2447
  548MOL0     H72307   0.159  11.136   9.449  1.5028  0.3742  0.3335
  548MOL0     H72308   0.227  10.881   9.447 -1.4978 -0.8949  2.7248
  548MOL0     H72309   0.359  11.002   9.469 -1.7479  3.4071 -2.3421
  548MOL0     H72310   0.220  10.857   9.696  0.8628 -2.9291 -2.1574
  548MOL0     H72311   0.373  10.952   9.712  1.4464  0.2493 -0.6467
  548MOL0     H72312   0.414  10.713   9.722  0.9961 -1.4071  0.1606
  548MOL0     H72313   0.469  10.773   9.559 -0.1808 -0.2927  0.1069
  548MOL0     H72314   0.209  10.617   9.584 -0.4288 -1.1485 -3.2078
  548MOL0     H72315   0.283  10.670   9.443  0.1290 -1.6249 -0.6082
  548MOL0     H72316   0.315  10.437   9.509 -1.5311 -1.1908  3.4759
  548MOL0     H72317   0.426  10.493   9.636 -1.8306  4.3937  1.1925
  548MOL0     H72318  -0.226  11.080   9.830  0.9163 -2.8783  1.6863
  548MOL0     H72319  -0.196  11.007  10.051 -1.0989  1.6002  0.0587
  548MOL0     H72320  -0.023  10.689  10.331  0.9102  1.4462  0.0022
  548MOL0     H72321   0.009  10.607  10.556 -2.0468  1.3291  0.5707
  548MOL0     H72322   0.692  10.816  10.497 -1.7307  0.2402  0.5631
  548MOL0     H72323   0.821  10.993  10.350  3.0226  0.7981  0.0922
  548MOL0     H72324   0.932  11.469  10.371 -1.8850 -0.1706 -1.7868
  548MOL0     H72325   0.994  11.654  10.240  1.2174  1.0368  3.8889
  548MOL0     H72326   1.011  11.786   9.996  0.8872 -0.0078  1.0644
  548MOL0     H72327   0.961  11.608   9.951  0.9773 -2.8156  0.8709
  548MOL0     H72328   0.980  11.774   9.761 -0.4849 -0.5757 -0.6902
  548MOL0     H72329   1.146  11.807   9.806 -0.0557 -1.2350 -0.0471
  548MOL0     H72330   1.064  11.523   9.781  3.3941  0.4493  5.4544
  548MOL0     H72331   1.222  11.585   9.744  0.2119 -0.7602 -3.4621
  548MOL0     H72332   1.126  11.701   9.527  0.4516 -0.0996 -1.4964
  548MOL0     H72333   1.149  11.536   9.521  0.0959  1.8214 -3.0435
  548MOL0     H72334   0.724  11.570   9.513 -0.8887  1.9886 -0.0115
  548MOL0     H72335   1.255  11.408  10.010  1.8666 -0.5411  1.6934
  548MOL0     H72336   1.212  11.205  10.169 -0.6670  0.4822 -1.1826
  549MOL0     O72337   3.875   8.265   4.034  0.0256  0.0355 -0.0305
  549MOL0     C72338   3.874   8.312   4.145  0.6415  0.4220  0.5409
  549MOL0     O72339   3.837   8.247   4.251 -0.3214 -0.3314  0.6313
  549MOL0     C72340   3.765   8.128   4.268 -0.1992  0.8187  0.7373
  549MOL0     C72341   3.791   8.043   4.378 -0.4093  0.6770  0.2329
  549MOL0     C72342   3.715   7.925   4.391  0.5936  0.1471 -0.1117
  549MOL0     C72343   3.603   7.897   4.304 -0.2837 -0.4239 -0.0796
  549MOL0     O72344   3.520   7.795   4.319 -0.3577  0.9301  0.1139
  549MOL0     C72345   3.571   7.662   4.280  0.5698  0.4611  0.4230
  549MOL0     C72346   3.493   7.656   4.141  0.3125 -0.0816  0.1174
  549MOL0     C72347   3.498   7.515   4.088 -0.8568 -0.5991 -0.1976
  549MOL0     C72348   3.425   7.410   4.177 -0.3142  0.0864 -0.5960
  549MOL0     C72349   3.399   7.279   4.110 -0.6312 -0.1942  0.4613
  549MOL0     C72350   3.344   7.176   4.202  0.5447  0.4798 -0.3572
  549MOL0     C72351   3.299   7.051   4.117 -0.1277 -0.4969 -0.2787
  549MOL0     C72352   3.242   6.936   4.209  0.7066 -0.5914 -0.6877
  549MOL0     N72353   3.266   6.801   4.152 -0.7004  0.9187 -0.6860
  549MOL0     C72354   3.233   6.748   4.033 -0.8093  0.6253  0.5016
  549MOL0     C72355   3.291   6.627   4.026 -0.2306 -0.8026  0.1840
  549MOL0     C72356   3.288   6.539   3.911  0.8557 -0.1130 -0.6472
  549MOL0     C72357   3.191   6.414   3.931  0.1910  0.0854 -0.6388
  549MOL0     C72358   3.145   6.334   3.807 -0.6330 -0.0625  0.6058
  549MOL0     C72359   3.255   6.249   3.738  0.8106  0.4315  0.4715
  549MOL0     O72360   3.350   6.333   3.687 -0.0518  0.1419  0.4005
  549MOL0     C72361   3.459   6.277   3.626  0.0386  0.8373 -0.4253
  549MOL0     C72362   3.497   6.144   3.626 -0.6156  0.1729 -0.0758
  549MOL0     C72363   3.603   6.099   3.551  0.9493 -0.0305 -0.2306
  549MOL0     C72364   3.689   6.187   3.479 -0.6796  1.0841  0.7556
  549MOL0     C72365   3.785   6.136   3.385  0.0979 -0.2800  0.0555
  549MOL0     O72366   3.800   6.209   3.270  0.4535 -0.1967 -0.2598
  549MOL0     C72367   3.865   6.167   3.154  0.4058  0.6698  0.4510
  549MOL0     C72368   3.971   6.071   3.147  0.0747 -0.5192 -0.4001
  549MOL0     C72369   4.012   6.016   3.020  0.9078 -0.1984 -0.3116
  549MOL0     C72370   3.935   6.049   2.908 -0.1597 -0.5940 -0.1593
  549MOL0     O72371   3.967   5.991   2.793  0.1295 -0.1402  0.2381
  549MOL0     C72372   4.049   5.876   2.782 -0.0754 -1.5123 -0.2373
  549MOL0     C72373   4.029   5.822   2.638 -0.6189 -0.7835  0.4100
  549MOL0     C72374   4.084   5.909   2.521  0.8646 -0.8316 -0.7703
  549MOL0     C72375   4.081   5.855   2.381  0.5876 -0.4719  0.1034
  549MOL0     C72376   4.110   5.964   2.276 -0.3319  0.1243 -0.0764
  549MOL0     C72377   4.147   5.928   2.138 -0.7125 -0.0264  0.1217
  549MOL0     C72378   4.028   5.875   2.058 -0.4183  0.5721 -0.5262
  549MOL0     C72379   4.055   5.877   1.905  0.8751  0.7043  0.9236
  549MOL0    Cl72380   4.046   6.050   1.852 -0.1462 -0.0302  0.1826
  549MOL0     C72381   3.831   6.146   2.917 -0.5531 -0.2660 -0.9750
  549MOL0     C72382   3.813   6.216   3.036 -0.0834  0.2292 -0.9617
  549MOL0     O72383   3.845   6.033   3.421  0.4651  0.5095 -0.2220
  549MOL0     C72384   3.659   6.319   3.481  0.2709 -0.2627  0.5423
  549MOL0     C72385   3.544   6.363   3.551  0.5027  1.1272 -0.0634
  549MOL0     N72386   3.356   6.600   4.139 -0.0647  0.1524 -0.7511
  549MOL0     N72387   3.332   6.699   4.218 -1.0629 -0.4560 -0.2377
  549MOL0     C72388   3.589   7.975   4.191  0.0214 -0.4400  0.0041
  549MOL0     C72389   3.675   8.088   4.171  1.0480  1.0991  1.2740
  549MOL0     C72390   3.936   8.450   4.165  0.6381  0.1375 -0.6315
  549MOL0     C72391   3.964   8.533   4.061 -0.1672 -0.1787 -0.2051
  549MOL0     C72392   4.005   8.664   4.081 -0.3803  0.1164 -0.6012
  549MOL0     C72393   4.041   8.696   4.212 -0.4319 -0.1728 -0.4230
  549MOL0     O72394   4.096   8.813   4.260  0.8265  0.5218 -0.6459
  549MOL0     C72395   4.142   8.908   4.168  0.8343 -0.6966  0.4223
  549MOL0     C72396   4.207   9.023   4.239  0.5245  0.0997 -0.5821
  549MOL0     C72397   4.354   9.015   4.271  0.0844  0.1363  0.6630
  549MOL0     C72398   4.390   8.914   4.372 -0.3044  0.1081 -0.9506
  549MOL0     C72399   4.531   8.934   4.410  0.6287  0.2208 -0.0997
  549MOL0     C72400   4.637   8.952   4.458 -1.0015 -0.8416 -0.3897
  549MOL0     C72401   3.996   8.616   4.321  0.4785 -0.4829  0.1238
  549MOL0     C72402   3.938   8.494   4.299 -0.1120  0.1321 -0.0747
  549MOL0     H72403   3.874   8.071   4.442  0.9320 -1.7090 -0.3325
  549MOL0     H72404   3.739   7.859   4.474 -0.8414 -0.9728 -0.5492
  549MOL0     H72405   3.526   7.580   4.339 -1.7306 -1.0874 -3.1232
  549MOL0     H72406   3.677   7.659   4.256 -0.1505 -1.3192 -3.3691
  549MOL0     H72407   3.552   7.725   4.080  0.6622  1.4265  2.0705
  549MOL0     H72408   3.392   7.697   4.135  0.3338 -0.2630 -3.0836
  549MOL0     H72409   3.604   7.490   4.088 -0.8097 -0.3990 -0.0360
  549MOL0     H72410   3.449   7.514   3.990  0.1728 -2.6460 -0.7606
  549MOL0     H72411   3.486   7.378   4.262 -1.6100 -1.4414 -0.1668
  549MOL0     H72412   3.330   7.447   4.217 -0.1446  3.1605 -2.7541
  549MOL0     H72413   3.495   7.250   4.067 -0.3735 -0.9287  1.4864
  549MOL0     H72414   3.324   7.296   4.033 -0.8059 -0.2486  0.6178
  549MOL0     H72415   3.254   7.223   4.244  0.8612  1.6994 -0.9931
  549MOL0     H72416   3.412   7.151   4.283  0.8160 -1.0323 -1.0191
  549MOL0     H72417   3.225   7.081   4.043  0.1788 -0.9983 -0.8007
  549MOL0     H72418   3.381   7.003   4.063 -1.2529 -0.7501 -1.8275
  549MOL0     H72419   3.134   6.953   4.216  0.4037 -1.9522 -1.7011
  549MOL0     H72420   3.278   6.935   4.312  0.9884 -2.7395 -0.7611
  549MOL0     H72421   3.169   6.798   3.962 -2.6174 -0.6132  1.1847
  549MOL0     H72422   3.389   6.498   3.899  0.0593 -2.3724  0.0015
  549MOL0     H72423   3.273   6.601   3.822  2.2599  0.5504 -0.4584
  549MOL0     H72424   3.097   6.442   3.981  0.1013 -0.0179 -0.7473
  549MOL0     H72425   3.252   6.340   3.983 -1.4301 -1.2345 -0.5182
  549MOL0     H72426   3.062   6.267   3.831 -3.0640  2.2458 -0.7412
  549MOL0     H72427   3.109   6.414   3.741  0.2241  0.4307  0.7172
  549MOL0     H72428   3.212   6.183   3.661  1.2331  1.0842 -0.3342
  549MOL0     H72429   3.303   6.190   3.817  0.4475  0.8751  1.0284
  549MOL0     H72430   3.440   6.075   3.687 -0.0886 -0.3876 -0.1938
  549MOL0     H72431   3.611   5.991   3.554 -5.7523 -1.0093 -1.5559
  549MOL0     H72432   4.021   6.030   3.234  1.6366 -0.1228 -1.0812
  549MOL0     H72433   4.104   5.958   3.019  0.4153 -0.9976 -1.2575
  549MOL0     H72434   4.024   5.796   2.852 -2.5138 -1.4240 -0.9343
  549MOL0     H72435   4.155   5.901   2.791 -0.3092 -0.1765 -1.0225
  549MOL0     H72436   3.922   5.809   2.616 -0.5415  2.1812 -2.6032
  549MOL0     H72437   4.079   5.725   2.645  1.9407  0.5412  1.9064
  549MOL0     H72438   4.189   5.935   2.539  0.9164  1.2950 -3.4505
  549MOL0     H72439   4.013   5.993   2.517 -0.8319 -2.2088 -0.8473
  549MOL0     H72440   4.146   5.769   2.367  1.8919  0.2905  1.2292
  549MOL0     H72441   3.979   5.822   2.359 -0.6773  2.0359  1.7910
  549MOL0     H72442   4.189   6.025   2.322  0.0346  0.4098 -1.0616
  549MOL0     H72443   4.024   6.031   2.269  0.0965  0.7248  0.2423
  549MOL0     H72444   4.210   5.839   2.153 -1.7864 -1.0312 -1.0455
  549MOL0     H72445   4.194   6.012   2.086  2.5434 -2.5753 -1.4476
  549MOL0     H72446   4.010   5.775   2.100 -2.2023  1.7832  1.7929
  549MOL0     H72447   3.934   5.927   2.079  0.0335  0.3889  2.3337
  549MOL0     H72448   3.975   5.828   1.848  0.7494  3.8468 -1.8508
  549MOL0     H72449   4.154   5.839   1.878  1.8433  2.2049  2.2147
  549MOL0     H72450   3.770   6.164   2.829 -0.1090 -0.3785 -1.3098
  549MOL0     H72451   3.742   6.298   3.032 -1.0137 -0.5741 -1.4648
  549MOL0     H72452   3.706   6.395   3.418  0.0776  1.2926  2.1850
  549MOL0     H72453   3.514   6.468   3.548  0.1548  1.0170 -0.5317
  549MOL0     H72454   3.511   7.941   4.124 -2.6480  0.0055  2.7114
  549MOL0     H72455   3.654   8.132   4.075  0.9078 -1.3965  0.0628
  549MOL0     H72456   3.929   8.496   3.965  0.2995 -0.1015 -0.4108
  549MOL0     H72457   4.000   8.730   3.995 -2.2933  1.6440  0.6074
  549MOL0     H72458   4.062   8.945   4.103  2.3004 -0.6221 -1.4309
  549MOL0     H72459   4.216   8.859   4.103 -1.5259 -1.8514 -1.5800
  549MOL0     H72460   4.196   9.102   4.164  0.9038  0.2849 -0.4403
  549MOL0     H72461   4.157   9.059   4.329 -2.6344 -0.7832 -1.8488
  549MOL0     H72462   4.381   9.115   4.307 -3.7854  1.0820  1.3246
  549MOL0     H72463   4.393   8.979   4.175 -5.8250  0.2088 -2.1778
  549MOL0     H72464   4.328   8.939   4.458 -0.0554  2.4810 -1.4042
  549MOL0     H72465   4.373   8.808   4.352  2.2287 -0.7079  0.6986
  549MOL0     H72466   4.730   8.965   4.508 -0.2903  0.7984 -2.0263
  549MOL0     H72467   4.007   8.655   4.422  1.6228  2.6848 -1.0814
  549MOL0     H72468   3.908   8.426   4.379  0.4529 -1.9670 -1.5682
  550MOL0     O72469   2.946   4.557   7.984  0.0111 -0.3598  0.8581
  550MOL0     C72470   2.918   4.668   8.016 -0.2763  0.4984 -1.0127
  550MOL0     O72471   3.007   4.772   8.009  0.1183  0.7081 -0.5248
  550MOL0     C72472   3.137   4.732   7.995 -0.6385 -0.3649 -0.4715
  550MOL0     C72473   3.203   4.688   8.106  0.6505  0.0919  0.6515
  550MOL0     C72474   3.341   4.653   8.095  0.4553  0.4123  0.5084
  550MOL0     C72475   3.412   4.672   7.984  0.0248  0.3600  1.2840
  550MOL0     O72476   3.540   4.639   7.957 -0.2691 -0.0222 -0.1159
  550MOL0     C72477   3.561   4.506   8.001 -0.5098 -0.5184  0.0387
  550MOL0     C72478   3.691   4.460   7.946  0.0579  0.1144  0.0728
  550MOL0     C72479   3.746   4.345   8.022 -1.0352  0.2506 -0.4792
  550MOL0     C72480   3.817   4.379   8.155 -0.3873 -0.5472  0.7652
  550MOL0     C72481   3.816   4.256   8.244  0.7533  0.0933  0.3022
  550MOL0     C72482   3.922   4.274   8.360  0.1746  0.2240  0.6852
  550MOL0     C72483   3.876   4.359   8.483  0.9176 -0.6135  0.7443
  550MOL0     C72484   3.766   4.301   8.564  0.4101 -0.1950 -0.3442
  550MOL0     N72485   3.793   4.175   8.624  0.2901 -0.1667 -0.3626
  550MOL0     C72486   3.823   4.167   8.758 -0.0073 -0.0130 -0.0273
  550MOL0     C72487   3.856   4.040   8.780  0.2457  0.2603  0.0278
  550MOL0     C72488   3.929   3.966   8.891  0.4998 -0.0122  1.2607
  550MOL0     C72489   3.893   4.020   9.025  0.6311 -0.3877 -0.1849
  550MOL0     C72490   3.751   3.991   9.075  0.0368 -0.1481  0.2366
  550MOL0     C72491   3.742   4.011   9.226 -0.2098  0.3341 -0.7678
  550MOL0     O72492   3.616   4.064   9.273 -0.4916 -0.4551  0.6549
  550MOL0     C72493   3.568   4.186   9.240 -0.2389 -0.1054 -0.4548
  550MOL0     C72494   3.433   4.210   9.272  0.4643  0.4484  1.1057
  550MOL0     C72495   3.367   4.331   9.252 -0.1765  0.1815  0.8238
  550MOL0     C72496   3.442   4.427   9.178 -0.7456  0.4497 -0.8376
  550MOL0     C72497   3.375   4.556   9.135 -0.3779 -0.9495  0.3153
  550MOL0     O72498   3.238   4.563   9.136  0.1164 -0.7177 -0.6063
  550MOL0     C72499   3.168   4.663   9.069 -0.7771  0.6039 -0.9531
  550MOL0     C72500   3.058   4.632   8.993 -0.0182 -0.0185 -0.7827
  550MOL0     C72501   2.984   4.741   8.927 -0.1869  0.4883  0.5130
  550MOL0     C72502   3.028   4.873   8.932  1.1001 -0.9419  0.6613
  550MOL0     O72503   2.966   4.968   8.847  0.8587  0.1093 -0.0659
  550MOL0     C72504   2.929   5.104   8.899 -0.3319  0.0840 -0.1123
  550MOL0     C72505   2.779   5.094   8.931  0.4642 -0.0547 -0.6757
  550MOL0     C72506   2.739   5.231   8.988 -0.6082 -0.6749 -0.9697
  550MOL0     C72507   2.587   5.249   9.015 -1.2258  0.6895 -0.1125
  550MOL0     C72508   2.569   5.368   9.108  0.0577 -0.1712  0.1731
  550MOL0     C72509   2.424   5.394   9.143  0.1378 -0.4822  0.1711
  550MOL0     C72510   2.389   5.333   9.278 -0.6196 -0.3110 -1.4490
  550MOL0     C72511   2.398   5.183   9.282  0.3406 -0.2026  0.2235
  550MOL0    Cl72512   2.298   5.115   9.162  0.2559  0.0857  0.0183
  550MOL0     C72513   3.135   4.904   9.014  1.1121 -0.0282  0.3954
  550MOL0     C72514   3.209   4.806   9.079 -0.3064  0.5008 -0.1817
  550MOL0     O72515   3.453   4.646   9.092  0.3464 -0.7582  0.2816
  550MOL0     C72516   3.585   4.410   9.164 -0.2800 -0.1924  0.2804
  550MOL0     C72517   3.642   4.293   9.178 -0.6355  0.3973 -1.1996
  550MOL0     N72518   3.826   3.965   8.670  0.1908 -0.8805 -0.3574
  550MOL0     N72519   3.785   4.048   8.574  0.5794 -0.8721 -0.0417
  550MOL0     C72520   3.345   4.723   7.869  0.6908 -0.4806  0.4662
  550MOL0     C72521   3.202   4.753   7.874 -0.9516 -0.6407  0.5371
  550MOL0     C72522   2.790   4.702   8.066  0.3415 -0.0340 -0.2053
  550MOL0     C72523   2.692   4.603   8.086  0.5951 -0.6169  0.3271
  550MOL0     C72524   2.576   4.627   8.160  0.1015 -0.2931  0.5412
  550MOL0     C72525   2.540   4.754   8.196 -0.9206 -0.2443  1.1327
  550MOL0     O72526   2.414   4.770   8.244  0.0357  0.8715 -0.2610
  550MOL0     C72527   2.354   4.902   8.235 -0.4282  0.1584  0.0618
  550MOL0     C72528   2.208   4.900   8.253 -0.3864 -0.1109 -0.3893
  550MOL0     C72529   2.128   4.829   8.138 -0.4183  0.9855  0.3509
  550MOL0     C72530   1.972   4.831   8.157 -0.1960 -0.7779 -0.4712
  550MOL0     C72531   1.918   4.931   8.250 -0.4673 -0.9545 -0.6090
  550MOL0     C72532   1.876   5.016   8.328  0.2366  0.2133  0.2219
  550MOL0     C72533   2.634   4.863   8.170  0.6423  0.9195 -1.2052
  550MOL0     C72534   2.756   4.839   8.113 -0.6984 -0.4148  0.7798
  550MOL0     H72535   3.157   4.668   8.203 -2.5951  0.7740 -0.5979
  550MOL0     H72536   3.391   4.627   8.188  2.9583  1.8140 -0.3408
  550MOL0     H72537   3.485   4.436   7.964 -0.4957 -3.0747  4.1465
  550MOL0     H72538   3.573   4.515   8.110 -1.4732  1.9215 -0.0031
  550MOL0     H72539   3.765   4.539   7.932  0.3983 -0.4899 -1.8185
  550MOL0     H72540   3.670   4.434   7.842 -3.1620  4.2024 -0.6084
  550MOL0     H72541   3.822   4.298   7.958  0.8357  1.5329  0.7131
  550MOL0     H72542   3.668   4.269   8.035  1.7100 -2.4255  1.8931
  550MOL0     H72543   3.918   4.408   8.125 -0.8264  1.1394  0.8398
  550MOL0     H72544   3.772   4.461   8.212 -0.9341  0.4043 -0.9922
  550MOL0     H72545   3.855   4.176   8.181 -0.3391 -0.0805 -0.1751
  550MOL0     H72546   3.713   4.238   8.276  0.5207 -1.3300 -1.1292
  550MOL0     H72547   4.018   4.319   8.332 -0.1449  1.3545  1.3532
  550MOL0     H72548   3.936   4.169   8.387  1.8681 -0.0487 -1.0297
  550MOL0     H72549   3.956   4.372   8.556 -0.6364 -1.8765  2.7689
  550MOL0     H72550   3.842   4.459   8.453  2.3639  0.2937  1.9926
  550MOL0     H72551   3.673   4.299   8.508  1.3071 -1.5573 -1.8824
  550MOL0     H72552   3.748   4.377   8.641  2.0395  0.3221 -0.4191
  550MOL0     H72553   3.847   4.254   8.817 -1.4117  1.2919 -1.2954
  550MOL0     H72554   4.036   3.983   8.876  0.3198  1.3281  1.3761
  550MOL0     H72555   3.894   3.863   8.889 -0.1162  0.1507  2.5376
  550MOL0     H72556   3.911   4.128   9.031 -3.5274  0.4758 -0.3964
  550MOL0     H72557   3.962   3.965   9.089  0.0175 -0.4217  0.4581
  550MOL0     H72558   3.674   4.052   9.026 -2.4498  1.2819  5.1427
  550MOL0     H72559   3.729   3.888   9.049 -2.4127  0.3559 -0.0180
  550MOL0     H72560   3.826   4.070   9.264 -3.2644  2.7483  3.0003
  550MOL0     H72561   3.760   3.917   9.280 -3.2834  0.8113  1.3146
  550MOL0     H72562   3.380   4.122   9.308  0.0294  0.2797  0.0731
  550MOL0     H72563   3.263   4.341   9.281 -1.0528  1.9022 -2.4256
  550MOL0     H72564   3.027   4.528   8.995  0.1297 -0.1122  2.6222
  550MOL0     H72565   2.902   4.711   8.862  1.2178 -2.6791 -0.0022
  550MOL0     H72566   2.945   5.189   8.832  1.8909  0.4258  0.7632
  550MOL0     H72567   2.972   5.129   8.996 -0.1945 -0.4967 -0.0199
  550MOL0     H72568   2.757   5.006   8.992 -3.7824 -1.0868 -3.3274
  550MOL0     H72569   2.724   5.071   8.840 -0.1428 -1.1667 -0.0540
  550MOL0     H72570   2.768   5.317   8.927 -0.6577  1.6947  2.0862
  550MOL0     H72571   2.806   5.250   9.073  0.2261  0.9131 -1.9288
  550MOL0     H72572   2.541   5.268   8.917 -0.4423  0.2085 -0.5917
  550MOL0     H72573   2.537   5.160   9.055 -1.0639  1.4773  1.9300
  550MOL0     H72574   2.604   5.464   9.067  1.0846  0.8642  3.1645
  550MOL0     H72575   2.620   5.360   9.205 -0.4970 -0.7220  0.4289
  550MOL0     H72576   2.360   5.353   9.065  1.0056  0.6853 -1.1942
  550MOL0     H72577   2.405   5.501   9.144  0.6882 -0.3787  0.0268
  550MOL0     H72578   2.455   5.369   9.358 -2.4228  1.2521 -0.5747
  550MOL0     H72579   2.295   5.371   9.320  0.9563  2.6350 -0.2416
  550MOL0     H72580   2.360   5.144   9.377  2.2276 -1.0369  0.6891
  550MOL0     H72581   2.506   5.166   9.283  0.4701  0.4393 -0.8425
  550MOL0     H72582   3.172   5.006   9.019 -1.4671  0.9272  3.5071
  550MOL0     H72583   3.297   4.823   9.140 -0.6484  0.9646  0.1925
  550MOL0     H72584   3.632   4.506   9.147 -3.3053  1.1345 -1.4828
  550MOL0     H72585   3.748   4.282   9.157 -0.1798  1.4018  0.4217
  550MOL0     H72586   3.403   4.755   7.783  4.5338 -1.3506  2.5264
  550MOL0     H72587   3.157   4.788   7.781  0.6878 -1.3120 -0.5432
  550MOL0     H72588   2.696   4.495   8.076 -2.5230 -0.9245  1.3399
  550MOL0     H72589   2.513   4.540   8.174  1.0269 -0.7983  1.6707
  550MOL0     H72590   2.370   4.935   8.132 -1.3841 -1.1044 -0.5323
  550MOL0     H72591   2.418   4.953   8.307  0.6557 -2.7837  1.3497
  550MOL0     H72592   2.197   4.847   8.348  0.3931  1.5410  0.6577
  550MOL0     H72593   2.174   5.003   8.265  2.8160  1.1889 -1.4730
  550MOL0     H72594   2.156   4.724   8.138 -2.5752  0.2585 -3.1562
  550MOL0     H72595   2.161   4.868   8.041 -0.9089  0.8052  0.1125
  550MOL0     H72596   1.919   4.858   8.065 -0.6861 -1.6358 -0.4508
  550MOL0     H72597   1.934   4.732   8.182 -1.3437 -0.3589 -0.5238
  550MOL0     H72598   1.840   5.087   8.401 -0.0884 -0.2994  0.5680
  550MOL0     H72599   2.616   4.965   8.203 -0.6619  0.7498 -1.3135
  550MOL0     H72600   2.836   4.912   8.112 -0.6876 -0.4106 -1.0968
  551MOL0     O72601   4.284   2.750   0.778 -0.0274  0.2353  0.1127
  551MOL0     C72602   4.323   2.636   0.783  0.5060 -0.7409  0.0526
  551MOL0     O72603   4.434   2.587   0.715  0.1234 -0.3510  0.3685
  551MOL0     C72604   4.515   2.663   0.632  0.3254  0.7048 -1.0349
  551MOL0     C72605   4.465   2.726   0.522  1.1014 -0.0034  0.5228
  551MOL0     C72606   4.552   2.770   0.428 -0.2569 -0.2632 -0.4089
  551MOL0     C72607   4.689   2.763   0.443 -0.4294  0.2524  0.2656
  551MOL0     O72608   4.770   2.806   0.336  0.0819  0.6878 -0.6407
  551MOL0     C72609   4.766   2.952   0.322 -0.2816  0.2431 -0.6293
  551MOL0     C72610   4.892   2.996   0.249 -0.0410  0.3214 -0.0163
  551MOL0     C72611   4.874   3.141   0.212  0.4768  0.0969 -0.0371
  551MOL0     C72612   4.999   3.203   0.148  0.8886  0.1758 -0.1776
  551MOL0     C72613   4.963   3.334   0.080 -0.3839  0.5545 -0.7248
  551MOL0     C72614   4.928   3.325  -0.067  0.0728 -0.3070  0.0289
  551MOL0     C72615   4.950   3.455  -0.151 -0.5462 -0.0723  0.5954
  551MOL0     C72616   5.099   3.456  -0.209  0.3621 -0.0638  0.2846
  551MOL0     N72617   5.126   3.575  -0.291 -0.0088 -0.5146  0.3891
  551MOL0     C72618   5.192   3.677  -0.241 -0.9632  0.3581 -0.1491
  551MOL0     C72619   5.202   3.763  -0.346 -0.0768  0.5293  0.0596
  551MOL0     C72620   5.237   3.909  -0.360  0.0108  0.2876 -0.1904
  551MOL0     C72621   5.387   3.925  -0.327  0.6929 -0.7412  0.0462
  551MOL0     C72622   5.440   4.068  -0.342 -1.0274 -0.4586  0.7008
  551MOL0     C72623   5.594   4.076  -0.351  0.4081 -1.7198 -0.1516
  551MOL0     O72624   5.658   4.005  -0.237 -0.6311 -0.0526  0.5678
  551MOL0     C72625   5.796   3.997  -0.236 -1.0509 -0.1513 -0.6695
  551MOL0     C72626   5.851   3.928  -0.124  1.5047 -0.6977  0.8908
  551MOL0     C72627   5.993   3.916  -0.113  1.0090 -0.7040  0.1252
  551MOL0     C72628   6.077   3.962  -0.217  0.1813  0.6143  0.4977
  551MOL0     C72629   6.225   3.938  -0.217 -0.3982 -0.3802 -0.0805
  551MOL0     O72630   6.303   3.995  -0.317 -0.1051  0.8837  0.0733
  551MOL0     C72631   6.432   3.961  -0.293 -0.0527 -0.0543  1.1522
  551MOL0     C72632   6.516   4.049  -0.219  0.8074  0.2372  0.1313
  551MOL0     C72633   6.651   4.009  -0.195  0.1952 -0.0024 -0.1048
  551MOL0     C72634   6.704   3.896  -0.253 -0.1696  0.7158  0.1064
  551MOL0     O72635   6.839   3.866  -0.249 -0.0462 -0.4023  0.9684
  551MOL0     C72636   6.881   3.724  -0.227  0.4048  0.2495  0.5128
  551MOL0     C72637   7.016   3.722  -0.154 -0.2016 -0.1233  0.1427
  551MOL0     C72638   7.024   3.588  -0.084  0.0520 -0.3033 -0.0526
  551MOL0     C72639   7.166   3.555  -0.030  0.2863 -0.0212 -0.2447
  551MOL0     C72640   7.172   3.416   0.044 -0.5400  1.4529  0.1778
  551MOL0     C72641   7.195   3.308  -0.057  0.1964  0.3030  0.4911
  551MOL0     C72642   7.223   3.168   0.012  0.4449 -0.2252 -0.0068
  551MOL0     C72643   7.221   3.060  -0.092 -0.4863  0.6302 -0.5665
  551MOL0    Cl72644   7.282   2.918  -0.009 -0.4778 -0.2287 -0.1769
  551MOL0     C72645   6.613   3.806  -0.321  0.0751  0.5441  0.2976
  551MOL0     C72646   6.480   3.836  -0.342  0.5367  0.2509 -0.9374
  551MOL0     O72647   6.264   3.866  -0.116 -0.1468  0.1183 -0.1400
  551MOL0     C72648   6.026   4.023  -0.331  0.7133 -0.4422  0.3424
  551MOL0     C72649   5.881   4.036  -0.341 -0.5278 -1.0224 -0.2697
  551MOL0     N72650   5.149   3.701  -0.451  1.0881  0.0984 -0.1553
  551MOL0     N72651   5.097   3.592  -0.419  0.8147  0.1571 -0.6823
  551MOL0     C72652   4.742   2.710   0.563 -0.1883 -0.8529 -0.4416
  551MOL0     C72653   4.652   2.654   0.647 -0.5784  0.9139 -0.5645
  551MOL0     C72654   4.260   2.546   0.873  0.4572  0.9672 -0.3229
  551MOL0     C72655   4.131   2.586   0.938  0.1350  0.5860 -0.3090
  551MOL0     C72656   4.057   2.500   1.019  0.0991  0.2305 -0.3568
  551MOL0     C72657   4.105   2.369   1.041  1.0005 -0.2825  0.2697
  551MOL0     O72658   4.019   2.296   1.119 -0.2129 -0.5682 -0.8007
  551MOL0     C72659   4.059   2.269   1.257  0.0406 -0.0993 -0.1638
  551MOL0     C72660   3.942   2.206   1.324  0.4383 -0.6111  0.3768
  551MOL0     C72661   3.975   2.162   1.469 -0.3639  0.2905  0.9464
  551MOL0     C72662   3.866   2.115   1.556  1.5386  0.5856 -0.3765
  551MOL0     C72663   3.832   1.986   1.500  0.3766  0.8289  0.2100
  551MOL0     C72664   3.803   1.877   1.457 -1.1078  0.4726  0.2100
  551MOL0     C72665   4.225   2.331   0.990 -0.2803  0.0823  0.0820
  551MOL0     C72666   4.307   2.413   0.903  1.2578  0.0829  0.3206
  551MOL0     H72667   4.359   2.727   0.502  1.7025  1.7751 -3.7897
  551MOL0     H72668   4.520   2.794   0.327 -0.5518 -1.8646 -0.7169
  551MOL0     H72669   4.778   2.995   0.422  0.5644  2.6993 -1.7111
  551MOL0     H72670   4.674   2.984   0.272  0.4322 -1.8786 -3.5056
  551MOL0     H72671   4.883   2.947   0.152 -5.3017  2.8223 -1.1339
  551MOL0     H72672   4.981   2.988   0.312 -0.3157  1.4898  0.5480
  551MOL0     H72673   4.862   3.204   0.301 -1.6826  3.1729 -2.3341
  551MOL0     H72674   4.787   3.145   0.147 -0.4446  1.2293  1.2222
  551MOL0     H72675   5.071   3.238   0.222 -1.6659  1.1712  2.0406
  551MOL0     H72676   5.043   3.136   0.073 -1.4356  0.7808 -2.2194
  551MOL0     H72677   5.055   3.389   0.102  1.2036 -2.1449 -0.1012
  551MOL0     H72678   4.878   3.385   0.128 -0.3108  0.0716 -0.0557
  551MOL0     H72679   4.822   3.299  -0.076 -0.4032  1.9167 -1.9247
  551MOL0     H72680   4.988   3.241  -0.101  1.5730  0.5380  0.4621
  551MOL0     H72681   4.881   3.462  -0.237  0.2521  3.7434  0.0928
  551MOL0     H72682   4.950   3.540  -0.083  0.1584  0.7932 -0.4492
  551MOL0     H72683   5.120   3.366  -0.268 -0.0689  0.3635 -0.5365
  551MOL0     H72684   5.174   3.453  -0.129  0.1702  1.2317  0.5285
  551MOL0     H72685   5.224   3.688  -0.138  2.9481 -1.3639 -1.0154
  551MOL0     H72686   5.174   3.959  -0.285 -1.1987 -0.7519 -0.4824
  551MOL0     H72687   5.219   3.945  -0.461 -0.6885  2.6965  0.7165
  551MOL0     H72688   5.435   3.838  -0.374  1.0800 -2.1495  2.8664
  551MOL0     H72689   5.402   3.898  -0.222  3.3487 -2.3240 -0.6520
  551MOL0     H72690   5.398   4.099  -0.438  2.3119 -2.2381 -1.5484
  551MOL0     H72691   5.406   4.130  -0.259  1.0975  3.0036 -0.7570
  551MOL0     H72692   5.630   4.179  -0.358  2.4873 -2.4559 -5.0171
  551MOL0     H72693   5.621   4.032  -0.448  0.2281  0.3694 -1.2133
  551MOL0     H72694   5.792   3.882  -0.046 -1.7973  0.0671 -0.9707
  551MOL0     H72695   6.032   3.865  -0.025 -1.5523 -0.6620  1.3544
  551MOL0     H72696   6.472   4.145  -0.196  0.9010  1.3170 -3.5377
  551MOL0     H72697   6.720   4.081  -0.151 -0.9973  0.0568  1.8266
  551MOL0     H72698   6.904   3.677  -0.324  2.1415 -1.7745  1.8106
  551MOL0     H72699   6.803   3.671  -0.172  1.9412 -1.4560  1.1609
  551MOL0     H72700   7.024   3.795  -0.073 -0.3363 -0.3038  0.3200
  551MOL0     H72701   7.103   3.747  -0.214  1.9399 -0.4839  2.8821
  551MOL0     H72702   6.998   3.504  -0.148 -0.6579 -1.0852  1.2282
  551MOL0     H72703   6.946   3.593  -0.007 -0.8118  3.4385 -0.9568
  551MOL0     H72704   7.240   3.562  -0.110  3.5290 -0.0569  2.5492
  551MOL0     H72705   7.193   3.630   0.044  0.2077 -0.9710  0.7869
  551MOL0     H72706   7.075   3.393   0.087 -1.0603 -1.5918 -2.2764
  551MOL0     H72707   7.253   3.401   0.116  1.9029 -3.2126 -3.0206
  551MOL0     H72708   7.278   3.342  -0.119 -0.6091  2.1630  0.3674
  551MOL0     H72709   7.104   3.309  -0.118  1.5869  0.3787 -1.7184
  551MOL0     H72710   7.318   3.176   0.065  1.0575 -0.8591 -0.9699
  551MOL0     H72711   7.143   3.150   0.084  0.9046  0.8877  0.8084
  551MOL0     H72712   7.288   3.086  -0.174  2.7841 -1.1802  1.3180
  551MOL0     H72713   7.120   3.044  -0.132 -0.1790 -2.6593 -0.2270
  551MOL0     H72714   6.651   3.722  -0.377 -1.2998 -0.6497  1.1005
  551MOL0     H72715   6.421   3.760  -0.393 -2.2060  0.7758  1.1723
  551MOL0     H72716   6.093   4.050  -0.411 -0.7369  2.1527 -0.0877
  551MOL0     H72717   5.833   4.094  -0.420 -3.3489 -1.1255  1.2399
  551MOL0     H72718   4.849   2.714   0.583 -0.3775 -0.4751  0.5522
  551MOL0     H72719   4.697   2.604   0.733 -0.2064  1.2216 -0.5720
  551MOL0     H72720   4.094   2.687   0.923  1.3099  0.7259 -2.5858
  551MOL0     H72721   3.966   2.533   1.068 -0.1069 -1.1660  0.2661
  551MOL0     H72722   4.093   2.363   1.301 -0.2452 -0.5122  0.9756
  551MOL0     H72723   4.147   2.203   1.252 -0.2292 -0.4310 -0.5965
  551MOL0     H72724   3.860   2.278   1.331  0.7746 -0.0792 -0.8985
  551MOL0     H72725   3.907   2.122   1.264  2.7736 -3.4363  2.7010
  551MOL0     H72726   4.025   2.249   1.512  1.0722  1.9131 -3.4393
  551MOL0     H72727   4.050   2.082   1.471  0.3216  0.8408 -0.6969
  551MOL0     H72728   3.897   2.115   1.661 -0.5430  4.2218  0.3994
  551MOL0     H72729   3.779   2.181   1.553  1.5975  1.0042  3.0514
  551MOL0     H72730   3.773   1.779   1.424 -0.5866 -0.2822  1.9131
  551MOL0     H72731   4.264   2.230   0.995  2.0109  0.7524 -2.1611
  551MOL0     H72732   4.391   2.364   0.855 -0.1049  0.7907 -3.1386
  552MOL0     O72733   9.170  11.354   2.235 -1.1153 -0.8104  0.4484
  552MOL0     C72734   9.137  11.281   2.140  0.9327  0.1237 -1.1526
  552MOL0     O72735   9.014  11.278   2.084  0.7222  0.2480 -0.9620
  552MOL0     C72736   8.910  11.298   2.178 -0.2030 -1.4617  0.1438
  552MOL0     C72737   8.871  11.201   2.264 -0.0346 -0.9221 -0.3346
  552MOL0     C72738   8.769  11.214   2.355 -0.2069  0.8419 -0.3261
  552MOL0     C72739   8.702  11.325   2.365  1.0413  0.1585 -0.1087
  552MOL0     O72740   8.608  11.335   2.473  0.0500 -0.8266  0.0917
  552MOL0     C72741   8.494  11.425   2.465 -0.7383 -0.9312  0.3743
  552MOL0     C72742   8.403  11.419   2.582  0.4409 -0.6750  0.1700
  552MOL0     C72743   8.469  11.446   2.711  0.3983 -0.1044  0.1353
  552MOL0     C72744   8.369  11.456   2.824 -0.4535  0.2962 -0.2763
  552MOL0     C72745   8.426  11.513   2.953 -0.3808  0.4728  0.6675
  552MOL0     C72746   8.322  11.519   3.054  0.2590 -1.0076 -0.0517
  552MOL0     C72747   8.356  11.606   3.177  1.7794 -0.2693 -0.0492
  552MOL0     C72748   8.215  11.653   3.226 -0.0030 -0.1948 -0.2890
  552MOL0     N72749   8.143  11.753   3.135 -0.5064 -0.3369  0.3390
  552MOL0     C72750   8.197  11.877   3.116 -0.4097  0.3461  0.0624
  552MOL0     C72751   8.188  11.910   2.985  0.1617  0.3840  0.9104
  552MOL0     C72752   8.260  12.026   2.923 -0.6178  0.7970 -0.1793
  552MOL0     C72753   8.325  11.992   2.791 -0.3505 -0.2544 -0.4315
  552MOL0     C72754   8.457  11.903   2.800  0.7353  0.0094 -0.1011
  552MOL0     C72755   8.524  11.880   2.663 -0.5923 -0.0273 -0.0960
  552MOL0     O72756   8.618  11.991   2.620  0.2317  0.1476  0.5273
  552MOL0     C72757   8.742  11.995   2.672 -0.4408 -0.0756 -0.9807
  552MOL0     C72758   8.824  12.094   2.612  0.0733 -0.4074 -0.2652
  552MOL0     C72759   8.957  12.097   2.655  0.3194  0.3142 -0.2758
  552MOL0     C72760   9.015  11.992   2.744 -0.5017  0.1624 -0.7973
  552MOL0     C72761   9.163  11.972   2.768  0.1102 -0.5560 -0.2013
  552MOL0     O72762   9.189  11.856   2.839 -0.3619  0.3326  0.4999
  552MOL0     C72763   9.318  11.846   2.895  0.6307  0.4127  0.0452
  552MOL0     C72764   9.380  11.722   2.899 -0.7478 -0.5393  0.6263
  552MOL0     C72765   9.496  11.709   2.977  0.7751 -0.1230  0.3948
  552MOL0     C72766   9.559  11.821   3.037 -0.2618  0.0734 -0.2178
  552MOL0     O72767   9.672  11.779   3.108 -0.1363  0.5136 -0.2679
  552MOL0     C72768   9.743  11.884   3.173 -0.2532 -0.1596  0.5192
  552MOL0     C72769   9.869  11.840   3.240 -0.5851  0.2248 -0.5450
  552MOL0     C72770   9.859  11.726   3.340 -0.5834 -0.1700 -0.2528
  552MOL0     C72771   9.751  11.733   3.443  0.1519  0.0646  0.1369
  552MOL0     C72772   9.761  11.842   3.554  1.5741  1.0606  0.0307
  552MOL0     C72773   9.866  11.828   3.656  0.6124 -0.0313  0.0464
  552MOL0     C72774   9.862  11.699   3.742 -0.2563  0.5993  0.2208
  552MOL0     C72775   9.844  11.729   3.893  1.2562 -0.7117 -0.7604
  552MOL0    Cl72776   9.677  11.752   3.966  0.0017 -0.1065 -0.2456
  552MOL0     C72777   9.490  11.948   3.033 -0.8217 -0.6936 -1.3471
  552MOL0     C72778   9.369  11.956   2.967 -1.2204 -0.4173 -0.4606
  552MOL0     O72779   9.244  12.058   2.746  0.7580 -0.5464 -0.5117
  552MOL0     C72780   8.925  11.907   2.807  0.6543 -0.2271 -1.3162
  552MOL0     C72781   8.790  11.909   2.768  0.0117 -0.3982  1.1561
  552MOL0     N72782   8.092  11.826   2.944 -0.8378  0.0857  0.3570
  552MOL0     N72783   8.065  11.729   3.032 -0.0766  0.0331 -1.0552
  552MOL0     C72784   8.726  11.428   2.274 -0.5351  0.0578  0.2848
  552MOL0     C72785   8.833  11.413   2.181 -0.5041  0.3699 -0.1780
  552MOL0     C72786   9.237  11.199   2.074  0.3105  0.1193  0.3147
  552MOL0     C72787   9.381  11.219   2.087  0.1045  0.3854 -0.1526
  552MOL0     C72788   9.464  11.132   2.021  0.5272 -0.1583 -0.2684
  552MOL0     C72789   9.420  11.029   1.939  0.9039 -0.2427  0.0909
  552MOL0     O72790   9.489  10.953   1.856  0.5787 -0.0123  0.0144
  552MOL0     C72791   9.629  10.981   1.841  0.6750  0.6533 -0.6205
  552MOL0     C72792   9.689  10.883   1.747  0.8050 -0.3869 -0.0719
  552MOL0     C72793   9.655  10.917   1.593 -0.2738 -0.2037 -0.6345
  552MOL0     C72794   9.691  10.800   1.497 -0.1754  0.1571  0.1445
  552MOL0     C72795   9.612  10.797   1.373 -0.4918  0.1137 -0.8314
  552MOL0     C72796   9.533  10.811   1.282 -0.6231 -1.5507 -0.4956
  552MOL0     C72797   9.282  11.003   1.939 -0.8244 -0.4535 -0.1309
  552MOL0     C72798   9.190  11.084   2.003 -0.1585  1.3235 -0.1251
  552MOL0     H72799   8.927  11.108   2.257  0.7354 -0.4629 -0.4487
  552MOL0     H72800   8.760  11.133   2.427  2.1179  0.8773  0.0982
  552MOL0     H72801   8.429  11.409   2.378  0.5614 -1.4976 -0.5138
  552MOL0     H72802   8.538  11.524   2.450  2.5022 -2.0849  1.5243
  552MOL0     H72803   8.345  11.327   2.575 -4.4805  2.1884 -1.4747
  552MOL0     H72804   8.332  11.500   2.566  0.7873 -0.4875 -0.4203
  552MOL0     H72805   8.526  11.538   2.700  0.0339  0.0894 -0.1568
  552MOL0     H72806   8.546  11.376   2.746 -1.2901 -1.7118  0.8101
  552MOL0     H72807   8.284  11.519   2.797 -1.6005 -1.2956 -0.4814
  552MOL0     H72808   8.341  11.353   2.844  1.6398 -0.6699 -1.9189
  552MOL0     H72809   8.471  11.611   2.937  0.4743 -0.2707 -2.0231
  552MOL0     H72810   8.501  11.445   2.993 -1.6230 -2.2347 -1.2876
  552MOL0     H72811   8.289  11.419   3.084 -2.9823 -0.3309 -0.9984
  552MOL0     H72812   8.233  11.558   3.004  0.5256 -0.6104 -0.2217
  552MOL0     H72813   8.410  11.553   3.255 -1.0308 -0.8502  1.6604
  552MOL0     H72814   8.413  11.697   3.160  0.3369  0.6695 -0.0813
  552MOL0     H72815   8.227  11.707   3.320  0.2189  0.1611 -0.5206
  552MOL0     H72816   8.144  11.575   3.255 -0.4035  0.7102  1.2940
  552MOL0     H72817   8.257  11.931   3.189 -0.2495 -1.9091  1.7034
  552MOL0     H72818   8.338  12.052   2.995 -1.0022 -0.5256  0.7545
  552MOL0     H72819   8.193  12.110   2.904 -2.3604 -0.3583  0.6476
  552MOL0     H72820   8.350  12.087   2.742 -0.5448  0.2426  0.4154
  552MOL0     H72821   8.266  11.936   2.718  0.9819 -1.0391 -0.9604
  552MOL0     H72822   8.523  11.953   2.871 -1.3546  5.7646 -1.6218
  552MOL0     H72823   8.421  11.805   2.832  2.6205 -1.2044 -1.5517
  552MOL0     H72824   8.457  11.862   2.578 -2.1658 -2.0979  1.4622
  552MOL0     H72825   8.579  11.785   2.658  1.0740  0.9765 -1.5632
  552MOL0     H72826   8.784  12.161   2.536  0.1398 -1.6557 -1.4468
  552MOL0     H72827   9.017  12.181   2.621  0.1495  0.8933  0.7936
  552MOL0     H72828   9.332  11.639   2.847 -1.6198  1.8076 -2.6684
  552MOL0     H72829   9.528  11.605   2.978  1.0484 -0.0459  0.0537
  552MOL0     H72830   9.675  11.917   3.252 -2.7908 -0.5048 -1.3847
  552MOL0     H72831   9.769  11.964   3.104  0.7518  1.0944  2.2878
  552MOL0     H72832   9.916  11.920   3.298 -1.4777 -0.5251  1.2947
  552MOL0     H72833   9.945  11.813   3.167  0.3401 -0.1605  0.5203
  552MOL0     H72834   9.954  11.715   3.392 -0.6938 -0.7584 -0.1762
  552MOL0     H72835   9.854  11.628   3.291  1.1470 -0.4971  0.1527
  552MOL0     H72836   9.651  11.730   3.397 -1.7699 -1.2660  3.9416
  552MOL0     H72837   9.749  11.636   3.494 -2.0724  0.3667  0.7335
  552MOL0     H72838   9.666  11.850   3.608  2.2546  1.7814  1.1626
  552MOL0     H72839   9.778  11.938   3.504 -1.0779  1.0155 -1.1217
  552MOL0     H72840   9.851  11.916   3.720  0.1008  0.9480 -1.3610
  552MOL0     H72841   9.965  11.849   3.615 -0.0366 -0.8680 -2.0933
  552MOL0     H72842   9.782  11.637   3.701  0.2514  0.3575 -0.4331
  552MOL0     H72843   9.950  11.635   3.731 -2.1253 -1.8081 -2.1717
  552MOL0     H72844   9.908  11.806   3.938 -1.2687 -0.2033  2.3440
  552MOL0     H72845   9.874  11.637   3.942  2.8082 -0.9164 -2.0062
  552MOL0     H72846   9.524  12.033   3.091 -4.4058  0.6306 -0.9654
  552MOL0     H72847   9.313  12.048   2.976 -1.1634 -0.5531  2.3168
  552MOL0     H72848   8.955  11.836   2.883 -0.9778 -1.6474 -1.9203
  552MOL0     H72849   8.719  11.834   2.802 -0.5959  0.3035  1.4551
  552MOL0     H72850   8.665  11.518   2.271  1.2251  1.2770 -0.5308
  552MOL0     H72851   8.859  11.498   2.119 -1.6507  0.1206 -1.0335
  552MOL0     H72852   9.420  11.300   2.148 -1.2924 -0.9475  2.7069
  552MOL0     H72853   9.568  11.164   2.022  1.4058 -2.7672 -0.3829
  552MOL0     H72854   9.679  10.963   1.936  0.8419  0.5171 -0.7332
  552MOL0     H72855   9.660  11.083   1.817  2.3997  0.5825  1.0466
  552MOL0     H72856   9.797  10.883   1.765  0.5834  0.8065  1.4415
  552MOL0     H72857   9.653  10.781   1.762  1.2454 -0.6268 -0.6041
  552MOL0     H72858   9.718  11.005   1.576 -0.7715  0.3363  0.2311
  552MOL0     H72859   9.551  10.950   1.587 -0.0892  0.2391 -1.6907
  552MOL0     H72860   9.794  10.826   1.469 -0.1224  2.6875  2.2432
  552MOL0     H72861   9.704  10.699   1.536  0.9776 -0.8306 -2.5211
  552MOL0     H72862   9.457  10.833   1.210  0.5323  2.1738 -0.7919
  552MOL0     H72863   9.265  10.916   1.876  4.5986 -2.0270  0.0241
  552MOL0     H72864   9.083  11.065   2.007 -0.9764  4.1979 -3.2936
  553MOL0     O72865   2.199   0.236   4.636 -0.5467  0.3760 -0.2037
  553MOL0     C72866   2.144   0.339   4.683 -0.5291 -0.5463 -0.4769
  553MOL0     O72867   2.159   0.470   4.644  0.4363 -0.1141  0.5354
  553MOL0     C72868   2.232   0.487   4.531 -0.9081  1.0863  0.4859
  553MOL0     C72869   2.172   0.499   4.407 -0.8101 -0.3422  0.7235
  553MOL0     C72870   2.248   0.489   4.291 -0.1910 -0.4402 -0.7999
  553MOL0     C72871   2.390   0.496   4.287  0.1245  0.0188  0.1895
  553MOL0     O72872   2.453   0.490   4.167  0.2484  0.4123  0.7649
  553MOL0     C72873   2.401   0.576   4.059 -0.4596  0.6484  0.7193
  553MOL0     C72874   2.523   0.580   3.963  0.5992  0.3973 -0.5802
  553MOL0     C72875   2.624   0.688   3.984  1.1037 -0.1379  1.2103
  553MOL0     C72876   2.586   0.833   3.975  0.4249  0.1231  0.8327
  553MOL0     C72877   2.714   0.929   3.975  0.4269  0.1496 -0.2625
  553MOL0     C72878   2.709   1.040   4.069 -0.1514  0.9711 -0.5722
  553MOL0     C72879   2.838   1.138   4.071  0.6024 -0.5580  0.0152
  553MOL0     C72880   2.823   1.267   4.155 -0.0649  0.0482 -0.3257
  553MOL0     N72881   2.866   1.238   4.295  0.3693 -1.0293  0.0695
  553MOL0     C72882   2.785   1.186   4.396 -0.5551  0.6449 -0.1338
  553MOL0     C72883   2.861   1.193   4.504 -0.6211  1.0533 -0.1411
  553MOL0     C72884   2.833   1.142   4.650 -0.9582  0.5572  1.1417
  553MOL0     C72885   2.696   1.081   4.671  0.0751 -0.4041  1.1062
  553MOL0     C72886   2.680   1.030   4.818  0.3739 -0.1317 -0.6245
  553MOL0     C72887   2.536   1.041   4.861  0.9074  0.7484 -0.1229
  553MOL0     O72888   2.467   0.932   4.810 -0.1938 -0.2021 -0.1545
  553MOL0     C72889   2.328   0.936   4.817  0.1518 -0.0669  1.0098
  553MOL0     C72890   2.260   0.842   4.732  0.3157  0.3628 -0.5594
  553MOL0     C72891   2.121   0.835   4.728 -0.1486 -0.4421  0.0464
  553MOL0     C72892   2.044   0.920   4.805  0.6061 -0.2897 -0.3398
  553MOL0     C72893   1.901   0.904   4.825  0.2766 -0.0043  0.2582
  553MOL0     O72894   1.856   0.781   4.795 -0.6361 -0.5233 -0.7975
  553MOL0     C72895   1.722   0.769   4.767  0.3408  0.0843 -0.4350
  553MOL0     C72896   1.633   0.688   4.841 -0.4324 -1.1359 -0.0830
  553MOL0     C72897   1.493   0.688   4.809 -0.6215  0.7198  0.6252
  553MOL0     C72898   1.445   0.762   4.708 -0.0405  0.3145  0.0205
  553MOL0     O72899   1.306   0.768   4.683  0.0266  0.3109 -1.1482
  553MOL0     C72900   1.263   0.729   4.543  0.3427 -0.3109  0.5145
  553MOL0     C72901   1.132   0.799   4.504 -0.6799 -0.0558  0.0942
  553MOL0     C72902   1.151   0.945   4.455 -1.3051  0.3091 -0.5138
  553MOL0     C72903   1.019   0.996   4.408  0.2953 -0.6827 -0.1325
  553MOL0     C72904   0.995   1.141   4.380  0.0958 -0.4799 -0.2801
  553MOL0     C72905   1.091   1.224   4.301 -0.3118 -0.4943 -0.0576
  553MOL0     C72906   1.036   1.360   4.249 -0.0569 -0.5248  0.2431
  553MOL0     C72907   1.028   1.464   4.360 -0.0906  0.1779  1.3002
  553MOL0    Cl72908   1.198   1.513   4.410  0.1434 -0.0579  0.1632
  553MOL0     C72909   1.535   0.836   4.631  0.3757 -0.4484 -0.5831
  553MOL0     C72910   1.672   0.841   4.651 -0.1124  0.4772 -0.7194
  553MOL0     O72911   1.835   0.994   4.877  0.1900 -0.3814  0.0243
  553MOL0     C72912   2.112   1.022   4.876  0.2886  0.2086  0.0817
  553MOL0     C72913   2.251   1.029   4.893  0.1256  0.2531 -0.2875
  553MOL0     N72914   2.988   1.242   4.462  0.1318 -0.0545  0.0393
  553MOL0     N72915   2.988   1.263   4.338 -0.5627  0.1789  0.2703
  553MOL0     C72916   2.452   0.485   4.420 -0.1107 -0.2671 -0.8821
  553MOL0     C72917   2.374   0.472   4.540  0.4342  0.2875  0.2251
  553MOL0     C72918   2.048   0.310   4.792 -0.5079  0.0321  0.8822
  553MOL0     C72919   1.996   0.180   4.818  0.0334  0.5681 -0.7950
  553MOL0     C72920   1.925   0.159   4.940 -0.3211  0.4763 -0.2228
  553MOL0     C72921   1.879   0.269   5.006 -0.5304  0.0172 -1.4724
  553MOL0     O72922   1.807   0.261   5.127 -0.5343 -0.2201  0.6485
  553MOL0     C72923   1.784   0.136   5.181  0.4044  0.5711 -1.3322
  553MOL0     C72924   1.875   0.063   5.276 -0.2453 -0.3497  0.3887
  553MOL0     C72925   1.937   0.152   5.387 -0.1119  0.5783 -0.5917
  553MOL0     C72926   1.839   0.193   5.492  1.3027  0.0594 -0.5576
  553MOL0     C72927   1.894   0.287   5.589  0.4391 -0.7318  0.7135
  553MOL0     C72928   1.947   0.361   5.665 -0.4971 -0.2014 -0.2827
  553MOL0     C72929   1.917   0.392   4.978  1.0731  0.1335  0.0285
  553MOL0     C72930   2.004   0.418   4.870 -0.4457  0.5535  0.3861
  553MOL0     H72931   2.064   0.506   4.407 -0.7194  3.5685  2.3599
  553MOL0     H72932   2.193   0.484   4.198 -0.2484 -2.1547 -0.7133
  553MOL0     H72933   2.364   0.673   4.092  0.7096  0.1648  3.6688
  553MOL0     H72934   2.320   0.521   4.009  0.2757  0.6316 -0.4980
  553MOL0     H72935   2.485   0.578   3.860 -0.8906 -3.4149 -0.1414
  553MOL0     H72936   2.579   0.488   3.983  0.1000  0.4963  1.5618
  553MOL0     H72937   2.692   0.676   3.899 -0.4999 -1.2121  0.0113
  553MOL0     H72938   2.667   0.680   4.084  2.2614 -1.3007  0.6434
  553MOL0     H72939   2.551   0.865   3.877 -1.1171  0.7500  1.5669
  553MOL0     H72940   2.511   0.851   4.052  0.9856  0.9155  1.2110
  553MOL0     H72941   2.733   0.978   3.879  2.6628  0.8073  0.4494
  553MOL0     H72942   2.801   0.870   4.005 -0.7627 -1.6457 -0.1961
  553MOL0     H72943   2.709   1.000   4.171 -1.0701  1.7819 -0.2420
  553MOL0     H72944   2.622   1.104   4.055 -0.4941  0.6516  0.0556
  553MOL0     H72945   2.926   1.079   4.097 -0.0334 -1.1984  0.7974
  553MOL0     H72946   2.847   1.163   3.965 -4.3419  0.8796 -0.3535
  553MOL0     H72947   2.724   1.313   4.145  0.3773  0.9742 -0.6066
  553MOL0     H72948   2.893   1.338   4.108 -2.1082  0.2298 -3.4028
  553MOL0     H72949   2.679   1.164   4.394  0.0666 -3.3569  1.3204
  553MOL0     H72950   2.848   1.222   4.722  0.4701  1.0325  0.3574
  553MOL0     H72951   2.917   1.072   4.659 -0.1855  1.3380  0.2769
  553MOL0     H72952   2.680   1.003   4.597 -1.5178  0.1775  0.8035
  553MOL0     H72953   2.624   1.161   4.652  1.1845  0.2646 -0.4840
  553MOL0     H72954   2.719   0.928   4.806  3.8102  1.2429 -2.4813
  553MOL0     H72955   2.735   1.090   4.890 -3.6806  1.6978  1.2498
  553MOL0     H72956   2.491   1.134   4.823  1.9536  0.3140 -2.5587
  553MOL0     H72957   2.530   1.045   4.970 -1.3124  0.6361 -0.1948
  553MOL0     H72958   2.311   0.768   4.671 -0.9085 -0.5506 -0.4980
  553MOL0     H72959   2.076   0.759   4.665  1.2081  1.0657 -2.9785
  553MOL0     H72960   1.664   0.630   4.927 -0.1084  2.0970  2.1579
  553MOL0     H72961   1.422   0.623   4.860 -1.7762  0.3474 -1.3437
  553MOL0     H72962   1.233   0.624   4.554 -1.8805  0.4568  2.9804
  553MOL0     H72963   1.332   0.742   4.460 -1.3100  0.3718 -0.8062
  553MOL0     H72964   1.067   0.818   4.590  0.3481  2.3596  0.3992
  553MOL0     H72965   1.076   0.741   4.430 -1.0710  1.0381 -0.4813
  553MOL0     H72966   1.219   0.949   4.368 -2.4829  0.5491 -1.4478
  553MOL0     H72967   1.198   0.988   4.544  0.9564 -2.1866 -0.3731
  553MOL0     H72968   0.996   0.963   4.306  1.6606  0.3489 -0.7894
  553MOL0     H72969   0.934   0.961   4.469 -0.0066 -3.4642 -1.9398
  553MOL0     H72970   0.984   1.197   4.474  1.1157 -0.8081  0.0523
  553MOL0     H72971   0.898   1.148   4.330 -1.2193 -3.6503  1.5070
  553MOL0     H72972   1.118   1.151   4.224 -0.2369 -0.6172  0.0844
  553MOL0     H72973   1.172   1.244   4.372 -1.6763  2.3013  0.8740
  553MOL0     H72974   1.094   1.407   4.170 -0.2992 -0.4667  0.0988
  553MOL0     H72975   0.938   1.350   4.201 -0.5128 -0.1325  1.0605
  553MOL0     H72976   0.963   1.434   4.443  0.5851 -0.1564  1.7157
  553MOL0     H72977   0.975   1.544   4.308  0.4627 -0.0412  0.3687
  553MOL0     H72978   1.505   0.888   4.540  1.7739 -0.5490 -1.1395
  553MOL0     H72979   1.724   0.908   4.583 -0.9116  1.5842 -0.2642
  553MOL0     H72980   2.051   1.095   4.929 -0.2249 -1.0597  1.2948
  553MOL0     H72981   2.295   1.109   4.951  1.2521 -0.1502 -0.5477
  553MOL0     H72982   2.560   0.479   4.428 -0.0691  0.6928 -0.6463
  553MOL0     H72983   2.429   0.459   4.633  2.7807  2.9183 -0.6488
  553MOL0     H72984   2.021   0.093   4.758 -3.4541 -0.3650 -1.0708
  553MOL0     H72985   1.893   0.057   4.957 -1.3659  0.5963 -1.2725
  553MOL0     H72986   1.746   0.064   5.107 -0.5182  0.2437 -0.5611
  553MOL0     H72987   1.693   0.153   5.240 -1.7056 -2.3930 -3.4184
  553MOL0     H72988   1.825  -0.020   5.328 -1.8150  1.1042  1.3066
  553MOL0     H72989   1.957   0.023   5.216  1.0521  0.3643  1.6153
  553MOL0     H72990   1.985   0.243   5.349  3.4133 -1.1004 -0.6018
  553MOL0     H72991   2.022   0.097   5.428 -0.6811  1.2830  1.6634
  553MOL0     H72992   1.752   0.242   5.446  1.6993  0.3724 -0.9839
  553MOL0     H72993   1.798   0.105   5.543  1.2457 -0.7124 -1.9075
  553MOL0     H72994   2.006   0.433   5.719 -1.4354  0.5141 -0.1749
  553MOL0     H72995   1.877   0.472   5.041 -1.8611 -1.5027  0.4085
  553MOL0     H72996   2.042   0.516   4.843  1.1787 -0.7797 -2.6774
  554MOL0     O72997   8.991   8.610   6.926  0.5101  0.1311 -0.1539
  554MOL0     C72998   9.006   8.552   7.037  0.6615  0.2109  0.7014
  554MOL0     O72999   8.914   8.463   7.091 -0.1173  0.1955  0.0118
  554MOL0     C73000   8.810   8.427   7.010 -0.8875 -0.2863  0.5260
  554MOL0     C73001   8.722   8.528   6.952 -0.2461  0.3835 -1.6123
  554MOL0     C73002   8.619   8.490   6.875  0.5941  0.0051 -0.6010
  554MOL0     C73003   8.595   8.352   6.864  0.1370 -0.2205  0.4935
  554MOL0     O73004   8.483   8.321   6.783 -0.1665 -0.1250 -1.6174
  554MOL0     C73005   8.521   8.254   6.655  0.0242 -0.4435 -0.0545
  554MOL0     C73006   8.392   8.244   6.576 -0.9840  0.7297 -0.1877
  554MOL0     C73007   8.375   8.114   6.501 -0.3415 -0.1875  0.4164
  554MOL0     C73008   8.296   8.010   6.583  0.1114 -0.0125 -0.2666
  554MOL0     C73009   8.153   8.053   6.584 -0.6766 -0.2722 -0.4416
  554MOL0     C73010   8.072   7.948   6.649 -0.1690  0.4730  0.3447
  554MOL0     C73011   7.942   8.002   6.701 -0.2140  0.5638 -0.2957
  554MOL0     C73012   7.937   8.111   6.813  0.3574 -0.4120  0.8432
  554MOL0     N73013   8.035   8.095   6.916  0.4493  0.3369 -0.3738
  554MOL0     C73014   8.137   8.174   6.937 -0.6938 -0.5356  0.1311
  554MOL0     C73015   8.229   8.110   7.017  0.2901  0.7162  0.6846
  554MOL0     C73016   8.366   8.150   7.063 -0.3840  0.2266  0.0819
  554MOL0     C73017   8.473   8.038   7.083 -0.1190 -0.8667 -0.0119
  554MOL0     C73018   8.557   8.103   7.200  0.5260 -0.2361 -0.2270
  554MOL0     C73019   8.674   8.021   7.268 -0.0175  0.4559  0.3667
  554MOL0     O73020   8.775   8.018   7.166  0.3484 -0.1821  0.6526
  554MOL0     C73021   8.900   8.027   7.205 -0.4065  0.5196 -0.9894
  554MOL0     C73022   8.963   8.137   7.270  0.5612  0.2390 -0.3260
  554MOL0     C73023   9.091   8.131   7.318  0.3410  0.0225 -0.0017
  554MOL0     C73024   9.169   8.026   7.291  0.1814 -0.3700 -0.4145
  554MOL0     C73025   9.306   8.017   7.344 -0.3093 -0.3747  0.7094
  554MOL0     O73026   9.353   8.137   7.398 -0.2180  0.9657 -0.8890
  554MOL0     C73027   9.469   8.138   7.476 -0.5676 -0.3016  1.0541
  554MOL0     C73028   9.544   8.260   7.489  0.5600  1.1595  0.2501
  554MOL0     C73029   9.676   8.257   7.546  0.0574 -1.4531 -1.0643
  554MOL0     C73030   9.722   8.143   7.617 -0.0068 -0.4920 -0.1142
  554MOL0     O73031   9.857   8.163   7.675  0.0481  0.1259  0.2417
  554MOL0     C73032   9.906   8.058   7.762  0.3303 -0.4594 -1.1395
  554MOL0     C73033  10.057   8.088   7.801  0.0553 -0.0099  0.3587
  554MOL0     C73034  10.109   7.965   7.881 -1.0239  0.6454 -0.6625
  554MOL0     C73035  10.029   7.915   8.008  0.2206  0.2001 -0.0177
  554MOL0     C73036  10.123   7.869   8.117 -0.4040 -0.4172 -0.2550
  554MOL0     C73037  10.049   7.824   8.239  0.5101  1.0056  0.2604
  554MOL0     C73038  10.141   7.788   8.351 -0.2248  0.4474  0.1303
  554MOL0     C73039  10.056   7.745   8.466 -0.2978  0.8000 -0.0768
  554MOL0    Cl73040   9.921   7.849   8.505 -0.6129  0.2328  0.0633
  554MOL0     C73041   9.646   8.030   7.614  0.9873  0.4484  0.5316
  554MOL0     C73042   9.523   8.023   7.547  0.9291  0.2430 -0.7060
  554MOL0     O73043   9.374   7.915   7.317 -0.2019  0.2611  0.3703
  554MOL0     C73044   9.114   7.909   7.232  0.4411 -0.3490  0.3000
  554MOL0     C73045   8.981   7.908   7.187  0.0133 -0.0088  0.0596
  554MOL0     N73046   8.161   7.991   7.040 -0.0180  0.3323  0.4320
  554MOL0     N73047   8.047   7.985   6.995 -0.4166 -0.0744  0.0976
  554MOL0     C73048   8.683   8.254   6.911  0.7095 -0.0182  0.2225
  554MOL0     C73049   8.788   8.297   6.989 -0.3904  0.6250 -0.0699
  554MOL0     C73050   9.132   8.571   7.099 -0.5585 -0.1014  0.6672
  554MOL0     C73051   9.203   8.689   7.080  0.5722  0.5470 -0.1282
  554MOL0     C73052   9.323   8.706   7.143 -0.8472 -0.0614  0.2206
  554MOL0     C73053   9.396   8.596   7.205  0.5609  0.3171  0.1799
  554MOL0     O73054   9.518   8.594   7.255  0.2534  0.2198 -0.7594
  554MOL0     C73055   9.627   8.576   7.159  0.3167 -0.0864 -0.4127
  554MOL0     C73056   9.700   8.463   7.224 -0.4353 -0.7720 -0.3836
  554MOL0     C73057   9.826   8.418   7.138  0.5260  0.8069  0.3162
  554MOL0     C73058   9.875   8.284   7.204  0.4755  0.5588 -1.3306
  554MOL0     C73059   9.776   8.179   7.218 -0.7437  0.3895 -0.0344
  554MOL0     C73060   9.709   8.078   7.219  1.5740  0.4347  0.4683
  554MOL0     C73061   9.327   8.478   7.221 -0.7287  0.3392  0.2813
  554MOL0     C73062   9.192   8.474   7.181  0.3061 -0.5018  0.5029
  554MOL0     H73063   8.740   8.634   6.970 -1.9379  0.4386  0.0027
  554MOL0     H73064   8.555   8.563   6.826  1.4776 -0.1180 -1.9752
  554MOL0     H73065   8.562   8.154   6.665  0.9197 -0.5091 -3.2721
  554MOL0     H73066   8.603   8.313   6.612  2.0715  0.7914  4.7937
  554MOL0     H73067   8.400   8.329   6.508  2.5106  2.2687  1.8984
  554MOL0     H73068   8.310   8.276   6.641 -1.3010 -1.7627  0.7747
  554MOL0     H73069   8.473   8.078   6.468  0.3553  3.8631 -2.6937
  554MOL0     H73070   8.319   8.124   6.407  1.3947 -2.1012 -0.9164
  554MOL0     H73071   8.300   7.913   6.533  0.4648 -0.2825  0.2805
  554MOL0     H73072   8.341   8.012   6.683  0.9991 -1.0284 -0.6163
  554MOL0     H73073   8.108   8.072   6.487 -5.4146  0.2965  1.6179
  554MOL0     H73074   8.144   8.152   6.631 -0.0228 -0.5002  0.1941
  554MOL0     H73075   8.114   7.921   6.746 -0.9654 -2.0227  0.0682
  554MOL0     H73076   8.045   7.864   6.583 -0.2179  0.0063  0.9539
  554MOL0     H73077   7.880   8.039   6.619  0.2463 -0.0544 -0.9322
  554MOL0     H73078   7.886   7.917   6.742  1.4220  0.5795  2.1380
  554MOL0     H73079   7.837   8.114   6.857  0.4264  2.2367  0.9985
  554MOL0     H73080   7.951   8.209   6.766  0.0282 -1.0786 -0.7059
  554MOL0     H73081   8.166   8.266   6.887 -0.6710 -0.0114  1.0942
  554MOL0     H73082   8.356   8.190   7.164  0.1969 -2.0135  1.0922
  554MOL0     H73083   8.403   8.225   6.991  1.6892 -0.0809  0.7420
  554MOL0     H73084   8.521   8.016   6.987 -3.6483  0.1012 -2.1835
  554MOL0     H73085   8.420   7.948   7.115  2.2671 -2.4185 -0.2293
  554MOL0     H73086   8.597   8.198   7.162  0.5502  0.9048  2.4494
  554MOL0     H73087   8.502   8.129   7.291  1.2823  0.3144  0.0897
  554MOL0     H73088   8.643   7.917   7.278 -1.9435  0.5248 -3.0589
  554MOL0     H73089   8.709   8.058   7.364  0.8478 -0.7871  0.5649
  554MOL0     H73090   8.899   8.213   7.314 -2.6733 -3.0326  1.2353
  554MOL0     H73091   9.120   8.221   7.371  1.0341  0.1047 -0.5105
  554MOL0     H73092   9.500   8.345   7.439 -0.3977  2.0653  2.4998
  554MOL0     H73093   9.733   8.349   7.537 -2.5787  0.1657 -2.3857
  554MOL0     H73094   9.910   7.972   7.694 -3.3853 -1.5457 -0.2144
  554MOL0     H73095   9.836   8.050   7.846  3.2068  0.4852  1.5240
  554MOL0     H73096  10.058   8.179   7.861 -1.1035  0.4032 -0.2286
  554MOL0     H73097  10.115   8.090   7.708 -3.4275 -0.3988 -2.0059
  554MOL0     H73098  10.216   7.985   7.895 -0.1750 -1.6724 -3.0257
  554MOL0     H73099  10.110   7.879   7.813  2.8102 -0.6974  0.8163
  554MOL0     H73100   9.980   8.003   8.051  0.0491 -0.3505  0.9435
  554MOL0     H73101   9.960   7.837   7.975  0.4794 -0.6225  1.2933
  554MOL0     H73102  10.182   7.957   8.145  0.9932 -2.0811  2.3881
  554MOL0     H73103  10.195   7.792   8.087 -1.2648 -1.2222 -0.2725
  554MOL0     H73104   9.992   7.738   8.202  0.4443  2.5196 -3.6034
  554MOL0     H73105   9.976   7.898   8.271  0.1033  1.7510 -2.1776
  554MOL0     H73106  10.214   7.712   8.321 -1.4356 -1.0150  0.7616
  554MOL0     H73107  10.204   7.872   8.381  0.3885 -0.4662  1.5205
  554MOL0     H73108  10.119   7.729   8.553 -0.8491 -0.5585  0.1084
  554MOL0     H73109  10.012   7.649   8.438  0.9098  0.1849  0.0721
  554MOL0     H73110   9.683   7.939   7.660  1.8062 -0.7665 -2.2687
  554MOL0     H73111   9.473   7.927   7.548  1.2748  0.0611 -0.2319
  554MOL0     H73112   9.176   7.826   7.201  1.2070 -0.6906  2.5498
  554MOL0     H73113   8.962   7.816   7.132  2.3244  0.1836 -1.2149
  554MOL0     H73114   8.668   8.148   6.897 -1.1493  0.0056  1.5557
  554MOL0     H73115   8.859   8.221   7.019 -2.8447 -1.6461  0.3754
  554MOL0     H73116   9.164   8.766   7.014 -0.9218 -0.8583 -0.9437
  554MOL0     H73117   9.382   8.786   7.101 -1.4832 -0.1697 -0.9251
  554MOL0     H73118   9.678   8.671   7.142 -0.3374  0.2546 -0.5072
  554MOL0     H73119   9.584   8.548   7.062 -2.5092 -0.1538  0.7802
  554MOL0     H73120   9.744   8.492   7.320 -1.7687  2.1170 -0.5616
  554MOL0     H73121   9.624   8.386   7.241  0.9845 -1.8947  1.3278
  554MOL0     H73122   9.910   8.487   7.143  0.3962  1.0206 -0.3396
  554MOL0     H73123   9.801   8.394   7.034  0.4896  2.9115 -0.2068
  554MOL0     H73124   9.964   8.258   7.146  2.6385  1.0607  1.5411
  554MOL0     H73125   9.927   8.293   7.300  0.7113 -2.4526 -1.0966
  554MOL0     H73126   9.644   7.993   7.212  0.2783  1.3791  0.6085
  554MOL0     H73127   9.371   8.392   7.270 -1.4284 -0.0682  0.2159
  554MOL0     H73128   9.126   8.390   7.200 -0.4519  0.6929  3.7084
  555MOL0     O73129  10.218   1.448  10.448 -0.1016 -0.1350 -0.4003
  555MOL0     C73130  10.271   1.337  10.462 -0.5362 -1.5030 -0.5900
  555MOL0     O73131  10.245   1.247  10.551  0.1057 -0.4194 -0.1265
  555MOL0     C73132  10.149   1.270  10.651  0.8443  1.0372 -0.4472
  555MOL0     C73133  10.207   1.297  10.777 -0.2362 -1.1225  0.5984
  555MOL0     C73134  10.109   1.311  10.885  0.2789 -1.0496 -0.6821
  555MOL0     C73135   9.972   1.309  10.871  0.0447  0.1306  0.0997
  555MOL0     O73136   9.882   1.349  10.967 -0.3066  0.3842 -0.7654
  555MOL0     C73137   9.735   1.368  10.937 -0.1366  0.4353 -1.1190
  555MOL0     C73138   9.661   1.412  11.062 -0.1295 -0.4194  0.0494
  555MOL0     C73139   9.667   1.565  11.091 -0.1276 -0.1831  0.2034
  555MOL0     C73140   9.608   1.622  11.221  0.2791  0.0889 -0.7385
  555MOL0     C73141   9.454   1.667  11.203  0.6653  0.1394  0.1746
  555MOL0     C73142   9.404   1.744  11.339 -0.0574 -0.5262  0.7336
  555MOL0     C73143   9.265   1.805  11.311 -0.0118 -1.1903 -1.0079
  555MOL0     C73144   9.266   1.931  11.221  0.1121  0.9250  1.2127
  555MOL0     N73145   9.126   1.966  11.184  0.1876  0.2667 -0.2419
  555MOL0     C73146   9.078   2.016  11.066 -0.3135 -0.6732  0.8120
  555MOL0     C73147   8.951   2.053  11.095  0.4053  0.5780  0.5378
  555MOL0     C73148   8.843   2.128  11.004 -0.5367  0.1165  0.2196
  555MOL0     C73149   8.919   2.250  10.948  1.2857  0.5518  0.9583
  555MOL0     C73150   8.837   2.347  10.857  0.3340 -0.0620 -0.2704
  555MOL0     C73151   8.742   2.279  10.765  0.5865  0.3245  1.0395
  555MOL0     O73152   8.734   2.335  10.641  0.0416 -0.3002 -0.2915
  555MOL0     C73153   8.643   2.286  10.554 -0.1876  0.3575  1.1538
  555MOL0     C73154   8.545   2.180  10.573 -0.0149  0.6936 -1.4824
  555MOL0     C73155   8.449   2.156  10.477 -0.1319  0.5986 -1.0177
  555MOL0     C73156   8.453   2.220  10.350 -0.3157 -0.3660  0.1059
  555MOL0     C73157   8.347   2.192  10.253  0.5104  1.0748  0.1699
  555MOL0     O73158   8.345   2.265  10.140  0.1963 -0.7389 -0.2937
  555MOL0     C73159   8.258   2.230  10.041  0.2514  0.2587 -0.5750
  555MOL0     C73160   8.272   2.115   9.965 -0.3660  0.0736  0.4789
  555MOL0     C73161   8.174   2.067   9.873 -0.2564 -0.2780 -0.0325
  555MOL0     C73162   8.066   2.147   9.842 -0.0344  1.0671  0.1701
  555MOL0     O73163   7.972   2.118   9.755 -0.3838  0.4272 -0.0516
  555MOL0     C73164   7.981   2.008   9.660 -0.1204  0.5106 -0.0125
  555MOL0     C73165   7.909   2.051   9.535  0.6574 -0.4950 -0.2716
  555MOL0     C73166   7.979   2.141   9.446 -0.3283  0.1291  0.7179
  555MOL0     C73167   7.907   2.212   9.335  0.0888  0.5177 -0.0888
  555MOL0     C73168   8.006   2.270   9.230 -0.8639  0.3416 -0.0949
  555MOL0     C73169   7.959   2.367   9.123  0.3229  0.2757 -0.4241
  555MOL0     C73170   7.878   2.304   9.005  0.0732 -0.4474 -0.3750
  555MOL0     C73171   7.969   2.201   8.928 -0.4434 -0.4439 -0.2904
  555MOL0    Cl73172   7.867   2.109   8.805  0.0664  0.0459 -0.0681
  555MOL0     C73173   8.052   2.257   9.922  0.0775 -0.2655 -0.8052
  555MOL0     C73174   8.147   2.305  10.020  0.7512 -0.7662  0.8635
  555MOL0     O73175   8.270   2.097  10.277  0.2412  0.2297 -0.6346
  555MOL0     C73176   8.548   2.322  10.327 -0.2187 -0.1326  0.4227
  555MOL0     C73177   8.640   2.357  10.427  0.6030  0.3063  0.2323
  555MOL0     N73178   8.922   2.012  11.219  0.0701 -0.3120 -0.1232
  555MOL0     N73179   9.024   1.962  11.278 -0.4558  0.5036  0.1457
  555MOL0     C73180   9.930   1.271  10.736 -0.5394 -0.1968  0.5454
  555MOL0     C73181  10.012   1.261  10.634 -0.4498  0.1353  2.0895
  555MOL0     C73182  10.368   1.301  10.355  0.1596  0.0039 -0.3372
  555MOL0     C73183  10.455   1.190  10.365  0.2507 -0.7500 -0.3926
  555MOL0     C73184  10.564   1.188  10.280 -0.2049  0.1968  0.4587
  555MOL0     C73185  10.592   1.275  10.175  0.7844 -0.7946  0.6998
  555MOL0     O73186  10.706   1.267  10.105 -0.3105 -0.3566 -0.1107
  555MOL0     C73187  10.777   1.389  10.083  0.7540  0.4366 -0.4468
  555MOL0     C73188  10.910   1.365  10.007 -0.3001 -0.8097 -0.0502
  555MOL0     C73189  10.966   1.491   9.946  0.1650  0.1099 -0.2160
  555MOL0     C73190  11.119   1.498   9.926 -0.1057  1.0626  0.6732
  555MOL0     C73191  11.164   1.391   9.836  0.1844 -0.2582 -0.2007
  555MOL0     C73192  11.212   1.317   9.754  0.0682  0.0838  0.2190
  555MOL0     C73193  10.487   1.373  10.157 -0.3368 -0.0352 -0.4855
  555MOL0     C73194  10.380   1.386  10.247  0.2825 -0.5463 -0.5865
  555MOL0     H73195  10.315   1.300  10.782 -0.3252  0.2772  3.0389
  555MOL0     H73196  10.161   1.340  10.976  1.8561 -0.2902 -1.7796
  555MOL0     H73197   9.679   1.279  10.905 -1.8969  0.9830  0.2865
  555MOL0     H73198   9.726   1.442  10.857  0.5982  0.4043 -1.2325
  555MOL0     H73199   9.715   1.363  11.143  3.2448  1.8858 -0.5665
  555MOL0     H73200   9.558   1.376  11.072 -1.0294  1.4668 -1.5020
  555MOL0     H73201   9.611   1.613  11.010  0.1660 -0.0624  0.0692
  555MOL0     H73202   9.770   1.596  11.069 -0.3487 -1.7971 -4.0985
  555MOL0     H73203   9.605   1.544  11.298 -1.0728  1.7726  0.9927
  555MOL0     H73204   9.671   1.701  11.261  1.8634 -2.3181  1.9201
  555MOL0     H73205   9.388   1.585  11.176 -1.1826  2.1740 -1.9010
  555MOL0     H73206   9.424   1.731  11.120 -2.8219 -1.1885  0.2227
  555MOL0     H73207   9.475   1.823  11.361  0.2145 -0.6212  0.2223
  555MOL0     H73208   9.406   1.666  11.416 -0.2622 -1.0067  0.2673
  555MOL0     H73209   9.196   1.735  11.262  0.5195 -1.4920 -1.3343
  555MOL0     H73210   9.234   1.845  11.408  0.9528 -1.7547 -0.4456
  555MOL0     H73211   9.325   1.905  11.133 -0.6122 -1.2210  1.2928
  555MOL0     H73212   9.313   2.015  11.272  0.1339 -0.2698  3.2688
  555MOL0     H73213   9.128   2.054  10.977 -1.3088 -1.8340 -0.2781
  555MOL0     H73214   8.746   2.153  11.049  0.1787  2.1276  0.7895
  555MOL0     H73215   8.836   2.064  10.917  2.7193 -1.7570  1.1837
  555MOL0     H73216   8.996   2.203  10.886 -0.6789  0.1951 -1.3670
  555MOL0     H73217   8.965   2.309  11.028  1.2769 -1.7551  2.7353
  555MOL0     H73218   8.777   2.413  10.920 -0.1477 -0.3440 -0.4223
  555MOL0     H73219   8.912   2.400  10.799  0.6857 -1.5168 -1.2156
  555MOL0     H73220   8.641   2.274  10.806 -0.9449 -2.4761 -2.4801
  555MOL0     H73221   8.771   2.176  10.741  2.2753  1.6559 -3.5826
  555MOL0     H73222   8.549   2.124  10.666  1.6556  2.2535 -0.5341
  555MOL0     H73223   8.361   2.094  10.496  2.1122 -2.2377  1.0187
  555MOL0     H73224   8.373   2.077   9.972 -0.7463 -0.8142  1.3701
  555MOL0     H73225   8.190   1.973   9.821 -2.4243 -2.1618  2.4779
  555MOL0     H73226   7.923   1.923   9.697 -0.3266  0.5850 -0.1592
  555MOL0     H73227   8.080   1.973   9.628 -0.8920 -0.2348 -1.7540
  555MOL0     H73228   7.818   2.099   9.571  1.0859  0.8431 -0.9139
  555MOL0     H73229   7.877   1.966   9.474 -3.5993 -0.3896  1.4467
  555MOL0     H73230   8.050   2.076   9.394  1.3562  0.1237  2.8978
  555MOL0     H73231   8.033   2.224   9.494  0.0061 -1.0167  2.3825
  555MOL0     H73232   7.849   2.132   9.289 -0.9879 -1.0744  3.6866
  555MOL0     H73233   7.850   2.294   9.379 -0.7592  0.6228 -1.3393
  555MOL0     H73234   8.043   2.178   9.184 -6.7668 -4.1121  2.8079
  555MOL0     H73235   8.088   2.320   9.283  0.2642 -3.1034  1.6857
  555MOL0     H73236   8.051   2.407   9.079  1.7163 -0.0408  1.9970
  555MOL0     H73237   7.906   2.456   9.161  3.5623  3.9624 -3.5894
  555MOL0     H73238   7.788   2.253   9.040  0.2299 -2.0354 -2.1411
  555MOL0     H73239   7.852   2.381   8.932  4.2941  1.8639  0.1962
  555MOL0     H73240   8.023   2.130   8.991 -0.0142  1.4211  1.5483
  555MOL0     H73241   8.043   2.254   8.868  0.0222  1.1912  1.6410
  555MOL0     H73242   7.969   2.323   9.898 -0.8162 -0.3217  1.7760
  555MOL0     H73243   8.131   2.396  10.076  2.3222  0.4450 -0.5634
  555MOL0     H73244   8.567   2.381  10.238 -1.0245  0.0839  0.3874
  555MOL0     H73245   8.707   2.441  10.414  4.4288 -2.3733  1.0115
  555MOL0     H73246   9.823   1.263  10.717 -0.0429  0.5037 -3.4296
  555MOL0     H73247   9.962   1.241  10.540 -0.0906  1.3083  1.6326
  555MOL0     H73248  10.452   1.112  10.440  1.2135  0.0459  0.5000
  555MOL0     H73249  10.629   1.105  10.306  0.6695  1.3777  2.2670
  555MOL0     H73250  10.792   1.446  10.175 -0.6426  0.7116 -0.3683
  555MOL0     H73251  10.718   1.450  10.014  0.0506 -0.5778 -0.7670
  555MOL0     H73252  10.979   1.322  10.081 -0.9386 -1.0000  0.4514
  555MOL0     H73253  10.895   1.290   9.929 -0.3364  1.5332 -2.4360
  555MOL0     H73254  10.941   1.571  10.016 -2.9241 -0.9562  0.0769
  555MOL0     H73255  10.913   1.497   9.851 -0.5182 -0.8227  0.0879
  555MOL0     H73256  11.159   1.594   9.891  0.9453  0.8497  1.2609
  555MOL0     H73257  11.167   1.475  10.022  1.2304  1.2991  0.0790
  555MOL0     H73258  11.265   1.257   9.683 -0.4854 -1.7483  1.2884
  555MOL0     H73259  10.485   1.437  10.070 -3.9544 -0.5824 -0.9523
  555MOL0     H73260  10.311   1.466  10.222 -1.5334 -1.8198  0.1177
  556MOL0     O73261   7.179  10.979   0.013 -0.7750  0.4027 -0.2763
  556MOL0     C73262   7.252  11.050   0.085  0.3290  0.2672 -0.3840
  556MOL0     O73263   7.302  11.170   0.042 -0.8558  0.2295  0.0851
  556MOL0     C73264   7.298  11.232  -0.079  0.5372 -0.2056  0.8630
  556MOL0     C73265   7.280  11.371  -0.089 -0.1865  0.1326  0.6602
  556MOL0     C73266   7.298  11.434  -0.220  0.8621  0.5089 -0.5936
  556MOL0     C73267   7.328  11.358  -0.335  0.3642 -1.1524 -0.8427
  556MOL0     O73268   7.345  11.428  -0.453 -0.7572 -0.2360 -0.0621
  556MOL0     C73269   7.350  11.348  -0.571  0.4809  1.5476  0.1916
  556MOL0     C73270   7.207  11.310  -0.612  0.7592 -0.3349  0.1055
  556MOL0     C73271   7.211  11.177  -0.679 -0.6303  0.2932  1.0065
  556MOL0     C73272   7.072  11.120  -0.725 -0.0063 -0.0237 -0.4548
  556MOL0     C73273   7.088  11.021  -0.837  0.2140 -0.0247 -0.2802
  556MOL0     C73274   7.165  10.893  -0.797 -0.4404 -0.3332 -0.1123
  556MOL0     C73275   7.140  10.779  -0.898 -0.1821 -0.0193 -0.6617
  556MOL0     C73276   7.223  10.650  -0.865  0.3022 -0.0785  1.1534
  556MOL0     N73277   7.365  10.649  -0.897 -0.2361 -0.1363 -0.0481
  556MOL0     C73278   7.430  10.680  -1.015 -0.3867  0.3865 -0.4839
  556MOL0     C73279   7.561  10.643  -0.994  0.0413  0.5020  0.0744
  556MOL0     C73280   7.665  10.659  -1.101 -0.0828  0.7796 -0.4778
  556MOL0     C73281   7.736  10.785  -1.080  0.0303 -0.8905 -0.5405
  556MOL0     C73282   7.873  10.786  -1.150 -0.4305 -0.2650 -0.3403
  556MOL0     C73283   7.918  10.932  -1.157  0.0456  0.2552 -0.4294
  556MOL0     O73284   7.940  10.977  -1.022  0.6282 -0.0713 -0.3198
  556MOL0     C73285   8.025  11.090  -1.024 -0.4372  0.3294  0.5241
  556MOL0     C73286   7.990  11.206  -1.093  1.2346 -0.2791  0.9726
  556MOL0     C73287   8.087  11.314  -1.106  0.8478 -0.4485 -0.6696
  556MOL0     C73288   8.209  11.308  -1.035 -0.4385 -0.7281  0.9175
  556MOL0     C73289   8.308  11.414  -1.056  1.6112 -0.2283  0.5732
  556MOL0     O73290   8.392  11.421  -0.947 -0.3347 -0.1626  0.7175
  556MOL0     C73291   8.493  11.514  -0.943  0.5668  0.6642  0.1796
  556MOL0     C73292   8.599  11.508  -1.026 -0.7334  0.3130 -0.3685
  556MOL0     C73293   8.702  11.602  -1.021 -0.7409 -1.2867  0.1971
  556MOL0     C73294   8.700  11.704  -0.924  0.6160  0.2441  0.9095
  556MOL0     O73295   8.810  11.788  -0.903  0.6796 -0.2290 -0.0629
  556MOL0     C73296   8.907  11.730  -0.812  0.0597 -0.2574  1.1800
  556MOL0     C73297   9.041  11.799  -0.850  0.0883 -0.1421  0.6318
  556MOL0     C73298   9.088  11.751  -0.994  0.8048  0.0543  0.1647
  556MOL0     C73299   9.239  11.791  -1.015  0.6928 -0.0437  0.9267
  556MOL0     C73300   9.304  11.729  -1.130  0.6274 -0.1208 -0.3978
  556MOL0     C73301   9.263  11.773  -1.274  0.1333 -0.6500  0.3760
  556MOL0     C73302   9.355  11.723  -1.390  0.1337  1.0748 -0.4997
  556MOL0     C73303   9.461  11.819  -1.440  0.3199  0.3010  0.4427
  556MOL0    Cl73304   9.564  11.856  -1.301 -0.3222  0.3209  0.0571
  556MOL0     C73305   8.606  11.704  -0.825  0.5123  0.6212  0.0275
  556MOL0     C73306   8.496  11.607  -0.834 -0.4686 -0.6149 -0.5290
  556MOL0     O73307   8.321  11.479  -1.162 -0.0543  0.4142 -0.7082
  556MOL0     C73308   8.241  11.194  -0.963  0.4410  0.1120 -0.6263
  556MOL0     C73309   8.145  11.085  -0.952 -0.3313  0.0354  0.1709
  556MOL0     N73310   7.576  10.582  -0.869  0.0706 -0.1478 -0.0973
  556MOL0     N73311   7.453  10.588  -0.818 -0.4985 -0.3667 -1.2530
  556MOL0     C73312   7.349  11.221  -0.314 -0.3479 -0.6895 -0.7200
  556MOL0     C73313   7.323  11.156  -0.194  0.1101 -0.2483 -0.6477
  556MOL0     C73314   7.282  11.009   0.227  0.9251 -0.1681 -0.0743
  556MOL0     C73315   7.219  10.904   0.293  0.2287  0.6848  0.1829
  556MOL0     C73316   7.238  10.865   0.426 -1.1713 -0.1400 -0.7658
  556MOL0     C73317   7.329  10.946   0.498 -0.7940  0.6259  0.9970
  556MOL0     O73318   7.372  10.923   0.622  0.2092 -0.1049 -0.4408
  556MOL0     C73319   7.282  10.855   0.710  0.4053 -0.1933  0.0703
  556MOL0     C73320   7.330  10.842   0.857 -0.3160  0.5812 -0.0980
  556MOL0     C73321   7.336  10.692   0.904 -0.3808  0.6243 -0.0142
  556MOL0     C73322   7.484  10.645   0.905 -0.7352  0.0309 -0.2181
  556MOL0     C73323   7.538  10.643   0.763  0.3417  0.3454 -0.7724
  556MOL0     C73324   7.577  10.651   0.651 -0.2518  0.0886 -0.5312
  556MOL0     C73325   7.385  11.054   0.436 -0.9817 -0.2885 -0.1680
  556MOL0     C73326   7.361  11.096   0.306  0.0719 -0.3141 -0.5223
  556MOL0     H73327   7.267  11.442  -0.008 -0.4337 -0.3214  1.0227
  556MOL0     H73328   7.285  11.541  -0.233  0.2302  0.5185  0.0090
  556MOL0     H73329   7.412  11.260  -0.550 -3.4246 -0.9394  2.6464
  556MOL0     H73330   7.396  11.404  -0.652  1.6267  2.4781  1.4445
  556MOL0     H73331   7.173  11.396  -0.669  0.3294 -0.9962 -0.6553
  556MOL0     H73332   7.143  11.299  -0.524  3.8078 -1.3561  2.4194
  556MOL0     H73333   7.258  11.101  -0.617  0.8145  0.7287  0.4744
  556MOL0     H73334   7.277  11.181  -0.766 -2.3474  1.2546 -0.3451
  556MOL0     H73335   7.015  11.073  -0.644 -0.1225  0.3441 -0.3217
  556MOL0     H73336   7.005  11.201  -0.755  2.0343  1.3842 -1.4403
  556MOL0     H73337   7.127  11.064  -0.930  1.2057  1.3757  0.7431
  556MOL0     H73338   6.987  10.986  -0.857 -0.5530  2.6602 -1.5388
  556MOL0     H73339   7.116  10.871  -0.702  1.2068 -0.6695  0.6962
  556MOL0     H73340   7.271  10.914  -0.781 -0.6283  1.9917 -1.4380
  556MOL0     H73341   7.033  10.755  -0.892 -0.4218 -0.2666 -4.0936
  556MOL0     H73342   7.163  10.808  -1.000 -1.4904  3.5209 -0.0812
  556MOL0     H73343   7.190  10.573  -0.936 -3.7841  1.5201  1.0694
  556MOL0     H73344   7.195  10.609  -0.767  0.1652 -0.0863  1.1125
  556MOL0     H73345   7.385  10.714  -1.108  1.0938  2.2930 -0.5508
  556MOL0     H73346   7.624  10.654  -1.202  2.9944 -4.3839 -1.8452
  556MOL0     H73347   7.740  10.579  -1.092  1.5990  2.0807 -2.1818
  556MOL0     H73348   7.740  10.815  -0.975  0.3268 -0.8221 -0.5721
  556MOL0     H73349   7.674  10.854  -1.139 -1.2613 -0.6245  1.0543
  556MOL0     H73350   7.941  10.726  -1.089  0.3376 -0.4852 -1.3936
  556MOL0     H73351   7.872  10.749  -1.253  0.6296 -0.3327 -0.3389
  556MOL0     H73352   7.840  10.986  -1.211 -1.1192 -0.5647  0.3975
  556MOL0     H73353   8.007  10.945  -1.220  0.0786 -1.3534 -0.7312
  556MOL0     H73354   7.902  11.202  -1.156  1.3188  0.8906  0.7466
  556MOL0     H73355   8.071  11.403  -1.166 -0.4826  1.3513  2.1079
  556MOL0     H73356   8.592  11.432  -1.103  2.9358  1.7359 -2.3538
  556MOL0     H73357   8.790  11.602  -1.084 -1.0788  0.5598 -0.3406
  556MOL0     H73358   8.927  11.623  -0.809 -0.0881 -0.3221  0.0101
  556MOL0     H73359   8.881  11.748  -0.707 -2.4549  0.9781  0.4257
  556MOL0     H73360   9.117  11.778  -0.774  2.1509  4.0480 -0.0149
  556MOL0     H73361   9.038  11.908  -0.853  2.4469  0.0468  2.5673
  556MOL0     H73362   9.015  11.768  -1.074  0.3106 -1.0180  0.3636
  556MOL0     H73363   9.081  11.642  -0.981 -1.0612  0.2540  1.3101
  556MOL0     H73364   9.246  11.898  -1.033 -0.8599  0.0653  0.8227
  556MOL0     H73365   9.305  11.768  -0.931  1.1648  0.5653  0.7286
  556MOL0     H73366   9.303  11.620  -1.130  1.0034 -0.1538 -1.8632
  556MOL0     H73367   9.409  11.760  -1.118  0.4849  0.3345 -0.3098
  556MOL0     H73368   9.257  11.882  -1.268 -3.5507 -0.6933 -0.4506
  556MOL0     H73369   9.157  11.752  -1.288 -0.2424 -1.0913  3.2278
  556MOL0     H73370   9.398  11.627  -1.362 -3.3402 -1.1257 -1.9971
  556MOL0     H73371   9.279  11.697  -1.464 -1.5359 -0.9190  1.7675
  556MOL0     H73372   9.416  11.915  -1.469 -0.5960 -0.1877  0.2101
  556MOL0     H73373   9.511  11.768  -1.523 -0.6275 -0.1332  0.1292
  556MOL0     H73374   8.594  11.776  -0.745 -0.2844  1.5830 -0.9203
  556MOL0     H73375   8.428  11.583  -0.753 -0.1365 -1.0792 -0.3845
  556MOL0     H73376   8.336  11.189  -0.910 -0.8195 -0.3974  1.7335
  556MOL0     H73377   8.167  10.992  -0.900 -0.5032  0.1302  0.4164
  556MOL0     H73378   7.389  11.151  -0.387  1.1084 -1.8177  1.0734
  556MOL0     H73379   7.329  11.048  -0.187 -3.3731 -0.4467  1.8390
  556MOL0     H73380   7.146  10.850   0.234  0.2030  1.9155 -0.9668
  556MOL0     H73381   7.209  10.766   0.459  0.0415  0.7765  3.6825
  556MOL0     H73382   7.241  10.768   0.658 -4.8664  1.1673  1.3499
  556MOL0     H73383   7.192  10.916   0.719  0.4290 -0.4265  4.5068
  556MOL0     H73384   7.433  10.877   0.870 -0.1245  0.0204 -0.0881
  556MOL0     H73385   7.266  10.903   0.921  1.2349  1.3425  0.7578
  556MOL0     H73386   7.266  10.627   0.850  1.4601 -1.4435 -0.0594
  556MOL0     H73387   7.307  10.693   1.009  3.9214  0.3251  1.3424
  556MOL0     H73388   7.552  10.700   0.970  0.5767 -3.5200  1.7342
  556MOL0     H73389   7.490  10.547   0.955 -0.2436  1.0059  1.7622
  556MOL0     H73390   7.622  10.658   0.554 -0.6670 -1.2282 -0.8381
  556MOL0     H73391   7.458  11.120   0.483  2.4418 -2.5766 -1.8145
  556MOL0     H73392   7.413  11.184   0.271 -2.5291  0.8968 -1.6382
  557MOL0     O73393   5.640   1.336   5.858 -0.4627 -0.6170  0.3301
  557MOL0     C73394   5.739   1.397   5.873 -1.0572 -1.1183  0.2176
  557MOL0     O73395   5.752   1.496   5.963 -0.1955 -0.2028 -0.1375
  557MOL0     C73396   5.651   1.522   6.054 -0.3277  0.2947  0.1224
  557MOL0     C73397   5.616   1.652   6.083 -0.0912  0.0984  0.5619
  557MOL0     C73398   5.528   1.679   6.185  0.2223 -0.2200  0.0330
  557MOL0     C73399   5.475   1.580   6.268  0.0711  1.0208  0.5144
  557MOL0     O73400   5.385   1.627   6.351  0.6783 -0.5126 -0.0711
  557MOL0     C73401   5.363   1.548   6.470  0.4931 -0.4169  0.1883
  557MOL0     C73402   5.247   1.447   6.465  0.6237  0.5882  0.5459
  557MOL0     C73403   5.136   1.490   6.366  0.0944 -0.5186 -0.0835
  557MOL0     C73404   5.018   1.386   6.361 -0.5206 -0.3890 -0.4570
  557MOL0     C73405   4.892   1.448   6.323  0.0357  0.0445 -0.0880
  557MOL0     C73406   4.819   1.519   6.446  0.2509 -0.3574 -0.2971
  557MOL0     C73407   4.682   1.586   6.404  0.7365  0.7032 -0.3675
  557MOL0     C73408   4.691   1.721   6.323  0.9160  0.7762  0.2316
  557MOL0     N73409   4.569   1.746   6.251  0.4539 -0.3216  1.1391
  557MOL0     C73410   4.521   1.660   6.153  0.6064 -0.8260 -0.0060
  557MOL0     C73411   4.439   1.742   6.086 -0.1904  0.5050  0.6673
  557MOL0     C73412   4.341   1.687   5.978  1.2248 -0.6830  0.0765
  557MOL0     C73413   4.374   1.758   5.845 -0.2498 -0.1252  0.0941
  557MOL0     C73414   4.473   1.701   5.744 -0.4976 -0.6279  0.0432
  557MOL0     C73415   4.607   1.653   5.793  1.1206  0.5086 -0.3269
  557MOL0     O73416   4.597   1.518   5.848  0.5235 -0.1468  0.2460
  557MOL0     C73417   4.710   1.453   5.882  0.4991 -0.0277 -0.2745
  557MOL0     C73418   4.834   1.514   5.896  0.0655  0.5571  0.6615
  557MOL0     C73419   4.945   1.438   5.935  0.4551 -0.0421  0.2160
  557MOL0     C73420   4.924   1.303   5.954 -0.8468  0.4058  0.0946
  557MOL0     C73421   5.044   1.215   6.012  0.0697 -0.4046 -0.1970
  557MOL0     O73422   5.176   1.253   5.986  0.2953 -0.7018  0.9812
  557MOL0     C73423   5.283   1.188   6.035  0.1934  0.6825  0.4938
  557MOL0     C73424   5.308   1.146   6.171  0.1963  0.0626 -1.0849
  557MOL0     C73425   5.414   1.061   6.204  0.4069  0.0875  0.1486
  557MOL0     C73426   5.503   1.029   6.100  0.0244  0.2147  0.0103
  557MOL0     O73427   5.605   0.955   6.143 -0.2250  0.5467 -0.3870
  557MOL0     C73428   5.729   0.989   6.082  0.1484 -0.1060 -0.5687
  557MOL0     C73429   5.755   0.881   5.982 -0.7217  0.9375  0.9250
  557MOL0     C73430   5.895   0.903   5.908  0.8953  0.7486 -0.4013
  557MOL0     C73431   5.961   0.775   5.847  0.1797 -0.1701  1.0512
  557MOL0     C73432   5.971   0.657   5.932 -0.0047  0.0974  0.0482
  557MOL0     C73433   6.043   0.550   5.867 -0.1245 -0.3495  1.4490
  557MOL0     C73434   6.083   0.440   5.967 -0.1613 -0.1380  0.5808
  557MOL0     C73435   6.129   0.314   5.897  0.4056 -0.1215  0.2075
  557MOL0    Cl73436   6.273   0.352   5.805  0.4053  0.2620 -0.2426
  557MOL0     C73437   5.492   1.078   5.971 -0.4434  0.3087 -0.6366
  557MOL0     C73438   5.372   1.146   5.937 -0.1825 -0.3139 -0.0176
  557MOL0     O73439   5.010   1.108   6.063  0.4409  0.0819  0.5408
  557MOL0     C73440   4.797   1.246   5.943  0.0649 -1.0150 -0.2623
  557MOL0     C73441   4.688   1.318   5.906 -0.9114 -0.0064  0.4922
  557MOL0     N73442   4.456   1.865   6.133 -0.2834  0.7206  0.3092
  557MOL0     N73443   4.535   1.871   6.229  0.0119 -0.3576 -0.3125
  557MOL0     C73444   5.524   1.448   6.247 -0.8256  0.2532 -0.2522
  557MOL0     C73445   5.608   1.424   6.141  0.3841  1.1309 -0.5167
  557MOL0     C73446   5.855   1.386   5.785 -0.0120  1.2125 -0.0063
  557MOL0     C73447   5.982   1.448   5.819  0.4173 -0.0402  0.3007
  557MOL0     C73448   6.095   1.429   5.736  0.4830 -0.3044  0.7229
  557MOL0     C73449   6.083   1.342   5.624  0.2160 -0.2328  0.0177
  557MOL0     O73450   6.198   1.311   5.559 -0.5051  0.2929 -0.6828
  557MOL0     C73451   6.215   1.275   5.421 -0.4137 -0.4485  0.4044
  557MOL0     C73452   6.179   1.387   5.325  0.1394  0.8279 -0.0679
  557MOL0     C73453   6.264   1.513   5.346 -0.0695 -0.2985  0.3433
  557MOL0     C73454   6.413   1.492   5.319  0.5455 -0.0601  0.2007
  557MOL0     C73455   6.499   1.596   5.372  0.2513 -0.3641 -0.0014
  557MOL0     C73456   6.578   1.675   5.425 -0.4739  0.1515 -0.2112
  557MOL0     C73457   5.957   1.287   5.578  0.4373 -0.6545 -0.4980
  557MOL0     C73458   5.849   1.313   5.662 -0.0216 -1.0080 -0.3685
  557MOL0     H73459   5.641   1.740   6.024 -1.7766 -0.5838 -1.2567
  557MOL0     H73460   5.491   1.780   6.199 -0.1348 -0.0249 -1.9590
  557MOL0     H73461   5.341   1.613   6.556 -0.1439  0.3714 -0.5529
  557MOL0     H73462   5.448   1.486   6.499  0.3578 -1.1540 -0.9132
  557MOL0     H73463   5.212   1.416   6.564 -0.9018 -0.9145 -0.4260
  557MOL0     H73464   5.290   1.354   6.426 -1.2824 -0.1999  0.2372
  557MOL0     H73465   5.170   1.513   6.265 -1.2889 -0.7093 -0.6147
  557MOL0     H73466   5.095   1.581   6.411 -0.3280 -0.3988 -0.7044
  557MOL0     H73467   5.038   1.304   6.291  3.1441  0.5916 -0.7822
  557MOL0     H73468   4.987   1.335   6.453 -1.5234  0.3409 -0.3697
  557MOL0     H73469   4.832   1.367   6.281  3.7254 -2.7720 -0.4537
  557MOL0     H73470   4.908   1.534   6.258  1.9252  1.0064  1.5449
  557MOL0     H73471   4.877   1.597   6.498 -2.0613  0.1304  1.7153
  557MOL0     H73472   4.800   1.441   6.519 -0.5046 -2.7440 -2.8636
  557MOL0     H73473   4.634   1.513   6.338 -0.6837  0.1234  1.2376
  557MOL0     H73474   4.615   1.591   6.491 -0.2310  0.2870 -1.0655
  557MOL0     H73475   4.772   1.697   6.254  0.2622 -1.4023  0.1579
  557MOL0     H73476   4.729   1.807   6.379  1.6550 -0.1637  1.2116
  557MOL0     H73477   4.524   1.553   6.135  0.5833 -1.0067  0.9935
  557MOL0     H73478   4.237   1.702   6.007  0.5297  1.9198 -3.1957
  557MOL0     H73479   4.353   1.579   5.964 -3.6970 -1.8398  2.5492
  557MOL0     H73480   4.411   1.858   5.870  1.1483 -0.1982 -1.5072
  557MOL0     H73481   4.282   1.772   5.787  0.1801  0.2483 -0.5136
  557MOL0     H73482   4.423   1.620   5.691 -1.3017 -0.1516  0.0666
  557MOL0     H73483   4.492   1.779   5.670 -0.0157 -2.1631 -1.5206
  557MOL0     H73484   4.643   1.714   5.877  3.7374  1.1688 -1.8500
  557MOL0     H73485   4.685   1.658   5.718  2.6102 -0.6617  1.0697
  557MOL0     H73486   4.835   1.623   5.898 -2.1918  0.7542  5.9765
  557MOL0     H73487   5.039   1.491   5.951 -0.7480  1.5326  2.8802
  557MOL0     H73488   5.237   1.176   6.247  2.1218 -0.0408  0.8221
  557MOL0     H73489   5.420   1.015   6.303 -2.9139  3.0251  1.9803
  557MOL0     H73490   5.805   0.982   6.160 -0.3009  0.0074 -0.1093
  557MOL0     H73491   5.729   1.092   6.045  1.7494 -1.2228 -4.0316
  557MOL0     H73492   5.671   0.879   5.912 -0.6382 -0.5740  0.8411
  557MOL0     H73493   5.755   0.787   6.039  0.7947  0.2024 -0.2097
  557MOL0     H73494   5.968   0.937   5.983 -0.8383 -0.0992  1.7752
  557MOL0     H73495   5.890   0.978   5.829  2.6886  1.6330  0.2710
  557MOL0     H73496   5.903   0.756   5.756  0.1607 -2.5517  1.5068
  557MOL0     H73497   6.061   0.798   5.810  0.1747 -2.8950 -0.9311
  557MOL0     H73498   5.867   0.643   5.963 -0.2595  2.8963  0.7355
  557MOL0     H73499   6.027   0.691   6.020 -0.5014  0.1478  0.3442
  557MOL0     H73500   6.125   0.584   5.802 -0.0730 -3.7755 -0.5280
  557MOL0     H73501   5.960   0.518   5.804 -0.8846  1.3922  1.5204
  557MOL0     H73502   6.163   0.475   6.033 -0.1135 -0.2664  0.5912
  557MOL0     H73503   6.000   0.416   6.034 -0.2799 -0.1179  0.4396
  557MOL0     H73504   6.047   0.264   5.845  0.5177 -0.4486  0.3418
  557MOL0     H73505   6.167   0.251   5.978  1.4935 -0.4099 -0.5056
  557MOL0     H73506   5.562   1.049   5.893  1.5674 -1.1433  1.5464
  557MOL0     H73507   5.346   1.167   5.834  0.5252  2.8078  0.3306
  557MOL0     H73508   4.780   1.140   5.961 -1.2635 -0.6978  0.4356
  557MOL0     H73509   4.595   1.266   5.885  0.0434 -0.8929 -1.9087
  557MOL0     H73510   5.491   1.369   6.314 -3.2963  2.2494  1.0446
  557MOL0     H73511   5.631   1.319   6.125 -0.6863  0.7240  0.4171
  557MOL0     H73512   5.985   1.526   5.895 -0.5496  0.8860 -0.5759
  557MOL0     H73513   6.187   1.478   5.765  0.4075 -0.7483  1.7431
  557MOL0     H73514   6.149   1.193   5.392 -1.0343 -0.7777  2.5419
  557MOL0     H73515   6.318   1.241   5.404  1.6131  2.4774  4.7186
  557MOL0     H73516   6.192   1.342   5.226  1.9601 -2.1185  1.3292
  557MOL0     H73517   6.075   1.420   5.329 -0.8561 -1.8275 -1.3581
  557MOL0     H73518   6.249   1.543   5.451 -0.8151  1.3923 -0.2141
  557MOL0     H73519   6.230   1.595   5.282  2.0726  0.0559 -0.3879
  557MOL0     H73520   6.442   1.395   5.360 -1.3692 -0.5725  0.4031
  557MOL0     H73521   6.427   1.492   5.210  1.9346  0.3109  0.3516
  557MOL0     H73522   6.656   1.733   5.470  2.0508 -3.0205 -0.1627
  557MOL0     H73523   5.956   1.226   5.489  3.3105  0.4957 -1.4256
  557MOL0     H73524   5.755   1.270   5.629  0.2083 -0.4216 -1.8322
  558MOL0     O73525   1.442   8.366   2.664 -0.3758  0.0086 -0.3110
  558MOL0     C73526   1.398   8.360   2.552  0.3022  0.5642 -0.3993
  558MOL0     O73527   1.394   8.466   2.462  0.0243  0.0254 -0.3997
  558MOL0     C73528   1.408   8.600   2.501 -0.5318  0.6697  0.0754
  558MOL0     C73529   1.418   8.681   2.388 -0.8531 -0.1099 -0.1878
  558MOL0     C73530   1.431   8.820   2.403  0.2755 -1.2864  0.3010
  558MOL0     C73531   1.410   8.885   2.525 -0.3651  0.1918  0.0702
  558MOL0     O73532   1.380   9.015   2.544  0.0241  0.1110  0.5114
  558MOL0     C73533   1.337   9.091   2.432  0.6221 -0.8499 -0.4020
  558MOL0     C73534   1.321   9.242   2.472  0.3188  1.2801 -0.6354
  558MOL0     C73535   1.298   9.318   2.345  0.8783  1.0966  0.6343
  558MOL0     C73536   1.263   9.467   2.361  0.0332 -0.3827  0.4684
  558MOL0     C73537   1.244   9.534   2.226 -0.4110 -0.2981 -0.2274
  558MOL0     C73538   1.099   9.519   2.188 -0.0631  0.2306  0.7968
  558MOL0     C73539   1.078   9.555   2.044  0.1162  0.0231 -0.1189
  558MOL0     C73540   1.117   9.706   2.015 -1.2827 -0.0002 -0.4167
  558MOL0     N73541   1.051   9.761   1.889  0.9081  0.1554 -0.5513
  558MOL0     C73542   1.087   9.730   1.757  0.1671 -0.0364  0.6828
  558MOL0     C73543   1.003   9.816   1.681  0.9240 -0.3247  0.4290
  558MOL0     C73544   0.980   9.821   1.532  0.0023 -0.6767 -0.4071
  558MOL0     C73545   1.003   9.681   1.459 -0.2602 -0.5711 -0.2497
  558MOL0     C73546   1.144   9.639   1.407  0.1637  0.1847 -1.4265
  558MOL0     C73547   1.193   9.506   1.467 -0.2058  0.2022  0.4989
  558MOL0     O73548   1.251   9.525   1.598  0.0745 -0.4219 -0.1987
  558MOL0     C73549   1.300   9.424   1.671  1.1203  0.3488 -0.3709
  558MOL0     C73550   1.355   9.458   1.793  0.1555 -0.3710  0.0468
  558MOL0     C73551   1.416   9.377   1.877 -1.1405  0.6308 -0.4198
  558MOL0     C73552   1.420   9.239   1.844 -0.2421  0.5515 -0.3012
  558MOL0     C73553   1.482   9.137   1.933  0.2430 -0.4104 -0.0048
  558MOL0     O73554   1.537   9.037   1.865 -0.5296 -1.0448 -0.0092
  558MOL0     C73555   1.579   8.925   1.933  0.1128  0.4454  0.3052
  558MOL0     C73556   1.671   8.916   2.040  0.6136 -0.5357  0.1776
  558MOL0     C73557   1.700   8.797   2.110  0.0548 -0.0853  0.2502
  558MOL0     C73558   1.637   8.681   2.066  0.1026  0.5364  0.0754
  558MOL0     O73559   1.657   8.551   2.112  0.3555  0.3324  0.4753
  558MOL0     C73560   1.741   8.516   2.219 -0.5481  0.0553  0.3706
  558MOL0     C73561   1.694   8.378   2.250  0.1730  0.3812 -0.2432
  558MOL0     C73562   1.745   8.282   2.144  0.9250  1.1140  0.0825
  558MOL0     C73563   1.663   8.143   2.174 -0.2270 -0.0081  0.4524
  558MOL0     C73564   1.765   8.032   2.154 -0.3223 -1.0064  0.0834
  558MOL0     C73565   1.819   8.010   2.005  0.0814  0.2471  0.7596
  558MOL0     C73566   1.699   7.984   1.911 -0.1414  0.7083  0.5520
  558MOL0     C73567   1.743   8.014   1.772 -0.2705  1.0305  0.0523
  558MOL0    Cl73568   1.874   7.900   1.717  0.1241  0.0857  0.5481
  558MOL0     C73569   1.542   8.684   1.973 -0.5710 -0.1248 -0.8388
  558MOL0     C73570   1.515   8.804   1.906 -0.2791 -0.5962  1.0361
  558MOL0     O73571   1.482   9.149   2.054  0.3320  0.8719 -0.3419
  558MOL0     C73572   1.364   9.197   1.730  0.6390  0.6157 -1.0836
  558MOL0     C73573   1.307   9.286   1.636 -0.4225  0.5652  0.2848
  558MOL0     N73574   0.915   9.877   1.772 -0.5715  0.1373 -0.9266
  558MOL0     N73575   0.935   9.843   1.902 -0.8917  0.1155 -0.6206
  558MOL0     C73576   1.388   8.807   2.640  0.1617 -0.4093 -0.2005
  558MOL0     C73577   1.399   8.669   2.631  0.6970 -0.1811 -0.2351
  558MOL0     C73578   1.342   8.230   2.491  0.4374 -0.3307  0.5298
  558MOL0     C73579   1.372   8.109   2.546 -0.5112  0.1822 -0.1367
  558MOL0     C73580   1.325   7.987   2.498  0.2291 -0.6013 -1.3278
  558MOL0     C73581   1.249   7.981   2.383 -0.1301 -0.4578  1.1087
  558MOL0     O73582   1.192   7.864   2.336 -0.8301  0.3171  0.0661
  558MOL0     C73583   1.255   7.735   2.340 -0.4154 -0.5671 -0.1063
  558MOL0     C73584   1.371   7.717   2.236  0.1208 -0.7238  0.6435
  558MOL0     C73585   1.422   7.576   2.198 -0.1603 -0.0598 -0.3930
  558MOL0     C73586   1.514   7.584   2.074 -0.1381 -0.2770 -0.1166
  558MOL0     C73587   1.510   7.463   1.990  0.2100  0.0587 -0.2431
  558MOL0     C73588   1.501   7.364   1.917 -0.6876 -0.3515  0.6853
  558MOL0     C73589   1.220   8.107   2.317  0.5186  0.7488 -0.5301
  558MOL0     C73590   1.262   8.231   2.370 -0.6561  0.3710 -1.0045
  558MOL0     H73591   1.418   8.639   2.288 -0.0702 -0.5270 -0.0256
  558MOL0     H73592   1.430   8.878   2.311  1.2822 -2.3157 -0.3792
  558MOL0     H73593   1.241   9.062   2.389  0.0499  0.9363 -0.3990
  558MOL0     H73594   1.416   9.090   2.355  0.9346 -0.1441 -0.0969
  558MOL0     H73595   1.417   9.276   2.512  0.8002  0.4497 -1.0577
  558MOL0     H73596   1.247   9.254   2.552  0.0691  1.4176 -0.8822
  558MOL0     H73597   1.214   9.260   2.304  0.4480  2.9160 -1.1964
  558MOL0     H73598   1.381   9.302   2.276 -1.2823 -1.1881 -1.6614
  558MOL0     H73599   1.174   9.484   2.421 -1.1474  3.5471 -2.0167
  558MOL0     H73600   1.349   9.511   2.413 -0.7249  0.1573  1.3051
  558MOL0     H73601   1.304   9.482   2.151  0.8753  0.4512  0.2340
  558MOL0     H73602   1.267   9.641   2.230  0.1650 -0.1882 -3.5488
  558MOL0     H73603   1.038   9.582   2.253 -0.6038 -0.9905  1.5229
  558MOL0     H73604   1.060   9.417   2.201 -0.3848  0.1659 -0.5382
  558MOL0     H73605   1.144   9.492   1.984  2.5099  3.2699 -1.2194
  558MOL0     H73606   0.970   9.555   2.026 -0.2126  2.9936  1.2404
  558MOL0     H73607   1.226   9.708   2.016 -1.2244 -0.6848  2.2050
  558MOL0     H73608   1.082   9.771   2.096 -0.3541 -1.0330  0.8517
  558MOL0     H73609   1.178   9.684   1.719  0.5221  3.5055 -3.6832
  558MOL0     H73610   1.053   9.891   1.490  0.0503  0.9263  2.1854
  558MOL0     H73611   0.877   9.844   1.506  0.0279  0.6844  0.6094
  558MOL0     H73612   0.924   9.672   1.385 -2.1770  1.1455  1.4655
  558MOL0     H73613   0.984   9.600   1.530 -1.8824 -2.1142 -2.3289
  558MOL0     H73614   1.156   9.631   1.298  0.4522 -0.7371 -1.3302
  558MOL0     H73615   1.213   9.714   1.447  0.8610  0.0828 -2.3862
  558MOL0     H73616   1.266   9.448   1.410 -0.1794 -0.7464  1.4487
  558MOL0     H73617   1.109   9.436   1.480  1.4447 -1.8760  0.6703
  558MOL0     H73618   1.356   9.563   1.823 -2.3479  0.1661 -1.5208
  558MOL0     H73619   1.439   9.415   1.977 -4.8095  2.6541 -0.1494
  558MOL0     H73620   1.716   9.008   2.075  1.3753 -1.3961  1.5344
  558MOL0     H73621   1.784   8.804   2.178  0.4386 -0.8484 -0.1380
  558MOL0     H73622   1.711   8.566   2.312  0.4843  1.3862  0.0026
  558MOL0     H73623   1.849   8.517   2.205 -0.4578  2.4276  0.8158
  558MOL0     H73624   1.586   8.382   2.260  0.1052 -0.1623 -0.7465
  558MOL0     H73625   1.733   8.345   2.346  0.6284 -2.5070 -1.3404
  558MOL0     H73626   1.854   8.270   2.142  0.9169 -0.7876  3.3560
  558MOL0     H73627   1.705   8.310   2.047 -1.3489 -0.6915  0.4124
  558MOL0     H73628   1.647   8.131   2.282  0.8971 -1.1551  0.5184
  558MOL0     H73629   1.573   8.137   2.112  0.0586  0.7175 -0.0421
  558MOL0     H73630   1.718   7.938   2.184 -2.4371 -0.2516 -0.7080
  558MOL0     H73631   1.853   8.059   2.214  0.3890 -1.3057 -0.7944
  558MOL0     H73632   1.894   7.930   2.009  0.3844  0.4990  0.2677
  558MOL0     H73633   1.880   8.094   1.968  0.8297 -1.1977 -1.5133
  558MOL0     H73634   1.666   7.880   1.918 -1.5015  0.9382 -1.4598
  558MOL0     H73635   1.616   8.050   1.935 -1.9156 -1.5453  0.9992
  558MOL0     H73636   1.769   8.120   1.769 -0.9486  1.1901 -1.9198
  558MOL0     H73637   1.656   7.997   1.708 -0.0160  3.3436 -1.0136
  558MOL0     H73638   1.490   8.593   1.947 -1.2030 -0.4526  1.3256
  558MOL0     H73639   1.439   8.810   1.829  0.5132  1.0317  0.3466
  558MOL0     H73640   1.350   9.091   1.709  1.5093  0.6847 -2.1020
  558MOL0     H73641   1.271   9.245   1.543  0.3281  4.8977 -2.1928
  558MOL0     H73642   1.381   8.861   2.733 -3.0841 -1.2868  0.2054
  558MOL0     H73643   1.387   8.600   2.714 -1.8033 -0.5988 -0.8556
  558MOL0     H73644   1.427   8.110   2.640  0.6537  0.1105 -0.7982
  558MOL0     H73645   1.350   7.900   2.557 -0.3190  0.8443  1.1685
  558MOL0     H73646   1.169   7.669   2.327  0.2070 -0.8949 -3.3052
  558MOL0     H73647   1.293   7.719   2.441 -1.4936  2.3575  0.8566
  558MOL0     H73648   1.338   7.753   2.138  1.4486  0.3149  0.5471
  558MOL0     H73649   1.447   7.787   2.271 -1.1036  1.7905 -1.4329
  558MOL0     H73650   1.330   7.517   2.190 -0.4594 -0.0512  2.1853
  558MOL0     H73651   1.489   7.545   2.278 -0.2843 -1.4915 -0.8228
  558MOL0     H73652   1.502   7.672   2.011  0.1877  1.5238  2.2008
  558MOL0     H73653   1.619   7.601   2.101  0.3651 -2.2880 -0.6626
  558MOL0     H73654   1.498   7.275   1.857  2.5440  0.1956 -0.5145
  558MOL0     H73655   1.170   8.093   2.222 -1.4676  0.8158  0.4412
  558MOL0     H73656   1.231   8.329   2.336 -1.5340  0.6514  0.4892
  559MOL0     O73657   9.077   2.299   9.464 -0.0114 -0.3969 -0.2723
  559MOL0     C73658   9.178   2.362   9.509 -0.2507  0.3626 -0.0191
  559MOL0     O73659   9.279   2.410   9.443 -0.2428  0.7121 -0.0114
  559MOL0     C73660   9.283   2.392   9.307 -0.1686 -0.9319  0.0595
  559MOL0     C73661   9.280   2.510   9.231  0.4370 -0.4919  0.3164
  559MOL0     C73662   9.288   2.510   9.089  0.0686 -0.7104 -0.4098
  559MOL0     C73663   9.299   2.380   9.022  0.4771 -0.8129 -0.3821
  559MOL0     O73664   9.299   2.352   8.889 -0.2609 -1.2971  0.0056
  559MOL0     C73665   9.258   2.443   8.788  0.1716  0.8679 -0.5234
  559MOL0     C73666   9.327   2.559   8.747 -0.0209  0.0893  0.1949
  559MOL0     C73667   9.472   2.537   8.698 -0.3227 -0.3942  0.2032
  559MOL0     C73668   9.483   2.450   8.572  0.0368  0.7238  0.9875
  559MOL0     C73669   9.504   2.535   8.442  0.1911 -0.8517 -0.0713
  559MOL0     C73670   9.405   2.647   8.416  0.7890  0.5179 -0.4198
  559MOL0     C73671   9.454   2.744   8.306 -0.1070  0.0084 -0.5936
  559MOL0     C73672   9.333   2.835   8.259  0.8763 -0.3615 -0.0087
  559MOL0     N73673   9.266   2.784   8.141  0.0656 -0.0688  0.4634
  559MOL0     C73674   9.188   2.670   8.140 -0.3618  0.4292  0.0059
  559MOL0     C73675   9.149   2.672   8.010 -0.7048 -0.7732  0.2371
  559MOL0     C73676   9.067   2.564   7.954  0.4934  0.9474  0.0821
  559MOL0     C73677   8.927   2.537   8.026 -0.0850  0.3368 -0.2368
  559MOL0     C73678   8.827   2.611   7.937  0.3533 -0.4945 -0.0323
  559MOL0     C73679   8.683   2.618   7.995 -0.3791  1.3224  0.6382
  559MOL0     O73680   8.595   2.672   7.897 -0.6546 -0.7170  0.5865
  559MOL0     C73681   8.468   2.671   7.922  0.0557  0.3390  0.1158
  559MOL0     C73682   8.399   2.608   8.020 -0.0650  0.1292  0.2847
  559MOL0     C73683   8.261   2.644   8.040  0.7069  0.3437 -0.5616
  559MOL0     C73684   8.189   2.719   7.947  0.3262  0.7887  0.0862
  559MOL0     C73685   8.050   2.748   7.960  0.4708 -0.8800  0.0462
  559MOL0     O73686   7.997   2.692   8.077  0.5691 -0.2629 -0.7420
  559MOL0     C73687   7.885   2.751   8.139  0.3646 -0.8872 -0.3481
  559MOL0     C73688   7.794   2.672   8.213 -0.4808  0.7440  1.5153
  559MOL0     C73689   7.675   2.724   8.273 -0.6309  0.8120  0.6959
  559MOL0     C73690   7.657   2.862   8.274 -0.1426  0.7135  0.3712
  559MOL0     O73691   7.547   2.915   8.339 -0.0071 -0.2869  0.0378
  559MOL0     C73692   7.532   3.057   8.362  0.7871 -0.2452 -0.4064
  559MOL0     C73693   7.421   3.093   8.454 -0.6566 -0.8038 -0.5004
  559MOL0     C73694   7.282   3.030   8.415  0.2336 -0.3662 -0.1863
  559MOL0     C73695   7.178   3.120   8.477  0.3489 -0.4276  0.2110
  559MOL0     C73696   7.034   3.078   8.452 -0.4699  1.2100 -0.0519
  559MOL0     C73697   6.932   3.194   8.420 -0.0042 -0.1097  0.8404
  559MOL0     C73698   6.806   3.129   8.365 -0.6457  0.4421 -0.0218
  559MOL0     C73699   6.685   3.225   8.384  0.7805  0.0238  0.5810
  559MOL0    Cl73700   6.535   3.179   8.294 -0.0498  0.2001  0.7441
  559MOL0     C73701   7.747   2.937   8.200 -0.4085  0.7411  0.0574
  559MOL0     C73702   7.860   2.888   8.141  0.0023  0.3203 -0.0343
  559MOL0     O73703   7.991   2.824   7.882  0.5080  0.0420  0.3679
  559MOL0     C73704   8.257   2.777   7.835 -0.1236  1.0585 -0.7656
  559MOL0     C73705   8.397   2.751   7.836 -0.6059  0.9350  0.6716
  559MOL0     N73706   9.200   2.773   7.940 -0.5834  0.8221  0.3711
  559MOL0     N73707   9.266   2.849   8.018  0.2946  0.1259 -0.3138
  559MOL0     C73708   9.289   2.263   9.109  0.4828  0.8398  0.3034
  559MOL0     C73709   9.289   2.274   9.241  0.5056 -0.1198  0.0166
  559MOL0     C73710   9.167   2.398   9.655 -0.7515 -0.2691  0.0968
  559MOL0     C73711   9.284   2.391   9.742 -0.1495 -0.3053 -0.4702
  559MOL0     C73712   9.285   2.428   9.874 -0.1840 -0.0908 -0.3281
  559MOL0     C73713   9.163   2.468   9.926 -1.0266  0.5675  0.3039
  559MOL0     O73714   9.144   2.517  10.055 -0.1775  0.2297  0.5679
  559MOL0     C73715   9.233   2.456  10.155  0.0350  0.3590 -0.4476
  559MOL0     C73716   9.174   2.484  10.296  0.3910  0.0600 -0.8021
  559MOL0     C73717   9.045   2.409  10.322  0.1439 -0.0048 -0.0026
  559MOL0     C73718   8.991   2.419  10.457  0.0452 -0.4763  0.2075
  559MOL0     C73719   9.070   2.342  10.557 -0.0216 -0.4429 -0.7272
  559MOL0     C73720   9.159   2.289  10.623 -0.5225  0.0307 -1.4789
  559MOL0     C73721   9.049   2.465   9.850  0.5222 -0.9479  1.2242
  559MOL0     C73722   9.051   2.443   9.712  0.9100 -0.3826  0.6592
  559MOL0     H73723   9.279   2.600   9.292  1.5383 -0.9860  1.1152
  559MOL0     H73724   9.302   2.605   9.038  3.2951 -0.6857  0.2892
  559MOL0     H73725   9.157   2.474   8.814 -0.1486 -0.3305 -0.2450
  559MOL0     H73726   9.249   2.378   8.700  1.3364  1.8781 -1.4358
  559MOL0     H73727   9.333   2.630   8.830  0.0710  4.0727 -2.9216
  559MOL0     H73728   9.275   2.615   8.668  2.0171  0.3062 -1.0764
  559MOL0     H73729   9.535   2.490   8.775 -0.2755  0.2276  0.5509
  559MOL0     H73730   9.510   2.637   8.676 -1.8810 -0.5628 -3.9981
  559MOL0     H73731   9.577   2.395   8.581 -2.4452 -3.8481  2.6139
  559MOL0     H73732   9.405   2.375   8.557 -1.6617  2.8065 -1.3379
  559MOL0     H73733   9.508   2.471   8.353 -1.1240  0.7458 -1.3415
  559MOL0     H73734   9.604   2.578   8.454  1.1409 -2.7052 -0.9420
  559MOL0     H73735   9.386   2.714   8.500  5.1620 -0.4203  1.6078
  559MOL0     H73736   9.309   2.613   8.376  0.6054 -1.3342  1.4116
  559MOL0     H73737   9.540   2.801   8.341 -0.3082  0.1710 -0.3597
  559MOL0     H73738   9.494   2.698   8.215  2.6861 -0.5598  0.8183
  559MOL0     H73739   9.358   2.934   8.219  0.6518 -1.0123 -1.8482
  559MOL0     H73740   9.256   2.829   8.337 -0.8044 -1.7799 -1.7135
  559MOL0     H73741   9.169   2.590   8.212 -0.8236 -0.6308 -1.2609
  559MOL0     H73742   9.116   2.467   7.960  2.0310  1.5965 -1.3825
  559MOL0     H73743   9.056   2.584   7.847  2.3234 -1.1863 -0.5760
  559MOL0     H73744   8.932   2.578   8.128 -0.0805 -0.0733 -0.0712
  559MOL0     H73745   8.903   2.431   8.026  0.3592  0.2052  1.3490
  559MOL0     H73746   8.869   2.712   7.929 -1.5199  0.3275  0.0059
  559MOL0     H73747   8.832   2.580   7.832 -1.5168  2.0758 -0.9783
  559MOL0     H73748   8.685   2.664   8.094 -2.0892 -1.2425  1.9741
  559MOL0     H73749   8.663   2.512   8.014  0.0018  0.3691 -3.3719
  559MOL0     H73750   8.437   2.535   8.091 -2.1393 -0.2509  1.0597
  559MOL0     H73751   8.211   2.605   8.128  0.8435  1.2202 -0.0764
  559MOL0     H73752   7.801   2.564   8.212 -1.1843  0.6830  0.4812
  559MOL0     H73753   7.602   2.670   8.330 -0.1610 -0.1850  0.3699
  559MOL0     H73754   7.517   3.094   8.260  1.1383 -1.9901 -1.1370
  559MOL0     H73755   7.626   3.099   8.399  0.4989 -0.7306  0.9448
  559MOL0     H73756   7.417   3.201   8.469  0.7735 -0.9257  0.9462
  559MOL0     H73757   7.451   3.074   8.557  1.2565  0.0277 -0.8743
  559MOL0     H73758   7.264   2.925   8.439  0.1584 -0.9178 -2.4508
  559MOL0     H73759   7.279   3.034   8.306 -0.7712 -3.1636 -0.3444
  559MOL0     H73760   7.198   3.134   8.584  2.1893 -2.6221  0.2195
  559MOL0     H73761   7.194   3.214   8.424  0.9697 -0.2979  0.6076
  559MOL0     H73762   6.993   3.028   8.541  0.0138  2.5936  0.9725
  559MOL0     H73763   7.041   2.992   8.384 -0.1218  0.5079  0.8496
  559MOL0     H73764   6.960   3.253   8.331 -1.5263  1.5183  1.3933
  559MOL0     H73765   6.908   3.260   8.503 -0.4762  0.1922  0.4707
  559MOL0     H73766   6.819   3.113   8.258 -1.5186  2.4159 -0.4706
  559MOL0     H73767   6.794   3.033   8.415  2.7672 -1.3499 -2.2825
  559MOL0     H73768   6.708   3.328   8.356 -0.9780  0.3727  0.3293
  559MOL0     H73769   6.658   3.231   8.490  3.3518  0.8833  1.2512
  559MOL0     H73770   7.732   3.044   8.196 -0.0229  0.9175  2.2368
  559MOL0     H73771   7.931   2.950   8.088 -0.7367  1.8102  0.6671
  559MOL0     H73772   8.221   2.835   7.751  0.6194 -1.3061 -2.8691
  559MOL0     H73773   8.453   2.803   7.760  0.5336  0.0255  0.8610
  559MOL0     H73774   9.260   2.166   9.071 -1.0648  1.2070  0.4686
  559MOL0     H73775   9.267   2.188   9.302  0.2507  0.5390  0.8758
  559MOL0     H73776   9.380   2.350   9.713 -0.0878  0.3459 -1.2165
  559MOL0     H73777   9.377   2.443   9.929 -1.3738 -1.1374  2.0874
  559MOL0     H73778   9.332   2.502  10.145 -0.6816  2.0571 -0.0869
  559MOL0     H73779   9.238   2.348  10.143  1.2202  0.6367 -2.9863
  559MOL0     H73780   9.246   2.459  10.374  2.9683  2.2159 -2.3316
  559MOL0     H73781   9.161   2.593  10.299  0.4078  0.2161 -3.5881
  559MOL0     H73782   9.048   2.306  10.284  1.5236 -1.4161  3.4784
  559MOL0     H73783   8.982   2.460  10.249  0.4772  0.7870  0.2595
  559MOL0     H73784   8.976   2.522  10.490  2.2066 -0.4210  1.1982
  559MOL0     H73785   8.896   2.365  10.464 -1.6267  2.0830 -1.2056
  559MOL0     H73786   9.232   2.233  10.678  0.2321  1.5195 -0.9257
  559MOL0     H73787   8.953   2.487   9.895 -2.1289  0.4639 -4.1781
  559MOL0     H73788   8.955   2.434   9.663 -1.0327  2.0137  3.6240
  560MOL0     O73789   8.182  10.263   5.219  0.0186  0.1377 -0.2695
  560MOL0     C73790   8.098  10.253   5.125  0.4208 -0.2829  0.5589
  560MOL0     O73791   7.982  10.176   5.120  0.2163  0.6761 -0.7357
  560MOL0     C73792   7.945  10.087   5.219 -0.2537 -0.1756  0.0414
  560MOL0     C73793   7.987  10.087   5.355 -0.2053  0.3115 -0.6496
  560MOL0     C73794   7.936   9.983   5.436 -0.3829  0.6808 -0.3799
  560MOL0     C73795   7.849   9.891   5.382  0.8112 -1.2038  0.3014
  560MOL0     O73796   7.816   9.796   5.476 -0.3073  0.5283 -0.1694
  560MOL0     C73797   7.682   9.743   5.452 -1.0403 -0.4792 -0.5641
  560MOL0     C73798   7.658   9.611   5.524  0.5580 -0.0917  0.8607
  560MOL0     C73799   7.701   9.625   5.670 -0.0098  0.6511 -0.0795
  560MOL0     C73800   7.704   9.486   5.742 -0.2180  0.1964  0.4612
  560MOL0     C73801   7.725   9.504   5.895  0.0060 -0.7723  0.7453
  560MOL0     C73802   7.665   9.390   5.963  0.1835 -0.2576 -0.2855
  560MOL0     C73803   7.693   9.394   6.110 -0.0824 -0.0462 -1.2442
  560MOL0     C73804   7.587   9.476   6.182  0.3181  0.3357 -0.3261
  560MOL0     N73805   7.597   9.456   6.323  0.0866 -0.1597  0.0974
  560MOL0     C73806   7.528   9.370   6.406  0.1195 -0.0941  0.1933
  560MOL0     C73807   7.608   9.346   6.516  0.9345 -1.0702 -0.1084
  560MOL0     C73808   7.588   9.229   6.616  0.6174 -0.2736  0.2163
  560MOL0     C73809   7.473   9.253   6.715  0.1784  0.6258  0.6775
  560MOL0     C73810   7.446   9.140   6.806  0.2714 -0.1516  0.2711
  560MOL0     C73811   7.326   9.145   6.887  0.7732  0.0682 -0.2136
  560MOL0     O73812   7.310   9.269   6.954  0.1152  0.8228  1.0048
  560MOL0     C73813   7.196   9.288   7.038  1.4850 -0.2691 -0.2920
  560MOL0     C73814   7.126   9.186   7.110  0.2430 -0.3139 -0.3144
  560MOL0     C73815   7.016   9.222   7.188  0.4520 -0.7033  0.7069
  560MOL0     C73816   6.970   9.357   7.188 -0.7843  0.8532  0.8397
  560MOL0     C73817   6.861   9.393   7.285 -0.3240  1.4944  0.7601
  560MOL0     O73818   6.805   9.510   7.267  0.3042  0.6865 -0.0288
  560MOL0     C73819   6.711   9.550   7.360 -0.3381  0.8755  0.5106
  560MOL0     C73820   6.749   9.649   7.452 -0.3729  0.2275 -0.1142
  560MOL0     C73821   6.666   9.710   7.545 -0.4477  0.2053 -0.8861
  560MOL0     C73822   6.533   9.655   7.551 -0.7527  0.6757  0.3119
  560MOL0     O73823   6.438   9.692   7.639  0.3880 -0.3402  0.3247
  560MOL0     C73824   6.474   9.741   7.770 -0.6994 -0.6097  1.3798
  560MOL0     C73825   6.367   9.763   7.864  0.2681 -0.1213  0.4685
  560MOL0     C73826   6.442   9.840   7.982  0.6208  0.8033 -0.0707
  560MOL0     C73827   6.348   9.860   8.106 -0.0419 -0.5531 -0.4539
  560MOL0     C73828   6.406   9.883   8.242 -0.5776  0.3696 -0.1201
  560MOL0     C73829   6.486  10.011   8.232  0.1617  0.1432 -0.7305
  560MOL0     C73830   6.629   9.980   8.182  0.1996  0.2386 -0.0060
  560MOL0     C73831   6.729  10.067   8.255 -0.6447  0.1570  0.3085
  560MOL0    Cl73832   6.685  10.245   8.253  0.3036  0.4836 -0.0266
  560MOL0     C73833   6.490   9.580   7.446  0.0130 -0.1966 -0.1844
  560MOL0     C73834   6.576   9.530   7.348  0.5705  0.2408  0.2905
  560MOL0     O73835   6.821   9.312   7.364 -0.0014  0.2240 -0.7384
  560MOL0     C73836   7.028   9.457   7.116 -0.3852  0.0245 -0.7152
  560MOL0     C73837   7.141   9.424   7.040 -0.2898  0.5963  0.1730
  560MOL0     N73838   7.709   9.441   6.506 -0.6514  0.6789 -0.3611
  560MOL0     N73839   7.694   9.507   6.399 -0.0949  0.1005  0.0071
  560MOL0     C73840   7.789   9.907   5.255  1.3026 -0.8790 -0.0777
  560MOL0     C73841   7.834  10.009   5.175  0.0352  0.3347  1.9311
  560MOL0     C73842   8.146  10.328   5.005 -0.1541  0.2338 -0.1750
  560MOL0     C73843   8.064  10.342   4.889 -1.3303  0.1621  0.3847
  560MOL0     C73844   8.105  10.399   4.771  0.7758  0.5597 -0.3176
  560MOL0     C73845   8.229  10.463   4.771 -0.2676 -0.2801  0.0338
  560MOL0     O73846   8.280  10.534   4.666 -1.1274  0.3826 -0.2208
  560MOL0     C73847   8.215  10.557   4.544 -0.8489 -0.3612  0.2606
  560MOL0     C73848   8.251  10.462   4.427 -0.4184  0.3224  0.0328
  560MOL0     C73849   8.164  10.466   4.302  0.4414 -0.2163 -0.4234
  560MOL0     C73850   8.201  10.374   4.183  0.4292 -0.2557 -0.0542
  560MOL0     C73851   8.345  10.346   4.167  0.1267  0.2651  0.2267
  560MOL0     C73852   8.456  10.316   4.141 -0.1877 -0.1213  0.9315
  560MOL0     C73853   8.316  10.455   4.881 -0.4665 -0.7676 -0.0525
  560MOL0     C73854   8.280  10.387   4.997 -0.4772  0.6044  0.3502
  560MOL0     H73855   8.053  10.167   5.388 -0.8417  1.9417 -3.0977
  560MOL0     H73856   7.954   9.970   5.543 -0.9922  0.7766 -0.2626
  560MOL0     H73857   7.675   9.708   5.348  1.2707  0.6134 -1.1633
  560MOL0     H73858   7.604   9.816   5.474 -0.5475 -0.4425  1.2061
  560MOL0     H73859   7.722   9.537   5.474 -0.5176  0.3907 -1.3611
  560MOL0     H73860   7.557   9.571   5.516  1.0679 -1.3939  0.7225
  560MOL0     H73861   7.638   9.700   5.719  1.4559  0.7958  1.6829
  560MOL0     H73862   7.797   9.678   5.670 -0.5906  1.7706  1.1734
  560MOL0     H73863   7.607   9.434   5.738 -1.3807  1.9206  3.4192
  560MOL0     H73864   7.777   9.419   5.696 -1.5707  0.8570 -2.9505
  560MOL0     H73865   7.688   9.600   5.932  2.0821  0.8260 -1.0784
  560MOL0     H73866   7.832   9.513   5.914  0.0460  4.2775 -0.5975
  560MOL0     H73867   7.719   9.303   5.923 -0.6030 -1.6254  1.5107
  560MOL0     H73868   7.557   9.380   5.951 -0.1089  1.4911  0.6257
  560MOL0     H73869   7.690   9.296   6.158  1.0143  0.9608  1.0707
  560MOL0     H73870   7.790   9.441   6.128 -0.3254 -0.0329  0.2104
  560MOL0     H73871   7.489   9.439   6.150 -0.1314  0.8617  0.4199
  560MOL0     H73872   7.597   9.584   6.168 -3.2104  0.5681 -2.6726
  560MOL0     H73873   7.440   9.309   6.388  0.6698 -0.6872 -0.5532
  560MOL0     H73874   7.687   9.214   6.662  1.6501 -2.3773 -2.4444
  560MOL0     H73875   7.577   9.144   6.548  0.1389  1.3671 -1.8357
  560MOL0     H73876   7.387   9.289   6.659  1.5816  2.1612 -0.5948
  560MOL0     H73877   7.499   9.337   6.780  0.0515 -0.5930  2.3801
  560MOL0     H73878   7.437   9.044   6.754 -0.2938 -2.3981  4.1756
  560MOL0     H73879   7.526   9.120   6.877 -0.1087  0.4367  0.8707
  560MOL0     H73880   7.340   9.069   6.964 -3.3658 -1.2404 -0.5135
  560MOL0     H73881   7.237   9.122   6.827 -0.8389  1.4614  1.5231
  560MOL0     H73882   7.156   9.082   7.105  1.4727  0.0237 -0.3285
  560MOL0     H73883   6.969   9.142   7.245 -1.3479 -0.8131 -0.8504
  560MOL0     H73884   6.849   9.691   7.451 -0.4392  0.5659  2.0658
  560MOL0     H73885   6.687   9.786   7.621  4.2902 -0.4091 -1.2644
  560MOL0     H73886   6.520   9.840   7.769 -1.2995 -0.3163  1.8527
  560MOL0     H73887   6.539   9.670   7.821 -2.3471 -1.3006  2.6073
  560MOL0     H73888   6.326   9.666   7.894 -1.3763  0.6565  0.8814
  560MOL0     H73889   6.284   9.819   7.818 -0.9555 -1.5555  0.8521
  560MOL0     H73890   6.486   9.935   7.952  2.0880  0.3577  0.5913
  560MOL0     H73891   6.523   9.770   8.006  0.6048  0.6816 -0.3620
  560MOL0     H73892   6.280   9.944   8.088  1.8714  1.2121  0.1352
  560MOL0     H73893   6.278   9.777   8.118 -3.9940  2.8207  5.9369
  560MOL0     H73894   6.458   9.795   8.280 -1.5793 -0.6396 -0.9660
  560MOL0     H73895   6.321   9.890   8.310  0.0540 -1.9685  1.0227
  560MOL0     H73896   6.484  10.059   8.330  0.5947  1.5922 -1.3973
  560MOL0     H73897   6.448  10.099   8.179 -0.0980  1.2778  1.2524
  560MOL0     H73898   6.659   9.876   8.197 -2.5518 -0.3642  2.0338
  560MOL0     H73899   6.643  10.004   8.076  1.2015 -0.4506 -0.0416
  560MOL0     H73900   6.830  10.046   8.219  0.4319  0.3901  3.0068
  560MOL0     H73901   6.720  10.023   8.354 -1.9696  1.9645  1.0425
  560MOL0     H73902   6.384   9.568   7.427  0.1075  1.9946 -2.6531
  560MOL0     H73903   6.537   9.471   7.265  1.4571  0.6581 -0.4481
  560MOL0     H73904   6.994   9.559   7.134 -2.1148 -0.9702  2.4079
  560MOL0     H73905   7.188   9.494   6.972  0.1988  2.5244  2.3409
  560MOL0     H73906   7.711   9.849   5.207  1.2384 -1.3040  0.5350
  560MOL0     H73907   7.800  10.024   5.073  1.0290 -1.3610  1.3216
  560MOL0     H73908   7.967  10.293   4.889 -1.8906  1.0544 -2.3901
  560MOL0     H73909   8.046  10.403   4.680 -0.5892 -1.7608  0.3818
  560MOL0     H73910   8.224  10.664   4.522 -1.8665 -0.0726  1.1968
  560MOL0     H73911   8.108  10.546   4.565 -1.4558  0.9112 -1.9332
  560MOL0     H73912   8.353  10.478   4.391  0.5879 -0.7115  2.2159
  560MOL0     H73913   8.246  10.358   4.460 -0.8814  0.4633  0.4160
  560MOL0     H73914   8.158  10.567   4.261  3.3412 -0.2534 -1.1608
  560MOL0     H73915   8.063  10.447   4.340  1.1452  0.2287  1.8629
  560MOL0     H73916   8.148  10.279   4.192  1.1710 -0.9340 -2.1301
  560MOL0     H73917   8.162  10.415   4.089  0.5578 -0.9283 -0.4091
  560MOL0     H73918   8.549  10.274   4.106 -2.0672 -4.3023  0.3153
  560MOL0     H73919   8.408  10.511   4.889 -2.1377  1.9243  1.9054
  560MOL0     H73920   8.352  10.381   5.078 -0.6988  0.0041  0.5120
  561MOL0     O73921   5.204   7.026   7.230  0.0036  0.0745  0.0529
  561MOL0     C73922   5.124   6.993   7.318 -0.0155  1.1925  0.2964
  561MOL0     O73923   5.030   6.892   7.305 -0.1486  0.2948 -0.3277
  561MOL0     C73924   5.029   6.796   7.209 -0.6495 -0.5637  0.2967
  561MOL0     C73925   4.910   6.724   7.187 -0.0912 -0.5841  0.0183
  561MOL0     C73926   4.902   6.620   7.089 -0.5340  0.4169  0.2547
  561MOL0     C73927   5.013   6.578   7.013 -1.2519  0.2563 -0.2852
  561MOL0     O73928   5.007   6.485   6.916 -0.2618  0.5319 -0.1521
  561MOL0     C73929   5.125   6.407   6.903 -0.6316  0.8176  0.2878
  561MOL0     C73930   5.106   6.285   6.813  0.0585  0.1288 -0.9605
  561MOL0     C73931   5.217   6.181   6.834  0.9680 -0.2787 -0.6682
  561MOL0     C73932   5.341   6.222   6.763  1.0187 -0.4335 -1.6032
  561MOL0     C73933   5.472   6.149   6.796  0.4014 -0.4523 -0.0092
  561MOL0     C73934   5.548   6.194   6.922 -0.4435 -0.1256 -0.3441
  561MOL0     C73935   5.516   6.110   7.051  0.0567 -0.3389 -0.0182
  561MOL0     C73936   5.597   6.166   7.174  0.9168  0.8175  0.0123
  561MOL0     N73937   5.739   6.136   7.156  0.3675 -0.0355 -0.0020
  561MOL0     C73938   5.805   6.014   7.136  0.0773 -0.9082 -0.3227
  561MOL0     C73939   5.936   6.056   7.130 -0.1068 -0.2383 -0.1992
  561MOL0     C73940   6.062   5.965   7.123  0.9768  0.8603  0.1868
  561MOL0     C73941   6.122   5.925   7.266  0.3782 -0.8466  0.1984
  561MOL0     C73942   6.204   5.793   7.250 -0.2755 -0.1226  0.6301
  561MOL0     C73943   6.281   5.739   7.372  0.0549  0.0489 -0.5058
  561MOL0     O73944   6.320   5.609   7.328 -1.1669  0.2801  0.3525
  561MOL0     C73945   6.422   5.541   7.392  0.1277 -0.9046 -0.7365
  561MOL0     C73946   6.505   5.598   7.490  0.1821  0.7601 -0.6685
  561MOL0     C73947   6.607   5.511   7.543 -0.1106  0.1947  0.3482
  561MOL0     C73948   6.618   5.371   7.513  0.3029 -0.6482  0.2269
  561MOL0     C73949   6.701   5.277   7.592 -0.6987 -0.9257 -0.4012
  561MOL0     O73950   6.809   5.336   7.653 -0.1534  0.0744  0.5078
  561MOL0     C73951   6.850   5.291   7.781 -0.4020  0.3227  1.1093
  561MOL0     C73952   6.775   5.226   7.874 -0.5277  0.2968 -0.1758
  561MOL0     C73953   6.839   5.172   7.994  0.3089 -0.9261 -0.2187
  561MOL0     C73954   6.973   5.201   8.027  0.4044  0.2481 -0.3683
  561MOL0     O73955   7.030   5.136   8.135 -0.4204 -0.6478  0.1035
  561MOL0     C73956   7.178   5.131   8.149  0.4695  0.6900 -0.0746
  561MOL0     C73957   7.218   5.073   8.287  1.1382 -0.0632  0.1278
  561MOL0     C73958   7.373   5.067   8.302  0.3982 -0.4318 -0.0887
  561MOL0     C73959   7.417   4.978   8.423  0.2455 -1.0227  0.3292
  561MOL0     C73960   7.388   5.053   8.558  0.4659 -0.7452 -0.0342
  561MOL0     C73961   7.453   5.193   8.561 -0.2669 -0.3710 -0.8563
  561MOL0     C73962   7.474   5.253   8.705 -0.1713  0.6507 -0.6834
  561MOL0     C73963   7.575   5.174   8.794 -0.1946  0.7327  0.5037
  561MOL0    Cl73964   7.737   5.145   8.708  0.2667  0.2519  0.0505
  561MOL0     C73965   7.041   5.273   7.928 -0.4570  0.5883 -0.3470
  561MOL0     C73966   6.984   5.322   7.810  0.2836  0.0367 -0.3464
  561MOL0     O73967   6.653   5.168   7.614  0.3345 -0.3477 -0.0566
  561MOL0     C73968   6.536   5.320   7.416 -1.0296 -0.0922  0.5903
  561MOL0     C73969   6.438   5.407   7.355 -0.1799 -0.5315  0.7804
  561MOL0     N73970   5.954   6.188   7.151 -0.2605 -0.0648  0.7460
  561MOL0     N73971   5.830   6.234   7.163 -0.0415 -0.4005  0.0444
  561MOL0     C73972   5.124   6.667   7.024 -0.1422 -0.1160 -0.2646
  561MOL0     C73973   5.137   6.774   7.117  0.0541 -0.3453  0.3104
  561MOL0     C73974   5.152   7.046   7.452 -1.3436 -0.2278  0.5352
  561MOL0     C73975   5.062   7.037   7.558 -0.6641  0.0742  0.7559
  561MOL0     C73976   5.091   7.091   7.690  1.3448  1.1635 -0.4947
  561MOL0     C73977   5.216   7.152   7.714  0.3479  0.3220 -0.4218
  561MOL0     O73978   5.263   7.205   7.834 -0.0879  0.0394 -0.0801
  561MOL0     C73979   5.169   7.254   7.931 -0.4720 -0.4755  0.1668
  561MOL0     C73980   5.242   7.264   8.073  0.6721  0.3874  0.2591
  561MOL0     C73981   5.145   7.258   8.194 -1.4747  0.2385  0.4434
  561MOL0     C73982   5.233   7.274   8.326  0.2730 -0.7514 -0.7664
  561MOL0     C73983   5.292   7.150   8.379  0.6942  0.5929  0.9201
  561MOL0     C73984   5.330   7.045   8.415 -0.2236 -0.3274  0.5843
  561MOL0     C73985   5.295   7.167   7.608 -0.1342 -0.2254 -0.3268
  561MOL0     C73986   5.272   7.109   7.479 -0.7071 -0.2439 -0.7685
  561MOL0     H73987   4.825   6.742   7.252 -1.7294  0.1033 -2.1969
  561MOL0     H73988   4.816   6.557   7.065 -0.6351  1.8243 -3.8579
  561MOL0     H73989   5.156   6.373   7.002 -0.6684  2.4482  0.8848
  561MOL0     H73990   5.214   6.454   6.858  0.4171 -2.6438 -1.5926
  561MOL0     H73991   5.106   6.336   6.716  0.3705 -1.5077 -1.8528
  561MOL0     H73992   5.007   6.241   6.826 -0.1006  0.0909 -2.2151
  561MOL0     H73993   5.178   6.083   6.806  1.1168 -0.5982  0.2041
  561MOL0     H73994   5.244   6.180   6.940  6.4686  0.6032 -1.7369
  561MOL0     H73995   5.321   6.205   6.657  1.2324  2.9218 -2.2929
  561MOL0     H73996   5.376   6.325   6.772  4.6019 -1.5872 -0.8850
  561MOL0     H73997   5.535   6.155   6.706 -0.2192 -0.5370 -0.4532
  561MOL0     H73998   5.436   6.046   6.798  0.1670 -0.4435 -1.9482
  561MOL0     H73999   5.532   6.302   6.933  0.6709  0.0224 -0.0700
  561MOL0     H74000   5.652   6.173   6.897  0.6539 -0.3635  3.8458
  561MOL0     H74001   5.410   6.103   7.075 -0.5148  3.5394 -0.7477
  561MOL0     H74002   5.551   6.007   7.038  1.2108 -0.0152  0.4455
  561MOL0     H74003   5.564   6.122   7.269  0.5708  1.7162  0.3251
  561MOL0     H74004   5.586   6.275   7.170  2.9876  1.0320 -0.8405
  561MOL0     H74005   5.769   5.914   7.115  0.3246 -0.5417 -2.7717
  561MOL0     H74006   6.141   6.006   7.059  2.5888 -2.6988 -0.3315
  561MOL0     H74007   6.031   5.874   7.072 -2.2736  2.7080 -1.4283
  561MOL0     H74008   6.050   5.910   7.346 -0.6581 -0.3277 -0.6117
  561MOL0     H74009   6.194   6.002   7.297 -0.1541 -1.6081  3.6894
  561MOL0     H74010   6.125   5.723   7.220 -0.0137  0.6428 -1.9959
  561MOL0     H74011   6.276   5.795   7.169  3.3322  0.0092  3.5882
  561MOL0     H74012   6.230   5.737   7.468  2.0101  0.3797  0.5894
  561MOL0     H74013   6.371   5.800   7.382  0.0578 -0.0951  0.4419
  561MOL0     H74014   6.501   5.702   7.522 -0.4973  0.1970  1.2272
  561MOL0     H74015   6.659   5.561   7.624  1.0050 -0.1900 -0.1146
  561MOL0     H74016   6.671   5.219   7.844  0.2349  1.7174 -3.6684
  561MOL0     H74017   6.773   5.113   8.058  0.9006 -1.1260  0.2158
  561MOL0     H74018   7.223   5.229   8.134 -1.4129  2.0356  2.3418
  561MOL0     H74019   7.203   5.051   8.078 -0.1080  0.5637 -0.1376
  561MOL0     H74020   7.170   4.976   8.304 -2.4859  1.1468 -1.9535
  561MOL0     H74021   7.178   5.147   8.358 -0.1916 -1.4305  0.8541
  561MOL0     H74022   7.411   5.169   8.312 -0.5024  0.3142 -3.0734
  561MOL0     H74023   7.413   5.024   8.210 -0.4475  0.8942 -1.1146
  561MOL0     H74024   7.354   4.888   8.419 -3.5504  1.2699  2.0346
  561MOL0     H74025   7.522   4.963   8.399 -0.1174 -0.6142 -1.6893
  561MOL0     H74026   7.418   4.999   8.649  2.3137 -0.3335 -0.3698
  561MOL0     H74027   7.280   5.070   8.551  0.9721  2.8041 -1.2643
  561MOL0     H74028   7.391   5.270   8.513 -1.9747 -1.5513 -0.6627
  561MOL0     H74029   7.551   5.177   8.516 -0.1523  0.9393 -1.1191
  561MOL0     H74030   7.510   5.356   8.701  2.1841 -0.1192 -0.4414
  561MOL0     H74031   7.385   5.261   8.768 -0.0591 -0.9640 -0.2748
  561MOL0     H74032   7.520   5.085   8.829 -1.6168  0.7691 -1.4559
  561MOL0     H74033   7.591   5.235   8.883  0.9339  0.2105  0.6832
  561MOL0     H74034   7.146   5.294   7.941  0.0584 -2.0230  0.4468
  561MOL0     H74035   7.037   5.375   7.731 -1.1783  1.6071 -0.3389
  561MOL0     H74036   6.539   5.215   7.388 -2.8687 -0.8220  2.7195
  561MOL0     H74037   6.381   5.357   7.278  1.2293 -0.8021 -0.1149
  561MOL0     H74038   5.204   6.638   6.957 -0.7406  1.6862 -1.8525
  561MOL0     H74039   5.235   6.819   7.117  0.3015 -0.7226 -2.2092
  561MOL0     H74040   4.966   6.988   7.541 -0.0928 -0.6514 -0.5676
  561MOL0     H74041   5.011   7.073   7.762  1.2371 -2.2743 -1.3095
  561MOL0     H74042   5.085   7.184   7.934 -0.2972 -0.6650  2.6745
  561MOL0     H74043   5.139   7.355   7.901  0.1422 -0.8024 -1.7037
  561MOL0     H74044   5.314   7.183   8.086 -0.6329 -0.7218  0.7506
  561MOL0     H74045   5.295   7.359   8.065  0.2074  0.5555 -1.1004
  561MOL0     H74046   5.105   7.156   8.192  1.5779 -1.0853  0.6314
  561MOL0     H74047   5.067   7.334   8.186 -0.9339  0.7562 -0.0199
  561MOL0     H74048   5.302   7.360   8.321 -2.4286  1.7014  0.7802
  561MOL0     H74049   5.164   7.299   8.407 -3.3101 -1.1635 -3.4656
  561MOL0     H74050   5.365   6.948   8.446  0.4681 -1.1430 -2.3557
  561MOL0     H74051   5.385   7.226   7.620  0.4044 -0.6879 -1.9277
  561MOL0     H74052   5.337   7.134   7.396  1.1749 -0.0541  0.6919
  562MOL0     O74053   9.916  11.129   7.062  0.3686 -0.5697  0.0191
  562MOL0     C74054   9.815  11.163   7.000  1.0716  0.5388  0.2590
  562MOL0     O74055   9.809  11.231   6.884 -0.3978  0.1056 -0.1766
  562MOL0     C74056   9.927  11.274   6.823  1.0451  0.3433  0.8336
  562MOL0     C74057   9.947  11.406   6.800 -0.8365 -0.3931 -0.8736
  562MOL0     C74058  10.059  11.463   6.743 -0.2152 -0.0369  0.1472
  562MOL0     C74059  10.167  11.374   6.703 -0.2420  0.6642  0.3076
  562MOL0     O74060  10.288  11.416   6.651  0.9980 -0.2819  0.3443
  562MOL0     C74061  10.309  11.558   6.639 -0.8383 -0.4193  0.0891
  562MOL0     C74062  10.453  11.565   6.580  0.4187 -0.8672  0.9276
  562MOL0     C74063  10.553  11.498   6.677 -0.7155  0.4320  0.1368
  562MOL0     C74064  10.705  11.535   6.648  0.2797  0.9227 -0.8078
  562MOL0     C74065  10.804  11.468   6.749 -0.1984 -0.7175 -0.3195
  562MOL0     C74066  10.952  11.505   6.714  0.2044  1.0369 -0.0595
  562MOL0     C74067  11.053  11.449   6.811  0.0893  0.5002  0.2586
  562MOL0     C74068  11.076  11.293   6.830  0.6348  0.2935  0.2555
  562MOL0     N74069  11.106  11.208   6.708 -0.4847 -0.3634  0.3016
  562MOL0     C74070  11.230  11.213   6.643  0.8222 -0.1625  0.1819
  562MOL0     C74071  11.203  11.139   6.529 -0.7175 -0.8266 -0.1723
  562MOL0     C74072  11.298  11.106   6.414 -0.2171 -0.0217 -0.1899
  562MOL0     C74073  11.438  11.064   6.459  0.0410  0.3231  0.4917
  562MOL0     C74074  11.504  11.019   6.326  0.0589  0.8658  0.1574
  562MOL0     C74075  11.661  10.996   6.327  0.2551 -0.1421  0.3310
  562MOL0     O74076  11.720  10.967   6.198  0.4292  0.1143  0.3463
  562MOL0     C74077  11.852  10.921   6.186 -0.2006 -0.3018 -0.7747
  562MOL0     C74078  11.910  10.919   6.059 -0.7116  0.2025  0.4355
  562MOL0     C74079  12.044  10.869   6.038 -0.5436 -0.1058 -0.3086
  562MOL0     C74080  12.129  10.835   6.148  0.0114  0.5616 -0.1635
  562MOL0     C74081  12.265  10.773   6.122 -0.0038 -0.0038  0.4675
  562MOL0     O74082  12.296  10.750   5.991  0.2979  0.6049 -0.1687
  562MOL0     C74083  12.415  10.689   5.967 -0.3454  0.0449 -0.1776
  562MOL0     C74084  12.539  10.744   6.018  0.6357  0.4129  0.3542
  562MOL0     C74085  12.668  10.673   6.002  0.2719 -0.2605  0.3245
  562MOL0     C74086  12.668  10.555   5.931 -0.2949  0.1525 -0.1069
  562MOL0     O74087  12.781  10.478   5.925 -0.2263 -0.4109 -0.9915
  562MOL0     C74088  12.887  10.534   5.846 -0.4584  0.2539 -0.4007
  562MOL0     C74089  12.979  10.420   5.797  0.6718 -0.5739  0.2531
  562MOL0     C74090  12.908  10.313   5.709  0.1697 -0.1591  0.0011
  562MOL0     C74091  12.860  10.361   5.578 -0.2264  0.2984  0.4255
  562MOL0     C74092  12.794  10.248   5.495  0.0607  0.4825 -0.2016
  562MOL0     C74093  12.651  10.211   5.546 -1.0807  0.1251  0.7205
  562MOL0     C74094  12.544  10.263   5.451 -0.6232 -0.1048 -0.4937
  562MOL0     C74095  12.544  10.409   5.432 -0.3869  0.3145  0.3557
  562MOL0    Cl74096  12.512  10.506   5.578 -0.1254 -0.0194 -0.3978
  562MOL0     C74097  12.546  10.506   5.887  0.2916 -0.2931  0.9159
  562MOL0     C74098  12.419  10.562   5.908  0.2202  0.6199  0.5861
  562MOL0     O74099  12.329  10.738   6.221 -0.7172  0.6202  0.5340
  562MOL0     C74100  12.071  10.845   6.276  0.0347 -0.1165  0.5647
  562MOL0     C74101  11.934  10.890   6.295  0.2439 -0.6125  0.1943
  562MOL0     N74102  11.074  11.093   6.535 -0.2487 -0.5664 -0.4016
  562MOL0     N74103  11.010  11.139   6.638 -0.4263 -0.6461 -0.1243
  562MOL0     C74104  10.146  11.242   6.724 -0.4452 -0.3163 -0.4726
  562MOL0     C74105  10.029  11.189   6.779 -0.1558 -0.1219  1.2847
  562MOL0     C74106   9.691  11.128   7.065  0.5688 -0.8723  0.0302
  562MOL0     C74107   9.688  11.071   7.195  0.3227  1.1988 -0.4817
  562MOL0     C74108   9.572  11.051   7.263  0.9258 -0.0464 -0.6301
  562MOL0     C74109   9.445  11.080   7.211 -0.8926 -0.5566  0.2191
  562MOL0     O74110   9.332  11.051   7.274  0.1450  0.1699  0.5252
  562MOL0     C74111   9.324  11.062   7.420 -0.4378 -0.1239  0.8522
  562MOL0     C74112   9.169  11.077   7.449 -0.6334  0.1961 -0.6508
  562MOL0     C74113   9.126  11.020   7.583  0.2287 -0.0312 -0.3205
  562MOL0     C74114   8.981  11.061   7.628  0.5487 -0.5129 -0.7500
  562MOL0     C74115   8.946  10.989   7.750  0.4775 -0.0403  0.6068
  562MOL0     C74116   8.907  10.906   7.830 -0.5242 -0.0672  0.8277
  562MOL0     C74117   9.447  11.139   7.084 -0.4684 -0.2377  0.4761
  562MOL0     C74118   9.567  11.158   7.008  0.2365  1.6551 -0.2935
  562MOL0     H74119   9.869  11.477   6.824 -0.2199  0.0188 -0.0452
  562MOL0     H74120  10.051  11.570   6.728  0.6128  0.1934  1.2078
  562MOL0     H74121  10.306  11.614   6.733 -0.6168 -0.6502  0.2359
  562MOL0     H74122  10.241  11.610   6.571  1.4273  0.8474 -1.3588
  562MOL0     H74123  10.481  11.671   6.567 -1.1769 -0.5987 -0.7469
  562MOL0     H74124  10.465  11.527   6.478  0.7508 -2.3517  1.4983
  562MOL0     H74125  10.540  11.390   6.671 -1.8710  0.6185 -5.1601
  562MOL0     H74126  10.528  11.532   6.778 -2.2646  0.7346 -0.3144
  562MOL0     H74127  10.733  11.508   6.546 -3.0445  2.2928 -2.2408
  562MOL0     H74128  10.721  11.642   6.661  0.8306  0.9376 -1.5069
  562MOL0     H74129  10.785  11.360   6.747 -1.1869 -0.5729  0.7029
  562MOL0     H74130  10.772  11.499   6.849 -1.8495 -3.0552 -0.0447
  562MOL0     H74131  10.944  11.614   6.716 -0.8640  0.9914 -0.8428
  562MOL0     H74132  10.970  11.480   6.609 -1.7895 -1.0235  0.0308
  562MOL0     H74133  11.143  11.507   6.788  0.7683 -0.3116  0.7669
  562MOL0     H74134  11.024  11.489   6.909  1.0646  2.1598 -0.1015
  562MOL0     H74135  10.992  11.250   6.884  0.0079 -0.2645 -1.1335
  562MOL0     H74136  11.161  11.273   6.897 -1.0701 -1.1501  2.1214
  562MOL0     H74137  11.321  11.257   6.682  0.9675  0.3251 -0.7005
  562MOL0     H74138  11.311  11.203   6.366 -0.6780 -0.8964 -2.1893
  562MOL0     H74139  11.246  11.033   6.350 -0.0745 -0.7046  0.4578
  562MOL0     H74140  11.439  10.985   6.535 -0.1314  0.0502  0.2136
  562MOL0     H74141  11.488  11.152   6.501 -0.7775  0.9437  0.1777
  562MOL0     H74142  11.451  10.934   6.282 -0.2126  1.2473 -0.2619
  562MOL0     H74143  11.485  11.104   6.260  1.5504  3.6501  3.0302
  562MOL0     H74144  11.677  10.907   6.388 -1.3965 -0.5866  0.1712
  562MOL0     H74145  11.712  11.078   6.378  0.8480  0.1334 -0.6787
  562MOL0     H74146  11.848  10.945   5.973  0.0196  3.8736  0.8575
  562MOL0     H74147  12.082  10.874   5.936  1.3275  0.3154  0.3709
  562MOL0     H74148  12.547  10.841   6.066 -2.4943  1.5396 -1.0993
  562MOL0     H74149  12.763  10.703   6.046  0.4541 -1.9255  1.1227
  562MOL0     H74150  12.949  10.602   5.905 -0.6552  0.0701  0.0194
  562MOL0     H74151  12.845  10.585   5.759 -0.9823 -1.2102 -1.0161
  562MOL0     H74152  13.024  10.370   5.883 -0.3410 -1.7259  0.1378
  562MOL0     H74153  13.060  10.466   5.740  1.4797 -0.4113  1.4984
  562MOL0     H74154  12.829  10.262   5.765  0.9916 -2.4013 -0.7706
  562MOL0     H74155  12.981  10.234   5.689 -0.0148 -0.1322 -0.7869
  562MOL0     H74156  12.782  10.436   5.590 -2.6369 -2.1962  1.2421
  562MOL0     H74157  12.947  10.396   5.521 -0.1267 -0.2151  0.2613
  562MOL0     H74158  12.853  10.157   5.488 -0.5290 -0.1019  1.7376
  562MOL0     H74159  12.774  10.285   5.394 -4.8076  0.8260  0.6285
  562MOL0     H74160  12.641  10.261   5.643 -0.2811 -0.7381  1.2731
  562MOL0     H74161  12.650  10.103   5.564 -2.1929  0.4589  3.0926
  562MOL0     H74162  12.556  10.225   5.349  1.4239  2.6397 -1.3929
  562MOL0     H74163  12.451  10.225   5.495  0.4628 -2.5578 -0.1371
  562MOL0     H74164  12.460  10.433   5.366 -0.6055  1.8454  1.1343
  562MOL0     H74165  12.633  10.447   5.381  1.0319 -0.1093  2.3864
  562MOL0     H74166  12.545  10.410   5.836 -1.4308  0.0344  0.2621
  562MOL0     H74167  12.325  10.515   5.883  1.0380 -0.1281 -1.2249
  562MOL0     H74168  12.137  10.817   6.357 -1.1125  1.8681  2.2615
  562MOL0     H74169  11.890  10.884   6.394 -2.8083  1.6585 -0.8603
  562MOL0     H74170  10.224  11.172   6.696 -1.1575 -0.5220 -2.0524
  562MOL0     H74171  10.012  11.083   6.791  0.9808 -0.3397  1.0127
  562MOL0     H74172   9.769  11.047   7.262 -1.4762  1.2155  1.8060
  562MOL0     H74173   9.573  11.009   7.363 -1.0107 -1.2489 -1.0491
  562MOL0     H74174   9.383  11.147   7.457  2.4559 -1.3081 -0.6746
  562MOL0     H74175   9.368  10.983   7.482  0.8629  1.6425  2.2994
  562MOL0     H74176   9.148  11.184   7.454  3.0279  1.0269 -0.0182
  562MOL0     H74177   9.108  11.033   7.371  0.5933 -1.8529 -0.5321
  562MOL0     H74178   9.192  11.048   7.665  0.7916 -2.0669 -0.0019
  562MOL0     H74179   9.135  10.911   7.577 -0.5585 -0.4438  3.2291
  562MOL0     H74180   8.973  11.168   7.651  0.0223 -0.0581 -2.8775
  562MOL0     H74181   8.903  11.042   7.554 -0.1111  2.5027 -0.9414
  562MOL0     H74182   8.882  10.817   7.883  3.7249 -0.6674  2.1932
  562MOL0     H74183   9.348  11.165   7.047 -0.4005 -1.0179 -0.2845
  562MOL0     H74184   9.551  11.211   6.914  0.9291 -2.3620 -2.9486
  563MOL0     O74185   2.672   5.589   0.133  0.5599 -0.2318 -0.1661
  563MOL0     C74186   2.623   5.487   0.085 -0.0536 -1.0449  1.0740
  563MOL0     O74187   2.496   5.442   0.105  0.3011  0.5607 -0.0384
  563MOL0     C74188   2.420   5.502   0.201  1.6353  0.2567 -0.4962
  563MOL0     C74189   2.362   5.628   0.185 -0.5892 -0.3231  0.5444
  563MOL0     C74190   2.288   5.690   0.286  0.3322  0.0399  0.3964
  563MOL0     C74191   2.245   5.610   0.392  0.1960  1.1869  0.6548
  563MOL0     O74192   2.183   5.668   0.501 -1.1116  0.0746  0.2641
  563MOL0     C74193   2.077   5.764   0.477 -0.3917  0.1901  0.0390
  563MOL0     C74194   1.971   5.775   0.590  0.0786 -0.3577  0.1963
  563MOL0     C74195   2.006   5.886   0.691  1.2148 -0.1615  0.2456
  563MOL0     C74196   1.879   5.938   0.756 -0.6012 -1.6287 -0.9104
  563MOL0     C74197   1.911   6.050   0.859 -0.6214  0.1205  1.4167
  563MOL0     C74198   1.954   5.990   0.985 -0.4432  0.7600 -0.6338
  563MOL0     C74199   1.988   6.103   1.087 -1.0746  0.4338  0.0627
  563MOL0     C74200   2.113   6.185   1.035  0.2306 -0.6378 -0.4553
  563MOL0     N74201   2.170   6.272   1.141  0.3296 -0.2149  0.0961
  563MOL0     C74202   2.249   6.383   1.112  0.8053 -0.0032  0.0906
  563MOL0     C74203   2.271   6.439   1.232 -1.5663  0.2096 -0.5242
  563MOL0     C74204   2.336   6.580   1.256  0.2846  0.5779 -0.2475
  563MOL0     C74205   2.489   6.561   1.276 -0.4011 -0.4255  0.7672
  563MOL0     C74206   2.575   6.682   1.227  0.5517 -0.2911  0.6163
  563MOL0     C74207   2.561   6.715   1.077 -0.6632 -0.1705 -0.2653
  563MOL0     O74208   2.638   6.829   1.037 -0.6794  0.2486  0.1290
  563MOL0     C74209   2.733   6.813   0.943 -0.2819  0.0458  0.0906
  563MOL0     C74210   2.860   6.853   0.972 -1.1720  0.4823 -0.6631
  563MOL0     C74211   2.959   6.837   0.881 -0.3227 -0.6397  0.4157
  563MOL0     C74212   2.940   6.799   0.749 -1.5152 -0.7994  0.2526
  563MOL0     C74213   3.051   6.773   0.659  0.3367  0.4063  0.5288
  563MOL0     O74214   3.177   6.798   0.705 -0.0264  0.0239 -0.5763
  563MOL0     C74215   3.286   6.765   0.632 -0.9855 -0.0894 -0.0746
  563MOL0     C74216   3.396   6.714   0.703  0.2633  0.3232  0.2744
  563MOL0     C74217   3.517   6.703   0.636 -0.0333  0.3857  0.5564
  563MOL0     C74218   3.539   6.739   0.499  0.0155 -0.2981  0.4762
  563MOL0     O74219   3.660   6.732   0.431  0.5546 -0.3445 -0.7309
  563MOL0     C74220   3.759   6.633   0.469  0.1035  0.4057 -0.1318
  563MOL0     C74221   3.839   6.604   0.344  0.1096  0.2611 -0.5199
  563MOL0     C74222   3.946   6.504   0.375 -0.0050  0.1208 -0.0215
  563MOL0     C74223   4.024   6.464   0.252 -0.0977  1.2614 -0.3720
  563MOL0     C74224   4.112   6.343   0.280  0.3748 -0.6488 -0.1982
  563MOL0     C74225   4.227   6.362   0.372 -0.3253 -0.0793 -0.8205
  563MOL0     C74226   4.338   6.464   0.328 -0.2877 -0.3977 -0.3386
  563MOL0     C74227   4.433   6.493   0.446 -0.5530 -0.9098 -0.0405
  563MOL0    Cl74228   4.512   6.344   0.497 -0.3345 -0.5150  0.4681
  563MOL0     C74229   3.426   6.784   0.432  0.6867 -0.2040 -0.4162
  563MOL0     C74230   3.311   6.806   0.503  0.8185  0.4565  0.4998
  563MOL0     O74231   3.025   6.718   0.552  0.1079 -0.0599  0.1072
  563MOL0     C74232   2.809   6.778   0.715  1.2634 -0.6512  0.1826
  563MOL0     C74233   2.701   6.783   0.811 -0.3023 -0.2238  0.0991
  563MOL0     N74234   2.233   6.348   1.329 -0.3014 -1.2684  0.0608
  563MOL0     N74235   2.154   6.257   1.275 -0.1147 -0.5197  0.3810
  563MOL0     C74236   2.282   5.479   0.405 -0.1200  0.2903 -0.0678
  563MOL0     C74237   2.366   5.427   0.306 -1.0313  0.3926  0.7138
  563MOL0     C74238   2.712   5.402  -0.009 -0.7665 -0.8804 -0.1551
  563MOL0     C74239   2.854   5.428  -0.024  0.8124 -0.8717 -0.5370
  563MOL0     C74240   2.936   5.340  -0.091  0.0452  0.1967 -0.2676
  563MOL0     C74241   2.880   5.234  -0.155 -0.3192 -0.1228  0.9032
  563MOL0     O74242   2.943   5.151  -0.246 -0.4102 -0.5481 -0.0896
  563MOL0     C74243   3.087   5.141  -0.255 -0.8317  0.4599  0.3619
  563MOL0     C74244   3.140   5.039  -0.370  0.5517  0.7845 -0.5000
  563MOL0     C74245   3.097   5.097  -0.501  0.4838  0.5624  0.7017
  563MOL0     C74246   3.175   5.034  -0.609 -0.4118  0.0550  0.2629
  563MOL0     C74247   3.153   4.889  -0.626 -1.2686  0.0407 -0.0388
  563MOL0     C74248   3.120   4.776  -0.618  0.5511  0.0214 -0.5137
  563MOL0     C74249   2.748   5.212  -0.157 -0.4444  0.5487 -0.4129
  563MOL0     C74250   2.663   5.287  -0.082  0.1940 -0.6949 -0.1932
  563MOL0     H74251   2.371   5.678   0.090 -3.5297  1.8332  1.2740
  563MOL0     H74252   2.249   5.791   0.277 -1.6329 -0.6652  0.4880
  563MOL0     H74253   2.023   5.731   0.387  0.3088 -1.9894  0.3679
  563MOL0     H74254   2.120   5.864   0.462  3.6690 -1.1997  1.3405
  563MOL0     H74255   1.977   5.678   0.639 -1.5561 -1.3063 -1.3295
  563MOL0     H74256   1.872   5.797   0.548  0.2562  3.4663  1.4051
  563MOL0     H74257   2.066   5.971   0.657 -1.4962  2.3988  1.4708
  563MOL0     H74258   2.066   5.839   0.770  0.8675 -1.6531 -0.3496
  563MOL0     H74259   1.832   5.997   0.677  0.4110  0.7715  0.1587
  563MOL0     H74260   1.816   5.861   0.802 -2.8570  0.6646  0.0955
  563MOL0     H74261   1.826   6.118   0.870 -0.6663  0.1429  0.9517
  563MOL0     H74262   1.993   6.109   0.816  0.2729  0.8056  3.8971
  563MOL0     H74263   2.042   5.926   0.978 -1.6043 -0.7607 -1.8555
  563MOL0     H74264   1.878   5.919   1.018 -0.8751  1.5554  0.1127
  563MOL0     H74265   1.902   6.170   1.096 -0.4251  1.4443 -0.9622
  563MOL0     H74266   2.018   6.057   1.181 -0.0197 -0.2126 -0.5692
  563MOL0     H74267   2.094   6.250   0.949  1.4069 -2.2104 -1.9682
  563MOL0     H74268   2.197   6.118   1.013  0.9452 -0.2441  0.9543
  563MOL0     H74269   2.268   6.421   1.013  0.7968 -0.0236  0.0811
  563MOL0     H74270   2.280   6.634   1.333  1.4210  0.5678  0.6243
  563MOL0     H74271   2.317   6.635   1.164 -0.1920  0.2841 -0.3285
  563MOL0     H74272   2.527   6.477   1.217 -0.2332 -0.1386  0.4665
  563MOL0     H74273   2.516   6.560   1.382  5.5219 -1.2196 -0.4076
  563MOL0     H74274   2.544   6.763   1.293 -0.8923  0.0739 -0.4559
  563MOL0     H74275   2.677   6.667   1.265 -0.0560 -0.8736  2.0997
  563MOL0     H74276   2.456   6.741   1.059 -1.7304 -0.7566  3.9789
  563MOL0     H74277   2.586   6.626   1.018  0.4673  0.7468 -1.2154
  563MOL0     H74278   2.875   6.881   1.076  0.4986 -2.6006  0.0484
  563MOL0     H74279   3.060   6.855   0.917  1.6755 -0.4262 -4.5022
  563MOL0     H74280   3.375   6.679   0.803 -2.0574  2.5693  0.6977
  563MOL0     H74281   3.605   6.655   0.678  0.6611  0.5567 -0.6485
  563MOL0     H74282   3.726   6.532   0.495  2.6545 -0.9167 -1.5282
  563MOL0     H74283   3.824   6.670   0.549  0.2387 -1.3081  0.5866
  563MOL0     H74284   3.883   6.697   0.308  0.0302  2.3378  4.0364
  563MOL0     H74285   3.777   6.555   0.269  0.1928 -0.3785 -0.1796
  563MOL0     H74286   3.888   6.416   0.402 -3.0774  1.8953 -0.4466
  563MOL0     H74287   4.016   6.541   0.450  0.2493 -0.0827 -0.1546
  563MOL0     H74288   3.951   6.433   0.177  0.9198  1.4922 -1.4801
  563MOL0     H74289   4.086   6.543   0.208 -0.9961  2.6955  0.8548
  563MOL0     H74290   4.160   6.302   0.191  1.0445 -2.6316  1.0036
  563MOL0     H74291   4.052   6.266   0.330 -1.4841  2.5681  2.9528
  563MOL0     H74292   4.265   6.263   0.400 -2.3470 -0.4640  0.7599
  563MOL0     H74293   4.194   6.397   0.470 -1.0693 -2.3740 -0.1679
  563MOL0     H74294   4.388   6.414   0.245 -1.3531 -0.1795 -1.1452
  563MOL0     H74295   4.295   6.557   0.290 -0.1280 -0.2339 -0.1213
  563MOL0     H74296   4.394   6.542   0.535  2.4867 -1.7833  1.9622
  563MOL0     H74297   4.520   6.555   0.423 -1.4608  0.5590  0.3944
  563MOL0     H74298   3.432   6.808   0.327 -2.8150  2.8968 -0.0955
  563MOL0     H74299   3.232   6.863   0.455  0.5429  0.6199  1.1350
  563MOL0     H74300   2.793   6.748   0.611  3.8359  3.6152 -1.7181
  563MOL0     H74301   2.596   6.769   0.787 -0.0834  0.5925 -1.4913
  563MOL0     H74302   2.245   5.421   0.490 -0.1146  2.0802  1.2222
  563MOL0     H74303   2.374   5.318   0.312 -0.5402  0.5043  4.7798
  563MOL0     H74304   2.883   5.511   0.040 -1.4957 -1.2971  1.1997
  563MOL0     H74305   3.044   5.350  -0.097  0.2233 -2.0280 -3.0479
  563MOL0     H74306   3.135   5.122  -0.159  3.3708  2.7060 -1.0252
  563MOL0     H74307   3.135   5.231  -0.294 -0.5808 -0.3551 -1.3171
  563MOL0     H74308   3.250   5.043  -0.370  0.7746 -2.4780 -2.0837
  563MOL0     H74309   3.109   4.937  -0.347  2.4755  0.6967  2.2834
  563MOL0     H74310   3.125   5.202  -0.492 -1.1111  0.8978  2.4714
  563MOL0     H74311   2.989   5.095  -0.518  0.1742  1.6045  2.3513
  563MOL0     H74312   3.155   5.088  -0.702 -0.8782  1.6659  1.2372
  563MOL0     H74313   3.282   5.050  -0.596 -0.1724  1.8915 -2.9169
  563MOL0     H74314   3.076   4.680  -0.597 -1.0344  1.4404  3.4335
  563MOL0     H74315   2.706   5.126  -0.208  0.6296 -0.2697  0.0446
  563MOL0     H74316   2.557   5.268  -0.070 -0.6437  3.9943  1.9459
  564MOL0     O74317  10.062   6.360   7.946  0.2099 -0.4220  0.0741
  564MOL0     C74318  10.115   6.465   8.004 -0.1196 -0.5071  0.1028
  564MOL0     O74319  10.066   6.526   8.109  0.2471  0.6007 -0.0368
  564MOL0     C74320   9.944   6.487   8.154 -0.1705 -0.2832  0.3527
  564MOL0     C74321   9.825   6.501   8.078 -0.0947 -0.7445 -0.2640
  564MOL0     C74322   9.703   6.455   8.126 -0.4145  0.1187  0.1874
  564MOL0     C74323   9.698   6.389   8.246  0.3372 -0.4022 -0.3115
  564MOL0     O74324   9.572   6.351   8.297 -0.2109  0.3296 -0.0312
  564MOL0     C74325   9.566   6.279   8.418 -0.2974  0.2421  0.3353
  564MOL0     C74326   9.431   6.216   8.438 -0.5359  0.3877  0.0163
  564MOL0     C74327   9.432   6.077   8.382  0.2920  0.0069  0.3594
  564MOL0     C74328   9.292   6.021   8.349 -0.4737 -0.7965  0.1646
  564MOL0     C74329   9.311   5.876   8.292 -0.1838 -0.2482  0.1942
  564MOL0     C74330   9.394   5.774   8.367  0.0927 -0.3231  0.0022
  564MOL0     C74331   9.497   5.712   8.277 -0.2730  0.4913 -0.0536
  564MOL0     C74332   9.446   5.583   8.213 -0.0442 -0.4864  0.3206
  564MOL0     N74333   9.329   5.605   8.130 -0.6551  0.2089  0.1729
  564MOL0     C74334   9.323   5.606   7.992  0.1752 -0.4095  0.5804
  564MOL0     C74335   9.192   5.580   7.961  0.4543  0.1933 -0.0706
  564MOL0     C74336   9.121   5.603   7.825  0.8408  0.4426 -0.2263
  564MOL0     C74337   8.999   5.703   7.837 -0.8958  0.2813 -0.2844
  564MOL0     C74338   9.031   5.838   7.902  0.0092  0.0538 -0.2567
  564MOL0     C74339   8.917   5.944   7.897  0.3747  0.5848  0.2091
  564MOL0     O74340   8.821   5.919   7.989  0.2157  0.7236 -0.7828
  564MOL0     C74341   8.696   5.948   7.939 -0.3804 -0.8938  0.5679
  564MOL0     C74342   8.663   6.051   7.846  0.1688 -0.7863  0.0472
  564MOL0     C74343   8.528   6.086   7.823  0.2842 -0.2205 -0.0807
  564MOL0     C74344   8.417   6.021   7.889 -1.8593  0.0125  0.2354
  564MOL0     C74345   8.279   6.052   7.860 -0.2608  1.1137 -0.1308
  564MOL0     O74346   8.179   6.003   7.953  0.1903 -0.7707  0.1886
  564MOL0     C74347   8.052   6.004   7.904 -0.1199  0.1339 -0.3988
  564MOL0     C74348   8.008   5.901   7.814 -0.8221 -1.3847  0.1421
  564MOL0     C74349   7.875   5.914   7.768 -0.8028  0.3601  0.5929
  564MOL0     C74350   7.785   6.013   7.819  0.0738  1.2062 -0.6916
  564MOL0     O74351   7.655   6.009   7.774  0.1466  0.1074  0.5782
  564MOL0     C74352   7.554   6.098   7.826  0.4763 -0.0963  0.1887
  564MOL0     C74353   7.444   6.083   7.720 -0.5563 -0.4116 -0.5061
  564MOL0     C74354   7.314   6.155   7.742  0.6219 -0.0156  0.3049
  564MOL0     C74355   7.232   6.153   7.604 -0.3570 -0.9619  0.4223
  564MOL0     C74356   7.084   6.178   7.633  1.0420 -0.0032  0.1226
  564MOL0     C74357   6.993   6.169   7.508  0.1901  0.2994  0.3572
  564MOL0     C74358   6.845   6.193   7.555 -0.3002 -0.1532  0.3465
  564MOL0     C74359   6.740   6.142   7.468  0.6033  0.4303  0.1877
  564MOL0    Cl74360   6.683   6.242   7.341  0.3817 -0.1131 -0.0437
  564MOL0     C74361   7.833   6.110   7.907 -0.0707  0.4291  0.3817
  564MOL0     C74362   7.960   6.102   7.944 -0.5107  0.4766  0.2656
  564MOL0     O74363   8.252   6.108   7.757  0.0025 -0.7268  0.1859
  564MOL0     C74364   8.452   5.915   7.977  0.0916  1.0993  0.8737
  564MOL0     C74365   8.587   5.882   7.995  0.9916 -0.1849 -0.4046
  564MOL0     N74366   9.126   5.556   8.082  1.3423 -0.1251 -0.2922
  564MOL0     N74367   9.210   5.558   8.176 -0.3763 -0.3969 -0.2136
  564MOL0     C74368   9.823   6.369   8.324  0.4151  0.1402 -0.7610
  564MOL0     C74369   9.940   6.422   8.283 -0.8178 -0.7082 -0.4552
  564MOL0     C74370  10.250   6.500   7.955 -0.7498 -1.0845 -1.2494
  564MOL0     C74371  10.362   6.530   8.036 -0.4470  0.6624 -0.4406
  564MOL0     C74372  10.478   6.582   7.978  1.2421 -0.2866  0.6597
  564MOL0     C74373  10.497   6.575   7.838 -0.4977 -0.4339  0.1930
  564MOL0     O74374  10.611   6.605   7.764 -0.4138 -0.2999  0.7299
  564MOL0     C74375  10.730   6.635   7.838 -0.2833 -0.6890 -0.4961
  564MOL0     C74376  10.732   6.778   7.884  0.3024 -0.4120 -0.3726
  564MOL0     C74377  10.833   6.797   7.997 -0.0863 -0.2593 -0.5390
  564MOL0     C74378  10.970   6.801   7.959  0.4867 -0.3960 -1.4050
  564MOL0     C74379  11.001   6.891   7.849  0.1149 -0.5496 -0.1444
  564MOL0     C74380  11.037   6.970   7.763  1.1233 -1.1422  0.5975
  564MOL0     C74381  10.404   6.534   7.759  0.3057 -0.0091 -0.1072
  564MOL0     C74382  10.278   6.494   7.812 -0.1082  0.5566 -0.4719
  564MOL0     H74383   9.819   6.566   7.991  2.0689  0.1434  0.1938
  564MOL0     H74384   9.607   6.466   8.075 -0.4708 -0.6836  0.1048
  564MOL0     H74385   9.581   6.354   8.497  1.3794 -0.0413  0.3200
  564MOL0     H74386   9.644   6.204   8.432 -1.2913 -0.6347  1.3574
  564MOL0     H74387   9.352   6.267   8.382 -3.6215  0.4707  4.0596
  564MOL0     H74388   9.402   6.213   8.543 -0.1225  2.3459  0.2291
  564MOL0     H74389   9.489   6.009   8.446  0.8034  0.3545  0.2710
  564MOL0     H74390   9.481   6.076   8.285  0.8744  1.3091  0.6127
  564MOL0     H74391   9.226   6.033   8.436 -0.0844  1.0198  0.2465
  564MOL0     H74392   9.254   6.095   8.279  0.6441 -2.7924 -2.7235
  564MOL0     H74393   9.347   5.893   8.190 -0.5362  1.1855  0.2867
  564MOL0     H74394   9.212   5.832   8.279 -0.2958  0.4496 -1.6971
  564MOL0     H74395   9.325   5.710   8.422 -1.2292  0.3728 -0.7956
  564MOL0     H74396   9.447   5.806   8.458 -0.5950 -0.1486  0.3504
  564MOL0     H74397   9.532   5.787   8.205 -0.8310 -0.8619 -1.8076
  564MOL0     H74398   9.584   5.676   8.333 -1.1526 -1.7366 -0.0354
  564MOL0     H74399   9.411   5.525   8.299 -0.5686  2.3868  2.1786
  564MOL0     H74400   9.519   5.518   8.164  1.2264  1.2785 -0.1968
  564MOL0     H74401   9.405   5.643   7.931  0.5556 -1.3142  0.5136
  564MOL0     H74402   9.079   5.506   7.795  0.3196  0.8347 -0.7776
  564MOL0     H74403   9.191   5.642   7.750  0.1404  1.3190 -0.4388
  564MOL0     H74404   8.922   5.654   7.897  1.1036 -0.9734  1.4063
  564MOL0     H74405   8.969   5.704   7.732 -0.8258 -1.8364 -0.3658
  564MOL0     H74406   9.048   5.815   8.008  1.0219  0.8439 -0.2228
  564MOL0     H74407   9.118   5.883   7.852 -1.0312  2.3661 -0.1052
  564MOL0     H74408   8.870   5.953   7.798 -1.5116  0.0706  1.0070
  564MOL0     H74409   8.954   6.044   7.920  1.0359 -0.3929  3.9941
  564MOL0     H74410   8.742   6.110   7.801 -1.4457  0.9235 -0.6680
  564MOL0     H74411   8.502   6.157   7.745 -2.5782 -1.8578 -0.7614
  564MOL0     H74412   8.074   5.829   7.766  1.4509  2.0744 -2.4084
  564MOL0     H74413   7.836   5.846   7.693  0.0106  0.8817 -0.3157
  564MOL0     H74414   7.588   6.202   7.814 -1.2972  0.3003 -2.4628
  564MOL0     H74415   7.509   6.094   7.925 -4.1372  2.2510 -1.4693
  564MOL0     H74416   7.428   5.976   7.707  0.9822 -0.6664 -0.4553
  564MOL0     H74417   7.489   6.124   7.629  0.3671 -2.9148 -1.2527
  564MOL0     H74418   7.326   6.259   7.772  4.7519  0.0360 -0.8132
  564MOL0     H74419   7.269   6.094   7.821  1.2691 -3.5142 -1.7727
  564MOL0     H74420   7.289   6.228   7.548  2.1669 -3.1891 -0.1877
  564MOL0     H74421   7.245   6.059   7.551  2.2519 -0.7711  0.5845
  564MOL0     H74422   7.074   6.279   7.674  0.5608  0.0115 -0.0218
  564MOL0     H74423   7.055   6.107   7.712  1.9784  0.7901  1.2126
  564MOL0     H74424   7.004   6.067   7.472  1.7918 -0.2934  2.3361
  564MOL0     H74425   7.027   6.244   7.436  1.3488  0.3428  0.9280
  564MOL0     H74426   6.835   6.136   7.648 -0.7060 -1.5079 -0.5080
  564MOL0     H74427   6.844   6.301   7.576 -0.2340 -0.2110  0.6536
  564MOL0     H74428   6.650   6.140   7.530  1.4497  1.1383  1.4888
  564MOL0     H74429   6.769   6.041   7.437 -2.5331 -1.0696  1.6934
  564MOL0     H74430   7.770   6.191   7.943  1.7226  0.7551  3.1438
  564MOL0     H74431   8.011   6.171   8.010  1.8666 -0.1932 -0.7364
  564MOL0     H74432   8.388   5.853   8.039  2.9131  1.4019  4.4507
  564MOL0     H74433   8.600   5.801   8.066  0.2212  0.9282  1.0431
  564MOL0     H74434   9.808   6.325   8.421  0.4397 -0.6435 -1.1041
  564MOL0     H74435  10.017   6.430   8.359 -1.3137  0.9785 -0.0777
  564MOL0     H74436  10.352   6.523   8.144 -0.9660 -0.7495 -0.5593
  564MOL0     H74437  10.564   6.616   8.035  1.9406 -1.2938  0.2293
  564MOL0     H74438  10.814   6.620   7.768 -0.2129  0.0813 -0.5820
  564MOL0     H74439  10.736   6.559   7.916 -1.2697  0.0003  0.2543
  564MOL0     H74440  10.765   6.851   7.810  4.5163  0.6956  2.2300
  564MOL0     H74441  10.636   6.809   7.928 -0.8208 -0.1892 -2.8407
  564MOL0     H74442  10.815   6.735   8.085  0.9126  1.1080  0.6618
  564MOL0     H74443  10.817   6.890   8.051 -1.5946 -0.8482  0.0756
  564MOL0     H74444  11.036   6.834   8.040 -0.9946  0.7869 -0.6314
  564MOL0     H74445  10.999   6.696   7.943  2.9980 -0.0022  0.0853
  564MOL0     H74446  11.067   7.039   7.687 -3.9761 -0.8882 -1.5966
  564MOL0     H74447  10.411   6.518   7.652 -0.6243 -3.6627  0.2353
  564MOL0     H74448  10.193   6.467   7.750  1.5772 -1.8959 -1.8802
  565MOL0     O74449   6.476   0.708   8.867 -0.0220 -0.1072 -0.2568
  565MOL0     C74450   6.586   0.679   8.824  0.3941 -0.4385 -0.0542
  565MOL0     O74451   6.614   0.630   8.705  0.0267  0.7527  0.4723
  565MOL0     C74452   6.533   0.554   8.623  1.2026 -0.6257 -0.2461
  565MOL0     C74453   6.404   0.588   8.602  0.3025 -0.1916  0.3944
  565MOL0     C74454   6.334   0.526   8.500 -0.0277 -0.2343  0.2268
  565MOL0     C74455   6.398   0.427   8.423  0.3170 -0.6361 -0.2965
  565MOL0     O74456   6.337   0.359   8.320  0.2310  0.1404 -1.0263
  565MOL0     C74457   6.347   0.423   8.187 -0.3326  0.4434  0.3146
  565MOL0     C74458   6.489   0.398   8.133 -0.3719 -0.4090  0.8248
  565MOL0     C74459   6.506   0.434   7.982  0.0918  0.6711  1.0275
  565MOL0     C74460   6.651   0.498   7.969 -0.2137  0.6301 -0.5274
  565MOL0     C74461   6.682   0.489   7.813 -0.0259 -0.5466  0.0857
  565MOL0     C74462   6.588   0.581   7.729  0.9101 -0.0041 -0.0710
  565MOL0     C74463   6.647   0.600   7.591  0.4226 -1.0155  0.5039
  565MOL0     C74464   6.719   0.479   7.526 -0.2349  0.0905 -0.6709
  565MOL0     N74465   6.774   0.499   7.391  0.8594 -0.4578 -0.6043
  565MOL0     C74466   6.763   0.397   7.302 -0.3663  0.2749 -0.0339
  565MOL0     C74467   6.783   0.445   7.185 -0.2815 -0.3737  0.1611
  565MOL0     C74468   6.737   0.393   7.047  0.1852 -0.6224  0.6296
  565MOL0     C74469   6.837   0.442   6.940 -0.5238 -0.2419 -0.9670
  565MOL0     C74470   6.977   0.377   6.957 -0.1862 -0.0908  0.1467
  565MOL0     C74471   7.057   0.416   6.829 -0.3753  0.2000  0.2065
  565MOL0     O74472   7.061   0.301   6.741  0.0023  0.0619  0.2012
  565MOL0     C74473   7.139   0.312   6.620  0.0986 -1.3000  0.0834
  565MOL0     C74474   7.150   0.199   6.546 -0.9015  0.0733 -0.1534
  565MOL0     C74475   7.223   0.188   6.425  1.3044  0.0370  0.6560
  565MOL0     C74476   7.297   0.293   6.379 -0.1062  0.0510  0.3370
  565MOL0     C74477   7.376   0.283   6.252 -1.1032 -0.7790  0.5432
  565MOL0     O74478   7.428   0.402   6.200  0.4200  0.7689 -0.3674
  565MOL0     C74479   7.519   0.399   6.097  0.1700  0.7372  0.7396
  565MOL0     C74480   7.635   0.318   6.111 -0.1262  0.5810  0.5348
  565MOL0     C74481   7.738   0.318   6.010  0.4264  0.1582  0.7132
  565MOL0     C74482   7.720   0.402   5.900 -0.0117  0.2779  0.7496
  565MOL0     O74483   7.809   0.401   5.791  0.0052 -0.1371  0.0262
  565MOL0     C74484   7.902   0.299   5.779  0.1018  1.1247  0.6143
  565MOL0     C74485   7.969   0.318   5.643  0.7608 -0.5064 -0.5907
  565MOL0     C74486   8.047   0.192   5.608 -0.4776  0.5420  0.7847
  565MOL0     C74487   8.136   0.209   5.479 -0.4740  0.7070  1.0109
  565MOL0     C74488   8.180   0.077   5.432  0.6218  0.0923 -0.8539
  565MOL0     C74489   8.308   0.077   5.343 -0.0963 -0.3825  0.2527
  565MOL0     C74490   8.346  -0.068   5.301  0.1704  0.1425 -0.1531
  565MOL0     C74491   8.457  -0.098   5.201 -0.0033  0.2046 -0.7027
  565MOL0    Cl74492   8.400  -0.047   5.044 -0.1301 -0.1339 -0.4778
  565MOL0     C74493   7.616   0.492   5.892  0.4952  0.1596 -0.2020
  565MOL0     C74494   7.515   0.497   5.990  0.1807  0.0026 -0.0754
  565MOL0     O74495   7.386   0.173   6.202  1.0337 -0.1809  0.2374
  565MOL0     C74496   7.284   0.416   6.444 -0.5813 -0.5858 -0.6110
  565MOL0     C74497   7.211   0.428   6.566 -1.2256  0.5358  0.3427
  565MOL0     N74498   6.810   0.584   7.207 -0.0968 -0.0887 -0.3457
  565MOL0     N74499   6.811   0.609   7.328  0.8630 -0.1045  0.1024
  565MOL0     C74500   6.517   0.379   8.463 -0.5068 -1.2357  0.4525
  565MOL0     C74501   6.589   0.444   8.565 -0.1254  0.9415  0.3595
  565MOL0     C74502   6.704   0.744   8.890  0.7223 -0.5054 -0.5702
  565MOL0     C74503   6.843   0.725   8.853 -0.0617 -0.6278  1.0680
  565MOL0     C74504   6.943   0.785   8.916  0.3527 -0.1732 -0.8040
  565MOL0     C74505   6.916   0.860   9.036  0.6086 -0.1444 -0.0691
  565MOL0     O74506   7.024   0.915   9.092 -0.7258 -0.6149 -1.1105
  565MOL0     C74507   7.030   0.972   9.223  1.0944 -0.0301 -1.0435
  565MOL0     C74508   7.183   0.991   9.260 -0.2253  0.5453  0.4062
  565MOL0     C74509   7.256   1.059   9.150  0.1792 -0.4032  0.2210
  565MOL0     C74510   7.400   1.106   9.176  0.3196  0.0133  1.0744
  565MOL0     C74511   7.400   1.235   9.259  0.1744 -1.2593  0.3371
  565MOL0     C74512   7.396   1.343   9.312 -1.1511 -0.9159 -0.4330
  565MOL0     C74513   6.784   0.875   9.082  0.6624 -0.3968 -0.7261
  565MOL0     C74514   6.676   0.818   9.005 -0.4282  0.0169 -0.2673
  565MOL0     H74515   6.340   0.654   8.659 -2.2394 -1.2321 -1.0805
  565MOL0     H74516   6.238   0.560   8.463  1.1487  0.8143 -2.0255
  565MOL0     H74517   6.307   0.524   8.190 -1.0729  0.1491  0.6197
  565MOL0     H74518   6.285   0.374   8.111 -0.4175  1.8118 -0.5165
  565MOL0     H74519   6.520   0.294   8.145  1.2433 -0.2148 -1.1285
  565MOL0     H74520   6.561   0.458   8.189 -1.2154  2.1590 -0.7037
  565MOL0     H74521   6.433   0.508   7.946 -1.2169 -1.3637 -0.7208
  565MOL0     H74522   6.493   0.353   7.911  2.5485  0.2707  0.9379
  565MOL0     H74523   6.652   0.606   7.986  1.7952  1.1028 -2.9801
  565MOL0     H74524   6.728   0.448   8.028 -0.8908  1.1288  0.8062
  565MOL0     H74525   6.662   0.384   7.792 -0.8887  0.0142 -2.2341
  565MOL0     H74526   6.787   0.516   7.800 -0.3617 -0.0302 -1.9006
  565MOL0     H74527   6.584   0.677   7.781 -0.4463 -0.1581  0.1434
  565MOL0     H74528   6.487   0.540   7.730  1.1965 -0.7928  1.9754
  565MOL0     H74529   6.573   0.628   7.516  0.1545 -0.1078  1.0998
  565MOL0     H74530   6.720   0.681   7.593 -1.2921  0.6155 -0.2473
  565MOL0     H74531   6.648   0.397   7.512 -1.1223  1.1253 -2.8188
  565MOL0     H74532   6.795   0.442   7.596 -1.8510  1.8800  2.2286
  565MOL0     H74533   6.726   0.298   7.330  2.5722 -0.6351  0.9461
  565MOL0     H74534   6.643   0.436   7.012  2.4649  1.4615 -3.7156
  565MOL0     H74535   6.742   0.284   7.042 -2.5207 -0.8381  1.1891
  565MOL0     H74536   6.852   0.550   6.945  0.5836 -0.4334  2.7474
  565MOL0     H74537   6.797   0.416   6.842 -3.1411 -1.8223  0.4057
  565MOL0     H74538   7.037   0.435   7.028  4.3153 -1.5057 -2.1220
  565MOL0     H74539   6.987   0.271   6.985 -0.3728  0.3717  2.1091
  565MOL0     H74540   7.162   0.437   6.850  0.8436 -1.4571 -3.3863
  565MOL0     H74541   7.012   0.501   6.776 -1.0447  1.8216  3.1699
  565MOL0     H74542   7.097   0.116   6.591  0.5494  1.2622  4.3291
  565MOL0     H74543   7.228   0.091   6.378  0.5746 -0.0657  0.7717
  565MOL0     H74544   7.650   0.258   6.200 -1.9680  2.2952  2.1095
  565MOL0     H74545   7.822   0.249   6.010 -0.0878 -0.5610  3.0478
  565MOL0     H74546   7.861   0.197   5.787  3.5783 -0.2538  3.7978
  565MOL0     H74547   7.969   0.309   5.865  0.9094 -1.7293  0.4243
  565MOL0     H74548   8.034   0.406   5.650  1.1003 -0.9236  3.2119
  565MOL0     H74549   7.896   0.340   5.564  0.1489 -1.4509 -0.2911
  565MOL0     H74550   7.970   0.114   5.606 -3.1470  2.9668 -2.0963
  565MOL0     H74551   8.109   0.170   5.695 -0.9284  2.4871  1.6666
  565MOL0     H74552   8.090   0.276   5.406 -1.9939  1.4619  2.5892
  565MOL0     H74553   8.233   0.247   5.514  1.1335 -3.1181  1.1736
  565MOL0     H74554   8.086   0.043   5.387  0.8059 -0.8269 -0.5813
  565MOL0     H74555   8.209   0.017   5.519 -1.2205  3.1560  2.1010
  565MOL0     H74556   8.388   0.117   5.407 -0.8563  1.5786  0.0498
  565MOL0     H74557   8.291   0.131   5.249 -0.1988 -1.5200 -0.4011
  565MOL0     H74558   8.374  -0.108   5.400  0.6842  0.3222 -0.2206
  565MOL0     H74559   8.256  -0.120   5.267 -0.6834  2.1171 -1.0626
  565MOL0     H74560   8.485  -0.204   5.196 -1.5560 -0.2736  0.0194
  565MOL0     H74561   8.547  -0.041   5.227 -2.2368  3.5917  0.2220
  565MOL0     H74562   7.611   0.558   5.806  0.0958 -1.7193 -1.6851
  565MOL0     H74563   7.432   0.566   5.988  0.1276 -0.0494 -2.1377
  565MOL0     H74564   7.328   0.501   6.393 -0.8193 -0.7862 -1.1612
  565MOL0     H74565   7.223   0.521   6.621  0.3023  2.2674 -2.5951
  565MOL0     H74566   6.565   0.296   8.412 -2.7322 -1.0794 -2.1633
  565MOL0     H74567   6.687   0.419   8.604  0.9093  1.0284 -2.0467
  565MOL0     H74568   6.853   0.654   8.771 -2.1241  1.4207 -1.1196
  565MOL0     H74569   7.048   0.784   8.890  0.0474 -4.1449 -2.5656
  565MOL0     H74570   6.998   0.909   9.307  2.9592  1.1122  0.6159
  565MOL0     H74571   6.967   1.062   9.223 -2.5613 -2.3097  1.2143
  565MOL0     H74572   7.180   1.037   9.359  3.6357 -1.7844  1.8295
  565MOL0     H74573   7.238   0.896   9.267 -1.9147 -0.6817 -1.6703
  565MOL0     H74574   7.192   1.141   9.116 -0.2293 -0.7962  0.0296
  565MOL0     H74575   7.255   0.989   9.066 -0.5521 -2.1821  1.6378
  565MOL0     H74576   7.454   1.022   9.221  2.8710 -0.1013 -1.9115
  565MOL0     H74577   7.450   1.126   9.081  0.9085 -0.4899  1.2712
  565MOL0     H74578   7.415   1.440   9.354  0.6815 -0.4707 -2.1012
  565MOL0     H74579   6.771   0.945   9.163  2.1913 -0.4041 -0.4298
  565MOL0     H74580   6.576   0.838   9.041 -0.3965  0.6307 -0.5046
  566MOL0     O74581  11.300   1.963  10.691 -0.7243  0.3806 -0.3878
  566MOL0     C74582  11.237   2.067  10.680 -0.1214  0.3867 -0.2478
  566MOL0     O74583  11.289   2.189  10.627 -0.3198  0.1255  0.1059
  566MOL0     C74584  11.419   2.203  10.604 -0.6881 -0.1218  0.4238
  566MOL0     C74585  11.491   2.312  10.657 -0.0994  0.7538  0.7956
  566MOL0     C74586  11.609   2.343  10.594  0.5638 -0.2855  1.1250
  566MOL0     C74587  11.657   2.272  10.482 -0.1263  1.0478  0.7127
  566MOL0     O74588  11.773   2.295  10.406 -0.4102  0.1203 -0.3112
  566MOL0     C74589  11.883   2.373  10.461 -1.0331  0.4095 -0.0811
  566MOL0     C74590  11.988   2.401  10.348 -0.3650  1.4080  1.2958
  566MOL0     C74591  12.116   2.479  10.390  0.1906  0.1447 -0.8918
  566MOL0     C74592  12.230   2.480  10.287 -0.1911  0.4974 -0.6521
  566MOL0     C74593  12.338   2.591  10.307 -0.2329 -0.4900  0.8221
  566MOL0     C74594  12.407   2.586  10.448  0.4867 -0.4513  0.4185
  566MOL0     C74595  12.505   2.706  10.474  0.0823 -0.5234  0.1147
  566MOL0     C74596  12.609   2.690  10.592  0.4631  0.0757 -0.3267
  566MOL0     N74597  12.537   2.720  10.716 -0.2889  0.3852 -0.1877
  566MOL0     C74598  12.519   2.842  10.777 -0.8495  0.0187 -0.9459
  566MOL0     C74599  12.475   2.811  10.903  0.2053  0.0222  0.2160
  566MOL0     C74600  12.430   2.910  11.013 -0.7886 -0.0011 -0.1865
  566MOL0     C74601  12.291   2.961  11.001 -0.2607  0.9683  0.5218
  566MOL0     C74602  12.187   2.847  11.027  0.5736  0.3200  0.0606
  566MOL0     C74603  12.043   2.890  11.000  0.4051 -0.5216  0.9951
  566MOL0     O74604  12.003   2.975  11.101  0.9415 -0.3858 -0.2023
  566MOL0     C74605  11.895   2.934  11.173  0.8780  0.0728 -0.5717
  566MOL0     C74606  11.773   2.886  11.118 -0.5604 -0.4037 -0.4023
  566MOL0     C74607  11.667   2.855  11.201 -0.7505 -0.5154  0.5721
  566MOL0     C74608  11.679   2.872  11.342  0.6447 -0.0101  0.2413
  566MOL0     C74609  11.550   2.841  11.428 -1.0215  0.0050 -0.2544
  566MOL0     O74610  11.419   2.858  11.383  0.7723 -0.1008  0.2048
  566MOL0     C74611  11.316   2.805  11.463 -0.4119  1.2073 -0.2250
  566MOL0     C74612  11.310   2.685  11.527 -0.3123  0.7156  0.4975
  566MOL0     C74613  11.199   2.641  11.603 -0.5958 -0.3820  0.6096
  566MOL0     C74614  11.083   2.721  11.600  0.9194 -0.0288 -0.1715
  566MOL0     O74615  10.968   2.679  11.673 -0.2255 -0.1356 -0.3038
  566MOL0     C74616  10.837   2.752  11.653  0.0434 -0.3205 -0.4511
  566MOL0     C74617  10.779   2.730  11.516 -0.7675  0.1526  0.5553
  566MOL0     C74618  10.631   2.666  11.514 -1.4456 -0.9790  0.2078
  566MOL0     C74619  10.629   2.525  11.559 -0.3058  0.1836 -0.1806
  566MOL0     C74620  10.482   2.491  11.592  0.9043  0.2143  0.3790
  566MOL0     C74621  10.429   2.527  11.730  0.4548  0.6092 -0.4263
  566MOL0     C74622  10.279   2.511  11.731  0.2445  0.1413 -0.6246
  566MOL0     C74623  10.223   2.385  11.674  0.3467  0.4870  0.1606
  566MOL0    Cl74624  10.205   2.384  11.493  0.3433  0.2689 -0.5712
  566MOL0     C74625  11.094   2.851  11.542 -0.3266 -0.3773  0.0827
  566MOL0     C74626  11.208   2.886  11.471 -0.3790  0.7559  0.3661
  566MOL0     O74627  11.581   2.798  11.538 -0.2731 -0.3996  0.0743
  566MOL0     C74628  11.805   2.895  11.405 -0.3186 -0.1763  0.6062
  566MOL0     C74629  11.910   2.930  11.314 -0.0501 -0.8973 -0.7407
  566MOL0     N74630  12.474   2.671  10.919  0.2780  0.7016  0.3460
  566MOL0     N74631  12.512   2.618  10.802  0.2283  1.0200 -0.2080
  566MOL0     C74632  11.586   2.158  10.444  0.3120 -0.2376 -0.0058
  566MOL0     C74633  11.478   2.118  10.510 -0.0526  0.1560  0.6804
  566MOL0     C74634  11.092   2.059  10.716  0.1033  1.0817 -0.3864
  566MOL0     C74635  11.031   1.937  10.719  0.0525 -0.0167  0.5369
  566MOL0     C74636  10.896   1.924  10.745  0.3441  0.5350 -0.5583
  566MOL0     C74637  10.825   2.043  10.764  0.0034  0.7557 -0.2187
  566MOL0     O74638  10.697   2.043  10.801  0.4747  0.2796 -0.8802
  566MOL0     C74639  10.614   1.925  10.818  0.4572  0.5370  0.7386
  566MOL0     C74640  10.469   1.955  10.800 -0.7138  0.2564  0.5052
  566MOL0     C74641  10.445   1.977  10.643 -0.1853 -0.2091 -0.7617
  566MOL0     C74642  10.291   1.966  10.607 -1.3925  0.1164  0.1178
  566MOL0     C74643  10.205   2.059  10.683  0.4316  0.3344  1.1118
  566MOL0     C74644  10.135   2.138  10.743 -0.0209  0.8324 -0.9108
  566MOL0     C74645  10.888   2.169  10.775 -0.3851  0.0002  0.3834
  566MOL0     C74646  11.021   2.181  10.751  0.2901 -0.0449  1.0691
  566MOL0     H74647  11.448   2.370  10.739 -1.7243 -2.8988  2.7402
  566MOL0     H74648  11.659   2.436  10.621  0.1112 -0.5325  2.9550
  566MOL0     H74649  11.930   2.314  10.541 -1.1008 -0.6656 -0.8058
  566MOL0     H74650  11.863   2.466  10.516  0.6051  0.5554  0.3174
  566MOL0     H74651  11.951   2.441  10.253 -1.1018  3.0430  2.2299
  566MOL0     H74652  12.033   2.304  10.323  0.1827  1.6965  1.1433
  566MOL0     H74653  12.163   2.441  10.482  1.4876  1.0729 -1.1470
  566MOL0     H74654  12.089   2.584  10.403  4.9554  1.4235  0.8527
  566MOL0     H74655  12.274   2.381  10.281  0.2570  0.7322 -1.3323
  566MOL0     H74656  12.186   2.507  10.190 -0.5355  1.2572 -0.3025
  566MOL0     H74657  12.301   2.694  10.305 -1.1457 -0.7098  3.2346
  566MOL0     H74658  12.421   2.589  10.235  0.1436 -1.8615  1.2647
  566MOL0     H74659  12.460   2.491  10.441 -1.5682 -1.6250  0.0230
  566MOL0     H74660  12.331   2.585  10.527  0.9854  0.1442  0.9183
  566MOL0     H74661  12.556   2.722  10.379  0.2042 -5.1498 -0.8288
  566MOL0     H74662  12.450   2.798  10.499  1.9859  0.9635 -0.9246
  566MOL0     H74663  12.687   2.763  10.570  0.7671 -0.7276 -2.1387
  566MOL0     H74664  12.660   2.593  10.597  0.9086  0.3046 -0.3582
  566MOL0     H74665  12.542   2.943  10.745  5.1061 -0.5512  0.3089
  566MOL0     H74666  12.499   2.995  11.011 -1.0885  0.4444  2.8602
  566MOL0     H74667  12.446   2.855  11.107 -0.2952 -3.9852 -2.3978
  566MOL0     H74668  12.285   3.010  10.903 -0.8504  1.1476  0.6420
  566MOL0     H74669  12.269   3.035  11.079 -2.0901  1.8783 -0.7634
  566MOL0     H74670  12.201   2.754  10.972 -2.5564  1.3790 -2.8870
  566MOL0     H74671  12.184   2.814  11.131 -1.4202  0.9314  0.2305
  566MOL0     H74672  11.989   2.794  10.999 -0.4730 -0.0392  0.8256
  566MOL0     H74673  12.028   2.938  10.903 -2.7598  2.6619  2.8328
  566MOL0     H74674  11.761   2.883  11.010  0.9410 -1.1003 -0.5736
  566MOL0     H74675  11.582   2.823  11.141 -0.8840 -2.3637  1.6664
  566MOL0     H74676  11.395   2.617  11.518 -0.1554  1.0862 -1.1230
  566MOL0     H74677  11.188   2.550  11.661 -1.0303 -1.7013 -1.4374
  566MOL0     H74678  10.835   2.859  11.675 -2.2036 -0.6840  1.5640
  566MOL0     H74679  10.768   2.708  11.725  1.6666 -1.5307  0.4476
  566MOL0     H74680  10.844   2.658  11.465 -0.3329  0.2422  0.9835
  566MOL0     H74681  10.778   2.822  11.456  1.2334  0.0277  0.2647
  566MOL0     H74682  10.584   2.666  11.415 -3.8150  1.3002  1.1979
  566MOL0     H74683  10.572   2.736  11.574  0.0542  2.5015 -2.0005
  566MOL0     H74684  10.660   2.462  11.475 -2.6206 -1.3264  0.0101
  566MOL0     H74685  10.699   2.494  11.637 -2.1770 -1.6336  0.8885
  566MOL0     H74686  10.479   2.381  11.598  0.9651  0.2195  0.5050
  566MOL0     H74687  10.418   2.529  11.512 -3.9738  0.8092  4.1122
  566MOL0     H74688  10.451   2.632  11.749 -1.2028  0.9345 -0.1706
  566MOL0     H74689  10.470   2.471  11.815 -0.1888 -1.4426 -1.3899
  566MOL0     H74690  10.236   2.519  11.831 -1.8405  1.9235 -1.5790
  566MOL0     H74691  10.245   2.601  11.679 -0.9521  0.9085  1.3886
  566MOL0     H74692  10.119   2.381  11.707  0.6978  1.0402  1.3655
  566MOL0     H74693  10.289   2.300  11.693 -0.0912 -0.5771 -2.5478
  566MOL0     H74694  11.005   2.914  11.544  0.1023  0.2818 -0.6511
  566MOL0     H74695  11.217   2.980  11.417  1.1282  1.2214  1.3634
  566MOL0     H74696  11.838   2.891  11.508  1.0468 -1.1863  0.1569
  566MOL0     H74697  12.013   2.944  11.346 -0.7830 -1.4462  2.0771
  566MOL0     H74698  11.608   2.114  10.347 -0.8678 -1.4159  0.2373
  566MOL0     H74699  11.435   2.030  10.464 -0.4242  0.6516  0.0598
  566MOL0     H74700  11.081   1.842  10.702  0.8401 -0.1333  3.0648
  566MOL0     H74701  10.845   1.828  10.743  3.6056 -1.3834  0.6816
  566MOL0     H74702  10.623   1.876  10.916 -0.5155 -0.0947  0.5262
  566MOL0     H74703  10.644   1.852  10.743 -0.0035  2.3532 -1.2986
  566MOL0     H74704  10.405   1.881  10.850 -1.0459  0.3132  0.1731
  566MOL0     H74705  10.458   2.054  10.845 -0.7914  1.9305 -2.9463
  566MOL0     H74706  10.508   1.903  10.593 -0.5485 -2.2872  1.6274
  566MOL0     H74707  10.488   2.073  10.613 -2.6012  0.6593 -1.6746
  566MOL0     H74708  10.277   2.004  10.505  2.2118  0.7733 -0.2628
  566MOL0     H74709  10.266   1.861  10.622  0.5703 -0.0049  3.2895
  566MOL0     H74710  10.082   2.209  10.802 -0.6902 -0.4631  0.0898
  566MOL0     H74711  10.840   2.262  10.805  0.9627  0.1943  2.0356
  566MOL0     H74712  11.073   2.276  10.753 -1.1067  0.7509  0.9590
  567MOL0     O74713   6.238   1.122   2.836 -0.2909  0.0572 -0.0629
  567MOL0     C74714   6.315   1.190   2.911  0.3087  0.5394  0.1867
  567MOL0     O74715   6.291   1.217   3.044 -0.1954  0.5486  0.1125
  567MOL0     C74716   6.159   1.230   3.078 -0.2599 -0.9327  0.8873
  567MOL0     C74717   6.116   1.162   3.189  0.4167  0.5147  0.2897
  567MOL0     C74718   6.001   1.191   3.255 -0.7471  0.1675 -1.1610
  567MOL0     C74719   5.914   1.280   3.208 -0.0566 -0.2683 -0.0404
  567MOL0     O74720   5.793   1.287   3.278  0.3548  0.0803  0.4186
  567MOL0     C74721   5.742   1.420   3.306 -0.0137  0.4842  0.2450
  567MOL0     C74722   5.592   1.427   3.298 -0.4540 -0.1906  0.2697
  567MOL0     C74723   5.532   1.356   3.417  0.1576  0.2991  0.3475
  567MOL0     C74724   5.384   1.373   3.408  0.6716  0.5253  0.2575
  567MOL0     C74725   5.330   1.294   3.524  0.1041  0.5458  0.2014
  567MOL0     C74726   5.175   1.275   3.511 -0.2000 -1.4450  0.2799
  567MOL0     C74727   5.095   1.404   3.532 -0.1418  1.2554 -0.8895
  567MOL0     C74728   5.131   1.484   3.660 -0.1310 -0.9804  0.1238
  567MOL0     N74729   5.097   1.401   3.778  0.0876 -0.5230 -1.2759
  567MOL0     C74730   4.969   1.363   3.810  0.3907  0.6206  1.0655
  567MOL0     C74731   4.983   1.287   3.925 -0.5235  0.6231  0.0528
  567MOL0     C74732   4.876   1.242   4.011 -0.4155 -0.8561  0.0082
  567MOL0     C74733   4.841   1.343   4.111 -0.8138 -0.0489 -0.0698
  567MOL0     C74734   4.769   1.462   4.045  0.3546 -0.0688  0.6292
  567MOL0     C74735   4.743   1.572   4.144  0.2543 -0.0520  0.4995
  567MOL0     O74736   4.652   1.518   4.250 -0.8955 -0.4853 -0.0644
  567MOL0     C74737   4.619   1.606   4.345  0.2934  0.0062 -0.8275
  567MOL0     C74738   4.639   1.745   4.348 -0.0892  0.1643 -0.2264
  567MOL0     C74739   4.613   1.822   4.463  0.6708  0.1447 -0.4874
  567MOL0     C74740   4.543   1.763   4.570  0.1761  0.3492 -0.0044
  567MOL0     C74741   4.497   1.841   4.685  0.3167  0.2164  0.6652
  567MOL0     O74742   4.446   1.782   4.799  0.5709 -1.2086 -0.4003
  567MOL0     C74743   4.392   1.874   4.882 -0.3127 -0.0628  0.1582
  567MOL0     C74744   4.472   1.958   4.971  0.7121 -0.2454  1.0305
  567MOL0     C74745   4.415   2.067   5.029 -0.2883  0.9858 -0.7806
  567MOL0     C74746   4.272   2.085   5.033 -0.1810 -0.2794  0.5332
  567MOL0     O74747   4.229   2.189   5.098  0.2345 -0.1678  0.5544
  567MOL0     C74748   4.087   2.199   5.106 -0.0687 -1.0489 -0.2552
  567MOL0     C74749   4.054   2.308   5.214  0.2181  0.2875 -0.2281
  567MOL0     C74750   4.112   2.266   5.351  0.9795  0.8981  0.1210
  567MOL0     C74751   4.067   2.365   5.462  0.5727  1.1058  0.4715
  567MOL0     C74752   4.146   2.373   5.590 -0.7059 -0.5287  0.6853
  567MOL0     C74753   4.162   2.238   5.659  0.2546  0.2962  0.1662
  567MOL0     C74754   4.169   2.240   5.814 -0.6372 -0.0906  0.0377
  567MOL0     C74755   4.179   2.102   5.880  0.5271  0.0082  0.0890
  567MOL0    Cl74756   4.034   2.002   5.855  0.0078  0.6002  0.0373
  567MOL0     C74757   4.202   2.002   4.944  0.1914  0.4079  0.4807
  567MOL0     C74758   4.253   1.894   4.869  0.3418 -0.6301  0.3292
  567MOL0     O74759   4.476   1.963   4.648  0.4058 -0.3504  0.2007
  567MOL0     C74760   4.506   1.626   4.565  0.4152  0.3232 -1.3477
  567MOL0     C74761   4.547   1.551   4.456 -0.2148 -0.1457 -0.4832
  567MOL0     N74762   5.112   1.277   3.957 -0.7761  0.4920 -0.0452
  567MOL0     N74763   5.183   1.340   3.865 -0.8242 -0.8169 -1.0571
  567MOL0     C74764   5.950   1.349   3.089  0.2837  0.0826 -0.7844
  567MOL0     C74765   6.071   1.323   3.021  0.1089  0.1439 -0.5111
  567MOL0     C74766   6.448   1.235   2.858 -0.1392 -0.3921  0.5097
  567MOL0     C74767   6.479   1.243   2.718 -0.6341  0.1239 -0.3787
  567MOL0     C74768   6.609   1.278   2.682  0.2997 -0.3231  0.6363
  567MOL0     C74769   6.706   1.314   2.778 -0.2107  0.2350  0.0055
  567MOL0     O74770   6.834   1.343   2.744 -0.0425  0.3316  0.6960
  567MOL0     C74771   6.842   1.453   2.658 -0.0407  0.0970  0.1050
  567MOL0     C74772   6.985   1.480   2.598  0.8152 -0.7157 -0.0029
  567MOL0     C74773   7.065   1.577   2.691 -1.0243  0.3369  0.0578
  567MOL0     C74774   7.215   1.565   2.670  0.0324  0.2347  1.6574
  567MOL0     C74775   7.276   1.447   2.730 -0.3902  0.4327 -0.1436
  567MOL0     C74776   7.328   1.346   2.768  0.3940  1.2625 -0.3630
  567MOL0     C74777   6.671   1.303   2.916  0.4252 -0.3701 -0.1375
  567MOL0     C74778   6.546   1.274   2.952  0.2000  0.9469  0.0621
  567MOL0     H74779   6.185   1.084   3.220 -0.7820 -1.5101 -1.8433
  567MOL0     H74780   5.994   1.146   3.353 -3.4125  0.4226 -1.1563
  567MOL0     H74781   5.790   1.495   3.242  0.4122 -0.3411 -0.4190
  567MOL0     H74782   5.772   1.445   3.408 -0.6513 -0.0441  0.5716
  567MOL0     H74783   5.554   1.385   3.204  2.4160 -1.0429 -0.6139
  567MOL0     H74784   5.558   1.531   3.298 -0.1086 -0.0800  0.3946
  567MOL0     H74785   5.565   1.390   3.515  0.2657 -2.6980  1.4757
  567MOL0     H74786   5.566   1.252   3.404  2.5192  0.8167  1.7789
  567MOL0     H74787   5.354   1.478   3.417  0.2755  0.3218  1.5846
  567MOL0     H74788   5.356   1.332   3.310  6.2890 -0.2595 -1.3504
  567MOL0     H74789   5.364   1.333   3.620  1.4101 -1.7147  0.7343
  567MOL0     H74790   5.377   1.197   3.510  1.0663  0.5668  2.8233
  567MOL0     H74791   5.147   1.190   3.574  3.3039 -3.3511 -0.4944
  567MOL0     H74792   5.145   1.253   3.408  0.7019 -1.8418  0.0898
  567MOL0     H74793   5.115   1.469   3.447 -0.1976 -0.5168 -2.3214
  567MOL0     H74794   4.988   1.386   3.542 -0.3032  1.8735 -1.5292
  567MOL0     H74795   5.067   1.572   3.660 -0.7389 -1.3221 -2.8201
  567MOL0     H74796   5.238   1.505   3.658 -0.3773  0.7534  1.9377
  567MOL0     H74797   4.876   1.389   3.760  0.4659  0.5449  0.8870
  567MOL0     H74798   4.906   1.146   4.052  1.5938 -0.2923 -0.0285
  567MOL0     H74799   4.788   1.225   3.948 -0.4179 -0.9831  0.0476
  567MOL0     H74800   4.928   1.390   4.158 -2.1972  1.8612  0.7027
  567MOL0     H74801   4.783   1.299   4.193 -0.7478  0.1385  0.0785
  567MOL0     H74802   4.839   1.516   3.981 -0.1028  3.9957  3.2125
  567MOL0     H74803   4.673   1.429   4.005 -1.2212  3.0804  1.4623
  567MOL0     H74804   4.696   1.652   4.087 -1.5391 -2.5240 -1.7112
  567MOL0     H74805   4.840   1.609   4.180 -0.8739  2.2625  1.3644
  567MOL0     H74806   4.693   1.799   4.271 -0.7391  1.3405  0.1186
  567MOL0     H74807   4.632   1.929   4.462  0.4015  0.1960 -1.7185
  567MOL0     H74808   4.579   1.942   4.969  1.0048  1.5365  1.5195
  567MOL0     H74809   4.483   2.141   5.071  3.1969 -1.7252 -1.1691
  567MOL0     H74810   4.037   2.104   5.130  0.2081 -1.1639 -0.1371
  567MOL0     H74811   4.044   2.223   5.008 -0.0458  0.5462  0.1017
  567MOL0     H74812   3.946   2.327   5.218  0.4831  1.8038  2.4116
  567MOL0     H74813   4.108   2.397   5.183 -0.0204  1.7162  2.9997
  567MOL0     H74814   4.221   2.253   5.352  0.6878 -2.7487 -1.5191
  567MOL0     H74815   4.071   2.169   5.380 -1.0162  1.9641  1.0422
  567MOL0     H74816   4.074   2.467   5.423  3.3124  0.9652  0.4594
  567MOL0     H74817   3.962   2.340   5.483  0.8447 -1.1761 -0.4994
  567MOL0     H74818   4.090   2.446   5.648  0.4151  2.7784 -2.0945
  567MOL0     H74819   4.245   2.415   5.573 -1.3925  0.2773 -1.5653
  567MOL0     H74820   4.259   2.193   5.634  1.3484  3.3307 -1.5551
  567MOL0     H74821   4.086   2.170   5.621  1.1326 -2.1835  2.4412
  567MOL0     H74822   4.254   2.303   5.841 -1.1844  1.1945 -1.1127
  567MOL0     H74823   4.080   2.289   5.856 -0.6502  0.1617 -0.2805
  567MOL0     H74824   4.184   2.117   5.989 -1.3212 -1.0319  0.3477
  567MOL0     H74825   4.266   2.046   5.845 -1.8025 -2.3798 -2.3352
  567MOL0     H74826   4.095   2.010   4.929 -0.4014 -4.0376  0.9390
  567MOL0     H74827   4.205   1.835   4.792 -0.4194  2.0856 -1.4067
  567MOL0     H74828   4.437   1.582   4.636 -0.8340  3.4289 -0.4883
  567MOL0     H74829   4.513   1.449   4.443  2.0752 -1.1109  0.5234
  567MOL0     H74830   5.879   1.422   3.051  1.5624  0.8972 -1.7240
  567MOL0     H74831   6.094   1.386   2.935  1.8584 -1.2561 -1.1375
  567MOL0     H74832   6.406   1.215   2.643  0.3450 -0.5170 -1.1218
  567MOL0     H74833   6.645   1.274   2.579  0.9225 -0.6131  0.8601
  567MOL0     H74834   6.789   1.536   2.705 -0.6964  0.3194 -1.0038
  567MOL0     H74835   6.782   1.423   2.572 -2.3014  2.5176  0.7280
  567MOL0     H74836   7.031   1.385   2.572 -1.2242 -1.0254 -2.9923
  567MOL0     H74837   6.971   1.515   2.496  2.9407 -0.8266 -0.3683
  567MOL0     H74838   7.060   1.543   2.794  2.5214  3.4383  1.4655
  567MOL0     H74839   7.044   1.683   2.676  3.3543  1.3603 -0.1096
  567MOL0     H74840   7.241   1.568   2.563  0.8790 -2.4165  1.7233
  567MOL0     H74841   7.254   1.648   2.729 -2.2984  1.9047  1.0177
  567MOL0     H74842   7.378   1.256   2.799  1.4888  1.3638 -1.7894
  567MOL0     H74843   6.753   1.318   2.986  0.7491 -0.2356 -0.5367
  567MOL0     H74844   6.519   1.262   3.057  0.0410  2.1839  0.1716
  568MOL0     O74845   9.863   5.551   4.389  0.0771  0.7996  0.5368
  568MOL0     C74846   9.886   5.518   4.504 -0.2849 -0.3809 -0.5250
  568MOL0     O74847   9.797   5.459   4.579  0.5382  0.4192  0.0924
  568MOL0     C74848   9.670   5.417   4.540  0.4258  0.7968 -0.2113
  568MOL0     C74849   9.605   5.433   4.416 -0.2935  0.1764  0.0169
  568MOL0     C74850   9.466   5.414   4.391 -0.5839  0.4310  0.7142
  568MOL0     C74851   9.382   5.387   4.497 -0.3622 -0.0540 -0.3411
  568MOL0     O74852   9.247   5.395   4.471  0.1052 -0.0452 -0.5906
  568MOL0     C74853   9.154   5.350   4.571 -0.2081  0.3699 -0.7818
  568MOL0     C74854   9.018   5.312   4.516  0.2905  0.5330  0.3961
  568MOL0     C74855   8.996   5.367   4.377  0.2437  0.5926 -0.3813
  568MOL0     C74856   8.849   5.342   4.326 -0.1781  0.0584 -0.6428
  568MOL0     C74857   8.828   5.428   4.200  0.2890  0.9633 -0.6808
  568MOL0     C74858   8.689   5.391   4.138 -0.0131  0.7546  0.2873
  568MOL0     C74859   8.692   5.443   3.991  0.1447 -0.3644  0.2058
  568MOL0     C74860   8.567   5.417   3.916 -0.3663 -0.1068 -0.0711
  568MOL0     N74861   8.440   5.474   3.967 -0.9012  0.3760  0.6268
  568MOL0     C74862   8.353   5.407   4.047  0.0829 -0.0030 -1.0589
  568MOL0     C74863   8.270   5.510   4.081 -0.2099 -0.9564 -0.5311
  568MOL0     C74864   8.145   5.500   4.159  0.2579  0.2575  0.2231
  568MOL0     C74865   8.139   5.583   4.283  0.8765 -0.7790 -0.2217
  568MOL0     C74866   8.008   5.552   4.351  0.1076  1.1107  0.6784
  568MOL0     C74867   7.881   5.535   4.270  0.0269  0.0637  0.5856
  568MOL0     O74868   7.777   5.506   4.359 -0.6013 -0.2667  0.7002
  568MOL0     C74869   7.660   5.580   4.383 -0.8282  0.1021 -0.4243
  568MOL0     C74870   7.557   5.516   4.450 -0.0964 -0.3804 -0.5527
  568MOL0     C74871   7.432   5.578   4.477 -0.7814  0.4302  0.6586
  568MOL0     C74872   7.407   5.698   4.411  0.5260 -0.4201 -0.2184
  568MOL0     C74873   7.269   5.755   4.407  0.1595 -0.7942 -0.4049
  568MOL0     O74874   7.268   5.889   4.391  0.0829 -0.0762 -0.0183
  568MOL0     C74875   7.145   5.941   4.367 -0.1083 -0.0929 -0.6822
  568MOL0     C74876   7.073   5.897   4.255 -0.0054 -1.0779 -0.7966
  568MOL0     C74877   6.943   5.953   4.235  1.2184 -0.3038 -0.0621
  568MOL0     C74878   6.876   6.035   4.324  0.8825  1.3960 -0.7199
  568MOL0     O74879   6.742   6.042   4.302  0.0144  0.2760 -0.1613
  568MOL0     C74880   6.663   6.143   4.366  0.1606 -1.0408  0.0943
  568MOL0     C74881   6.688   6.296   4.322 -0.0790 -0.0073  0.5781
  568MOL0     C74882   6.659   6.301   4.171  1.0897 -0.2426 -0.5837
  568MOL0     C74883   6.640   6.450   4.134 -0.8736  0.6879 -0.0613
  568MOL0     C74884   6.611   6.469   3.978  0.0657 -0.0906  0.7299
  568MOL0     C74885   6.733   6.481   3.888 -0.2318  0.0116 -0.2920
  568MOL0     C74886   6.675   6.525   3.747  0.3635 -0.7181 -0.0681
  568MOL0     C74887   6.772   6.593   3.639 -0.4653  0.2705 -1.1041
  568MOL0    Cl74888   6.823   6.746   3.703 -0.7058  0.0526 -0.4725
  568MOL0     C74889   6.954   6.076   4.433 -0.4422 -0.9328  0.3233
  568MOL0     C74890   7.094   6.035   4.446  0.0116 -0.9491  0.2804
  568MOL0     O74891   7.175   5.690   4.447 -0.1991 -0.8620  0.0896
  568MOL0     C74892   7.507   5.764   4.332 -0.4344  0.3231 -0.8132
  568MOL0     C74893   7.633   5.710   4.333  0.5212  0.0490  0.5852
  568MOL0     N74894   8.313   5.631   4.032  0.0376 -0.3260  0.1838
  568MOL0     N74895   8.419   5.610   3.964 -0.2804  0.3773  0.4074
  568MOL0     C74896   9.443   5.363   4.622 -0.1380  0.6356 -0.3595
  568MOL0     C74897   9.583   5.372   4.637  0.1404 -0.5194 -0.1294
  568MOL0     C74898  10.015   5.558   4.566  0.8311  0.0335 -0.0275
  568MOL0     C74899  10.062   5.547   4.701  0.5338  0.0238 -0.1302
  568MOL0     C74900  10.179   5.604   4.743  0.5229  0.0108  0.6079
  568MOL0     C74901  10.265   5.666   4.647 -1.0465  0.2060  0.1356
  568MOL0     O74902  10.386   5.712   4.694  0.6270 -0.0270  0.0678
  568MOL0     C74903  10.378   5.837   4.748 -0.4407 -1.1390  0.5182
  568MOL0     C74904  10.518   5.878   4.809  0.2386  0.4358  0.4754
  568MOL0     C74905  10.505   6.020   4.849 -0.3800  0.1907 -0.3411
  568MOL0     C74906  10.636   6.099   4.855  0.2082  0.0134 -0.2722
  568MOL0     C74907  10.732   6.061   4.958 -0.2101  0.1529  0.2441
  568MOL0     C74908  10.815   6.030   5.039  0.0374 -0.0410 -0.0207
  568MOL0     C74909  10.233   5.669   4.515 -0.9701  0.1353 -0.1864
  568MOL0     C74910  10.103   5.626   4.477  0.4112 -0.0702 -0.3590
  568MOL0     H74911   9.659   5.466   4.328  0.3346  3.3274  1.4461
  568MOL0     H74912   9.411   5.434   4.299  0.6784 -2.0520 -0.6621
  568MOL0     H74913   9.147   5.434   4.641  2.3574 -0.8264  1.0703
  568MOL0     H74914   9.188   5.256   4.615  2.2054 -0.9746 -4.9313
  568MOL0     H74915   8.945   5.358   4.584  0.5980 -0.9986  1.8194
  568MOL0     H74916   8.998   5.205   4.529 -0.8955  0.7790  0.7684
  568MOL0     H74917   9.063   5.319   4.306 -0.5018 -0.4569 -0.4023
  568MOL0     H74918   9.009   5.475   4.380 -0.9477  0.7468 -0.0160
  568MOL0     H74919   8.845   5.235   4.306  3.0575 -0.1366 -0.7286
  568MOL0     H74920   8.775   5.375   4.400  0.9616 -1.1229  1.1069
  568MOL0     H74921   8.916   5.411   4.138  0.2512  2.7155 -1.2580
  568MOL0     H74922   8.809   5.530   4.235 -4.8037  0.2629 -0.6336
  568MOL0     H74923   8.605   5.423   4.200 -0.5092 -1.4574  0.8456
  568MOL0     H74924   8.694   5.282   4.135  0.2053  0.7836 -1.2413
  568MOL0     H74925   8.708   5.551   4.002  1.6028 -0.6682  1.3608
  568MOL0     H74926   8.777   5.399   3.939  0.4696  0.0754  0.3609
  568MOL0     H74927   8.564   5.308   3.910  1.7881 -0.5566  4.0250
  568MOL0     H74928   8.583   5.455   3.814  1.5655 -1.6977 -0.4221
  568MOL0     H74929   8.354   5.304   4.081  1.9742 -0.0214 -1.0733
  568MOL0     H74930   8.126   5.396   4.189 -1.1435  0.5326  0.3721
  568MOL0     H74931   8.073   5.527   4.082 -0.4037 -2.8817 -0.3983
  568MOL0     H74932   8.153   5.685   4.245  0.5386 -1.2012 -1.5347
  568MOL0     H74933   8.222   5.550   4.345  0.0225 -0.5895  1.0470
  568MOL0     H74934   8.026   5.464   4.414  1.4524  1.1630  0.4044
  568MOL0     H74935   7.990   5.643   4.410  0.2525  1.7234 -0.2022
  568MOL0     H74936   7.888   5.453   4.198 -0.0285  0.4356  0.1464
  568MOL0     H74937   7.862   5.618   4.200  3.1168  0.9520  0.6457
  568MOL0     H74938   7.571   5.420   4.497 -0.1479 -1.2357 -2.2346
  568MOL0     H74939   7.372   5.516   4.543 -2.9329  0.1372 -1.4054
  568MOL0     H74940   7.114   5.825   4.184  2.8373 -0.7129  0.3740
  568MOL0     H74941   6.893   5.914   4.147  0.3003  2.1936 -0.7558
  568MOL0     H74942   6.682   6.133   4.473  0.2378 -2.4492 -0.0357
  568MOL0     H74943   6.557   6.120   4.370  0.2790 -1.3984  1.3828
  568MOL0     H74944   6.791   6.327   4.343  0.9706 -0.7091 -2.8053
  568MOL0     H74945   6.622   6.368   4.370 -1.4254  2.3779 -4.2086
  568MOL0     H74946   6.571   6.244   4.142 -0.7960  2.2264 -0.0415
  568MOL0     H74947   6.740   6.251   4.118  2.7977  2.5364 -0.8052
  568MOL0     H74948   6.557   6.486   4.195 -2.1752 -1.0470 -0.7236
  568MOL0     H74949   6.727   6.499   4.178 -0.0073 -2.1458  1.6818
  568MOL0     H74950   6.543   6.555   3.970  1.2952  1.3239  3.6642
  568MOL0     H74951   6.551   6.382   3.951 -0.2400 -0.1613  1.6029
  568MOL0     H74952   6.776   6.381   3.877 -1.9910 -0.9671  1.0673
  568MOL0     H74953   6.806   6.551   3.929 -1.1762  0.9799 -0.2465
  568MOL0     H74954   6.624   6.440   3.700 -0.0295  0.2950 -1.5168
  568MOL0     H74955   6.601   6.605   3.758  0.2913 -0.5505 -1.6049
  568MOL0     H74956   6.711   6.604   3.549 -1.8029 -0.6439 -0.3504
  568MOL0     H74957   6.862   6.534   3.623 -0.2075  0.5083 -0.5562
  568MOL0     H74958   6.907   6.142   4.506 -1.5190  1.7157 -2.5243
  568MOL0     H74959   7.162   6.064   4.525 -0.8726  1.3369  0.2802
  568MOL0     H74960   7.481   5.853   4.275 -0.9614  0.7541  0.0848
  568MOL0     H74961   7.708   5.773   4.285 -0.8779  1.7890  0.5720
  568MOL0     H74962   9.385   5.345   4.712  0.2721 -1.1201 -0.4134
  568MOL0     H74963   9.641   5.345   4.725 -3.2753 -0.1972  2.4227
  568MOL0     H74964   9.983   5.510   4.766  1.8334  0.4745  1.7829
  568MOL0     H74965  10.213   5.589   4.845  0.9123  0.2532  0.5118
  568MOL0     H74966  10.294   5.839   4.819 -1.4723  1.1042 -0.6549
  568MOL0     H74967  10.343   5.915   4.679 -1.4218  0.0170  2.2334
  568MOL0     H74968  10.558   5.816   4.890  0.0895 -0.7570 -0.3353
  568MOL0     H74969  10.594   5.872   4.731 -0.1013  0.1203  0.1625
  568MOL0     H74970  10.451   6.026   4.943 -0.7913 -1.3520 -0.4534
  568MOL0     H74971  10.445   6.075   4.776 -0.1801 -0.0389 -0.6819
  568MOL0     H74972  10.672   6.111   4.752 -0.0626  2.2863 -0.1583
  568MOL0     H74973  10.612   6.201   4.885  3.0519  0.8695 -0.6006
  568MOL0     H74974  10.865   6.002   5.130 -0.7542 -1.7175 -0.0627
  568MOL0     H74975  10.299   5.721   4.446  0.5069  0.9048  1.7085
  568MOL0     H74976  10.078   5.638   4.372  0.1238 -0.1131 -0.2957
  569MOL0     O74977   8.575   8.334   7.500  0.1789 -0.2651  0.7402
  569MOL0     C74978   8.616   8.424   7.428 -0.6306  0.1515  0.0444
  569MOL0     O74979   8.548   8.489   7.332 -0.2167 -0.2267 -0.9071
  569MOL0     C74980   8.411   8.472   7.304  1.2141  1.0236  0.0002
  569MOL0     C74981   8.314   8.431   7.401 -0.4573  0.5283 -0.3786
  569MOL0     C74982   8.179   8.428   7.375 -0.6173 -0.0871 -0.4231
  569MOL0     C74983   8.134   8.460   7.247 -1.1068  0.2708  0.4410
  569MOL0     O74984   7.998   8.449   7.220  0.0570  0.2673  0.3131
  569MOL0     C74985   7.940   8.476   7.091 -0.2287  0.4099 -0.3185
  569MOL0     C74986   7.799   8.429   7.096  0.4274 -0.9635 -0.6342
  569MOL0     C74987   7.771   8.292   7.166  0.4163  0.7146  0.1471
  569MOL0     C74988   7.628   8.236   7.146  0.0784  0.0498 -0.0901
  569MOL0     C74989   7.587   8.125   7.253  0.0419 -0.0464 -0.4924
  569MOL0     C74990   7.694   8.011   7.262  0.2079 -0.7696  0.4389
  569MOL0     C74991   7.659   7.900   7.366  0.2036  0.0695  0.0302
  569MOL0     C74992   7.771   7.798   7.368 -0.0694 -0.7403 -1.0943
  569MOL0     N74993   7.876   7.860   7.446 -0.9761 -0.1232 -0.2804
  569MOL0     C74994   7.996   7.924   7.402 -0.1448 -0.1224  0.1056
  569MOL0     C74995   8.041   7.984   7.523 -1.3696  0.7722  0.5121
  569MOL0     C74996   8.178   8.048   7.517 -0.1653  0.9672  0.0871
  569MOL0     C74997   8.276   7.949   7.573 -1.0520  0.1634  0.1338
  569MOL0     C74998   8.428   7.975   7.528 -0.5347 -0.3186 -0.5522
  569MOL0     C74999   8.531   7.907   7.628  0.3036 -0.6491 -0.0342
  569MOL0     O75000   8.665   7.965   7.596  0.1921 -0.3068 -0.8726
  569MOL0     C75001   8.775   7.893   7.643  0.1650 -0.2324  0.0315
  569MOL0     C75002   8.902   7.921   7.584  0.2773  1.5613 -0.4099
  569MOL0     C75003   9.006   7.848   7.624  0.2195 -0.4094 -0.1728
  569MOL0     C75004   9.007   7.756   7.725 -0.0588  0.7123 -0.8143
  569MOL0     C75005   9.124   7.671   7.753 -0.3405 -0.1342  1.0921
  569MOL0     O75006   9.102   7.576   7.852 -0.5405  0.1467  0.0493
  569MOL0     C75007   9.201   7.502   7.913 -0.0522 -0.7059 -0.7837
  569MOL0     C75008   9.202   7.472   8.054  0.3116 -0.3039 -0.5965
  569MOL0     C75009   9.307   7.409   8.108  0.2087  0.2410  0.4137
  569MOL0     C75010   9.409   7.353   8.034 -0.7214 -0.1983  0.0782
  569MOL0     O75011   9.522   7.320   8.108 -0.3952 -0.2218 -0.3056
  569MOL0     C75012   9.619   7.233   8.047 -0.5605 -0.3717 -0.5946
  569MOL0     C75013   9.718   7.175   8.150 -0.3993 -0.2324 -0.0990
  569MOL0     C75014   9.827   7.268   8.214  0.5619  0.4837 -0.0588
  569MOL0     C75015   9.778   7.404   8.247 -0.2463 -0.3134 -0.1402
  569MOL0     C75016   9.721   7.424   8.386  0.3881 -0.1159 -0.0942
  569MOL0     C75017   9.682   7.565   8.420  0.9558 -0.4254 -1.1311
  569MOL0     C75018   9.614   7.545   8.557  0.0372  0.1343 -0.9937
  569MOL0     C75019   9.590   7.678   8.633 -0.3928 -0.7185 -0.5511
  569MOL0    Cl75020   9.500   7.819   8.554 -0.5491  0.4198  0.2549
  569MOL0     C75021   9.402   7.374   7.897  0.4128 -0.0186 -0.0863
  569MOL0     C75022   9.303   7.455   7.840  0.4573 -0.8949 -0.0558
  569MOL0     O75023   9.233   7.712   7.710  0.3120  0.4726 -1.0039
  569MOL0     C75024   8.887   7.727   7.791 -0.3627  0.3032  0.2442
  569MOL0     C75025   8.771   7.801   7.757  0.4339  0.0890  0.3758
  569MOL0     N75026   7.957   7.947   7.629  0.1268  0.9925  0.2155
  569MOL0     N75027   7.860   7.876   7.585 -0.4412  0.1236 -0.0315
  569MOL0     C75028   8.227   8.498   7.154 -0.7847  0.1795 -0.4218
  569MOL0     C75029   8.366   8.508   7.178 -0.3407  0.4417 -0.4145
  569MOL0     C75030   8.759   8.473   7.459 -0.2388 -0.6249  0.3353
  569MOL0     C75031   8.822   8.587   7.402 -0.3770 -0.1940 -0.0961
  569MOL0     C75032   8.948   8.635   7.439 -0.1021 -0.2627 -0.0779
  569MOL0     C75033   9.024   8.560   7.526  0.0062  0.4334 -0.0274
  569MOL0     O75034   9.147   8.617   7.553  0.8099  0.7606 -0.3073
  569MOL0     C75035   9.207   8.565   7.672  1.2186  0.4438 -0.1391
  569MOL0     C75036   9.333   8.639   7.698  0.4863 -0.3662  0.0066
  569MOL0     C75037   9.446   8.610   7.602  0.0951  0.3550 -0.5164
  569MOL0     C75038   9.558   8.686   7.666 -0.1105 -0.0447  0.8008
  569MOL0     C75039   9.667   8.699   7.569 -0.1158  0.3482  0.0473
  569MOL0     C75040   9.757   8.692   7.489  0.1126  0.0709  0.3775
  569MOL0     C75041   8.964   8.441   7.583  0.0544 -0.3705 -0.2864
  569MOL0     C75042   8.836   8.404   7.556  0.7961 -0.2892 -0.2036
  569MOL0     H75043   8.346   8.398   7.499 -1.3543 -1.1425 -0.6046
  569MOL0     H75044   8.109   8.393   7.451  2.1444  0.0816  2.4058
  569MOL0     H75045   7.994   8.421   7.013  2.2856 -0.4969  1.9138
  569MOL0     H75046   7.941   8.580   7.056  0.5543  0.3725 -0.4050
  569MOL0     H75047   7.757   8.441   6.995  0.1084  0.5968 -0.3432
  569MOL0     H75048   7.746   8.510   7.147  0.6178 -0.3759 -1.3363
  569MOL0     H75049   7.795   8.301   7.272  2.4485  1.0657 -0.2841
  569MOL0     H75050   7.841   8.220   7.121 -0.5123  0.4385 -0.9175
  569MOL0     H75051   7.558   8.318   7.131 -0.6871 -0.9347 -2.3878
  569MOL0     H75052   7.622   8.189   7.047 -2.3921 -0.5220  0.2620
  569MOL0     H75053   7.487   8.084   7.237 -0.1364  0.4396 -0.6483
  569MOL0     H75054   7.577   8.174   7.350 -4.3411 -0.9120 -0.2734
  569MOL0     H75055   7.789   8.048   7.302  0.3298 -0.8290  0.2045
  569MOL0     H75056   7.709   7.962   7.166  1.1153  0.3638 -0.0192
  569MOL0     H75057   7.639   7.927   7.470  3.6331  2.9266  0.1119
  569MOL0     H75058   7.568   7.848   7.336 -1.4347  1.7597  1.7757
  569MOL0     H75059   7.808   7.761   7.272  0.2080  1.2059 -1.7918
  569MOL0     H75060   7.734   7.710   7.420  1.5584 -2.6350 -2.9487
  569MOL0     H75061   8.026   7.939   7.299  1.2608 -0.8562  0.3763
  569MOL0     H75062   8.169   8.143   7.571 -1.7537  2.4581 -2.5771
  569MOL0     H75063   8.192   8.078   7.413  2.3921  0.1565  0.1322
  569MOL0     H75064   8.248   7.849   7.540 -2.2792 -1.0284  4.2285
  569MOL0     H75065   8.264   7.944   7.681 -0.5968 -1.6480  0.1174
  569MOL0     H75066   8.451   7.943   7.426  0.3192 -1.2679 -0.0860
  569MOL0     H75067   8.452   8.082   7.533 -2.4139  0.0959  0.4743
  569MOL0     H75068   8.519   7.802   7.599 -3.9710 -0.3397 -0.0651
  569MOL0     H75069   8.496   7.914   7.731 -0.1976  0.4330 -0.2646
  569MOL0     H75070   8.922   7.990   7.502  1.3095  0.8130 -0.8198
  569MOL0     H75071   9.097   7.860   7.566  0.9419  0.2073  1.0501
  569MOL0     H75072   9.121   7.497   8.123 -0.4379  0.6423 -1.7663
  569MOL0     H75073   9.315   7.414   8.216  0.9229  3.9947  0.3129
  569MOL0     H75074   9.682   7.288   7.977  0.7568  0.4120  1.1113
  569MOL0     H75075   9.570   7.155   7.989  1.1956 -0.2703 -2.3317
  569MOL0     H75076   9.771   7.092   8.102 -2.8388 -1.2961 -1.1471
  569MOL0     H75077   9.661   7.144   8.238  0.1705  1.9012  1.0828
  569MOL0     H75078   9.915   7.274   8.150  0.0498 -0.4217 -0.8684
  569MOL0     H75079   9.858   7.227   8.311 -3.1673  0.6733  1.3975
  569MOL0     H75080   9.871   7.460   8.235  1.3424 -2.5287  1.1254
  569MOL0     H75081   9.710   7.439   8.168  0.4011 -2.2488 -1.6391
  569MOL0     H75082   9.788   7.380   8.460  0.6499  0.8030  0.2271
  569MOL0     H75083   9.634   7.358   8.393 -0.6502  1.1457 -0.4742
  569MOL0     H75084   9.605   7.600   8.351 -0.4396 -0.5284  0.3120
  569MOL0     H75085   9.764   7.637   8.423 -1.1579  2.1784 -1.7334
  569MOL0     H75086   9.513   7.504   8.541 -0.5466 -0.0303  2.3691
  569MOL0     H75087   9.678   7.488   8.624  2.4503  2.6708 -0.9748
  569MOL0     H75088   9.686   7.711   8.674  1.7160 -2.0775 -3.9750
  569MOL0     H75089   9.532   7.657   8.723 -0.2947  3.6463  0.7418
  569MOL0     H75090   9.491   7.357   7.837 -1.4654 -1.5857 -2.6433
  569MOL0     H75091   9.328   7.471   7.735  1.4106 -1.4506  0.0722
  569MOL0     H75092   8.871   7.643   7.857 -0.0028 -1.8063 -2.1925
  569MOL0     H75093   8.673   7.778   7.799 -1.8118  0.4773 -4.0558
  569MOL0     H75094   8.195   8.513   7.052  0.8834  2.0297 -0.7327
  569MOL0     H75095   8.419   8.558   7.097 -1.6055  1.0272 -0.9062
  569MOL0     H75096   8.770   8.633   7.318 -2.1304  1.1434  1.6179
  569MOL0     H75097   8.996   8.724   7.401 -0.6418 -0.8040 -2.1583
  569MOL0     H75098   9.221   8.458   7.658 -0.5710  0.4974 -3.7136
  569MOL0     H75099   9.143   8.576   7.760  0.5607  1.2025 -0.6919
  569MOL0     H75100   9.319   8.747   7.691 -0.2260 -0.5375 -2.5158
  569MOL0     H75101   9.358   8.616   7.802  0.4218  0.9349  0.3193
  569MOL0     H75102   9.413   8.634   7.501 -3.0584 -0.7986  0.1204
  569MOL0     H75103   9.481   8.507   7.605  1.8635  0.8839 -1.4798
  569MOL0     H75104   9.525   8.790   7.668 -0.9584 -0.3020  0.6050
  569MOL0     H75105   9.583   8.658   7.769  3.9215 -0.9016 -0.2748
  569MOL0     H75106   9.835   8.665   7.421  0.7937  0.2686  1.0686
  569MOL0     H75107   9.030   8.379   7.643  2.0633  0.3869 -1.6128
  569MOL0     H75108   8.793   8.326   7.617 -0.1863  1.0789  0.9153
  570MOL0     O75109   9.612  10.423   0.801 -0.3962 -0.6661 -0.3939
  570MOL0     C75110   9.676  10.397   0.695 -0.3238 -0.8444  0.7307
  570MOL0     O75111   9.626  10.338   0.581  0.7022  0.1091  0.1355
  570MOL0     C75112   9.492  10.319   0.595  0.1980  0.8275 -0.3405
  570MOL0     C75113   9.398  10.417   0.583  0.5477 -0.0415  0.0175
  570MOL0     C75114   9.261  10.385   0.583 -0.2282 -0.4705  1.3228
  570MOL0     C75115   9.215  10.251   0.577 -0.4903  0.6380  0.3504
  570MOL0     O75116   9.084  10.206   0.586  0.1069  0.3287 -0.1202
  570MOL0     C75117   9.008  10.219   0.468  0.4748 -0.4840  0.2416
  570MOL0     C75118   8.869  10.154   0.488  0.1718 -0.6176  0.4367
  570MOL0     C75119   8.788  10.143   0.357 -0.7959  0.1301 -0.0111
  570MOL0     C75120   8.644  10.095   0.362 -0.4763  0.6052 -0.5750
  570MOL0     C75121   8.645   9.952   0.429  0.7424 -0.4400  0.3175
  570MOL0     C75122   8.736   9.841   0.366  0.0771 -0.0628 -0.9790
  570MOL0     C75123   8.696   9.821   0.218 -0.1262  0.0072 -1.2714
  570MOL0     C75124   8.790   9.741   0.134  0.1480 -0.3038  0.2149
  570MOL0     N75125   8.935   9.777   0.136 -0.3395  0.2929 -0.1616
  570MOL0     C75126   8.991   9.901   0.119 -0.3047 -0.0367  0.1771
  570MOL0     C75127   9.129   9.879   0.136  1.4913 -0.5725 -0.3067
  570MOL0     C75128   9.237   9.973   0.136  0.0030  0.5669  0.2803
  570MOL0     C75129   9.356   9.937   0.043  0.1339  0.9389 -0.1641
  570MOL0     C75130   9.462  10.051   0.035 -0.4143  0.7920 -0.6215
  570MOL0     C75131   9.502  10.108   0.176  0.2457  0.4364  0.0402
  570MOL0     O75132   9.594  10.212   0.149  0.3138  0.5291  0.3254
  570MOL0     C75133   9.726  10.186   0.158  0.4721  0.6391 -0.1463
  570MOL0     C75134   9.799  10.163   0.273  0.1573 -0.2866 -0.8640
  570MOL0     C75135   9.941  10.158   0.282  0.7817 -0.4360 -0.0434
  570MOL0     C75136  10.014  10.161   0.162  0.0129  0.2626 -0.7572
  570MOL0     C75137  10.155  10.189   0.162 -0.7095 -0.6064 -0.1968
  570MOL0     O75138  10.218  10.183   0.282 -0.0744 -0.1261 -0.3874
  570MOL0     C75139  10.354  10.215   0.286 -0.2834 -0.0791 -1.1991
  570MOL0     C75140  10.449  10.130   0.230  0.2329 -0.1393  0.0735
  570MOL0     C75141  10.581  10.157   0.239  0.2751 -0.4509  0.1757
  570MOL0     C75142  10.621  10.263   0.317 -0.1260  0.6777  0.3789
  570MOL0     O75143  10.758  10.267   0.341  0.1757  0.4990 -0.2976
  570MOL0     C75144  10.825  10.366   0.256 -0.3175 -1.0966  0.1668
  570MOL0     C75145  10.978  10.392   0.291 -0.1588  0.3466 -0.4446
  570MOL0     C75146  11.070  10.256   0.274 -0.9580 -0.1800 -0.0359
  570MOL0     C75147  11.144  10.204   0.401  0.0934 -0.1699 -0.3309
  570MOL0     C75148  11.190  10.055   0.380 -0.5644 -0.0802 -0.8514
  570MOL0     C75149  11.075   9.961   0.396  0.3400 -0.9125 -0.0805
  570MOL0     C75150  11.126   9.815   0.393 -0.3181  0.4230  0.0424
  570MOL0     C75151  11.005   9.719   0.408  0.0478 -0.4071  0.2355
  570MOL0    Cl75152  11.079   9.567   0.444 -0.7073  0.2023  0.1086
  570MOL0     C75153  10.526  10.351   0.374 -0.9920 -0.9576  0.1343
  570MOL0     C75154  10.393  10.324   0.366 -0.4366 -0.6150  0.4969
  570MOL0     O75155  10.204  10.218   0.054  0.5620 -0.3033  0.3990
  570MOL0     C75156   9.941  10.165   0.038 -0.1677  0.2478 -0.5717
  570MOL0     C75157   9.803  10.190   0.038 -0.9386  0.1745  0.3024
  570MOL0     N75158   9.154   9.750   0.169 -0.1813  0.4923  0.2464
  570MOL0     N75159   9.035   9.683   0.169 -0.8522 -0.5468  0.3543
  570MOL0     C75160   9.311  10.154   0.603  0.0080 -0.5364 -0.1359
  570MOL0     C75161   9.450  10.188   0.608  0.9635  0.3931 -0.1009
  570MOL0     C75162   9.806  10.457   0.705 -0.1124  0.4432 -0.0023
  570MOL0     C75163   9.900  10.411   0.608 -0.4418 -0.5575 -0.8677
  570MOL0     C75164  10.035  10.451   0.613 -1.0320 -0.6043 -0.2319
  570MOL0     C75165  10.076  10.544   0.709 -0.4209 -0.6066  0.2025
  570MOL0     O75166  10.200  10.583   0.749 -0.3659  0.2099  0.7537
  570MOL0     C75167  10.303  10.486   0.724 -0.1176  0.2009 -0.2648
  570MOL0     C75168  10.423  10.539   0.806 -0.6507  0.0113  0.2249
  570MOL0     C75169  10.534  10.430   0.813 -0.0934 -0.3025 -0.8572
  570MOL0     C75170  10.676  10.468   0.858  0.2132  0.8695 -0.1086
  570MOL0     C75171  10.752  10.531   0.751  0.6160  0.1033  0.3622
  570MOL0     C75172  10.823  10.574   0.660 -0.3465  0.4753  0.3127
  570MOL0     C75173   9.984  10.598   0.795 -1.2569  1.1884  0.3279
  570MOL0     C75174   9.853  10.551   0.801 -0.2629 -1.1417 -0.1433
  570MOL0     H75175   9.429  10.521   0.581 -2.6214  1.0140 -0.1782
  570MOL0     H75176   9.176  10.452   0.576 -1.6034 -2.3425 -2.4045
  570MOL0     H75177   9.068  10.168   0.392  2.5581 -0.4095  1.7576
  570MOL0     H75178   8.991  10.325   0.450  1.3251 -0.3789  0.0425
  570MOL0     H75179   8.820  10.220   0.560  0.6774  0.8564 -0.5146
  570MOL0     H75180   8.884  10.056   0.534 -2.5317 -0.9926  0.7049
  570MOL0     H75181   8.842  10.085   0.282 -0.5411  0.7412 -0.3086
  570MOL0     H75182   8.792  10.247   0.324 -2.8768  0.9179  1.9016
  570MOL0     H75183   8.585  10.155   0.432 -0.4344 -1.1044  0.9867
  570MOL0     H75184   8.601  10.104   0.261 -0.9438 -3.6768 -0.9113
  570MOL0     H75185   8.543   9.914   0.420  1.0185 -1.0004 -0.5980
  570MOL0     H75186   8.663   9.969   0.535  0.4200  2.7954 -0.0368
  570MOL0     H75187   8.734   9.743   0.414 -0.5700  0.7230  0.6863
  570MOL0     H75188   8.832   9.891   0.382 -0.2555  0.6484 -1.1569
  570MOL0     H75189   8.597   9.775   0.232 -0.6089  1.8262  3.1331
  570MOL0     H75190   8.687   9.921   0.176  3.7468  0.1264 -2.1697
  570MOL0     H75191   8.749   9.762   0.034  0.8153  0.6267  0.1203
  570MOL0     H75192   8.759   9.639   0.156 -2.9615 -0.0213 -2.1104
  570MOL0     H75193   8.939   9.993   0.091 -2.4120 -1.3515 -0.5437
  570MOL0     H75194   9.262   9.975   0.243 -2.5252 -0.6228  0.9522
  570MOL0     H75195   9.194  10.069   0.108 -3.7841 -1.0984 -0.2586
  570MOL0     H75196   9.323   9.911  -0.058  0.1170  0.2125  0.0210
  570MOL0     H75197   9.407   9.852   0.090 -2.3040  0.3454  1.6474
  570MOL0     H75198   9.546  10.002  -0.015 -1.7338 -0.5970 -1.5926
  570MOL0     H75199   9.439  10.130  -0.036 -0.9610 -0.4034 -1.8299
  570MOL0     H75200   9.545  10.021   0.226 -2.5510 -1.8832 -1.2579
  570MOL0     H75201   9.429  10.151   0.244  0.8504  0.6319  0.5726
  570MOL0     H75202   9.746  10.169   0.367 -0.5024  0.9060 -1.2932
  570MOL0     H75203   9.990  10.148   0.378  2.7982  1.5035 -0.7859
  570MOL0     H75204  10.422  10.031   0.195  1.6619 -1.8855  3.3543
  570MOL0     H75205  10.642  10.082   0.190 -0.1863 -1.5182  1.1661
  570MOL0     H75206  10.761  10.454   0.243  0.6311 -0.3874  0.2349
  570MOL0     H75207  10.830  10.320   0.157 -1.0560 -3.3363  1.1052
  570MOL0     H75208  10.993  10.420   0.396 -0.1539 -0.1953 -0.2968
  570MOL0     H75209  11.017  10.469   0.224  2.4510  0.2835  0.8620
  570MOL0     H75210  11.149  10.284   0.203 -1.7128  0.8969 -0.4933
  570MOL0     H75211  11.005  10.179   0.231  1.9411 -2.4190 -0.7503
  570MOL0     H75212  11.236  10.260   0.422 -0.3583  0.0930  1.0085
  570MOL0     H75213  11.076  10.217   0.485  3.2323 -0.0351  2.4163
  570MOL0     H75214  11.262  10.012   0.451 -1.5231  1.3240  1.0707
  570MOL0     H75215  11.245  10.048   0.286 -0.6934 -3.5545 -0.7855
  570MOL0     H75216  11.006   9.972   0.311  1.2910  2.5871 -0.5871
  570MOL0     H75217  11.022   9.987   0.488  2.0863  0.8520  0.5068
  570MOL0     H75218  11.164   9.792   0.293 -2.0008 -1.7226 -0.1634
  570MOL0     H75219  11.202   9.800   0.471 -0.3836  2.8757  0.6681
  570MOL0     H75220  10.945   9.714   0.317 -2.1107  2.4884  1.3404
  570MOL0     H75221  10.933   9.736   0.489 -1.6115 -0.1523 -1.2531
  570MOL0     H75222  10.560  10.432   0.439 -0.6089  0.2356 -1.4996
  570MOL0     H75223  10.314  10.386   0.408  0.9817  1.2175  0.5514
  570MOL0     H75224   9.997  10.173  -0.054  1.9417  0.8575  0.7111
  570MOL0     H75225   9.760  10.196  -0.062  0.3249 -0.7789 -0.3255
  570MOL0     H75226   9.272  10.054   0.619  1.7845 -1.2394 -0.0521
  570MOL0     H75227   9.516  10.109   0.642 -1.4918 -1.3195  0.9766
  570MOL0     H75228   9.889  10.330   0.537 -0.4155 -0.3118 -1.1547
  570MOL0     H75229  10.106  10.413   0.540 -2.1768 -0.6345 -1.3565
  570MOL0     H75230  10.317  10.483   0.616 -2.6511  1.1526 -0.6862
  570MOL0     H75231  10.264  10.388   0.756 -1.0599  0.9238  0.8834
  570MOL0     H75232  10.452  10.635   0.764 -5.0329  1.3677 -0.1347
  570MOL0     H75233  10.386  10.566   0.905 -3.1766  1.7288 -1.0836
  570MOL0     H75234  10.536  10.368   0.723  2.8097 -0.1840 -0.9649
  570MOL0     H75235  10.499  10.357   0.886 -0.9749  3.4922  2.9161
  570MOL0     H75236  10.675  10.541   0.939  1.4704  4.5467 -3.1034
  570MOL0     H75237  10.724  10.378   0.896 -0.0409  0.9258  0.3512
  570MOL0     H75238  10.880  10.617   0.580  0.1285 -1.7822 -0.6281
  570MOL0     H75239  10.028  10.662   0.870  2.0231  1.4214 -1.6264
  570MOL0     H75240   9.778  10.585   0.871  0.0018 -2.0419  0.6030
  571MOL0     O75241   7.301   8.476   5.252  0.3841  0.0365 -0.2354
  571MOL0     C75242   7.295   8.568   5.340  0.6755  0.8598 -1.4612
  571MOL0     O75243   7.336   8.697   5.327  0.0832 -0.1292  0.0994
  571MOL0     C75244   7.401   8.734   5.208 -0.6353 -0.4488  1.0079
  571MOL0     C75245   7.504   8.666   5.143 -0.5037  0.3555  0.2979
  571MOL0     C75246   7.571   8.711   5.030 -0.8788  0.8033 -0.9035
  571MOL0     C75247   7.547   8.844   4.981  0.1583  0.6826 -0.4356
  571MOL0     O75248   7.592   8.881   4.859  0.7358  0.1032  0.3433
  571MOL0     C75249   7.651   8.793   4.769  0.2692 -0.0646 -0.5202
  571MOL0     C75250   7.800   8.786   4.804  0.0518 -0.2142 -0.6966
  571MOL0     C75251   7.878   8.680   4.725 -0.6738 -0.0654 -1.0452
  571MOL0     C75252   7.874   8.684   4.568  0.1674  0.2828 -0.3611
  571MOL0     C75253   7.987   8.601   4.500  0.3861 -0.0786 -0.0324
  571MOL0     C75254   7.963   8.455   4.536  0.0252  0.0067  0.3821
  571MOL0     C75255   8.048   8.363   4.446 -0.2826  0.8215 -0.2100
  571MOL0     C75256   8.198   8.388   4.479 -0.6767  0.7393 -0.3117
  571MOL0     N75257   8.241   8.368   4.623  0.4808 -0.2440 -1.1622
  571MOL0     C75258   8.252   8.466   4.719 -0.0116  0.5597  0.6898
  571MOL0     C75259   8.301   8.396   4.824  0.1580 -0.2448  0.0094
  571MOL0     C75260   8.379   8.461   4.942  0.4297 -0.1899  0.2702
  571MOL0     C75261   8.307   8.424   5.075  0.2802  0.4347  0.5036
  571MOL0     C75262   8.236   8.538   5.138  0.6324 -0.3281  0.3528
  571MOL0     C75263   8.126   8.617   5.069  0.6722  0.6140  0.2405
  571MOL0     O75264   8.000   8.555   5.033 -0.1182 -0.3011  0.8528
  571MOL0     C75265   7.926   8.521   5.143  0.2660 -0.3848  0.4010
  571MOL0     C75266   7.862   8.622   5.219 -0.6248 -0.2317 -1.1726
  571MOL0     C75267   7.792   8.578   5.329 -0.0350 -0.0843  0.0623
  571MOL0     C75268   7.766   8.440   5.361 -0.1685 -0.6618  0.1060
  571MOL0     C75269   7.674   8.410   5.477 -0.9276  0.2089  0.2799
  571MOL0     O75270   7.681   8.281   5.530  0.1065  0.6302  0.3341
  571MOL0     C75271   7.606   8.238   5.639  0.0347  0.2360 -0.4229
  571MOL0     C75272   7.473   8.281   5.671  0.0102 -0.2862  0.3666
  571MOL0     C75273   7.405   8.224   5.777 -0.4345 -0.6018  0.2643
  571MOL0     C75274   7.467   8.123   5.845  0.4608 -0.6087 -1.3716
  571MOL0     O75275   7.400   8.059   5.950 -0.6078  0.2440  0.3068
  571MOL0     C75276   7.269   8.103   5.986  1.4249 -0.2821  0.2169
  571MOL0     C75277   7.218   8.031   6.102 -0.0714 -1.0003  0.0037
  571MOL0     C75278   7.068   8.048   6.127 -0.3458 -0.9093 -0.7768
  571MOL0     C75279   7.035   7.991   6.262  1.2656 -0.5621 -0.4676
  571MOL0     C75280   6.888   8.030   6.309 -0.1355  0.5420  0.9960
  571MOL0     C75281   6.884   8.012   6.461 -1.6204 -0.4166  0.2257
  571MOL0     C75282   6.740   7.999   6.510  0.8403  0.2579  0.0595
  571MOL0     C75283   6.718   8.005   6.660 -0.3412  0.9852 -0.0375
  571MOL0    Cl75284   6.540   8.045   6.692  0.0804  0.1233  0.0183
  571MOL0     C75285   7.590   8.078   5.817 -1.0502  0.1517 -0.6472
  571MOL0     C75286   7.664   8.134   5.713  0.4584  0.3497  0.6094
  571MOL0     O75287   7.598   8.497   5.512  0.4197  0.9900  0.0977
  571MOL0     C75288   7.833   8.349   5.281  0.3650 -0.2717 -0.2699
  571MOL0     C75289   7.925   8.392   5.181  0.2031  0.6089 -0.6744
  571MOL0     N75290   8.312   8.265   4.795 -0.0284  0.2681  0.0630
  571MOL0     N75291   8.259   8.249   4.675  0.0270 -0.0235 -1.5467
  571MOL0     C75292   7.450   8.915   5.051  0.2227 -0.7030  0.9166
  571MOL0     C75293   7.375   8.864   5.156 -0.3255  1.0596  0.0740
  571MOL0     C75294   7.219   8.532   5.462  1.0487 -0.8985  1.0299
  571MOL0     C75295   7.217   8.624   5.566 -0.3327 -0.0256 -0.1346
  571MOL0     C75296   7.165   8.590   5.693 -0.2438 -0.3749  0.1051
  571MOL0     C75297   7.102   8.465   5.711 -0.5079 -0.1798 -0.6443
  571MOL0     O75298   7.048   8.448   5.834  0.9160  0.0332 -0.5381
  571MOL0     C75299   6.904   8.471   5.832 -0.1427  0.7133 -0.6161
  571MOL0     C75300   6.878   8.601   5.908 -0.5233 -0.6455 -0.3637
  571MOL0     C75301   6.744   8.668   5.893  0.1417  0.5947  0.6328
  571MOL0     C75302   6.740   8.797   5.978  0.3135 -0.0637  0.0571
  571MOL0     C75303   6.599   8.840   6.005 -0.4941  1.1290  0.2517
  571MOL0     C75304   6.486   8.876   6.028  0.1212  0.5550 -0.5697
  571MOL0     C75305   7.109   8.365   5.611  0.7392  0.0282 -0.2408
  571MOL0     C75306   7.164   8.402   5.482 -0.8013  0.0481  0.2141
  571MOL0     H75307   7.531   8.566   5.175  2.8914  1.3291  0.9103
  571MOL0     H75308   7.651   8.649   4.992 -0.1438  3.5573 -4.4519
  571MOL0     H75309   7.643   8.827   4.665  4.1353  2.0681 -0.3178
  571MOL0     H75310   7.596   8.699   4.765  2.3242 -1.3062 -1.2211
  571MOL0     H75311   7.817   8.765   4.910 -2.8629  3.5865  0.7926
  571MOL0     H75312   7.841   8.888   4.794 -2.4775  1.2120  2.0450
  571MOL0     H75313   7.855   8.586   4.777 -0.1735 -0.1326 -0.9423
  571MOL0     H75314   7.980   8.704   4.755 -0.6405 -2.5348  1.1559
  571MOL0     H75315   7.777   8.652   4.528 -0.6570  0.6937  1.1869
  571MOL0     H75316   7.886   8.791   4.549 -1.7198  1.9310  5.5869
  571MOL0     H75317   8.086   8.629   4.535  0.3538  2.0862 -1.5049
  571MOL0     H75318   7.977   8.626   4.394  0.7408 -1.6818 -0.4745
  571MOL0     H75319   7.858   8.433   4.516 -0.1845  0.6503  0.7202
  571MOL0     H75320   7.978   8.437   4.643 -1.0629  1.9226  0.9187
  571MOL0     H75321   8.029   8.256   4.465  0.3457  1.2324  3.3222
  571MOL0     H75322   8.025   8.379   4.340  1.8437 -3.3165 -1.5305
  571MOL0     H75323   8.223   8.492   4.456  4.4792 -0.3358 -0.6695
  571MOL0     H75324   8.262   8.326   4.416 -3.4821 -2.1488 -0.5788
  571MOL0     H75325   8.251   8.575   4.711  1.4730  0.6563  1.4513
  571MOL0     H75326   8.402   8.567   4.925  1.2720 -0.3547  0.3833
  571MOL0     H75327   8.472   8.405   4.939 -0.1166 -1.4419  3.0649
  571MOL0     H75328   8.380   8.390   5.150  0.2266  2.2360  1.4187
  571MOL0     H75329   8.242   8.336   5.066 -0.4798  0.9588  0.8337
  571MOL0     H75330   8.193   8.500   5.231  1.2275 -4.3835 -0.8346
  571MOL0     H75331   8.312   8.612   5.164 -0.9284  1.1886  0.7963
  571MOL0     H75332   8.157   8.659   4.973 -2.3911 -0.3223 -1.2886
  571MOL0     H75333   8.103   8.695   5.141 -2.2024 -1.1610  1.4318
  571MOL0     H75334   7.873   8.728   5.201  1.7939  0.0313  1.1593
  571MOL0     H75335   7.750   8.656   5.392 -2.8041 -0.8957 -0.6289
  571MOL0     H75336   7.432   8.365   5.616 -1.0379 -1.6006 -0.9224
  571MOL0     H75337   7.307   8.257   5.810  0.8831  0.7605  3.1364
  571MOL0     H75338   7.198   8.070   5.908 -0.5020  2.2928  0.7600
  571MOL0     H75339   7.258   8.211   6.000  3.4336 -0.2174  1.7459
  571MOL0     H75340   7.276   8.076   6.183  1.1010 -1.2123 -0.7021
  571MOL0     H75341   7.232   7.922   6.099 -5.3291 -1.9917  0.8554
  571MOL0     H75342   7.006   8.005   6.048  0.2542  0.4652 -2.0498
  571MOL0     H75343   7.040   8.153   6.143  4.4123  0.6241 -0.8098
  571MOL0     H75344   7.050   7.883   6.260  2.0542 -0.6221  2.9452
  571MOL0     H75345   7.106   8.040   6.329  0.0176 -3.7134  3.5577
  571MOL0     H75346   6.811   7.967   6.264  0.4584  0.5816 -0.1178
  571MOL0     H75347   6.875   8.135   6.284 -2.0041  0.2687  0.7300
  571MOL0     H75348   6.938   8.087   6.520  2.3706 -2.9501  0.2421
  571MOL0     H75349   6.936   7.920   6.491 -1.2849 -0.9641 -1.9180
  571MOL0     H75350   6.680   8.073   6.455  0.2341  0.4891  1.0183
  571MOL0     H75351   6.695   7.903   6.483 -0.8361  0.9963  0.1280
  571MOL0     H75352   6.777   8.085   6.707 -0.4897  0.9724  0.1681
  571MOL0     H75353   6.747   7.909   6.705  2.9037  1.6118 -0.5400
  571MOL0     H75354   7.639   8.011   5.887 -2.5325  2.9480  3.4263
  571MOL0     H75355   7.765   8.112   5.680 -0.1839  0.4739 -1.6765
  571MOL0     H75356   7.815   8.242   5.287 -0.7126 -0.0268  2.2807
  571MOL0     H75357   7.995   8.321   5.138  1.5387  2.3879 -1.5633
  571MOL0     H75358   7.431   9.014   5.011  0.9776  0.7187  3.8065
  571MOL0     H75359   7.294   8.925   5.193 -3.6640 -2.3701 -0.8916
  571MOL0     H75360   7.263   8.722   5.560 -1.2911  0.8176  3.4788
  571MOL0     H75361   7.156   8.663   5.772  1.2985  0.1369 -0.1668
  571MOL0     H75362   6.859   8.387   5.887 -0.4893 -0.0012 -1.9506
  571MOL0     H75363   6.867   8.478   5.730  0.7666  2.7491 -0.8504
  571MOL0     H75364   6.909   8.579   6.011  3.1675 -0.8407 -1.3869
  571MOL0     H75365   6.951   8.679   5.884 -2.2207  1.3087  0.4560
  571MOL0     H75366   6.680   8.593   5.939  3.6596  0.4676  6.2148
  571MOL0     H75367   6.727   8.681   5.785  1.9002  1.7307  0.4567
  571MOL0     H75368   6.795   8.781   6.071 -1.3276 -0.0282  1.0782
  571MOL0     H75369   6.788   8.881   5.927 -1.0333  1.2373  0.8479
  571MOL0     H75370   6.390   8.916   6.055 -0.0881 -0.4183  0.1546
  571MOL0     H75371   7.072   8.266   5.634 -0.5728 -0.0263 -2.3854
  571MOL0     H75372   7.155   8.319   5.412  1.6882  1.1837 -1.6292
  572MOL0     O75373   4.115   6.418   2.425 -0.0122 -0.2992 -0.2057
  572MOL0     C75374   4.199   6.372   2.349  0.0694 -0.6942 -0.3630
  572MOL0     O75375   4.309   6.299   2.385  0.3105 -0.6132  0.2262
  572MOL0     C75376   4.322   6.285   2.523  0.5783  0.3003  0.8758
  572MOL0     C75377   4.447   6.323   2.588  0.6861 -1.0065 -0.3505
  572MOL0     C75378   4.450   6.313   2.732 -0.0241 -0.8520  0.5314
  572MOL0     C75379   4.353   6.269   2.810  0.5797 -0.3546 -1.3710
  572MOL0     O75380   4.362   6.277   2.945  0.5088 -0.3176  0.6490
  572MOL0     C75381   4.407   6.402   3.011  0.4570  0.9685  0.5563
  572MOL0     C75382   4.296   6.441   3.105  0.2441  0.4489 -0.5202
  572MOL0     C75383   4.156   6.479   3.052 -0.4513  0.1092  0.5345
  572MOL0     C75384   4.050   6.484   3.160  0.8936 -0.3482 -0.6842
  572MOL0     C75385   3.936   6.580   3.126 -0.4180  0.2378  0.9436
  572MOL0     C75386   3.803   6.569   3.204  0.8743 -0.4824  0.2300
  572MOL0     C75387   3.703   6.669   3.148  0.2339 -0.0248  0.1723
  572MOL0     C75388   3.565   6.618   3.104 -1.3837 -0.5072  0.7176
  572MOL0     N75389   3.477   6.594   3.218  0.2181  0.7475 -0.8879
  572MOL0     C75390   3.418   6.693   3.296  0.7669 -0.3177  0.2644
  572MOL0     C75391   3.343   6.628   3.390 -0.5604 -0.4982  0.5305
  572MOL0     C75392   3.274   6.698   3.510 -0.5575 -0.0159  0.4101
  572MOL0     C75393   3.124   6.693   3.486  1.1511 -0.1852  0.4156
  572MOL0     C75394   3.064   6.823   3.543  0.2157  0.7182 -0.1098
  572MOL0     C75395   3.112   6.869   3.688  0.4700  0.2849  0.3327
  572MOL0     O75396   3.094   7.006   3.697  0.1486  0.4390  0.3467
  572MOL0     C75397   3.196   7.098   3.689 -0.2765  0.2044 -0.3976
  572MOL0     C75398   3.284   7.090   3.581 -0.4029  0.1123 -0.1662
  572MOL0     C75399   3.369   7.191   3.544 -0.3193 -0.1960  0.0312
  572MOL0     C75400   3.387   7.297   3.636 -0.1063 -0.1398 -0.1751
  572MOL0     C75401   3.507   7.389   3.618  0.8832 -0.3508  0.5082
  572MOL0     O75402   3.559   7.392   3.491 -0.1936 -0.2179 -0.4550
  572MOL0     C75403   3.672   7.474   3.460 -0.4498  0.9192 -0.9412
  572MOL0     C75404   3.651   7.559   3.355  1.3026  0.2765 -0.7540
  572MOL0     C75405   3.748   7.647   3.308  0.4485  0.4207  0.1286
  572MOL0     C75406   3.870   7.651   3.373 -0.1237 -0.9136 -0.4985
  572MOL0     O75407   3.958   7.751   3.334 -1.2522 -0.2383 -0.0442
  572MOL0     C75408   4.021   7.721   3.207  0.0244 -0.9406  0.3951
  572MOL0     C75409   4.157   7.802   3.204  0.1732 -0.8739 -0.2925
  572MOL0     C75410   4.250   7.791   3.320 -0.8291  0.0408  0.1457
  572MOL0     C75411   4.301   7.641   3.350  0.6397 -0.8472 -0.5223
  572MOL0     C75412   4.316   7.619   3.500  0.4570 -0.2810  0.0178
  572MOL0     C75413   4.397   7.717   3.585  0.5436  0.0709 -0.0576
  572MOL0     C75414   4.545   7.728   3.541 -0.5074  0.1398  0.8146
  572MOL0     C75415   4.594   7.844   3.623 -0.3065  0.1267  0.6403
  572MOL0    Cl75416   4.772   7.831   3.603 -0.0658 -0.0965  0.5055
  572MOL0     C75417   3.888   7.570   3.486 -0.0091 -0.4425 -0.1290
  572MOL0     C75418   3.792   7.475   3.523  0.2788 -0.4736 -0.4251
  572MOL0     O75419   3.542   7.463   3.708 -0.4901  0.0269  0.6976
  572MOL0     C75420   3.310   7.303   3.749 -0.4111  0.0270 -0.5411
  572MOL0     C75421   3.207   7.209   3.782  0.3402  0.5752 -0.5063
  572MOL0     N75422   3.340   6.492   3.361  0.3305 -0.3291 -0.3755
  572MOL0     N75423   3.411   6.470   3.254  0.1884 -0.1895 -0.8403
  572MOL0     C75424   4.233   6.224   2.743 -0.1567 -0.3369 -0.4843
  572MOL0     C75425   4.223   6.232   2.602  1.2247 -0.4238  0.5735
  572MOL0     C75426   4.188   6.400   2.206  0.6975 -0.4638 -0.0579
  572MOL0     C75427   4.281   6.365   2.115 -0.3998  0.1315  0.7891
  572MOL0     C75428   4.257   6.374   1.976 -0.3173 -0.4133 -0.0715
  572MOL0     C75429   4.142   6.428   1.924  0.1610 -0.3621  0.2496
  572MOL0     O75430   4.148   6.459   1.787  0.0748  0.3122  0.0205
  572MOL0     C75431   4.061   6.567   1.735 -0.2881 -0.5008 -0.6042
  572MOL0     C75432   4.069   6.578   1.580 -0.3294 -0.5213 -0.3389
  572MOL0     C75433   3.997   6.453   1.508  0.2882 -0.1622  0.2353
  572MOL0     C75434   4.021   6.471   1.354  0.3626  0.2974 -0.2567
  572MOL0     C75435   3.942   6.372   1.279  0.1245 -0.5504 -1.0128
  572MOL0     C75436   3.887   6.290   1.208 -0.2921  0.8773 -0.4234
  572MOL0     C75437   4.046   6.466   2.018 -0.4980 -0.1606  0.2655
  572MOL0     C75438   4.066   6.442   2.158 -0.4887  0.0569  1.0751
  572MOL0     H75439   4.527   6.365   2.528 -0.0137 -1.4738 -1.6501
  572MOL0     H75440   4.532   6.347   2.794  1.6899 -1.6546 -1.1953
  572MOL0     H75441   4.428   6.489   2.948 -1.2322 -0.1268 -1.6432
  572MOL0     H75442   4.497   6.388   3.071  0.8479 -0.9231 -0.3930
  572MOL0     H75443   4.333   6.521   3.169 -1.5375  1.1553 -0.3206
  572MOL0     H75444   4.285   6.350   3.165 -0.1673 -0.6503 -2.2090
  572MOL0     H75445   4.130   6.409   2.972 -2.2200  1.2920  0.0115
  572MOL0     H75446   4.162   6.573   2.995 -2.2218  0.9279  1.6240
  572MOL0     H75447   4.007   6.387   3.186 -1.7998  1.0436  0.4875
  572MOL0     H75448   4.092   6.530   3.250 -1.2445  1.0154 -0.2986
  572MOL0     H75449   3.912   6.546   3.025 -1.0832  0.6101  0.9697
  572MOL0     H75450   3.972   6.683   3.122  1.5194 -0.4157 -3.0285
  572MOL0     H75451   3.805   6.597   3.310  1.9174  0.9190 -0.1385
  572MOL0     H75452   3.765   6.466   3.208 -1.4288  0.3497  2.2491
  572MOL0     H75453   3.699   6.751   3.220  0.8927  2.3141 -2.2876
  572MOL0     H75454   3.745   6.712   3.056  0.8932 -0.4143  0.2857
  572MOL0     H75455   3.584   6.530   3.042 -0.7299 -0.5272  0.9418
  572MOL0     H75456   3.507   6.689   3.044  1.5742  2.5069  1.1260
  572MOL0     H75457   3.443   6.799   3.298 -1.8095  0.5403 -2.9083
  572MOL0     H75458   3.320   6.797   3.517  1.1335 -0.6603 -0.8471
  572MOL0     H75459   3.307   6.649   3.601  3.1161  1.0033 -0.2062
  572MOL0     H75460   3.088   6.601   3.534  1.9028 -0.6868  0.0396
  572MOL0     H75461   3.107   6.680   3.379  2.1475  1.2140  0.0691
  572MOL0     H75462   3.086   6.904   3.473 -2.8968  0.1734 -1.9426
  572MOL0     H75463   2.955   6.816   3.533  0.3610 -2.7233 -0.7419
  572MOL0     H75464   3.217   6.842   3.701  0.0997 -0.8973  0.9654
  572MOL0     H75465   3.057   6.819   3.768  1.8578 -1.8349  0.0323
  572MOL0     H75466   3.283   7.008   3.511  1.3869 -1.7265  1.8024
  572MOL0     H75467   3.430   7.176   3.455 -1.5123 -3.0481 -0.3853
  572MOL0     H75468   3.547   7.564   3.325  0.3346 -1.3776  1.9176
  572MOL0     H75469   3.716   7.713   3.228 -3.7774  1.0605  2.0918
  572MOL0     H75470   3.962   7.762   3.125  2.7222  2.0287 -0.3166
  572MOL0     H75471   4.028   7.613   3.194  1.4935 -0.5836 -2.5607
  572MOL0     H75472   4.131   7.907   3.183 -1.4538 -1.3527 -0.7822
  572MOL0     H75473   4.208   7.763   3.115 -1.0066 -0.7047 -1.0698
  572MOL0     H75474   4.197   7.830   3.407  1.8278 -0.1745  1.9897
  572MOL0     H75475   4.338   7.855   3.307  0.9638 -1.6268  2.9876
  572MOL0     H75476   4.230   7.571   3.305 -2.5075  0.9882  1.2584
  572MOL0     H75477   4.397   7.621   3.301  1.1771 -3.0145  1.2211
  572MOL0     H75478   4.363   7.520   3.507 -0.5227 -0.8157 -0.6692
  572MOL0     H75479   4.216   7.618   3.544  0.3826 -0.4202 -0.1570
  572MOL0     H75480   4.393   7.683   3.689 -1.5300 -0.1834 -0.1827
  572MOL0     H75481   4.336   7.807   3.578 -2.8356 -1.8348  1.8764
  572MOL0     H75482   4.607   7.640   3.561  1.5025  1.9185  2.8992
  572MOL0     H75483   4.556   7.754   3.435 -0.3449  0.6906  0.9651
  572MOL0     H75484   4.576   7.830   3.730 -1.4473 -4.9549  0.0475
  572MOL0     H75485   4.560   7.942   3.589  1.0689  0.9792  1.5984
  572MOL0     H75486   3.986   7.576   3.533  1.2838 -2.2045 -2.3872
  572MOL0     H75487   3.794   7.416   3.613  0.2535  3.4748  2.4193
  572MOL0     H75488   3.321   7.383   3.821 -1.6931  0.7078 -1.0867
  572MOL0     H75489   3.135   7.224   3.862  0.5725  3.2398 -0.7249
  572MOL0     H75490   4.164   6.184   2.817  0.5449 -2.5292 -0.9384
  572MOL0     H75491   4.126   6.200   2.564  0.9602 -0.0133  0.8879
  572MOL0     H75492   4.374   6.327   2.154 -0.4662 -0.6359  0.2266
  572MOL0     H75493   4.331   6.334   1.908  2.5770 -2.2158  3.7854
  572MOL0     H75494   4.106   6.661   1.767 -1.7205 -0.3861  1.2447
  572MOL0     H75495   3.957   6.558   1.769 -0.6755 -0.8882 -1.8281
  572MOL0     H75496   4.011   6.669   1.561 -0.8802 -0.2775  2.1434
  572MOL0     H75497   4.171   6.607   1.557 -0.0237 -1.8350 -0.7277
  572MOL0     H75498   3.891   6.446   1.536 -0.6892  1.7906 -2.5663
  572MOL0     H75499   4.053   6.366   1.545  3.2230  0.7598 -1.7106
  572MOL0     H75500   4.007   6.575   1.322  1.1167 -0.0763 -1.9152
  572MOL0     H75501   4.128   6.448   1.351  0.5057  0.1324  2.9673
  572MOL0     H75502   3.849   6.223   1.134  4.1680 -4.9779  1.8086
  572MOL0     H75503   3.968   6.538   2.000  0.2089  0.4608 -0.3734
  572MOL0     H75504   3.985   6.470   2.225 -2.9700 -0.7549 -1.3834
  573MOL0     O75505   3.333   0.187   0.221 -0.9276 -0.5706  0.1394
  573MOL0     C75506   3.377   0.256   0.316 -0.2673 -0.1388 -0.9024
  573MOL0     O75507   3.485   0.323   0.324  0.5247 -0.0802 -0.0046
  573MOL0     C75508   3.593   0.309   0.240  0.2840  0.3364  0.9534
  573MOL0     C75509   3.613   0.202   0.141  0.7288  0.5027  0.1247
  573MOL0     C75510   3.729   0.184   0.063 -0.0239  0.2700 -0.4962
  573MOL0     C75511   3.836   0.279   0.093  0.5695  0.6466  0.0249
  573MOL0     O75512   3.953   0.272   0.032  0.1460  0.3322 -0.4047
  573MOL0     C75513   4.022   0.156   0.081  0.1156 -0.5692 -0.2349
  573MOL0     C75514   4.168   0.176   0.057 -0.7235  0.8102 -0.4813
  573MOL0     C75515   4.266   0.053   0.034  1.4227 -0.0596 -0.0162
  573MOL0     C75516   4.282  -0.044   0.155 -1.1348  0.1512  0.5329
  573MOL0     C75517   4.376  -0.165   0.125 -0.0244 -0.5774  0.4867
  573MOL0     C75518   4.308  -0.265   0.041  0.2042 -0.1473 -0.4178
  573MOL0     C75519   4.369  -0.402   0.054 -0.5665 -0.0972 -0.2319
  573MOL0     C75520   4.314  -0.501  -0.055 -0.5386 -1.1067  0.6294
  573MOL0     N75521   4.165  -0.521  -0.052  0.0354  0.2525 -0.4531
  573MOL0     C75522   4.113  -0.603   0.040  0.3928 -0.2999  0.7323
  573MOL0     C75523   3.977  -0.600   0.001 -0.5368 -0.5952 -0.3126
  573MOL0     C75524   3.870  -0.676   0.070 -0.6199 -0.9861 -0.2850
  573MOL0     C75525   3.815  -0.612   0.202  0.6099 -0.7008 -0.1034
  573MOL0     C75526   3.700  -0.506   0.190 -0.0912 -0.1173  0.5745
  573MOL0     C75527   3.714  -0.390   0.292 -0.0147 -0.9452 -0.5871
  573MOL0     O75528   3.584  -0.331   0.294  0.1165 -0.4881  0.3065
  573MOL0     C75529   3.529  -0.245   0.190  0.4821  0.3166 -0.5764
  573MOL0     C75530   3.400  -0.201   0.204 -0.7323 -0.3053  0.5322
  573MOL0     C75531   3.337  -0.117   0.106 -0.4536  0.4464 -0.2618
  573MOL0     C75532   3.410  -0.067  -0.001  0.3540 -0.4048  0.0410
  573MOL0     C75533   3.335   0.015  -0.102 -1.1909 -0.3295 -0.8545
  573MOL0     O75534   3.214   0.052  -0.060  0.2910  0.1986 -0.6633
  573MOL0     C75535   3.140   0.128  -0.150  0.8950  0.4433 -0.0294
  573MOL0     C75536   3.174   0.260  -0.159 -0.2050  0.2637  0.1556
  573MOL0     C75537   3.104   0.345  -0.247  0.1601 -0.3205  0.6103
  573MOL0     C75538   3.004   0.290  -0.320 -0.3174  0.2751 -0.0735
  573MOL0     O75539   2.926   0.350  -0.415 -0.0755  0.3002 -0.0690
  573MOL0     C75540   2.936   0.490  -0.423  0.6010 -0.5544  0.5624
  573MOL0     C75541   2.806   0.544  -0.473 -0.4313  0.9205  0.6859
  573MOL0     C75542   2.815   0.694  -0.505 -0.0351  0.1987  0.0658
  573MOL0     C75543   2.679   0.753  -0.553  0.2458 -0.4592  0.1337
  573MOL0     C75544   2.645   0.705  -0.697 -0.1145 -0.3782 -0.0746
  573MOL0     C75545   2.539   0.798  -0.764 -0.4043  0.7528 -0.9147
  573MOL0     C75546   2.498   0.735  -0.908  0.7481 -0.7296  0.0988
  573MOL0     C75547   2.423   0.605  -0.896 -0.6622  0.2856  0.4345
  573MOL0    Cl75548   2.313   0.575  -1.035  0.3932  0.2317  0.5863
  573MOL0     C75549   2.960   0.155  -0.294  0.6339 -0.7841 -0.0071
  573MOL0     C75550   3.028   0.079  -0.212 -0.5222  0.0712 -0.4794
  573MOL0     O75551   3.404   0.072  -0.183 -0.2424 -0.0579  0.2126
  573MOL0     C75552   3.543  -0.104  -0.015 -1.2271 -0.4728  0.6778
  573MOL0     C75553   3.603  -0.197   0.079 -0.2891  0.4534 -0.0060
  573MOL0     N75554   3.961  -0.508  -0.101  0.2078  0.6575 -0.5581
  573MOL0     N75555   4.080  -0.452  -0.126 -0.3603 -0.0194 -0.2234
  573MOL0     C75556   3.812   0.385   0.188  0.0580  0.1168  0.7386
  573MOL0     C75557   3.694   0.408   0.251  1.4017  0.6963 -0.0430
  573MOL0     C75558   3.276   0.295   0.422 -0.3708 -0.1804  0.8207
  573MOL0     C75559   3.320   0.318   0.548 -0.0022 -0.0544 -0.9344
  573MOL0     C75560   3.229   0.337   0.654 -0.2158  0.0866  1.2247
  573MOL0     C75561   3.094   0.308   0.637  0.2360  0.0884 -0.4414
  573MOL0     O75562   2.993   0.318   0.737  0.1557  0.3199  0.4521
  573MOL0     C75563   3.006   0.222   0.841  0.3559  0.3744 -0.0278
  573MOL0     C75564   2.889   0.226   0.940  0.7099  0.3809 -0.0550
  573MOL0     C75565   2.840   0.363   0.999  0.2166  0.8035  0.3059
  573MOL0     C75566   2.952   0.459   1.044  0.1707 -0.3025 -0.3801
  573MOL0     C75567   3.043   0.406   1.148 -0.8151 -0.1753 -0.8299
  573MOL0     C75568   3.119   0.344   1.227 -0.6502 -0.2429  1.0478
  573MOL0     C75569   3.052   0.278   0.518  0.5112 -0.3018  0.4531
  573MOL0     C75570   3.138   0.269   0.408 -0.0230 -0.1484  0.4650
  573MOL0     H75571   3.535   0.126   0.146  0.1311  0.9908 -1.2981
  573MOL0     H75572   3.748   0.112  -0.016 -0.6283 -1.4007  0.8278
  573MOL0     H75573   3.974   0.064   0.045 -5.6486  0.2531  3.8804
  573MOL0     H75574   4.011   0.148   0.189 -2.5839  2.0845 -0.1646
  573MOL0     H75575   4.205   0.236   0.141 -0.0722  0.6746 -0.6635
  573MOL0     H75576   4.178   0.238  -0.033 -0.5646  0.1737 -0.9149
  573MOL0     H75577   4.361   0.085  -0.011 -1.0591  1.7776 -4.6056
  573MOL0     H75578   4.213  -0.012  -0.036  2.9441 -2.0059  0.5647
  573MOL0     H75579   4.320   0.017   0.237 -2.0712  2.1819 -0.4784
  573MOL0     H75580   4.185  -0.076   0.193 -1.0117 -0.0453  0.6846
  573MOL0     H75581   4.393  -0.222   0.217  0.1546 -0.0636  0.7744
  573MOL0     H75582   4.477  -0.138   0.095 -0.2304 -1.2313 -0.8602
  573MOL0     H75583   4.314  -0.235  -0.064  1.5423  2.7451  0.3925
  573MOL0     H75584   4.200  -0.264   0.062  0.2222 -0.1009 -0.3264
  573MOL0     H75585   4.477  -0.403   0.040 -0.3085 -3.4010  1.1005
  573MOL0     H75586   4.337  -0.444   0.149  0.4422 -1.7148 -0.5723
  573MOL0     H75587   4.372  -0.593  -0.042  0.0673 -0.5267  2.2220
  573MOL0     H75588   4.343  -0.454  -0.149  1.8114 -0.9213  1.3939
  573MOL0     H75589   4.160  -0.663   0.118  0.8969 -1.8952 -0.7327
  573MOL0     H75590   3.904  -0.779   0.082  2.2627  0.0587  1.5784
  573MOL0     H75591   3.781  -0.682   0.006 -1.7609  0.8880  1.0357
  573MOL0     H75592   3.900  -0.564   0.250  1.6715 -1.9597 -0.6695
  573MOL0     H75593   3.779  -0.687   0.273 -0.1677 -0.3233 -0.0823
  573MOL0     H75594   3.710  -0.463   0.090  1.2395 -0.7105  0.4199
  573MOL0     H75595   3.602  -0.554   0.199 -0.3557  0.3406  0.1731
  573MOL0     H75596   3.789  -0.319   0.254 -0.3895 -0.5196 -0.5471
  573MOL0     H75597   3.735  -0.420   0.395 -1.9883  1.4402  0.6360
  573MOL0     H75598   3.356  -0.240   0.296  1.9463 -0.7259  1.7158
  573MOL0     H75599   3.231  -0.100   0.121  0.0623  2.0672  2.0732
  573MOL0     H75600   3.257   0.299  -0.102  1.2708 -3.1244  0.5777
  573MOL0     H75601   3.139   0.448  -0.251 -0.9776  0.0441 -0.6435
  573MOL0     H75602   3.009   0.532  -0.494 -2.9898  2.7592 -1.5913
  573MOL0     H75603   2.964   0.549  -0.335 -2.2510  0.4968  0.8575
  573MOL0     H75604   2.745   0.534  -0.383  1.9870 -1.2589  2.2358
  573MOL0     H75605   2.769   0.490  -0.560  2.4856  1.9912 -1.3724
  573MOL0     H75606   2.902   0.714  -0.567 -0.2012  2.0287  0.3667
  573MOL0     H75607   2.841   0.749  -0.414  2.1128 -2.3808  1.1596
  573MOL0     H75608   2.598   0.725  -0.485  0.9429  1.7536  2.0482
  573MOL0     H75609   2.688   0.862  -0.550  0.4973 -0.4925  1.0437
  573MOL0     H75610   2.610   0.602  -0.701 -2.2942  0.2634  0.8222
  573MOL0     H75611   2.738   0.718  -0.752 -0.7827  0.3222 -1.0733
  573MOL0     H75612   2.567   0.904  -0.768 -0.0282  0.7585  1.0429
  573MOL0     H75613   2.452   0.798  -0.698 -0.7572 -0.8899 -1.3287
  573MOL0     H75614   2.442   0.811  -0.963  1.9705 -1.0404 -1.6795
  573MOL0     H75615   2.592   0.715  -0.961  1.4160  0.2491  0.8711
  573MOL0     H75616   2.369   0.606  -0.801  1.2094 -3.1455  1.7102
  573MOL0     H75617   2.489   0.518  -0.895 -0.8464  0.1135 -0.8562
  573MOL0     H75618   2.863   0.123  -0.329 -1.3122  3.5920  0.7881
  573MOL0     H75619   2.997  -0.023  -0.192  0.4404 -0.3959 -1.2365
  573MOL0     H75620   3.600  -0.057  -0.095 -2.7755  0.5864  0.1476
  573MOL0     H75621   3.709  -0.222   0.080 -0.5131 -1.1647 -3.4227
  573MOL0     H75622   3.904   0.439   0.207  3.4738 -4.5192 -0.9582
  573MOL0     H75623   3.685   0.489   0.323 -0.0723  0.1514  0.4372
  573MOL0     H75624   3.427   0.310   0.567 -0.0455 -3.3648 -1.5203
  573MOL0     H75625   3.255   0.341   0.759 -3.0824 -0.4806  2.0397
  573MOL0     H75626   3.095   0.242   0.901 -0.1382 -1.2138  1.3115
  573MOL0     H75627   3.016   0.122   0.798  0.8526 -0.6821  2.3796
  573MOL0     H75628   2.802   0.181   0.891 -0.3193  0.2796  1.7830
  573MOL0     H75629   2.912   0.159   1.023 -2.7920  0.7949  1.4313
  573MOL0     H75630   2.773   0.348   1.084  2.3253 -2.4935  1.6204
  573MOL0     H75631   2.781   0.412   0.921 -1.1377 -0.4642  0.4995
  573MOL0     H75632   3.011   0.470   0.953 -2.9610 -2.4873 -2.8913
  573MOL0     H75633   2.900   0.551   1.075  2.6553 -0.2681  4.8337
  573MOL0     H75634   3.178   0.286   1.295  0.7029  3.0819  2.9191
  573MOL0     H75635   2.948   0.264   0.489  0.5335  1.6168 -0.7563
  573MOL0     H75636   3.094   0.249   0.311  0.2916  2.1837 -0.2371
  574MOL0     O75637   3.065   9.916   9.619 -0.7119  0.3341 -0.4075
  574MOL0     C75638   3.127   9.826   9.563  1.0683  0.6432 -0.6225
  574MOL0     O75639   3.229   9.842   9.480  0.1668  0.1870  0.0778
  574MOL0     C75640   3.259   9.969   9.439 -0.1718  0.2043 -0.0602
  574MOL0     C75641   3.401  10.008   9.453  0.9521  0.0424  0.5813
  574MOL0     C75642   3.442  10.137   9.415  0.3175  0.0407  0.0463
  574MOL0     C75643   3.347  10.243   9.382 -0.9497  0.0978  0.5560
  574MOL0     O75644   3.357  10.373   9.347  0.4050  0.0044  0.8775
  574MOL0     C75645   3.386  10.461   9.445  0.0445  1.1246  0.0393
  574MOL0     C75646   3.491  10.554   9.392  0.4546 -0.0942 -0.2272
  574MOL0     C75647   3.595  10.626   9.490  1.2409  0.4534 -0.1926
  574MOL0     C75648   3.678  10.719   9.397 -0.5469  0.0533  0.3155
  574MOL0     C75649   3.772  10.805   9.472  0.8631  0.2046 -0.4143
  574MOL0     C75650   3.852  10.909   9.387  0.2442  0.8981 -0.6548
  574MOL0     C75651   3.978  10.954   9.460  0.1425  0.6344 -0.5432
  574MOL0     C75652   4.054  11.044   9.369  1.0129 -0.2208 -0.4023
  574MOL0     N75653   4.175  11.072   9.448  0.3875 -0.1053  0.1145
  574MOL0     C75654   4.310  11.033   9.412  0.5781  0.6632  0.7436
  574MOL0     C75655   4.395  11.093   9.496  0.0392  0.3986 -1.2725
  574MOL0     C75656   4.547  11.098   9.491  0.3903  0.2512 -0.3664
  574MOL0     C75657   4.605  10.958   9.461 -0.2530  0.7501  0.0392
  574MOL0     C75658   4.539  10.840   9.546  0.7115 -0.3999 -1.1165
  574MOL0     C75659   4.507  10.868   9.695 -0.4720  0.0057 -0.7161
  574MOL0     O75660   4.471  10.747   9.751  0.1925 -0.9496  0.6686
  574MOL0     C75661   4.340  10.706   9.726 -0.1766 -0.2355 -0.0186
  574MOL0     C75662   4.321  10.578   9.694 -0.3399  0.4755  0.2228
  574MOL0     C75663   4.189  10.518   9.689  0.8517 -0.3118  0.0017
  574MOL0     C75664   4.074  10.590   9.721 -0.5654 -0.0177  0.6788
  574MOL0     C75665   3.942  10.528   9.748 -1.1271 -0.4435  0.6677
  574MOL0     O75666   3.947  10.393   9.773 -0.2213  1.1060 -0.1984
  574MOL0     C75667   3.834  10.338   9.791 -0.5557  0.1617  0.8460
  574MOL0     C75668   3.744  10.317   9.685  0.1790  0.3953 -0.0615
  574MOL0     C75669   3.613  10.254   9.718 -1.0427  0.1963  0.5146
  574MOL0     C75670   3.571  10.224   9.847  0.4798  0.5563  0.7287
  574MOL0     O75671   3.453  10.156   9.849  0.9069 -0.6855 -0.6914
  574MOL0     C75672   3.368  10.208   9.949  0.4441  0.7741  0.4040
  574MOL0     C75673   3.237  10.126   9.938 -0.5445  0.6995 -0.0257
  574MOL0     C75674   3.261   9.980   9.932 -0.0013  0.1492  0.4620
  574MOL0     C75675   3.367   9.920  10.025 -0.6035  0.6602  0.7262
  574MOL0     C75676   3.327   9.926  10.174  0.1323  0.0336 -0.3762
  574MOL0     C75677   3.389   9.832  10.273 -0.9759 -0.0366 -0.5207
  574MOL0     C75678   3.331   9.860  10.422 -0.6816  0.3794 -0.0827
  574MOL0     C75679   3.410   9.781  10.531 -0.5471 -0.6256 -1.3998
  574MOL0    Cl75680   3.328   9.812  10.691  0.5845 -0.2852  0.3145
  574MOL0     C75681   3.657  10.253   9.952  0.1470 -2.4687  1.2529
  574MOL0     C75682   3.790  10.306   9.921  0.8217  0.1551  0.1038
  574MOL0     O75683   3.840  10.600   9.759 -0.0854  0.4315  0.3756
  574MOL0     C75684   4.094  10.729   9.748  0.6420  0.6744 -0.0569
  574MOL0     C75685   4.221  10.785   9.749 -0.4159  0.3655  0.2713
  574MOL0     N75686   4.312  11.177   9.576 -0.6487  0.1981  0.6054
  574MOL0     N75687   4.190  11.163   9.548  0.0718  0.0586  0.0161
  574MOL0     C75688   3.221  10.200   9.365  0.5124  0.1626 -0.5651
  574MOL0     C75689   3.175  10.071   9.397  0.3043 -0.8142  0.0927
  574MOL0     C75690   3.091   9.686   9.589 -0.7338  0.5201  0.7188
  574MOL0     C75691   3.190   9.585   9.557 -0.1180 -0.7794 -1.1164
  574MOL0     C75692   3.161   9.452   9.590  0.1103  0.8273 -0.7391
  574MOL0     C75693   3.035   9.410   9.647 -0.0556  0.0878  0.3648
  574MOL0     O75694   3.016   9.278   9.684  0.2981  0.1024 -0.5243
  574MOL0     C75695   2.987   9.191   9.577 -0.2974 -0.8417  0.6436
  574MOL0     C75696   2.839   9.188   9.531 -0.8337 -0.7519  0.1699
  574MOL0     C75697   2.736   9.095   9.605  0.6230  0.6852  0.1562
  574MOL0     C75698   2.712   9.145   9.751 -0.5533  0.3408  0.2947
  574MOL0     C75699   2.589   9.233   9.754 -0.1630  0.2216  0.0261
  574MOL0     C75700   2.493   9.296   9.749 -0.6024 -0.6163  0.3738
  574MOL0     C75701   2.937   9.503   9.647 -1.2815 -0.7845  0.4932
  574MOL0     C75702   2.964   9.640   9.626  0.2971 -0.0255 -0.0573
  574MOL0     H75703   3.476   9.942   9.496  0.1832 -1.2514 -0.0092
  574MOL0     H75704   3.548  10.163   9.424  0.7998 -2.1606  1.5324
  574MOL0     H75705   3.425  10.410   9.534  0.1177  1.0144 -0.0566
  574MOL0     H75706   3.299  10.522   9.471 -0.8767 -0.8273  1.8109
  574MOL0     H75707   3.435  10.629   9.335  0.4404 -2.0244 -2.9580
  574MOL0     H75708   3.541  10.505   9.308 -2.9748  0.7805 -3.0013
  574MOL0     H75709   3.659  10.560   9.548 -0.8367 -2.2768 -0.7733
  574MOL0     H75710   3.536  10.690   9.557  0.9401 -1.6471  1.6353
  574MOL0     H75711   3.723  10.646   9.330 -0.2127  0.6946 -0.1724
  574MOL0     H75712   3.612  10.782   9.336 -0.1445  1.9947  1.7670
  574MOL0     H75713   3.837  10.743   9.534 -0.6318 -3.3799 -2.1241
  574MOL0     H75714   3.711  10.857   9.546 -1.9205 -1.2379 -1.5426
  574MOL0     H75715   3.777  10.986   9.365 -0.7947  0.0063 -0.2924
  574MOL0     H75716   3.867  10.866   9.287 -0.0796  0.9584 -0.7317
  574MOL0     H75717   3.966  10.991   9.562 -0.2064 -1.6655  0.3176
  574MOL0     H75718   4.034  10.860   9.470  0.3112  1.0009  3.8556
  574MOL0     H75719   3.994  11.127   9.329 -0.6809 -1.6274 -0.8917
  574MOL0     H75720   4.075  10.987   9.278 -1.9190 -1.1597 -0.5904
  574MOL0     H75721   4.334  10.973   9.324 -2.5181  1.0061 -0.4666
  574MOL0     H75722   4.577  11.127   9.592 -0.4137  2.9245 -0.8130
  574MOL0     H75723   4.574  11.170   9.413  1.5978 -0.3360 -0.4983
  574MOL0     H75724   4.709  10.955   9.494 -1.2621 -0.8819  3.5591
  574MOL0     H75725   4.605  10.933   9.354 -0.1764  0.8569  0.0137
  574MOL0     H75726   4.444  10.815   9.499  0.4810 -1.2038 -0.2567
  574MOL0     H75727   4.588  10.744   9.529 -2.2689 -1.8378 -2.1935
  574MOL0     H75728   4.427  10.936   9.727 -2.1625 -0.9728 -2.6340
  574MOL0     H75729   4.596  10.901   9.749 -2.1352  1.3760  1.3599
  574MOL0     H75730   4.407  10.517   9.667 -1.3810 -1.3038  0.7191
  574MOL0     H75731   4.175  10.414   9.662  2.3150 -0.7853  0.9762
  574MOL0     H75732   3.756  10.321   9.577 -0.2617  0.5305 -0.1078
  574MOL0     H75733   3.538  10.237   9.642  0.2436  1.7889 -1.2155
  574MOL0     H75734   3.342  10.312   9.926 -0.3222  0.5190  0.0931
  574MOL0     H75735   3.421  10.195  10.044  1.1541  0.7944  0.0133
  574MOL0     H75736   3.172  10.165   9.860  0.9825  2.9568 -0.2550
  574MOL0     H75737   3.176  10.141  10.028 -0.4548 -4.6293  1.2262
  574MOL0     H75738   3.296   9.953   9.832  1.3354  1.8976  0.4077
  574MOL0     H75739   3.167   9.926   9.946  1.6540 -2.8297  0.9321
  574MOL0     H75740   3.374   9.817   9.989 -0.9937  1.4034 -1.6944
  574MOL0     H75741   3.464   9.972  10.016  0.8819 -1.8193  1.5593
  574MOL0     H75742   3.219   9.909  10.178 -0.0751  1.3324 -0.0450
  574MOL0     H75743   3.353  10.023  10.217  1.1766 -1.3056  2.1981
  574MOL0     H75744   3.498   9.845  10.267 -0.9449  0.2080  0.4191
  574MOL0     H75745   3.371   9.727  10.252  4.1754 -1.1188 -1.0213
  574MOL0     H75746   3.341   9.965  10.453  2.5088 -0.2717  1.5346
  574MOL0     H75747   3.227   9.829  10.434 -0.5083 -0.9660 -1.8017
  574MOL0     H75748   3.510   9.825  10.536 -1.2517  0.8836  1.0124
  574MOL0     H75749   3.408   9.672  10.521  1.0582 -0.7407 -0.7623
  574MOL0     H75750   3.622  10.231  10.052 -1.4979 -1.2289  0.9830
  574MOL0     H75751   3.870  10.309   9.994 -1.0478 -3.4067  2.6218
  574MOL0     H75752   4.018  10.801   9.775  1.7595  1.4919  1.0506
  574MOL0     H75753   4.242  10.884   9.790  0.7973 -0.6616  2.3027
  574MOL0     H75754   3.153  10.268   9.315  2.0504 -0.1740 -3.2681
  574MOL0     H75755   3.070  10.044   9.399  1.3462 -5.7325  0.4250
  574MOL0     H75756   3.290   9.613   9.527 -0.0412  5.7902  3.2187
  574MOL0     H75757   3.231   9.371   9.572 -0.5068  0.3856 -1.2143
  574MOL0     H75758   3.026   9.092   9.601  1.1363 -0.0107  1.8945
  574MOL0     H75759   3.051   9.224   9.495 -0.3951 -1.5330  0.2809
  574MOL0     H75760   2.804   9.291   9.539  0.3816 -0.3432  0.4663
  574MOL0     H75761   2.837   9.175   9.422  2.2546  2.0589 -0.3769
  574MOL0     H75762   2.767   8.990   9.604 -1.1834  0.1056  1.0195
  574MOL0     H75763   2.644   9.092   9.546 -0.2423 -1.4101  1.5043
  574MOL0     H75764   2.694   9.059   9.816 -1.9125  0.5686  0.2625
  574MOL0     H75765   2.798   9.195   9.795 -2.2349  1.3226  2.6766
  574MOL0     H75766   2.412   9.365   9.740  2.0008  2.5005 -1.5624
  574MOL0     H75767   2.833   9.473   9.660 -1.9028  0.7401 -0.6121
  574MOL0     H75768   2.889   9.718   9.633  2.7839  2.4196  1.2064
  575MOL0     O75769   8.977   2.587   6.839 -0.0470  0.2589  0.2060
  575MOL0     C75770   8.980   2.544   6.720  0.1211  0.5713 -1.5104
  575MOL0     O75771   8.875   2.521   6.651 -0.3477  0.7722  0.0637
  575MOL0     C75772   8.749   2.533   6.705  1.1276  0.5343  0.6562
  575MOL0     C75773   8.708   2.503   6.835 -0.0820  0.1627 -0.4521
  575MOL0     C75774   8.575   2.504   6.874 -0.4248 -0.2844 -0.0989
  575MOL0     C75775   8.474   2.545   6.781 -1.0819  0.0645  0.4546
  575MOL0     O75776   8.337   2.571   6.808  0.0975  0.4458 -0.1917
  575MOL0     C75777   8.285   2.513   6.920 -0.2336 -0.4661  0.0127
  575MOL0     C75778   8.142   2.541   6.926 -0.2886  0.0725  0.0723
  575MOL0     C75779   8.066   2.463   7.033 -0.9046  0.2429  0.4735
  575MOL0     C75780   7.925   2.524   7.060  0.4429  0.5621 -0.6551
  575MOL0     C75781   7.839   2.416   7.138 -0.0499  0.8680 -0.2347
  575MOL0     C75782   7.782   2.301   7.063 -0.1664  0.0462 -0.8737
  575MOL0     C75783   7.726   2.202   7.170 -0.5450 -0.3262 -0.2843
  575MOL0     C75784   7.660   2.082   7.105  0.0148 -0.2241  0.8473
  575MOL0     N75785   7.521   2.110   7.064  0.6011  0.7716  0.2496
  575MOL0     C75786   7.472   2.168   6.949 -1.0568 -0.4022 -0.2860
  575MOL0     C75787   7.342   2.187   6.973  0.2629  1.2239 -0.2568
  575MOL0     C75788   7.227   2.249   6.899 -0.0167 -0.0109 -0.3346
  575MOL0     C75789   7.165   2.374   6.970 -1.0428  0.5488 -0.5685
  575MOL0     C75790   7.030   2.405   6.909 -0.2990 -0.1966  0.0145
  575MOL0     C75791   6.979   2.544   6.958  0.0193  0.7220  0.1337
  575MOL0     O75792   7.054   2.637   6.880  0.1320 -0.0390  0.1875
  575MOL0     C75793   7.032   2.776   6.908  0.6107 -0.0527 -0.3057
  575MOL0     C75794   6.976   2.849   6.808  0.8242 -0.0436 -0.7404
  575MOL0     C75795   6.948   2.987   6.803 -0.5770 -0.2508  0.6008
  575MOL0     C75796   6.957   3.059   6.921  0.3829 -0.4558 -0.2321
  575MOL0     C75797   6.925   3.203   6.920 -0.3673  0.0629  0.1956
  575MOL0     O75798   6.877   3.258   6.809  0.0501 -1.0809  0.3001
  575MOL0     C75799   6.841   3.391   6.812 -0.1133 -0.8988 -0.2133
  575MOL0     C75800   6.912   3.502   6.885  0.8650 -0.4528  0.5549
  575MOL0     C75801   6.865   3.632   6.861  0.6098 -0.4254 -0.0565
  575MOL0     C75802   6.757   3.661   6.777 -0.3523  1.3805 -0.1215
  575MOL0     O75803   6.708   3.791   6.748  0.0445 -1.2286 -0.6200
  575MOL0     C75804   6.771   3.898   6.813 -0.4427 -0.0308  0.7141
  575MOL0     C75805   6.713   4.023   6.765  0.0839 -0.7066 -0.0840
  575MOL0     C75806   6.559   4.031   6.778  0.0440 -0.5181 -0.0921
  575MOL0     C75807   6.509   4.177   6.780 -0.8466  0.4777  0.4678
  575MOL0     C75808   6.521   4.231   6.927 -0.9199  1.3188  0.3843
  575MOL0     C75809   6.510   4.385   6.933  0.4395 -0.4108 -0.0068
  575MOL0     C75810   6.505   4.432   7.076  0.0837  0.1138  0.8272
  575MOL0     C75811   6.493   4.585   7.083  0.2831 -1.3905  0.1559
  575MOL0    Cl75812   6.316   4.633   7.092  0.2409  0.3675 -0.1521
  575MOL0     C75813   6.685   3.553   6.725 -0.4424 -0.2833  0.8134
  575MOL0     C75814   6.724   3.413   6.742 -0.2684 -0.7316  0.0853
  575MOL0     O75815   6.942   3.253   7.033  0.3868 -0.5312  0.1042
  575MOL0     C75816   7.011   2.987   7.026 -0.1145  0.3091  0.0569
  575MOL0     C75817   7.046   2.853   7.025  0.2447 -0.2365 -0.0247
  575MOL0     N75818   7.312   2.146   7.102 -0.3968  0.2074  1.2637
  575MOL0     N75819   7.420   2.111   7.149 -0.5663  0.7965 -0.5456
  575MOL0     C75820   8.511   2.570   6.650  1.0007 -0.4474 -0.5021
  575MOL0     C75821   8.647   2.565   6.609  0.7478  0.3373  0.0140
  575MOL0     C75822   9.106   2.504   6.660  0.1528 -0.2348 -0.3688
  575MOL0     C75823   9.136   2.519   6.521  0.1546 -0.1280  0.1111
  575MOL0     C75824   9.263   2.492   6.473 -0.5889 -0.4426  0.1135
  575MOL0     C75825   9.359   2.437   6.559  0.2949 -0.2304  0.1007
  575MOL0     O75826   9.479   2.386   6.508  0.5085  0.0093 -0.9596
  575MOL0     C75827   9.570   2.476   6.440 -0.2276 -0.1483 -0.2815
  575MOL0     C75828   9.711   2.422   6.442  0.1802  0.8711  0.6773
  575MOL0     C75829   9.780   2.441   6.583  1.0542 -0.9271  1.0900
  575MOL0     C75830   9.908   2.364   6.594 -0.4967 -1.0033  0.2893
  575MOL0     C75831  10.011   2.435   6.518  0.2793  1.0370 -0.9578
  575MOL0     C75832  10.100   2.511   6.477 -0.6308 -0.2056  0.1832
  575MOL0     C75833   9.326   2.417   6.699 -0.4125 -0.0034 -0.0732
  575MOL0     C75834   9.202   2.452   6.746 -0.5407  0.6751  0.4229
  575MOL0     H75835   8.781   2.474   6.910  0.5387  0.2397 -1.0197
  575MOL0     H75836   8.550   2.488   6.978 -2.7447  0.0115 -0.5440
  575MOL0     H75837   8.342   2.552   7.005  3.1856  0.0143 -2.2669
  575MOL0     H75838   8.313   2.407   6.925  0.4925 -0.2639  0.3368
  575MOL0     H75839   8.087   2.522   6.833  0.2699 -0.4689 -0.1522
  575MOL0     H75840   8.138   2.648   6.949  1.9667  0.2608 -0.2240
  575MOL0     H75841   8.130   2.454   7.121  1.8454 -0.1882 -1.4283
  575MOL0     H75842   8.055   2.363   6.991 -2.1327  0.1648  0.9634
  575MOL0     H75843   7.919   2.624   7.104 -3.8104  0.6851 -1.1100
  575MOL0     H75844   7.864   2.535   6.970 -1.8401  0.2785  0.7542
  575MOL0     H75845   7.753   2.470   7.180  1.3633  0.7177  3.1244
  575MOL0     H75846   7.897   2.377   7.222 -2.2212 -2.6869 -0.1671
  575MOL0     H75847   7.863   2.255   7.007  0.5317  1.4009 -1.0252
  575MOL0     H75848   7.703   2.337   6.997 -1.3362 -2.4391 -0.9379
  575MOL0     H75849   7.811   2.162   7.227 -1.3815 -0.0392  1.2174
  575MOL0     H75850   7.657   2.246   7.243 -0.8069 -2.5626  0.9222
  575MOL0     H75851   7.652   2.005   7.183 -1.2784  2.3442  3.4749
  575MOL0     H75852   7.718   2.051   7.017 -1.3281 -0.2307 -0.0509
  575MOL0     H75853   7.520   2.190   6.854 -2.1283  1.1146 -0.5135
  575MOL0     H75854   7.147   2.175   6.886  0.2845 -0.4969  0.5306
  575MOL0     H75855   7.254   2.273   6.796  1.1824  4.0743  0.7722
  575MOL0     H75856   7.232   2.459   6.955  1.2824 -1.1025  0.0315
  575MOL0     H75857   7.149   2.365   7.078  2.1434 -2.3668 -0.1580
  575MOL0     H75858   7.039   2.412   6.800  2.4160  0.4218  0.2192
  575MOL0     H75859   6.955   2.333   6.944  1.8248 -1.5309  2.0795
  575MOL0     H75860   6.987   2.538   7.067  0.7036 -4.9280  0.0689
  575MOL0     H75861   6.872   2.564   6.940 -1.0637 -2.7137  1.9114
  575MOL0     H75862   6.947   2.796   6.717 -0.7860  0.3029 -0.4721
  575MOL0     H75863   6.916   3.040   6.714  0.4855  1.1690  1.0269
  575MOL0     H75864   6.999   3.499   6.949  1.7004  0.5056 -0.4876
  575MOL0     H75865   6.902   3.725   6.904 -3.9154  1.4021  0.5263
  575MOL0     H75866   6.875   3.895   6.781 -0.8564 -5.2533 -1.2128
  575MOL0     H75867   6.768   3.884   6.921 -2.5050 -1.0879  0.5747
  575MOL0     H75868   6.746   4.059   6.667  0.3860 -1.7967 -0.4061
  575MOL0     H75869   6.744   4.100   6.835  0.5386 -0.1840 -0.8445
  575MOL0     H75870   6.516   3.978   6.863  1.1419  0.1664  0.9153
  575MOL0     H75871   6.517   4.004   6.681  1.5879  1.1432 -1.2818
  575MOL0     H75872   6.552   4.231   6.695 -1.3313 -0.4271 -0.3828
  575MOL0     H75873   6.402   4.176   6.757 -1.0776 -2.8929  1.2246
  575MOL0     H75874   6.617   4.204   6.972 -0.2840 -1.2789 -2.2073
  575MOL0     H75875   6.450   4.179   6.992 -1.1497  1.4924  0.2762
  575MOL0     H75876   6.425   4.418   6.873  0.9754  1.2747  0.1164
  575MOL0     H75877   6.598   4.424   6.882  1.2761 -2.2997 -0.1054
  575MOL0     H75878   6.414   4.386   7.115 -1.1313  0.5877 -1.2818
  575MOL0     H75879   6.600   4.407   7.123 -0.8498 -1.0436  2.1786
  575MOL0     H75880   6.542   4.642   7.004 -2.0143  1.2575  0.4675
  575MOL0     H75881   6.540   4.612   7.178 -2.2088  1.7927  0.6903
  575MOL0     H75882   6.606   3.577   6.654 -2.3760 -2.5180  2.0303
  575MOL0     H75883   6.668   3.342   6.682  0.0876 -2.1980  1.4121
  575MOL0     H75884   7.027   3.045   7.117  3.4183  2.7311 -1.8345
  575MOL0     H75885   7.079   2.807   7.118  2.1168 -2.0782 -1.4824
  575MOL0     H75886   8.431   2.587   6.577  1.6601 -0.8155 -1.3280
  575MOL0     H75887   8.680   2.567   6.506 -1.4012 -1.7499 -0.7764
  575MOL0     H75888   9.059   2.554   6.453  2.9891  2.4750 -2.0356
  575MOL0     H75889   9.293   2.501   6.369 -2.4992 -2.7301 -0.7281
  575MOL0     H75890   9.567   2.572   6.494 -1.8227 -1.1758  1.5925
  575MOL0     H75891   9.544   2.500   6.336  1.1055  1.9488 -0.1953
  575MOL0     H75892   9.724   2.318   6.409 -2.9961  1.0537 -1.6539
  575MOL0     H75893   9.764   2.470   6.359 -1.6391 -0.8435 -1.6294
  575MOL0     H75894   9.709   2.420   6.663 -0.2230 -4.1014 -0.6920
  575MOL0     H75895   9.802   2.548   6.591  2.3540 -1.2265  1.8234
  575MOL0     H75896   9.939   2.370   6.699 -1.9949  2.7076  0.6876
  575MOL0     H75897   9.886   2.262   6.563 -0.8574 -0.3215 -1.8366
  575MOL0     H75898  10.174   2.585   6.453  0.4474 -1.2225  0.2516
  575MOL0     H75899   9.404   2.369   6.757 -0.2464 -1.4214 -1.4098
  575MOL0     H75900   9.175   2.427   6.849  0.3073 -1.3542  0.2045
  576MOL0     O75901   8.964   7.858  11.325  0.3277 -1.2973 -0.7903
  576MOL0     C75902   8.909   7.777  11.392 -0.5375  0.5639 -1.2027
  576MOL0     O75903   8.971   7.685  11.465 -1.0193  0.3815  0.2417
  576MOL0     C75904   9.098   7.683  11.522 -0.3086  0.3395  0.3235
  576MOL0     C75905   9.175   7.565  11.519  0.6159  0.7190  1.1749
  576MOL0     C75906   9.294   7.557  11.585  0.3575 -0.1253 -0.2416
  576MOL0     C75907   9.353   7.667  11.646 -0.3161 -0.2589 -0.1587
  576MOL0     O75908   9.481   7.647  11.694 -0.2706  0.2841  0.9174
  576MOL0     C75909   9.574   7.718  11.609  0.6716 -1.0347  0.6570
  576MOL0     C75910   9.711   7.710  11.677  1.1415 -0.2488  0.7162
  576MOL0     C75911   9.833   7.767  11.592  0.3787 -0.1695  0.3014
  576MOL0     C75912   9.964   7.714  11.661  0.3377 -1.1449  0.0719
  576MOL0     C75913   9.982   7.562  11.645 -0.5604 -1.8517 -0.5926
  576MOL0     C75914  10.108   7.537  11.742  0.5092  0.5920  1.0961
  576MOL0     C75915  10.199   7.425  11.681  0.2929  0.1726  0.2517
  576MOL0     C75916  10.322   7.376  11.765 -0.1608  0.0094  0.4752
  576MOL0     N75917  10.284   7.296  11.877  0.2248  0.1852  0.0040
  576MOL0     C75918  10.216   7.330  11.988  0.8095 -0.7710  0.1979
  576MOL0     C75919  10.191   7.214  12.062  0.0026  0.1762 -0.2221
  576MOL0     C75920  10.095   7.208  12.180  0.6318  0.2017 -0.2573
  576MOL0     C75921   9.969   7.156  12.114  0.2620  0.5362  0.0776
  576MOL0     C75922   9.847   7.169  12.204  0.1559 -0.2667  0.2541
  576MOL0     C75923   9.728   7.095  12.142  0.1669  0.0281  0.1649
  576MOL0     O75924   9.689   7.150  12.010 -0.6141  0.3157  0.0464
  576MOL0     C75925   9.568   7.107  11.953 -0.5891 -0.2821  0.1936
  576MOL0     C75926   9.505   6.988  11.989  0.3853 -1.0461  0.8153
  576MOL0     C75927   9.379   6.959  11.927  1.0444 -0.5799 -0.4321
  576MOL0     C75928   9.327   7.043  11.826  0.0765  1.0639 -0.2610
  576MOL0     C75929   9.210   7.006  11.770 -0.1723 -0.6217 -0.0871
  576MOL0     O75930   9.134   6.900  11.814 -0.3249 -0.2441 -0.4148
  576MOL0     C75931   9.013   6.875  11.755 -0.2081 -0.4814  0.0187
  576MOL0     C75932   9.001   6.786  11.642  0.1460 -1.0891 -0.5522
  576MOL0     C75933   8.878   6.758  11.588 -0.0120  0.4326 -0.9567
  576MOL0     C75934   8.761   6.806  11.648  0.6842 -0.2452 -1.3028
  576MOL0     O75935   8.634   6.760  11.617 -0.2990 -0.3003 -0.4721
  576MOL0     C75936   8.613   6.625  11.588 -0.6002  0.4858  1.6240
  576MOL0     C75937   8.469   6.582  11.563  0.3690 -0.8768  0.8095
  576MOL0     C75938   8.407   6.645  11.435 -0.5664  0.8452 -0.4512
  576MOL0     C75939   8.249   6.640  11.447 -0.1588 -0.0971  0.3237
  576MOL0     C75940   8.155   6.741  11.369  0.3152  0.3775 -0.3947
  576MOL0     C75941   8.172   6.891  11.407 -0.0019  0.2434  0.2500
  576MOL0     C75942   8.095   6.975  11.307 -0.4205 -0.0383  0.1011
  576MOL0     C75943   8.098   7.123  11.331 -0.6751  0.5969  0.4300
  576MOL0    Cl75944   8.269   7.174  11.271  0.5172  0.0942 -0.0760
  576MOL0     C75945   8.766   6.892  11.760 -0.4854  0.8460  0.9670
  576MOL0     C75946   8.888   6.932  11.815 -0.1931 -0.5241 -0.2186
  576MOL0     O75947   9.184   7.074  11.668  0.4397  0.4769 -0.2117
  576MOL0     C75948   9.409   7.152  11.791  0.7971  0.1055 -0.3955
  576MOL0     C75949   9.529   7.189  11.850  0.8228 -0.1460 -0.0320
  576MOL0     N75950  10.244   7.111  11.982  0.5118  0.7116 -0.2363
  576MOL0     N75951  10.297   7.161  11.881  0.3874 -0.3464  0.0212
  576MOL0     C75952   9.294   7.788  11.631  1.0447 -0.1671 -0.9780
  576MOL0     C75953   9.168   7.793  11.567  1.0654 -0.3190  0.9279
  576MOL0     C75954   8.756   7.784  11.386  0.5602 -0.3761 -1.0892
  576MOL0     C75955   8.672   7.679  11.409 -0.0526  0.7139 -0.7206
  576MOL0     C75956   8.530   7.691  11.397 -0.2016  0.9554  0.1056
  576MOL0     C75957   8.473   7.818  11.388 -0.2140  0.2239 -0.0388
  576MOL0     O75958   8.332   7.837  11.385  0.0214  0.0255 -0.0135
  576MOL0     C75959   8.275   7.869  11.512 -0.1707  0.0054  0.4744
  576MOL0     C75960   8.132   7.905  11.471 -0.6223  0.0615  0.0019
  576MOL0     C75961   8.053   7.939  11.602 -0.6532  0.0452  0.0358
  576MOL0     C75962   7.903   7.946  11.576 -0.2104 -0.1779 -0.1324
  576MOL0     C75963   7.824   7.908  11.689  0.9707  0.0712 -0.5897
  576MOL0     C75964   7.735   7.889  11.769  0.9006 -0.2020 -0.3032
  576MOL0     C75965   8.558   7.929  11.371 -0.5209  0.9822  0.0395
  576MOL0     C75966   8.697   7.912  11.375  0.1007  0.0148  0.4019
  576MOL0     H75967   9.140   7.471  11.477 -0.3168  0.2469  2.8972
  576MOL0     H75968   9.341   7.460  11.572 -0.7767 -0.3745 -3.4345
  576MOL0     H75969   9.546   7.824  11.605  3.6912 -0.0704  1.9698
  576MOL0     H75970   9.579   7.669  11.512 -2.5136  1.5651 -1.0157
  576MOL0     H75971   9.731   7.605  11.699  3.9705  0.1604  0.4634
  576MOL0     H75972   9.700   7.764  11.772 -0.7972  1.9008 -0.6141
  576MOL0     H75973   9.830   7.872  11.562  4.5934 -0.7475 -3.1992
  576MOL0     H75974   9.831   7.717  11.495  1.5069 -0.6351  0.4988
  576MOL0     H75975  10.048   7.767  11.615 -2.0297  3.9039  0.8816
  576MOL0     H75976   9.953   7.748  11.764  0.6110  2.3603 -0.9175
  576MOL0     H75977   9.997   7.546  11.538  3.8268 -1.3946 -0.2486
  576MOL0     H75978   9.897   7.496  11.663 -1.0575 -0.7430  1.4727
  576MOL0     H75979  10.074   7.497  11.838 -1.5976  0.1879  0.2286
  576MOL0     H75980  10.170   7.625  11.760  0.0400  1.2386 -0.2805
  576MOL0     H75981  10.138   7.335  11.670 -0.7032  0.5803  1.9872
  576MOL0     H75982  10.227   7.465  11.583 -2.2543  0.3469 -0.4773
  576MOL0     H75983  10.371   7.466  11.802 -4.2203  2.4078  0.6579
  576MOL0     H75984  10.379   7.314  11.696 -2.5754 -0.7115 -1.0240
  576MOL0     H75985  10.183   7.427  12.022  1.3448 -0.7831  0.7898
  576MOL0     H75986  10.073   7.309  12.214  0.5294 -0.0299  0.3672
  576MOL0     H75987  10.126   7.151  12.268 -1.1298  2.3863  1.9194
  576MOL0     H75988   9.987   7.051  12.089 -0.2232  0.1956  1.1113
  576MOL0     H75989   9.943   7.215  12.026 -2.7152 -0.4582  0.1698
  576MOL0     H75990   9.866   7.135  12.307  1.6310 -1.7320 -0.4560
  576MOL0     H75991   9.826   7.277  12.205  3.0180  0.4464 -2.1740
  576MOL0     H75992   9.645   7.092  12.213  0.1693 -0.8418  0.1390
  576MOL0     H75993   9.755   6.990  12.124  2.2974  0.4733  0.4708
  576MOL0     H75994   9.548   6.927  12.067  4.9804  1.9836  1.0448
  576MOL0     H75995   9.322   6.870  11.951 -0.0666  0.4320  0.8167
  576MOL0     H75996   9.089   6.742  11.598  0.7454 -0.0133 -0.4810
  576MOL0     H75997   8.877   6.691  11.503  1.7293  0.4329 -1.0182
  576MOL0     H75998   8.663   6.568  11.666  2.8008  0.1652 -0.5627
  576MOL0     H75999   8.675   6.601  11.501  2.6234  2.8881  3.0388
  576MOL0     H76000   8.400   6.627  11.635 -2.2866 -2.7541 -0.3864
  576MOL0     H76001   8.456   6.473  11.563  1.8917 -1.0793  1.5881
  576MOL0     H76002   8.452   6.581  11.359 -0.3192  0.8486 -0.3088
  576MOL0     H76003   8.442   6.748  11.418 -0.5377  0.8550 -0.3396
  576MOL0     H76004   8.219   6.538  11.424 -0.5213 -0.2916  1.5911
  576MOL0     H76005   8.226   6.660  11.552 -0.0591  0.9710  0.1619
  576MOL0     H76006   8.055   6.698  11.371 -0.4989  1.9587 -2.6854
  576MOL0     H76007   8.193   6.743  11.266  3.2686  5.4945  0.4058
  576MOL0     H76008   8.275   6.929  11.409  0.1571 -0.2012  0.4883
  576MOL0     H76009   8.143   6.903  11.511  0.7023  0.8611  0.3861
  576MOL0     H76010   8.129   6.966  11.203 -1.1332  0.4598 -0.1788
  576MOL0     H76011   7.989   6.950  11.306 -0.8830  0.9986 -4.6499
  576MOL0     H76012   8.087   7.142  11.438  2.1789 -3.9534  1.8558
  576MOL0     H76013   8.027   7.180  11.272  1.3375  0.0093 -2.8499
  576MOL0     H76014   8.670   6.931  11.793 -3.0650 -2.3218 -2.0472
  576MOL0     H76015   8.892   7.000  11.900 -0.9226  0.0406 -0.6144
  576MOL0     H76016   9.370   7.222  11.718  1.5575  1.4567  0.4578
  576MOL0     H76017   9.585   7.279  11.824 -0.7454  0.4972 -1.3493
  576MOL0     H76018   9.330   7.888  11.653  0.9850 -0.0268 -1.4900
  576MOL0     H76019   9.123   7.890  11.549  1.3338 -0.7950 -3.2038
  576MOL0     H76020   8.714   7.585  11.443  2.3134  2.6997  2.3494
  576MOL0     H76021   8.458   7.611  11.410  2.3146 -1.1613  1.9728
  576MOL0     H76022   8.315   7.957  11.563  2.1068 -0.8732  0.2799
  576MOL0     H76023   8.285   7.776  11.569  0.4582  2.4040  4.7320
  576MOL0     H76024   8.124   7.990  11.403  1.5979  0.8244  0.5907
  576MOL0     H76025   8.097   7.812  11.426  0.4183 -0.4681  0.2417
  576MOL0     H76026   8.091   8.031  11.647  1.9322 -1.1541  0.4976
  576MOL0     H76027   8.076   7.867  11.681 -1.5379  1.5378  1.7381
  576MOL0     H76028   7.877   8.044  11.536 -2.2122 -1.3490 -1.8680
  576MOL0     H76029   7.882   7.874  11.497 -4.0256  1.5335 -0.9146
  576MOL0     H76030   7.659   7.870  11.842  2.2168 -1.1911  0.8733
  576MOL0     H76031   8.521   8.030  11.360 -0.0163  0.9297 -3.1126
  576MOL0     H76032   8.750   8.006  11.376  1.3801 -0.6740  1.9587
  577MOL0     O76033   1.752  10.267  11.057  0.2577 -0.1523 -0.0875
  577MOL0     C76034   1.787  10.316  10.961  0.4267  0.1053  0.9103
  577MOL0     O76035   1.715  10.401  10.884  0.2684  1.3143  0.1415
  577MOL0     C76036   1.589  10.430  10.928 -1.1164  0.2565  0.7303
  577MOL0     C76037   1.479  10.412  10.846  0.8429 -0.5852  0.7477
  577MOL0     C76038   1.352  10.435  10.891  0.4317  0.0106  0.2113
  577MOL0     C76039   1.327  10.476  11.019 -0.2151  0.2503  0.2039
  577MOL0     O76040   1.198  10.469  11.068 -0.0503 -0.2132  0.5063
  577MOL0     C76041   1.154  10.583  11.139  0.2342  0.1606 -0.4367
  577MOL0     C76042   1.099  10.552  11.274  0.3947 -0.0314  0.0757
  577MOL0     C76043   0.957  10.494  11.278 -0.7074  0.8477 -0.0617
  577MOL0     C76044   0.922  10.440  11.415  0.2175 -0.5434  0.1345
  577MOL0     C76045   0.810  10.340  11.400  0.3545  0.6082 -0.3103
  577MOL0     C76046   0.793  10.264  11.533 -0.1296  0.5391 -0.0996
  577MOL0     C76047   0.680  10.151  11.521 -0.5253 -0.3687  0.0544
  577MOL0     C76048   0.756  10.026  11.476 -0.3763  0.3259 -0.0581
  577MOL0     N76049   0.677   9.904  11.482  0.7657 -1.0314 -0.1458
  577MOL0     C76050   0.558   9.891  11.407  2.1814  0.7038  0.3610
  577MOL0     C76051   0.470   9.812  11.480 -0.0517 -0.8537  0.5304
  577MOL0     C76052   0.334   9.773  11.455 -0.6344  0.7294  1.0030
  577MOL0     C76053   0.231   9.888  11.462  0.0208  0.8393  0.3240
  577MOL0     C76054   0.098   9.819  11.444 -0.7419 -0.1839 -0.4786
  577MOL0     C76055  -0.020   9.922  11.463  0.1596  0.5039 -0.4953
  577MOL0     O76056  -0.068   9.943  11.331 -0.4752 -0.0006  0.0075
  577MOL0     C76057  -0.201   9.930  11.316 -0.0797  0.4213 -1.4869
  577MOL0     C76058  -0.275  10.046  11.322  0.1602  0.2699 -0.1679
  577MOL0     C76059  -0.419  10.034  11.306  0.3786  0.3315 -0.9670
  577MOL0     C76060  -0.473   9.911  11.248  0.6796  0.4482 -0.0791
  577MOL0     C76061  -0.624   9.894  11.223 -1.2262 -0.8212 -0.0635
  577MOL0     O76062  -0.706   9.991  11.272  1.1668  0.1947 -0.3397
  577MOL0     C76063  -0.842   9.977  11.247 -0.2142 -0.4244  0.5678
  577MOL0     C76064  -0.904  10.070  11.169  0.5471 -0.6073 -0.1947
  577MOL0     C76065  -1.047  10.050  11.152 -0.0663 -0.4092  0.0969
  577MOL0     C76066  -1.116   9.944  11.217 -0.0377 -0.5424 -0.3633
  577MOL0     O76067  -1.248   9.913  11.224 -0.2512 -1.1234 -0.3047
  577MOL0     C76068  -1.323   9.925  11.101 -0.1388 -1.0235 -0.2767
  577MOL0     C76069  -1.468   9.915  11.142 -0.1586  0.0750 -0.0192
  577MOL0     C76070  -1.546   9.889  11.019  0.6848 -1.1663  0.9753
  577MOL0     C76071  -1.696   9.862  11.031 -0.4704  0.3717 -0.2902
  577MOL0     C76072  -1.723   9.707  11.045 -0.9613  0.3934 -0.5025
  577MOL0     C76073  -1.871   9.688  11.081  0.0498  0.8174 -0.2150
  577MOL0     C76074  -1.910   9.547  11.044 -0.5564  0.0797  0.0112
  577MOL0     C76075  -2.054   9.550  11.104 -0.3724 -0.1482  0.2324
  577MOL0    Cl76076  -2.136   9.403  11.061  0.2356 -0.1085  0.7185
  577MOL0     C76077  -1.052   9.858  11.293 -0.0315 -0.2387  0.0543
  577MOL0     C76078  -0.917   9.876  11.307  0.0248  0.3885  0.1246
  577MOL0     O76079  -0.655   9.799  11.155  0.4976 -0.7317  0.3191
  577MOL0     C76080  -0.384   9.797  11.244  0.2742 -1.1158  0.3387
  577MOL0     C76081  -0.256   9.803  11.286  0.2007 -0.1074 -0.2988
  577MOL0     N76082   0.545   9.767  11.588  1.0767 -0.1291  0.3043
  577MOL0     N76083   0.657   9.832  11.592  0.4956 -0.4116  0.5296
  577MOL0     C76084   1.434  10.507  11.105  0.4598 -0.3770 -0.2205
  577MOL0     C76085   1.564  10.488  11.056  0.0089  0.6402  0.1662
  577MOL0     C76086   1.914  10.267  10.909 -0.1131  0.1492 -0.9449
  577MOL0     C76087   1.984  10.154  10.966 -1.0873  0.2529 -0.3076
  577MOL0     C76088   2.112  10.119  10.928  0.0293  0.9902 -0.0623
  577MOL0     C76089   2.170  10.184  10.821 -0.1974 -0.7039 -0.4296
  577MOL0     O76090   2.289  10.146  10.778 -0.6191  0.4726  0.0239
  577MOL0     C76091   2.413  10.175  10.834  0.6022  0.0834  0.4230
  577MOL0     C76092   2.482  10.059  10.906 -0.0870  0.0604  0.7092
  577MOL0     C76093   2.638  10.077  10.926  0.0664  0.3194  0.3228
  577MOL0     C76094   2.692  10.061  11.072 -0.2207 -0.0677 -0.5271
  577MOL0     C76095   2.636   9.946  11.141  0.4014 -0.0747  0.0274
  577MOL0     C76096   2.596   9.845  11.187 -0.2005  0.2143  0.6090
  577MOL0     C76097   2.108  10.292  10.762 -0.7521 -0.4309  0.9003
  577MOL0     C76098   1.979  10.329  10.801  0.0364 -0.4523  0.1093
  577MOL0     H76099   1.494  10.374  10.746  1.4616  0.3925  0.4586
  577MOL0     H76100   1.272  10.415  10.821  0.5476  1.3230 -0.3276
  577MOL0     H76101   1.062  10.615  11.089 -1.2764 -2.5005  0.4283
  577MOL0     H76102   1.223  10.667  11.151 -2.7050  2.8279 -0.9096
  577MOL0     H76103   1.094  10.639  11.341 -2.9262  1.5373 -1.9798
  577MOL0     H76104   1.164  10.476  11.318 -0.7704 -0.2731  1.4280
  577MOL0     H76105   0.944  10.427  11.192  3.0553 -0.8023  0.4683
  577MOL0     H76106   0.887  10.571  11.246  0.0842  1.3659 -0.5498
  577MOL0     H76107   1.009  10.388  11.457  1.3985 -1.1093 -2.7411
  577MOL0     H76108   0.892  10.526  11.476 -1.7430 -0.2097 -1.1791
  577MOL0     H76109   0.834  10.265  11.325  0.5461 -1.0634  1.3320
  577MOL0     H76110   0.712  10.381  11.375 -0.1720 -0.9695 -0.9451
  577MOL0     H76111   0.755  10.334  11.608 -0.4902  0.1141  0.1191
  577MOL0     H76112   0.888  10.221  11.566 -0.2414  0.4567  0.1196
  577MOL0     H76113   0.634  10.138  11.619 -2.3482 -1.2801 -0.8648
  577MOL0     H76114   0.596  10.167  11.452  1.5532  0.8215 -2.3518
  577MOL0     H76115   0.824  10.002  11.558  1.8481  0.3885 -1.7876
  577MOL0     H76116   0.824  10.041  11.391  0.6997  3.1915  1.2034
  577MOL0     H76117   0.523   9.941  11.317  0.5052 -1.1369 -0.0954
  577MOL0     H76118   0.305   9.699  11.530  2.6672  1.1312  2.8661
  577MOL0     H76119   0.328   9.731  11.354  1.0694  3.5121 -0.3743
  577MOL0     H76120   0.248   9.955  11.376  2.8094  0.7717  0.7312
  577MOL0     H76121   0.244   9.954  11.548 -1.2159  2.3764 -0.6001
  577MOL0     H76122   0.086   9.767  11.348  1.9091 -0.5348 -0.6950
  577MOL0     H76123   0.094   9.738  11.518 -3.1232 -0.7258 -1.1097
  577MOL0     H76124   0.011  10.017  11.506 -0.2720 -0.3807  2.0075
  577MOL0     H76125  -0.095   9.877  11.530  1.2498  1.2411  1.2978
  577MOL0     H76126  -0.223  10.140  11.337  1.0496 -0.1850 -0.3521
  577MOL0     H76127  -0.493  10.111  11.328 -1.6770 -2.1399  1.5085
  577MOL0     H76128  -0.855  10.161  11.136 -0.3915  0.4157  1.1543
  577MOL0     H76129  -1.100  10.127  11.097 -0.7044  0.1671  1.4651
  577MOL0     H76130  -1.295   9.844  11.033  1.7698  0.3515 -1.2431
  577MOL0     H76131  -1.304  10.026  11.063 -1.6280  0.5088  2.7081
  577MOL0     H76132  -1.487  10.008  11.196  3.0627  0.7630  0.1129
  577MOL0     H76133  -1.482   9.832  11.212 -1.0288  0.0565 -0.2056
  577MOL0     H76134  -1.503   9.800  10.972 -2.4470 -2.1972 -0.2042
  577MOL0     H76135  -1.534   9.977  10.955  1.3524 -1.0367  1.2605
  577MOL0     H76136  -1.736   9.918  11.116 -0.3290  2.6361 -1.6404
  577MOL0     H76137  -1.746   9.906  10.945 -1.8347 -2.6340 -1.1681
  577MOL0     H76138  -1.671   9.650  11.122 -2.0836 -1.1515 -0.8339
  577MOL0     H76139  -1.704   9.662  10.947 -2.5407 -0.4301 -0.4731
  577MOL0     H76140  -1.925   9.756  11.014  1.1102  1.1325 -0.7654
  577MOL0     H76141  -1.897   9.716  11.184 -1.9097 -0.0185 -0.4261
  577MOL0     H76142  -1.904   9.535  10.935 -1.7049  0.0616 -0.0605
  577MOL0     H76143  -1.855   9.463  11.086 -4.4815 -3.6629 -1.6030
  577MOL0     H76144  -2.109   9.635  11.064  1.5251  0.5536 -1.0566
  577MOL0     H76145  -2.045   9.557  11.213  0.2871 -1.3153  0.2793
  577MOL0     H76146  -1.102   9.771  11.335 -2.6825  1.0278 -0.2834
  577MOL0     H76147  -0.873   9.805  11.377 -5.4896 -1.1551  2.6465
  577MOL0     H76148  -0.411   9.701  11.201 -1.7962  1.0008 -3.6996
  577MOL0     H76149  -0.204   9.709  11.299 -0.7550 -0.6165 -0.1297
  577MOL0     H76150   1.405  10.541  11.204 -0.8645  2.9725 -1.5923
  577MOL0     H76151   1.642  10.505  11.130 -1.6129 -0.2816  2.1641
  577MOL0     H76152   1.944  10.111  11.057  3.3103  0.9922  2.2880
  577MOL0     H76153   2.146  10.027  10.975 -0.0126 -0.2145 -2.2394
  577MOL0     H76154   2.398  10.257  10.904  1.5692 -1.6526  2.8092
  577MOL0     H76155   2.469  10.214  10.748 -1.9763  1.7855 -0.6035
  577MOL0     H76156   2.439  10.046  11.005  0.5943 -1.6308  0.8234
  577MOL0     H76157   2.461   9.969  10.846 -0.4545  0.2766  0.5114
  577MOL0     H76158   2.670  10.175  10.887 -0.3826  0.1406 -0.5282
  577MOL0     H76159   2.696  10.003  10.870  3.1493  1.2950  2.0176
  577MOL0     H76160   2.799  10.045  11.084 -0.3347  0.9874  2.9404
  577MOL0     H76161   2.658  10.156  11.115 -0.9699 -0.6937  0.3250
  577MOL0     H76162   2.568   9.757  11.239  0.8427  0.0588  0.9289
  577MOL0     H76163   2.150  10.362  10.690  0.8477 -2.8604 -0.7258
  577MOL0     H76164   1.933  10.406  10.741  0.6644  0.4329  0.7363
  578MOL0     O76165   1.436   8.897   3.843  0.0373  0.2037  0.0329
  578MOL0     C76166   1.445   8.859   3.731 -0.1849 -0.0744  0.3754
  578MOL0     O76167   1.380   8.920   3.628 -0.7548  1.2913 -0.6121
  578MOL0     C76168   1.260   8.979   3.660 -0.0196  0.5878  0.8791
  578MOL0     C76169   1.146   8.908   3.692  0.1007  1.0991  0.6730
  578MOL0     C76170   1.030   8.986   3.704 -0.7683  0.6094 -0.3952
  578MOL0     C76171   1.023   9.126   3.680 -0.5458 -0.7476  0.2573
  578MOL0     O76172   0.917   9.206   3.698  0.2360 -0.9791  0.2632
  578MOL0     C76173   0.795   9.149   3.741  0.3296 -0.3669 -0.6410
  578MOL0     C76174   0.689   9.252   3.761  0.7524 -0.0487  0.1677
  578MOL0     C76175   0.550   9.190   3.813 -0.8383 -1.0615 -0.5124
  578MOL0     C76176   0.459   9.307   3.834 -0.8191  0.2352 -0.1534
  578MOL0     C76177   0.311   9.275   3.856 -0.5798  0.0680  0.2962
  578MOL0     C76178   0.217   9.385   3.924 -0.6138 -0.3660  0.4106
  578MOL0     C76179   0.076   9.327   3.937  0.1987  0.3650 -0.6160
  578MOL0     C76180  -0.030   9.419   4.009 -1.4501 -0.5627  1.3635
  578MOL0     N76181  -0.171   9.388   3.994  0.2541  0.2346 -0.7433
  578MOL0     C76182  -0.268   9.384   4.093 -0.4113 -0.6195  0.1835
  578MOL0     C76183  -0.374   9.332   4.038  0.2792  1.0670 -0.4582
  578MOL0     C76184  -0.507   9.317   4.109 -0.0955 -0.0763  0.4403
  578MOL0     C76185  -0.615   9.411   4.056  0.5613 -0.5885  0.1206
  578MOL0     C76186  -0.566   9.548   4.066 -0.6932 -0.4400 -0.3954
  578MOL0     C76187  -0.683   9.644   4.026  0.8365 -0.0452  0.0639
  578MOL0     O76188  -0.779   9.658   4.130  0.1081 -0.3031  0.7587
  578MOL0     C76189  -0.848   9.774   4.134  0.7409  0.0373  0.3255
  578MOL0     C76190  -0.856   9.872   4.029  0.9404 -0.1440 -0.1013
  578MOL0     C76191  -0.955   9.972   4.038 -0.2438  0.8362  0.4780
  578MOL0     C76192  -1.032   9.991   4.151  0.1172 -0.1656 -0.4092
  578MOL0     C76193  -1.151  10.080   4.129  0.6193 -0.3779  0.5271
  578MOL0     O76194  -1.182  10.117   3.995  0.2788 -0.2147  0.6918
  578MOL0     C76195  -1.306  10.178   3.956 -0.3206  0.0742 -0.6093
  578MOL0     C76196  -1.323  10.231   3.831 -0.1368  0.5531 -0.2908
  578MOL0     C76197  -1.442  10.282   3.782  0.5270 -0.0826  0.4272
  578MOL0     C76198  -1.549  10.295   3.872 -0.6790  0.2148  0.0149
  578MOL0     O76199  -1.668  10.340   3.836 -0.0161  0.6635 -0.2454
  578MOL0     C76200  -1.738  10.267   3.736  0.7644 -0.3531  0.6449
  578MOL0     C76201  -1.892  10.331   3.741 -1.1259  0.3431  0.5991
  578MOL0     C76202  -1.963  10.308   3.867 -0.2484  0.6672 -0.0013
  578MOL0     C76203  -2.081  10.406   3.887 -0.1093  0.1664  0.2170
  578MOL0     C76204  -2.159  10.399   4.017  0.9411  0.3239  0.1893
  578MOL0     C76205  -2.269  10.503   4.022  0.7647 -0.0740  0.1681
  578MOL0     C76206  -2.342  10.511   4.158  0.1877 -0.3854 -0.0403
  578MOL0     C76207  -2.493  10.539   4.131  0.4158  0.1186 -1.0420
  578MOL0    Cl76208  -2.526  10.682   4.047  0.8051 -0.4023  0.2170
  578MOL0     C76209  -1.531  10.261   4.003  0.3532  1.4348  0.0386
  578MOL0     C76210  -1.410  10.205   4.043 -0.5105 -0.0608  0.0531
  578MOL0     O76211  -1.206  10.118   4.229 -0.0252  0.0626  0.3684
  578MOL0     C76212  -1.005   9.915   4.265  0.1631 -0.8055  0.7496
  578MOL0     C76213  -0.918   9.796   4.255 -0.3842 -0.2888  0.0382
  578MOL0     N76214  -0.359   9.326   3.898 -0.0098 -0.1605 -0.3881
  578MOL0     N76215  -0.234   9.349   3.876  0.6220 -0.1102  0.3863
  578MOL0     C76216   1.142   9.196   3.646  0.1599  0.4808 -0.0747
  578MOL0     C76217   1.261   9.123   3.641 -0.4578  0.6912 -0.4199
  578MOL0     C76218   1.562   8.778   3.691  0.7308  0.5071  0.0574
  578MOL0     C76219   1.695   8.794   3.754  0.5275 -0.8546 -0.6985
  578MOL0     C76220   1.806   8.716   3.723  0.5188  0.3485  0.1280
  578MOL0     C76221   1.789   8.607   3.631 -0.5323 -0.4591 -0.3007
  578MOL0     O76222   1.884   8.511   3.600 -1.0488  0.0953 -0.5825
  578MOL0     C76223   1.994   8.482   3.686  0.5467 -0.8495  0.2454
  578MOL0     C76224   1.952   8.414   3.818  0.9994 -1.1602 -0.0273
  578MOL0     C76225   1.881   8.273   3.800  0.9789 -0.0622  1.1036
  578MOL0     C76226   1.789   8.216   3.909 -0.8675  1.1511 -0.5625
  578MOL0     C76227   1.736   8.085   3.876 -0.5575  0.4551  0.0884
  578MOL0     C76228   1.674   7.985   3.840  0.0947  0.2887  0.1190
  578MOL0     C76229   1.666   8.586   3.574  0.7872  0.3379  0.9820
  578MOL0     C76230   1.552   8.672   3.597 -0.4947 -1.1669 -0.0235
  578MOL0     H76231   1.141   8.800   3.705 -0.0409  1.0303  0.0458
  578MOL0     H76232   0.942   8.929   3.731  2.1421 -3.6979  1.2336
  578MOL0     H76233   0.819   9.097   3.834  0.6465  2.9716  1.2602
  578MOL0     H76234   0.763   9.082   3.660 -0.9978 -0.4808 -0.0444
  578MOL0     H76235   0.666   9.308   3.670  1.4358  0.9641  0.5986
  578MOL0     H76236   0.728   9.324   3.833  0.1168 -3.2772  4.1299
  578MOL0     H76237   0.562   9.150   3.914 -0.9188  1.2230  0.4511
  578MOL0     H76238   0.507   9.121   3.740  0.3955 -0.3723 -1.9300
  578MOL0     H76239   0.505   9.345   3.926  0.9314 -0.5319 -0.6812
  578MOL0     H76240   0.472   9.390   3.763 -0.5445  1.1365  0.9101
  578MOL0     H76241   0.313   9.186   3.918  1.0354 -1.7475 -2.1580
  578MOL0     H76242   0.263   9.250   3.761 -1.2443 -2.2397  1.1847
  578MOL0     H76243   0.209   9.475   3.863 -2.0416  1.9171  3.6996
  578MOL0     H76244   0.271   9.406   4.017  0.8324  0.8173 -0.6482
  578MOL0     H76245   0.038   9.305   3.836  2.3139  0.7498 -1.5452
  578MOL0     H76246   0.073   9.231   3.988 -1.3582 -0.0145 -1.3300
  578MOL0     H76247  -0.024   9.524   3.978  2.0297 -0.8816  0.6063
  578MOL0     H76248  -0.001   9.429   4.114 -1.4141  1.1114  1.2199
  578MOL0     H76249  -0.251   9.404   4.198  0.4613 -2.1286  0.3465
  578MOL0     H76250  -0.490   9.332   4.216 -0.1392 -0.4207  0.4943
  578MOL0     H76251  -0.552   9.221   4.085 -0.0083 -0.2338  0.8938
  578MOL0     H76252  -0.709   9.395   4.110 -1.1910  1.5372 -2.0566
  578MOL0     H76253  -0.635   9.396   3.950  2.7480  0.1534 -0.4532
  578MOL0     H76254  -0.536   9.567   4.169  3.1351  3.3767 -1.8777
  578MOL0     H76255  -0.478   9.567   4.002 -0.8128 -0.5082 -0.5822
  578MOL0     H76256  -0.727   9.615   3.930 -1.0109  3.0322 -0.1412
  578MOL0     H76257  -0.634   9.741   4.009  0.9293 -0.1382 -0.2137
  578MOL0     H76258  -0.801   9.855   3.937 -0.4174 -0.7542 -0.8231
  578MOL0     H76259  -0.968  10.036   3.952  3.6437  1.6000  0.2753
  578MOL0     H76260  -1.234  10.227   3.768  1.2916  0.3865  1.6170
  578MOL0     H76261  -1.460  10.303   3.677  2.9103  2.0688  0.3627
  578MOL0     H76262  -1.741  10.161   3.761 -1.4159  0.0482  2.4292
  578MOL0     H76263  -1.685  10.286   3.642  0.0079 -4.0362 -0.6934
  578MOL0     H76264  -1.947  10.290   3.656 -1.3906  1.5375  0.1682
  578MOL0     H76265  -1.881  10.439   3.727  0.1287  0.1784  0.1279
  578MOL0     H76266  -1.901  10.333   3.953 -1.0843 -0.8032  1.0777
  578MOL0     H76267  -1.984  10.201   3.859  0.7700  0.5263 -1.1350
  578MOL0     H76268  -2.048  10.510   3.876 -0.5673  0.4528  1.4537
  578MOL0     H76269  -2.141  10.396   3.796 -0.6619  0.7744  0.5087
  578MOL0     H76270  -2.088  10.423   4.097  1.3942  1.6333 -0.5719
  578MOL0     H76271  -2.189  10.296   4.038 -0.8782  0.3267 -1.9758
  578MOL0     H76272  -2.338  10.482   3.940 -1.2634 -0.9286  1.9820
  578MOL0     H76273  -2.230  10.601   3.996  2.2775 -1.0837 -1.6227
  578MOL0     H76274  -2.333  10.417   4.213 -0.2785 -0.1208  0.4935
  578MOL0     H76275  -2.293  10.582   4.225  3.6554  0.2594 -2.9257
  578MOL0     H76276  -2.551  10.526   4.222 -0.4921 -1.3161 -1.7938
  578MOL0     H76277  -2.528  10.451   4.076 -0.5804  0.5664 -1.1318
  578MOL0     H76278  -1.608  10.272   4.078  1.2633  2.7182  0.8144
  578MOL0     H76279  -1.404  10.188   4.150  1.1174  0.6065  0.0984
  578MOL0     H76280  -1.053   9.927   4.362 -0.1053  1.6296  0.3749
  578MOL0     H76281  -0.919   9.721   4.333 -0.2039  0.7311  1.0400
  578MOL0     H76282   1.148   9.303   3.633 -2.6815  0.6621 -0.5090
  578MOL0     H76283   1.341   9.185   3.601 -1.1220  1.7157 -0.2147
  578MOL0     H76284   1.690   8.879   3.822 -2.2196  0.7222 -2.6906
  578MOL0     H76285   1.891   8.718   3.791 -1.8462 -0.8416  3.4224
  578MOL0     H76286   2.043   8.576   3.713 -2.5896  1.3125 -0.9738
  578MOL0     H76287   2.054   8.404   3.638  0.6976 -1.1166  0.8615
  578MOL0     H76288   2.034   8.421   3.889 -0.4468  0.2845  1.5800
  578MOL0     H76289   1.872   8.468   3.870  2.0090 -0.3079  0.6834
  578MOL0     H76290   1.954   8.194   3.782  1.8677  0.3942  2.5885
  578MOL0     H76291   1.822   8.278   3.708 -0.9576  0.4921  2.3139
  578MOL0     H76292   1.854   8.181   3.990 -0.6248  0.2852 -1.1240
  578MOL0     H76293   1.708   8.286   3.934 -4.4191 -2.1152 -2.0144
  578MOL0     H76294   1.612   7.906   3.804  0.2480 -0.2809  1.0901
  578MOL0     H76295   1.656   8.506   3.502  1.7211 -1.8822  3.1800
  578MOL0     H76296   1.457   8.674   3.544  0.4431  2.1310 -1.8438
  579MOL0     O76297   3.261   7.135   6.994 -0.0058 -0.1945  0.1047
  579MOL0     C76298   3.329   7.037   6.959  0.3840  0.2329  0.0906
  579MOL0     O76299   3.429   6.977   7.033  0.2633  1.1440 -0.3959
  579MOL0     C76300   3.474   7.058   7.130 -0.8422 -0.0781  0.0770
  579MOL0     C76301   3.570   7.159   7.106 -0.4873 -0.2263  0.2021
  579MOL0     C76302   3.626   7.237   7.208 -0.7677  0.0761  0.5926
  579MOL0     C76303   3.594   7.208   7.339  1.0779  0.1254  0.1527
  579MOL0     O76304   3.629   7.293   7.437  0.6631  0.6399  0.0151
  579MOL0     C76305   3.772   7.308   7.447 -0.1576 -0.7770 -0.8929
  579MOL0     C76306   3.811   7.415   7.555 -0.0770 -0.4752 -0.5421
  579MOL0     C76307   3.813   7.356   7.697 -0.1247  0.9034 -0.2148
  579MOL0     C76308   3.924   7.249   7.727 -0.3708  0.9164 -0.1277
  579MOL0     C76309   4.054   7.265   7.652 -0.3684 -0.7324  0.2453
  579MOL0     C76310   4.173   7.183   7.699  0.2493  0.5462 -0.0540
  579MOL0     C76311   4.134   7.037   7.730 -0.1297 -0.5167  0.3153
  579MOL0     C76312   4.251   6.952   7.787  0.5224 -0.3857  1.0113
  579MOL0     N76313   4.237   6.802   7.798 -0.0200 -0.5259  0.3332
  579MOL0     C76314   4.211   6.754   7.916 -0.6046  0.6523  0.0094
  579MOL0     C76315   4.242   6.620   7.916  0.5380 -0.7787 -0.4813
  579MOL0     C76316   4.234   6.522   8.027  0.1252  0.8042  1.2278
  579MOL0     C76317   4.296   6.573   8.160  0.3209  0.2105  0.2862
  579MOL0     C76318   4.440   6.621   8.129 -0.1590 -0.8149  0.2022
  579MOL0     C76319   4.501   6.710   8.237 -0.5164  0.4274 -1.6108
  579MOL0     O76320   4.641   6.730   8.208  0.1162  0.4661  0.8769
  579MOL0     C76321   4.727   6.722   8.306  0.9143  0.1250 -0.0569
  579MOL0     C76322   4.745   6.828   8.402 -0.7183 -0.3961  0.1933
  579MOL0     C76323   4.842   6.817   8.506 -0.2395  0.8633 -0.3898
  579MOL0     C76324   4.919   6.701   8.509  0.1766  0.3019 -0.8542
  579MOL0     C76325   5.013   6.685   8.620  0.5078  0.0366 -0.4947
  579MOL0     O76326   5.018   6.779   8.711 -0.3591 -0.3723 -1.4717
  579MOL0     C76327   5.112   6.753   8.816  0.1634 -0.0905 -0.2382
  579MOL0     C76328   5.248   6.768   8.808  0.0937  0.1421 -0.2827
  579MOL0     C76329   5.337   6.729   8.917 -0.2235  0.1980 -0.6452
  579MOL0     C76330   5.289   6.700   9.047 -1.0218 -0.2570  0.6654
  579MOL0     O76331   5.376   6.694   9.154 -0.0159  0.0885 -1.0738
  579MOL0     C76332   5.315   6.726   9.287 -1.8844  0.4700  0.3708
  579MOL0     C76333   5.432   6.789   9.371 -0.1329 -0.5899  0.1050
  579MOL0     C76334   5.404   6.804   9.521 -0.1347 -0.5835  0.5471
  579MOL0     C76335   5.489   6.718   9.610 -1.6579  0.7378  0.0707
  579MOL0     C76336   5.439   6.717   9.758  1.2934  0.2924 -0.4982
  579MOL0     C76337   5.476   6.834   9.844 -0.4022 -0.0197 -1.2908
  579MOL0     C76338   5.378   6.844   9.975 -0.6360 -0.0106  0.4118
  579MOL0     C76339   5.454   6.828  10.107 -0.4193 -0.7890 -0.2424
  579MOL0    Cl76340   5.490   6.660  10.121  0.1013 -0.3000  0.0287
  579MOL0     C76341   5.151   6.691   9.060  0.0536  0.1832  0.3425
  579MOL0     C76342   5.068   6.719   8.945 -0.1789 -0.1833 -0.0528
  579MOL0     O76343   5.095   6.592   8.613  0.4885 -0.2112  0.4282
  579MOL0     C76344   4.900   6.594   8.416 -0.4532 -0.1410  0.8938
  579MOL0     C76345   4.809   6.610   8.313  0.3699  0.8753 -0.3872
  579MOL0     N76346   4.292   6.598   7.787  0.3653 -0.3922 -0.1136
  579MOL0     N76347   4.301   6.713   7.724  0.4687 -0.0349  0.2903
  579MOL0     C76348   3.504   7.106   7.372 -0.5164 -0.5000  0.6077
  579MOL0     C76349   3.438   7.037   7.264 -0.4339  0.9931 -0.2250
  579MOL0     C76350   3.308   6.988   6.821  0.0802  0.5587  0.8604
  579MOL0     C76351   3.214   7.060   6.735  0.0861  0.8703  0.1869
  579MOL0     C76352   3.167   7.003   6.618  0.3338 -0.2427 -0.3549
  579MOL0     C76353   3.218   6.885   6.566 -0.7408  0.1742 -0.4263
  579MOL0     O76354   3.177   6.839   6.444  0.2932 -0.2877  0.0163
  579MOL0     C76355   3.106   6.708   6.446 -0.5158 -0.8950  0.6183
  579MOL0     C76356   2.973   6.730   6.521  0.3951 -0.3424  0.0075
  579MOL0     C76357   2.867   6.620   6.476 -1.1188 -0.2319 -0.2405
  579MOL0     C76358   2.795   6.653   6.346  0.8828 -1.0312 -0.3521
  579MOL0     C76359   2.714   6.776   6.361  0.1010 -0.7154 -0.2683
  579MOL0     C76360   2.661   6.884   6.379 -0.8367  0.5389 -0.0187
  579MOL0     C76361   3.316   6.816   6.650 -0.5861 -0.3099 -0.2419
  579MOL0     C76362   3.358   6.864   6.775  0.3237 -0.0460  0.8384
  579MOL0     H76363   3.603   7.169   7.003 -2.4094 -1.5970 -0.6116
  579MOL0     H76364   3.699   7.317   7.201 -0.9762  0.1611 -0.7956
  579MOL0     H76365   3.809   7.354   7.355 -0.8191 -0.7893 -1.1686
  579MOL0     H76366   3.823   7.213   7.466  0.0900 -0.4382  0.1858
  579MOL0     H76367   3.744   7.501   7.552  1.8753  1.2871  1.6758
  579MOL0     H76368   3.910   7.451   7.526  1.0908 -1.7777  1.5555
  579MOL0     H76369   3.718   7.306   7.719  1.1961 -0.6169  2.7085
  579MOL0     H76370   3.825   7.437   7.769 -1.9807 -0.4009  1.7135
  579MOL0     H76371   3.938   7.251   7.835  0.1873 -0.3368 -0.1541
  579MOL0     H76372   3.882   7.150   7.706 -0.0681  1.0569 -1.5473
  579MOL0     H76373   4.086   7.369   7.650  0.1578 -0.9038 -0.6187
  579MOL0     H76374   4.033   7.243   7.547  1.1241 -1.2143  0.0332
  579MOL0     H76375   4.209   7.232   7.790  2.1343  1.1692 -1.0679
  579MOL0     H76376   4.265   7.181   7.639 -0.8036 -1.7485 -1.7547
  579MOL0     H76377   4.061   7.038   7.811  0.1327 -0.7590  0.5586
  579MOL0     H76378   4.092   6.988   7.641  2.6345  3.1916 -3.4941
  579MOL0     H76379   4.284   6.985   7.886  1.9158 -0.4442  0.5875
  579MOL0     H76380   4.333   6.962   7.716 -0.6239 -0.3767 -0.3570
  579MOL0     H76381   4.178   6.813   8.001  0.0352 -0.0561  0.7638
  579MOL0     H76382   4.284   6.430   7.995  0.5007  0.6124  2.2965
  579MOL0     H76383   4.126   6.506   8.032  0.1302 -2.8348 -3.4877
  579MOL0     H76384   4.301   6.497   8.239  1.2272  0.9370  0.9613
  579MOL0     H76385   4.235   6.655   8.200 -3.3250 -1.8834 -0.5798
  579MOL0     H76386   4.500   6.532   8.107  2.2056  0.6903  0.2201
  579MOL0     H76387   4.444   6.676   8.035  0.6413 -1.9415 -0.4513
  579MOL0     H76388   4.499   6.657   8.333 -2.5608  1.0881 -1.2424
  579MOL0     H76389   4.454   6.806   8.257 -1.2037 -0.4392  1.3537
  579MOL0     H76390   4.680   6.915   8.399 -0.7344 -0.3868  0.6667
  579MOL0     H76391   4.854   6.890   8.585  0.8261 -1.0067  1.2767
  579MOL0     H76392   5.297   6.814   8.723 -1.3649 -2.2095 -2.5695
  579MOL0     H76393   5.436   6.766   8.896 -0.0195  0.3873  0.5886
  579MOL0     H76394   5.268   6.640   9.337 -1.7110  1.3271  2.0819
  579MOL0     H76395   5.240   6.802   9.267 -2.0302 -0.3118 -2.5130
  579MOL0     H76396   5.444   6.885   9.321 -0.7875 -0.8537 -0.5675
  579MOL0     H76397   5.520   6.730   9.344  0.5496  1.1429 -1.7024
  579MOL0     H76398   5.299   6.787   9.546 -1.7858  2.8917 -2.9462
  579MOL0     H76399   5.425   6.906   9.554 -3.5552  0.1360  0.8569
  579MOL0     H76400   5.465   6.615   9.582 -2.1312  0.7296  0.4969
  579MOL0     H76401   5.596   6.733   9.592 -0.6890 -2.2984  2.3709
  579MOL0     H76402   5.479   6.633   9.815  0.4673  1.4272  1.8701
  579MOL0     H76403   5.330   6.705   9.759  1.4461 -1.3123  0.6936
  579MOL0     H76404   5.448   6.922   9.785 -2.3393 -1.4552 -2.6297
  579MOL0     H76405   5.580   6.840   9.878 -0.4818 -2.5177 -0.4036
  579MOL0     H76406   5.331   6.943   9.975 -3.4562 -1.2415 -0.0986
  579MOL0     H76407   5.289   6.781   9.968  0.7816 -2.1462  0.5286
  579MOL0     H76408   5.392   6.867  10.188 -0.3079 -1.0282 -0.0385
  579MOL0     H76409   5.542   6.893  10.115 -1.1921  0.1497  1.0063
  579MOL0     H76410   5.115   6.669   9.160  3.1125  0.0892  1.5192
  579MOL0     H76411   4.964   6.727   8.977  1.3379  1.4005  5.7605
  579MOL0     H76412   4.967   6.510   8.425  0.1807  0.4640  2.0586
  579MOL0     H76413   4.788   6.525   8.249 -2.5443  0.7530  0.5663
  579MOL0     H76414   3.475   7.076   7.472 -2.0864 -0.6976  0.1296
  579MOL0     H76415   3.381   6.949   7.290  0.6391  0.9772  2.3596
  579MOL0     H76416   3.169   7.152   6.772 -1.6910  0.0846  0.0809
  579MOL0     H76417   3.084   7.051   6.567  0.4330  1.4044  0.9138
  579MOL0     H76418   3.157   6.626   6.497 -2.8053 -1.4648  2.1452
  579MOL0     H76419   3.088   6.684   6.341 -3.0521  0.1536  0.7606
  579MOL0     H76420   2.990   6.718   6.628 -3.7121  0.3396  0.9311
  579MOL0     H76421   2.938   6.832   6.505  3.3681  0.6688 -0.6213
  579MOL0     H76422   2.791   6.599   6.551  0.5537 -0.4045  1.4823
  579MOL0     H76423   2.933   6.533   6.465 -0.8014 -0.1533  0.9383
  579MOL0     H76424   2.857   6.657   6.256  0.4947  1.2616 -0.5770
  579MOL0     H76425   2.713   6.581   6.340  0.4422 -0.4328 -3.5393
  579MOL0     H76426   2.621   6.984   6.389 -2.3105  0.1262 -1.2938
  579MOL0     H76427   3.366   6.724   6.621 -0.0250 -0.7499  1.8987
  579MOL0     H76428   3.422   6.800   6.836 -0.5131 -1.7831 -0.0422
  580MOL0     O76429   8.678  11.290   0.332  0.1030 -0.0595  0.4678
  580MOL0     C76430   8.785  11.342   0.322 -0.3007 -0.2758  0.3532
  580MOL0     O76431   8.910  11.287   0.310 -0.4713 -0.2457 -0.3493
  580MOL0     C76432   8.919  11.152   0.333  0.6706 -0.1220 -0.3565
  580MOL0     C76433   8.938  11.056   0.238  0.3074 -0.9077  0.0008
  580MOL0     C76434   8.984  10.932   0.276  0.0676 -0.6470 -0.2433
  580MOL0     C76435   8.981  10.879   0.407  0.8817 -0.7706  0.1028
  580MOL0     O76436   9.008  10.744   0.430 -0.7294  0.4565 -1.1672
  580MOL0     C76437   8.884  10.666   0.425 -1.0463 -0.3764  0.1159
  580MOL0     C76438   8.831  10.655   0.574  0.2415  0.0813 -0.1873
  580MOL0     C76439   8.681  10.629   0.586  0.0769  0.8798 -0.1336
  580MOL0     C76440   8.657  10.587   0.727 -0.3438 -0.8760  0.4428
  580MOL0     C76441   8.523  10.604   0.785 -0.0431  0.7841 -1.2989
  580MOL0     C76442   8.508  10.534   0.925  0.3735  0.1884  0.7494
  580MOL0     C76443   8.365  10.541   0.962  0.1224 -0.2166  0.1107
  580MOL0     C76444   8.353  10.496   1.107 -0.0406 -0.5147 -0.2456
  580MOL0     N76445   8.311  10.359   1.106  0.0718 -0.5337  1.0525
  580MOL0     C76446   8.182  10.315   1.080  0.1581  0.7343 -0.5584
  580MOL0     C76447   8.182  10.187   1.121  0.0678  0.0002 -0.7573
  580MOL0     C76448   8.063  10.090   1.133 -0.4606  0.0595  0.2995
  580MOL0     C76449   8.110   9.943   1.165  0.7009 -0.3625  0.1103
  580MOL0     C76450   8.141   9.912   1.308 -0.4943  0.6502 -0.9697
  580MOL0     C76451   8.014   9.902   1.395  0.2368 -0.6824 -0.0538
  580MOL0     O76452   7.914   9.798   1.345  0.6747  0.0647 -0.2180
  580MOL0     C76453   7.780   9.801   1.388 -0.2217 -0.8192 -0.0292
  580MOL0     C76454   7.694   9.709   1.333 -0.6136 -0.1914 -0.3042
  580MOL0     C76455   7.561   9.720   1.350 -0.1258  0.9288  0.0638
  580MOL0     C76456   7.502   9.835   1.400 -0.2242  0.0403 -0.1924
  580MOL0     C76457   7.356   9.854   1.404  0.0626  0.6043  0.4110
  580MOL0     O76458   7.287   9.800   1.295  0.0135 -0.3018  0.3233
  580MOL0     C76459   7.179   9.727   1.321  0.2712  0.5291 -0.6141
  580MOL0     C76460   7.185   9.593   1.348 -0.1611  0.5548  0.8895
  580MOL0     C76461   7.065   9.521   1.382 -0.7212 -0.4247 -0.2419
  580MOL0     C76462   6.943   9.589   1.382  0.3989 -0.5088  0.4673
  580MOL0     O76463   6.834   9.515   1.420  0.2336 -0.6237 -0.4418
  580MOL0     C76464   6.701   9.572   1.429  0.5355  0.0805  0.7184
  580MOL0     C76465   6.641   9.576   1.276  0.3123  0.6469  0.0052
  580MOL0     C76466   6.503   9.628   1.259 -1.1050  0.6377 -0.7952
  580MOL0     C76467   6.468   9.767   1.307  0.2646 -0.7066  0.3505
  580MOL0     C76468   6.330   9.808   1.256  0.0792 -0.5430  0.0834
  580MOL0     C76469   6.289   9.936   1.325 -0.2880  0.1839 -0.0910
  580MOL0     C76470   6.154   9.980   1.287  0.0449  0.0832 -0.1836
  580MOL0     C76471   6.095  10.072   1.390 -0.4935  0.2061 -1.2629
  580MOL0    Cl76472   6.206  10.214   1.401  0.6713  0.1312  0.5276
  580MOL0     C76473   6.945   9.726   1.354 -0.6410 -0.4825  0.2042
  580MOL0     C76474   7.060   9.789   1.328  0.7476  0.7758  0.3289
  580MOL0     O76475   7.305   9.918   1.495 -0.2585 -0.1610  0.0270
  580MOL0     C76476   7.588   9.928   1.464 -0.0902 -0.2075  0.1077
  580MOL0     C76477   7.727   9.913   1.455  0.8592  0.1157 -0.0172
  580MOL0     N76478   8.318  10.148   1.138 -0.1621  0.4891 -0.4937
  580MOL0     N76479   8.386  10.254   1.124  0.0252 -1.1151  0.2775
  580MOL0     C76480   8.939  10.974   0.497  0.1087 -0.1015  0.2275
  580MOL0     C76481   8.915  11.103   0.467 -0.1303 -0.4680 -0.1500
  580MOL0     C76482   8.772  11.490   0.310  0.0919  0.4485 -1.0870
  580MOL0     C76483   8.650  11.547   0.282  0.2062 -0.3581  0.2006
  580MOL0     C76484   8.640  11.681   0.258 -1.0301 -0.7092  0.4532
  580MOL0     C76485   8.751  11.772   0.274 -0.0807 -0.5090 -0.0242
  580MOL0     O76486   8.712  11.903   0.250  0.1280 -0.3052 -0.2505
  580MOL0     C76487   8.820  11.995   0.259 -0.3152 -1.1279 -0.5779
  580MOL0     C76488   8.780  12.138   0.282  0.1196 -0.0697  0.9477
  580MOL0     C76489   8.768  12.221   0.144  0.6021  0.2797 -0.1815
  580MOL0     C76490   8.629  12.184   0.077  0.3970 -1.3609 -1.0489
  580MOL0     C76491   8.518  12.253   0.143  0.5271  0.3191  0.3490
  580MOL0     C76492   8.422  12.316   0.184 -0.8554  0.5257 -0.9029
  580MOL0     C76493   8.871  11.720   0.318  0.0704 -0.2750 -0.0219
  580MOL0     C76494   8.880  11.576   0.322 -0.2851 -0.9976  0.4757
  580MOL0     H76495   8.930  11.088   0.135 -1.4873  0.5546  0.5425
  580MOL0     H76496   9.002  10.873   0.187 -0.3990 -0.1735 -0.6650
  580MOL0     H76497   8.920  10.572   0.384  0.2783 -0.4124  1.2626
  580MOL0     H76498   8.814  10.717   0.358 -0.8775  4.0126  2.8610
  580MOL0     H76499   8.845  10.748   0.630  1.7164 -0.7330  0.9105
  580MOL0     H76500   8.901  10.584   0.620  1.7148  0.2426 -2.0517
  580MOL0     H76501   8.636  10.558   0.515  0.9678  0.1149  0.0446
  580MOL0     H76502   8.627  10.721   0.565  2.1626  1.8295 -1.7218
  580MOL0     H76503   8.680  10.482   0.745  0.5322 -1.2261 -2.2362
  580MOL0     H76504   8.718  10.655   0.788 -0.4575  0.3004 -0.7073
  580MOL0     H76505   8.452  10.557   0.717  0.1321 -1.6290  0.0903
  580MOL0     H76506   8.507  10.711   0.801 -2.7180  0.3221 -0.4296
  580MOL0     H76507   8.580  10.589   0.986  1.8124  2.2563 -2.4957
  580MOL0     H76508   8.537  10.429   0.919 -2.1181 -0.6782  2.4233
  580MOL0     H76509   8.327  10.643   0.946 -1.1978 -0.3576  1.9495
  580MOL0     H76510   8.298  10.487   0.895 -0.7685 -2.9990  3.0305
  580MOL0     H76511   8.285  10.568   1.152  1.4281  1.6424 -1.3023
  580MOL0     H76512   8.439  10.510   1.173 -1.8871  0.1372  2.1600
  580MOL0     H76513   8.086  10.364   1.067 -0.6279  1.1778  4.6810
  580MOL0     H76514   8.004  10.099   1.042 -0.4982  1.1534  0.4199
  580MOL0     H76515   8.001  10.127   1.215 -0.9285  1.8526 -0.8130
  580MOL0     H76516   8.190   9.912   1.098 -0.5419 -2.5521 -0.4759
  580MOL0     H76517   8.029   9.873   1.140  2.1726 -2.5615  1.1604
  580MOL0     H76518   8.187   9.813   1.306 -0.0730  0.6835  2.0747
  580MOL0     H76519   8.211   9.986   1.350 -1.0591  0.0601  1.1373
  580MOL0     H76520   7.971  10.002   1.401  1.4080 -0.2109  1.0381
  580MOL0     H76521   8.032   9.873   1.499  2.1885  0.4789 -0.0200
  580MOL0     H76522   7.739   9.627   1.278 -0.8551  0.7203 -1.9171
  580MOL0     H76523   7.504   9.642   1.302 -1.7559  2.0560  0.0682
  580MOL0     H76524   7.282   9.545   1.353  0.2264  1.2624  0.2429
  580MOL0     H76525   7.088   9.421   1.415 -0.7053 -0.7355 -1.1583
  580MOL0     H76526   6.697   9.667   1.483  0.5303  0.8769 -0.6116
  580MOL0     H76527   6.635   9.498   1.475  1.3747 -0.9733  0.2727
  580MOL0     H76528   6.648   9.474   1.237 -0.7164  0.4077  0.4081
  580MOL0     H76529   6.699   9.648   1.217 -1.2735  1.1760 -0.9669
  580MOL0     H76530   6.437   9.557   1.311  1.1395 -2.1038 -1.4151
  580MOL0     H76531   6.491   9.621   1.150  1.0779  1.2771 -1.1110
  580MOL0     H76532   6.465   9.767   1.416 -0.3950 -2.6317  0.3629
  580MOL0     H76533   6.550   9.838   1.286  2.3057 -2.4031  2.0820
  580MOL0     H76534   6.256   9.739   1.298 -0.6748  1.8861  3.2206
  580MOL0     H76535   6.312   9.815   1.149  0.2003 -0.3025  0.0766
  580MOL0     H76536   6.364  10.009   1.295  1.0299 -1.3446 -0.6854
  580MOL0     H76537   6.295   9.946   1.433 -0.0076  1.6888 -0.2212
  580MOL0     H76538   6.156  10.043   1.198 -2.5862  3.2355  1.7830
  580MOL0     H76539   6.089   9.893   1.276 -1.1511  0.8689  0.5177
  580MOL0     H76540   6.103  10.019   1.485  1.0030  3.3702  0.5221
  580MOL0     H76541   5.995  10.110   1.366 -0.0232 -0.5209 -4.9986
  580MOL0     H76542   6.848   9.771   1.374 -0.6877 -0.4576 -0.0799
  580MOL0     H76543   7.047   9.897   1.318 -2.0816  0.3414 -2.3618
  580MOL0     H76544   7.532  10.017   1.491  4.3629  3.4196 -1.4538
  580MOL0     H76545   7.787   9.994   1.496 -0.7216  0.8445  0.9564
  580MOL0     H76546   8.917  10.947   0.600 -1.1422 -0.4937 -0.1249
  580MOL0     H76547   8.904  11.182   0.540  4.1954  2.9163 -2.6086
  580MOL0     H76548   8.558  11.490   0.271 -0.1190  0.3354 -0.8245
  580MOL0     H76549   8.540  11.720   0.247 -0.7782 -0.3069 -0.5729
  580MOL0     H76550   8.889  11.984   0.175  0.7028  2.4366 -0.3516
  580MOL0     H76551   8.877  11.967   0.348 -1.1737  0.3388  0.4649
  580MOL0     H76552   8.688  12.156   0.337 -0.4556  1.6794 -0.4668
  580MOL0     H76553   8.858  12.187   0.341 -0.5941 -0.2316  2.0598
  580MOL0     H76554   8.847  12.193   0.073  1.0290 -1.7809  1.0144
  580MOL0     H76555   8.776  12.327   0.168  2.2163 -0.1450  1.3968
  580MOL0     H76556   8.621  12.215  -0.027 -0.4359  0.8558 -0.3784
  580MOL0     H76557   8.623  12.075   0.087 -1.6679 -1.2823 -1.0412
  580MOL0     H76558   8.335  12.370   0.216 -1.5886 -1.3911  0.5543
  580MOL0     H76559   8.961  11.775   0.345 -0.8976  0.2441  2.3983
  580MOL0     H76560   8.977  11.531   0.338 -0.1899 -0.5125  1.3374
  581MOL0     O76561   8.512   6.335   7.576  0.4163 -0.3049 -1.2470
  581MOL0     C76562   8.533   6.293   7.463 -0.0317  0.3933 -0.4882
  581MOL0     O76563   8.642   6.221   7.415 -0.8634  0.0116  0.5857
  581MOL0     C76564   8.754   6.213   7.492 -0.4972 -0.2888  0.1910
  581MOL0     C76565   8.823   6.088   7.480  0.0325 -0.1016  1.4119
  581MOL0     C76566   8.953   6.073   7.530 -0.6529 -1.2477 -0.9395
  581MOL0     C76567   9.019   6.177   7.604  0.5918 -0.2703  0.0223
  581MOL0     O76568   9.144   6.165   7.652 -0.1252 -0.2990  0.8756
  581MOL0     C76569   9.220   6.045   7.612  0.5325 -0.2829 -0.9611
  581MOL0     C76570   9.363   6.060   7.661 -0.3508  0.2092 -0.7805
  581MOL0     C76571   9.383   6.036   7.808 -0.2551 -0.1491  0.7236
  581MOL0     C76572   9.525   6.044   7.856 -0.2585  0.2243 -0.4017
  581MOL0     C76573   9.544   6.023   8.010 -0.3159 -0.6191  0.0959
  581MOL0     C76574   9.677   6.075   8.057 -0.2803 -0.1772  0.0198
  581MOL0     C76575   9.796   5.983   8.044 -0.2693  0.0615  0.4957
  581MOL0     C76576   9.927   6.042   8.084  0.1435 -0.3742 -0.2481
  581MOL0     N76577  10.028   5.939   8.070 -0.0680  0.8311 -0.3880
  581MOL0     C76578  10.131   5.952   7.980 -0.9604  0.0288 -0.0147
  581MOL0     C76579  10.177   5.824   7.989 -0.0946  0.3770 -0.6211
  581MOL0     C76580  10.286   5.782   7.894  0.2266  0.0715 -0.4433
  581MOL0     C76581  10.407   5.707   7.961  1.1279 -0.5160 -0.3031
  581MOL0     C76582  10.506   5.646   7.871  0.5494 -0.2559  0.4467
  581MOL0     C76583  10.613   5.574   7.965  0.0399 -0.0266  0.9338
  581MOL0     O76584  10.704   5.498   7.883 -0.3455  0.0642  0.1272
  581MOL0     C76585  10.825   5.551   7.849 -0.3187  0.9108 -0.6570
  581MOL0     C76586  10.894   5.456   7.773  0.2537 -0.2699  0.2782
  581MOL0     C76587  11.030   5.476   7.739 -0.1588  0.5402 -0.2624
  581MOL0     C76588  11.097   5.583   7.797  0.1020  0.6101  0.6031
  581MOL0     C76589  11.241   5.597   7.774 -0.2239 -0.2822  0.4306
  581MOL0     O76590  11.307   5.502   7.704 -1.1678  0.4677  0.3477
  581MOL0     C76591  11.446   5.503   7.680 -0.0873  0.3669 -0.7773
  581MOL0     C76592  11.485   5.482   7.544 -0.8257  0.0373  0.0817
  581MOL0     C76593  11.623   5.490   7.502  0.1840 -0.8809 -0.2315
  581MOL0     C76594  11.719   5.499   7.602  0.0858 -0.3307  0.5503
  581MOL0     O76595  11.862   5.502   7.579  0.7743 -0.3646  0.0019
  581MOL0     C76596  11.911   5.452   7.451 -0.0671  0.2379 -0.6244
  581MOL0     C76597  12.045   5.403   7.490  0.0099  0.2911  0.6464
  581MOL0     C76598  12.144   5.525   7.531  1.4210  0.5305  0.5872
  581MOL0     C76599  12.276   5.453   7.578  1.1581  0.5997  0.3025
  581MOL0     C76600  12.360   5.542   7.663  0.4745 -0.5594  0.0077
  581MOL0     C76601  12.421   5.658   7.580 -0.3391  0.2866  0.7236
  581MOL0     C76602  12.534   5.738   7.652 -0.1965  0.8209  1.0187
  581MOL0     C76603  12.532   5.882   7.591 -0.9832  1.1685  0.4264
  581MOL0    Cl76604  12.696   5.948   7.607 -0.0625 -0.2831  0.0216
  581MOL0     C76605  11.679   5.517   7.735 -0.6858 -0.1365  0.0587
  581MOL0     C76606  11.547   5.522   7.781  0.3788 -0.3862 -0.0182
  581MOL0     O76607  11.297   5.686   7.841  0.0747  0.1084  0.2300
  581MOL0     C76608  11.018   5.684   7.860  1.0465 -0.7583  1.1571
  581MOL0     C76609  10.884   5.669   7.890 -0.2328 -0.2965  0.0875
  581MOL0     N76610  10.103   5.740   8.071  0.0476 -1.0550  0.0330
  581MOL0     N76611  10.023   5.818   8.134  0.1620  0.0827 -0.0470
  581MOL0     C76612   8.937   6.292   7.628  0.0669 -0.3972  0.4449
  581MOL0     C76613   8.809   6.315   7.569 -0.5123 -0.1820 -0.0502
  581MOL0     C76614   8.421   6.307   7.378  0.4811 -1.1918  0.7201
  581MOL0     C76615   8.391   6.209   7.284 -0.1998 -0.3492  0.7282
  581MOL0     C76616   8.279   6.217   7.192 -0.1341 -1.3408 -0.0585
  581MOL0     C76617   8.200   6.325   7.193  0.3038 -0.6413 -0.6874
  581MOL0     O76618   8.100   6.332   7.097  0.5304 -0.6171 -0.8348
  581MOL0     C76619   7.992   6.417   7.119 -0.9582  0.3902 -0.2545
  581MOL0     C76620   7.899   6.396   7.006  0.2776 -0.2688  0.0779
  581MOL0     C76621   7.782   6.501   7.016 -0.7435  0.2069  0.0821
  581MOL0     C76622   7.688   6.525   6.888  0.0582 -0.6145  0.0119
  581MOL0     C76623   7.624   6.393   6.846  0.0556  0.3472  0.4853
  581MOL0     C76624   7.564   6.289   6.814 -0.7810 -0.7001 -0.6043
  581MOL0     C76625   8.224   6.427   7.285  0.0195  0.7780  0.6909
  581MOL0     C76626   8.329   6.411   7.381 -0.1700 -0.0464  0.2173
  581MOL0     H76627   8.782   6.012   7.414 -0.3608  0.2106  1.3002
  581MOL0     H76628   8.982   5.969   7.522 -3.1984 -2.0937 -0.1628
  581MOL0     H76629   9.232   6.031   7.504 -0.6504  1.0335 -1.2836
  581MOL0     H76630   9.186   5.956   7.666  0.8866  2.4435  4.4343
  581MOL0     H76631   9.405   6.152   7.619  1.8497 -0.2640  0.2349
  581MOL0     H76632   9.436   5.989   7.621  0.1463  0.9280 -1.1583
  581MOL0     H76633   9.325   5.951   7.845 -0.1207  1.0402  4.0110
  581MOL0     H76634   9.336   6.126   7.851 -1.6294 -0.4804 -0.0270
  581MOL0     H76635   9.577   5.970   7.794  2.2398  3.6909 -2.8637
  581MOL0     H76636   9.564   6.142   7.825 -0.4172  1.2779  2.4503
  581MOL0     H76637   9.555   5.916   8.030  0.0235 -0.7631 -0.8620
  581MOL0     H76638   9.460   6.063   8.069  0.4232 -1.4478  1.7981
  581MOL0     H76639   9.666   6.105   8.162 -0.4892  0.0012 -0.0557
  581MOL0     H76640   9.701   6.164   7.998 -1.7763  0.2603  0.0538
  581MOL0     H76641   9.784   5.895   8.108  2.7466 -1.5567 -0.9763
  581MOL0     H76642   9.810   5.942   7.944  2.3479  1.2553  0.3042
  581MOL0     H76643   9.921   6.074   8.189  3.7962  3.2037 -0.8876
  581MOL0     H76644   9.947   6.132   8.026  2.0406 -0.2613  0.5166
  581MOL0     H76645  10.158   6.034   7.914  1.2331 -0.8760 -0.3136
  581MOL0     H76646  10.328   5.866   7.837  2.1992 -0.0025  0.7899
  581MOL0     H76647  10.242   5.708   7.827  0.5033 -0.4868 -0.0157
  581MOL0     H76648  10.367   5.627   8.025  0.7873 -0.0854  0.0348
  581MOL0     H76649  10.461   5.778   8.024 -2.7988 -0.5125  3.5896
  581MOL0     H76650  10.449   5.570   7.817 -0.6600  0.2529  0.9657
  581MOL0     H76651  10.555   5.710   7.797  2.8117 -2.4282 -0.0556
  581MOL0     H76652  10.557   5.506   8.030  1.0194 -2.8749 -0.9796
  581MOL0     H76653  10.661   5.644   8.034 -3.1440  0.2666  3.0199
  581MOL0     H76654  10.839   5.369   7.739  0.3421 -0.9198  1.7398
  581MOL0     H76655  11.072   5.399   7.676  1.7409  2.6320 -1.7352
  581MOL0     H76656  11.410   5.470   7.466  1.3790  0.1654 -2.1939
  581MOL0     H76657  11.652   5.487   7.397  0.4412 -0.2175 -0.1791
  581MOL0     H76658  11.916   5.530   7.374  2.2212  2.8707  1.9703
  581MOL0     H76659  11.848   5.373   7.410 -0.5049  0.0073  0.4730
  581MOL0     H76660  12.088   5.346   7.406 -1.9393  2.8288 -2.3174
  581MOL0     H76661  12.037   5.340   7.579 -0.2336  0.3913  0.6947
  581MOL0     H76662  12.096   5.590   7.604 -1.8396 -1.4470  0.3746
  581MOL0     H76663  12.141   5.590   7.443  0.9247 -0.4116 -0.1098
  581MOL0     H76664  12.238   5.368   7.636 -1.3187 -0.0437 -2.0250
  581MOL0     H76665  12.339   5.423   7.494  0.3035  1.0278 -0.5146
  581MOL0     H76666  12.439   5.497   7.724 -2.4131  0.0088  4.6458
  581MOL0     H76667  12.295   5.581   7.742  1.4954 -0.2766  0.7428
  581MOL0     H76668  12.344   5.722   7.537 -0.3223 -1.3012 -1.9144
  581MOL0     H76669  12.461   5.610   7.490 -1.3220  0.9116 -0.0638
  581MOL0     H76670  12.526   5.735   7.761 -1.1240 -0.7706  0.9398
  581MOL0     H76671  12.630   5.687   7.638 -2.9151 -5.0067  0.5695
  581MOL0     H76672  12.459   5.943   7.645 -0.5138  1.0040  1.2541
  581MOL0     H76673  12.504   5.868   7.486 -1.1263 -1.0546  0.7069
  581MOL0     H76674  11.763   5.511   7.805  3.2164  0.1234 -4.1604
  581MOL0     H76675  11.524   5.536   7.886 -3.5715 -0.1476 -0.7535
  581MOL0     H76676  11.075   5.771   7.892  1.5236 -0.4508 -0.4164
  581MOL0     H76677  10.830   5.749   7.939  0.4063 -0.7865  1.6554
  581MOL0     H76678   8.972   6.367   7.697  0.1176 -1.0268  1.1183
  581MOL0     H76679   8.774   6.414   7.597 -1.0455  0.2429 -2.0753
  581MOL0     H76680   8.440   6.112   7.287  0.1390 -0.1601  1.6048
  581MOL0     H76681   8.260   6.135   7.124 -2.5394 -0.0512 -1.0687
  581MOL0     H76682   8.026   6.521   7.122  4.1156 -1.0239  0.1741
  581MOL0     H76683   7.945   6.392   7.215 -2.8424 -1.6233 -1.6027
  581MOL0     H76684   7.961   6.432   6.923 -1.4221  1.0790 -0.6727
  581MOL0     H76685   7.863   6.297   6.976 -3.3989  0.9363  0.0315
  581MOL0     H76686   7.819   6.602   7.032 -2.8488  0.6308  3.1792
  581MOL0     H76687   7.724   6.476   7.106  0.7505 -0.7301  0.8254
  581MOL0     H76688   7.616   6.606   6.898  1.6338  0.9381 -0.7539
  581MOL0     H76689   7.760   6.540   6.807  3.7340 -3.9761  2.2763
  581MOL0     H76690   7.529   6.190   6.789 -0.3914 -0.9247 -0.2794
  581MOL0     H76691   8.155   6.510   7.289  0.1173  1.4195 -4.5929
  581MOL0     H76692   8.349   6.480   7.463  2.4209 -0.7577  0.2891
  582MOL0     O76693   8.481   2.549   3.613 -0.6235 -0.1743 -0.0365
  582MOL0     C76694   8.596   2.583   3.588 -1.2298 -0.1468  0.2634
  582MOL0     O76695   8.632   2.691   3.510  0.1754 -0.3181 -0.3346
  582MOL0     C76696   8.536   2.766   3.450  0.2712 -0.4526 -0.2278
  582MOL0     C76697   8.504   2.762   3.311  0.5890  0.7110  0.2261
  582MOL0     C76698   8.418   2.851   3.260 -0.0813 -0.4043  0.5964
  582MOL0     C76699   8.351   2.948   3.339  0.0419  0.2402  0.8335
  582MOL0     O76700   8.260   3.028   3.289 -0.4974 -0.5293 -0.1016
  582MOL0     C76701   8.132   3.015   3.345 -0.4267 -0.4516 -0.4577
  582MOL0     C76702   8.015   3.059   3.260  0.4072  0.0427 -0.4628
  582MOL0     C76703   8.033   3.203   3.199  0.1992  0.2866  0.0896
  582MOL0     C76704   7.919   3.223   3.100  0.3842  0.4956  0.7850
  582MOL0     C76705   7.909   3.372   3.040 -0.6805  0.6476  0.6576
  582MOL0     C76706   7.795   3.381   2.940  0.7373 -0.5416 -0.4752
  582MOL0     C76707   7.800   3.520   2.878 -0.1329  0.4155 -0.1549
  582MOL0     C76708   7.693   3.539   2.765  0.3773 -1.0201  0.3948
  582MOL0     N76709   7.658   3.418   2.683 -0.2700 -0.5157  0.3180
  582MOL0     C76710   7.528   3.358   2.669  0.5709 -0.4996 -0.5215
  582MOL0     C76711   7.538   3.259   2.589 -0.7507  0.0309  0.1295
  582MOL0     C76712   7.425   3.168   2.551 -1.2721 -0.6030  1.0455
  582MOL0     C76713   7.327   3.244   2.447 -0.1973  0.3056  0.2281
  582MOL0     C76714   7.218   3.155   2.397  0.1392  0.9257 -0.6860
  582MOL0     C76715   7.254   3.053   2.286 -0.1792 -0.1844  0.8119
  582MOL0     O76716   7.137   2.971   2.261  0.9046 -0.6380  0.0040
  582MOL0     C76717   7.031   3.016   2.180  0.2050 -0.3164  0.0299
  582MOL0     C76718   6.928   2.927   2.155 -0.3349  0.2132  0.7540
  582MOL0     C76719   6.822   2.950   2.070 -0.4588  0.1478 -0.0238
  582MOL0     C76720   6.810   3.075   2.009 -0.3955  0.6446  0.7876
  582MOL0     C76721   6.700   3.102   1.904 -0.8951  0.1243 -0.0625
  582MOL0     O76722   6.594   3.026   1.922  0.0697  0.1807 -0.5319
  582MOL0     C76723   6.482   3.054   1.846 -0.2917  0.0096 -0.3991
  582MOL0     C76724   6.359   3.093   1.900 -0.3074 -0.4785 -0.9898
  582MOL0     C76725   6.246   3.083   1.824 -0.4289  0.0497  0.3274
  582MOL0     C76726   6.242   3.058   1.686 -0.5946  0.6796 -0.5222
  582MOL0     O76727   6.124   3.053   1.616  0.6391  0.6979 -0.7377
  582MOL0     C76728   6.018   3.122   1.679 -0.5614 -0.3735  0.4134
  582MOL0     C76729   5.898   3.151   1.586 -0.5329  0.0225  0.3904
  582MOL0     C76730   5.793   3.244   1.651  0.3461 -0.0912 -0.0784
  582MOL0     C76731   5.695   3.305   1.549  0.1062  0.1363 -0.1999
  582MOL0     C76732   5.714   3.447   1.503  0.0554 -0.0686  0.0084
  582MOL0     C76733   5.754   3.472   1.352  0.0561  0.1702 -0.1275
  582MOL0     C76734   5.743   3.616   1.326 -0.2415 -0.0604 -0.1958
  582MOL0     C76735   5.780   3.648   1.173 -0.1227  1.1698 -1.4594
  582MOL0    Cl76736   5.684   3.576   1.045 -0.2264 -0.7219 -0.5870
  582MOL0     C76737   6.367   3.025   1.630 -0.0140 -0.3261  0.0913
  582MOL0     C76738   6.494   3.024   1.704  0.3076 -0.0239 -0.1739
  582MOL0     O76739   6.713   3.197   1.826  0.0951 -0.2087 -0.4678
  582MOL0     C76740   6.913   3.170   2.036  0.8815  0.8214 -0.2056
  582MOL0     C76741   7.014   3.147   2.130  0.8537 -0.2435 -0.1927
  582MOL0     N76742   7.666   3.250   2.550 -0.3479  0.1881  0.1050
  582MOL0     N76743   7.740   3.342   2.609 -0.1643  0.5358 -0.3543
  582MOL0     C76744   8.374   2.947   3.475  0.1259 -0.1434  0.1237
  582MOL0     C76745   8.455   2.854   3.534 -0.4652  0.0839  0.6142
  582MOL0     C76746   8.703   2.513   3.663 -0.7861  0.6086 -0.1996
  582MOL0     C76747   8.832   2.573   3.673 -0.5840 -0.5769 -0.4727
  582MOL0     C76748   8.933   2.499   3.737  0.1631 -0.0611  0.1491
  582MOL0     C76749   8.909   2.384   3.811  0.3785 -0.0906  0.4992
  582MOL0     O76750   9.019   2.321   3.876 -0.0437 -0.6870 -0.3753
  582MOL0     C76751   8.988   2.209   3.962  0.5401  0.2333  0.1914
  582MOL0     C76752   9.116   2.154   4.022  0.5880 -0.8479 -0.6601
  582MOL0     C76753   9.098   2.093   4.156 -0.2222  0.4838 -0.2058
  582MOL0     C76754   9.099   2.188   4.283 -0.4308  0.6601  0.2505
  582MOL0     C76755   9.232   2.230   4.321  0.2967 -0.1855 -1.3164
  582MOL0     C76756   9.345   2.272   4.356  0.5937 -0.1060 -1.2930
  582MOL0     C76757   8.778   2.328   3.810 -0.1785 -0.0170  0.7394
  582MOL0     C76758   8.687   2.401   3.735 -0.3529  0.9918  0.5284
  582MOL0     H76759   8.557   2.681   3.264 -3.3027 -1.2877 -1.2219
  582MOL0     H76760   8.390   2.842   3.156 -0.4904 -3.3730  0.8579
  582MOL0     H76761   8.133   3.072   3.439 -0.0235 -0.4482 -0.4610
  582MOL0     H76762   8.113   2.911   3.372 -0.9286  0.1664  1.7719
  582MOL0     H76763   7.932   3.058   3.332 -0.5101  3.4657 -1.3244
  582MOL0     H76764   7.989   2.986   3.183  2.0072  0.1221 -1.1186
  582MOL0     H76765   8.131   3.215   3.153  0.6594  0.1362  1.0073
  582MOL0     H76766   8.021   3.286   3.269  1.2676  0.6128 -0.0976
  582MOL0     H76767   7.928   3.158   3.012  2.8247  2.3902 -0.4849
  582MOL0     H76768   7.825   3.192   3.145 -0.6166 -1.0486 -2.1192
  582MOL0     H76769   7.999   3.376   2.978 -2.1433 -0.2410 -1.6384
  582MOL0     H76770   7.890   3.437   3.126  0.1944  0.4518  1.0105
  582MOL0     H76771   7.702   3.375   2.997  1.6981 -0.2296  1.1682
  582MOL0     H76772   7.798   3.307   2.859 -2.8037  0.6483 -1.8867
  582MOL0     H76773   7.784   3.603   2.948  3.7222  0.4067  0.9365
  582MOL0     H76774   7.894   3.536   2.825 -1.2622 -0.6960 -2.6965
  582MOL0     H76775   7.747   3.605   2.696  1.6525 -3.0943 -0.7028
  582MOL0     H76776   7.602   3.577   2.813  0.4334  0.1571 -0.3976
  582MOL0     H76777   7.445   3.406   2.720  1.2515  1.8824 -1.5483
  582MOL0     H76778   7.371   3.138   2.641 -1.5928 -1.2996  0.6347
  582MOL0     H76779   7.473   3.086   2.497 -0.8666  1.5131 -2.1368
  582MOL0     H76780   7.380   3.298   2.368 -0.3656  1.4126  0.8392
  582MOL0     H76781   7.277   3.322   2.507  3.3091  2.5405  0.5520
  582MOL0     H76782   7.193   3.099   2.488  2.0661  2.1731  0.6806
  582MOL0     H76783   7.127   3.207   2.367 -0.3351 -0.0749 -1.0332
  582MOL0     H76784   7.334   2.992   2.328  0.6162  1.0847  1.2148
  582MOL0     H76785   7.291   3.104   2.196 -0.3893 -1.3305  0.0663
  582MOL0     H76786   6.930   2.830   2.204 -0.3395 -0.1888 -0.0310
  582MOL0     H76787   6.750   2.870   2.053  1.0131 -1.1927 -0.1388
  582MOL0     H76788   6.344   3.125   2.002  1.2137 -0.0359 -0.8670
  582MOL0     H76789   6.152   3.087   1.878 -2.1312 -1.3802 -2.3042
  582MOL0     H76790   6.047   3.217   1.724  1.9894 -1.2967  0.8372
  582MOL0     H76791   5.979   3.063   1.762 -1.6898 -0.4809 -0.1674
  582MOL0     H76792   5.846   3.066   1.541  0.8370  0.5697 -2.4593
  582MOL0     H76793   5.941   3.206   1.501 -1.3423  3.4436  2.0111
  582MOL0     H76794   5.836   3.322   1.714  1.2168  3.2609 -4.4051
  582MOL0     H76795   5.738   3.176   1.717  3.4873 -1.7903  0.9745
  582MOL0     H76796   5.673   3.233   1.470  3.4121 -1.4364  0.1085
  582MOL0     H76797   5.599   3.314   1.600 -1.1271 -0.2093 -2.3470
  582MOL0     H76798   5.783   3.504   1.567  2.2381 -0.0684 -2.1782
  582MOL0     H76799   5.613   3.487   1.518  0.0775 -0.4848  1.4052
  582MOL0     H76800   5.682   3.415   1.293 -2.0105  1.3139  1.1487
  582MOL0     H76801   5.856   3.444   1.327  0.4675  0.1809  1.4292
  582MOL0     H76802   5.643   3.644   1.360  0.7768 -0.1930  3.3101
  582MOL0     H76803   5.810   3.667   1.396 -0.0282 -1.8520  0.9823
  582MOL0     H76804   5.880   3.608   1.161  0.3462  1.7099  0.2821
  582MOL0     H76805   5.774   3.757   1.175 -3.4658  1.0948 -1.3099
  582MOL0     H76806   6.356   2.979   1.532  2.1124 -0.9454  0.1099
  582MOL0     H76807   6.585   2.999   1.650 -0.0976 -0.8781 -0.4860
  582MOL0     H76808   6.907   3.268   1.989  2.6120  0.4978 -1.1605
  582MOL0     H76809   7.078   3.234   2.147 -0.4169  0.9081 -1.0923
  582MOL0     H76810   8.327   3.018   3.543 -2.4498 -0.3318 -1.3412
  582MOL0     H76811   8.471   2.860   3.641 -0.6723  2.8772  0.5664
  582MOL0     H76812   8.853   2.660   3.612  1.7111  0.6714  1.9048
  582MOL0     H76813   9.034   2.538   3.725 -0.5480  1.4948 -1.2558
  582MOL0     H76814   8.943   2.120   3.917  2.2186  1.1094 -3.5975
  582MOL0     H76815   8.932   2.242   4.049  4.1390  0.5096  2.6112
  582MOL0     H76816   9.145   2.079   3.949 -0.0268  0.6964 -2.5847
  582MOL0     H76817   9.200   2.225   4.028 -2.1272  2.5170  2.7716
  582MOL0     H76818   9.182   2.024   4.171  1.3848  1.7919 -2.6007
  582MOL0     H76819   9.006   2.034   4.160  0.5650 -0.8244 -0.8869
  582MOL0     H76820   9.040   2.276   4.256 -1.8774 -0.1429  0.6705
  582MOL0     H76821   9.048   2.133   4.362  0.8577 -0.1448  0.5424
  582MOL0     H76822   9.442   2.313   4.373 -0.1867  0.4026  3.3160
  582MOL0     H76823   8.751   2.238   3.864  2.4437 -2.2824 -1.3942
  582MOL0     H76824   8.585   2.364   3.744  0.7109 -1.8802  2.0372
  583MOL0     O76825  10.297   1.882   7.965 -0.1663 -0.6978  0.0533
  583MOL0     C76826  10.330   1.763   7.980 -0.2983  0.2431  0.4568
  583MOL0     O76827  10.321   1.694   8.101  0.7800  0.4993 -0.1537
  583MOL0     C76828  10.273   1.753   8.210 -0.4925  0.5785 -0.8251
  583MOL0     C76829  10.345   1.725   8.325 -0.1479 -0.3717  0.0167
  583MOL0     C76830  10.299   1.784   8.448  0.4540  0.5729 -0.2438
  583MOL0     C76831  10.179   1.849   8.451 -0.3055 -0.2920  0.8149
  583MOL0     O76832  10.149   1.920   8.563 -0.5458  0.3748 -0.5442
  583MOL0     C76833  10.174   1.869   8.703 -0.6092  0.1692 -0.1129
  583MOL0     C76834  10.079   1.749   8.730 -0.8866  0.5571  0.0470
  583MOL0     C76835   9.933   1.773   8.720  0.6342 -0.7321  0.1124
  583MOL0     C76836   9.875   1.882   8.821 -0.8698  0.8457 -1.0248
  583MOL0     C76837   9.722   1.886   8.815  0.3436 -0.2851  0.5304
  583MOL0     C76838   9.644   2.003   8.890  0.1225  0.2679  1.1021
  583MOL0     C76839   9.491   1.986   8.886  0.1181 -0.6590 -0.2168
  583MOL0     C76840   9.436   1.979   8.743  0.2803  0.4225  0.2489
  583MOL0     N76841   9.288   1.949   8.749  0.1242  0.8266  0.7824
  583MOL0     C76842   9.224   1.827   8.733  0.1320  1.0064  0.4922
  583MOL0     C76843   9.102   1.844   8.770  0.4440  0.1670  0.4187
  583MOL0     C76844   8.998   1.735   8.759 -0.1306 -0.8199 -0.4602
  583MOL0     C76845   8.922   1.734   8.628 -0.9491 -0.4984 -0.6443
  583MOL0     C76846   8.776   1.783   8.626  0.2833  0.3222 -0.9623
  583MOL0     C76847   8.741   1.894   8.729  0.6494  0.4062 -0.3477
  583MOL0     O76848   8.604   1.935   8.730  0.1924 -0.4904  0.1620
  583MOL0     C76849   8.496   1.859   8.773  0.3860  0.5521 -0.4867
  583MOL0     C76850   8.505   1.771   8.882  0.4828  0.4579  0.1135
  583MOL0     C76851   8.396   1.701   8.920  0.3572 -0.1109 -0.5781
  583MOL0     C76852   8.273   1.704   8.852  0.9400  0.3518 -0.2379
  583MOL0     C76853   8.152   1.625   8.894  0.1060  0.2433 -0.3958
  583MOL0     O76854   8.061   1.605   8.799  0.0471 -0.2886  0.0767
  583MOL0     C76855   7.946   1.525   8.811 -0.6555 -0.0612 -1.0289
  583MOL0     C76856   7.826   1.565   8.748 -0.0620 -0.3435 -0.4432
  583MOL0     C76857   7.713   1.488   8.750  0.5455 -0.8096  0.1019
  583MOL0     C76858   7.714   1.371   8.821  0.6262 -0.1176 -0.8408
  583MOL0     O76859   7.609   1.288   8.839 -0.2226 -0.1551 -0.0640
  583MOL0     C76860   7.488   1.322   8.775  0.7316 -0.1708  0.5311
  583MOL0     C76861   7.375   1.225   8.809  0.4457  0.5856 -0.2021
  583MOL0     C76862   7.415   1.084   8.753  0.1329 -0.0185 -0.0800
  583MOL0     C76863   7.302   0.976   8.747 -0.2011  1.0810  0.6544
  583MOL0     C76864   7.343   0.831   8.701  0.9192 -0.6798  0.0006
  583MOL0     C76865   7.429   0.756   8.801 -0.4668 -0.6078 -0.4631
  583MOL0     C76866   7.350   0.725   8.929 -0.2778  0.3423 -0.4753
  583MOL0     C76867   7.420   0.636   9.029  0.0455  0.5133  0.3428
  583MOL0    Cl76868   7.520   0.736   9.129 -0.3096 -0.4201 -0.3647
  583MOL0     C76869   7.834   1.334   8.884  0.5889  0.8891 -0.1669
  583MOL0     C76870   7.944   1.407   8.882  0.2066 -0.2849  0.3059
  583MOL0     O76871   8.158   1.567   9.001  0.6880 -0.5451 -0.3243
  583MOL0     C76872   8.263   1.797   8.745 -0.7494  0.3098 -0.6707
  583MOL0     C76873   8.374   1.874   8.706 -0.2074  0.3670  0.3847
  583MOL0     N76874   9.084   1.979   8.795 -0.3944  0.3202  0.2624
  583MOL0     N76875   9.195   2.042   8.782 -0.7484  1.2300  0.2219
  583MOL0     C76876  10.106   1.863   8.337 -0.3062  0.6722  0.3219
  583MOL0     C76877  10.155   1.820   8.212  0.1020 -0.3941  0.2842
  583MOL0     C76878  10.369   1.682   7.857  0.3227  0.2198 -0.2421
  583MOL0     C76879  10.412   1.744   7.741  0.7364 -0.1612  0.2093
  583MOL0     C76880  10.463   1.665   7.636  0.0516  0.6115 -0.4122
  583MOL0     C76881  10.466   1.520   7.642 -0.5412 -0.1546 -0.6995
  583MOL0     O76882  10.496   1.446   7.531 -0.5436 -0.1299 -0.6395
  583MOL0     C76883  10.479   1.303   7.544 -0.8792 -0.3976  0.4702
  583MOL0     C76884  10.536   1.242   7.414 -0.6552 -0.0373  0.2465
  583MOL0     C76885  10.467   1.277   7.279 -0.0634  0.9180  1.7075
  583MOL0     C76886  10.414   1.150   7.212 -0.4590  1.7562  0.4721
  583MOL0     C76887  10.521   1.052   7.167 -0.1436 -0.3537 -0.4727
  583MOL0     C76888  10.622   0.994   7.138 -0.1825  0.4353 -0.4356
  583MOL0     C76889  10.406   1.461   7.765 -0.8077 -0.5444  0.0090
  583MOL0     C76890  10.364   1.542   7.869 -0.3033 -0.3978  0.5599
  583MOL0     H76891  10.438   1.672   8.307 -1.7984 -2.7709 -2.0307
  583MOL0     H76892  10.356   1.772   8.540  0.4484 -3.1436 -0.5845
  583MOL0     H76893  10.143   1.940   8.781 -0.0803 -1.1692  1.3808
  583MOL0     H76894  10.275   1.832   8.726 -1.1438 -1.0828  0.3288
  583MOL0     H76895  10.090   1.716   8.833 -0.4305 -1.2790 -0.5576
  583MOL0     H76896  10.124   1.667   8.673  2.5558  1.7397  0.7868
  583MOL0     H76897   9.876   1.681   8.740 -0.0683 -0.0963  1.1494
  583MOL0     H76898   9.921   1.814   8.619  2.2859  0.1967  0.2546
  583MOL0     H76899   9.913   1.845   8.917  0.5706 -3.9948 -3.1465
  583MOL0     H76900   9.930   1.975   8.799  1.0404 -0.9867 -5.1988
  583MOL0     H76901   9.694   1.790   8.860 -0.4052 -1.9385 -3.1016
  583MOL0     H76902   9.687   1.892   8.712  0.2014  3.1727  0.6878
  583MOL0     H76903   9.664   2.103   8.851 -0.2533  0.1984  0.7305
  583MOL0     H76904   9.680   2.013   8.993 -1.5110  0.5606  1.6709
  583MOL0     H76905   9.467   1.888   8.928 -1.6777 -0.3559 -0.4566
  583MOL0     H76906   9.428   2.059   8.938 -1.4968 -1.6193 -0.7305
  583MOL0     H76907   9.487   1.896   8.692  0.0552  1.1227 -1.1623
  583MOL0     H76908   9.461   2.073   8.694  2.8956 -0.1698  0.2603
  583MOL0     H76909   9.279   1.741   8.697 -2.1531  0.2028 -1.3453
  583MOL0     H76910   8.938   1.750   8.850  3.5585  2.5582  1.7059
  583MOL0     H76911   9.045   1.636   8.754  2.0971  0.2454 -3.3403
  583MOL0     H76912   8.929   1.636   8.579  2.4453 -0.2924 -0.7855
  583MOL0     H76913   8.980   1.796   8.559 -0.8562  0.4175  0.2320
  583MOL0     H76914   8.750   1.816   8.525  2.4939  3.0638 -0.7580
  583MOL0     H76915   8.712   1.701   8.659  0.6396 -0.3944 -2.0177
  583MOL0     H76916   8.807   1.979   8.709  0.7755 -0.2318 -2.9754
  583MOL0     H76917   8.762   1.863   8.832 -2.7914 -0.8796  0.1048
  583MOL0     H76918   8.602   1.759   8.929  0.9026  0.4938 -0.7315
  583MOL0     H76919   8.421   1.638   9.005  2.8160  1.7635  0.2109
  583MOL0     H76920   7.841   1.661   8.700  0.8957  0.8275  1.9757
  583MOL0     H76921   7.628   1.526   8.695  1.6480  0.3896 -0.8372
  583MOL0     H76922   7.487   1.316   8.666 -0.9873  2.0004  0.3593
  583MOL0     H76923   7.461   1.422   8.809 -4.5400 -0.3672 -2.1251
  583MOL0     H76924   7.280   1.266   8.773 -1.1620 -1.1693  1.8040
  583MOL0     H76925   7.362   1.224   8.918 -1.5298 -0.8486 -0.3823
  583MOL0     H76926   7.507   1.047   8.799  1.1846  0.3069 -1.8199
  583MOL0     H76927   7.438   1.101   8.647 -0.7485  0.5704 -0.1869
  583MOL0     H76928   7.249   0.972   8.843 -4.1560  4.7719 -1.0446
  583MOL0     H76929   7.225   1.018   8.683 -0.8556  0.6842  1.1746
  583MOL0     H76930   7.409   0.839   8.614  2.5780  1.1920  1.3344
  583MOL0     H76931   7.251   0.774   8.686  0.7207 -0.4662  0.4012
  583MOL0     H76932   7.520   0.809   8.829 -0.2704 -0.9270 -0.5004
  583MOL0     H76933   7.455   0.657   8.764 -1.2285 -1.3846  0.9980
  583MOL0     H76934   7.313   0.816   8.977  1.7299  1.4670 -0.9323
  583MOL0     H76935   7.259   0.670   8.904 -0.0460 -0.5469  0.5398
  583MOL0     H76936   7.473   0.563   8.966 -0.8709 -0.8270  1.0829
  583MOL0     H76937   7.349   0.578   9.088  0.3094  2.0713  2.2713
  583MOL0     H76938   7.837   1.239   8.936 -0.5491  0.4694 -0.8316
  583MOL0     H76939   8.032   1.374   8.935  1.8582  0.4431 -1.8692
  583MOL0     H76940   8.183   1.797   8.672 -1.1428 -0.0051 -0.2457
  583MOL0     H76941   8.365   1.916   8.606 -2.8203 -0.5240  0.1659
  583MOL0     H76942  10.008   1.910   8.339 -1.3341 -1.4075  1.4598
  583MOL0     H76943  10.098   1.835   8.121 -1.4860  1.6848  1.5349
  583MOL0     H76944  10.411   1.853   7.740 -0.4781 -0.1005  2.1282
  583MOL0     H76945  10.490   1.727   7.552  1.0590 -0.9521 -1.2933
  583MOL0     H76946  10.377   1.265   7.557 -1.1200 -0.1607 -0.6218
  583MOL0     H76947  10.542   1.267   7.627 -1.9608 -1.0574  1.0393
  583MOL0     H76948  10.643   1.260   7.406 -0.6435 -0.4508 -0.7196
  583MOL0     H76949  10.519   1.135   7.431  3.2691 -0.5956  1.7509
  583MOL0     H76950  10.545   1.316   7.214 -0.5242  0.5328  0.9097
  583MOL0     H76951  10.384   1.344   7.304 -1.4676 -0.0820  0.0010
  583MOL0     H76952  10.360   1.089   7.285  0.1143  1.7755  0.9182
  583MOL0     H76953  10.340   1.165   7.132 -2.1868  0.1378  1.6669
  583MOL0     H76954  10.708   0.938   7.108  1.5020  2.6291 -0.0242
  583MOL0     H76955  10.393   1.356   7.785 -0.4729 -0.3615  1.2645
  583MOL0     H76956  10.329   1.496   7.961 -0.1326 -0.7835  0.4364
  584MOL0     O76957   1.946   3.879   8.500 -0.0210  0.0875  0.3773
  584MOL0     C76958   1.888   3.977   8.546  0.0738  0.2296  0.4897
  584MOL0     O76959   1.754   4.007   8.544 -0.6467  0.5154 -0.4839
  584MOL0     C76960   1.670   3.908   8.486 -0.2280 -0.8829 -0.4543
  584MOL0     C76961   1.580   3.835   8.566 -0.6014  0.7962  0.4843
  584MOL0     C76962   1.481   3.757   8.518 -0.1477 -0.1788  0.3857
  584MOL0     C76963   1.454   3.745   8.383 -0.7857 -0.2466 -0.0299
  584MOL0     O76964   1.341   3.677   8.336 -0.7056 -0.5869  0.3785
  584MOL0     C76965   1.229   3.676   8.421  0.0806 -0.1521 -0.5069
  584MOL0     C76966   1.205   3.540   8.494 -0.5840 -0.7359 -0.5351
  584MOL0     C76967   1.225   3.424   8.388  0.3967 -1.2186  0.0261
  584MOL0     C76968   1.106   3.424   8.280 -1.5947  0.1083 -0.8112
  584MOL0     C76969   1.097   3.278   8.229  0.5429 -0.7899  0.2694
  584MOL0     C76970   1.028   3.270   8.090 -1.0211 -0.1922 -1.4185
  584MOL0     C76971   1.045   3.129   8.033 -0.0086  0.3001  0.3202
  584MOL0     C76972   0.956   3.029   8.093 -0.1703  0.4828 -0.3851
  584MOL0     N76973   0.818   3.028   8.040  0.4940  0.5896 -0.4070
  584MOL0     C76974   0.714   2.950   8.097 -1.1672 -0.8589  0.2402
  584MOL0     C76975   0.606   2.969   8.019  0.8404 -1.1725  0.2152
  584MOL0     C76976   0.461   2.924   8.051  0.1463  0.1883  1.2724
  584MOL0     C76977   0.431   2.814   7.947 -0.7249  0.4528 -0.8452
  584MOL0     C76978   0.361   2.868   7.828  0.0191  0.2902  0.5854
  584MOL0     C76979   0.383   2.776   7.708  0.4416  0.1664 -0.7085
  584MOL0     O76980   0.364   2.635   7.751 -0.1405 -0.6611 -0.5133
  584MOL0     C76981   0.244   2.586   7.716  0.1587 -0.0150  0.1962
  584MOL0     C76982   0.169   2.520   7.811 -0.3855  0.7612  0.1678
  584MOL0     C76983   0.076   2.421   7.775  0.2784  0.2121  0.5989
  584MOL0     C76984   0.057   2.398   7.639 -0.3714 -0.7230  0.5749
  584MOL0     C76985  -0.032   2.282   7.605  1.2912  0.1656  0.3390
  584MOL0     O76986  -0.003   2.209   7.492  0.1153  0.3135  0.2301
  584MOL0     C76987  -0.078   2.099   7.466  0.3426 -1.2535 -0.2764
  584MOL0     C76988  -0.125   2.083   7.336  0.5992 -0.3245  1.2014
  584MOL0     C76989  -0.208   1.973   7.307 -0.4958  0.0341 -0.2565
  584MOL0     C76990  -0.230   1.874   7.398  0.3515  0.1855 -0.4032
  584MOL0     O76991  -0.303   1.761   7.366 -0.3418 -0.2433 -0.0274
  584MOL0     C76992  -0.445   1.786   7.383  0.7557  0.1104 -0.2039
  584MOL0     C76993  -0.538   1.663   7.390  1.0231  1.1960  0.8315
  584MOL0     C76994  -0.535   1.563   7.275 -0.3436 -0.2892  1.2839
  584MOL0     C76995  -0.572   1.634   7.132 -0.1616 -0.4316  0.1055
  584MOL0     C76996  -0.539   1.544   7.016 -0.5300  0.5839  0.0776
  584MOL0     C76997  -0.616   1.417   6.997  0.0934  0.0942  0.7334
  584MOL0     C76998  -0.760   1.442   6.963 -0.5378  0.0152 -0.5166
  584MOL0     C76999  -0.778   1.512   6.830  0.4586 -0.2055  0.2948
  584MOL0    Cl77000  -0.678   1.446   6.695 -0.5534  0.0515  0.0180
  584MOL0     C77001  -0.181   1.889   7.527  0.4302 -0.4006  0.0343
  584MOL0     C77002  -0.103   1.997   7.561  0.1765  0.0728 -0.2402
  584MOL0     O77003  -0.133   2.278   7.672  0.2224 -0.6219  0.0736
  584MOL0     C77004   0.126   2.472   7.537  0.7105  1.1687  0.8224
  584MOL0     C77005   0.213   2.564   7.577 -0.8310  0.4459 -0.3846
  584MOL0     N77006   0.651   3.052   7.919 -0.0328  0.7389  0.4425
  584MOL0     N77007   0.773   3.087   7.926  0.4369 -0.4223  0.4119
  584MOL0     C77008   1.534   3.825   8.299  0.2704 -1.0642 -0.4548
  584MOL0     C77009   1.639   3.909   8.351  0.8268 -0.4388  1.6345
  584MOL0     C77010   1.976   4.082   8.611 -0.8031 -0.2704  0.3623
  584MOL0     C77011   2.111   4.060   8.627 -0.1336  0.7197  0.0693
  584MOL0     C77012   2.198   4.160   8.679 -0.6226 -0.9473  0.4543
  584MOL0     C77013   2.152   4.286   8.721  0.3608 -0.5105  0.0194
  584MOL0     O77014   2.234   4.378   8.782  0.2281  0.6920  0.3859
  584MOL0     C77015   2.179   4.493   8.837 -0.8748  0.3503 -1.1767
  584MOL0     C77016   2.280   4.603   8.870  0.6585 -0.3404 -1.5388
  584MOL0     C77017   2.239   4.689   8.996 -0.1582  0.2365 -0.4211
  584MOL0     C77018   2.307   4.827   9.005  0.0011  0.1702 -0.0638
  584MOL0     C77019   2.457   4.816   8.986  0.1776 -0.7510 -0.5625
  584MOL0     C77020   2.571   4.803   8.967  0.1068 -0.3784  0.5783
  584MOL0     C77021   2.014   4.310   8.707 -0.2184 -0.1078 -0.5052
  584MOL0     C77022   1.931   4.199   8.653 -0.3771 -0.0111 -0.7214
  584MOL0     H77023   1.600   3.836   8.673  1.5331  3.0415  0.1678
  584MOL0     H77024   1.422   3.701   8.590 -1.0070 -1.0104 -0.9103
  584MOL0     H77025   1.140   3.701   8.362 -1.0000  2.0237  1.8203
  584MOL0     H77026   1.231   3.756   8.496 -0.2769 -1.3517  0.8139
  584MOL0     H77027   1.103   3.543   8.534 -0.5243 -1.4326 -0.3200
  584MOL0     H77028   1.275   3.523   8.576  2.0053  2.0852 -1.9547
  584MOL0     H77029   1.220   3.334   8.450 -0.4917 -0.3895  1.2181
  584MOL0     H77030   1.324   3.435   8.343 -0.1221 -1.4727 -1.1995
  584MOL0     H77031   1.017   3.452   8.337 -1.1586  0.5812 -0.3546
  584MOL0     H77032   1.116   3.496   8.199  1.5102  0.3418 -0.3367
  584MOL0     H77033   1.038   3.211   8.293 -1.5652 -0.4527 -1.2127
  584MOL0     H77034   1.197   3.244   8.202  0.5364 -2.1786  1.8137
  584MOL0     H77035   1.076   3.345   8.026  2.7127 -2.4258 -1.5534
  584MOL0     H77036   0.923   3.295   8.104 -1.1657 -0.5910 -1.7912
  584MOL0     H77037   1.029   3.134   7.925  1.3650 -2.4470 -0.1018
  584MOL0     H77038   1.151   3.102   8.038  0.2915  1.5564  1.2238
  584MOL0     H77039   0.949   3.033   8.202  1.1206  2.6226 -0.3179
  584MOL0     H77040   1.002   2.933   8.068  0.4402  0.5616  0.4046
  584MOL0     H77041   0.730   2.897   8.190  2.2275  1.1898  1.0258
  584MOL0     H77042   0.390   3.007   8.047 -0.6876 -0.5008 -2.5951
  584MOL0     H77043   0.466   2.890   8.154 -0.7748  2.6434  2.2106
  584MOL0     H77044   0.363   2.742   7.993  0.8056 -1.1976 -1.0452
  584MOL0     H77045   0.524   2.760   7.928  0.2467  0.8138  2.2288
  584MOL0     H77046   0.257   2.869   7.861 -0.6624  1.3864 -1.4664
  584MOL0     H77047   0.384   2.972   7.804  1.8307 -0.1219  0.3611
  584MOL0     H77048   0.477   2.797   7.657 -0.4347  0.1267 -2.4081
  584MOL0     H77049   0.312   2.802   7.629  0.7012 -0.9843 -1.3226
  584MOL0     H77050   0.197   2.544   7.913  2.1802  2.0950 -0.7870
  584MOL0     H77051   0.025   2.365   7.853 -2.0855  1.9500  0.4029
  584MOL0     H77052  -0.102   2.173   7.280  0.8945 -0.7566  0.6169
  584MOL0     H77053  -0.241   1.954   7.205  0.4046 -2.1267 -0.1812
  584MOL0     H77054  -0.477   1.835   7.291  2.0833 -1.5360 -1.6116
  584MOL0     H77055  -0.459   1.851   7.469  2.8872 -1.7075  1.6410
  584MOL0     H77056  -0.644   1.690   7.396  0.4376 -0.9590  0.9154
  584MOL0     H77057  -0.506   1.618   7.485  0.7410  2.0725  1.3611
  584MOL0     H77058  -0.594   1.477   7.304  1.3103 -1.4300  1.4124
  584MOL0     H77059  -0.435   1.519   7.275  0.6249  1.7441 -0.0712
  584MOL0     H77060  -0.679   1.657   7.133 -0.1065 -0.1851  0.4786
  584MOL0     H77061  -0.541   1.738   7.116 -0.6234  0.0346  1.9397
  584MOL0     H77062  -0.434   1.515   7.033 -0.1075  3.1428  2.3979
  584MOL0     H77063  -0.542   1.601   6.922 -1.6106 -1.1516 -0.9912
  584MOL0     H77064  -0.618   1.362   7.092 -0.4118 -1.6380 -0.2559
  584MOL0     H77065  -0.571   1.351   6.923 -1.7186 -0.0080 -0.3533
  584MOL0     H77066  -0.812   1.346   6.970  3.0833 -2.0674  0.8503
  584MOL0     H77067  -0.802   1.510   7.037  0.3514  0.9762 -0.8703
  584MOL0     H77068  -0.763   1.620   6.837 -0.1023 -0.0602 -0.5873
  584MOL0     H77069  -0.883   1.493   6.807 -0.1248  0.5062  2.1684
  584MOL0     H77070  -0.196   1.804   7.592 -0.2443  0.5041  1.1081
  584MOL0     H77071  -0.064   2.003   7.662 -1.1102 -1.2806  0.3630
  584MOL0     H77072   0.111   2.452   7.431 -2.1672 -0.1791  1.3826
  584MOL0     H77073   0.278   2.602   7.499  2.3951 -3.5945 -0.0221
  584MOL0     H77074   1.515   3.832   8.192 -1.4865 -4.3547 -0.4727
  584MOL0     H77075   1.689   3.976   8.282 -0.7291 -1.4747 -0.6170
  584MOL0     H77076   2.153   3.974   8.574 -1.2668 -1.3353  2.2919
  584MOL0     H77077   2.304   4.139   8.696  1.5526  5.9218 -1.3838
  584MOL0     H77078   2.126   4.466   8.929 -0.8865  1.6888 -0.7616
  584MOL0     H77079   2.110   4.543   8.769 -0.1891 -0.4784 -2.5259
  584MOL0     H77080   2.377   4.558   8.895  0.1463 -0.1425  1.0708
  584MOL0     H77081   2.296   4.668   8.783  0.3404  6.0731  2.5450
  584MOL0     H77082   2.267   4.636   9.087  1.7304  2.1198  0.1833
  584MOL0     H77083   2.130   4.690   8.990 -0.4490 -3.2621  1.6768
  584MOL0     H77084   2.275   4.903   8.933  0.2735  0.1787 -0.1759
  584MOL0     H77085   2.287   4.862   9.107  6.0959  0.6501  1.3325
  584MOL0     H77086   2.677   4.796   8.957  0.1276 -0.6685  0.9801
  584MOL0     H77087   1.958   4.398   8.736  1.5844  1.3067 -1.1075
  584MOL0     H77088   1.824   4.217   8.655 -0.2750  0.7671 -1.4042
  585MOL0     O77089   6.963  10.115   2.291  0.3906  0.1761  0.5816
  585MOL0     C77090   6.867  10.053   2.328 -0.8010  0.2087 -0.3002
  585MOL0     O77091   6.751  10.040   2.256  0.3516 -0.6483 -0.5244
  585MOL0     C77092   6.735  10.106   2.135  0.3103  0.2928  0.2970
  585MOL0     C77093   6.764  10.241   2.116 -0.0994 -0.1021 -0.4558
  585MOL0     C77094   6.729  10.305   1.999 -0.3271  0.6031 -0.2856
  585MOL0     C77095   6.684  10.223   1.891  0.5475  0.1260 -1.1557
  585MOL0     O77096   6.656  10.278   1.766 -0.4452  0.4545  0.0300
  585MOL0     C77097   6.557  10.381   1.761 -0.5134  0.2225 -0.6040
  585MOL0     C77098   6.511  10.397   1.616  0.1701 -0.2766  0.2815
  585MOL0     C77099   6.424  10.521   1.595  0.5995 -0.3881 -0.3001
  585MOL0     C77100   6.269  10.508   1.624  0.3107  0.1725 -1.4176
  585MOL0     C77101   6.203  10.651   1.649 -0.5371  0.1579 -0.8174
  585MOL0     C77102   6.217  10.756   1.537  0.9810 -0.0693 -0.8417
  585MOL0     C77103   6.153  10.719   1.398 -0.5218  0.0355  0.3670
  585MOL0     C77104   6.008  10.680   1.415 -0.2918 -0.3660 -0.0050
  585MOL0     N77105   5.947  10.654   1.284 -0.5019  0.3086 -0.2589
  585MOL0     C77106   6.006  10.585   1.177  0.3514  1.0371  0.3658
  585MOL0     C77107   5.921  10.599   1.078 -0.6873  0.1998  0.7602
  585MOL0     C77108   5.919  10.541   0.937  0.2859  0.6808 -0.5958
  585MOL0     C77109   6.033  10.595   0.857 -0.3599 -0.1130  0.1359
  585MOL0     C77110   6.059  10.500   0.733 -0.6250 -0.4561 -0.9742
  585MOL0     C77111   6.196  10.522   0.684 -0.3973  0.2093 -0.1753
  585MOL0     O77112   6.286  10.455   0.768  0.1296 -0.1801 -0.4948
  585MOL0     C77113   6.414  10.458   0.727  0.1758 -0.1563  1.4232
  585MOL0     C77114   6.465  10.548   0.635  0.2493  0.0502  0.6701
  585MOL0     C77115   6.608  10.543   0.612  0.6734  0.7493 -0.0062
  585MOL0     C77116   6.692  10.447   0.678  0.7122  0.0150  0.5677
  585MOL0     C77117   6.826  10.445   0.641  0.2751 -0.9783 -0.2500
  585MOL0     O77118   6.912  10.366   0.716  0.0054 -1.0528  0.7331
  585MOL0     C77119   7.038  10.343   0.664  0.2553  0.7108 -0.7484
  585MOL0     C77120   7.129  10.442   0.626  0.3896  0.2858 -0.0490
  585MOL0     C77121   7.249  10.408   0.559 -0.0911  0.1291 -0.5403
  585MOL0     C77122   7.275  10.276   0.529 -0.0909  0.1884  0.7024
  585MOL0     O77123   7.400  10.244   0.475 -0.0758  0.3005  0.1883
  585MOL0     C77124   7.429  10.110   0.448 -0.0557  0.8461 -1.0072
  585MOL0     C77125   7.556  10.098   0.360 -0.3148  0.7133 -0.2688
  585MOL0     C77126   7.617   9.958   0.358 -0.8377  0.8614  0.2617
  585MOL0     C77127   7.733   9.934   0.453  0.1537 -0.0860  0.5579
  585MOL0     C77128   7.857  10.001   0.417 -0.1278  0.0063 -0.4180
  585MOL0     C77129   7.909   9.966   0.287  0.6373 -0.7856  0.6412
  585MOL0     C77130   8.049  10.020   0.231 -0.3914  0.3628 -0.0714
  585MOL0     C77131   8.174   9.947   0.296  1.0891 -0.9144  0.7080
  585MOL0    Cl77132   8.325   9.969   0.210 -0.6091  0.0804 -0.3654
  585MOL0     C77133   7.176  10.179   0.566 -0.0883 -0.0832  1.0089
  585MOL0     C77134   7.064  10.204   0.632  0.9526  0.2437 -0.4065
  585MOL0     O77135   6.857  10.501   0.539  0.2685  0.3901  0.1571
  585MOL0     C77136   6.625  10.360   0.757  0.7037 -0.2957 -0.3921
  585MOL0     C77137   6.492  10.360   0.786  0.0580  0.0234 -0.5466
  585MOL0     N77138   5.811  10.670   1.128 -0.6736  0.6686 -0.0596
  585MOL0     N77139   5.827  10.700   1.251  0.4881  0.4952  0.6786
  585MOL0     C77140   6.653  10.091   1.911  0.4339  0.1246  0.2683
  585MOL0     C77141   6.673  10.030   2.033 -0.3865  0.3471 -0.9782
  585MOL0     C77142   6.880   9.988   2.464  0.2316  0.3570  0.2121
  585MOL0     C77143   6.768   9.926   2.528 -0.2180 -0.1687  0.1048
  585MOL0     C77144   6.779   9.882   2.660 -0.1868  0.1246  0.2041
  585MOL0     C77145   6.900   9.886   2.742  0.7310 -0.3275 -0.4999
  585MOL0     O77146   6.918   9.831   2.876 -0.0531 -0.1640  0.0944
  585MOL0     C77147   6.807   9.775   2.946  0.1130 -0.9446  0.6654
  585MOL0     C77148   6.754   9.893   3.019 -0.0307  1.1716 -0.0720
  585MOL0     C77149   6.650   9.841   3.118  0.4939  0.1820  0.4336
  585MOL0     C77150   6.577   9.945   3.193  0.4723 -0.0649 -0.3215
  585MOL0     C77151   6.664  10.050   3.244  0.5526 -0.4216 -0.1315
  585MOL0     C77152   6.729  10.130   3.299 -0.0824 -0.0435 -0.8856
  585MOL0     C77153   7.007   9.945   2.675 -0.1825 -0.1484 -0.5701
  585MOL0     C77154   6.996   9.993   2.544  0.2957 -0.5598 -0.2169
  585MOL0     H77155   6.810  10.302   2.193 -1.5944 -1.5457  1.7167
  585MOL0     H77156   6.755  10.409   1.984 -1.1733  0.7620 -0.6790
  585MOL0     H77157   6.602  10.475   1.793  0.0603  0.0396 -0.8589
  585MOL0     H77158   6.479  10.353   1.833 -0.6048 -0.8114 -1.0858
  585MOL0     H77159   6.461  10.311   1.571  1.2747 -0.2129 -1.1450
  585MOL0     H77160   6.594  10.422   1.549 -1.1588  1.0365 -0.9459
  585MOL0     H77161   6.427  10.572   1.498 -0.7236 -1.8868 -1.1825
  585MOL0     H77162   6.465  10.588   1.672  2.2186  0.4799 -1.8556
  585MOL0     H77163   6.200  10.457   1.556 -1.3103  1.6954 -0.9838
  585MOL0     H77164   6.265  10.462   1.723 -2.1618  1.2834 -0.9384
  585MOL0     H77165   6.251  10.694   1.737 -1.3059  1.7405 -1.1536
  585MOL0     H77166   6.100  10.634   1.682  0.8089  0.1807  4.2221
  585MOL0     H77167   6.324  10.775   1.530  1.2577 -1.2320 -0.2177
  585MOL0     H77168   6.177  10.850   1.576  0.3241 -0.0602 -1.5134
  585MOL0     H77169   6.169  10.808   1.336 -1.1644  0.3666  0.6623
  585MOL0     H77170   6.210  10.637   1.352  0.6462  0.5888  0.7732
  585MOL0     H77171   5.959  10.759   1.472  2.0183  0.4799  0.9215
  585MOL0     H77172   5.991  10.592   1.478 -2.8793  1.6171  2.3620
  585MOL0     H77173   6.094  10.522   1.180  0.5794  1.1732 -1.8230
  585MOL0     H77174   5.831  10.568   0.878  1.9111 -0.4453 -3.8241
  585MOL0     H77175   5.922  10.432   0.950 -0.7985  0.9019  2.1035
  585MOL0     H77176   6.111  10.581   0.933 -3.1351  1.6135  3.6318
  585MOL0     H77177   6.033  10.703   0.840  1.1832  0.1244  1.3923
  585MOL0     H77178   6.046  10.395   0.759 -1.5295  0.2937  2.0699
  585MOL0     H77179   5.988  10.524   0.653 -0.3497 -1.8372 -1.6712
  585MOL0     H77180   6.221  10.627   0.703  2.2998 -0.7107  2.0858
  585MOL0     H77181   6.198  10.485   0.581  0.7644 -3.4677  1.0113
  585MOL0     H77182   6.416  10.630   0.583 -1.5455 -1.4004 -0.0379
  585MOL0     H77183   6.654  10.621   0.553  0.3326  1.2225  0.3424
  585MOL0     H77184   7.112  10.545   0.655  1.6253  0.8283 -1.1624
  585MOL0     H77185   7.326  10.483   0.542 -0.3188  0.6834  0.7276
  585MOL0     H77186   7.346  10.066   0.392 -1.2456  0.7746  0.7213
  585MOL0     H77187   7.442  10.059   0.544  0.0616  0.7167 -1.0928
  585MOL0     H77188   7.628  10.163   0.412  1.6918 -1.6736  0.1311
  585MOL0     H77189   7.547  10.130   0.256  0.2838  2.5360  0.1965
  585MOL0     H77190   7.657   9.928   0.260 -1.0440 -0.9384  0.6949
  585MOL0     H77191   7.544   9.881   0.384 -0.7159  0.2570 -1.0799
  585MOL0     H77192   7.705   9.967   0.554 -0.8800 -1.0931  0.6281
  585MOL0     H77193   7.740   9.825   0.460 -0.0866 -0.1795 -0.5749
  585MOL0     H77194   7.935   9.983   0.492 -1.6619 -0.6056  1.0931
  585MOL0     H77195   7.845  10.110   0.415  2.0264  0.2812 -1.7626
  585MOL0     H77196   7.835  10.010   0.219  0.4376 -3.5466 -1.0975
  585MOL0     H77197   7.904   9.857   0.274  3.3327 -1.2528  2.6636
  585MOL0     H77198   8.051   9.996   0.124  0.0316  0.9037 -0.1847
  585MOL0     H77199   8.052  10.127   0.248 -3.8148  1.0259 -2.4571
  585MOL0     H77200   8.160   9.839   0.307 -0.9945 -0.7915 -0.1489
  585MOL0     H77201   8.180   9.990   0.396 -0.2516 -2.6291  1.5989
  585MOL0     H77202   7.188  10.074   0.544 -1.0574 -0.0131  0.1325
  585MOL0     H77203   6.992  10.128   0.660 -0.9622  1.0526 -2.7933
  585MOL0     H77204   6.684  10.291   0.818 -1.6653 -0.6615  1.6810
  585MOL0     H77205   6.445  10.283   0.847 -3.7528 -0.2021 -3.3859
  585MOL0     H77206   6.620  10.041   1.820  0.2890 -0.3166  0.5599
  585MOL0     H77207   6.658   9.925   2.058 -2.2306  1.2227  2.1516
  585MOL0     H77208   6.673   9.910   2.477  0.1739 -2.1431 -0.1203
  585MOL0     H77209   6.686   9.839   2.694 -1.6453  2.0244 -1.2108
  585MOL0     H77210   6.844   9.690   3.003 -0.3213 -0.4285  1.7348
  585MOL0     H77211   6.728   9.740   2.879 -0.0211  0.3430  0.1236
  585MOL0     H77212   6.842   9.935   3.068  0.8100 -1.0940  0.4707
  585MOL0     H77213   6.714   9.969   2.952  0.3664 -1.0030 -2.9814
  585MOL0     H77214   6.691   9.778   3.198 -0.3501 -0.0442  0.7053
  585MOL0     H77215   6.584   9.779   3.056  1.0948 -0.3685  0.3341
  585MOL0     H77216   6.513   9.992   3.118 -2.1558 -2.6900  0.1156
  585MOL0     H77217   6.511   9.906   3.270 -0.8862 -0.6889 -1.7650
  585MOL0     H77218   6.781  10.187   3.374 -2.5880 -0.0288  0.9711
  585MOL0     H77219   7.101   9.950   2.729 -0.5613 -1.4562  0.2559
  585MOL0     H77220   7.086  10.038   2.503  1.6963  2.0854  4.9690
  586MOL0     O77221   4.893   0.091   2.946 -0.2782  0.5583  0.3108
  586MOL0     C77222   4.888   0.162   2.846 -0.2174 -0.2047  0.3193
  586MOL0     O77223   4.880   0.122   2.713  0.0329  0.4823 -0.7489
  586MOL0     C77224   4.847  -0.016   2.688 -0.4009 -0.1616 -0.0022
  586MOL0     C77225   4.711  -0.047   2.679 -0.0442 -0.2657  0.3473
  586MOL0     C77226   4.668  -0.177   2.666  0.3202  0.0672 -0.8336
  586MOL0     C77227   4.756  -0.286   2.664  0.6159 -0.7143 -0.6459
  586MOL0     O77228   4.728  -0.422   2.650 -0.4295 -0.2870 -0.2773
  586MOL0     C77229   4.616  -0.479   2.730 -0.0623  0.0132  0.4495
  586MOL0     C77230   4.588  -0.447   2.880 -0.1024  0.4208 -0.1210
  586MOL0     C77231   4.446  -0.489   2.944 -1.1430  0.3756  0.0616
  586MOL0     C77232   4.418  -0.642   2.938 -0.4410 -0.7231 -0.3489
  586MOL0     C77233   4.299  -0.665   3.030  0.1839 -0.0739 -0.0546
  586MOL0     C77234   4.265  -0.807   3.054  0.9250  0.4319 -0.4229
  586MOL0     C77235   4.194  -0.871   2.934 -0.4503 -0.3244 -0.9728
  586MOL0     C77236   4.135  -1.018   2.968  0.1786 -0.2546  1.0219
  586MOL0     N77237   4.021  -1.001   3.061  0.1141 -0.1466  0.1466
  586MOL0     C77238   4.023  -1.017   3.195 -1.1557  0.1547  0.6768
  586MOL0     C77239   3.897  -1.041   3.224  0.0068 -0.3409 -0.3496
  586MOL0     C77240   3.846  -1.066   3.368  0.8373 -0.3439 -0.0665
  586MOL0     C77241   3.848  -1.219   3.402  0.4744  0.3993 -0.1028
  586MOL0     C77242   3.988  -1.275   3.403 -0.2004  0.1581  0.6226
  586MOL0     C77243   3.975  -1.426   3.437  0.4123  0.8992 -0.2005
  586MOL0     O77244   4.103  -1.475   3.396 -0.4784 -0.5124 -0.0424
  586MOL0     C77245   4.092  -1.605   3.361  0.7747  0.4947 -0.2521
  586MOL0     C77246   4.166  -1.644   3.250  0.0743  0.3599  0.0346
  586MOL0     C77247   4.180  -1.777   3.209 -0.6302 -0.1163  0.5368
  586MOL0     C77248   4.107  -1.879   3.273  0.8530 -0.5400 -0.6750
  586MOL0     C77249   4.112  -2.020   3.231  0.3795 -1.2214 -0.7440
  586MOL0     O77250   4.132  -2.108   3.329  0.1259 -0.3906 -0.7993
  586MOL0     C77251   4.140  -2.244   3.305 -0.5133 -0.5998  0.2713
  586MOL0     C77252   4.042  -2.303   3.225  0.0837 -0.0507 -0.2419
  586MOL0     C77253   4.058  -2.439   3.188  0.8700 -0.4305 -0.3279
  586MOL0     C77254   4.167  -2.520   3.217  0.7028 -0.1842 -0.8939
  586MOL0     O77255   4.174  -2.649   3.173 -0.8300 -0.0060 -0.6205
  586MOL0     C77256   4.293  -2.729   3.202  1.5372 -0.6540 -0.3767
  586MOL0     C77257   4.422  -2.692   3.138 -0.9118  0.6106 -0.6079
  586MOL0     C77258   4.518  -2.804   3.172  0.1036  0.5946 -1.2343
  586MOL0     C77259   4.668  -2.778   3.160  0.2046 -0.5929 -0.7103
  586MOL0     C77260   4.723  -2.655   3.229 -0.2188 -0.1970 -0.9120
  586MOL0     C77261   4.680  -2.648   3.379 -0.3173  0.1507 -0.3331
  586MOL0     C77262   4.746  -2.536   3.464  0.1840  0.0325  0.4279
  586MOL0     C77263   4.696  -2.401   3.403 -0.1209 -0.5135  0.0152
  586MOL0    Cl77264   4.755  -2.255   3.505 -0.2725 -0.2388 -0.2616
  586MOL0     C77265   4.261  -2.465   3.303 -0.0395 -0.2154  0.0704
  586MOL0     C77266   4.252  -2.328   3.343  0.4030 -0.4401 -0.0110
  586MOL0     O77267   4.100  -2.047   3.116 -0.0475  0.3928  0.4153
  586MOL0     C77268   4.042  -1.846   3.394  0.9363 -0.3268  0.4816
  586MOL0     C77269   4.040  -1.712   3.441 -0.2688  0.5063  0.7216
  586MOL0     N77270   3.819  -1.024   3.112  0.3371  0.1011  0.4960
  586MOL0     N77271   3.891  -0.998   3.016 -0.2246 -1.1733  0.0671
  586MOL0     C77272   4.896  -0.260   2.677  0.2381 -0.1436  0.6202
  586MOL0     C77273   4.944  -0.121   2.694  0.0934  0.4333 -0.7550
  586MOL0     C77274   4.870   0.305   2.871 -0.1039  0.9883 -0.1371
  586MOL0     C77275   4.899   0.401   2.762  0.7751  0.2475  0.1954
  586MOL0     C77276   4.862   0.532   2.777 -0.7303 -0.0111 -0.3870
  586MOL0     C77277   4.818   0.590   2.898  0.7958  0.6555 -0.4065
  586MOL0     O77278   4.829   0.726   2.923  0.5618  0.3505 -0.4217
  586MOL0     C77279   4.777   0.811   2.816  0.5276  0.4071 -0.6197
  586MOL0     C77280   4.637   0.865   2.855 -0.2894 -0.5938  0.7710
  586MOL0     C77281   4.585   0.942   2.732  0.7302  0.2825 -0.0153
  586MOL0     C77282   4.434   0.919   2.707 -0.4358  0.4557 -0.0411
  586MOL0     C77283   4.412   0.783   2.652  0.6234  0.1109  0.8536
  586MOL0     C77284   4.389   0.671   2.600  0.8103 -0.2519 -0.1846
  586MOL0     C77285   4.797   0.496   3.006 -0.4774  0.3002  0.0999
  586MOL0     C77286   4.819   0.357   2.998 -0.4575  0.0531  0.4272
  586MOL0     H77287   4.646   0.037   2.701  2.4451  2.0493 -0.6081
  586MOL0     H77288   4.560  -0.174   2.679  0.6885  0.4202  3.4696
  586MOL0     H77289   4.618  -0.588   2.716  1.0757  0.1612 -0.6810
  586MOL0     H77290   4.529  -0.440   2.676  0.6571 -0.9460 -1.4888
  586MOL0     H77291   4.599  -0.339   2.886 -1.9622  0.8534 -2.7342
  586MOL0     H77292   4.675  -0.487   2.931 -0.9330 -1.7738 -0.2976
  586MOL0     H77293   4.368  -0.435   2.888 -1.2447  0.7051  0.5178
  586MOL0     H77294   4.441  -0.464   3.050  0.2983 -0.4647  0.3544
  586MOL0     H77295   4.400  -0.671   2.834  1.5711  1.0894 -1.2932
  586MOL0     H77296   4.509  -0.693   2.970 -0.3549  0.8414  2.1967
  586MOL0     H77297   4.211  -0.608   2.999  0.7971  0.6580 -0.4597
  586MOL0     H77298   4.323  -0.625   3.129 -2.3913  0.6578  0.3693
  586MOL0     H77299   4.184  -0.816   3.128  2.7792 -0.6703  1.5846
  586MOL0     H77300   4.347  -0.861   3.103 -0.2722 -0.3423  0.8166
  586MOL0     H77301   4.114  -0.802   2.906  0.7361  1.4502 -0.2155
  586MOL0     H77302   4.263  -0.870   2.849  3.0164  0.7176  1.6025
  586MOL0     H77303   4.205  -1.093   3.005  0.0843 -0.1783  1.3649
  586MOL0     H77304   4.094  -1.051   2.872 -5.4144  1.4350  2.4602
  586MOL0     H77305   4.108  -1.020   3.263  0.6165 -4.2318 -1.3460
  586MOL0     H77306   3.739  -1.042   3.370  0.7686 -0.2111 -2.3152
  586MOL0     H77307   3.909  -1.012   3.439 -0.0992  0.1561  0.4046
  586MOL0     H77308   3.772  -1.267   3.340 -0.4489  1.7626 -0.0810
  586MOL0     H77309   3.811  -1.228   3.505 -0.4297  1.7105 -0.2824
  586MOL0     H77310   4.041  -1.284   3.308  2.1919  0.0987  1.9048
  586MOL0     H77311   4.062  -1.224   3.465  1.7253 -2.1534  0.3594
  586MOL0     H77312   3.892  -1.477   3.387  3.2333 -3.4198 -1.0639
  586MOL0     H77313   3.973  -1.427   3.546  0.3422  1.3073 -0.1993
  586MOL0     H77314   4.210  -1.560   3.199 -2.6725  2.7779  1.3660
  586MOL0     H77315   4.240  -1.799   3.121 -1.9715 -2.9279  0.2256
  586MOL0     H77316   3.954  -2.244   3.201 -1.3011 -1.7264  0.4989
  586MOL0     H77317   3.986  -2.476   3.116 -2.3409  2.7898  0.8958
  586MOL0     H77318   4.265  -2.830   3.170 -2.9963  0.8550 -2.0170
  586MOL0     H77319   4.293  -2.748   3.310  0.1664 -1.8776 -0.5588
  586MOL0     H77320   4.442  -2.586   3.159 -0.9689  0.6576 -0.7847
  586MOL0     H77321   4.418  -2.695   3.029 -0.6025 -2.4791 -0.6196
  586MOL0     H77322   4.497  -2.895   3.114 -0.3920  0.4019 -0.7660
  586MOL0     H77323   4.504  -2.828   3.278  0.2479 -0.3653 -1.4184
  586MOL0     H77324   4.706  -2.872   3.201  2.2299  0.0015 -1.0902
  586MOL0     H77325   4.680  -2.763   3.052  3.6070 -1.1818 -0.5145
  586MOL0     H77326   4.688  -2.569   3.171 -1.9265 -0.4155 -0.2547
  586MOL0     H77327   4.831  -2.670   3.218 -0.4657 -1.1699 -2.1939
  586MOL0     H77328   4.716  -2.740   3.427  1.6250  3.0242  4.4591
  586MOL0     H77329   4.572  -2.658   3.387 -0.4529  0.3955 -1.5803
  586MOL0     H77330   4.698  -2.546   3.562  0.9446  2.9403  1.1908
  586MOL0     H77331   4.855  -2.532   3.475  0.6044  4.3316 -2.7373
  586MOL0     H77332   4.587  -2.392   3.394  0.1213  0.2724 -3.7818
  586MOL0     H77333   4.726  -2.396   3.298 -3.3032 -1.7324 -1.0787
  586MOL0     H77334   4.342  -2.520   3.351 -2.3414 -0.5726  3.9348
  586MOL0     H77335   4.325  -2.287   3.412 -0.0042 -2.0119  1.4236
  586MOL0     H77336   3.966  -1.907   3.443  0.4009 -0.1010 -0.0426
  586MOL0     H77337   4.005  -1.700   3.543  3.3449 -0.0839  2.1768
  586MOL0     H77338   4.960  -0.347   2.683  1.0967  0.4559  0.3818
  586MOL0     H77339   5.046  -0.092   2.718  0.3675  0.3731 -1.8204
  586MOL0     H77340   4.942   0.364   2.670 -0.2182 -1.0636  0.2285
  586MOL0     H77341   4.884   0.598   2.693  0.4626 -0.5039 -0.4932
  586MOL0     H77342   4.770   0.756   2.721 -0.3504  0.7581 -0.7649
  586MOL0     H77343   4.845   0.895   2.797  1.4382 -0.2582 -0.3894
  586MOL0     H77344   4.583   0.783   2.903  1.0212  0.6347  4.7517
  586MOL0     H77345   4.646   0.941   2.933 -2.2519  0.5953 -0.0926
  586MOL0     H77346   4.644   0.915   2.643  1.8603 -0.1173  0.8330
  586MOL0     H77347   4.598   1.049   2.749  1.0735  0.3357 -0.5764
  586MOL0     H77348   4.372   0.918   2.797 -1.6095 -0.1566 -0.8304
  586MOL0     H77349   4.413   1.003   2.640  1.2366  2.9718  2.3784
  586MOL0     H77350   4.387   0.573   2.558 -0.3633 -0.2388 -0.1939
  586MOL0     H77351   4.761   0.535   3.101  1.0675  1.1831  0.3660
  586MOL0     H77352   4.807   0.297   3.088  0.1226 -1.4282 -0.4400
  587MOL0     O77353   8.765   4.334   2.117  0.4283  0.6401  0.0920
  587MOL0     C77354   8.802   4.225   2.140  0.2692 -0.0631 -1.1078
  587MOL0     O77355   8.921   4.190   2.203  0.4029 -0.0381 -0.1876
  587MOL0     C77356   9.005   4.288   2.256 -0.0772 -0.1364 -1.0160
  587MOL0     C77357   8.964   4.404   2.329 -1.5929  0.2144 -0.5520
  587MOL0     C77358   9.063   4.496   2.371 -0.0789 -0.2359 -0.2337
  587MOL0     C77359   9.199   4.468   2.355  0.1108  0.2349 -0.2761
  587MOL0     O77360   9.293   4.567   2.392 -0.6080  0.3145  0.3154
  587MOL0     C77361   9.428   4.534   2.425  0.5328 -0.3103  0.5998
  587MOL0     C77362   9.504   4.656   2.462  0.2374  0.5869 -0.3591
  587MOL0     C77363   9.617   4.613   2.554  0.5589 -1.0785  0.0106
  587MOL0     C77364   9.705   4.728   2.620 -0.1157 -0.7393  0.4609
  587MOL0     C77365   9.782   4.679   2.748 -0.4687  0.0086  0.0705
  587MOL0     C77366   9.898   4.594   2.708 -0.1214  0.7933 -0.6487
  587MOL0     C77367  10.004   4.568   2.811 -0.3462 -1.0286 -0.1504
  587MOL0     C77368  10.145   4.619   2.786 -1.0129  1.1475 -0.6762
  587MOL0     N77369  10.146   4.761   2.742 -0.0001  0.1437 -0.1036
  587MOL0     C77370  10.164   4.858   2.832 -0.3326 -0.3739  0.6798
  587MOL0     C77371  10.211   4.968   2.753  1.1807  1.3779 -1.0337
  587MOL0     C77372  10.252   5.094   2.826 -1.3198 -0.1212  0.2860
  587MOL0     C77373  10.374   5.084   2.921  0.7958  1.1498 -0.0366
  587MOL0     C77374  10.508   5.095   2.849 -0.2927 -1.0925 -0.2284
  587MOL0     C77375  10.612   5.030   2.941 -0.5779  0.0943 -0.6023
  587MOL0     O77376  10.743   5.096   2.920 -0.1654  0.2801  0.5547
  587MOL0     C77377  10.843   5.080   3.012 -0.6708  0.4000  0.0945
  587MOL0     C77378  10.971   5.125   2.983 -0.1021  0.2200 -0.0831
  587MOL0     C77379  11.078   5.079   3.054  0.6450  0.6803 -0.4701
  587MOL0     C77380  11.072   4.988   3.164  0.2917  0.3352  0.1703
  587MOL0     C77381  11.183   4.923   3.240 -0.1425 -0.3597 -0.9538
  587MOL0     O77382  11.302   4.935   3.178  0.1751 -0.5904  0.7935
  587MOL0     C77383  11.414   4.887   3.241  0.6996 -1.2836 -0.4749
  587MOL0     C77384  11.472   4.760   3.203  0.6346 -0.7444  1.0397
  587MOL0     C77385  11.597   4.727   3.240 -0.5563  0.0603  0.3060
  587MOL0     C77386  11.674   4.816   3.319 -0.2448 -0.4833 -0.0159
  587MOL0     O77387  11.810   4.789   3.327 -0.0746 -0.1660  0.4757
  587MOL0     C77388  11.907   4.874   3.390 -0.1302 -0.2193 -1.3539
  587MOL0     C77389  12.046   4.824   3.357  0.0975  0.6752  0.0470
  587MOL0     C77390  12.151   4.931   3.375 -0.0565  0.5948 -0.5266
  587MOL0     C77391  12.292   4.880   3.326  0.1911  0.2090  0.6577
  587MOL0     C77392  12.401   4.993   3.359  0.2252  0.1764 -0.3673
  587MOL0     C77393  12.541   4.929   3.371  0.4380 -0.4172  0.3210
  587MOL0     C77394  12.578   4.841   3.247  1.0253  0.7217  0.8386
  587MOL0     C77395  12.719   4.807   3.241 -0.0146 -0.4937  1.2653
  587MOL0    Cl77396  12.792   4.744   3.393  0.0570 -0.0490 -0.1424
  587MOL0     C77397  11.624   4.941   3.353 -0.1326 -1.7145 -0.5659
  587MOL0     C77398  11.498   4.976   3.311  0.0648  0.3251  0.5079
  587MOL0     O77399  11.167   4.849   3.340  0.3473 -0.0129 -0.4894
  587MOL0     C77400  10.940   4.952   3.198  0.6652  0.3356 -1.5736
  587MOL0     C77401  10.829   4.999   3.123 -1.2633 -0.9555 -1.0670
  587MOL0     N77402  10.225   4.922   2.623 -0.6575  0.7725  0.2949
  587MOL0     N77403  10.192   4.798   2.622  0.8421  0.3444 -0.0248
  587MOL0     C77404   9.247   4.348   2.289  0.7549  0.8737  0.1402
  587MOL0     C77405   9.144   4.261   2.241  0.1487 -0.0898  0.1406
  587MOL0     C77406   8.721   4.109   2.098  0.2833  0.2596 -0.2287
  587MOL0     C77407   8.595   4.123   2.042  0.4237 -0.3600  0.3654
  587MOL0     C77408   8.525   4.008   2.001 -0.5353 -0.0896 -1.2515
  587MOL0     C77409   8.565   3.883   2.030 -0.2382  0.1384  0.3052
  587MOL0     O77410   8.493   3.775   1.984  0.5012  0.1036 -0.1502
  587MOL0     C77411   8.497   3.649   2.048  0.7787  0.9652 -0.2321
  587MOL0     C77412   8.407   3.540   1.985  0.0683  0.7048 -0.7192
  587MOL0     C77413   8.259   3.579   1.965 -0.0428 -0.3849  0.2818
  587MOL0     C77414   8.188   3.459   1.900 -0.2987  0.3706 -0.0361
  587MOL0     C77415   8.194   3.335   1.969 -0.3266  0.3998 -0.5941
  587MOL0     C77416   8.212   3.225   2.009  0.5248  0.1467 -0.6024
  587MOL0     C77417   8.690   3.867   2.082  0.3573 -0.1087  0.6342
  587MOL0     C77418   8.770   3.974   2.115 -0.3251  0.3619  0.1550
  587MOL0     H77419   8.857   4.415   2.347 -2.0268 -2.2736 -1.1228
  587MOL0     H77420   9.017   4.582   2.417  2.7263  0.4139  1.5244
  587MOL0     H77421   9.486   4.495   2.341  0.5797 -0.3919  0.6701
  587MOL0     H77422   9.427   4.453   2.498 -1.5785 -2.6579 -1.8104
  587MOL0     H77423   9.449   4.727   2.525  0.1360 -2.0617  2.8058
  587MOL0     H77424   9.547   4.715   2.380 -0.7308 -0.0464 -1.3445
  587MOL0     H77425   9.689   4.558   2.492  0.1217  0.5239 -2.0296
  587MOL0     H77426   9.579   4.549   2.634 -2.6598  2.4179  1.5659
  587MOL0     H77427   9.779   4.761   2.548 -0.9526  0.7439  0.2483
  587MOL0     H77428   9.638   4.812   2.640 -0.6972 -1.2072  0.5198
  587MOL0     H77429   9.720   4.633   2.825  2.8768 -0.1481  2.9368
  587MOL0     H77430   9.815   4.770   2.800  1.5051 -1.2386  1.1176
  587MOL0     H77431   9.947   4.653   2.630  0.7969  1.8821  0.7024
  587MOL0     H77432   9.857   4.501   2.667 -0.8533  1.3370 -1.1857
  587MOL0     H77433   9.975   4.625   2.900 -1.8574 -1.3726 -0.4023
  587MOL0     H77434  10.026   4.465   2.842  3.6510 -0.6647 -1.2167
  587MOL0     H77435  10.194   4.555   2.712  0.0145 -1.7549  2.2768
  587MOL0     H77436  10.191   4.605   2.885 -2.3272 -0.0305 -0.1956
  587MOL0     H77437  10.164   4.843   2.939  3.5481  0.4380  0.9251
  587MOL0     H77438  10.165   5.144   2.871 -0.2730  1.6646  0.4363
  587MOL0     H77439  10.292   5.163   2.751  2.8971 -0.8179  1.6010
  587MOL0     H77440  10.378   4.981   2.958  2.0826  0.8705 -0.8945
  587MOL0     H77441  10.360   5.162   2.997 -1.3860  0.8435 -0.0408
  587MOL0     H77442  10.509   5.052   2.748  4.4739 -1.5848 -0.2006
  587MOL0     H77443  10.519   5.202   2.835 -1.6045 -0.8439  0.4041
  587MOL0     H77444  10.601   4.924   2.919  0.4379 -0.7058  2.3575
  587MOL0     H77445  10.580   5.048   3.044 -1.0413 -3.6101  0.0243
  587MOL0     H77446  10.968   5.178   2.888 -2.7816 -1.5300 -1.0884
  587MOL0     H77447  11.174   5.110   3.013  0.2940  3.2302  0.4555
  587MOL0     H77448  11.420   4.693   3.135 -0.6289  1.8689 -0.7299
  587MOL0     H77449  11.640   4.630   3.216 -0.0216  0.4225 -0.2073
  587MOL0     H77450  11.883   4.859   3.496  2.1772 -0.8294 -0.8766
  587MOL0     H77451  11.893   4.981   3.372 -2.6152 -0.3230 -0.4529
  587MOL0     H77452  12.047   4.784   3.255 -0.7598 -0.6502  0.5284
  587MOL0     H77453  12.076   4.741   3.422 -0.2058  0.1921 -0.4169
  587MOL0     H77454  12.156   4.962   3.480 -0.2191  2.4055 -1.0122
  587MOL0     H77455  12.133   5.019   3.313 -0.9621 -2.3855 -4.8660
  587MOL0     H77456  12.310   4.790   3.385  1.7615 -0.0348 -0.1448
  587MOL0     H77457  12.291   4.855   3.220  1.2476  1.0444  0.4351
  587MOL0     H77458  12.376   5.032   3.458  2.0708  1.0291 -0.2073
  587MOL0     H77459  12.399   5.074   3.285 -2.0672  1.2772  0.7675
  587MOL0     H77460  12.544   4.861   3.457 -1.0426 -0.2588  0.5377
  587MOL0     H77461  12.614   5.010   3.378  0.1891 -0.3337  2.9034
  587MOL0     H77462  12.528   4.744   3.253  3.0255 -0.5016 -0.8235
  587MOL0     H77463  12.550   4.879   3.149 -1.0591 -1.4669  0.4976
  587MOL0     H77464  12.771   4.900   3.217  1.8557 -2.6313 -5.0307
  587MOL0     H77465  12.738   4.735   3.160 -1.3439 -1.4897  1.7889
  587MOL0     H77466  11.688   5.015   3.399  1.2731 -2.8758 -0.5874
  587MOL0     H77467  11.456   5.072   3.338 -2.4884  0.4837 -3.2706
  587MOL0     H77468  10.938   4.893   3.289  0.7388 -1.0162 -2.4065
  587MOL0     H77469  10.733   4.953   3.146 -2.2504  1.8423  1.0826
  587MOL0     H77470   9.352   4.339   2.267  0.2063  2.5694 -4.2435
  587MOL0     H77471   9.172   4.169   2.190 -1.7446  0.6357 -2.4090
  587MOL0     H77472   8.546   4.220   2.045 -0.2389 -0.7089  1.1948
  587MOL0     H77473   8.422   4.023   1.974 -1.1258 -2.3933 -0.4907
  587MOL0     H77474   8.477   3.666   2.154  3.1562  2.2944  0.0762
  587MOL0     H77475   8.601   3.614   2.049  2.8533  5.7940  4.5041
  587MOL0     H77476   8.448   3.509   1.888 -1.8635 -3.1350 -0.5033
  587MOL0     H77477   8.415   3.446   2.041 -1.5030  0.9519 -0.0344
  587MOL0     H77478   8.256   3.659   1.891  0.3354  0.1075  0.7966
  587MOL0     H77479   8.206   3.618   2.052 -1.6529 -0.0987 -0.7755
  587MOL0     H77480   8.082   3.482   1.886  0.0551  0.6240 -2.8236
  587MOL0     H77481   8.231   3.460   1.800 -0.9928  2.4449 -0.3484
  587MOL0     H77482   8.207   3.121   2.035 -1.6830  0.0782 -1.1078
  587MOL0     H77483   8.731   3.767   2.089  0.2597 -0.1541  0.5574
  587MOL0     H77484   8.871   3.963   2.153 -0.2126 -1.2328 -0.5492
  588MOL0     O77485   0.362   5.421   5.768  0.4040 -1.6753  0.1584
  588MOL0     C77486   0.435   5.351   5.843  0.1383  0.3701  0.4238
  588MOL0     O77487   0.385   5.252   5.920  0.3675  1.1473 -0.1538
  588MOL0     C77488   0.244   5.242   5.931 -0.2514  0.7496  0.7556
  588MOL0     C77489   0.172   5.175   5.837 -0.3512  0.6273 -0.5936
  588MOL0     C77490   0.033   5.160   5.854  0.4957 -0.9820 -0.6258
  588MOL0     C77491  -0.035   5.217   5.956  0.3235  0.1843 -0.3386
  588MOL0     O77492  -0.171   5.211   5.937 -0.1170  0.1344 -0.7593
  588MOL0     C77493  -0.250   5.301   6.012 -0.4894 -0.0887 -0.6038
  588MOL0     C77494  -0.396   5.276   5.995 -0.6602 -0.1392 -0.4054
  588MOL0     C77495  -0.472   5.346   6.097 -0.2477 -0.3386 -0.1636
  588MOL0     C77496  -0.633   5.317   6.087  0.8118  0.1065  0.1923
  588MOL0     C77497  -0.690   5.186   6.148  0.1202  0.0480 -1.1527
  588MOL0     C77498  -0.842   5.179   6.149  0.3889  0.5757  0.0211
  588MOL0     C77499  -0.877   5.122   6.289  0.5397  0.0550  0.4218
  588MOL0     C77500  -1.032   5.107   6.302  0.2551  1.0291  0.9703
  588MOL0     N77501  -1.073   5.069   6.435 -0.4514 -0.5976  0.0192
  588MOL0     C77502  -1.068   4.944   6.487 -0.5475  0.7866  0.3123
  588MOL0     C77503  -1.142   4.944   6.597  0.4519 -0.4526 -0.9993
  588MOL0     C77504  -1.209   4.825   6.669  0.1245 -0.7906  0.0806
  588MOL0     C77505  -1.325   4.772   6.584  1.1436  0.1216 -0.1142
  588MOL0     C77506  -1.431   4.872   6.544  0.6024 -0.4627  0.6007
  588MOL0     C77507  -1.494   4.921   6.679 -0.3861  0.2184  0.1544
  588MOL0     O77508  -1.533   4.821   6.771  0.4611 -0.3277  0.1874
  588MOL0     C77509  -1.669   4.802   6.776 -0.1839  0.6148  0.0739
  588MOL0     C77510  -1.716   4.699   6.692  0.2522 -0.5970 -0.0885
  588MOL0     C77511  -1.858   4.673   6.687  0.2552 -0.3049  0.4005
  588MOL0     C77512  -1.958   4.754   6.753 -1.0049  0.5331 -0.7405
  588MOL0     C77513  -2.100   4.726   6.752  0.2256 -0.2585  0.4648
  588MOL0     O77514  -2.179   4.792   6.837  0.3908  0.4261  0.3289
  588MOL0     C77515  -2.320   4.788   6.814  0.0017  0.3074 -0.2668
  588MOL0     C77516  -2.380   4.831   6.686 -0.9004  0.1055 -0.4952
  588MOL0     C77517  -2.515   4.852   6.670 -0.8147  0.0742  0.1582
  588MOL0     C77518  -2.597   4.837   6.785 -0.7592  0.1900  0.3985
  588MOL0     O77519  -2.729   4.854   6.788 -0.3040 -0.2402 -0.4348
  588MOL0     C77520  -2.803   4.793   6.678 -0.3953  0.0819  0.3135
  588MOL0     C77521  -2.947   4.831   6.696  1.0425 -0.4971  0.2113
  588MOL0     C77522  -3.030   4.768   6.593  0.4493  0.4091  0.8006
  588MOL0     C77523  -3.189   4.792   6.579  0.2586  0.4370 -1.3473
  588MOL0     C77524  -3.209   4.941   6.556  0.1121 -0.7586 -1.1500
  588MOL0     C77525  -3.355   4.972   6.579  0.2559 -0.1220  1.1456
  588MOL0     C77526  -3.363   5.120   6.554 -0.1105  0.0209 -0.4272
  588MOL0     C77527  -3.508   5.164   6.552 -0.0158  0.3068  0.1073
  588MOL0    Cl77528  -3.604   5.129   6.400 -0.1923 -0.2445  0.0622
  588MOL0     C77529  -2.539   4.816   6.910 -0.6876  0.2462 -0.2985
  588MOL0     C77530  -2.407   4.781   6.925  0.1808 -0.2813 -0.4253
  588MOL0     O77531  -2.137   4.651   6.658 -0.4282  0.2226 -0.3601
  588MOL0     C77532  -1.907   4.858   6.843  0.1286 -0.8544  1.1216
  588MOL0     C77533  -1.764   4.870   6.861 -0.1353  0.8485 -0.1282
  588MOL0     N77534  -1.197   5.067   6.620  0.7104 -0.7086 -0.1786
  588MOL0     N77535  -1.132   5.144   6.537  0.4367 -0.8197  0.1987
  588MOL0     C77536   0.040   5.300   6.050  0.9770  0.2728  0.8204
  588MOL0     C77537   0.182   5.309   6.036 -0.5426  0.9428 -0.0013
  588MOL0     C77538   0.577   5.372   5.848  1.1883  0.1715  0.1592
  588MOL0     C77539   0.641   5.485   5.789 -0.4809  0.8851  0.7713
  588MOL0     C77540   0.778   5.512   5.814 -0.8085 -0.0466  1.4865
  588MOL0     C77541   0.860   5.437   5.897  0.0827 -0.0335 -0.4865
  588MOL0     O77542   0.989   5.473   5.917 -0.6230 -0.5729  0.4762
  588MOL0     C77543   1.069   5.378   6.002 -0.6835 -0.1568  0.5077
  588MOL0     C77544   1.213   5.432   6.017 -0.5214 -0.8394 -0.6131
  588MOL0     C77545   1.229   5.513   6.146 -0.0439 -0.0410 -0.2612
  588MOL0     C77546   1.227   5.662   6.119  0.0895  1.8716 -0.1680
  588MOL0     C77547   1.267   5.734   6.245 -0.3092  0.9616 -0.7640
  588MOL0     C77548   1.308   5.785   6.349  0.8430  0.2938 -1.0574
  588MOL0     C77549   0.799   5.318   5.943 -0.0037  0.1901  0.7456
  588MOL0     C77550   0.666   5.287   5.929 -0.0896 -0.3529 -0.1657
  588MOL0     H77551   0.233   5.119   5.767  2.2920  0.3446  1.7595
  588MOL0     H77552  -0.024   5.100   5.784 -0.7847  0.3692 -0.7812
  588MOL0     H77553  -0.213   5.401   5.987  1.8685 -0.4989  0.9234
  588MOL0     H77554  -0.230   5.290   6.119  3.2960  1.3024 -1.0242
  588MOL0     H77555  -0.429   5.171   5.994  2.9841 -1.4288 -1.5492
  588MOL0     H77556  -0.427   5.316   5.898 -0.7182  0.3776 -0.1746
  588MOL0     H77557  -0.469   5.452   6.070  1.8808 -0.4069 -0.3111
  588MOL0     H77558  -0.441   5.331   6.200  0.6403  4.1907  0.4214
  588MOL0     H77559  -0.671   5.411   6.130  0.5906  0.6796 -1.2059
  588MOL0     H77560  -0.654   5.300   5.981  2.6981  0.6161 -0.2911
  588MOL0     H77561  -0.655   5.205   6.250 -1.8322 -0.7695 -0.2867
  588MOL0     H77562  -0.639   5.099   6.105 -0.5893 -0.3163 -1.2719
  588MOL0     H77563  -0.890   5.114   6.075  1.8091 -1.5465  0.8728
  588MOL0     H77564  -0.882   5.281   6.152 -1.4212 -0.1225  0.6410
  588MOL0     H77565  -0.829   5.024   6.299 -0.3920 -0.5377 -0.6459
  588MOL0     H77566  -0.834   5.184   6.368  0.3193  2.4308 -1.2199
  588MOL0     H77567  -1.074   5.042   6.224  1.5690  0.0371  1.0602
  588MOL0     H77568  -1.064   5.210   6.280 -0.5343  0.8477  1.2296
  588MOL0     H77569  -1.023   4.851   6.453 -1.0741  0.0290  1.6429
  588MOL0     H77570  -1.250   4.854   6.766  0.0037  1.2896 -0.5389
  588MOL0     H77571  -1.142   4.742   6.694  0.6970 -0.2498  0.3907
  588MOL0     H77572  -1.369   4.685   6.633 -1.2032  0.6389 -1.2121
  588MOL0     H77573  -1.281   4.748   6.487  1.8140  0.7318  0.0251
  588MOL0     H77574  -1.385   4.943   6.476 -1.8204  1.4970  0.8474
  588MOL0     H77575  -1.511   4.815   6.496 -1.7539  1.8241  1.5562
  588MOL0     H77576  -1.584   4.983   6.669 -2.1321 -2.0986  0.7562
  588MOL0     H77577  -1.416   4.981   6.727  0.1789 -1.5999  1.6144
  588MOL0     H77578  -1.647   4.646   6.629  1.3731  0.2364  0.4062
  588MOL0     H77579  -1.887   4.600   6.612  0.6284  1.3668 -1.4837
  588MOL0     H77580  -2.332   4.847   6.590 -1.9407  3.6528 -0.5768
  588MOL0     H77581  -2.552   4.878   6.572 -0.2489  0.4306  0.0384
  588MOL0     H77582  -2.781   4.687   6.691  0.3195  0.3593  1.4746
  588MOL0     H77583  -2.772   4.816   6.576 -2.1091  0.1649 -0.2221
  588MOL0     H77584  -2.963   4.937   6.673  0.0090 -1.0208 -1.6523
  588MOL0     H77585  -2.993   4.803   6.792 -0.3965 -0.7555 -0.5265
  588MOL0     H77586  -3.006   4.662   6.599  3.0804  0.7504 -1.7237
  588MOL0     H77587  -2.992   4.800   6.496 -3.1966  0.5772 -0.7350
  588MOL0     H77588  -3.222   4.737   6.491  2.5915 -2.2356 -0.6684
  588MOL0     H77589  -3.228   4.754   6.674  0.8962 -0.4943 -1.4414
  588MOL0     H77590  -3.190   4.967   6.451  1.1496  2.3840 -0.2869
  588MOL0     H77591  -3.147   5.006   6.619  2.1866 -1.7645 -2.0625
  588MOL0     H77592  -3.381   4.955   6.684  0.1281  2.9690  1.7112
  588MOL0     H77593  -3.419   4.921   6.506  0.8006  2.6728 -1.5248
  588MOL0     H77594  -3.314   5.177   6.633 -1.3104  2.6651 -1.4979
  588MOL0     H77595  -3.314   5.148   6.460 -0.6700  0.0573 -0.7089
  588MOL0     H77596  -3.521   5.271   6.573 -0.4240  0.3682 -0.4426
  588MOL0     H77597  -3.554   5.106   6.633  2.4398 -0.8514  0.7457
  588MOL0     H77598  -2.606   4.825   6.995 -0.2053 -0.6429  0.1862
  588MOL0     H77599  -2.366   4.771   7.025  1.0467 -0.9092 -0.8282
  588MOL0     H77600  -1.981   4.919   6.894  0.3683  0.7317 -0.3231
  588MOL0     H77601  -1.727   4.943   6.932 -0.2298 -0.5560  1.4357
  588MOL0     H77602  -0.017   5.346   6.131  1.9323  1.6050  0.7675
  588MOL0     H77603   0.247   5.363   6.105 -0.2762  0.6108  0.0101
  588MOL0     H77604   0.587   5.555   5.725  0.1618 -0.0365 -0.8419
  588MOL0     H77605   0.809   5.597   5.754 -2.6461 -0.4077 -0.0786
  588MOL0     H77606   1.076   5.282   5.950  0.3505 -0.5755  1.3919
  588MOL0     H77607   1.025   5.368   6.102  3.0195  1.4639  2.4882
  588MOL0     H77608   1.298   5.363   6.019  0.2832  0.1030  1.7261
  588MOL0     H77609   1.227   5.494   5.928  0.3117  3.0369  1.9853
  588MOL0     H77610   1.325   5.496   6.195  0.1202 -1.0931 -0.9132
  588MOL0     H77611   1.157   5.499   6.227  0.1520  3.7035  0.7795
  588MOL0     H77612   1.272   5.692   6.024 -0.4795  0.0126 -1.0543
  588MOL0     H77613   1.120   5.683   6.118 -0.4725 -0.6406 -0.0526
  588MOL0     H77614   1.340   5.841   6.435 -1.1251  2.5453 -1.6858
  588MOL0     H77615   0.846   5.243   6.006 -1.1426  0.7491  2.3248
  588MOL0     H77616   0.623   5.202   5.982 -1.0038 -1.1277 -2.0509
  589MOL0     O77617   1.527   0.716   3.439 -0.5364  0.8052 -0.6507
  589MOL0     C77618   1.437   0.640   3.397 -1.3803 -0.6382  0.1587
  589MOL0     O77619   1.434   0.581   3.272 -0.3008 -0.5841  0.5154
  589MOL0     C77620   1.538   0.585   3.181  0.0205  0.7536 -0.2312
  589MOL0     C77621   1.666   0.649   3.184 -0.4855  0.7540  0.1130
  589MOL0     C77622   1.756   0.628   3.082 -1.0445  0.3249  0.7143
  589MOL0     C77623   1.713   0.560   2.968  0.4641  0.7047 -0.2606
  589MOL0     O77624   1.802   0.532   2.864  0.2838  0.6974 -0.1824
  589MOL0     C77625   1.876   0.642   2.806 -0.2041 -0.2882 -0.3525
  589MOL0     C77626   1.831   0.677   2.657 -0.7810  0.5401 -0.6165
  589MOL0     C77627   1.936   0.760   2.583 -0.0854  0.0859 -0.1746
  589MOL0     C77628   1.905   0.776   2.430  0.1058 -1.0183 -0.5542
  589MOL0     C77629   2.019   0.822   2.345  0.1186 -0.8956  0.6346
  589MOL0     C77630   1.970   0.827   2.195 -0.8618 -0.7467  0.2998
  589MOL0     C77631   2.075   0.869   2.083  0.4883  0.3835  0.0066
  589MOL0     C77632   2.216   0.796   2.095 -0.2173 -0.7813  0.4334
  589MOL0     N77633   2.307   0.874   2.182 -0.1207 -0.6162 -0.6241
  589MOL0     C77634   2.358   0.822   2.298  0.0742 -0.2283 -0.2121
  589MOL0     C77635   2.441   0.911   2.355 -0.0591  0.5097 -0.2951
  589MOL0     C77636   2.519   0.910   2.485  0.9193 -0.2515 -1.0722
  589MOL0     C77637   2.437   0.899   2.614  0.1053 -0.2239 -0.0100
  589MOL0     C77638   2.361   1.026   2.642  0.3395 -0.5859 -0.1353
  589MOL0     C77639   2.261   1.008   2.760  0.4906  0.5133  0.4134
  589MOL0     O77640   2.330   0.984   2.886  1.3070 -0.8640  0.0177
  589MOL0     C77641   2.259   0.962   3.001  0.3457  1.4320  0.5023
  589MOL0     C77642   2.331   0.953   3.121  0.1935  0.5136 -1.3178
  589MOL0     C77643   2.260   0.922   3.242  0.0179  0.3087  0.1977
  589MOL0     C77644   2.116   0.910   3.245 -0.1643 -0.5547  0.5665
  589MOL0     C77645   2.043   0.874   3.372  0.2033  0.7781  0.4193
  589MOL0     O77646   2.120   0.817   3.473 -0.2849 -0.4649  0.3173
  589MOL0     C77647   2.072   0.815   3.603  0.1609  0.1113 -0.7276
  589MOL0     C77648   2.165   0.818   3.711 -0.2472  0.3567 -0.8189
  589MOL0     C77649   2.130   0.810   3.848  0.5413  0.7190  0.7845
  589MOL0     C77650   2.004   0.802   3.882  0.5462 -0.6236  0.6568
  589MOL0     O77651   1.982   0.788   4.020  0.0065 -0.3392 -0.6097
  589MOL0     C77652   1.851   0.795   4.079  0.5959 -0.1384  0.0284
  589MOL0     C77653   1.846   0.775   4.235 -0.0249  0.2130 -0.2415
  589MOL0     C77654   1.968   0.829   4.304  0.2024 -0.1979 -0.3560
  589MOL0     C77655   1.979   0.980   4.285 -0.4144 -0.2156  0.6736
  589MOL0     C77656   2.085   1.054   4.370 -0.1391  0.3954 -0.5348
  589MOL0     C77657   2.221   0.996   4.372  0.2722 -0.2674  0.1567
  589MOL0     C77658   2.311   1.082   4.469  0.3312  0.0801  0.2543
  589MOL0     C77659   2.345   1.222   4.419  0.0977  0.9537 -0.0746
  589MOL0    Cl77660   2.438   1.221   4.269  0.1818 -0.4181 -0.3343
  589MOL0     C77661   1.908   0.796   3.785  0.7167 -0.3509  0.3196
  589MOL0     C77662   1.941   0.800   3.649 -0.3047 -0.7895  0.3061
  589MOL0     O77663   1.921   0.879   3.374 -0.2547  0.2380 -0.6987
  589MOL0     C77664   2.043   0.917   3.123 -1.1219  0.0712 -0.3868
  589MOL0     C77665   2.115   0.938   3.003 -0.8351  0.1291  0.1713
  589MOL0     N77666   2.440   1.018   2.263  0.9543  0.4363 -0.0920
  589MOL0     N77667   2.370   0.993   2.151 -0.6877  1.2507  0.0277
  589MOL0     C77668   1.586   0.508   2.955 -0.4788 -0.5927  0.3081
  589MOL0     C77669   1.505   0.522   3.062  0.2889  0.7002 -0.1871
  589MOL0     C77670   1.329   0.598   3.492 -0.1010 -0.5626  0.1252
  589MOL0     C77671   1.283   0.693   3.597 -0.8443  0.7818 -0.4542
  589MOL0     C77672   1.168   0.659   3.671  0.2194  1.0326  0.2649
  589MOL0     C77673   1.099   0.541   3.648  0.3721  0.4636 -1.1627
  589MOL0     O77674   0.979   0.531   3.715  0.6414 -0.2201  0.5176
  589MOL0     C77675   0.919   0.403   3.716  0.6075 -0.7586  0.4551
  589MOL0     C77676   0.825   0.395   3.836  0.1092 -0.5150  0.1151
  589MOL0     C77677   0.893   0.387   3.973 -0.9402  0.6586 -0.2594
  589MOL0     C77678   0.851   0.502   4.055 -0.4616  0.2372 -0.4715
  589MOL0     C77679   0.931   0.500   4.184  0.8574 -0.2844  0.5221
  589MOL0     C77680   0.988   0.479   4.291  0.1846  0.6229 -0.5177
  589MOL0     C77681   1.148   0.446   3.556  0.2803 -0.2165  0.7950
  589MOL0     C77682   1.262   0.473   3.469  0.6437 -0.1088  0.4841
  589MOL0     H77683   1.686   0.713   3.269 -2.4528 -0.0441  1.2427
  589MOL0     H77684   1.861   0.656   3.090  0.3166 -3.8560 -0.2710
  589MOL0     H77685   1.979   0.617   2.833  0.3374 -0.6261 -2.5236
  589MOL0     H77686   1.844   0.732   2.859  0.4857  0.8583 -1.8007
  589MOL0     H77687   1.734   0.727   2.658 -1.0766 -0.0114  0.2552
  589MOL0     H77688   1.807   0.588   2.599 -2.0301  0.6405 -0.2806
  589MOL0     H77689   2.036   0.717   2.592 -1.1127 -1.9584  3.2547
  589MOL0     H77690   1.945   0.863   2.620  2.1885  0.0776 -0.5309
  589MOL0     H77691   1.879   0.678   2.390  1.5095 -1.8562  0.4902
  589MOL0     H77692   1.816   0.834   2.404  0.3290 -0.8252 -0.8916
  589MOL0     H77693   2.102   0.754   2.365 -1.3737 -2.5562  1.4863
  589MOL0     H77694   2.043   0.925   2.374  1.8931 -1.3283  0.7987
  589MOL0     H77695   1.884   0.894   2.187 -2.3657 -2.6800 -0.6960
  589MOL0     H77696   1.936   0.727   2.168  0.7600 -0.7819 -1.8513
  589MOL0     H77697   2.030   0.849   1.985  0.2930 -3.2467  0.7232
  589MOL0     H77698   2.086   0.978   2.079  0.7015  0.3954  0.7906
  589MOL0     H77699   2.266   0.772   2.001 -0.5248 -0.8154  0.2782
  589MOL0     H77700   2.209   0.697   2.141  1.8363 -1.4856 -0.6241
  589MOL0     H77701   2.335   0.725   2.341 -1.4322  1.4658  3.2456
  589MOL0     H77702   2.570   1.007   2.485  2.6863 -1.1418 -1.1484
  589MOL0     H77703   2.593   0.830   2.481 -0.9252 -1.9949 -2.3166
  589MOL0     H77704   2.502   0.879   2.699  0.9659  0.9563 -0.3721
  589MOL0     H77705   2.371   0.813   2.601  0.0167 -0.0116 -1.0618
  589MOL0     H77706   2.435   1.104   2.665  0.0456 -0.8370  1.8972
  589MOL0     H77707   2.302   1.039   2.552  0.6272 -0.2159 -0.2753
  589MOL0     H77708   2.195   0.930   2.721  0.8315 -0.1475  1.1373
  589MOL0     H77709   2.205   1.102   2.762 -0.3158  0.0979 -1.0709
  589MOL0     H77710   2.439   0.948   3.125  0.1748 -4.0440  2.7031
  589MOL0     H77711   2.310   0.895   3.335 -0.4890 -3.6786 -0.5149
  589MOL0     H77712   2.267   0.839   3.681 -0.0756  1.5183  0.4324
  589MOL0     H77713   2.216   0.814   3.915  2.9613  0.6939 -2.0903
  589MOL0     H77714   1.784   0.722   4.034  2.2628 -1.6356 -0.0985
  589MOL0     H77715   1.809   0.896   4.075  2.1787  0.5038 -3.2655
  589MOL0     H77716   1.850   0.667   4.245  0.7163 -0.1569 -3.4012
  589MOL0     H77717   1.750   0.809   4.275 -1.4472 -4.0632  0.4064
  589MOL0     H77718   2.062   0.774   4.295  1.0605  0.7023  2.1619
  589MOL0     H77719   1.952   0.821   4.412 -0.4519 -1.7119 -0.5400
  589MOL0     H77720   2.020   0.989   4.184  0.1958 -1.4449  0.7939
  589MOL0     H77721   1.884   1.034   4.294  2.2998  5.9281 -1.8434
  589MOL0     H77722   2.054   1.062   4.475  1.6420 -1.8586  0.2584
  589MOL0     H77723   2.089   1.153   4.324 -0.4200  0.2189 -0.9385
  589MOL0     H77724   2.264   0.996   4.271  1.7718  1.8839  0.7159
  589MOL0     H77725   2.210   0.894   4.408  0.3044 -0.5654 -0.6518
  589MOL0     H77726   2.263   1.108   4.564  0.5797  1.1243  0.0966
  589MOL0     H77727   2.408   1.035   4.490 -0.2062 -1.2627 -0.1262
  589MOL0     H77728   2.396   1.264   4.506 -0.2010  3.6986 -1.1176
  589MOL0     H77729   2.247   1.269   4.404 -0.3164  0.9966  2.4459
  589MOL0     H77730   1.801   0.798   3.802  0.3195 -2.5343 -1.4389
  589MOL0     H77731   1.854   0.810   3.585 -1.1167  1.2576  1.6338
  589MOL0     H77732   1.935   0.907   3.120 -1.5421  3.6635 -1.9452
  589MOL0     H77733   2.051   0.937   2.915  1.3056  2.9340 -1.5627
  589MOL0     H77734   1.561   0.458   2.862  2.0570 -1.9656  0.2901
  589MOL0     H77735   1.409   0.472   3.065  0.2938  0.6844 -0.2940
  589MOL0     H77736   1.349   0.776   3.624  0.1321 -0.3817  0.8813
  589MOL0     H77737   1.123   0.718   3.750 -3.0153 -0.2835 -0.4111
  589MOL0     H77738   0.995   0.325   3.726  1.3690  0.0162  0.7719
  589MOL0     H77739   0.867   0.381   3.623  1.3293 -3.2857  0.5738
  589MOL0     H77740   0.743   0.466   3.849  1.0641  0.1514  3.4958
  589MOL0     H77741   0.774   0.300   3.818 -1.5932  0.4710 -0.5006
  589MOL0     H77742   1.001   0.386   3.954 -0.3359  0.9899  2.6546
  589MOL0     H77743   0.859   0.295   4.022  2.2732 -1.5257 -1.8216
  589MOL0     H77744   0.878   0.596   4.006 -3.1338  0.7602 -1.0700
  589MOL0     H77745   0.750   0.512   4.095  0.2596  0.7119  1.3540
  589MOL0     H77746   1.021   0.453   4.390  0.0041  1.1674 -0.3088
  589MOL0     H77747   1.086   0.359   3.537 -1.0163  1.1528 -1.7053
  589MOL0     H77748   1.301   0.401   3.398  1.3913  0.1927  0.5805
  590MOL0     O77749   3.352   5.420  10.756  0.2102  0.1332 -0.0218
  590MOL0     C77750   3.344   5.547  10.755 -0.1106  0.2638 -0.2519
  590MOL0     O77751   3.415   5.624  10.668  0.0278 -0.7884 -0.1106
  590MOL0     C77752   3.513   5.582  10.587 -0.7001 -0.0120  0.4136
  590MOL0     C77753   3.540   5.667  10.481  0.7582 -0.9727  0.2255
  590MOL0     C77754   3.640   5.643  10.384  0.1746  0.3270  0.5494
  590MOL0     C77755   3.731   5.540  10.416  0.7481 -0.6179 -0.7994
  590MOL0     O77756   3.837   5.531  10.329  0.1066 -0.6247  0.0656
  590MOL0     C77757   3.824   5.437  10.223  0.0314  0.5379 -0.3364
  590MOL0     C77758   3.952   5.352  10.242  0.8114  0.4305  0.9327
  590MOL0     C77759   3.971   5.268  10.111 -0.2059  1.0552 -0.8558
  590MOL0     C77760   3.878   5.147  10.095 -0.3688  0.2508  1.1675
  590MOL0     C77761   3.905   5.062   9.964  0.0303 -0.0214  0.9847
  590MOL0     C77762   4.020   4.962   9.981 -0.1862 -0.3953  0.0296
  590MOL0     C77763   3.974   4.827  10.031  0.3293  1.1074  0.0018
  590MOL0     C77764   3.888   4.750   9.944 -0.3103  0.4067  0.8976
  590MOL0     N77765   3.899   4.603   9.965  0.1518 -0.5473 -0.0803
  590MOL0     C77766   3.987   4.512   9.907  0.4661  0.1696  1.0604
  590MOL0     C77767   3.958   4.395   9.960 -0.9295 -0.4060  0.9555
  590MOL0     C77768   4.027   4.270   9.922 -0.4185  0.4814 -0.9836
  590MOL0     C77769   4.086   4.196  10.049 -1.1945  0.3058  0.2407
  590MOL0     C77770   4.107   4.053  10.014 -0.6076  0.1339  0.1119
  590MOL0     C77771   4.155   3.958  10.120 -1.0047 -0.4026 -0.6772
  590MOL0     O77772   4.060   3.937  10.223 -0.1520  0.3167  0.2617
  590MOL0     C77773   4.046   3.809  10.279  0.3583 -0.5709 -0.7237
  590MOL0     C77774   3.965   3.815  10.392  0.7059  0.4926  0.6882
  590MOL0     C77775   3.958   3.694  10.472  0.4442 -0.0608 -0.2924
  590MOL0     C77776   4.025   3.577  10.450 -0.3749 -0.4157  0.3284
  590MOL0     C77777   4.004   3.454  10.523 -0.5851 -0.0772 -1.1713
  590MOL0     O77778   3.931   3.453  10.643 -0.1025 -0.4701 -0.2993
  590MOL0     C77779   3.900   3.333  10.707 -0.0852 -0.0682  0.7389
  590MOL0     C77780   3.861   3.342  10.840  0.1385  0.9465  0.7709
  590MOL0     C77781   3.818   3.230  10.920  0.3631 -0.9163  0.8149
  590MOL0     C77782   3.812   3.103  10.861 -0.1045 -0.1051 -0.9921
  590MOL0     O77783   3.777   2.984  10.915  0.1621 -0.0318 -0.2555
  590MOL0     C77784   3.675   2.980  11.007  0.4956 -0.0495 -0.3976
  590MOL0     C77785   3.662   2.834  11.034  0.7121  0.0972 -0.1034
  590MOL0     C77786   3.582   2.798  11.160  0.1342  0.4163 -0.4735
  590MOL0     C77787   3.549   2.645  11.143  0.8372 -0.0605 -0.8481
  590MOL0     C77788   3.526   2.582  11.281  1.1192 -0.8267 -0.4959
  590MOL0     C77789   3.436   2.457  11.266 -0.2964 -0.4612  0.3607
  590MOL0     C77790   3.403   2.399  11.404  0.4162 -0.0293 -0.3152
  590MOL0     C77791   3.329   2.262  11.397  0.7941 -0.8225 -0.3177
  590MOL0    Cl77792   3.154   2.292  11.358 -0.0417  0.3595  0.0010
  590MOL0     C77793   3.869   3.101  10.729  0.5056 -0.0259  0.4293
  590MOL0     C77794   3.909   3.201  10.650  0.3729 -0.3596  0.2241
  590MOL0     O77795   4.051   3.359  10.465  0.0576 -0.5107  0.3041
  590MOL0     C77796   4.107   3.581  10.331  0.4033  0.2533 -0.5519
  590MOL0     C77797   4.117   3.697  10.255  0.5122 -0.1914  0.2980
  590MOL0     N77798   3.850   4.409  10.046 -0.1538  0.2700  0.3123
  590MOL0     N77799   3.812   4.530  10.042  0.1887  0.4782 -0.1225
  590MOL0     C77800   3.722   5.454  10.528  0.1973  0.2293 -0.9546
  590MOL0     C77801   3.623   5.489  10.618  0.7689 -0.6329  0.1345
  590MOL0     C77802   3.259   5.607  10.854 -0.2218 -0.1703 -0.8173
  590MOL0     C77803   3.158   5.542  10.927  0.0959 -0.4657 -0.2914
  590MOL0     C77804   3.064   5.620  11.002 -0.2923 -0.2655  0.3190
  590MOL0     C77805   3.079   5.758  11.006  0.7287  1.4076  0.0928
  590MOL0     O77806   2.999   5.852  11.068  0.2572 -0.7080 -0.8468
  590MOL0     C77807   2.884   5.808  11.146  0.3311 -1.0642 -0.1933
  590MOL0     C77808   2.828   5.927  11.222 -1.0229 -0.1532  0.1791
  590MOL0     C77809   2.683   5.896  11.283  0.4641  0.2480 -0.7118
  590MOL0     C77810   2.599   6.017  11.286  0.3069 -0.1939  0.4496
  590MOL0     C77811   2.476   5.980  11.354 -0.5764 -1.0833 -0.7188
  590MOL0     C77812   2.372   5.942  11.414  0.0267 -0.1182 -0.1581
  590MOL0     C77813   3.178   5.821  10.952 -0.3360 -0.0667  0.6138
  590MOL0     C77814   3.273   5.752  10.880 -0.0549  0.4353  0.3684
  590MOL0     H77815   3.464   5.738  10.450  0.2470 -2.3699 -1.8799
  590MOL0     H77816   3.655   5.715  10.305  1.0813  1.9743  2.1417
  590MOL0     H77817   3.823   5.485  10.125  0.0314  0.0338 -0.5884
  590MOL0     H77818   3.736   5.373  10.237  1.5259 -1.8154 -1.1715
  590MOL0     H77819   3.943   5.283  10.327  1.9102 -0.4492  0.3667
  590MOL0     H77820   4.040   5.411  10.267 -0.6121  1.0117  5.7204
  590MOL0     H77821   4.070   5.222  10.120 -1.4632 -1.3459  3.6700
  590MOL0     H77822   3.964   5.336  10.025 -0.4052  0.3116 -1.4461
  590MOL0     H77823   3.875   5.071  10.173  0.5366  0.3955  1.3483
  590MOL0     H77824   3.774   5.180  10.083 -0.8660 -2.0731 -2.7323
  590MOL0     H77825   3.934   5.136   9.889 -3.0122  1.2168  0.8795
  590MOL0     H77826   3.811   5.018   9.929 -0.9431  0.6605  2.6300
  590MOL0     H77827   4.093   4.998  10.055 -1.3454  0.4153  0.8127
  590MOL0     H77828   4.069   4.956   9.884  0.4814  1.0875  0.2464
  590MOL0     H77829   4.061   4.764  10.052 -0.4436 -0.5256 -1.4782
  590MOL0     H77830   3.916   4.844  10.122 -2.8646 -0.2568 -1.6463
  590MOL0     H77831   3.910   4.768   9.838 -0.4058 -1.8828  0.4413
  590MOL0     H77832   3.785   4.778   9.966 -1.3454 -3.0906  1.1324
  590MOL0     H77833   4.059   4.536   9.830  0.3924 -1.0055  0.6022
  590MOL0     H77834   4.103   4.283   9.844 -0.6032 -0.2894 -1.3067
  590MOL0     H77835   3.951   4.202   9.881 -1.1894 -0.3498  1.6538
  590MOL0     H77836   4.003   4.198  10.120 -1.8403 -0.6441 -0.4481
  590MOL0     H77837   4.173   4.247  10.090 -1.6836  0.8632  0.6003
  590MOL0     H77838   4.006   4.026   9.979 -1.5987  2.4084  1.0358
  590MOL0     H77839   4.180   4.054   9.933 -0.3676  3.5938  0.2262
  590MOL0     H77840   4.233   4.005  10.180 -3.8692  0.4951  2.6823
  590MOL0     H77841   4.204   3.872  10.073  1.5100  0.4129  0.2619
  590MOL0     H77842   3.896   3.895  10.420 -3.2699 -1.8546 -1.4113
  590MOL0     H77843   3.894   3.708  10.559 -0.7925 -0.1659 -1.1631
  590MOL0     H77844   3.871   3.436  10.894 -0.4711  2.4953 -1.6880
  590MOL0     H77845   3.786   3.241  11.023 -0.2493 -2.1504  0.7645
  590MOL0     H77846   3.579   3.016  10.968 -0.2082 -1.0348  0.3542
  590MOL0     H77847   3.718   3.036  11.090  1.1168 -0.8428 -0.1641
  590MOL0     H77848   3.762   2.791  11.048  0.6734 -0.2601 -0.8985
  590MOL0     H77849   3.609   2.782  10.954  0.3388 -0.2500  0.3631
  590MOL0     H77850   3.490   2.857  11.156  0.1589  0.7026  1.7992
  590MOL0     H77851   3.645   2.825  11.245  1.5285 -0.7982 -1.0789
  590MOL0     H77852   3.456   2.626  11.089 -0.8269  2.5898  0.8960
  590MOL0     H77853   3.616   2.592  11.074 -0.7764  1.9941 -4.2521
  590MOL0     H77854   3.466   2.647  11.345  5.5086 -0.2235  3.5764
  590MOL0     H77855   3.614   2.551  11.337  0.9386  1.1455  0.9817
  590MOL0     H77856   3.503   2.384  11.220 -0.9454 -0.7756 -0.0862
  590MOL0     H77857   3.341   2.473  11.216 -0.1946 -1.0107 -0.0072
  590MOL0     H77858   3.493   2.379  11.462  0.9071  2.3412 -0.1353
  590MOL0     H77859   3.340   2.473  11.455 -1.7483 -1.3090 -0.9797
  590MOL0     H77860   3.334   2.219  11.497 -0.0998 -3.0629 -1.1955
  590MOL0     H77861   3.358   2.183  11.327 -1.4962 -1.2477 -0.8571
  590MOL0     H77862   3.868   2.998  10.697 -2.3225 -0.4279  1.5587
  590MOL0     H77863   3.942   3.181  10.549 -0.6150  1.0809 -0.4232
  590MOL0     H77864   4.170   3.498  10.300 -0.6434 -0.1668 -1.6217
  590MOL0     H77865   4.177   3.688  10.165 -1.1262 -1.3157 -0.7407
  590MOL0     H77866   3.799   5.379  10.542  0.8715  1.3302  2.0230
  590MOL0     H77867   3.628   5.446  10.718  0.8202  2.9720  1.8642
  590MOL0     H77868   3.153   5.434  10.915  0.4327 -0.5968  0.6827
  590MOL0     H77869   2.971   5.581  11.040 -2.1492  1.8502 -1.7432
  590MOL0     H77870   2.910   5.723  11.211  0.3083 -0.9961 -0.0935
  590MOL0     H77871   2.812   5.764  11.076  1.7304 -3.9502  0.0455
  590MOL0     H77872   2.910   5.960  11.287  1.6117  0.5575 -3.2073
  590MOL0     H77873   2.822   6.022  11.170 -2.0108 -0.0974  0.3740
  590MOL0     H77874   2.684   5.853  11.384  1.0007 -0.5851 -1.0577
  590MOL0     H77875   2.633   5.829  11.212 -0.8701  1.9684 -1.4701
  590MOL0     H77876   2.650   6.097  11.340 -2.7166  1.7396  0.6683
  590MOL0     H77877   2.593   6.050  11.182 -0.0063  2.2393  1.1797
  590MOL0     H77878   2.276   5.907  11.445  0.7436 -2.7578 -0.6864
  590MOL0     H77879   3.188   5.928  10.940  0.3032 -0.1017  0.8340
  590MOL0     H77880   3.344   5.805  10.816 -0.0453  1.3808  1.1325
  591MOL0     O77881   7.536   9.859   4.903 -0.3326 -0.1381 -0.8790
  591MOL0     C77882   7.546   9.862   4.781 -0.7264  0.6886 -1.8756
  591MOL0     O77883   7.512   9.752   4.701 -0.4537 -0.1190  0.6064
  591MOL0     C77884   7.457   9.642   4.759  0.1607 -0.4912  0.0275
  591MOL0     C77885   7.487   9.527   4.690  0.8835 -0.6578  0.0135
  591MOL0     C77886   7.424   9.409   4.709  0.3943  0.2934 -1.1184
  591MOL0     C77887   7.350   9.396   4.830 -0.0156  1.3928  0.4985
  591MOL0     O77888   7.297   9.264   4.855  0.1390 -0.4164 -0.2022
  591MOL0     C77889   7.201   9.235   4.962 -0.0066  0.5743  0.4343
  591MOL0     C77890   7.140   9.103   4.926  1.5540  0.5548 -0.1542
  591MOL0     C77891   7.017   9.133   4.839  0.2593 -0.2229 -0.2281
  591MOL0     C77892   6.890   9.143   4.930  0.0658 -0.2551 -0.0474
  591MOL0     C77893   6.766   9.201   4.850  0.3920 -0.2188 -0.2385
  591MOL0     C77894   6.671   9.283   4.945  0.2350  0.4822  0.1190
  591MOL0     C77895   6.521   9.277   4.901  0.3897  0.3860  0.0210
  591MOL0     C77896   6.495   9.365   4.776  0.1245 -0.0508  0.4612
  591MOL0     N77897   6.362   9.351   4.717  0.2323 -0.0287  0.0342
  591MOL0     C77898   6.247   9.345   4.791  0.6575 -1.1967  0.4436
  591MOL0     C77899   6.149   9.367   4.696 -0.1826  0.6209  0.1008
  591MOL0     C77900   6.000   9.367   4.720  0.3854  0.8966  0.9338
  591MOL0     C77901   5.924   9.223   4.689 -0.7595  1.0180 -0.3811
  591MOL0     C77902   5.959   9.117   4.794 -1.2213 -0.1998 -0.3683
  591MOL0     C77903   5.889   9.106   4.925 -0.7533 -0.2040  0.1771
  591MOL0     O77904   5.748   9.135   4.899 -0.5465  0.0781  0.2683
  591MOL0     C77905   5.656   9.039   4.865 -0.2109  0.5069  0.1116
  591MOL0     C77906   5.691   8.904   4.854  0.0078 -0.3279 -0.2912
  591MOL0     C77907   5.594   8.801   4.822 -0.2841  0.3969  0.2811
  591MOL0     C77908   5.460   8.846   4.817 -0.7326 -0.1363  1.0539
  591MOL0     C77909   5.346   8.746   4.790  0.8308 -0.8974  0.3144
  591MOL0     O77910   5.228   8.802   4.752 -0.1809  0.4651 -0.3800
  591MOL0     C77911   5.108   8.734   4.767 -0.9853  0.3474  0.0687
  591MOL0     C77912   4.993   8.813   4.740 -0.0669  0.7519  0.3371
  591MOL0     C77913   4.863   8.767   4.742 -0.8763 -0.3429 -0.0171
  591MOL0     C77914   4.851   8.641   4.768  0.1755  0.2967 -0.3719
  591MOL0     O77915   4.731   8.572   4.769  0.2197  0.2654  0.0141
  591MOL0     C77916   4.642   8.609   4.671  0.7477  0.0582  0.5218
  591MOL0     C77917   4.550   8.493   4.630  0.2423  0.4106 -0.6996
  591MOL0     C77918   4.429   8.542   4.545 -0.3204  0.1571 -0.8505
  591MOL0     C77919   4.332   8.629   4.628 -0.5296 -0.7367 -1.0813
  591MOL0     C77920   4.239   8.552   4.722 -0.8035 -0.0996 -0.4161
  591MOL0     C77921   4.156   8.445   4.639  0.2118 -0.0559 -0.0778
  591MOL0     C77922   4.040   8.400   4.739  0.5673  0.3485 -0.1013
  591MOL0     C77923   3.972   8.278   4.691  0.3162 -0.1492 -0.6746
  591MOL0    Cl77924   4.091   8.151   4.649 -0.2226 -0.7009  0.0928
  591MOL0     C77925   4.956   8.555   4.804  1.0119 -0.5161  0.2363
  591MOL0     C77926   5.086   8.603   4.812  0.1194  0.3389  0.1415
  591MOL0     O77927   5.380   8.626   4.797  0.0911  0.0224  0.2686
  591MOL0     C77928   5.431   8.975   4.840 -0.1824 -0.3167 -0.0809
  591MOL0     C77929   5.526   9.073   4.864 -0.1899 -0.2284 -0.7657
  591MOL0     N77930   6.204   9.360   4.570  0.0104 -0.0620 -0.5890
  591MOL0     N77931   6.332   9.366   4.585 -0.1375  0.7727  0.9729
  591MOL0     C77932   7.317   9.512   4.907 -0.5689  0.7122 -0.6535
  591MOL0     C77933   7.365   9.641   4.867  0.3330 -0.5782 -0.1031
  591MOL0     C77934   7.604   9.976   4.711  0.3650  0.6039  0.0833
  591MOL0     C77935   7.658  10.085   4.779 -0.6707 -0.0080 -0.1385
  591MOL0     C77936   7.701  10.200   4.722 -0.1045 -0.1376  0.0867
  591MOL0     C77937   7.684  10.205   4.581  0.2837  0.2533 -0.6141
  591MOL0     O77938   7.703  10.318   4.510  0.6362 -0.3122  0.1600
  591MOL0     C77939   7.606  10.419   4.522 -0.1757  0.6023 -0.2801
  591MOL0     C77940   7.676  10.534   4.446  0.7689 -0.3571  0.3131
  591MOL0     C77941   7.784  10.610   4.518  0.0586 -0.3943  0.5290
  591MOL0     C77942   7.799  10.759   4.470 -0.9528  0.3548 -0.8046
  591MOL0     C77943   7.856  10.767   4.336  0.0778 -0.7683  0.1188
  591MOL0     C77944   7.912  10.769   4.230 -0.3249  0.2454  0.5025
  591MOL0     C77945   7.639  10.099   4.502 -0.1939  0.6164  0.5649
  591MOL0     C77946   7.598   9.985   4.567  0.4783  1.0208  0.1398
  591MOL0     H77947   7.566   9.539   4.616  0.1203  2.3392 -0.4134
  591MOL0     H77948   7.458   9.325   4.649  3.1783  1.4105 -1.2414
  591MOL0     H77949   7.140   9.323   4.985  0.9873  3.2486 -5.2532
  591MOL0     H77950   7.265   9.224   5.050  1.2281  1.8076 -0.2614
  591MOL0     H77951   7.113   9.048   5.017 -0.3866 -0.2551 -1.1438
  591MOL0     H77952   7.217   9.045   4.874  0.9097  0.9636 -1.6327
  591MOL0     H77953   7.001   9.054   4.765 -2.2040  0.0271 -0.0632
  591MOL0     H77954   7.026   9.225   4.780 -2.3683  1.1704  1.3458
  591MOL0     H77955   6.860   9.044   4.967 -1.7056 -1.2846 -3.7856
  591MOL0     H77956   6.928   9.213   5.005  4.3243  0.5819 -2.6464
  591MOL0     H77957   6.704   9.125   4.801 -1.2495  0.3747  0.8413
  591MOL0     H77958   6.798   9.261   4.764 -0.3149 -1.2541 -1.2571
  591MOL0     H77959   6.700   9.389   4.951 -0.9284  0.9536 -1.6200
  591MOL0     H77960   6.680   9.232   5.041  3.7026 -0.5403 -0.6099
  591MOL0     H77961   6.490   9.172   4.888 -2.6010  1.3744 -1.6858
  591MOL0     H77962   6.455   9.320   4.977  0.9040 -0.1741  0.8016
  591MOL0     H77963   6.563   9.322   4.702  0.5516 -2.1217  1.9455
  591MOL0     H77964   6.510   9.467   4.811  2.8281  0.8430 -2.8059
  591MOL0     H77965   6.236   9.328   4.898  0.2183  0.8236  0.7607
  591MOL0     H77966   5.959   9.441   4.650 -3.0155 -3.0400 -1.7565
  591MOL0     H77967   5.972   9.389   4.824 -2.6962 -2.2278  0.9786
  591MOL0     H77968   5.955   9.185   4.591  1.4885  0.9064  0.3373
  591MOL0     H77969   5.817   9.244   4.683 -0.6187  1.6255 -0.8597
  591MOL0     H77970   5.926   9.025   4.744  0.1763  1.4730 -4.8973
  591MOL0     H77971   6.066   9.117   4.816 -0.4544  2.5277 -3.3485
  591MOL0     H77972   5.928   9.175   5.001 -2.4164 -0.3221  1.1931
  591MOL0     H77973   5.894   9.010   4.977  3.3270 -0.1411  0.1906
  591MOL0     H77974   5.792   8.868   4.868 -0.6743 -1.2311  3.0154
  591MOL0     H77975   5.619   8.695   4.820 -1.6283 -0.0943  3.6291
  591MOL0     H77976   5.019   8.918   4.726  3.6338  0.4994  3.7160
  591MOL0     H77977   4.787   8.838   4.713  0.0015 -0.3730 -2.6490
  591MOL0     H77978   4.686   8.650   4.579 -2.3300  0.6980 -0.7986
  591MOL0     H77979   4.580   8.687   4.717 -0.7714  0.7316 -2.3831
  591MOL0     H77980   4.520   8.431   4.715  0.8651 -1.4556 -1.7962
  591MOL0     H77981   4.608   8.420   4.573  2.9593  0.8563  1.3194
  591MOL0     H77982   4.378   8.456   4.502  2.0792 -2.2874  0.7988
  591MOL0     H77983   4.469   8.596   4.459 -0.9696 -0.4076 -1.5178
  591MOL0     H77984   4.370   8.718   4.679 -1.3308  1.1527 -3.5606
  591MOL0     H77985   4.276   8.679   4.548  0.5180  1.1643 -0.6890
  591MOL0     H77986   4.170   8.624   4.766  2.3667  0.3638  4.5895
  591MOL0     H77987   4.296   8.510   4.805  2.3642  1.0508 -1.8389
  591MOL0     H77988   4.210   8.353   4.618  0.3426  0.3162 -1.4843
  591MOL0     H77989   4.123   8.480   4.541 -3.2940 -3.2899 -0.2757
  591MOL0     H77990   4.085   8.373   4.834 -0.4877  5.6846  2.2793
  591MOL0     H77991   3.967   8.483   4.741  0.2502  0.0617  0.2972
  591MOL0     H77992   3.903   8.288   4.607 -2.1741 -0.9636  1.1796
  591MOL0     H77993   3.907   8.243   4.772  0.3897 -0.9871 -0.9684
  591MOL0     H77994   4.937   8.453   4.836 -1.3592  0.3520  1.9469
  591MOL0     H77995   5.166   8.535   4.836  0.6894  0.5304 -1.1303
  591MOL0     H77996   5.327   9.004   4.852 -0.0899 -0.4720  1.2511
  591MOL0     H77997   5.497   9.177   4.880 -1.8755 -0.6111 -1.1261
  591MOL0     H77998   7.246   9.504   4.988  0.3846 -0.0312  0.1427
  591MOL0     H77999   7.340   9.737   4.910  1.7869  1.3863 -3.3209
  591MOL0     H78000   7.664  10.077   4.887 -0.9028  2.2506  0.0845
  591MOL0     H78001   7.756  10.285   4.761  1.1033  0.6851 -3.1194
  591MOL0     H78002   7.586  10.444   4.627  1.9633 -1.2132  0.6518
  591MOL0     H78003   7.511  10.388   4.478 -2.0615  2.6277  2.0414
  591MOL0     H78004   7.716  10.503   4.350  1.0090  2.3733 -0.5413
  591MOL0     H78005   7.593  10.600   4.420  0.4749 -0.9783 -0.3463
  591MOL0     H78006   7.882  10.562   4.520  0.5029  0.5037  1.3150
  591MOL0     H78007   7.758  10.613   4.624  4.6945  0.6066  1.8850
  591MOL0     H78008   7.704  10.813   4.474 -0.9954  0.3597 -1.5897
  591MOL0     H78009   7.863  10.810   4.542 -0.4336 -0.4317 -0.6982
  591MOL0     H78010   7.965  10.789   4.139  0.1116  1.4433  1.0006
  591MOL0     H78011   7.636  10.109   4.394 -0.7700  1.2759  0.6324
  591MOL0     H78012   7.552   9.900   4.516 -0.1971  0.5316  1.5267
  592MOL0     O78013   9.052   3.692   0.771 -0.9789 -0.2302 -0.9149
  592MOL0     C78014   9.031   3.759   0.877  0.5358  0.7689  0.3381
  592MOL0     O78015   8.933   3.728   0.964  0.2563  0.5225 -0.0515
  592MOL0     C78016   8.841   3.637   0.916 -0.0592  0.3693  0.8050
  592MOL0     C78017   8.836   3.506   0.951  0.5125  0.5708 -0.5307
  592MOL0     C78018   8.745   3.412   0.908  0.1996  0.2461 -0.1691
  592MOL0     C78019   8.645   3.467   0.825 -0.0140 -0.4364  0.6746
  592MOL0     O78020   8.557   3.377   0.763  0.8289 -0.4189  0.8223
  592MOL0     C78021   8.568   3.387   0.613  0.3813  0.1429  0.6180
  592MOL0     C78022   8.529   3.256   0.549  0.4113  0.5337 -0.6242
  592MOL0     C78023   8.515   3.269   0.388  0.4866 -0.0942  0.0046
  592MOL0     C78024   8.421   3.388   0.339 -0.6715 -0.5972 -0.0854
  592MOL0     C78025   8.378   3.352   0.192 -0.2319 -0.3594  0.1692
  592MOL0     C78026   8.264   3.455   0.157  0.6298  0.0384 -0.2853
  592MOL0     C78027   8.185   3.400   0.032 -0.1698  0.6466 -0.5917
  592MOL0     C78028   8.271   3.384  -0.097 -0.2873  0.0984 -0.4729
  592MOL0     N78029   8.195   3.364  -0.218 -0.8623 -0.1433  0.7333
  592MOL0     C78030   8.166   3.251  -0.282 -0.9457  0.5649  0.5574
  592MOL0     C78031   8.089   3.279  -0.392 -0.3280  0.0125  0.7426
  592MOL0     C78032   8.033   3.186  -0.494  0.2548 -0.0960  0.3238
  592MOL0     C78033   8.091   3.216  -0.638 -0.3693  0.3705  1.2668
  592MOL0     C78034   8.010   3.157  -0.767  0.3006 -0.2429 -0.7779
  592MOL0     C78035   7.944   3.023  -0.740  0.8827  0.1606 -0.0939
  592MOL0     O78036   7.932   2.936  -0.852 -0.5631 -0.2035 -0.5175
  592MOL0     C78037   7.809   2.873  -0.872 -1.4745  1.2567  0.0691
  592MOL0     C78038   7.763   2.872  -1.000 -0.4412 -1.2907 -0.3375
  592MOL0     C78039   7.634   2.829  -1.035 -0.8139  0.3730 -0.1947
  592MOL0     C78040   7.561   2.760  -0.943  0.3598  0.4318 -0.7875
  592MOL0     C78041   7.416   2.739  -0.970  0.4261 -1.3370  0.3959
  592MOL0     O78042   7.332   2.748  -0.858 -0.3724 -0.3028 -0.0387
  592MOL0     C78043   7.198   2.763  -0.860  0.4604  0.3952  0.5827
  592MOL0     C78044   7.138   2.754  -0.729 -0.1190 -0.0447 -0.2587
  592MOL0     C78045   7.004   2.768  -0.711  0.4236  0.2279 -0.4852
  592MOL0     C78046   6.929   2.783  -0.828  1.0411 -0.0127 -0.2440
  592MOL0     O78047   6.792   2.786  -0.798 -0.3417  0.0177 -0.4230
  592MOL0     C78048   6.703   2.855  -0.887  0.9036 -0.0955  0.5067
  592MOL0     C78049   6.550   2.833  -0.848  0.6085 -1.0276  1.1711
  592MOL0     C78050   6.519   2.906  -0.709  0.2067  0.7978 -0.1358
  592MOL0     C78051   6.362   2.921  -0.695 -0.7162 -0.2301  0.2633
  592MOL0     C78052   6.321   2.997  -0.569 -0.5699  0.1193  0.7645
  592MOL0     C78053   6.369   2.928  -0.433  0.1058 -0.3112 -0.0070
  592MOL0     C78054   6.312   3.013  -0.324  0.2326  0.6570  0.2508
  592MOL0     C78055   6.275   2.925  -0.206 -0.5506  0.2781 -0.6628
  592MOL0    Cl78056   6.242   3.019  -0.066  0.2081  0.5730  0.1008
  592MOL0     C78057   6.982   2.790  -0.957  1.4407  0.5242  0.1193
  592MOL0     C78058   7.117   2.788  -0.971  0.5447  0.9824 -0.0380
  592MOL0     O78059   7.380   2.741  -1.090 -0.4865  0.1499  0.3742
  592MOL0     C78060   7.609   2.754  -0.807 -0.7869  0.1566  0.2002
  592MOL0     C78061   7.738   2.808  -0.774 -0.4108  0.1245  0.4738
  592MOL0     N78062   8.057   3.416  -0.379  0.2953  0.1697  0.2311
  592MOL0     N78063   8.132   3.464  -0.282  0.0218  0.0794 -0.2187
  592MOL0     C78064   8.645   3.599   0.791  0.1620 -0.2527 -0.8301
  592MOL0     C78065   8.736   3.686   0.840 -0.9533  0.4720  1.0609
  592MOL0     C78066   9.146   3.850   0.913  0.7809  0.3981 -0.4384
  592MOL0     C78067   9.275   3.833   0.856  0.7753 -0.3186 -1.1496
  592MOL0     C78068   9.386   3.909   0.904  0.4923  0.5786 -0.2289
  592MOL0     C78069   9.373   3.992   1.014  0.8336  0.0640  1.1252
  592MOL0     O78070   9.477   4.067   1.064 -0.6089 -0.4020  0.1303
  592MOL0     C78071   9.612   4.084   1.016 -0.5468 -0.0712  0.2996
  592MOL0     C78072   9.704   4.146   1.124 -0.1226  0.3219  0.6030
  592MOL0     C78073   9.652   4.279   1.195 -0.6688  0.1946 -0.0977
  592MOL0     C78074   9.761   4.366   1.253  0.4402  0.2771  0.0400
  592MOL0     C78075   9.798   4.452   1.147 -0.6191  0.2241  0.7380
  592MOL0     C78076   9.852   4.513   1.059 -0.2061 -0.5524 -0.4279
  592MOL0     C78077   9.245   4.017   1.062  0.8836 -0.2040 -0.7052
  592MOL0     C78078   9.136   3.942   1.022  0.1972 -0.7293 -0.0879
  592MOL0     H78079   8.909   3.476   1.027  0.0350  2.2237  0.6367
  592MOL0     H78080   8.759   3.310   0.941  2.9114  0.7342  0.4458
  592MOL0     H78081   8.675   3.406   0.599  0.2600  0.5035  0.1418
  592MOL0     H78082   8.498   3.464   0.579 -1.0953 -0.9136  1.1658
  592MOL0     H78083   8.436   3.227   0.598  1.8188  0.8799  2.4816
  592MOL0     H78084   8.601   3.177   0.568  1.4518  1.3119 -1.2212
  592MOL0     H78085   8.472   3.176   0.350 -0.4659  0.6623 -0.8339
  592MOL0     H78086   8.615   3.266   0.344  1.1489 -2.5490  1.4625
  592MOL0     H78087   8.324   3.391   0.390 -0.8724  0.5642 -0.5254
  592MOL0     H78088   8.474   3.484   0.342 -0.9435 -0.4621  1.1361
  592MOL0     H78089   8.328   3.255   0.182 -1.7153  0.4316 -0.2571
  592MOL0     H78090   8.466   3.339   0.128 -1.1055 -3.2381 -0.6198
  592MOL0     H78091   8.304   3.555   0.136 -1.2672  1.1601  1.2013
  592MOL0     H78092   8.202   3.458   0.247  0.9973  1.2580 -0.0593
  592MOL0     H78093   8.130   3.309   0.060  1.1566 -0.3799 -1.1760
  592MOL0     H78094   8.106   3.471   0.008 -2.9194 -0.5381  3.7603
  592MOL0     H78095   8.351   3.313  -0.074 -1.2471 -0.2193  2.2635
  592MOL0     H78096   8.323   3.479  -0.108 -0.6435  0.0769 -2.7178
  592MOL0     H78097   8.206   3.153  -0.258 -3.1841  0.1742  3.1968
  592MOL0     H78098   7.925   3.205  -0.494  0.1902 -0.4211 -0.5960
  592MOL0     H78099   8.052   3.081  -0.468  2.6547  0.3765  0.7029
  592MOL0     H78100   8.195   3.183  -0.648 -1.0933 -1.8369  0.3212
  592MOL0     H78101   8.097   3.324  -0.659 -2.2072  0.7731  2.5918
  592MOL0     H78102   7.927   3.222  -0.798 -1.6067 -1.7511  0.9217
  592MOL0     H78103   8.081   3.147  -0.849  4.0558  1.2404  1.9850
  592MOL0     H78104   7.845   3.049  -0.700 -0.0991 -2.2601 -0.7366
  592MOL0     H78105   8.007   2.978  -0.664  1.0289  2.5740  1.3027
  592MOL0     H78106   7.818   2.924  -1.078 -0.2765 -2.2619 -0.8975
  592MOL0     H78107   7.589   2.846  -1.132 -3.4492 -2.3717  0.3891
  592MOL0     H78108   7.206   2.733  -0.647  2.4205  0.4151 -2.1104
  592MOL0     H78109   6.952   2.746  -0.618 -0.1565 -5.4869 -1.7817
  592MOL0     H78110   6.713   2.821  -0.990 -3.5685  3.3413 -1.4030
  592MOL0     H78111   6.728   2.961  -0.882  2.7730 -0.3732 -1.6418
  592MOL0     H78112   6.508   2.732  -0.852 -1.3568 -0.2211 -1.6145
  592MOL0     H78113   6.480   2.878  -0.918 -0.9289 -2.1057  1.9579
  592MOL0     H78114   6.561   3.006  -0.694 -2.8893  1.7534  3.7541
  592MOL0     H78115   6.555   2.846  -0.625 -1.9357  2.0762  1.7973
  592MOL0     H78116   6.319   2.971  -0.782  1.6857  1.1057 -0.2462
  592MOL0     H78117   6.320   2.820  -0.694  0.9907 -0.9771  1.7288
  592MOL0     H78118   6.213   2.984  -0.561 -0.5679 -1.9600 -1.5291
  592MOL0     H78119   6.348   3.103  -0.570 -0.6110  0.1284  0.6379
  592MOL0     H78120   6.476   2.927  -0.415 -0.0843 -1.2428  1.1869
  592MOL0     H78121   6.338   2.823  -0.440 -1.3536  0.0320  0.7492
  592MOL0     H78122   6.378   3.096  -0.296  3.1741 -1.6412  0.5010
  592MOL0     H78123   6.217   3.061  -0.352  1.5572  4.2452  1.3180
  592MOL0     H78124   6.366   2.866  -0.189 -0.9241 -0.0603  0.2504
  592MOL0     H78125   6.185   2.867  -0.228  0.0029 -0.0021 -2.3852
  592MOL0     H78126   6.919   2.782  -1.045  1.6339  1.1701 -0.0845
  592MOL0     H78127   7.160   2.797  -1.070  2.3063  0.0149  0.6039
  592MOL0     H78128   7.545   2.707  -0.733  0.2839 -0.4820  0.7480
  592MOL0     H78129   7.773   2.818  -0.672  0.8519  0.8911 -0.0078
  592MOL0     H78130   8.567   3.634   0.723  1.5426  0.4309 -2.1132
  592MOL0     H78131   8.723   3.792   0.821 -2.3108  0.1008 -0.2218
  592MOL0     H78132   9.282   3.760   0.776 -1.2957 -0.4751 -1.2290
  592MOL0     H78133   9.482   3.891   0.858 -1.2799 -1.4308 -3.5908
  592MOL0     H78134   9.603   4.147   0.927  1.5062 -1.5306 -0.9976
  592MOL0     H78135   9.645   3.990   0.972 -2.5552 -0.9867  0.6249
  592MOL0     H78136   9.717   4.073   1.205 -4.8407 -1.4479  0.0525
  592MOL0     H78137   9.801   4.170   1.080 -0.4310 -0.3739 -0.4828
  592MOL0     H78138   9.595   4.231   1.274  1.2124 -1.0096  0.5833
  592MOL0     H78139   9.580   4.330   1.130  0.8897  1.1605 -1.1506
  592MOL0     H78140   9.723   4.425   1.337 -0.3840 -0.6284  0.3201
  592MOL0     H78141   9.845   4.304   1.285  0.9520  0.5002 -0.8160
  592MOL0     H78142   9.905   4.566   0.983  2.3451 -2.2145  0.0661
  592MOL0     H78143   9.229   4.082   1.148  1.5122 -0.8800 -0.0599
  592MOL0     H78144   9.042   3.952   1.074  0.5337 -2.6439  0.9994
  593MOL0     O78145   0.703   3.673   2.742  0.7312  0.6542  0.2536
  593MOL0     C78146   0.626   3.581   2.734  1.0498 -0.6187  0.3502
  593MOL0     O78147   0.645   3.471   2.659  0.4631  0.0888  0.6539
  593MOL0     C78148   0.742   3.438   2.568 -0.6190 -0.1009 -0.1979
  593MOL0     C78149   0.743   3.312   2.514 -0.7436  0.4993 -0.4094
  593MOL0     C78150   0.849   3.265   2.432  0.4281 -0.0887  1.2809
  593MOL0     C78151   0.946   3.358   2.400  0.6221  0.6619 -0.7482
  593MOL0     O78152   1.058   3.327   2.329 -0.4414  0.4107  0.3869
  593MOL0     C78153   1.045   3.266   2.194 -0.2261  0.1870 -0.1677
  593MOL0     C78154   1.177   3.205   2.138  0.6262 -0.4682 -0.4585
  593MOL0     C78155   1.152   3.128   2.008 -0.1405 -0.8114 -0.4080
  593MOL0     C78156   1.265   3.036   1.970  0.2390 -0.1578 -0.7851
  593MOL0     C78157   1.232   2.940   1.854  0.5057  0.7734 -0.0251
  593MOL0     C78158   1.352   2.893   1.777 -0.6093  0.1266  0.4305
  593MOL0     C78159   1.317   2.797   1.655  0.2781  0.0047 -0.0570
  593MOL0     C78160   1.322   2.871   1.517 -1.4286  0.4959 -0.5523
  593MOL0     N78161   1.286   2.772   1.417  0.4313  0.1156 -0.5943
  593MOL0     C78162   1.163   2.710   1.413 -0.1305  0.2124 -0.4007
  593MOL0     C78163   1.166   2.639   1.297 -0.0157 -1.4780 -0.2688
  593MOL0     C78164   1.055   2.549   1.239  0.0035  0.9108 -0.9088
  593MOL0     C78165   1.002   2.446   1.341  0.0004 -0.1045 -0.2400
  593MOL0     C78166   0.893   2.360   1.275 -0.3729  0.1905 -0.4348
  593MOL0     C78167   0.844   2.253   1.365  0.9018  0.1908 -0.2328
  593MOL0     O78168   0.943   2.154   1.374  0.3863  0.4972  0.0177
  593MOL0     C78169   0.971   2.069   1.479  0.1742  1.1199  0.0660
  593MOL0     C78170   0.868   2.033   1.575 -0.0168 -1.4231  0.8027
  593MOL0     C78171   0.904   1.960   1.679 -0.2592 -0.1550  0.3144
  593MOL0     C78172   1.033   1.908   1.706 -0.7525  0.6799 -0.5964
  593MOL0     C78173   1.066   1.834   1.829  0.1405  0.3078  0.6642
  593MOL0     O78174   0.975   1.836   1.937  0.6083  0.0591 -0.5480
  593MOL0     C78175   0.977   1.737   2.029  0.8835 -1.2306 -0.4698
  593MOL0     C78176   0.901   1.763   2.145  0.2545 -0.1701 -0.1906
  593MOL0     C78177   0.899   1.669   2.245  1.0757  0.0493  0.5240
  593MOL0     C78178   0.950   1.540   2.240 -0.3312 -0.1394  0.9893
  593MOL0     O78179   0.919   1.441   2.326 -0.3816  0.0530 -0.2668
  593MOL0     C78180   0.869   1.313   2.282 -0.1604 -0.2018 -1.4380
  593MOL0     C78181   0.925   1.181   2.340  0.3787 -0.2885 -0.7291
  593MOL0     C78182   1.051   1.133   2.266  0.1386  0.2636 -0.7332
  593MOL0     C78183   1.091   0.995   2.308  0.2958 -0.7327  0.4222
  593MOL0     C78184   1.209   0.931   2.248  0.2012  0.4417  0.4552
  593MOL0     C78185   1.335   1.005   2.263  0.8092 -0.9338 -0.0411
  593MOL0     C78186   1.446   0.946   2.182 -0.1304 -0.7000 -0.6443
  593MOL0     C78187   1.587   0.948   2.260 -0.4890 -0.0608 -0.4269
  593MOL0    Cl78188   1.559   0.857   2.417  0.8577 -0.4300  0.7010
  593MOL0     C78189   1.016   1.512   2.119  0.0154 -0.5743  0.5155
  593MOL0     C78190   1.028   1.603   2.020 -0.3358 -1.1313  0.4901
  593MOL0     O78191   1.172   1.770   1.821  0.3450  0.3657 -0.0911
  593MOL0     C78192   1.133   1.934   1.611  0.4334  0.7135 -0.4071
  593MOL0     C78193   1.095   2.012   1.490 -0.0719 -1.1771  0.2627
  593MOL0     N78194   1.296   2.650   1.245  0.4798 -0.0938  0.0231
  593MOL0     N78195   1.368   2.715   1.321  0.4060 -0.8437  0.1322
  593MOL0     C78196   0.944   3.484   2.441 -0.6352 -1.0812  0.0351
  593MOL0     C78197   0.847   3.527   2.525 -0.0493  0.0240 -1.0535
  593MOL0     C78198   0.490   3.599   2.787  0.2021 -0.0237  0.0163
  593MOL0     C78199   0.445   3.723   2.831 -0.7322 -0.3564  0.2246
  593MOL0     C78200   0.316   3.746   2.881  0.1671  0.0399  0.0749
  593MOL0     C78201   0.229   3.631   2.908 -0.2106 -0.6021  0.0500
  593MOL0     O78202   0.106   3.641   2.956  0.2947  0.3313 -0.7103
  593MOL0     C78203   0.089   3.726   3.064  0.4458  0.0162  0.6434
  593MOL0     C78204  -0.042   3.694   3.127  0.9389  0.4332  0.2408
  593MOL0     C78205  -0.064   3.808   3.234 -0.4084  0.3447  0.0051
  593MOL0     C78206  -0.198   3.782   3.304 -0.0553 -0.2443 -0.0445
  593MOL0     C78207  -0.236   3.894   3.391 -0.2300  1.1874 -0.4925
  593MOL0     C78208  -0.289   3.992   3.450 -0.9207  1.1637 -0.0029
  593MOL0     C78209   0.278   3.506   2.863 -0.0764  0.1999 -1.6333
  593MOL0     C78210   0.406   3.489   2.806  0.4754  0.7059  0.6347
  593MOL0     H78211   0.659   3.250   2.545 -2.3134  2.8535  0.3612
  593MOL0     H78212   0.854   3.169   2.382 -1.2269  0.6352 -0.4091
  593MOL0     H78213   1.003   3.349   2.137  0.6292  1.0532  0.4265
  593MOL0     H78214   0.967   3.189   2.199 -1.5661  1.2765 -2.4309
  593MOL0     H78215   1.224   3.139   2.212  1.0575 -2.4569 -2.3948
  593MOL0     H78216   1.244   3.291   2.123 -1.1672  1.0516 -0.1402
  593MOL0     H78217   1.130   3.192   1.922 -1.1426 -1.8169 -0.9447
  593MOL0     H78218   1.065   3.063   2.020  0.2055 -1.1603  0.2757
  593MOL0     H78219   1.346   3.106   1.948  0.8193  0.1028  1.8277
  593MOL0     H78220   1.294   2.976   2.057 -0.1202  1.8756  0.8267
  593MOL0     H78221   1.164   2.993   1.786  2.3549  0.9823 -1.8466
  593MOL0     H78222   1.181   2.857   1.901 -1.9008  1.4742 -1.2521
  593MOL0     H78223   1.423   2.837   1.838  2.1303  0.3461 -2.3330
  593MOL0     H78224   1.399   2.979   1.731  2.6344 -0.4449  2.3948
  593MOL0     H78225   1.389   2.717   1.670 -1.2131 -1.0118  2.2210
  593MOL0     H78226   1.220   2.752   1.676  0.7545 -0.6471  0.8165
  593MOL0     H78227   1.423   2.902   1.490 -1.6038  2.3116  0.6645
  593MOL0     H78228   1.260   2.961   1.515  0.6791  2.0701 -4.0239
  593MOL0     H78229   1.078   2.720   1.481 -1.4771 -4.2193 -1.0640
  593MOL0     H78230   1.099   2.488   1.159  1.4349 -0.7178  1.0234
  593MOL0     H78231   0.972   2.608   1.199  0.9844  2.5197 -0.6887
  593MOL0     H78232   0.965   2.490   1.434 -2.4482 -1.0372 -0.6932
  593MOL0     H78233   1.080   2.374   1.368  0.3565 -0.1246 -1.2711
  593MOL0     H78234   0.810   2.431   1.264 -1.0952 -0.1648  2.1516
  593MOL0     H78235   0.930   2.304   1.189  2.8223  1.2293  0.1425
  593MOL0     H78236   0.748   2.208   1.337  0.9920  0.0330 -0.2937
  593MOL0     H78237   0.833   2.290   1.467  0.9925 -0.4596  0.0201
  593MOL0     H78238   0.768   2.075   1.566  1.0717  0.9624 -1.9664
  593MOL0     H78239   0.825   1.931   1.748  1.6315 -0.9514  2.2757
  593MOL0     H78240   0.844   1.855   2.151 -1.4502 -1.2045  0.0822
  593MOL0     H78241   0.854   1.694   2.341  0.2036  1.9184 -0.3159
  593MOL0     H78242   0.859   1.301   2.174 -1.3846  0.2894 -1.3895
  593MOL0     H78243   0.768   1.325   2.321  1.5282  2.1334  2.8884
  593MOL0     H78244   0.847   1.105   2.336 -1.0947  1.2041 -1.4063
  593MOL0     H78245   0.956   1.195   2.444 -1.2714 -1.8847  0.0188
  593MOL0     H78246   1.117   1.212   2.303 -0.7725  0.7288 -0.0553
  593MOL0     H78247   1.039   1.140   2.157  1.4080 -0.2905 -0.9293
  593MOL0     H78248   1.109   0.987   2.416 -0.3284  1.9231  0.7840
  593MOL0     H78249   1.014   0.921   2.286 -0.0186  0.4085 -2.8033
  593MOL0     H78250   1.190   0.906   2.143 -1.9987 -3.1307  1.5120
  593MOL0     H78251   1.236   0.835   2.293 -0.3193 -0.1434 -0.4525
  593MOL0     H78252   1.358   1.016   2.369 -2.3075  0.4395  0.6072
  593MOL0     H78253   1.314   1.105   2.225  3.2023  0.3551  1.7570
  593MOL0     H78254   1.422   0.841   2.160 -2.0495 -0.3147 -0.5077
  593MOL0     H78255   1.466   0.996   2.087  0.5501 -0.7974 -0.5564
  593MOL0     H78256   1.624   1.050   2.276  0.9817 -0.6330 -0.1235
  593MOL0     H78257   1.671   0.903   2.207 -1.4185 -1.2121 -0.9617
  593MOL0     H78258   1.068   1.419   2.098 -1.0342 -1.3696  1.2880
  593MOL0     H78259   1.075   1.565   1.930 -0.4143  0.6608 -0.3592
  593MOL0     H78260   1.234   1.894   1.620 -0.0143 -0.5046 -0.5554
  593MOL0     H78261   1.172   2.037   1.418 -1.0669 -0.5625 -0.6099
  593MOL0     H78262   1.033   3.544   2.429 -1.2481  0.8424  3.6015
  593MOL0     H78263   0.862   3.623   2.574  0.9529 -1.2244  1.2689
  593MOL0     H78264   0.498   3.816   2.818 -1.1761  0.2911  2.5179
  593MOL0     H78265   0.297   3.849   2.909  2.3871  0.4801  0.1471
  593MOL0     H78266   0.093   3.830   3.031  1.8895  0.1024  1.0575
  593MOL0     H78267   0.167   3.722   3.140  0.1783  1.2294  1.0082
  593MOL0     H78268  -0.107   3.711   3.040  2.8791  3.6918 -0.7508
  593MOL0     H78269  -0.037   3.593   3.169  1.3705  1.0379  1.6853
  593MOL0     H78270  -0.063   3.906   3.185  3.5107  1.1782  1.4195
  593MOL0     H78271   0.015   3.801   3.310 -0.9892  0.3049  0.6166
  593MOL0     H78272  -0.286   3.759   3.243 -3.0219 -1.6362  4.2793
  593MOL0     H78273  -0.186   3.694   3.369  2.3924 -0.0472 -0.1399
  593MOL0     H78274  -0.331   4.069   3.511  1.6401  2.3063  0.4491
  593MOL0     H78275   0.227   3.416   2.896  2.7767 -0.5786  1.1778
  593MOL0     H78276   0.451   3.393   2.781 -0.6439  0.7026 -1.6803
  594MOL0     O78277   1.231   8.335  10.133  0.0590  0.1512 -0.2673
  594MOL0     C78278   1.220   8.228  10.079 -0.6293  0.6116  0.0292
  594MOL0     O78279   1.131   8.199   9.976 -0.2375 -0.0026  0.4003
  594MOL0     C78280   1.080   8.312   9.909 -0.6917 -1.3420  0.5093
  594MOL0     C78281   1.132   8.341   9.782 -0.4843 -0.2020 -0.3650
  594MOL0     C78282   1.083   8.450   9.708 -0.3925 -0.3697 -0.3742
  594MOL0     C78283   0.982   8.536   9.752 -0.7236  0.1989 -0.4130
  594MOL0     O78284   0.935   8.642   9.672 -0.1250  0.4783 -0.1978
  594MOL0     C78285   0.803   8.699   9.710  0.8321 -0.3918 -0.3822
  594MOL0     C78286   0.735   8.712   9.573 -0.1368  1.0054 -0.0940
  594MOL0     C78287   0.642   8.831   9.557  0.2845  0.7580 -0.4399
  594MOL0     C78288   0.583   8.847   9.417  0.4872 -0.0823 -0.4258
  594MOL0     C78289   0.645   8.943   9.321  0.0420 -0.3095 -0.1538
  594MOL0     C78290   0.799   8.932   9.304  0.2505 -0.8836 -0.2430
  594MOL0     C78291   0.844   9.007   9.177  0.0523 -0.4672 -0.1529
  594MOL0     C78292   0.996   9.026   9.174 -0.7273  0.0511 -0.3514
  594MOL0     N78293   1.035   9.112   9.288 -0.9747 -0.2522 -0.2667
  594MOL0     C78294   1.118   9.077   9.391 -0.2656  0.4678  0.0490
  594MOL0     C78295   1.132   9.183   9.467  0.4148  0.8003 -1.5697
  594MOL0     C78296   1.222   9.208   9.583  0.4503 -0.0754 -0.0697
  594MOL0     C78297   1.154   9.184   9.721 -0.3164  0.4547  0.3867
  594MOL0     C78298   1.161   9.040   9.761 -0.4797  0.0035 -0.1586
  594MOL0     C78299   1.082   9.019   9.891  0.1145  0.1179 -0.4597
  594MOL0     O78300   0.950   9.054   9.871  1.2118 -0.9333 -0.2223
  594MOL0     C78301   0.857   9.031   9.980 -0.8639 -1.5328 -0.0877
  594MOL0     C78302   0.729   9.107   9.983 -0.5525 -0.1036  0.5023
  594MOL0     C78303   0.632   9.090  10.085  0.3917 -0.2500 -0.4051
  594MOL0     C78304   0.661   8.991  10.180  0.5965  0.6118 -0.6218
  594MOL0     C78305   0.555   8.951  10.281  0.1118  0.2484 -0.0287
  594MOL0     O78306   0.426   8.955  10.243 -0.3195  0.5697  0.1215
  594MOL0     C78307   0.323   8.913  10.316 -0.6763 -0.2656 -0.6930
  594MOL0     C78308   0.205   8.989  10.311 -0.4399 -0.2663 -0.9057
  594MOL0     C78309   0.101   8.960  10.403 -0.4200 -0.0005  0.3234
  594MOL0     C78310   0.113   8.841  10.474  0.2762  0.1674 -0.4966
  594MOL0     O78311  -0.006   8.820  10.540  0.0219  0.1847 -0.6018
  594MOL0     C78312  -0.062   8.692  10.528 -0.7060 -0.5454  0.0716
  594MOL0     C78313  -0.056   8.593  10.642 -0.3804 -0.5926 -0.0299
  594MOL0     C78314  -0.111   8.667  10.758  0.7971  0.3938 -0.0857
  594MOL0     C78315  -0.142   8.569  10.869 -0.2424 -0.5644  0.4707
  594MOL0     C78316  -0.175   8.658  10.998 -0.1740  0.3421 -0.3838
  594MOL0     C78317  -0.247   8.568  11.098  0.3230  0.3503 -0.0464
  594MOL0     C78318  -0.176   8.439  11.156 -0.2631  0.6149 -0.8529
  594MOL0     C78319  -0.277   8.351  11.229  0.4240  0.7983  0.0619
  594MOL0    Cl78320  -0.392   8.436  11.341  0.0660  0.2022  0.3545
  594MOL0     C78321   0.232   8.764  10.484 -0.7846 -0.1224  0.0689
  594MOL0     C78322   0.338   8.808  10.403  1.2359  0.0526 -0.2356
  594MOL0     O78323   0.595   8.908  10.386 -0.0518 -0.2035 -0.2629
  594MOL0     C78324   0.789   8.935  10.193 -0.1817 -0.1340  0.0653
  594MOL0     C78325   0.883   8.949  10.094  0.0584  1.6074  0.9659
  594MOL0     N78326   1.050   9.281   9.415 -0.9063  0.8375  0.0985
  594MOL0     N78327   1.009   9.247   9.300 -0.1834  0.1091 -0.4198
  594MOL0     C78328   0.934   8.508   9.885 -0.5640  1.4309  0.0026
  594MOL0     C78329   0.978   8.396   9.959 -0.0775 -0.4778  0.1617
  594MOL0     C78330   1.309   8.112  10.117  0.2219  0.6251  0.0763
  594MOL0     C78331   1.351   8.023  10.019  0.7434  1.0073 -0.1284
  594MOL0     C78332   1.444   7.926  10.056  0.4502 -0.2209 -0.7603
  594MOL0     C78333   1.496   7.914  10.188  0.4426 -1.0544  0.7095
  594MOL0     O78334   1.565   7.801  10.217  0.0780  0.3965 -0.8519
  594MOL0     C78335   1.632   7.816  10.338 -0.5597 -0.4552  0.1130
  594MOL0     C78336   1.736   7.709  10.337 -0.4011  0.2046 -0.7715
  594MOL0     C78337   1.825   7.717  10.458 -0.6132  0.0161 -0.4354
  594MOL0     C78338   1.923   7.595  10.481 -1.0124 -0.0226 -0.6070
  594MOL0     C78339   2.011   7.587  10.366 -0.0632  0.4006 -0.4420
  594MOL0     C78340   2.084   7.558  10.273  0.0731  0.0687 -0.7405
  594MOL0     C78341   1.452   8.009  10.284  0.2259  0.8762 -0.0735
  594MOL0     C78342   1.358   8.103  10.247 -0.1703 -0.7861  0.5387
  594MOL0     H78343   1.196   8.260   9.750  0.9560  0.6558  0.2606
  594MOL0     H78344   1.111   8.471   9.605 -1.4299  0.6938 -0.4652
  594MOL0     H78345   0.793   8.799   9.752 -1.6941 -0.8813  0.3381
  594MOL0     H78346   0.732   8.639   9.768  1.7253  0.9148  2.2177
  594MOL0     H78347   0.688   8.621   9.536  1.2778  1.0572 -2.1797
  594MOL0     H78348   0.813   8.730   9.499  1.1486 -0.1469  0.9375
  594MOL0     H78349   0.688   8.928   9.577 -4.6829  3.7216 -1.6513
  594MOL0     H78350   0.562   8.810   9.630  0.8635 -1.4950 -0.3637
  594MOL0     H78351   0.587   8.747   9.371 -1.6016  0.2503 -1.4633
  594MOL0     H78352   0.475   8.865   9.423  0.3726 -0.9747  0.4302
  594MOL0     H78353   0.621   9.047   9.342  4.0267  0.9402 -0.8652
  594MOL0     H78354   0.595   8.931   9.225  0.8064  1.0747 -0.7502
  594MOL0     H78355   0.831   8.828   9.292  0.0959 -0.8647 -0.8580
  594MOL0     H78356   0.848   8.977   9.391 -1.9387 -0.0716  0.6333
  594MOL0     H78357   0.813   8.954   9.086 -2.4914  0.7191 -0.0604
  594MOL0     H78358   0.793   9.102   9.160  1.2384  0.1468 -0.3941
  594MOL0     H78359   1.029   9.071   9.080  3.4842 -2.0397 -0.1209
  594MOL0     H78360   1.050   8.931   9.178  0.4173  0.6119 -1.8425
  594MOL0     H78361   1.162   8.979   9.407 -1.3505  0.0652  0.6663
  594MOL0     H78362   1.256   9.312   9.575  1.9776 -0.6326 -1.1773
  594MOL0     H78363   1.310   9.146   9.568  1.7291  1.3678  1.1400
  594MOL0     H78364   1.050   9.219   9.725 -0.3421  0.6220 -1.1947
  594MOL0     H78365   1.210   9.238   9.797  1.9396 -0.5099 -0.5004
  594MOL0     H78366   1.104   8.985   9.685  0.6214  2.1789 -2.7607
  594MOL0     H78367   1.264   9.008   9.777 -0.5611  0.2427  0.8681
  594MOL0     H78368   1.124   9.075   9.975  0.2945  0.7644 -0.9769
  594MOL0     H78369   1.084   8.913   9.919 -1.1927  0.6472  1.9279
  594MOL0     H78370   0.705   9.173   9.900 -0.1172 -0.9604 -0.3143
  594MOL0     H78371   0.538   9.145  10.084  0.2838 -0.4440 -1.2197
  594MOL0     H78372   0.201   9.073  10.243 -0.6182 -1.8815 -2.9820
  594MOL0     H78373   0.006   9.012  10.395 -1.1733 -1.1544  1.4543
  594MOL0     H78374  -0.005   8.643  10.449 -0.9560  1.6287 -1.5697
  594MOL0     H78375  -0.167   8.698  10.498 -0.7286 -1.7243 -0.1189
  594MOL0     H78376   0.048   8.559  10.652 -0.6318 -1.5926 -0.6517
  594MOL0     H78377  -0.116   8.501  10.633 -0.1631 -0.7554  0.1753
  594MOL0     H78378  -0.206   8.709  10.724 -0.2597 -1.8024  0.0298
  594MOL0     H78379  -0.044   8.751  10.780 -2.5580  2.7578  2.2028
  594MOL0     H78380  -0.225   8.508  10.833  1.6906 -1.5709 -2.6985
  594MOL0     H78381  -0.056   8.507  10.895  1.1408  0.4738 -1.3909
  594MOL0     H78382  -0.257   8.723  10.969 -0.9829  0.6827  2.3672
  594MOL0     H78383  -0.086   8.709  11.035  0.4853  0.0213 -1.4650
  594MOL0     H78384  -0.333   8.524  11.046  1.0422 -2.7441  1.1152
  594MOL0     H78385  -0.285   8.622  11.185  1.7129  1.8435 -0.3303
  594MOL0     H78386  -0.117   8.376  11.089  3.1748 -0.8794  3.1053
  594MOL0     H78387  -0.099   8.468  11.228 -1.6981  0.8680  0.6388
  594MOL0     H78388  -0.213   8.275  11.273  0.4076  1.4948  1.3301
  594MOL0     H78389  -0.344   8.306  11.154  0.1153  2.5407 -0.7655
  594MOL0     H78390   0.235   8.674  10.545 -0.4801  1.8813  3.3007
  594MOL0     H78391   0.427   8.747  10.391 -1.6262 -4.6731  0.3446
  594MOL0     H78392   0.805   8.856  10.267  0.6629 -2.3476 -2.3085
  594MOL0     H78393   0.975   8.892  10.106  0.7202  2.2477 -0.6383
  594MOL0     H78394   0.860   8.570   9.933 -0.9842  1.7370 -1.0225
  594MOL0     H78395   0.935   8.381  10.057 -0.3120 -1.2869 -0.0567
  594MOL0     H78396   1.311   8.025   9.918 -2.9664 -2.5729  1.0087
  594MOL0     H78397   1.481   7.865   9.974  0.4907 -0.0179 -0.8953
  594MOL0     H78398   1.577   7.796  10.430  0.7458  3.4497  1.9669
  594MOL0     H78399   1.677   7.915  10.353 -1.7891 -0.0880  1.5119
  594MOL0     H78400   1.694   7.608  10.338 -1.9241  0.7497 -3.0998
  594MOL0     H78401   1.802   7.724  10.252  2.4845 -1.9069  0.9322
  594MOL0     H78402   1.775   7.736  10.553  1.1468  3.3267 -0.0051
  594MOL0     H78403   1.904   7.793  10.449  1.7057 -2.1871 -0.0474
  594MOL0     H78404   1.986   7.612  10.569 -2.7452 -0.7501  0.8388
  594MOL0     H78405   1.872   7.501  10.502  0.4224 -0.7608 -0.3043
  594MOL0     H78406   2.160   7.524  10.205  1.4503 -2.7694  1.9990
  594MOL0     H78407   1.494   8.024  10.383 -0.4560 -2.7266  0.8918
  594MOL0     H78408   1.357   8.178  10.325  1.5851  1.8297 -1.7705
  595MOL0     O78409   8.653   7.921   2.859  0.1460 -0.3089  0.1409
  595MOL0     C78410   8.684   8.029   2.820 -0.0928 -0.4100  1.2202
  595MOL0     O78411   8.612   8.108   2.735  0.3523  0.2841  0.3089
  595MOL0     C78412   8.509   8.042   2.675  0.2064 -0.3288  0.1100
  595MOL0     C78413   8.517   7.908   2.620  0.7538  0.1978  0.2490
  595MOL0     C78414   8.398   7.850   2.565  1.1235  1.0953 -0.0685
  595MOL0     C78415   8.273   7.912   2.563  0.7625  0.0873  0.7514
  595MOL0     O78416   8.167   7.842   2.499 -0.0912  0.1238 -0.3372
  595MOL0     C78417   8.063   7.922   2.442  0.7380  0.2182 -0.1995
  595MOL0     C78418   7.953   7.841   2.377  0.1299  0.8261 -0.7782
  595MOL0     C78419   7.900   7.730   2.480 -0.5142 -0.4742 -0.5672
  595MOL0     C78420   7.783   7.641   2.421  0.1279 -0.2043  1.0241
  595MOL0     C78421   7.689   7.728   2.345  0.4018  0.3283 -0.0052
  595MOL0     C78422   7.548   7.663   2.334 -0.5185 -0.3275  1.3370
  595MOL0     C78423   7.447   7.747   2.254  0.6460 -0.6688  1.0296
  595MOL0     C78424   7.304   7.678   2.250  0.9442 -0.8389 -0.1210
  595MOL0     N78425   7.230   7.719   2.363  0.5153  0.2450  0.1721
  595MOL0     C78426   7.123   7.805   2.360  0.0892 -0.3109 -0.0009
  595MOL0     C78427   7.049   7.768   2.475 -0.3117  0.3353  1.4761
  595MOL0     C78428   6.926   7.832   2.509 -0.2346  0.5638 -0.4644
  595MOL0     C78429   6.916   7.897   2.649  0.4800  0.5350 -0.0762
  595MOL0     C78430   6.912   7.803   2.769 -0.6295  0.8936  0.3551
  595MOL0     C78431   6.907   7.868   2.904 -0.6504 -0.4301 -0.0117
  595MOL0     O78432   7.012   7.972   2.912  0.5719  0.1881 -0.1067
  595MOL0     C78433   7.014   8.050   3.030 -0.0864  0.1089  0.7898
  595MOL0     C78434   6.941   8.029   3.150 -0.2890 -1.0745  0.1906
  595MOL0     C78435   6.949   8.114   3.256  0.7765  0.3845 -0.2184
  595MOL0     C78436   7.009   8.246   3.234  1.3576  0.4000  0.3686
  595MOL0     C78437   6.995   8.355   3.328  0.2329 -0.8930  0.1889
  595MOL0     O78438   7.033   8.483   3.303 -0.5307 -0.4194  0.3033
  595MOL0     C78439   7.011   8.578   3.390  1.0407 -1.0139 -0.4944
  595MOL0     C78440   6.932   8.679   3.349 -1.6895 -0.1986  0.4087
  595MOL0     C78441   6.933   8.800   3.430 -0.3908  0.7192  0.1334
  595MOL0     C78442   7.001   8.805   3.550 -0.2727 -0.2919 -0.3027
  595MOL0     O78443   6.985   8.929   3.621  0.4904  0.1344 -0.6721
  595MOL0     C78444   6.989   8.938   3.762 -1.1214 -0.7711 -0.2818
  595MOL0     C78445   6.861   8.919   3.824 -0.0682 -0.4434  0.2752
  595MOL0     C78446   6.799   9.060   3.885  1.2707 -0.1499  0.2379
  595MOL0     C78447   6.651   9.057   3.916  0.6053  0.0700 -0.6146
  595MOL0     C78448   6.590   9.173   4.004 -0.0366 -0.3361  0.7008
  595MOL0     C78449   6.626   9.167   4.157  0.2319  0.4011  0.0474
  595MOL0     C78450   6.566   9.293   4.240  0.4263  0.2340 -0.2358
  595MOL0     C78451   6.628   9.289   4.379  0.7326  1.3276  0.2506
  595MOL0    Cl78452   6.551   9.173   4.490 -0.0902  0.3315  0.4890
  595MOL0     C78453   7.079   8.695   3.596  0.2125 -0.0406 -0.4679
  595MOL0     C78454   7.082   8.584   3.512 -0.2146 -0.6147 -0.3578
  595MOL0     O78455   6.945   8.321   3.431  0.5214 -0.6377  0.7832
  595MOL0     C78456   7.091   8.266   3.121 -0.8653  0.0504 -0.3867
  595MOL0     C78457   7.090   8.171   3.018  0.5019  0.0289 -0.0520
  595MOL0     N78458   7.103   7.662   2.534 -0.0369 -0.5094  0.1409
  595MOL0     N78459   7.210   7.636   2.470 -0.3731  0.0939 -1.3279
  595MOL0     C78460   8.274   8.044   2.616 -1.2301 -0.0610  1.3408
  595MOL0     C78461   8.388   8.104   2.673  0.6039 -0.5902 -0.1328
  595MOL0     C78462   8.795   8.089   2.886  0.2455  0.4738  1.2088
  595MOL0     C78463   8.844   8.029   3.005 -0.3807 -0.2012 -0.1870
  595MOL0     C78464   8.953   8.086   3.073  0.9419  1.1173 -0.1782
  595MOL0     C78465   9.007   8.203   3.026 -0.0381 -0.3175 -0.3060
  595MOL0     O78466   9.129   8.225   3.089  0.8617 -0.0513 -0.6898
  595MOL0     C78467   9.216   8.329   3.049  0.5569 -0.2898  0.1210
  595MOL0     C78468   9.343   8.319   3.141  0.2453 -1.2011  0.3789
  595MOL0     C78469   9.430   8.446   3.108  0.4346 -1.2525 -0.5252
  595MOL0     C78470   9.566   8.439   3.163 -0.4732  0.3511  1.3012
  595MOL0     C78471   9.648   8.560   3.149 -0.2018 -0.8419  0.2964
  595MOL0     C78472   9.690   8.676   3.124 -0.3815  1.0149  0.0372
  595MOL0     C78473   8.962   8.271   2.912 -0.6195 -0.1429  0.2027
  595MOL0     C78474   8.849   8.219   2.841 -0.2273  0.7573 -0.3406
  595MOL0     H78475   8.607   7.848   2.617 -0.9044 -2.8737  3.9620
  595MOL0     H78476   8.400   7.750   2.523  0.3011  1.4561 -1.0263
  595MOL0     H78477   8.104   7.990   2.367  2.2155  0.6482  0.9470
  595MOL0     H78478   8.014   7.974   2.525  0.7735 -0.0381 -0.0121
  595MOL0     H78479   7.994   7.801   2.284 -0.0332  1.5220 -1.1536
  595MOL0     H78480   7.872   7.911   2.356 -0.1988  1.7130  2.7730
  595MOL0     H78481   7.879   7.768   2.581 -0.3382 -1.4943 -0.1395
  595MOL0     H78482   7.984   7.671   2.516  0.7984 -0.0683 -2.8227
  595MOL0     H78483   7.836   7.567   2.360  3.9799  2.5800  0.6158
  595MOL0     H78484   7.731   7.594   2.504 -0.5382  1.5396  1.6393
  595MOL0     H78485   7.727   7.759   2.247 -1.4013  0.3830 -0.7295
  595MOL0     H78486   7.670   7.813   2.411  0.1396 -0.9236  1.5830
  595MOL0     H78487   7.502   7.651   2.433 -2.6968  2.5687  0.7918
  595MOL0     H78488   7.551   7.564   2.287 -0.2827  0.0270  0.5906
  595MOL0     H78489   7.444   7.840   2.311 -3.3765  0.0265 -0.0270
  595MOL0     H78490   7.484   7.771   2.154  0.6527  1.3835  1.4833
  595MOL0     H78491   7.318   7.570   2.243  3.2000 -0.5403 -1.4647
  595MOL0     H78492   7.240   7.709   2.167 -0.6868  4.0249  2.5422
  595MOL0     H78493   7.103   7.872   2.277  0.8387  1.7268  1.3726
  595MOL0     H78494   6.847   7.757   2.505 -1.7269  1.7740  2.8826
  595MOL0     H78495   6.902   7.905   2.432  1.3753  0.0546 -1.5177
  595MOL0     H78496   6.822   7.952   2.636  1.1147  1.3516 -1.4245
  595MOL0     H78497   6.985   7.980   2.663 -0.1087  0.9758  0.2703
  595MOL0     H78498   6.822   7.741   2.762 -0.6765  0.9672  0.2968
  595MOL0     H78499   7.004   7.745   2.761 -0.8715  0.7588 -3.3214
  595MOL0     H78500   6.923   7.783   2.971  7.2449  1.6003  1.6851
  595MOL0     H78501   6.804   7.903   2.917  0.3022  1.9194  2.4421
  595MOL0     H78502   6.875   7.944   3.139 -0.5448 -0.9306  0.5882
  595MOL0     H78503   6.898   8.087   3.348 -0.2263 -0.5378 -1.0128
  595MOL0     H78504   6.880   8.667   3.255 -1.3516  1.1088  0.0347
  595MOL0     H78505   6.884   8.889   3.391  3.0978  1.9045 -1.9151
  595MOL0     H78506   7.022   9.038   3.792  0.6524 -2.0033  2.2797
  595MOL0     H78507   7.065   8.880   3.816  0.0981  2.2289  1.5082
  595MOL0     H78508   6.871   8.832   3.889  0.0440  0.0019  0.8680
  595MOL0     H78509   6.789   8.903   3.743  0.7541  0.7207 -0.7131
  595MOL0     H78510   6.807   9.131   3.802  1.7061  0.3358  0.6869
  595MOL0     H78511   6.853   9.099   3.972  3.1379  0.4229 -1.1207
  595MOL0     H78512   6.595   9.058   3.822  1.3892  2.3570 -1.1285
  595MOL0     H78513   6.634   8.970   3.980 -0.9306  2.0924  1.9635
  595MOL0     H78514   6.482   9.176   3.989  0.1523  1.7969 -0.6043
  595MOL0     H78515   6.642   9.262   3.966 -1.9119  1.6124  2.4510
  595MOL0     H78516   6.734   9.173   4.175  0.3707  0.8877 -0.8463
  595MOL0     H78517   6.582   9.076   4.198  2.7851 -0.3541  1.2909
  595MOL0     H78518   6.605   9.375   4.179 -0.6410 -0.1316 -1.4651
  595MOL0     H78519   6.457   9.289   4.243  0.4549 -1.3131 -0.5372
  595MOL0     H78520   6.630   9.388   4.425  0.8847  1.3670  0.1592
  595MOL0     H78521   6.733   9.261   4.375  0.3569 -0.2992  0.7238
  595MOL0     H78522   7.128   8.699   3.693  0.5186 -0.5617 -0.5930
  595MOL0     H78523   7.137   8.498   3.549 -0.1978  0.3421  2.0041
  595MOL0     H78524   7.140   8.362   3.109 -2.4729  1.5934  3.6690
  595MOL0     H78525   7.154   8.162   2.931  1.6258  1.7285  0.5614
  595MOL0     H78526   8.182   8.101   2.623 -0.7596  1.2204 -1.4287
  595MOL0     H78527   8.374   8.186   2.743  3.1823 -2.0237  2.2709
  595MOL0     H78528   8.802   7.932   3.031  0.6642 -0.6449 -0.1208
  595MOL0     H78529   8.994   8.020   3.148 -1.3583  0.2286  0.3738
  595MOL0     H78530   9.166   8.425   3.063  1.8026  0.4169 -0.0697
  595MOL0     H78531   9.238   8.308   2.944  2.5785  1.6766  0.0604
  595MOL0     H78532   9.315   8.321   3.246  3.1467 -1.2774  1.2455
  595MOL0     H78533   9.403   8.231   3.116  1.0792 -1.0972  1.9396
  595MOL0     H78534   9.396   8.544   3.143  2.4930  0.3711 -2.7707
  595MOL0     H78535   9.429   8.449   2.999 -1.5364 -1.8217 -0.5712
  595MOL0     H78536   9.550   8.406   3.266 -3.2092 -1.6654  0.3569
  595MOL0     H78537   9.614   8.362   3.102 -1.7993  0.3003  0.2720
  595MOL0     H78538   9.730   8.766   3.082  1.6764 -0.6428 -1.8685
  595MOL0     H78539   9.010   8.367   2.894  0.3896 -0.1915  2.3166
  595MOL0     H78540   8.796   8.264   2.757 -0.1208  2.0028  0.2445
  596MOL0     O78541   0.235   1.462   7.440 -0.1849 -0.5455  0.3398
  596MOL0     C78542   0.187   1.573   7.425 -0.1976  0.4619 -0.5355
  596MOL0     O78543   0.083   1.599   7.336  0.8035 -0.3001 -0.4836
  596MOL0     C78544   0.018   1.500   7.264 -0.7450 -0.9435  0.5100
  596MOL0     C78545   0.088   1.415   7.174  0.1312 -0.2788  0.2376
  596MOL0     C78546   0.019   1.317   7.116  0.1989 -0.0464  0.0388
  596MOL0     C78547  -0.117   1.302   7.115  0.1996  0.7466  0.2195
  596MOL0     O78548  -0.164   1.202   7.021  0.1911  0.0768 -0.4613
  596MOL0     C78549  -0.305   1.174   7.009 -0.0210  0.3094  0.2188
  596MOL0     C78550  -0.337   1.029   6.944  0.2892  0.7472 -0.3349
  596MOL0     C78551  -0.314   1.023   6.787  0.7866  0.8004 -0.7304
  596MOL0     C78552  -0.404   1.111   6.714  0.6253  0.3283  0.0519
  596MOL0     C78553  -0.428   1.055   6.570 -0.0939 -1.1353  0.3599
  596MOL0     C78554  -0.495   1.160   6.481 -0.6964 -0.1952 -0.3506
  596MOL0     C78555  -0.648   1.116   6.477  0.6468  0.4700 -0.1978
  596MOL0     C78556  -0.722   1.215   6.392  0.6569  0.1665  0.0915
  596MOL0     N78557  -0.868   1.201   6.398 -1.0111 -0.5673 -0.4389
  596MOL0     C78558  -0.924   1.079   6.363  0.3143 -0.1659 -0.0431
  596MOL0     C78559  -1.053   1.106   6.340 -0.1243  0.0002 -0.1511
  596MOL0     C78560  -1.146   1.015   6.278 -0.3506  1.7517 -0.0323
  596MOL0     C78561  -1.281   1.007   6.350  0.0202 -0.8768 -0.4679
  596MOL0     C78562  -1.393   0.953   6.258 -0.4695 -0.4318  0.1236
  596MOL0     C78563  -1.516   0.906   6.337  0.0406 -1.0222  0.1070
  596MOL0     O78564  -1.571   1.029   6.407 -0.3014  0.9113 -0.3426
  596MOL0     C78565  -1.700   1.030   6.430  1.1175 -0.3270 -0.0219
  596MOL0     C78566  -1.756   1.157   6.459  0.3138 -0.5467  0.3460
  596MOL0     C78567  -1.887   1.164   6.513  0.0508 -0.7262 -0.0380
  596MOL0     C78568  -1.964   1.048   6.538 -0.2898 -0.4835  0.7012
  596MOL0     C78569  -2.105   1.051   6.600 -0.5705 -1.2559 -0.0759
  596MOL0     O78570  -2.169   1.169   6.600  0.1816 -0.6150 -0.2970
  596MOL0     C78571  -2.284   1.178   6.672 -0.3229 -1.0484  0.6056
  596MOL0     C78572  -2.315   1.312   6.710 -0.1467  0.8683 -0.1420
  596MOL0     C78573  -2.430   1.341   6.787  0.2558  0.4362  0.4465
  596MOL0     C78574  -2.530   1.249   6.815  0.7729 -0.5876  0.4655
  596MOL0     O78575  -2.643   1.283   6.886  0.0813  0.0408  0.0077
  596MOL0     C78576  -2.624   1.290   7.029  0.5364 -0.2078  0.2635
  596MOL0     C78577  -2.658   1.165   7.113 -0.4478 -0.6034  0.8429
  596MOL0     C78578  -2.809   1.145   7.143  0.1005 -0.7926  0.5140
  596MOL0     C78579  -2.888   1.255   7.216 -0.3695 -0.4051  0.5540
  596MOL0     C78580  -3.038   1.215   7.248  0.1800 -0.2798  0.3931
  596MOL0     C78581  -3.122   1.333   7.313 -0.6281  1.1141 -0.2784
  596MOL0     C78582  -3.251   1.279   7.376 -0.8789  0.4268 -1.3002
  596MOL0     C78583  -3.213   1.185   7.490 -0.7270  0.1406  0.1957
  596MOL0    Cl78584  -3.368   1.140   7.570 -0.1870 -0.1824 -0.0468
  596MOL0     C78585  -2.507   1.118   6.771  0.6167 -0.3990  0.3810
  596MOL0     C78586  -2.384   1.083   6.706 -0.9808  0.0446  0.6865
  596MOL0     O78587  -2.149   0.946   6.631 -0.2164  0.2850  0.0651
  596MOL0     C78588  -1.902   0.930   6.502  0.2975  0.2654  1.2900
  596MOL0     C78589  -1.775   0.919   6.457 -1.1416  0.6036 -0.5349
  596MOL0     N78590  -1.074   1.246   6.352 -0.4375  0.6297 -0.2562
  596MOL0     N78591  -0.955   1.303   6.372  1.0957 -0.9916 -0.2024
  596MOL0     C78592  -0.190   1.403   7.184  0.3441 -0.9983  0.3103
  596MOL0     C78593  -0.123   1.489   7.271 -0.3860 -0.4531  0.8125
  596MOL0     C78594   0.238   1.697   7.489  0.0876 -0.8108 -0.6635
  596MOL0     C78595   0.186   1.830   7.466 -0.4220  1.0375 -0.1240
  596MOL0     C78596   0.251   1.934   7.524 -0.0471 -0.1944 -0.4062
  596MOL0     C78597   0.365   1.919   7.598  0.0042 -0.0493 -0.0231
  596MOL0     O78598   0.439   2.029   7.629 -0.3324 -0.5993  0.5969
  596MOL0     C78599   0.373   2.151   7.668 -0.1212  0.6749  0.0308
  596MOL0     C78600   0.462   2.253   7.745 -0.8677  0.7171  0.3249
  596MOL0     C78601   0.417   2.259   7.896 -0.0091  0.1673  0.2192
  596MOL0     C78602   0.451   2.131   7.974  0.7615 -0.1762 -0.3348
  596MOL0     C78603   0.393   2.118   8.108  0.3474 -0.2053  0.7210
  596MOL0     C78604   0.345   2.121   8.225 -0.0907 -0.4234  1.0508
  596MOL0     C78605   0.424   1.791   7.616 -0.4080 -0.4127 -0.4925
  596MOL0     C78606   0.364   1.679   7.565 -0.0525 -0.0250 -0.9711
  596MOL0     H78607   0.196   1.421   7.170  0.0392  2.3349 -2.9217
  596MOL0     H78608   0.076   1.250   7.052  0.4334 -2.3255  2.4519
  596MOL0     H78609  -0.355   1.255   6.955 -2.5146 -0.4459  1.2396
  596MOL0     H78610  -0.355   1.177   7.106  0.6340  2.6348  0.5522
  596MOL0     H78611  -0.439   0.993   6.961  1.6377 -2.2140  2.6636
  596MOL0     H78612  -0.288   0.944   6.992  0.7261  1.2106  0.0577
  596MOL0     H78613  -0.324   0.918   6.758  1.0831  1.2295 -2.4548
  596MOL0     H78614  -0.211   1.056   6.769  1.2942  0.6814  1.5799
  596MOL0     H78615  -0.497   1.132   6.768 -0.6436  0.6459 -2.1564
  596MOL0     H78616  -0.364   1.213   6.711 -1.8706  1.3837  0.0297
  596MOL0     H78617  -0.480   0.960   6.554 -0.2257 -0.5829 -3.4102
  596MOL0     H78618  -0.330   1.043   6.523 -0.6895  4.2299 -3.1853
  596MOL0     H78619  -0.444   1.155   6.385  2.2462 -0.3238  1.1338
  596MOL0     H78620  -0.490   1.261   6.523 -4.2172 -0.1317  0.2789
  596MOL0     H78621  -0.664   1.014   6.444  2.1559  0.4831 -1.0859
  596MOL0     H78622  -0.681   1.124   6.581 -4.4726  0.4674 -1.5795
  596MOL0     H78623  -0.692   1.187   6.291 -1.4294 -2.6846  0.1608
  596MOL0     H78624  -0.700   1.319   6.422 -5.1592  1.2997  1.6733
  596MOL0     H78625  -0.883   0.980   6.350 -3.3452 -1.7673 -0.6939
  596MOL0     H78626  -1.096   0.918   6.268  3.0136  3.3673 -0.5244
  596MOL0     H78627  -1.167   1.046   6.176 -4.1404  2.1859  0.7535
  596MOL0     H78628  -1.320   1.105   6.381 -0.4223 -1.4422  0.8420
  596MOL0     H78629  -1.265   0.945   6.438  1.5779 -1.7423 -1.3156
  596MOL0     H78630  -1.427   1.022   6.181  0.3919 -3.0431 -2.8107
  596MOL0     H78631  -1.350   0.874   6.195  1.1554  2.5097 -2.7675
  596MOL0     H78632  -1.486   0.829   6.408  1.2178 -1.5698 -0.9219
  596MOL0     H78633  -1.586   0.858   6.268 -2.7745  1.8133  0.7799
  596MOL0     H78634  -1.706   1.253   6.443 -0.8793 -0.2025 -1.7282
  596MOL0     H78635  -1.924   1.266   6.518 -0.6088 -0.8217 -2.1475
  596MOL0     H78636  -2.243   1.391   6.692 -0.2271  0.8019 -0.7749
  596MOL0     H78637  -2.447   1.441   6.826  0.1110  0.6833 -0.2347
  596MOL0     H78638  -2.672   1.380   7.067  1.2814  1.5452 -2.6241
  596MOL0     H78639  -2.517   1.306   7.046  1.2040 -1.2678 -2.3123
  596MOL0     H78640  -2.607   1.169   7.210 -0.4072  0.9307  0.7820
  596MOL0     H78641  -2.621   1.083   7.051 -1.5994 -0.7565  0.3493
  596MOL0     H78642  -2.823   1.050   7.196 -1.3292 -2.0066 -1.9052
  596MOL0     H78643  -2.856   1.133   7.046 -2.4668 -1.2571  1.7302
  596MOL0     H78644  -2.845   1.293   7.309 -1.5510 -3.0925  2.3254
  596MOL0     H78645  -2.903   1.334   7.142  0.7761 -1.8895 -1.3608
  596MOL0     H78646  -3.023   1.141   7.327 -2.5512 -2.6415 -1.1177
  596MOL0     H78647  -3.090   1.177   7.159  1.1163 -1.9179  0.5231
  596MOL0     H78648  -3.151   1.394   7.227  2.3202 -0.4116 -2.5092
  596MOL0     H78649  -3.064   1.387   7.388  0.0345 -0.3794  0.3318
  596MOL0     H78650  -3.311   1.362   7.415  0.9370  2.3234 -2.3580
  596MOL0     H78651  -3.320   1.227   7.310 -0.5776 -0.9506 -0.5801
  596MOL0     H78652  -3.151   1.234   7.565  2.8487 -1.6564 -1.3383
  596MOL0     H78653  -3.157   1.094   7.467 -3.2721 -1.7926  1.1565
  596MOL0     H78654  -2.581   1.044   6.801 -2.0588  1.7017 -0.5603
  596MOL0     H78655  -2.380   0.977   6.682 -2.8970 -0.2648  1.5460
  596MOL0     H78656  -1.966   0.843   6.510 -0.5432  0.8511  1.0250
  596MOL0     H78657  -1.726   0.822   6.449 -0.3663  0.8673  0.7308
  596MOL0     H78658  -0.298   1.396   7.183  0.3707 -1.9179  1.4659
  596MOL0     H78659  -0.173   1.561   7.336  1.2335  5.0023 -3.2577
  596MOL0     H78660   0.101   1.838   7.398  1.0503  1.1114 -2.0236
  596MOL0     H78661   0.214   2.036   7.517 -0.2954 -0.3549 -1.8431
  596MOL0     H78662   0.286   2.124   7.729  0.5647 -1.9361 -0.0293
  596MOL0     H78663   0.322   2.194   7.581 -2.5234 -0.8407  0.5965
  596MOL0     H78664   0.563   2.211   7.751  0.0453  2.8843  1.1433
  596MOL0     H78665   0.475   2.350   7.697  0.5616 -0.9494 -2.9330
  596MOL0     H78666   0.308   2.268   7.894 -0.0786 -0.7486 -0.9490
  596MOL0     H78667   0.466   2.339   7.953  0.3688 -0.5946  0.9820
  596MOL0     H78668   0.418   2.052   7.906 -1.0238  1.2542 -1.2343
  596MOL0     H78669   0.558   2.114   7.986  0.5033  0.0013  3.3126
  596MOL0     H78670   0.299   2.130   8.322  0.8529 -0.7751  1.5450
  596MOL0     H78671   0.515   1.784   7.675 -0.2509 -3.0249 -0.9238
  596MOL0     H78672   0.395   1.577   7.583 -1.7337 -0.1215  2.0577
  597MOL0     O78673   3.803   4.334   2.830  0.2276  0.6221  0.5572
  597MOL0     C78674   3.735   4.356   2.933 -0.9820  0.1738  0.3738
  597MOL0     O78675   3.622   4.424   2.930  0.3336 -0.5801  0.1325
  597MOL0     C78676   3.556   4.454   2.805  0.8357 -0.0645 -0.2813
  597MOL0     C78677   3.491   4.356   2.722 -0.3556  0.3293  0.4277
  597MOL0     C78678   3.437   4.391   2.601  0.2609  0.3982 -1.0469
  597MOL0     C78679   3.428   4.522   2.550 -0.1258 -0.2016  0.4958
  597MOL0     O78680   3.370   4.536   2.425  0.1536  0.1550  0.0991
  597MOL0     C78681   3.422   4.648   2.345 -0.1943  0.3830 -0.2116
  597MOL0     C78682   3.407   4.627   2.194 -0.6104 -0.3309  0.3676
  597MOL0     C78683   3.463   4.753   2.111  0.2055 -0.5666 -0.5423
  597MOL0     C78684   3.425   4.754   1.960 -0.3947  0.4265  0.7649
  597MOL0     C78685   3.474   4.878   1.892  0.7243 -0.1449 -0.2037
  597MOL0     C78686   3.383   4.999   1.910  0.3327 -0.2209  0.0633
  597MOL0     C78687   3.306   5.030   1.778 -0.8591 -0.1583  0.0148
  597MOL0     C78688   3.233   5.171   1.789  0.2106  0.0067  0.2186
  597MOL0     N78689   3.157   5.185   1.917  0.6472 -0.4972  0.2132
  597MOL0     C78690   3.059   5.103   1.954 -0.1974  0.1962  0.2254
  597MOL0     C78691   3.010   5.164   2.068  0.2184  0.5027  1.1459
  597MOL0     C78692   2.889   5.113   2.134  0.0374  0.3109 -0.4460
  597MOL0     C78693   2.765   5.174   2.070  0.5235 -1.2005 -0.1782
  597MOL0     C78694   2.721   5.101   1.935 -0.1686  0.2460 -1.0609
  597MOL0     C78695   2.570   5.139   1.897  1.3385 -0.0260  0.4304
  597MOL0     O78696   2.514   5.021   1.842 -0.1263 -0.1371  0.2363
  597MOL0     C78697   2.386   5.040   1.787  0.3074 -1.3188  0.3761
  597MOL0     C78698   2.325   5.168   1.750  0.3271  0.8613 -0.2961
  597MOL0     C78699   2.196   5.175   1.695  0.1163 -0.1258 -0.4804
  597MOL0     C78700   2.115   5.054   1.682 -1.0193  0.5846 -0.5089
  597MOL0     C78701   1.966   5.063   1.640 -0.6539  0.0398 -0.1959
  597MOL0     O78702   1.898   4.947   1.628 -0.3139 -0.1329 -0.0120
  597MOL0     C78703   1.781   4.940   1.570  0.6632 -0.1584  0.4697
  597MOL0     C78704   1.659   4.916   1.626  0.6513 -0.8098 -0.4409
  597MOL0     C78705   1.543   4.916   1.547 -0.0888  0.7111 -0.9282
  597MOL0     C78706   1.555   4.940   1.413  0.8370 -0.4198  0.5270
  597MOL0     O78707   1.429   4.942   1.351  0.4101  0.2593 -0.6080
  597MOL0     C78708   1.435   4.913   1.211  0.6560  0.2827  0.5247
  597MOL0     C78709   1.442   4.758   1.193  0.1638 -0.1893 -0.0232
  597MOL0     C78710   1.450   4.708   1.049  0.7951  0.8122  0.6260
  597MOL0     C78711   1.456   4.548   1.051  0.8154  0.2796 -0.6781
  597MOL0     C78712   1.497   4.502   0.911 -0.1106  0.3806  0.8193
  597MOL0     C78713   1.527   4.350   0.910  0.2965  0.1291  0.1872
  597MOL0     C78714   1.578   4.301   0.774 -0.4053  1.3008  0.5991
  597MOL0     C78715   1.597   4.151   0.755  0.3806 -0.2167 -0.8382
  597MOL0    Cl78716   1.707   4.095   0.885 -0.2681 -0.3989 -0.5968
  597MOL0     C78717   1.681   4.963   1.357  1.2049  0.2709  0.4180
  597MOL0     C78718   1.786   4.956   1.439 -0.0079  0.4310  0.7482
  597MOL0     O78719   1.921   5.178   1.616  0.3204 -0.1218 -0.5441
  597MOL0     C78720   2.174   4.931   1.713  0.8143  0.0950 -0.1719
  597MOL0     C78721   2.309   4.928   1.765  0.2534 -0.3787 -0.1382
  597MOL0     N78722   3.079   5.279   2.098  0.6365 -0.3795 -0.2246
  597MOL0     N78723   3.180   5.282   2.010  0.4137  0.2706  0.3129
  597MOL0     C78724   3.483   4.620   2.632 -0.6674 -0.9819 -0.2101
  597MOL0     C78725   3.537   4.588   2.759 -0.0654  0.2199  0.2747
  597MOL0     C78726   3.794   4.306   3.061 -0.7404 -0.1771 -0.9741
  597MOL0     C78727   3.739   4.333   3.179 -1.1472 -0.3752 -0.2408
  597MOL0     C78728   3.801   4.285   3.294  0.0699  0.2640 -0.1471
  597MOL0     C78729   3.915   4.206   3.283 -0.6021  0.1458  0.1707
  597MOL0     O78730   3.971   4.192   3.408 -0.1598 -0.2827 -0.0781
  597MOL0     C78731   4.100   4.126   3.438 -0.3747  0.4975 -0.5482
  597MOL0     C78732   4.084   3.976   3.475  0.2444 -0.1956 -0.1735
  597MOL0     C78733   4.083   3.955   3.622 -0.0130 -0.2770 -0.3409
  597MOL0     C78734   4.055   3.811   3.660  0.0894  0.9877 -0.1737
  597MOL0     C78735   3.917   3.775   3.656  0.0344  0.4990  0.3670
  597MOL0     C78736   3.799   3.754   3.646 -1.1612  0.0555  0.4839
  597MOL0     C78737   3.974   4.176   3.163  0.0397  0.1218 -1.0884
  597MOL0     C78738   3.914   4.230   3.053 -0.2394 -0.6164  0.3579
  597MOL0     H78739   3.473   4.252   2.747 -3.5849  0.3540 -1.2646
  597MOL0     H78740   3.391   4.309   2.548 -1.1479 -0.2702  1.0853
  597MOL0     H78741   3.526   4.669   2.371  0.5404 -1.4017 -1.5230
  597MOL0     H78742   3.360   4.733   2.374 -2.4701  0.0439 -3.4971
  597MOL0     H78743   3.300   4.625   2.173 -0.5229  3.3632 -1.1590
  597MOL0     H78744   3.444   4.528   2.167  2.1502  0.9928 -1.0476
  597MOL0     H78745   3.573   4.750   2.113  0.4811  2.8419 -2.3688
  597MOL0     H78746   3.421   4.840   2.162  2.8247 -0.0500  0.9486
  597MOL0     H78747   3.483   4.667   1.928  0.8754  0.0980  3.6669
  597MOL0     H78748   3.319   4.735   1.941  0.5532 -3.5002 -1.9983
  597MOL0     H78749   3.477   4.848   1.787  3.3752  1.5903 -0.7156
  597MOL0     H78750   3.565   4.906   1.945  0.0330  0.8958  0.4644
  597MOL0     H78751   3.427   5.095   1.938  1.3271 -0.8574  0.7397
  597MOL0     H78752   3.313   4.973   1.989 -0.3192 -2.1999 -1.1010
  597MOL0     H78753   3.377   5.031   1.695 -1.4751  2.3965 -0.5638
  597MOL0     H78754   3.230   4.953   1.759 -0.1424 -0.2752 -2.7551
  597MOL0     H78755   3.168   5.178   1.701  0.7275  1.3359 -0.0844
  597MOL0     H78756   3.305   5.252   1.779 -2.0644  1.9687 -1.7587
  597MOL0     H78757   3.028   5.007   1.914  3.0784 -1.5338  1.4639
  597MOL0     H78758   2.906   5.137   2.239  1.6641 -1.0907 -0.3304
  597MOL0     H78759   2.883   5.003   2.139  3.9058 -0.0259  4.4077
  597MOL0     H78760   2.794   5.279   2.066  0.6129 -1.0594  2.4448
  597MOL0     H78761   2.676   5.179   2.134  1.6014  2.1380  1.2576
  597MOL0     H78762   2.792   5.132   1.859  1.1939  1.6789  0.7079
  597MOL0     H78763   2.733   4.992   1.946 -1.4594 -0.0430 -2.2838
  597MOL0     H78764   2.566   5.224   1.829 -1.4119 -1.4875 -1.4102
  597MOL0     H78765   2.504   5.174   1.977  0.1222 -1.0578 -0.0942
  597MOL0     H78766   2.376   5.263   1.757 -1.4098  2.2962 -4.3061
  597MOL0     H78767   2.148   5.271   1.685 -0.7298 -0.0208  3.1584
  597MOL0     H78768   1.646   4.912   1.734  1.0377 -1.4066 -0.4082
  597MOL0     H78769   1.444   4.888   1.584  0.7273 -1.3955 -0.2097
  597MOL0     H78770   1.506   4.965   1.146 -1.8904 -1.3771 -4.0845
  597MOL0     H78771   1.342   4.957   1.172 -0.9285 -3.4573 -0.4237
  597MOL0     H78772   1.358   4.705   1.237  1.3498 -2.7118 -0.5956
  597MOL0     H78773   1.536   4.727   1.241  1.4980  1.5359 -1.3500
  597MOL0     H78774   1.533   4.753   0.994  0.5585  3.8902  2.5288
  597MOL0     H78775   1.353   4.733   1.006 -0.6705 -1.3938  2.4019
  597MOL0     H78776   1.524   4.495   1.118 -2.8715 -2.5122  1.1974
  597MOL0     H78777   1.354   4.519   1.077  0.4912  2.0161  0.1640
  597MOL0     H78778   1.589   4.554   0.880  0.1852 -1.0247 -0.8190
  597MOL0     H78779   1.425   4.516   0.829 -1.3877 -1.7253  1.5227
  597MOL0     H78780   1.441   4.294   0.946 -2.1379  2.9464 -0.8249
  597MOL0     H78781   1.610   4.337   0.980 -0.7446 -1.4016  1.1791
  597MOL0     H78782   1.509   4.338   0.698 -0.7059  0.7773  0.6089
  597MOL0     H78783   1.676   4.350   0.762  0.2753  0.1400  1.2361
  597MOL0     H78784   1.634   4.121   0.657  0.4583 -2.8906 -0.0644
  597MOL0     H78785   1.496   4.110   0.766 -1.7348  4.9446  2.7481
  597MOL0     H78786   1.686   4.970   1.249 -0.6273  0.0865  0.2897
  597MOL0     H78787   1.883   4.985   1.399  2.5176 -1.2335  5.0652
  597MOL0     H78788   2.130   4.834   1.693  1.0386  0.0977 -0.6948
  597MOL0     H78789   2.347   4.832   1.798  2.0350  0.7125  1.1746
  597MOL0     H78790   3.509   4.719   2.597  0.2712 -1.7967 -1.8962
  597MOL0     H78791   3.576   4.670   2.818 -0.5317 -0.2147  1.2106
  597MOL0     H78792   3.652   4.395   3.195 -3.2566 -2.6783 -1.9291
  597MOL0     H78793   3.767   4.313   3.393 -2.0307  3.7557 -1.6728
  597MOL0     H78794   4.146   4.168   3.528  0.3189 -0.5076 -0.4102
  597MOL0     H78795   4.172   4.138   3.355 -0.5807  1.8850 -0.5528
  597MOL0     H78796   3.989   3.943   3.434  0.7192  0.9671 -2.3971
  597MOL0     H78797   4.160   3.915   3.424 -1.9774 -1.3415 -2.3146
  597MOL0     H78798   4.007   4.014   3.675  1.9126 -1.3939  4.1557
  597MOL0     H78799   4.172   3.996   3.671 -1.6091 -0.0299  2.5372
  597MOL0     H78800   4.095   3.744   3.583 -1.0503  2.5188 -2.2204
  597MOL0     H78801   4.083   3.792   3.764 -0.4129 -0.2760 -0.2616
  597MOL0     H78802   3.692   3.749   3.653 -1.2961 -3.0016 -1.5241
  597MOL0     H78803   4.053   4.101   3.156 -2.5913 -3.6601  3.4331
  597MOL0     H78804   3.967   4.220   2.959  1.0802  0.6455  0.9410
  598MOL0     O78805   5.191   6.424   9.527 -0.0732 -0.9376  0.1062
  598MOL0     C78806   5.129   6.319   9.511  0.7095 -0.7576  0.2213
  598MOL0     O78807   5.191   6.205   9.472  0.3699  0.3527 -0.2620
  598MOL0     C78808   5.322   6.182   9.481  0.3786 -1.5101  0.2214
  598MOL0     C78809   5.392   6.113   9.383  0.2390 -0.2076 -0.2874
  598MOL0     C78810   5.528   6.073   9.400 -0.4497 -0.4858  0.6764
  598MOL0     C78811   5.586   6.090   9.528  0.1261 -0.3306 -0.1740
  598MOL0     O78812   5.703   6.034   9.557 -0.8074 -0.4896 -0.2465
  598MOL0     C78813   5.803   5.991   9.460 -0.3266  0.4464 -0.5699
  598MOL0     C78814   5.849   6.107   9.365 -0.0116  0.0195 -0.9496
  598MOL0     C78815   5.978   6.081   9.283  0.6218 -0.6140  0.2549
  598MOL0     C78816   5.964   6.112   9.140 -0.1413 -0.6389 -0.2981
  598MOL0     C78817   6.107   6.096   9.093 -0.7277  0.5312  0.8375
  598MOL0     C78818   6.121   6.142   8.946  0.4239  0.1964 -0.6804
  598MOL0     C78819   6.072   6.039   8.847 -0.2637 -0.2025  0.9572
  598MOL0     C78820   6.091   6.086   8.703  0.1895 -0.0772  0.3520
  598MOL0     N78821   6.010   6.200   8.668 -0.6305 -0.0159  0.0306
  598MOL0     C78822   6.050   6.327   8.692  1.5217 -0.0808  0.0122
  598MOL0     C78823   5.996   6.401   8.597  0.1383  0.1847  0.0005
  598MOL0     C78824   6.021   6.549   8.577  0.4618 -0.4759  0.6110
  598MOL0     C78825   6.007   6.595   8.429 -0.3464  0.6012 -0.3224
  598MOL0     C78826   6.006   6.738   8.398  0.4633 -0.0131  0.2928
  598MOL0     C78827   6.131   6.813   8.405 -0.3184 -0.7045 -0.6934
  598MOL0     O78828   6.147   6.841   8.542 -0.7508  0.2829 -0.5879
  598MOL0     C78829   6.253   6.922   8.582 -0.0645  0.3972 -1.6116
  598MOL0     C78830   6.291   6.900   8.718  0.6997 -0.1444 -0.3212
  598MOL0     C78831   6.407   6.948   8.778  0.2038 -0.1605  0.0766
  598MOL0     C78832   6.491   7.038   8.718  0.5592 -0.0938  0.5890
  598MOL0     C78833   6.622   7.070   8.772  0.1681 -0.0834 -0.2661
  598MOL0     O78834   6.729   7.088   8.686 -0.4291 -0.2321  0.0449
  598MOL0     C78835   6.854   7.089   8.743  0.2449 -0.6419 -0.1464
  598MOL0     C78836   6.930   6.976   8.758 -0.4956 -0.0682 -1.1209
  598MOL0     C78837   7.050   6.977   8.828 -0.2682  0.4531 -1.1107
  598MOL0     C78838   7.107   7.094   8.879 -0.0360 -0.7592  0.3756
  598MOL0     O78839   7.228   7.094   8.942  0.9844 -0.2417 -0.1963
  598MOL0     C78840   7.334   7.005   8.895 -0.0274 -0.2865 -0.0821
  598MOL0     C78841   7.424   7.104   8.819  0.1360 -0.4131 -0.0061
  598MOL0     C78842   7.526   7.036   8.722  0.4998  0.9350 -0.2507
  598MOL0     C78843   7.625   7.142   8.667  1.1276 -0.3303 -0.6537
  598MOL0     C78844   7.739   7.100   8.569  0.3875 -0.4352 -0.1306
  598MOL0     C78845   7.688   7.022   8.448 -0.1131 -0.2057 -0.5265
  598MOL0     C78846   7.798   6.972   8.357 -0.3505 -0.4329 -0.3485
  598MOL0     C78847   7.891   6.866   8.427  0.0532  0.4487 -0.3190
  598MOL0    Cl78848   7.998   6.803   8.302 -0.4128 -0.4117 -0.0206
  598MOL0     C78849   7.029   7.205   8.881  1.1306 -0.2625 -0.6663
  598MOL0     C78850   6.900   7.206   8.812 -0.4498  0.3683  0.8016
  598MOL0     O78851   6.628   7.064   8.897 -0.4716  0.4642 -0.0704
  598MOL0     C78852   6.454   7.072   8.580 -0.1470  1.1050 -0.1925
  598MOL0     C78853   6.342   7.007   8.512 -0.1353 -0.3058 -0.4284
  598MOL0     N78854   5.912   6.324   8.523  0.1871 -0.0323  0.4344
  598MOL0     N78855   5.925   6.203   8.560 -0.5929  0.9713 -0.6156
  598MOL0     C78856   5.522   6.170   9.627  0.1238 -0.4210  0.2951
  598MOL0     C78857   5.393   6.216   9.602 -0.1095  0.4504  0.0600
  598MOL0     C78858   4.984   6.318   9.534  0.3334 -0.4291 -1.1089
  598MOL0     C78859   4.912   6.439   9.543  1.4868 -0.0527 -0.2713
  598MOL0     C78860   4.770   6.436   9.568  0.4392  0.2397  0.0064
  598MOL0     C78861   4.699   6.320   9.563 -0.3497  0.6746 -0.3761
  598MOL0     O78862   4.562   6.319   9.549  0.1660  0.3658  1.2966
  598MOL0     C78863   4.475   6.289   9.653 -0.0246  0.4953 -0.4756
  598MOL0     C78864   4.480   6.388   9.769 -0.3900  0.1994 -0.2379
  598MOL0     C78865   4.366   6.373   9.873 -0.3994 -0.0535 -0.2433
  598MOL0     C78866   4.351   6.511   9.962  0.1058  0.5512  0.3092
  598MOL0     C78867   4.266   6.484  10.081  0.8673 -1.0137  0.0584
  598MOL0     C78868   4.210   6.477  10.188  0.4086  0.1080 -0.7701
  598MOL0     C78869   4.771   6.207   9.551 -0.3999  0.0369 -0.8030
  598MOL0     C78870   4.913   6.195   9.532 -0.2129  0.3437 -0.3648
  598MOL0     H78871   5.330   6.086   9.299 -0.6428 -2.2525  0.9563
  598MOL0     H78872   5.570   6.005   9.327 -2.1135 -1.8704  0.9545
  598MOL0     H78873   5.774   5.895   9.416  1.2448 -0.0198 -0.6438
  598MOL0     H78874   5.887   5.961   9.524 -2.4561 -3.6314  0.6871
  598MOL0     H78875   5.863   6.198   9.425  1.4331  0.1423 -1.4185
  598MOL0     H78876   5.770   6.125   9.293 -0.2507 -0.0836 -0.7141
  598MOL0     H78877   5.992   5.973   9.288 -2.1710 -1.1781 -1.5178
  598MOL0     H78878   6.054   6.143   9.331  0.6558  0.0936 -0.6852
  598MOL0     H78879   5.891   6.054   9.082 -2.2301  1.4138  0.1034
  598MOL0     H78880   5.931   6.216   9.129  0.7364 -0.3781 -0.5046
  598MOL0     H78881   6.143   5.992   9.094  0.5851  0.9579  0.5221
  598MOL0     H78882   6.171   6.164   9.150  0.4314  1.4568 -1.4114
  598MOL0     H78883   6.229   6.150   8.938  0.8677 -2.9621  0.9067
  598MOL0     H78884   6.071   6.239   8.938 -0.2798  0.2569  2.8142
  598MOL0     H78885   6.127   5.946   8.866  0.9527 -0.0014 -1.2316
  598MOL0     H78886   5.965   6.022   8.862  0.0484 -2.8811  0.7151
  598MOL0     H78887   6.074   6.001   8.636 -0.2252  0.0859  0.2449
  598MOL0     H78888   6.195   6.120   8.696 -0.4536  2.0219  0.3433
  598MOL0     H78889   6.118   6.368   8.766 -0.7261  1.6829  1.2385
  598MOL0     H78890   6.119   6.575   8.618  0.2144 -1.2245  1.7282
  598MOL0     H78891   5.946   6.611   8.627  0.2121  2.6536 -3.1890
  598MOL0     H78892   5.916   6.556   8.383  0.0209  1.3758 -1.7668
  598MOL0     H78893   6.091   6.554   8.373 -0.4200  1.2362 -0.9084
  598MOL0     H78894   5.963   6.757   8.300 -2.5054  1.4428  1.7431
  598MOL0     H78895   5.933   6.785   8.465  1.0641  0.7405  0.4363
  598MOL0     H78896   6.127   6.910   8.357 -2.0268  0.2667  1.2335
  598MOL0     H78897   6.220   6.757   8.373  2.0289  0.9592  2.3468
  598MOL0     H78898   6.218   6.843   8.776  0.4242 -0.9453 -1.4284
  598MOL0     H78899   6.422   6.906   8.877  2.4377 -2.4269 -1.0871
  598MOL0     H78900   6.891   6.878   8.734 -0.7737 -0.5847  1.1914
  598MOL0     H78901   7.101   6.886   8.858 -2.3239 -0.7033 -0.9839
  598MOL0     H78902   7.310   6.921   8.830 -2.1960 -1.7753  2.4934
  598MOL0     H78903   7.388   6.954   8.975 -1.9593 -1.3817  0.5663
  598MOL0     H78904   7.478   7.172   8.887  1.9913 -2.5381  0.7734
  598MOL0     H78905   7.370   7.166   8.747 -0.3627 -0.0967  0.6344
  598MOL0     H78906   7.471   6.987   8.642  0.1833 -1.0668  1.1101
  598MOL0     H78907   7.571   6.964   8.791 -0.0931  0.7083 -0.0952
  598MOL0     H78908   7.561   7.208   8.608  2.6753  2.7974  0.9021
  598MOL0     H78909   7.664   7.194   8.755 -1.4009  0.4523  0.1023
  598MOL0     H78910   7.810   7.041   8.627  3.1094  1.6498 -1.1472
  598MOL0     H78911   7.783   7.193   8.532  0.4951 -0.6849 -0.6386
  598MOL0     H78912   7.623   7.094   8.396 -0.8600 -1.4583 -1.3725
  598MOL0     H78913   7.624   6.942   8.487 -1.9794 -0.4522 -3.7186
  598MOL0     H78914   7.743   6.935   8.269  2.7544  1.8502 -3.5358
  598MOL0     H78915   7.864   7.047   8.312  2.4564 -2.8200 -0.4887
  598MOL0     H78916   7.828   6.789   8.473 -0.6096 -0.1860 -2.1990
  598MOL0     H78917   7.952   6.917   8.502  0.6211  0.6167 -0.8895
  598MOL0     H78918   7.055   7.295   8.936 -3.8674  2.0389 -1.4441
  598MOL0     H78919   6.846   7.299   8.823  0.4514  0.6349  4.0398
  598MOL0     H78920   6.518   7.137   8.521 -0.4544  1.0154 -0.6344
  598MOL0     H78921   6.333   7.027   8.405  0.7465 -0.7016 -0.5904
  598MOL0     H78922   5.569   6.172   9.725 -1.9757 -2.6077  1.4509
  598MOL0     H78923   5.342   6.262   9.687  1.5372 -0.8823  1.8728
  598MOL0     H78924   4.963   6.535   9.545  2.9981 -0.8200  1.1955
  598MOL0     H78925   4.715   6.527   9.586  2.5610  1.4137  0.8882
  598MOL0     H78926   4.481   6.188   9.694  1.3944  0.4240 -0.8267
  598MOL0     H78927   4.377   6.292   9.605  0.5916 -2.8148 -2.2614
  598MOL0     H78928   4.575   6.377   9.823 -0.0880  2.5334 -0.1589
  598MOL0     H78929   4.480   6.490   9.728  0.8827  1.1474  1.9099
  598MOL0     H78930   4.376   6.282   9.933  2.8088  1.2798  1.5356
  598MOL0     H78931   4.273   6.361   9.818 -2.0665  3.9598  1.2906
  598MOL0     H78932   4.454   6.537   9.986  1.3193 -1.0976 -2.5825
  598MOL0     H78933   4.305   6.588   9.899 -2.3759 -1.8600 -1.0599
  598MOL0     H78934   4.173   6.477  10.288  0.7726  0.3234 -0.6356
  598MOL0     H78935   4.721   6.111   9.551  2.1392 -1.4033 -2.7857
  598MOL0     H78936   4.958   6.097   9.520  0.3345  0.4722  0.5490
  599MOL0     O78937   4.653   1.564   1.853  0.3750 -0.5318  0.3143
  599MOL0     C78938   4.631   1.636   1.948  0.4273  0.4527  0.1952
  599MOL0     O78939   4.683   1.757   1.967  0.7734  0.2135  0.3799
  599MOL0     C78940   4.727   1.828   1.852 -0.0406  0.0033  0.3166
  599MOL0     C78941   4.830   1.779   1.774  0.1314 -0.1522 -0.7471
  599MOL0     C78942   4.880   1.848   1.668 -1.1574  0.0801  0.1123
  599MOL0     C78943   4.828   1.972   1.642  0.8079 -0.7026  0.0685
  599MOL0     O78944   4.873   2.063   1.552 -0.0859  0.4555  0.2327
  599MOL0     C78945   4.952   2.021   1.440 -0.5580  0.6021  0.4861
  599MOL0     C78946   4.940   2.129   1.340  0.2191  0.7695  0.8776
  599MOL0     C78947   5.028   2.111   1.224 -1.4088  0.6499 -0.0444
  599MOL0     C78948   5.032   2.229   1.114 -0.0836 -0.1849 -0.8233
  599MOL0     C78949   5.102   2.177   0.989  0.3327  0.0071  0.3862
  599MOL0     C78950   5.097   2.281   0.879 -0.5202  0.6510 -0.4873
  599MOL0     C78951   5.143   2.226   0.738 -0.2302  0.5470  1.3575
  599MOL0     C78952   5.207   2.338   0.651 -0.3618  0.0741 -0.2976
  599MOL0     N78953   5.232   2.289   0.505 -0.5038  0.0927 -0.1973
  599MOL0     C78954   5.272   2.377   0.407 -0.2563 -0.1419 -0.3452
  599MOL0     C78955   5.271   2.316   0.290 -0.3567  0.3838 -0.1730
  599MOL0     C78956   5.309   2.374   0.157  0.4602 -0.7703 -0.0935
  599MOL0     C78957   5.382   2.504   0.163  0.5925 -0.3640  0.1774
  599MOL0     C78958   5.445   2.549   0.027 -0.4612  1.1268 -0.4251
  599MOL0     C78959   5.542   2.442  -0.027 -0.7919  0.2412 -0.2403
  599MOL0     O78960   5.616   2.482  -0.143 -0.5837 -0.4192 -0.1384
  599MOL0     C78961   5.561   2.449  -0.260 -0.7309  0.5792  0.5205
  599MOL0     C78962   5.643   2.492  -0.365  0.5787  0.1350 -0.0835
  599MOL0     C78963   5.605   2.468  -0.499  0.8013 -0.2042 -0.2837
  599MOL0     C78964   5.490   2.396  -0.525 -0.6801  0.5235 -0.7626
  599MOL0     C78965   5.454   2.377  -0.660 -0.5685 -0.3188 -0.2247
  599MOL0     O78966   5.556   2.365  -0.744 -0.3712  0.3174 -1.1139
  599MOL0     C78967   5.526   2.312  -0.865  0.0464 -0.5648 -0.8309
  599MOL0     C78968   5.476   2.184  -0.878 -0.1158 -0.5199 -0.1390
  599MOL0     C78969   5.449   2.130  -1.001  0.5950  0.6739  0.5177
  599MOL0     C78970   5.489   2.195  -1.119 -0.3500 -0.2890  0.6347
  599MOL0     O78971   5.473   2.153  -1.241  0.1899  1.0939  0.8951
  599MOL0     C78972   5.364   2.205  -1.316 -0.4902  0.2099 -0.2510
  599MOL0     C78973   5.413   2.286  -1.437  0.7526  0.6861  0.9787
  599MOL0     C78974   5.325   2.253  -1.558 -0.7133 -0.4339  0.0731
  599MOL0     C78975   5.380   2.312  -1.688 -0.1628  0.8883 -0.2603
  599MOL0     C78976   5.282   2.286  -1.791 -0.2028  0.1770 -0.0113
  599MOL0     C78977   5.306   2.360  -1.926  0.0900 -0.1175  0.5911
  599MOL0     C78978   5.440   2.328  -1.983  0.4985  0.5513 -0.7418
  599MOL0     C78979   5.463   2.184  -2.018  0.3228  0.2427 -0.5985
  599MOL0    Cl78980   5.642   2.157  -2.046  0.1832 -0.5756  0.2074
  599MOL0     C78981   5.541   2.334  -1.108 -0.1698  0.9669  0.4330
  599MOL0     C78982   5.554   2.390  -0.984 -0.4720  0.0735 -0.2312
  599MOL0     O78983   5.335   2.359  -0.684  0.4270 -0.6855 -0.5168
  599MOL0     C78984   5.415   2.350  -0.423 -0.5581  0.0502 -0.0528
  599MOL0     C78985   5.449   2.377  -0.289  0.1987  1.0014 -0.4653
  599MOL0     N78986   5.225   2.187   0.311 -0.0294  0.3046 -0.7060
  599MOL0     N78987   5.201   2.174   0.438 -0.4718 -0.4246 -0.3236
  599MOL0     C78988   4.727   2.028   1.726 -0.1182 -0.6157  0.5124
  599MOL0     C78989   4.681   1.953   1.825 -0.2253  0.7433  0.3673
  599MOL0     C78990   4.511   1.601   2.031 -0.0602 -0.2778 -0.1316
  599MOL0     C78991   4.441   1.689   2.124  0.2150 -0.6158  0.7258
  599MOL0     C78992   4.337   1.641   2.206 -0.3259 -0.4793 -0.7688
  599MOL0     C78993   4.314   1.507   2.206 -0.4807 -0.2567  0.4064
  599MOL0     O78994   4.227   1.439   2.288 -0.1534 -0.3935 -0.5382
  599MOL0     C78995   4.117   1.509   2.344 -0.4055 -0.3474  0.4532
  599MOL0     C78996   4.014   1.536   2.241 -0.2963 -0.2365  0.0332
  599MOL0     C78997   3.947   1.669   2.268 -1.2707  0.0942 -0.0454
  599MOL0     C78998   3.829   1.710   2.179  0.2820 -1.2192 -0.3165
  599MOL0     C78999   3.754   1.820   2.234  0.5192  1.0110  0.5083
  599MOL0     C79000   3.704   1.911   2.300  0.7183  0.0835 -0.0765
  599MOL0     C79001   4.374   1.423   2.112 -0.5708  0.0605 -0.3635
  599MOL0     C79002   4.466   1.472   2.026 -0.7804  0.1120 -0.7067
  599MOL0     H79003   4.882   1.687   1.799  0.0977 -0.9177 -3.2146
  599MOL0     H79004   4.953   1.809   1.599 -1.6709 -0.1323 -0.3171
  599MOL0     H79005   4.909   1.935   1.388  2.7211 -0.8263 -0.1263
  599MOL0     H79006   5.057   1.993   1.457 -0.7847 -2.8733 -2.5367
  599MOL0     H79007   4.970   2.223   1.388  1.7022  0.4413  0.6485
  599MOL0     H79008   4.838   2.138   1.301  0.0141  0.0816  1.2350
  599MOL0     H79009   5.005   2.012   1.183 -1.7232 -0.5535  2.8155
  599MOL0     H79010   5.125   2.121   1.273 -0.2933 -0.9130 -1.7906
  599MOL0     H79011   4.932   2.266   1.090  0.0319  3.2293  2.9038
  599MOL0     H79012   5.089   2.302   1.171  0.4131  0.3283 -1.9613
  599MOL0     H79013   5.044   2.090   0.956  0.1205 -0.9110  2.9229
  599MOL0     H79014   5.206   2.144   1.000  0.7248  1.1959  0.3720
  599MOL0     H79015   5.154   2.367   0.918  0.7361  0.4747 -1.8479
  599MOL0     H79016   4.998   2.324   0.861  1.0901  3.2726 -4.5588
  599MOL0     H79017   5.226   2.154   0.739  0.1010  0.8994  0.3074
  599MOL0     H79018   5.065   2.185   0.673  0.3204  4.8318 -2.4959
  599MOL0     H79019   5.291   2.389   0.701 -1.8005  1.2212  1.0403
  599MOL0     H79020   5.134   2.418   0.654  1.2444  1.6238 -0.7861
  599MOL0     H79021   5.292   2.480   0.437 -1.2048 -0.3597  1.1360
  599MOL0     H79022   5.223   2.395   0.092  1.2957  3.7496 -0.0895
  599MOL0     H79023   5.365   2.299   0.101 -1.2362  0.2200 -3.3708
  599MOL0     H79024   5.460   2.488   0.237  0.6735 -0.7199  0.0217
  599MOL0     H79025   5.320   2.587   0.196 -0.5796 -1.6102  1.2551
  599MOL0     H79026   5.367   2.552  -0.049  0.2412  0.8203 -1.1715
  599MOL0     H79027   5.491   2.649   0.032 -2.1376  1.8819  1.0679
  599MOL0     H79028   5.492   2.345  -0.041 -1.5243  0.2885  1.7759
  599MOL0     H79029   5.609   2.412   0.055  0.3939 -1.3137 -1.6998
  599MOL0     H79030   5.739   2.536  -0.339 -0.9041  1.1091  4.6012
  599MOL0     H79031   5.654   2.507  -0.588 -1.9380  1.4408 -1.1603
  599MOL0     H79032   5.447   2.137  -0.784 -2.2645  3.9102  1.6957
  599MOL0     H79033   5.409   2.029  -1.009 -1.3359  1.4421 -0.0604
  599MOL0     H79034   5.289   2.252  -1.253  1.6366 -0.3736  2.9487
  599MOL0     H79035   5.308   2.120  -1.357  0.4270  0.2345 -1.6192
  599MOL0     H79036   5.517   2.267  -1.465  0.2763  1.1754 -1.4243
  599MOL0     H79037   5.397   2.389  -1.404 -0.3566  0.5326  0.9387
  599MOL0     H79038   5.232   2.306  -1.536 -0.1891  0.8572 -0.6837
  599MOL0     H79039   5.298   2.148  -1.569  1.8985 -1.0872 -0.7254
  599MOL0     H79040   5.420   2.413  -1.674  2.5075 -0.3371  1.8975
  599MOL0     H79041   5.463   2.245  -1.713 -0.8960 -0.7565  1.4879
  599MOL0     H79042   5.192   2.321  -1.740  1.2969  2.2126  1.4091
  599MOL0     H79043   5.260   2.182  -1.815 -0.7697  0.5300 -1.1149
  599MOL0     H79044   5.286   2.467  -1.922  4.1284  0.7962  0.0952
  599MOL0     H79045   5.227   2.321  -1.991  1.1812 -0.0004 -0.8590
  599MOL0     H79046   5.452   2.378  -2.080  0.4475  0.4111 -0.8203
  599MOL0     H79047   5.514   2.359  -1.908  0.2207 -1.8701  0.6367
  599MOL0     H79048   5.401   2.152  -2.103  2.6262 -0.5247 -2.0840
  599MOL0     H79049   5.432   2.133  -1.926 -0.1647  0.6568 -0.5257
  599MOL0     H79050   5.560   2.385  -1.202  2.7665 -1.8845 -0.6928
  599MOL0     H79051   5.598   2.489  -0.981  1.6691 -0.8030 -0.8445
  599MOL0     H79052   5.321   2.302  -0.448 -1.8749  2.3304  0.2441
  599MOL0     H79053   5.381   2.326  -0.220 -0.4196  0.3469 -1.5211
  599MOL0     H79054   4.693   2.130   1.713 -2.1328 -1.3165 -0.0379
  599MOL0     H79055   4.595   1.982   1.885 -0.5752  1.0029 -0.2479
  599MOL0     H79056   4.484   1.789   2.131 -1.2115 -0.0641  2.3793
  599MOL0     H79057   4.281   1.716   2.261 -3.5242 -2.4815 -1.0617
  599MOL0     H79058   4.152   1.602   2.388 -1.5020  0.5576 -0.5408
  599MOL0     H79059   4.076   1.448   2.426 -2.8552 -0.1216 -0.5213
  599MOL0     H79060   4.065   1.548   2.145  1.3852  0.0155  0.9047
  599MOL0     H79061   3.934   1.462   2.236  2.0327 -3.2341  2.5606
  599MOL0     H79062   4.020   1.749   2.254 -2.2962  1.2411  0.9563
  599MOL0     H79063   3.912   1.667   2.371 -0.8346 -1.9463  0.0995
  599MOL0     H79064   3.871   1.743   2.083  1.8833 -2.3654 -0.0614
  599MOL0     H79065   3.754   1.632   2.164  1.4896 -2.4869  0.0098
  599MOL0     H79066   3.649   1.985   2.356  2.8912  0.9862  0.9815
  599MOL0     H79067   4.338   1.321   2.103 -0.7244  0.0653  0.2167
  599MOL0     H79068   4.510   1.411   1.948 -1.1919 -0.6186 -0.3776
  600MOL0     O79069   3.718   0.971   8.699  0.0348 -0.0885 -0.4924
  600MOL0     C79070   3.710   0.866   8.761 -0.2137  0.6902 -0.3661
  600MOL0     O79071   3.775   0.751   8.732  0.1495 -0.3891  0.4380
  600MOL0     C79072   3.891   0.763   8.652 -0.6218 -0.3572  0.1650
  600MOL0     C79073   3.932   0.646   8.586 -0.2495 -0.4833  0.9854
  600MOL0     C79074   4.047   0.637   8.508 -1.0271  0.3146 -0.6931
  600MOL0     C79075   4.134   0.748   8.496 -0.1042 -0.0357  0.5657
  600MOL0     O79076   4.261   0.743   8.430  0.2821  0.8173 -0.5410
  600MOL0     C79077   4.366   0.768   8.513  0.9925 -0.9719 -0.7120
  600MOL0     C79078   4.494   0.753   8.432 -0.2536  0.0244  0.0182
  600MOL0     C79079   4.580   0.623   8.471  0.2128  0.4255 -0.4798
  600MOL0     C79080   4.691   0.621   8.371 -0.0822  0.4709  0.1529
  600MOL0     C79081   4.802   0.725   8.411 -0.4505  0.4199 -0.2159
  600MOL0     C79082   4.934   0.667   8.366 -0.6681 -0.2631 -0.4531
  600MOL0     C79083   5.067   0.746   8.407 -0.3745 -0.3946 -0.1457
  600MOL0     C79084   5.107   0.852   8.307  0.2312  0.0794  0.0723
  600MOL0     N79085   5.139   0.808   8.170  1.1610  0.0115  0.3328
  600MOL0     C79086   5.214   0.696   8.133 -0.5672 -0.7985  0.0996
  600MOL0     C79087   5.199   0.680   8.003  0.2270 -0.0065 -0.4609
  600MOL0     C79088   5.242   0.565   7.919  0.5337 -0.0081  0.3297
  600MOL0     C79089   5.166   0.437   7.957  0.4919 -0.6487  0.4894
  600MOL0     C79090   5.012   0.455   7.958  0.0365 -0.2074 -0.6957
  600MOL0     C79091   4.946   0.499   7.832  0.2927 -0.8425  0.4027
  600MOL0     O79092   4.992   0.419   7.724  0.2295  1.3174 -0.2601
  600MOL0     C79093   4.945   0.445   7.601  0.2071 -0.6364  0.0084
  600MOL0     C79094   4.854   0.541   7.569  1.3434  0.9972  0.1422
  600MOL0     C79095   4.804   0.539   7.442  1.4064  0.2009 -0.4443
  600MOL0     C79096   4.842   0.452   7.345 -0.4474  0.7643 -0.9527
  600MOL0     C79097   4.772   0.448   7.214  0.4047  0.5405  0.4345
  600MOL0     O79098   4.830   0.375   7.115  0.0046  0.3872  0.0574
  600MOL0     C79099   4.826   0.396   6.977 -0.1602  0.0745 -0.0064
  600MOL0     C79100   4.916   0.483   6.909 -0.9556  0.2593  0.1998
  600MOL0     C79101   4.907   0.502   6.771  0.3326 -0.3205  0.5797
  600MOL0     C79102   4.815   0.413   6.700 -0.4158  0.4992  0.8129
  600MOL0     O79103   4.832   0.417   6.557  0.5014 -0.1456 -0.9990
  600MOL0     C79104   4.755   0.330   6.480 -0.1072 -0.1361 -0.5724
  600MOL0     C79105   4.776   0.353   6.331  0.1633 -1.4978  0.1760
  600MOL0     C79106   4.660   0.444   6.271 -0.4773 -0.4368 -0.0252
  600MOL0     C79107   4.677   0.502   6.133  1.3395 -0.6989 -0.4942
  600MOL0     C79108   4.697   0.391   6.021 -0.8881  0.7264  0.3218
  600MOL0     C79109   4.749   0.455   5.890 -0.0257 -0.4031  1.0241
  600MOL0     C79110   4.797   0.352   5.781  0.2646 -0.3378 -0.2420
  600MOL0     C79111   4.717   0.211   5.782 -0.1441  1.2189  0.3320
  600MOL0    Cl79112   4.709   0.142   5.618 -0.0122  0.2337  0.5416
  600MOL0     C79113   4.730   0.326   6.772 -1.0103 -0.4457  0.1578
  600MOL0     C79114   4.736   0.322   6.906 -0.3532  0.9177  0.6784
  600MOL0     O79115   4.666   0.506   7.208  0.1036  0.6814  0.6025
  600MOL0     C79116   4.936   0.353   7.373  0.5844  0.2058  0.1993
  600MOL0     C79117   4.990   0.349   7.503  0.7262 -0.5641  0.5857
  600MOL0     N79118   5.118   0.782   7.956 -0.0448 -0.9967  0.0093
  600MOL0     N79119   5.083   0.854   8.061 -0.6137 -0.2986 -0.0892
  600MOL0     C79120   4.085   0.872   8.549 -0.2315  0.8776 -0.4843
  600MOL0     C79121   3.973   0.880   8.629 -0.2294  0.9747 -0.2597
  600MOL0     C79122   3.618   0.876   8.878 -0.7522  0.5393 -0.7543
  600MOL0     C79123   3.597   0.771   8.960  0.1135  0.7080  0.2019
  600MOL0     C79124   3.506   0.777   9.064  0.3490  0.6691  0.5324
  600MOL0     C79125   3.442   0.896   9.091 -0.6793 -0.0378 -0.4792
  600MOL0     O79126   3.367   0.900   9.201 -0.8994 -0.4336 -0.2440
  600MOL0     C79127   3.434   0.959   9.316  0.8928  0.0141 -0.3845
  600MOL0     C79128   3.367   0.906   9.443  1.0212 -0.2346 -0.3592
  600MOL0     C79129   3.225   0.963   9.460  0.5451  0.5080 -1.4214
  600MOL0     C79130   3.214   1.055   9.580 -0.6330  0.5851 -0.0590
  600MOL0     C79131   3.080   1.063   9.642  0.1655  1.4716  0.4614
  600MOL0     C79132   2.972   1.103   9.683  0.3556  0.1828 -0.0412
  600MOL0     C79133   3.463   1.005   9.002  0.6685 -0.4748  0.1532
  600MOL0     C79134   3.547   0.993   8.900  0.0883 -0.8759  0.3783
  600MOL0     H79135   3.879   0.553   8.602 -0.5135 -0.3410  0.9455
  600MOL0     H79136   4.077   0.539   8.471 -1.9225 -0.6136  0.9014
  600MOL0     H79137   4.364   0.706   8.604 -3.5423 -0.7338 -0.4552
  600MOL0     H79138   4.354   0.875   8.530 -0.8770 -1.2179 -0.3138
  600MOL0     H79139   4.554   0.841   8.458  0.8544 -0.8764  0.5724
  600MOL0     H79140   4.461   0.759   8.328 -0.2599  2.0477  0.0983
  600MOL0     H79141   4.516   0.540   8.439  0.2358  1.0782 -2.3383
  600MOL0     H79142   4.616   0.644   8.573  1.1472 -1.3833 -0.4109
  600MOL0     H79143   4.726   0.517   8.371 -0.6369  0.2744 -0.3832
  600MOL0     H79144   4.649   0.656   8.276  1.2572  3.2898  0.5098
  600MOL0     H79145   4.805   0.739   8.520 -1.9524 -2.5902  0.3192
  600MOL0     H79146   4.776   0.824   8.374 -4.5415 -0.6200 -0.6028
  600MOL0     H79147   4.922   0.661   8.257 -0.7905  0.5039 -0.4883
  600MOL0     H79148   4.948   0.564   8.400 -2.7978 -0.5181 -0.2435
  600MOL0     H79149   5.053   0.787   8.507  1.1085 -2.1018  0.8408
  600MOL0     H79150   5.148   0.672   8.411 -1.7907 -1.9531  2.1552
  600MOL0     H79151   5.193   0.905   8.348  1.1317 -1.5286  0.3555
  600MOL0     H79152   5.019   0.917   8.296 -1.3236 -2.2941 -3.5399
  600MOL0     H79153   5.278   0.630   8.191  2.6663  1.1773 -0.8977
  600MOL0     H79154   5.343   0.532   7.943  0.3742 -0.2973  0.6203
  600MOL0     H79155   5.233   0.590   7.813  6.8170 -2.5666 -1.2419
  600MOL0     H79156   5.193   0.411   8.060  2.3738  4.3877  1.5642
  600MOL0     H79157   5.193   0.364   7.880  0.3170 -1.7618  1.4616
  600MOL0     H79158   4.972   0.356   7.983 -0.7316  0.1680 -0.4004
  600MOL0     H79159   4.982   0.514   8.046  1.7606 -0.8851  0.3878
  600MOL0     H79160   4.976   0.601   7.806 -0.7062 -0.8515 -0.8406
  600MOL0     H79161   4.838   0.495   7.849 -0.1694  2.9495 -0.8083
  600MOL0     H79162   4.809   0.600   7.648 -1.1360 -0.6973  0.1124
  600MOL0     H79163   4.723   0.610   7.424  1.4656  0.8300  1.5383
  600MOL0     H79164   4.992   0.527   6.972 -0.7354 -2.6498  2.1651
  600MOL0     H79165   4.967   0.568   6.709 -0.9002  1.6767  1.4226
  600MOL0     H79166   4.649   0.327   6.507 -0.3717  0.8299 -1.4433
  600MOL0     H79167   4.801   0.235   6.510  1.3538  0.3948 -1.0319
  600MOL0     H79168   4.761   0.254   6.286  1.5643 -1.5154 -0.2854
  600MOL0     H79169   4.878   0.385   6.308 -0.3921 -0.2280 -0.6073
  600MOL0     H79170   4.650   0.524   6.345 -3.0564  0.2362 -1.0100
  600MOL0     H79171   4.566   0.388   6.277 -0.5929 -0.2087  0.3453
  600MOL0     H79172   4.590   0.565   6.112  2.7139  0.9934 -1.4092
  600MOL0     H79173   4.764   0.569   6.132  0.9114 -0.0950  0.8388
  600MOL0     H79174   4.601   0.342   6.005  0.8372 -2.5134 -1.1097
  600MOL0     H79175   4.762   0.309   6.054 -3.2098 -1.3823 -0.0380
  600MOL0     H79176   4.832   0.524   5.907 -0.6915  0.9406 -0.8641
  600MOL0     H79177   4.668   0.514   5.847  0.1887 -0.6948  0.2105
  600MOL0     H79178   4.773   0.398   5.685  0.6654 -0.3053 -0.3276
  600MOL0     H79179   4.905   0.338   5.779  0.2421 -0.4680 -1.0498
  600MOL0     H79180   4.616   0.220   5.824  0.7995 -0.1427  3.1104
  600MOL0     H79181   4.768   0.146   5.854 -1.6478  2.9184  3.1092
  600MOL0     H79182   4.664   0.256   6.722 -1.5063  0.0447  0.1188
  600MOL0     H79183   4.685   0.245   6.964  0.1764 -2.5514 -3.0359
  600MOL0     H79184   4.968   0.280   7.300  0.4538  1.2106 -0.9072
  600MOL0     H79185   5.063   0.273   7.527  0.5823 -0.9220 -0.0843
  600MOL0     H79186   4.147   0.961   8.560  0.9498 -0.1586  2.1779
  600MOL0     H79187   3.958   0.972   8.684  0.0062  0.9911 -0.2228
  600MOL0     H79188   3.654   0.679   8.958 -3.8341 -2.0233  0.9833
  600MOL0     H79189   3.464   0.693   9.119 -1.3327 -0.9387 -2.8651
  600MOL0     H79190   3.434   1.069   9.317 -1.6743  0.2350 -4.1444
  600MOL0     H79191   3.538   0.927   9.325  0.7790  0.1744  2.3291
  600MOL0     H79192   3.362   0.796   9.450 -2.1878 -0.1441  0.4508
  600MOL0     H79193   3.434   0.941   9.522  2.9973  0.1417 -2.1364
  600MOL0     H79194   3.170   0.875   9.495 -0.2134  1.2674 -0.6546
  600MOL0     H79195   3.182   1.000   9.366 -0.1671  0.2713 -1.1938
  600MOL0     H79196   3.278   1.023   9.662  1.9092  2.3015 -1.2306
  600MOL0     H79197   3.245   1.154   9.544  0.4820  0.4377  0.4534
  600MOL0     H79198   2.871   1.134   9.699 -1.1966 -2.8302 -2.7605
  600MOL0     H79199   3.408   1.096   9.021 -2.8426 -1.1790 -4.8251
  600MOL0     H79200   3.564   1.077   8.832 -0.4034 -0.0161  1.2865
  601MOL0     O79201   0.544   7.013   0.711  1.0009 -0.0822  0.2572
  601MOL0     C79202   0.551   6.912   0.648 -0.2839 -0.5510  0.6453
  601MOL0     O79203   0.455   6.857   0.583  0.8576  0.7142 -0.0511
  601MOL0     C79204   0.357   6.942   0.538  0.1044 -0.6932  0.7571
  601MOL0     C79205   0.392   7.048   0.444 -0.8075 -0.3405 -0.6202
  601MOL0     C79206   0.287   7.121   0.381  0.0450  0.1213  0.0069
  601MOL0     C79207   0.153   7.094   0.404  0.2049 -0.9959 -0.1787
  601MOL0     O79208   0.059   7.176   0.338  0.2576  0.3833 -0.3431
  601MOL0     C79209  -0.073   7.126   0.312 -0.1204 -0.3315 -0.6898
  601MOL0     C79210  -0.145   7.222   0.211 -0.0985 -0.2220 -0.8361
  601MOL0     C79211  -0.160   7.361   0.265 -0.3478 -0.5810 -0.3358
  601MOL0     C79212  -0.223   7.452   0.154 -0.7970  0.3897  0.7803
  601MOL0     C79213  -0.221   7.601   0.187  0.1261  0.6174  0.6650
  601MOL0     C79214  -0.283   7.621   0.318  0.7846  0.6188 -0.7191
  601MOL0     C79215  -0.312   7.766   0.348 -0.2111 -0.2873  1.0314
  601MOL0     C79216  -0.363   7.786   0.493  0.9502 -0.1907  0.7460
  601MOL0     N79217  -0.481   7.720   0.547 -0.8915  0.0296  0.2845
  601MOL0     C79218  -0.567   7.769   0.642 -0.2789 -0.6046  0.1012
  601MOL0     C79219  -0.646   7.668   0.682  0.4287  0.1670 -0.5460
  601MOL0     C79220  -0.763   7.673   0.765  0.3661  0.1404 -1.0818
  601MOL0     C79221  -0.869   7.555   0.738  0.4475 -0.8795  0.4542
  601MOL0     C79222  -0.832   7.440   0.835 -0.3806 -0.3589  0.1115
  601MOL0     C79223  -0.710   7.349   0.814  0.3062  0.0032  1.0898
  601MOL0     O79224  -0.689   7.260   0.920 -0.7938 -0.4882  0.0164
  601MOL0     C79225  -0.783   7.171   0.949 -0.0514  0.1414  0.3817
  601MOL0     C79226  -0.858   7.086   0.859 -0.6520  0.0108 -0.3000
  601MOL0     C79227  -0.955   6.996   0.913  1.3658 -0.5736  0.5302
  601MOL0     C79228  -0.984   6.997   1.055  1.0775 -0.1891  0.4653
  601MOL0     C79229  -1.102   6.917   1.100  0.3956  0.2427  0.1232
  601MOL0     O79230  -1.149   6.813   1.015 -0.0497  0.1852  0.6147
  601MOL0     C79231  -1.284   6.776   1.039 -0.2997  0.3551  0.4759
  601MOL0     C79232  -1.335   6.646   1.053 -0.4004 -0.3121  1.5129
  601MOL0     C79233  -1.472   6.614   1.046 -0.3628  0.2599  0.5940
  601MOL0     C79234  -1.569   6.712   1.029 -0.2027  0.3324  0.6346
  601MOL0     O79235  -1.707   6.694   1.006 -0.7742  0.1922 -0.3262
  601MOL0     C79236  -1.752   6.567   1.058 -0.9355  0.1899  0.1999
  601MOL0     C79237  -1.902   6.577   1.101  0.6129 -0.0683 -0.8525
  601MOL0     C79238  -1.984   6.663   1.003 -1.0115 -0.1020 -0.0662
  601MOL0     C79239  -2.126   6.660   1.058  0.5999 -0.4747 -0.0349
  601MOL0     C79240  -2.232   6.722   0.967  0.3003 -0.3566  0.3372
  601MOL0     C79241  -2.347   6.796   1.023  0.7254 -0.1064 -0.1215
  601MOL0     C79242  -2.428   6.888   0.940 -0.6319  0.0026  0.1398
  601MOL0     C79243  -2.559   6.823   0.887 -0.2041  0.8940 -0.9344
  601MOL0    Cl79244  -2.643   6.944   0.793 -0.2296  0.0005  0.1325
  601MOL0     C79245  -1.524   6.837   1.011 -0.6474  0.2834 -0.0109
  601MOL0     C79246  -1.388   6.872   1.021 -1.5306 -0.3892  0.5645
  601MOL0     O79247  -1.149   6.948   1.212  0.3171 -0.0033  0.8745
  601MOL0     C79248  -0.919   7.085   1.140  0.3832 -1.2821  0.8773
  601MOL0     C79249  -0.822   7.170   1.082  0.1642 -0.4236  0.0257
  601MOL0     N79250  -0.596   7.559   0.623 -0.2860  0.2316  0.8217
  601MOL0     N79251  -0.496   7.589   0.538 -0.1841  0.5510 -0.9086
  601MOL0     C79252   0.121   6.986   0.491  0.1997 -0.3100  0.7203
  601MOL0     C79253   0.219   6.909   0.539 -0.1894 -0.2422  0.4134
  601MOL0     C79254   0.683   6.857   0.653 -0.1113 -0.2471 -0.7738
  601MOL0     C79255   0.708   6.721   0.624 -0.2574  0.4797  0.1676
  601MOL0     C79256   0.842   6.676   0.608  0.2310 -0.0081 -0.2019
  601MOL0     C79257   0.952   6.759   0.625 -0.7118  0.1692  0.3037
  601MOL0     O79258   1.072   6.708   0.620 -0.1950  0.1070  0.4246
  601MOL0     C79259   1.186   6.779   0.665  0.1794  0.2828 -0.7599
  601MOL0     C79260   1.298   6.682   0.665 -0.5225  0.3851 -0.0470
  601MOL0     C79261   1.430   6.728   0.729  0.0615 -0.3883 -0.2410
  601MOL0     C79262   1.523   6.616   0.771  0.4269  1.1511  0.1243
  601MOL0     C79263   1.588   6.571   0.646  0.4016 -0.6765 -0.2698
  601MOL0     C79264   1.648   6.543   0.545  0.6897 -0.3432 -0.3216
  601MOL0     C79265   0.925   6.895   0.657  0.3693  0.4491  0.2789
  601MOL0     C79266   0.797   6.944   0.672 -0.0095 -0.1022  0.6335
  601MOL0     H79267   0.499   7.065   0.435 -1.1109  0.7674 -3.0423
  601MOL0     H79268   0.316   7.201   0.313  1.9790 -1.4948 -1.1822
  601MOL0     H79269  -0.132   7.117   0.403 -0.2223 -2.2013 -0.9007
  601MOL0     H79270  -0.083   7.028   0.264  0.2264 -0.9189  0.4203
  601MOL0     H79271  -0.242   7.176   0.188  1.6857 -2.8834 -3.6960
  601MOL0     H79272  -0.084   7.222   0.120  0.7444 -3.5085 -0.4022
  601MOL0     H79273  -0.062   7.402   0.291 -0.7724  0.6545 -0.6101
  601MOL0     H79274  -0.229   7.353   0.350 -0.2014  0.4507 -0.0992
  601MOL0     H79275  -0.170   7.432   0.061 -0.6462 -2.0849  1.3207
  601MOL0     H79276  -0.328   7.428   0.138 -1.2566  2.7852 -0.0995
  601MOL0     H79277  -0.268   7.646   0.098  0.7584 -0.6962 -0.3735
  601MOL0     H79278  -0.119   7.641   0.193  0.2920  0.2730  0.2210
  601MOL0     H79279  -0.221   7.576   0.395  1.4301 -0.9150 -2.0837
  601MOL0     H79280  -0.368   7.552   0.312  2.2700 -1.2458 -1.4036
  601MOL0     H79281  -0.223   7.827   0.330  0.0959 -1.2379 -1.0524
  601MOL0     H79282  -0.390   7.810   0.286  1.8713  0.6247 -1.0980
  601MOL0     H79283  -0.351   7.893   0.510  5.1247 -0.1842 -1.0906
  601MOL0     H79284  -0.294   7.746   0.568 -0.0353 -1.4894  0.9987
  601MOL0     H79285  -0.579   7.873   0.672  0.5365 -0.3157 -0.5397
  601MOL0     H79286  -0.807   7.769   0.739 -2.6661 -0.9087 -0.1765
  601MOL0     H79287  -0.732   7.679   0.870 -0.8832  1.3913 -0.7546
  601MOL0     H79288  -0.893   7.532   0.633 -1.3212  0.5893  0.4853
  601MOL0     H79289  -0.955   7.605   0.783 -1.5748 -1.0210 -2.8546
  601MOL0     H79290  -0.819   7.487   0.933  0.5666 -0.0583 -0.1462
  601MOL0     H79291  -0.916   7.371   0.841  1.1062 -2.3861 -1.0722
  601MOL0     H79292  -0.624   7.416   0.808  1.2955 -1.2298  1.3503
  601MOL0     H79293  -0.707   7.306   0.713  2.2633  0.9665  0.7047
  601MOL0     H79294  -0.859   7.116   0.754 -2.3786  0.7607 -0.0954
  601MOL0     H79295  -1.002   6.935   0.837  2.2244  2.9756 -3.2435
  601MOL0     H79296  -1.266   6.563   1.063  0.6597  0.5787  1.6568
  601MOL0     H79297  -1.502   6.510   1.035  1.9939 -0.4148  0.1414
  601MOL0     H79298  -1.690   6.535   1.142 -0.1601  3.4295  0.9872
  601MOL0     H79299  -1.740   6.502   0.970 -0.5741  1.4753 -0.7205
  601MOL0     H79300  -1.908   6.619   1.202  1.1256 -0.4921 -0.6375
  601MOL0     H79301  -1.948   6.478   1.109  0.2706  0.0225 -1.6520
  601MOL0     H79302  -1.979   6.612   0.906 -1.0462  3.1162 -1.9008
  601MOL0     H79303  -1.946   6.765   1.000  1.0726 -0.3558  5.8229
  601MOL0     H79304  -2.159   6.560   1.087 -1.1537  0.4989  1.4921
  601MOL0     H79305  -2.138   6.724   1.146 -2.9487  0.5078 -1.0976
  601MOL0     H79306  -2.272   6.642   0.905  2.6163 -1.1430 -0.2426
  601MOL0     H79307  -2.176   6.794   0.906  0.4196  0.1245  1.0078
  601MOL0     H79308  -2.306   6.854   1.107  0.6867  0.1078 -0.2509
  601MOL0     H79309  -2.422   6.727   1.063 -1.9102  2.5351 -0.2602
  601MOL0     H79310  -2.452   6.983   0.988 -0.1417  2.3147 -3.7352
  601MOL0     H79311  -2.364   6.925   0.859 -0.7099  3.4820  1.4705
  601MOL0     H79312  -2.617   6.790   0.973  2.3540 -2.2252 -0.1905
  601MOL0     H79313  -2.522   6.742   0.822  2.2743  1.3969 -0.2636
  601MOL0     H79314  -1.599   6.913   0.999 -1.1819 -0.3184 -0.5640
  601MOL0     H79315  -1.353   6.973   1.005  0.1275 -1.0260 -0.1257
  601MOL0     H79316  -0.944   7.096   1.245 -1.8951  0.0624  0.2662
  601MOL0     H79317  -0.771   7.232   1.156  1.3578 -1.6764  0.2966
  601MOL0     H79318   0.015   6.970   0.509 -0.4975  1.4029 -1.4469
  601MOL0     H79319   0.191   6.827   0.604 -0.3497  0.0663  0.7375
  601MOL0     H79320   0.627   6.650   0.610  1.1238 -1.1366  0.2141
  601MOL0     H79321   0.870   6.578   0.570  2.2695  1.5123 -2.9858
  601MOL0     H79322   1.177   6.806   0.770  2.9676 -1.3310  0.0177
  601MOL0     H79323   1.213   6.866   0.604 -1.3545  0.0507 -1.8344
  601MOL0     H79324   1.270   6.600   0.731 -0.2005 -2.0448 -2.7054
  601MOL0     H79325   1.333   6.650   0.566  1.0522  3.3056 -0.5318
  601MOL0     H79326   1.399   6.787   0.816  1.4156 -2.2700  1.6240
  601MOL0     H79327   1.499   6.793   0.673  3.3397 -2.7702  0.7105
  601MOL0     H79328   1.604   6.644   0.839  1.5196 -2.6599  0.6570
  601MOL0     H79329   1.470   6.535   0.823 -0.9530 -0.5985 -3.6010
  601MOL0     H79330   1.692   6.507   0.454  3.0260 -2.3935  1.4531
  601MOL0     H79331   1.006   6.966   0.675 -1.0974  2.4336 -0.5078
  601MOL0     H79332   0.781   7.049   0.699  2.4999  0.4489  0.1751
  602MOL0     O79333   8.380   0.659  10.730  0.2882  0.1870 -0.4789
  602MOL0     C79334   8.434   0.745  10.803  0.2008  0.2955 -0.0870
  602MOL0     O79335   8.373   0.813  10.902 -0.2166  1.3071 -0.5152
  602MOL0     C79336   8.246   0.857  10.889 -2.0085 -0.1595  0.8431
  602MOL0     C79337   8.176   0.871  11.012 -0.1097  0.3859  0.3927
  602MOL0     C79338   8.052   0.922  11.007  0.0528  0.1182 -0.0837
  602MOL0     C79339   7.988   0.959  10.894  0.2451 -0.0061  0.2781
  602MOL0     O79340   7.866   1.012  10.915 -0.3808 -0.1818 -0.0987
  602MOL0     C79341   7.776   1.006  10.804 -0.6195 -0.9064  0.0690
  602MOL0     C79342   7.632   1.053  10.846  0.0623 -0.8659  0.5190
  602MOL0     C79343   7.563   0.944  10.922  0.1792  0.1634  0.1939
  602MOL0     C79344   7.415   0.985  10.953  0.4467 -0.8082 -0.8674
  602MOL0     C79345   7.339   0.890  11.053 -0.3512 -0.4057 -0.3475
  602MOL0     C79346   7.200   0.947  11.034 -0.8029  0.3742  0.0536
  602MOL0     C79347   7.106   0.879  11.126  0.9647 -0.3180  0.4407
  602MOL0     C79348   7.084   0.735  11.104  0.3294  0.3675  1.3288
  602MOL0     N79349   6.962   0.676  11.163  0.5098 -0.2732  0.2358
  602MOL0     C79350   6.955   0.644  11.296  0.5007 -0.8974 -0.1533
  602MOL0     C79351   6.822   0.608  11.315 -0.9288  0.7408 -0.1868
  602MOL0     C79352   6.768   0.584  11.456 -0.2238 -0.0292  0.7153
  602MOL0     C79353   6.635   0.653  11.492  0.2156  1.1111  1.0830
  602MOL0     C79354   6.674   0.804  11.510  0.5247  0.0093  0.5984
  602MOL0     C79355   6.538   0.866  11.543 -0.5496  0.3287  0.2665
  602MOL0     O79356   6.514   0.822  11.675  0.7141  0.1894 -0.3747
  602MOL0     C79357   6.396   0.860  11.749 -0.4664 -0.2617  0.9631
  602MOL0     C79358   6.293   0.922  11.679 -0.1031  0.3427 -0.6627
  602MOL0     C79359   6.172   0.944  11.741  0.0977  0.2114 -0.5660
  602MOL0     C79360   6.152   0.910  11.875 -0.2855 -1.0452 -0.1461
  602MOL0     C79361   6.011   0.904  11.933 -0.2322 -1.3542 -0.6057
  602MOL0     O79362   5.982   0.788  11.990 -0.3346 -0.3323 -0.0451
  602MOL0     C79363   5.855   0.787  12.049  0.0534  0.2395  0.5004
  602MOL0     C79364   5.862   0.761  12.183 -0.8029 -0.7308  0.0523
  602MOL0     C79365   5.748   0.752  12.261  0.0955 -0.1178  0.9539
  602MOL0     C79366   5.623   0.773  12.201  0.7256 -0.1353  0.1161
  602MOL0     O79367   5.506   0.770  12.273 -0.1208 -0.4407  0.1522
  602MOL0     C79368   5.515   0.788  12.416  0.4100  0.1334  0.5961
  602MOL0     C79369   5.370   0.788  12.471  1.0215  0.7443 -0.1802
  602MOL0     C79370   5.373   0.752  12.617  0.2857  0.0802 -0.4809
  602MOL0     C79371   5.227   0.699  12.661 -0.3776 -0.5048 -0.6773
  602MOL0     C79372   5.112   0.785  12.632  0.0375 -0.6085 -0.1110
  602MOL0     C79373   4.981   0.723  12.683 -0.9183 -0.2346 -0.4377
  602MOL0     C79374   4.926   0.612  12.594 -0.5238 -0.0293  0.5899
  602MOL0     C79375   4.795   0.556  12.632  0.6186 -0.3825  0.8744
  602MOL0    Cl79376   4.774   0.411  12.527 -0.0692 -0.3512  0.1530
  602MOL0     C79377   5.615   0.802  12.063  0.6451  0.3225  0.3835
  602MOL0     C79378   5.727   0.795  11.987 -0.3333 -0.6001 -0.0160
  602MOL0     O79379   5.927   1.001  11.923 -0.3729  0.1182  0.0686
  602MOL0     C79380   6.258   0.858  11.945 -0.0256 -0.3412 -0.4311
  602MOL0     C79381   6.377   0.826  11.885  0.3670 -0.2202  0.5483
  602MOL0     N79382   6.751   0.627  11.195 -1.2370  0.6015 -0.3552
  602MOL0     N79383   6.835   0.673  11.100  1.0398  0.0006  0.2623
  602MOL0     C79384   8.059   0.959  10.776  0.0912  0.8002 -0.1440
  602MOL0     C79385   8.190   0.905  10.769  0.4596 -0.0547 -0.1104
  602MOL0     C79386   8.588   0.744  10.815 -0.3229  0.3941  0.2648
  602MOL0     C79387   8.662   0.666  10.729  0.4931 -0.2106 -0.3758
  602MOL0     C79388   8.794   0.654  10.736 -0.1230 -0.1896 -0.7946
  602MOL0     C79389   8.863   0.737  10.832  0.1592 -0.3057  0.5672
  602MOL0     O79390   8.993   0.739  10.854 -0.9783  0.2434  0.4229
  602MOL0     C79391   9.043   0.602  10.860  0.3842  0.2981 -0.3087
  602MOL0     C79392   9.173   0.607  10.942 -0.2157 -0.6739  0.5365
  602MOL0     C79393   9.261   0.482  10.923 -0.6413  0.1750 -0.2498
  602MOL0     C79394   9.417   0.495  10.940  1.5234 -0.5214  0.4871
  602MOL0     C79395   9.480   0.568  10.824 -0.3159 -0.6044  0.2001
  602MOL0     C79396   9.539   0.611  10.725 -0.8103  0.2074  0.0919
  602MOL0     C79397   8.792   0.828  10.906 -0.1986  0.2181  0.8360
  602MOL0     C79398   8.655   0.829  10.908 -0.8264  1.1358  0.3425
  602MOL0     H79399   8.234   0.848  11.101 -1.7689  2.6666  2.2015
  602MOL0     H79400   7.999   0.945  11.099 -1.3222  0.5030 -0.9425
  602MOL0     H79401   7.785   0.908  10.758 -0.7783 -0.3199 -1.2704
  602MOL0     H79402   7.798   1.079  10.725 -2.0882 -0.7871 -0.2585
  602MOL0     H79403   7.575   1.080  10.756 -2.1120  0.0215  2.0740
  602MOL0     H79404   7.628   1.142  10.909 -2.0930  0.3186 -1.1512
  602MOL0     H79405   7.612   0.934  11.020 -0.7811  1.0851  0.7883
  602MOL0     H79406   7.575   0.847  10.873 -3.6318 -1.3441  1.8810
  602MOL0     H79407   7.409   1.087  10.992 -3.9728 -1.0213 -0.4759
  602MOL0     H79408   7.364   0.993  10.856  0.0351  1.0224 -0.5308
  602MOL0     H79409   7.379   0.889  11.155 -1.5911  1.8100  0.2231
  602MOL0     H79410   7.343   0.787  11.015  0.5620  0.3310 -2.3491
  602MOL0     H79411   7.155   0.939  10.935 -0.1273 -3.0537 -0.1042
  602MOL0     H79412   7.196   1.051  11.067 -1.5096  0.8745 -1.5534
  602MOL0     H79413   7.131   0.912  11.227  2.1123  2.1110 -0.5665
  602MOL0     H79414   7.014   0.935  11.106  1.2135 -0.3914 -0.9518
  602MOL0     H79415   7.161   0.667  11.140 -0.6076 -1.7861 -0.4844
  602MOL0     H79416   7.082   0.712  10.997 -1.4947  3.0317  0.6976
  602MOL0     H79417   7.031   0.659  11.372  1.3980  1.6171 -1.4268
  602MOL0     H79418   6.849   0.616  11.522  0.9996 -1.4578 -0.0349
  602MOL0     H79419   6.752   0.477  11.472 -1.4111  0.0736  0.3187
  602MOL0     H79420   6.604   0.611  11.588  2.7209 -1.7927  0.7942
  602MOL0     H79421   6.559   0.638  11.415  0.1659  3.8053  0.5104
  602MOL0     H79422   6.745   0.825  11.591 -1.4568  0.6072  2.2638
  602MOL0     H79423   6.711   0.853  11.420  2.1011  2.4730  2.4382
  602MOL0     H79424   6.469   0.838  11.463  0.4023  1.4638 -0.9978
  602MOL0     H79425   6.551   0.974  11.555 -0.3577  0.2353  0.9410
  602MOL0     H79426   6.306   0.950  11.575 -0.6840  0.9641 -0.5760
  602MOL0     H79427   6.098   0.994  11.679 -0.7362  0.1656  0.3633
  602MOL0     H79428   5.964   0.760  12.220 -0.0462 -0.5069 -1.9110
  602MOL0     H79429   5.745   0.745  12.369 -1.5241  2.4228  1.1348
  602MOL0     H79430   5.582   0.869  12.444  1.8411 -0.6696 -0.3886
  602MOL0     H79431   5.567   0.701  12.455  0.2168 -0.7501 -1.0199
  602MOL0     H79432   5.316   0.703  12.427  1.7990  1.8115 -3.4166
  602MOL0     H79433   5.310   0.875  12.443  2.3360  1.4350 -0.9326
  602MOL0     H79434   5.419   0.827  12.682 -0.4087 -0.7420  0.9978
  602MOL0     H79435   5.441   0.667  12.629 -0.2714 -0.0799  1.9955
  602MOL0     H79436   5.209   0.603  12.613 -0.1835 -0.0988 -1.5792
  602MOL0     H79437   5.233   0.690  12.770  1.5218  0.6751 -0.6241
  602MOL0     H79438   5.096   0.808  12.526 -1.7731 -0.4414  0.1680
  602MOL0     H79439   5.118   0.878  12.690  0.3333 -0.4322 -0.4191
  602MOL0     H79440   4.912   0.807  12.692  1.6916  2.3854 -2.6329
  602MOL0     H79441   5.000   0.694  12.787 -3.3288  1.6709  0.6233
  602MOL0     H79442   4.916   0.661  12.497  0.9138 -1.9538 -0.5968
  602MOL0     H79443   4.997   0.528  12.592 -0.3095  0.1495  0.6130
  602MOL0     H79444   4.719   0.634  12.623 -1.4602 -2.2773  0.7322
  602MOL0     H79445   4.783   0.533  12.739 -0.2129 -0.0591  0.8607
  602MOL0     H79446   5.518   0.808  12.014  1.1307 -1.1874 -0.8481
  602MOL0     H79447   5.733   0.804  11.879 -1.9954 -1.3825 -0.2054
  602MOL0     H79448   6.247   0.801  12.037  0.1844  0.2476 -0.0319
  602MOL0     H79449   6.463   0.770  11.921  3.0319  3.2759  0.0846
  602MOL0     H79450   8.001   1.006  10.697 -1.6720  0.1667  0.7221
  602MOL0     H79451   8.235   0.886  10.672 -0.0112  1.6817 -0.7205
  602MOL0     H79452   8.601   0.609  10.659 -1.3791 -0.5148  1.4266
  602MOL0     H79453   8.857   0.581  10.685  2.7771 -1.0079  3.3581
  602MOL0     H79454   9.039   0.548  10.765  0.2035  0.5593 -0.4523
  602MOL0     H79455   8.972   0.544  10.920  1.1046 -0.8658 -0.5406
  602MOL0     H79456   9.236   0.692  10.915  0.2523 -0.3411  2.5427
  602MOL0     H79457   9.150   0.609  11.049  1.8165 -4.9060  1.2752
  602MOL0     H79458   9.238   0.429  10.830 -0.0049  0.5956 -0.6614
  602MOL0     H79459   9.227   0.417  11.004 -1.6188 -2.7848 -2.8423
  602MOL0     H79460   9.430   0.555  11.031 -1.4112  3.1604 -1.2225
  602MOL0     H79461   9.458   0.394  10.940  2.0533 -0.3660 -1.8532
  602MOL0     H79462   9.584   0.641  10.633 -0.5569  1.5708  0.6392
  602MOL0     H79463   8.859   0.887  10.968  0.8546  1.6169 -1.4916
  602MOL0     H79464   8.605   0.891  10.983  1.7368  3.4720  0.2803
  603MOL0     O79465   6.987   5.273   1.584 -0.8642  0.2444  0.8820
  603MOL0     C79466   7.016   5.367   1.653 -0.6311 -0.2733 -1.3415
  603MOL0     O79467   6.948   5.481   1.666  0.0369  0.3029 -0.4963
  603MOL0     C79468   6.819   5.473   1.619  0.7023 -0.7512 -0.9052
  603MOL0     C79469   6.793   5.495   1.486 -0.4144  0.4181 -0.6214
  603MOL0     C79470   6.662   5.504   1.433  0.0922 -0.5970 -0.3523
  603MOL0     C79471   6.552   5.482   1.518 -0.4518 -0.1446  0.3023
  603MOL0     O79472   6.422   5.485   1.483 -0.6218 -0.1551  0.4366
  603MOL0     C79473   6.377   5.480   1.345  1.1040 -0.4704 -0.0357
  603MOL0     C79474   6.276   5.591   1.317  0.2583  0.4126  0.2968
  603MOL0     C79475   6.140   5.556   1.381  0.2020  0.2295  0.2857
  603MOL0     C79476   6.050   5.674   1.356  0.3490 -0.1788 -0.3533
  603MOL0     C79477   5.900   5.646   1.372 -0.3791 -0.4739  0.4518
  603MOL0     C79478   5.833   5.620   1.509 -0.3294  1.0282 -0.3971
  603MOL0     C79479   5.679   5.633   1.503 -0.9407  0.4714  0.4731
  603MOL0     C79480   5.612   5.601   1.633  0.4621 -0.7739 -0.4540
  603MOL0     N79481   5.555   5.712   1.702  0.1653  0.7680 -0.3830
  603MOL0     C79482   5.616   5.824   1.747 -1.1521  0.0294 -0.2866
  603MOL0     C79483   5.531   5.901   1.822  0.1524  0.7124  0.0554
  603MOL0     C79484   5.544   6.041   1.859 -0.0936 -0.3364  0.3490
  603MOL0     C79485   5.633   6.061   1.988  0.0918 -0.5663  0.4079
  603MOL0     C79486   5.690   6.204   2.008 -0.4933  0.3640 -0.1988
  603MOL0     C79487   5.583   6.298   1.973 -0.1875 -1.4600 -0.7938
  603MOL0     O79488   5.471   6.304   2.067 -0.3297  1.4712 -0.9808
  603MOL0     C79489   5.410   6.411   2.116 -0.2535 -0.5689 -0.0109
  603MOL0     C79490   5.300   6.383   2.188 -0.4993 -0.6266 -1.2440
  603MOL0     C79491   5.211   6.481   2.233 -0.0135 -0.0250  0.1656
  603MOL0     C79492   5.233   6.613   2.198 -1.3796  0.2284 -0.0369
  603MOL0     C79493   5.128   6.715   2.227  0.2004 -0.0615 -0.4955
  603MOL0     O79494   5.099   6.815   2.131  0.1680 -0.2932 -0.2333
  603MOL0     C79495   4.993   6.902   2.162  0.7240 -0.0527 -0.3240
  603MOL0     C79496   4.866   6.852   2.191  0.1907  0.3576 -1.3767
  603MOL0     C79497   4.755   6.937   2.234  0.3675 -0.0767  0.2094
  603MOL0     C79498   4.779   7.074   2.231  0.0298  0.7481  0.6679
  603MOL0     O79499   4.676   7.157   2.267 -0.8434 -0.1809  0.4378
  603MOL0     C79500   4.559   7.124   2.352 -0.3105  0.5230  1.0217
  603MOL0     C79501   4.603   7.102   2.498 -1.0828  0.7154  0.4505
  603MOL0     C79502   4.701   7.210   2.564  0.4446 -0.8201 -0.1375
  603MOL0     C79503   4.750   7.165   2.700 -0.0705 -0.1824  1.1266
  603MOL0     C79504   4.806   7.291   2.775 -0.6436  0.0841 -0.5631
  603MOL0     C79505   4.896   7.265   2.905 -0.2741  0.2164 -0.0234
  603MOL0     C79506   4.805   7.203   3.021  0.6413  0.2194 -0.6248
  603MOL0     C79507   4.803   7.051   3.026  0.3250  0.0731  0.5034
  603MOL0    Cl79508   4.758   6.999   3.196 -0.2357  0.3597 -0.2810
  603MOL0     C79509   4.903   7.129   2.187 -0.6020  0.6939  0.3828
  603MOL0     C79510   5.006   7.042   2.148  0.1598  0.2408  0.3559
  603MOL0     O79511   5.077   6.704   2.344 -0.5920  0.3076  0.5052
  603MOL0     C79512   5.341   6.648   2.118  0.8227  0.0313 -0.3102
  603MOL0     C79513   5.430   6.548   2.084 -0.7036  0.3159  0.4803
  603MOL0     N79514   5.407   5.829   1.813  0.2729 -0.2772 -0.0659
  603MOL0     N79515   5.429   5.714   1.755 -0.1561 -0.5591  1.1560
  603MOL0     C79516   6.573   5.441   1.652  0.3681  0.7953 -0.6485
  603MOL0     C79517   6.709   5.435   1.705 -0.0317  0.3130  0.6731
  603MOL0     C79518   7.164   5.368   1.689  0.7342  0.2844 -0.1721
  603MOL0     C79519   7.207   5.475   1.768  0.1079  0.0922 -0.1433
  603MOL0     C79520   7.334   5.491   1.805 -0.7212 -0.4651  0.2525
  603MOL0     C79521   7.433   5.394   1.760 -0.4002  0.3874  0.5351
  603MOL0     O79522   7.571   5.397   1.775 -0.3476  0.3675 -0.4112
  603MOL0     C79523   7.622   5.510   1.847 -0.2576 -0.1454 -0.2122
  603MOL0     C79524   7.773   5.514   1.853  0.4180 -0.5420  0.7346
  603MOL0     C79525   7.810   5.644   1.938 -0.1690  0.5552  0.8463
  603MOL0     C79526   7.952   5.690   1.903  0.1544  0.4266  0.0687
  603MOL0     C79527   7.983   5.818   1.976  1.1469  0.8213 -0.9041
  603MOL0     C79528   8.019   5.903   2.051 -0.4524  0.2867 -0.1299
  603MOL0     C79529   7.388   5.285   1.683 -0.0497  0.5858 -0.7084
  603MOL0     C79530   7.261   5.282   1.638  1.0288 -0.1969  0.5352
  603MOL0     H79531   6.872   5.512   1.413  2.6854 -0.5805  2.2456
  603MOL0     H79532   6.652   5.535   1.330 -1.2019  3.0437  0.7360
  603MOL0     H79533   6.337   5.383   1.316  0.1249  1.0539 -4.6899
  603MOL0     H79534   6.459   5.500   1.275  0.1884 -0.3298 -1.1038
  603MOL0     H79535   6.265   5.590   1.209  0.4999  0.1126  0.2734
  603MOL0     H79536   6.303   5.694   1.344 -2.8135  2.3625 -3.2275
  603MOL0     H79537   6.157   5.540   1.488  1.4001 -0.6130 -0.0121
  603MOL0     H79538   6.110   5.467   1.325  2.8097 -0.1516 -0.6339
  603MOL0     H79539   6.077   5.758   1.420  0.6772  0.9382 -1.9326
  603MOL0     H79540   6.068   5.696   1.251  0.0431 -3.4684 -1.2274
  603MOL0     H79541   5.873   5.568   1.300 -0.7866  0.8580 -0.8912
  603MOL0     H79542   5.851   5.736   1.333  1.5268  0.4578  0.0929
  603MOL0     H79543   5.865   5.692   1.584  0.7661 -0.8461  1.0426
  603MOL0     H79544   5.874   5.525   1.544  0.2408  0.9660 -1.1917
  603MOL0     H79545   5.644   5.727   1.460 -1.2798 -0.7286 -2.0634
  603MOL0     H79546   5.644   5.558   1.431 -1.6772  1.0442  0.2272
  603MOL0     H79547   5.684   5.550   1.699 -2.0097 -1.1677  2.1205
  603MOL0     H79548   5.532   5.528   1.622 -2.3270  1.8735  0.9648
  603MOL0     H79549   5.718   5.847   1.719 -1.6828  0.4403 -1.9615
  603MOL0     H79550   5.449   6.087   1.886 -1.1255 -2.5484  0.7286
  603MOL0     H79551   5.579   6.092   1.769 -4.1268  1.7630 -0.2490
  603MOL0     H79552   5.710   5.986   1.971  1.6782  1.2978 -1.1375
  603MOL0     H79553   5.580   6.032   2.079 -1.5698  3.5318  0.9370
  603MOL0     H79554   5.722   6.208   2.113 -3.0676  2.3398  0.6031
  603MOL0     H79555   5.773   6.207   1.937 -1.8160 -1.6390 -1.9901
  603MOL0     H79556   5.539   6.297   1.873 -2.9221  6.8812 -0.3809
  603MOL0     H79557   5.629   6.397   1.968  0.9415 -1.7577  1.9145
  603MOL0     H79558   5.277   6.278   2.202  0.2276 -0.8996 -1.9986
  603MOL0     H79559   5.121   6.448   2.284 -0.6431 -0.6438 -1.2708
  603MOL0     H79560   4.845   6.746   2.178 -0.8924  0.2891  0.5937
  603MOL0     H79561   4.653   6.903   2.247 -0.0008  1.5057  1.7976
  603MOL0     H79562   4.506   7.039   2.308  3.1682 -0.9423 -0.6602
  603MOL0     H79563   4.488   7.208   2.354 -0.4933  0.3622  1.4868
  603MOL0     H79564   4.657   7.007   2.509 -1.0152  0.9758  2.6983
  603MOL0     H79565   4.508   7.098   2.553 -0.6974 -0.5086  1.0568
  603MOL0     H79566   4.656   7.308   2.579  1.1002 -0.8224  2.2026
  603MOL0     H79567   4.781   7.228   2.491  0.4910  4.5406  0.8286
  603MOL0     H79568   4.668   7.136   2.766  0.1433  0.2163  1.5687
  603MOL0     H79569   4.836   7.099   2.692  0.4720  0.5856  0.4833
  603MOL0     H79570   4.725   7.360   2.802 -1.1219 -1.1068  1.2277
  603MOL0     H79571   4.862   7.361   2.711 -3.1723  2.2226 -0.5937
  603MOL0     H79572   4.936   7.360   2.942  1.3827 -1.1088  1.8478
  603MOL0     H79573   4.991   7.218   2.880  0.1685  0.4762  1.1081
  603MOL0     H79574   4.846   7.235   3.118 -2.4975 -0.0704  0.9566
  603MOL0     H79575   4.705   7.249   3.024  1.9558  3.2725 -0.4241
  603MOL0     H79576   4.908   7.021   3.012  0.8215  2.4652 -1.5397
  603MOL0     H79577   4.731   7.005   2.957 -1.8823 -0.6485  3.1058
  603MOL0     H79578   4.919   7.236   2.173  2.4126  0.1186 -1.4440
  603MOL0     H79579   5.099   7.085   2.113 -0.2694  0.9365  0.0471
  603MOL0     H79580   5.355   6.750   2.085 -1.7260  0.5632  0.0177
  603MOL0     H79581   5.522   6.566   2.030  1.2520 -1.0171  3.1195
  603MOL0     H79582   6.488   5.399   1.705  0.4887  2.2726  0.8206
  603MOL0     H79583   6.718   5.400   1.807  0.3777  1.8909  1.2091
  603MOL0     H79584   7.132   5.549   1.796 -0.7553 -1.1535  0.9812
  603MOL0     H79585   7.355   5.581   1.861  1.7784 -0.0344 -1.2472
  603MOL0     H79586   7.590   5.497   1.951  0.8239  0.2533  0.1821
  603MOL0     H79587   7.567   5.599   1.815 -0.9230 -0.3435  0.3446
  603MOL0     H79588   7.815   5.426   1.903  2.1254  0.4945  1.2014
  603MOL0     H79589   7.801   5.515   1.747 -3.2052 -4.8436 -0.6034
  603MOL0     H79590   7.814   5.615   2.043 -0.6767 -0.8201  0.5034
  603MOL0     H79591   7.737   5.725   1.929 -0.1401  0.5795  0.8317
  603MOL0     H79592   8.021   5.607   1.919  1.0047  0.2906 -3.5110
  603MOL0     H79593   7.963   5.709   1.796  2.0039 -2.3641 -0.3249
  603MOL0     H79594   8.042   5.980   2.121  0.6994  0.3613 -0.5673
  603MOL0     H79595   7.453   5.206   1.646 -2.6348 -2.0173 -0.0677
  603MOL0     H79596   7.228   5.201   1.574  0.0094  1.2097 -0.8144
  604MOL0     O79597   5.706   2.829   5.396 -0.1639 -0.6643  0.0220
  604MOL0     C79598   5.615   2.834   5.311 -0.4541  0.2637  0.3047
  604MOL0     O79599   5.603   2.743   5.208 -0.2413 -0.3457 -0.5454
  604MOL0     C79600   5.704   2.655   5.187  1.2558  0.5480  1.0563
  604MOL0     C79601   5.780   2.646   5.065  0.5357  0.3577 -0.1623
  604MOL0     C79602   5.870   2.539   5.030  0.0979  0.6357 -0.0717
  604MOL0     C79603   5.892   2.449   5.132  0.3645  0.8721  0.3235
  604MOL0     O79604   5.977   2.343   5.122 -0.0775 -0.1957  0.1730
  604MOL0     C79605   6.100   2.364   5.049  0.3305 -0.6259  0.0205
  604MOL0     C79606   6.199   2.449   5.122  0.4126 -0.0345 -0.8992
  604MOL0     C79607   6.322   2.480   5.047  0.0440 -0.2023  0.5110
  604MOL0     C79608   6.428   2.554   5.131 -0.1651 -0.5493  0.0636
  604MOL0     C79609   6.573   2.565   5.059  0.5820 -0.4810 -0.1082
  604MOL0     C79610   6.673   2.645   5.144 -0.4070 -0.6708 -0.1661
  604MOL0     C79611   6.816   2.673   5.079  0.3406 -1.0968 -0.9901
  604MOL0     C79612   6.811   2.750   4.951  1.4976  0.8767 -0.4583
  604MOL0     N79613   6.947   2.776   4.905  0.6127 -0.0583 -0.1560
  604MOL0     C79614   6.985   2.758   4.774  0.0190 -0.3673 -0.7375
  604MOL0     C79615   7.113   2.803   4.772 -0.5448  0.6640 -0.0452
  604MOL0     C79616   7.210   2.794   4.650  0.2621 -0.6985 -0.4216
  604MOL0     C79617   7.270   2.654   4.635  0.4727 -0.1253  0.1745
  604MOL0     C79618   7.165   2.548   4.612  0.5985  0.1906 -0.0243
  604MOL0     C79619   7.082   2.575   4.484 -0.5701  0.5152  0.5308
  604MOL0     O79620   6.991   2.460   4.484  0.1688 -0.0707  0.6979
  604MOL0     C79621   6.862   2.479   4.518  1.5171 -1.2755 -0.0747
  604MOL0     C79622   6.766   2.513   4.423 -0.1716 -0.4001  0.0445
  604MOL0     C79623   6.632   2.524   4.448  0.8447  0.4472  0.8023
  604MOL0     C79624   6.584   2.496   4.582 -0.3315 -0.3215  0.4447
  604MOL0     C79625   6.451   2.505   4.615  0.3005 -0.3676 -0.6763
  604MOL0     O79626   6.351   2.531   4.524  0.0413  0.2798 -0.4993
  604MOL0     C79627   6.224   2.550   4.575  0.0468 -0.1732 -1.1585
  604MOL0     C79628   6.163   2.668   4.533 -0.6384  1.0605  0.6387
  604MOL0     C79629   6.036   2.682   4.575 -0.2838 -0.7816 -0.4325
  604MOL0     C79630   5.969   2.585   4.657  0.1904 -1.2644  1.4825
  604MOL0     O79631   5.840   2.607   4.693 -0.3775 -0.6649  0.1030
  604MOL0     C79632   5.752   2.493   4.679 -1.1708 -0.0382 -0.2370
  604MOL0     C79633   5.620   2.542   4.630  0.0252 -1.2900  0.3750
  604MOL0     C79634   5.556   2.658   4.715 -0.6414 -0.1940 -0.0449
  604MOL0     C79635   5.416   2.697   4.662  0.5733  0.0974 -0.0546
  604MOL0     C79636   5.371   2.844   4.681  1.1677 -0.0106 -0.0457
  604MOL0     C79637   5.368   2.893   4.830  0.8468 -0.1689 -0.0671
  604MOL0     C79638   5.285   3.023   4.836  0.3200  1.0480 -0.1199
  604MOL0     C79639   5.311   3.122   4.735  0.4963 -0.1161  0.6054
  604MOL0    Cl79640   5.198   3.260   4.750 -0.5993  0.4370 -0.0928
  604MOL0     C79641   6.039   2.467   4.688  0.1551 -0.4443  0.2510
  604MOL0     C79642   6.167   2.446   4.645  0.7537  0.5441 -0.8097
  604MOL0     O79643   6.434   2.494   4.738  0.8621 -0.2221 -1.2466
  604MOL0     C79644   6.689   2.458   4.675 -0.1014  0.1601 -0.0323
  604MOL0     C79645   6.825   2.457   4.647 -0.3746 -0.6679  0.5154
  604MOL0     N79646   7.162   2.823   4.901  0.6238 -0.8124 -0.8422
  604MOL0     N79647   7.058   2.812   4.980 -0.9289  0.1789  0.0816
  604MOL0     C79648   5.823   2.450   5.254 -0.2133  0.1917 -0.8036
  604MOL0     C79649   5.723   2.545   5.273  0.7591  0.0669  0.3305
  604MOL0     C79650   5.531   2.943   5.313  0.3638 -0.8938 -0.3356
  604MOL0     C79651   5.563   3.057   5.390  0.3773  0.1461  0.1460
  604MOL0     C79652   5.486   3.177   5.386 -1.1679  0.3424 -0.4337
  604MOL0     C79653   5.369   3.184   5.321 -1.0478 -0.2563 -0.7252
  604MOL0     O79654   5.303   3.301   5.335  0.4330 -0.7073  0.5070
  604MOL0     C79655   5.179   3.311   5.265  1.1488 -0.8170 -0.3348
  604MOL0     C79656   5.188   3.357   5.123  0.2613  0.4486 -0.3858
  604MOL0     C79657   5.226   3.504   5.103 -0.1201  0.2956  0.0220
  604MOL0     C79658   5.367   3.540   5.154 -0.5780  0.1366 -0.3076
  604MOL0     C79659   5.394   3.679   5.122 -0.7234  0.1193 -0.3864
  604MOL0     C79660   5.420   3.791   5.106  0.7766  0.1078 -0.5797
  604MOL0     C79661   5.335   3.072   5.240 -0.0689 -0.3465 -0.4857
  604MOL0     C79662   5.408   2.953   5.233 -1.3119 -1.0653  0.2500
  604MOL0     H79663   5.764   2.729   4.996  1.4424 -0.1170 -0.9737
  604MOL0     H79664   5.915   2.542   4.932  4.0912  0.5910  1.5709
  604MOL0     H79665   6.081   2.408   4.951  1.3193  2.6169  1.1614
  604MOL0     H79666   6.146   2.265   5.045  2.9437  0.5754 -2.3327
  604MOL0     H79667   6.242   2.391   5.205 -0.5979 -2.0673 -1.7176
  604MOL0     H79668   6.144   2.540   5.146  0.6001  1.2349 -4.6700
  604MOL0     H79669   6.297   2.525   4.950 -1.3816 -2.4125 -0.2025
  604MOL0     H79670   6.359   2.382   5.017  0.7479  0.3593 -0.5656
  604MOL0     H79671   6.392   2.657   5.141  0.1413 -0.2245 -1.7858
  604MOL0     H79672   6.436   2.517   5.233 -0.9841  0.4746  0.5204
  604MOL0     H79673   6.568   2.618   4.963  1.1266  1.1792  0.7436
  604MOL0     H79674   6.597   2.460   5.045 -2.1449 -1.1675 -0.3337
  604MOL0     H79675   6.681   2.598   5.242 -1.4984  1.5610  1.0566
  604MOL0     H79676   6.622   2.741   5.155  1.0930  0.0189  1.0741
  604MOL0     H79677   6.898   2.708   5.142 -0.2431 -0.1135 -0.7371
  604MOL0     H79678   6.852   2.574   5.053  1.3163 -1.4720  1.5036
  604MOL0     H79679   6.754   2.843   4.960 -1.8071 -1.0689  0.3909
  604MOL0     H79680   6.774   2.679   4.876  0.2713  0.8023  0.2037
  604MOL0     H79681   6.924   2.721   4.692 -1.8383  2.3635 -0.7255
  604MOL0     H79682   7.284   2.875   4.656  1.0528 -1.4930  1.5015
  604MOL0     H79683   7.152   2.821   4.562  1.3221  1.3382 -0.5621
  604MOL0     H79684   7.329   2.630   4.724 -0.4998  0.1648  0.9127
  604MOL0     H79685   7.339   2.656   4.550 -0.1188 -0.4792 -0.3231
  604MOL0     H79686   7.220   2.455   4.590  2.0890  0.1651  3.2915
  604MOL0     H79687   7.112   2.521   4.704  0.2503  1.1226  0.0569
  604MOL0     H79688   7.157   2.578   4.404  2.0315 -1.0512  2.7165
  604MOL0     H79689   7.020   2.664   4.494  1.0858  1.8580 -0.5620
  604MOL0     H79690   6.802   2.537   4.323 -1.1867  1.1857  0.0272
  604MOL0     H79691   6.553   2.533   4.375 -1.3996 -4.0392  2.3247
  604MOL0     H79692   6.220   2.737   4.473  0.9281  0.1195  0.9763
  604MOL0     H79693   5.981   2.773   4.552 -1.6464 -1.0733  1.3916
  604MOL0     H79694   5.750   2.430   4.768 -1.2888  1.5631  0.9408
  604MOL0     H79695   5.790   2.427   4.600 -1.2496  0.0509 -0.3509
  604MOL0     H79696   5.550   2.461   4.608  0.0156 -0.6106 -2.4823
  604MOL0     H79697   5.634   2.598   4.537  1.6300 -0.4340  1.1060
  604MOL0     H79698   5.610   2.753   4.711 -2.3690  0.9346  1.5565
  604MOL0     H79699   5.551   2.627   4.820  2.4596 -1.8823 -0.2893
  604MOL0     H79700   5.404   2.673   4.557  0.0420  1.5911 -0.3665
  604MOL0     H79701   5.343   2.630   4.707  0.8134 -0.8341 -1.0192
  604MOL0     H79702   5.267   2.845   4.647  0.5408  3.5194  1.4972
  604MOL0     H79703   5.436   2.908   4.621  1.2570  0.2223  0.2958
  604MOL0     H79704   5.467   2.900   4.876  1.1717 -3.3912 -0.0390
  604MOL0     H79705   5.311   2.822   4.890 -1.0178  1.1193 -0.2382
  604MOL0     H79706   5.179   3.000   4.822 -0.1797  1.1913  2.8666
  604MOL0     H79707   5.296   3.069   4.935 -2.1383  3.3239 -0.7981
  604MOL0     H79708   5.295   3.087   4.633 -0.1628 -1.5785  1.1786
  604MOL0     H79709   5.414   3.156   4.726 -0.4522  2.8408 -0.2925
  604MOL0     H79710   5.976   2.392   4.734 -1.4039 -0.7942 -2.2714
  604MOL0     H79711   6.217   2.351   4.664 -2.3183 -0.9451  0.5312
  604MOL0     H79712   6.662   2.438   4.778  1.0603 -1.1873  0.0449
  604MOL0     H79713   6.897   2.446   4.727  2.2791 -1.0493 -1.7511
  604MOL0     H79714   5.845   2.375   5.329 -0.7567  0.0410 -0.7930
  604MOL0     H79715   5.670   2.547   5.368  1.3185 -4.2444  0.9175
  604MOL0     H79716   5.654   3.054   5.449  1.1249 -0.9066 -1.0062
  604MOL0     H79717   5.498   3.268   5.445 -1.6767  0.4364 -0.4682
  604MOL0     H79718   5.117   3.389   5.311  1.9467 -1.5006  2.0578
  604MOL0     H79719   5.125   3.216   5.265  0.5242 -0.5258 -2.9129
  604MOL0     H79720   5.260   3.293   5.072  1.2075  0.8000  0.4849
  604MOL0     H79721   5.089   3.340   5.078 -0.6158 -1.5199  2.0379
  604MOL0     H79722   5.148   3.560   5.155 -0.4719 -0.0264 -0.1493
  604MOL0     H79723   5.212   3.531   4.998  1.3995  3.1208  0.4367
  604MOL0     H79724   5.373   3.530   5.263  2.6344  4.1609  0.1619
  604MOL0     H79725   5.443   3.472   5.115  0.5619 -1.3263  3.9088
  604MOL0     H79726   5.421   3.897   5.090  2.0270  0.0622 -0.9265
  604MOL0     H79727   5.252   3.081   5.170 -1.1033  2.4948  0.9596
  604MOL0     H79728   5.388   2.867   5.169  0.0527 -1.2570  0.0645
  605MOL0     O79729   2.204   6.760   4.069  0.0290 -0.1873  0.6892
  605MOL0     C79730   2.278   6.852   4.040  0.1685  1.3149 -0.5419
  605MOL0     O79731   2.282   6.922   3.926 -0.3923  0.3453  0.4595
  605MOL0     C79732   2.210   6.898   3.808 -0.2848 -0.2701  0.0375
  605MOL0     C79733   2.083   6.834   3.788 -0.4726  0.6988 -0.7019
  605MOL0     C79734   2.028   6.838   3.660 -0.0951  0.2642  0.0478
  605MOL0     C79735   2.091   6.902   3.553 -1.4289  0.5816  0.2896
  605MOL0     O79736   2.044   6.901   3.430 -0.4056 -0.1207 -0.1042
  605MOL0     C79737   2.134   6.913   3.313 -1.0556 -0.2825 -0.2745
  605MOL0     C79738   2.075   6.846   3.183  0.4296 -1.0687 -0.5663
  605MOL0     C79739   2.173   6.855   3.067  1.0769 -0.2678 -0.2376
  605MOL0     C79740   2.119   6.773   2.945 -0.1672 -0.0485  0.4850
  605MOL0     C79741   2.214   6.703   2.854 -0.0239  0.6768 -0.0028
  605MOL0     C79742   2.325   6.801   2.809 -0.7220 -0.1086  0.1353
  605MOL0     C79743   2.399   6.737   2.689 -0.6335  0.4451  0.5487
  605MOL0     C79744   2.553   6.767   2.663 -0.1115  0.1022  0.0488
  605MOL0     N79745   2.577   6.904   2.621  0.2085 -0.4078 -0.6412
  605MOL0     C79746   2.595   6.947   2.488  0.6663  1.0808 -0.1745
  605MOL0     C79747   2.631   7.077   2.499  1.6592 -0.0617 -0.0271
  605MOL0     C79748   2.664   7.167   2.379 -0.5338  0.8952 -1.5423
  605MOL0     C79749   2.551   7.175   2.284 -0.2445  0.2441 -0.3197
  605MOL0     C79750   2.581   7.259   2.158  0.5825  0.0319  0.4809
  605MOL0     C79751   2.459   7.249   2.062 -0.5167 -0.3040 -0.3011
  605MOL0     O79752   2.340   7.299   2.136 -0.5910  0.0567  0.6074
  605MOL0     C79753   2.332   7.427   2.188  0.1648 -0.3054 -0.5270
  605MOL0     C79754   2.422   7.540   2.160  0.9972 -0.5598  0.3597
  605MOL0     C79755   2.407   7.660   2.232  0.2241 -0.6986  0.0500
  605MOL0     C79756   2.294   7.679   2.314 -0.3887  0.6467  0.6746
  605MOL0     C79757   2.251   7.812   2.364  0.2534  0.7308  1.1913
  605MOL0     O79758   2.337   7.911   2.364  0.0636 -0.0854 -0.8420
  605MOL0     C79759   2.304   8.043   2.417  0.4573  0.1151  0.2657
  605MOL0     C79760   2.411   8.121   2.431  0.2447  0.2241  0.4534
  605MOL0     C79761   2.409   8.249   2.484 -0.4112 -0.2237 -0.0993
  605MOL0     C79762   2.279   8.302   2.524 -0.3728 -0.6572  0.7202
  605MOL0     O79763   2.256   8.418   2.582  1.0023  0.2887 -0.3339
  605MOL0     C79764   2.344   8.475   2.677  0.7828 -0.1993  0.5064
  605MOL0     C79765   2.297   8.611   2.734 -0.0052 -0.8061 -0.3021
  605MOL0     C79766   2.262   8.715   2.627  1.1276  1.0992 -0.5504
  605MOL0     C79767   2.384   8.774   2.548 -0.0285 -0.3333 -1.1139
  605MOL0     C79768   2.358   8.898   2.466 -1.0659 -0.6708 -0.1617
  605MOL0     C79769   2.482   8.939   2.380  0.3995  0.9270 -0.3779
  605MOL0     C79770   2.451   9.053   2.289  0.9207  0.4323 -0.2256
  605MOL0     C79771   2.576   9.137   2.261 -0.3786 -0.4908 -0.7076
  605MOL0    Cl79772   2.707   9.029   2.199  0.0639 -0.3085  0.2763
  605MOL0     C79773   2.174   8.225   2.499  0.6112  0.5167  0.1015
  605MOL0     C79774   2.184   8.096   2.438 -0.2710 -0.5738  0.1870
  605MOL0     O79775   2.136   7.815   2.409 -0.4166 -0.6120  0.0519
  605MOL0     C79776   2.207   7.570   2.338  0.0927  0.2835  0.6727
  605MOL0     C79777   2.229   7.448   2.286  1.3871  0.5272  0.1665
  605MOL0     N79778   2.637   7.110   2.634  0.4246  0.4131 -0.5040
  605MOL0     N79779   2.605   7.007   2.701 -1.0736 -0.3152 -0.8064
  605MOL0     C79780   2.200   6.980   3.580  0.3754 -0.8008 -0.2187
  605MOL0     C79781   2.267   6.975   3.705 -0.9807  0.0366  0.0119
  605MOL0     C79782   2.388   6.869   4.137 -0.0203 -0.7599 -1.2806
  605MOL0     C79783   2.455   6.993   4.134  0.5906  0.4037 -0.2448
  605MOL0     C79784   2.561   7.020   4.218  0.0365  1.2195  0.4522
  605MOL0     C79785   2.612   6.919   4.299  1.0788  0.0991  0.0225
  605MOL0     O79786   2.729   6.934   4.375  0.5354 -0.2685  0.4446
  605MOL0     C79787   2.814   6.829   4.392  1.2945  0.5429 -0.4785
  605MOL0     C79788   2.924   6.870   4.488  0.4729  0.3630  0.2341
  605MOL0     C79789   3.038   6.766   4.515  1.0464  0.9360  0.4056
  605MOL0     C79790   3.128   6.819   4.632  0.3587 -0.1794  0.5997
  605MOL0     C79791   3.207   6.939   4.596  0.2614  0.8475 -0.3005
  605MOL0     C79792   3.259   7.039   4.556 -0.2251 -0.0496 -0.4787
  605MOL0     C79793   2.542   6.805   4.306 -0.2731  0.2197  0.0773
  605MOL0     C79794   2.433   6.774   4.230  0.8618  1.0168 -0.2033
  605MOL0     H79795   2.048   6.787   3.879  5.8514  2.2317  3.2279
  605MOL0     H79796   1.937   6.782   3.639 -0.5672  1.3137 -0.8007
  605MOL0     H79797   2.227   6.860   3.336 -1.0926 -0.2609 -0.0737
  605MOL0     H79798   2.163   7.017   3.294 -1.4766  0.0774  0.9434
  605MOL0     H79799   1.974   6.885   3.167  0.6009 -0.5838 -0.4750
  605MOL0     H79800   2.062   6.739   3.204  3.1875 -0.8614  3.4184
  605MOL0     H79801   2.267   6.814   3.105  0.1126 -1.8916  0.4800
  605MOL0     H79802   2.198   6.959   3.045  0.8480 -0.2058 -0.2107
  605MOL0     H79803   2.070   6.680   2.976  2.5873 -1.4538  0.8897
  605MOL0     H79804   2.048   6.836   2.890  1.8258 -2.2281 -5.3600
  605MOL0     H79805   2.150   6.670   2.772  1.4768  0.7110 -1.2303
  605MOL0     H79806   2.255   6.611   2.897 -0.2220 -0.5472 -2.2867
  605MOL0     H79807   2.393   6.806   2.894 -0.3607 -0.9971 -0.0821
  605MOL0     H79808   2.274   6.894   2.786 -0.2624  0.0551 -0.2358
  605MOL0     H79809   2.405   6.631   2.716  0.7619  0.2977 -0.2376
  605MOL0     H79810   2.345   6.749   2.595  0.6133  0.7143 -0.1516
  605MOL0     H79811   2.604   6.700   2.594  1.4549  0.7840  0.4862
  605MOL0     H79812   2.604   6.751   2.759  0.0004 -1.2234 -0.2181
  605MOL0     H79813   2.588   6.883   2.401 -3.1228  1.0475 -0.0065
  605MOL0     H79814   2.744   7.111   2.330  0.1912  1.8945 -1.5331
  605MOL0     H79815   2.699   7.262   2.419 -2.3015  0.3236  1.7312
  605MOL0     H79816   2.469   7.219   2.341  1.5938  1.9624  1.1627
  605MOL0     H79817   2.520   7.078   2.243 -0.4354 -0.1954  0.8035
  605MOL0     H79818   2.598   7.364   2.184 -2.6310  0.1158  2.7154
  605MOL0     H79819   2.672   7.221   2.111 -0.8480  1.9431 -4.5060
  605MOL0     H79820   2.447   7.145   2.031 -0.7955 -1.1463  2.3998
  605MOL0     H79821   2.469   7.312   1.973  2.2575 -2.9450 -2.0571
  605MOL0     H79822   2.506   7.533   2.091 -0.3452 -0.8376 -1.3146
  605MOL0     H79823   2.476   7.743   2.213 -2.5267  1.1458 -2.9577
  605MOL0     H79824   2.506   8.072   2.415 -0.3212  0.0244 -2.9106
  605MOL0     H79825   2.487   8.318   2.512 -1.7507  2.5554 -2.6098
  605MOL0     H79826   2.427   8.511   2.616 -0.6241  0.9404 -0.8113
  605MOL0     H79827   2.376   8.404   2.754  0.2680  0.2342  1.1341
  605MOL0     H79828   2.387   8.658   2.773  0.6549 -0.0402 -2.6028
  605MOL0     H79829   2.226   8.614   2.818 -2.2937 -0.9476 -2.1079
  605MOL0     H79830   2.189   8.785   2.668 -0.2747 -1.0923  0.8899
  605MOL0     H79831   2.199   8.654   2.562 -0.4084  1.0369  0.9432
  605MOL0     H79832   2.468   8.806   2.611 -1.4941  0.6979  0.3976
  605MOL0     H79833   2.418   8.685   2.494 -0.7462 -1.6480  0.5158
  605MOL0     H79834   2.334   8.981   2.533 -0.1055  0.3615 -1.0661
  605MOL0     H79835   2.269   8.881   2.404 -1.2264 -0.2363 -0.0595
  605MOL0     H79836   2.534   8.852   2.339 -1.5100 -2.1574  3.1300
  605MOL0     H79837   2.544   8.987   2.457  1.0259  0.9678 -0.8999
  605MOL0     H79838   2.426   9.021   2.187  3.0576  2.6619 -1.5563
  605MOL0     H79839   2.366   9.110   2.328  0.8789 -0.3747  0.9101
  605MOL0     H79840   2.616   9.192   2.347 -0.5614  1.7245 -1.9844
  605MOL0     H79841   2.546   9.209   2.184 -0.7943  1.0763  0.8602
  605MOL0     H79842   2.084   8.266   2.544  1.8967  0.1541  3.3368
  605MOL0     H79843   2.100   8.050   2.386 -0.7015  0.9189 -0.4833
  605MOL0     H79844   2.111   7.582   2.388 -0.0330  0.8540  0.3152
  605MOL0     H79845   2.166   7.365   2.316  1.7629 -0.6632 -2.1189
  605MOL0     H79846   2.233   7.052   3.506  3.0307 -0.4019  1.2007
  605MOL0     H79847   2.366   7.021   3.706 -0.2692 -1.3745 -1.5271
  605MOL0     H79848   2.437   7.064   4.054  2.1455 -1.4944 -2.4023
  605MOL0     H79849   2.617   7.112   4.209 -2.4385  3.1767  3.0707
  605MOL0     H79850   2.852   6.807   4.291  3.1541 -2.2715  0.7134
  605MOL0     H79851   2.771   6.739   4.437  1.1013  0.9541  0.1593
  605MOL0     H79852   2.971   6.952   4.433 -1.9705  0.6152 -1.6805
  605MOL0     H79853   2.878   6.910   4.578  1.0478 -2.2471  1.7815
  605MOL0     H79854   3.090   6.750   4.421  1.3597  1.9448  0.3942
  605MOL0     H79855   2.990   6.679   4.561 -1.5856  1.0534 -1.8459
  605MOL0     H79856   3.063   6.843   4.717  1.2986 -1.0858  1.6114
  605MOL0     H79857   3.193   6.734   4.656  0.4830 -1.0097 -2.3470
  605MOL0     H79858   3.308   7.130   4.527  1.6826 -0.5990  0.8394
  605MOL0     H79859   2.575   6.736   4.383 -0.0266  1.0166  0.6934
  605MOL0     H79860   2.375   6.682   4.237  0.0825  1.5966  1.9048
  606MOL0     O79861   4.950   0.193  11.077 -0.4810  0.3297 -0.2588
  606MOL0     C79862   4.951   0.147  11.187 -0.3098  0.9047  0.9272
  606MOL0     O79863   4.868   0.173  11.289  0.2188  0.0861  0.4081
  606MOL0     C79864   4.743   0.230  11.265  0.2622 -0.0508  0.1823
  606MOL0     C79865   4.718   0.361  11.302  0.3037  0.0805 -0.4712
  606MOL0     C79866   4.603   0.425  11.262  0.6027  0.4321 -0.4072
  606MOL0     C79867   4.495   0.351  11.199 -0.1449 -0.2183  0.5360
  606MOL0     O79868   4.380   0.414  11.170  0.0454  0.5704  0.9019
  606MOL0     C79869   4.309   0.352  11.057  0.4565 -0.5255 -0.6619
  606MOL0     C79870   4.209   0.446  11.007  0.1041  0.2366  0.2586
  606MOL0     C79871   4.087   0.476  11.105  0.0187  0.5065  0.6815
  606MOL0     C79872   3.987   0.564  11.028  0.3342 -0.7151  0.0113
  606MOL0     C79873   3.877   0.627  11.124  0.7122  0.6395  0.2406
  606MOL0     C79874   3.777   0.528  11.183 -0.0781 -0.6807 -0.4198
  606MOL0     C79875   3.697   0.474  11.072 -0.5056  0.5977 -0.9838
  606MOL0     C79876   3.560   0.412  11.123 -0.4247  0.5380 -0.3102
  606MOL0     N79877   3.461   0.512  11.182  0.4534  0.0434 -0.6014
  606MOL0     C79878   3.437   0.509  11.320  0.6198 -0.4932  0.6404
  606MOL0     C79879   3.333   0.584  11.331 -0.2166 -0.4709 -0.6707
  606MOL0     C79880   3.268   0.600  11.460 -0.4998  0.7612 -0.5848
  606MOL0     C79881   3.122   0.554  11.445  0.5801 -0.1945  0.6312
  606MOL0     C79882   3.057   0.559  11.576 -0.3113 -0.0126  0.1074
  606MOL0     C79883   2.907   0.515  11.574  1.2345  0.3849  0.2317
  606MOL0     O79884   2.912   0.373  11.549  0.5501  0.4076  0.2251
  606MOL0     C79885   2.806   0.285  11.551 -1.2150 -0.2198  0.4982
  606MOL0     C79886   2.680   0.331  11.593 -0.3529 -0.0741  0.5078
  606MOL0     C79887   2.575   0.239  11.600 -0.7220  0.5048 -0.3669
  606MOL0     C79888   2.597   0.103  11.559  0.1949 -0.6477  0.8134
  606MOL0     C79889   2.491  -0.000  11.573 -0.3478 -0.1127  0.2184
  606MOL0     O79890   2.396   0.022  11.660  0.4153  0.4672 -0.0853
  606MOL0     C79891   2.288  -0.067  11.684 -0.8688 -0.0073  0.9704
  606MOL0     C79892   2.156  -0.027  11.644  0.0750 -0.2218  0.9887
  606MOL0     C79893   2.048  -0.115  11.666  0.5354  0.7317  0.3266
  606MOL0     C79894   2.072  -0.239  11.727 -0.3345 -0.4068  0.4116
  606MOL0     O79895   1.958  -0.317  11.740 -0.9263 -0.1375  0.2716
  606MOL0     C79896   1.959  -0.462  11.748  0.8572  0.0384 -0.8582
  606MOL0     C79897   2.013  -0.543  11.630 -0.6307  0.1237 -0.0231
  606MOL0     C79898   2.013  -0.690  11.645  0.1385 -0.0713 -0.2725
  606MOL0     C79899   1.871  -0.744  11.630 -0.1853 -0.0683 -0.0183
  606MOL0     C79900   1.865  -0.895  11.654 -0.2220  0.2593 -0.1868
  606MOL0     C79901   1.903  -0.948  11.807  0.1657  0.2380  0.4279
  606MOL0     C79902   1.905  -1.098  11.800  0.0544  0.4420 -0.1619
  606MOL0     C79903   1.943  -1.163  11.936  0.5015  0.1858  0.2567
  606MOL0    Cl79904   2.096  -1.106  11.992 -0.2973 -0.2994  0.1349
  606MOL0     C79905   2.209  -0.279  11.762 -0.3535 -0.6118  0.5975
  606MOL0     C79906   2.314  -0.190  11.733 -0.1555  0.4165 -0.6232
  606MOL0     O79907   2.504  -0.102  11.502 -0.1294  0.1404 -0.5899
  606MOL0     C79908   2.722   0.070  11.509  1.0228  0.2063  0.2697
  606MOL0     C79909   2.837   0.160  11.512  0.6833  0.5477 -0.2447
  606MOL0     N79910   3.309   0.654  11.216  0.6453 -0.0259  0.3278
  606MOL0     N79911   3.382   0.608  11.119  0.0590 -0.0200 -0.0554
  606MOL0     C79912   4.524   0.219  11.166 -0.3820 -0.7929  0.6336
  606MOL0     C79913   4.646   0.154  11.205 -0.1697 -0.8555  0.5721
  606MOL0     C79914   5.063   0.060  11.219  1.0678 -0.4267  0.1225
  606MOL0     C79915   5.095   0.026  11.348 -0.1690  0.3429 -1.2898
  606MOL0     C79916   5.191  -0.072  11.385 -0.6914  0.2923  0.3611
  606MOL0     C79917   5.256  -0.145  11.280 -0.1683 -0.5766  0.1334
  606MOL0     O79918   5.326  -0.260  11.319  1.3004 -0.1076  0.1149
  606MOL0     C79919   5.373  -0.341  11.217  0.0512 -0.0763  0.4177
  606MOL0     C79920   5.483  -0.439  11.267 -0.4169  0.5119 -0.3122
  606MOL0     C79921   5.580  -0.472  11.150  0.0956  0.6938  0.5929
  606MOL0     C79922   5.669  -0.355  11.096  0.3215 -0.7003 -0.5804
  606MOL0     C79923   5.620  -0.311  10.973  0.3995 -0.4094  0.6164
  606MOL0     C79924   5.576  -0.285  10.864  0.3580  0.8485 -0.0385
  606MOL0     C79925   5.216  -0.115  11.144 -0.3659 -0.3245  0.2796
  606MOL0     C79926   5.126  -0.016  11.114 -0.5270 -0.2982 -0.6269
  606MOL0     H79927   4.798   0.419  11.347  0.9906 -2.5233  2.0180
  606MOL0     H79928   4.602   0.532  11.281 -0.6390  0.3166  0.2488
  606MOL0     H79929   4.269   0.254  11.085  1.3165 -0.9199 -0.7844
  606MOL0     H79930   4.387   0.333  10.983  1.4194  1.1808 -0.1255
  606MOL0     H79931   4.167   0.401  10.916 -0.7226 -4.2658  2.6069
  606MOL0     H79932   4.266   0.535  10.979  0.2375  0.2039  0.4277
  606MOL0     H79933   4.107   0.529  11.198 -1.9924  0.1972  1.3584
  606MOL0     H79934   4.040   0.381  11.134 -2.7835  2.4365  3.1129
  606MOL0     H79935   4.047   0.646  10.987 -1.2981  0.2951 -0.4562
  606MOL0     H79936   3.946   0.509  10.943  2.6232 -1.3960 -0.7057
  606MOL0     H79937   3.823   0.698  11.061 -2.8903 -1.7659  0.3253
  606MOL0     H79938   3.925   0.683  11.204  0.7549 -0.6792  1.1676
  606MOL0     H79939   3.711   0.570  11.259  0.6284 -4.2039  2.4429
  606MOL0     H79940   3.836   0.447  11.227 -0.5109  0.2397  2.0148
  606MOL0     H79941   3.674   0.554  11.000  0.7556  3.0034  1.0972
  606MOL0     H79942   3.757   0.399  11.020  1.1043 -1.4593  3.3582
  606MOL0     H79943   3.587   0.341  11.203  0.4815  2.0632  0.7958
  606MOL0     H79944   3.517   0.350  11.044  4.6891 -5.1829  0.5633
  606MOL0     H79945   3.488   0.444  11.390  1.8251  0.6481  0.8625
  606MOL0     H79946   3.261   0.705  11.491 -1.1520 -0.2503  3.1095
  606MOL0     H79947   3.313   0.545  11.543  1.4385  1.8332 -0.8606
  606MOL0     H79948   3.127   0.452  11.407  0.2833  0.5561 -1.5884
  606MOL0     H79949   3.078   0.625  11.374 -1.0298 -1.1249  0.6753
  606MOL0     H79950   3.109   0.493  11.646 -2.3512 -1.3351  0.4465
  606MOL0     H79951   3.065   0.665  11.602  1.1288 -0.2350  0.6435
  606MOL0     H79952   2.863   0.569  11.491 -1.2156 -2.1148 -0.2342
  606MOL0     H79953   2.863   0.553  11.667 -3.4130  0.8880 -1.9124
  606MOL0     H79954   2.650   0.434  11.614 -3.8884 -0.2876 -2.3354
  606MOL0     H79955   2.479   0.271  11.639  0.7686  2.1490  2.2510
  606MOL0     H79956   2.129   0.066  11.595 -1.2577 -1.3953 -0.6242
  606MOL0     H79957   1.948  -0.099  11.626  1.2859 -0.5167 -2.2708
  606MOL0     H79958   1.856  -0.489  11.772  0.6854 -0.6218 -2.2720
  606MOL0     H79959   2.032  -0.489  11.825  1.6576 -1.0798 -1.9571
  606MOL0     H79960   2.114  -0.508  11.608 -1.5946  3.0008 -0.2250
  606MOL0     H79961   1.949  -0.527  11.543 -0.3540 -2.2518 -0.7408
  606MOL0     H79962   2.066  -0.722  11.735 -2.0538  0.9486  1.4712
  606MOL0     H79963   2.077  -0.729  11.565  1.2183  2.1258 -0.5658
  606MOL0     H79964   1.809  -0.692  11.704  0.5593 -1.3426  1.5676
  606MOL0     H79965   1.836  -0.725  11.528 -0.3198 -1.6020 -0.2738
  606MOL0     H79966   1.927  -0.945  11.579 -2.6613 -1.4472 -1.1986
  606MOL0     H79967   1.762  -0.922  11.629 -0.1865 -1.6199  1.3968
  606MOL0     H79968   1.830  -0.910  11.879 -0.8545 -0.2327 -0.3505
  606MOL0     H79969   2.008  -0.923  11.828 -0.2822  3.2020 -0.4533
  606MOL0     H79970   1.799  -1.121  11.784 -0.1576  1.8712 -1.0439
  606MOL0     H79971   1.972  -1.128  11.719 -0.9709 -1.4702 -0.3513
  606MOL0     H79972   1.946  -1.273  11.933 -0.4084  0.1657 -1.8662
  606MOL0     H79973   1.860  -1.130  11.999  1.9114  5.2365 -0.1126
  606MOL0     H79974   2.217  -0.379  11.803 -0.4715 -0.2032  1.6720
  606MOL0     H79975   2.417  -0.223  11.743 -0.4314  0.1383  1.7268
  606MOL0     H79976   2.752  -0.027  11.471  0.6760  0.1481  0.1385
  606MOL0     H79977   2.937   0.129  11.482  0.4329 -2.3242  1.5556
  606MOL0     H79978   4.464   0.144  11.115  3.5291 -2.8100 -1.4348
  606MOL0     H79979   4.678   0.053  11.183  0.4769 -0.9927  1.9883
  606MOL0     H79980   5.040   0.070  11.431 -1.5541 -0.6328 -1.6688
  606MOL0     H79981   5.233  -0.096  11.482  4.6406  0.6058 -1.5349
  606MOL0     H79982   5.416  -0.278  11.138 -1.9293 -2.3993 -2.8016
  606MOL0     H79983   5.288  -0.393  11.172 -1.7905  1.8978  1.4645
  606MOL0     H79984   5.540  -0.389  11.346  2.2437 -1.2229 -1.0361
  606MOL0     H79985   5.445  -0.531  11.312  1.3495  0.6971  1.7499
  606MOL0     H79986   5.529  -0.531  11.073 -0.0184  1.8197 -0.2328
  606MOL0     H79987   5.643  -0.545  11.201  1.0132 -1.0074 -2.7055
  606MOL0     H79988   5.659  -0.277  11.172 -2.1964 -3.1593  1.8791
  606MOL0     H79989   5.777  -0.374  11.096  0.5490  0.1934  1.9465
  606MOL0     H79990   5.563  -0.250  10.764  1.1864  0.3569 -0.3243
  606MOL0     H79991   5.256  -0.165  11.056 -0.3104  1.8228 -0.9899
  606MOL0     H79992   5.095   0.007  11.013 -1.1002 -2.6456 -1.0383
  607MOL0     O79993   7.399  10.915   3.255 -0.3689 -0.3690  0.1349
  607MOL0     C79994   7.343  10.875   3.156 -0.2044  0.6363 -0.4162
  607MOL0     O79995   7.285  10.948   3.060  0.2343  0.1080  0.2089
  607MOL0     C79996   7.256  11.082   3.075 -0.1506 -0.6883  0.4028
  607MOL0     C79997   7.251  11.154   3.199  0.4869  0.2375 -0.6060
  607MOL0     C79998   7.212  11.292   3.190  0.7800  0.3447 -0.1595
  607MOL0     C79999   7.187  11.357   3.075 -0.0020 -0.1661 -0.8382
  607MOL0     O80000   7.135  11.489   3.081  0.5653  0.0830  0.5651
  607MOL0     C80001   7.023  11.518   2.992  0.2946  0.2322  0.4972
  607MOL0     C80002   6.924  11.401   2.963  1.1292  0.3075  0.0024
  607MOL0     C80003   6.861  11.337   3.089 -0.2046  0.3180 -0.1811
  607MOL0     C80004   6.774  11.217   3.055  0.6923 -0.1917  0.1419
  607MOL0     C80005   6.729  11.164   3.186 -0.3572  0.5333  0.2837
  607MOL0     C80006   6.701  11.011   3.195  0.2887  0.4063  1.3030
  607MOL0     C80007   6.726  10.953   3.331 -0.5210  0.0865  0.2042
  607MOL0     C80008   6.857  10.875   3.348  1.1913  0.6026 -0.1754
  607MOL0     N80009   6.881  10.844   3.486  0.0181 -0.9310 -0.8191
  607MOL0     C80010   6.786  10.847   3.588  0.3426  0.4473  0.1930
  607MOL0     C80011   6.867  10.818   3.696  0.5376 -0.3335 -0.2756
  607MOL0     C80012   6.813  10.805   3.835 -0.0674  0.0017  0.4387
  607MOL0     C80013   6.873  10.692   3.907 -0.4281  0.9041 -0.3051
  607MOL0     C80014   6.826  10.705   4.050 -0.5611 -0.0517 -0.5550
  607MOL0     C80015   6.891  10.607   4.143 -0.3930  1.0430  0.4273
  607MOL0     O80016   6.866  10.470   4.112 -0.1452  0.4802  0.3395
  607MOL0     C80017   6.747  10.414   4.135  0.8662 -0.0099 -0.9385
  607MOL0     C80018   6.653  10.383   4.035  0.8435  0.5059 -0.2359
  607MOL0     C80019   6.531  10.320   4.062  0.4701  0.2715  0.0724
  607MOL0     C80020   6.492  10.281   4.187  0.0403  0.1930  0.8702
  607MOL0     C80021   6.360  10.211   4.203 -0.7880 -0.6870 -0.2808
  607MOL0     O80022   6.338  10.152   4.319 -0.1622  0.2291 -0.1888
  607MOL0     C80023   6.208  10.124   4.340  0.1450 -0.4508  0.0093
  607MOL0     C80024   6.164   9.994   4.326 -0.4634 -0.6897 -0.2275
  607MOL0     C80025   6.030   9.963   4.355 -0.2341  0.0824 -0.0668
  607MOL0     C80026   5.939  10.065   4.386  0.0775 -0.1887 -0.5020
  607MOL0     O80027   5.806  10.046   4.382  0.5613  0.1762 -1.0872
  607MOL0     C80028   5.736   9.950   4.458 -0.3878 -0.4659  0.6128
  607MOL0     C80029   5.588   9.998   4.456  0.3400  1.2202 -0.7316
  607MOL0     C80030   5.488   9.891   4.432  0.4480  0.9396  0.0370
  607MOL0     C80031   5.354   9.960   4.410 -0.5509 -0.2841 -0.6202
  607MOL0     C80032   5.236   9.866   4.444  0.4048  0.3802  0.2384
  607MOL0     C80033   5.219   9.835   4.595 -0.8583  0.1490  0.0002
  607MOL0     C80034   5.127   9.944   4.662  0.7235 -0.0453 -0.5364
  607MOL0     C80035   5.097   9.910   4.802  0.3510  0.3810 -0.6667
  607MOL0    Cl80036   4.960   9.801   4.801  0.0059  0.1505  0.3217
  607MOL0     C80037   5.986  10.198   4.400 -0.2744 -0.0848 -0.2471
  607MOL0     C80038   6.120  10.229   4.383 -0.0037  0.5512 -0.1443
  607MOL0     O80039   6.282  10.220   4.107  0.4382  0.1013 -0.0782
  607MOL0     C80040   6.577  10.322   4.293 -0.1902  1.0084 -0.4145
  607MOL0     C80041   6.699  10.387   4.264 -0.2938  0.4001 -0.2170
  607MOL0     N80042   6.993  10.827   3.669 -0.4818  0.4099 -0.3809
  607MOL0     N80043   7.004  10.849   3.544 -0.0538 -0.0273 -0.3902
  607MOL0     C80044   7.217  11.296   2.953  0.9632 -0.2804 -0.2978
  607MOL0     C80045   7.227  11.159   2.958  0.0345 -0.4204  0.0466
  607MOL0     C80046   7.344  10.733   3.127  0.4352 -0.1163  0.4767
  607MOL0     C80047   7.328  10.674   2.991 -0.0996 -0.8190  0.3468
  607MOL0     C80048   7.318  10.543   2.979  0.6253 -0.0901  0.0504
  607MOL0     C80049   7.342  10.458   3.092  0.2414  0.8440 -0.5780
  607MOL0     O80050   7.340  10.320   3.092  0.5608 -0.1978  0.2804
  607MOL0     C80051   7.403  10.256   2.982  0.7153 -0.6464  0.3539
  607MOL0     C80052   7.336  10.129   2.964  0.5719  1.1521 -1.4840
  607MOL0     C80053   7.189  10.124   2.961 -0.5614 -0.1875 -0.1928
  607MOL0     C80054   7.122  10.224   2.864  0.5390 -0.4704  1.3146
  607MOL0     C80055   6.973  10.226   2.889 -0.5842  1.1253 -1.1078
  607MOL0     C80056   6.854  10.239   2.909 -0.7710 -0.2720  0.1683
  607MOL0     C80057   7.356  10.506   3.219 -0.0774 -0.1827 -0.4678
  607MOL0     C80058   7.362  10.644   3.238 -0.1908  0.3036  0.7797
  607MOL0     H80059   7.270  11.116   3.299 -0.1089  2.5973  0.4630
  607MOL0     H80060   7.203  11.350   3.282  1.2253  0.8817 -0.4521
  607MOL0     H80061   7.071  11.554   2.901  0.3587  1.4068  0.9861
  607MOL0     H80062   6.962  11.599   3.033 -0.1181 -0.0168  0.3878
  607MOL0     H80063   6.961  11.325   2.893 -2.0442 -1.3102 -0.1239
  607MOL0     H80064   6.842  11.446   2.906 -1.1273 -2.8362  0.4961
  607MOL0     H80065   6.793  11.417   3.117 -1.4138 -0.2267 -1.3978
  607MOL0     H80066   6.936  11.324   3.167  0.1348 -0.0645 -0.5630
  607MOL0     H80067   6.694  11.256   2.992  0.3182  0.8580  1.2246
  607MOL0     H80068   6.830  11.137   3.007  1.0087 -0.7472  1.3929
  607MOL0     H80069   6.646  11.218   3.233 -1.3566 -2.1239  1.8016
  607MOL0     H80070   6.808  11.189   3.258 -2.4126 -1.2944  3.4328
  607MOL0     H80071   6.766  10.950   3.131 -1.1713 -0.8445  0.9468
  607MOL0     H80072   6.598  10.989   3.164  0.1786  0.2392  1.7782
  607MOL0     H80073   6.736  11.039   3.398  1.7296  3.4802 -3.9818
  607MOL0     H80074   6.640  10.890   3.356 -0.2238 -0.1660  0.5844
  607MOL0     H80075   6.947  10.935   3.328  1.7369  1.0118  3.0562
  607MOL0     H80076   6.871  10.789   3.282 -0.1951  1.0320 -1.0806
  607MOL0     H80077   6.679  10.852   3.604  0.6725 -0.1628  3.0357
  607MOL0     H80078   6.704  10.795   3.830  0.0356 -1.9580  1.0432
  607MOL0     H80079   6.829  10.894   3.897  0.0760 -0.8637  1.6962
  607MOL0     H80080   6.982  10.705   3.912 -0.4708  1.3096 -0.3914
  607MOL0     H80081   6.849  10.592   3.868 -1.6605  0.1572  2.1822
  607MOL0     H80082   6.832  10.805   4.095 -0.1269 -0.5870  0.6294
  607MOL0     H80083   6.722  10.676   4.064 -0.2213 -0.8837  0.4213
  607MOL0     H80084   6.879  10.636   4.247  3.6440 -1.0931  1.6993
  607MOL0     H80085   6.999  10.624   4.140 -0.1712 -0.3279 -0.4111
  607MOL0     H80086   6.669  10.424   3.936 -1.9413  4.3749  0.6853
  607MOL0     H80087   6.463  10.295   3.982 -0.5258 -0.2847  1.0543
  607MOL0     H80088   6.230   9.912   4.304  0.6891 -0.0525  0.7299
  607MOL0     H80089   6.004   9.859   4.338  0.5707 -0.1780  0.2671
  607MOL0     H80090   5.776   9.951   4.560  0.2000  0.8225  0.3753
  607MOL0     H80091   5.751   9.850   4.416 -1.8169 -1.3182  1.9833
  607MOL0     H80092   5.580  10.071   4.375  1.1528  0.6681 -1.3253
  607MOL0     H80093   5.559  10.063   4.539 -1.9963  1.1475 -1.4142
  607MOL0     H80094   5.476   9.831   4.523 -1.7450  1.6816  0.3001
  607MOL0     H80095   5.510   9.828   4.345 -0.1799  0.6785  0.0644
  607MOL0     H80096   5.352  10.048   4.475  2.4034 -0.2485 -0.4526
  607MOL0     H80097   5.346   9.998   4.308  2.6643  4.1232  0.4434
  607MOL0     H80098   5.269   9.775   4.393  0.4212  0.5493 -0.0623
  607MOL0     H80099   5.142   9.909   4.409 -0.2554 -1.6625 -0.6236
  607MOL0     H80100   5.315   9.823   4.646 -1.0174  1.0642  0.5340
  607MOL0     H80101   5.161   9.742   4.603  3.0736 -2.6416 -0.9332
  607MOL0     H80102   5.181  10.039   4.655 -2.5170  1.9312 -0.7481
  607MOL0     H80103   5.032   9.960   4.609 -0.5569 -0.7723  1.4387
  607MOL0     H80104   5.071  10.006   4.848 -0.1751 -0.4091  0.7254
  607MOL0     H80105   5.188   9.876   4.852  0.5815 -0.9587 -1.9159
  607MOL0     H80106   5.922  10.280   4.429 -0.2948  0.3006 -1.3381
  607MOL0     H80107   6.161  10.326   4.409 -0.9532  0.1697  3.3087
  607MOL0     H80108   6.544  10.303   4.394  3.7922 -1.1135  0.7020
  607MOL0     H80109   6.765  10.404   4.348 -0.2741  2.0640 -0.5432
  607MOL0     H80110   7.231  11.344   2.857  1.8308  0.1709  0.0414
  607MOL0     H80111   7.238  11.099   2.869  0.9824 -1.5601  0.8961
  607MOL0     H80112   7.310  10.736   2.905 -0.3657 -0.1316  0.8863
  607MOL0     H80113   7.287  10.511   2.880 -2.4121  2.6920 -0.0901
  607MOL0     H80114   7.511  10.253   3.002  1.4169 -1.7878 -2.9582
  607MOL0     H80115   7.393  10.323   2.896  1.3921  1.2039  1.6360
  607MOL0     H80116   7.377  10.072   2.880  0.8310 -1.9302  0.5622
  607MOL0     H80117   7.366  10.070   3.052  1.0503  2.2038 -0.9257
  607MOL0     H80118   7.148  10.138   3.062  1.3379 -0.9276  0.7223
  607MOL0     H80119   7.154  10.024   2.937  0.1480 -0.2781 -0.8734
  607MOL0     H80120   7.165  10.323   2.881  1.6233 -0.6808  0.0327
  607MOL0     H80121   7.148  10.197   2.761 -0.1969  1.8567  0.4657
  607MOL0     H80122   6.750  10.260   2.923 -1.3762  0.4656 -4.0105
  607MOL0     H80123   7.369  10.440   3.304  3.7971  0.6191 -0.2462
  607MOL0     H80124   7.365  10.685   3.338 -0.1964  1.3960  0.3439
  608MOL0     O80125   8.106   3.142   8.061  0.1696 -0.0141 -0.2927
  608MOL0     C80126   8.178   3.221   8.125 -0.2601  0.0034 -0.3696
  608MOL0     O80127   8.140   3.318   8.214 -0.3623  0.5664 -0.2513
  608MOL0     C80128   8.010   3.339   8.250  0.4692  0.3597  0.8852
  608MOL0     C80129   7.994   3.406   8.371  0.5287  0.2995  1.0157
  608MOL0     C80130   7.873   3.411   8.437  0.0550 -0.3847  0.3837
  608MOL0     C80131   7.760   3.360   8.379  0.0818 -0.8783  0.2714
  608MOL0     O80132   7.644   3.379   8.448  0.0107 -0.0899 -0.0715
  608MOL0     C80133   7.582   3.506   8.417 -0.8321 -0.0473  0.3285
  608MOL0     C80134   7.454   3.531   8.486  0.3735  0.6065 -0.7229
  608MOL0     C80135   7.351   3.604   8.402  0.3293 -0.2698 -0.8206
  608MOL0     C80136   7.214   3.640   8.473  0.9126 -0.4412 -1.3726
  608MOL0     C80137   7.111   3.694   8.373  0.3333 -0.3714 -0.3165
  608MOL0     C80138   6.986   3.731   8.442  0.1859 -0.6198  0.4402
  608MOL0     C80139   6.866   3.776   8.356 -0.1394 -0.1160  0.0376
  608MOL0     C80140   6.858   3.929   8.324 -0.2202  0.4526  0.3030
  608MOL0     N80141   6.749   3.950   8.234 -0.1796  0.0255  0.4212
  608MOL0     C80142   6.617   3.965   8.277  0.2321  0.2862  0.3239
  608MOL0     C80143   6.546   3.946   8.170 -0.6566 -0.0065  0.5894
  608MOL0     C80144   6.398   3.923   8.163  0.1465 -0.5744 -0.1684
  608MOL0     C80145   6.359   3.787   8.093  0.1362 -0.6852  0.4803
  608MOL0     C80146   6.436   3.656   8.126  0.4214 -0.2409 -0.8622
  608MOL0     C80147   6.453   3.634   8.270 -0.3805  0.8062  0.6523
  608MOL0     O80148   6.330   3.624   8.340  0.0468 -0.1738 -0.5806
  608MOL0     C80149   6.338   3.531   8.445  1.7140 -0.4441  0.5990
  608MOL0     C80150   6.381   3.573   8.566  0.1136 -0.2947 -0.2839
  608MOL0     C80151   6.396   3.489   8.673  0.1668  0.6139  0.1971
  608MOL0     C80152   6.379   3.350   8.661 -0.4494  0.6474 -0.1505
  608MOL0     C80153   6.384   3.265   8.787 -0.9508  0.1338 -0.7644
  608MOL0     O80154   6.344   3.134   8.761 -0.4197 -0.7564  0.2030
  608MOL0     C80155   6.371   3.037   8.857  0.4418 -0.5823  0.3848
  608MOL0     C80156   6.264   2.968   8.926  0.2098  0.3137 -0.6858
  608MOL0     C80157   6.300   2.873   9.022 -0.5691 -0.5563 -0.8759
  608MOL0     C80158   6.433   2.848   9.051  0.0974  1.1457  1.0234
  608MOL0     O80159   6.454   2.764   9.160 -0.6430  0.8582 -0.0514
  608MOL0     C80160   6.510   2.633   9.128 -0.1051  0.3986 -0.1910
  608MOL0     C80161   6.661   2.619   9.169  0.0763  1.0514  0.1724
  608MOL0     C80162   6.701   2.469   9.204  0.5178 -0.1894  0.3093
  608MOL0     C80163   6.846   2.444   9.218  0.3094 -0.4505 -0.7812
  608MOL0     C80164   6.901   2.298   9.237 -0.6925  0.4107 -0.4978
  608MOL0     C80165   7.036   2.291   9.309 -0.6000  0.2905 -0.1865
  608MOL0     C80166   7.139   2.309   9.192 -0.1027  1.0640 -0.7659
  608MOL0     C80167   7.273   2.313   9.243 -0.1853 -0.5162  0.0448
  608MOL0    Cl80168   7.382   2.379   9.116 -0.1741 -0.2901 -0.0468
  608MOL0     C80169   6.532   2.911   8.980  0.1283 -0.1288 -0.1466
  608MOL0     C80170   6.505   3.010   8.887  0.3450 -0.2227  1.3223
  608MOL0     O80171   6.412   3.312   8.896  0.1447 -0.3610  0.2475
  608MOL0     C80172   6.336   3.307   8.537 -0.3273 -0.4129  0.3536
  608MOL0     C80173   6.317   3.394   8.426  0.3335 -0.1419 -0.4101
  608MOL0     N80174   6.629   3.912   8.057 -0.8044 -0.7596 -1.2140
  608MOL0     N80175   6.753   3.914   8.108 -0.2896  0.0639  0.1596
  608MOL0     C80176   7.762   3.302   8.253 -0.7362 -0.3763  0.2724
  608MOL0     C80177   7.889   3.291   8.195  0.4847  0.3420 -0.0762
  608MOL0     C80178   8.321   3.200   8.107 -0.0203  0.2989  0.0723
  608MOL0     C80179   8.411   3.308   8.129  0.2686 -0.6574 -0.0911
  608MOL0     C80180   8.552   3.294   8.127  0.2411 -0.1952  0.9161
  608MOL0     C80181   8.604   3.162   8.104 -0.1648 -0.3766  0.2002
  608MOL0     O80182   8.737   3.137   8.120  0.2409 -0.7200 -0.0446
  608MOL0     C80183   8.808   3.061   8.018  0.2562  0.5626 -0.8042
  608MOL0     C80184   8.896   2.950   8.075  0.3996  0.0488 -0.4038
  608MOL0     C80185   8.992   2.996   8.179  0.0686 -0.8846 -1.0554
  608MOL0     C80186   9.072   3.114   8.148  0.0807  0.0170 -0.7162
  608MOL0     C80187   9.169   3.156   8.253 -0.0223  0.2086  0.1522
  608MOL0     C80188   9.263   3.185   8.321 -0.4761  0.2890 -1.5822
  608MOL0     C80189   8.514   3.060   8.063 -0.0808 -0.4701 -0.4401
  608MOL0     C80190   8.372   3.073   8.065 -0.3149  0.5880  0.6399
  608MOL0     H80191   8.082   3.447   8.419  1.8405 -1.7363  0.4862
  608MOL0     H80192   7.873   3.458   8.535 -3.1335 -0.6403  0.6105
  608MOL0     H80193   7.572   3.509   8.308  1.1420  3.2220  0.0940
  608MOL0     H80194   7.652   3.585   8.446 -0.7189 -0.5744  1.5246
  608MOL0     H80195   7.473   3.591   8.576 -4.8033  0.5853  0.7189
  608MOL0     H80196   7.420   3.433   8.519  2.7171 -0.5166 -1.4660
  608MOL0     H80197   7.328   3.565   8.303 -0.5153  2.5915 -1.8538
  608MOL0     H80198   7.399   3.701   8.386  0.1209 -0.1761 -0.8737
  608MOL0     H80199   7.175   3.554   8.528  1.2476 -0.7550 -1.6199
  608MOL0     H80200   7.237   3.711   8.553  0.2734 -3.3991  1.6594
  608MOL0     H80201   7.099   3.609   8.305  0.7579 -3.4593  3.1310
  608MOL0     H80202   7.149   3.772   8.307  0.4224  0.1439  0.3290
  608MOL0     H80203   7.003   3.811   8.516 -2.0429  1.7580 -1.4245
  608MOL0     H80204   6.945   3.641   8.488  0.2304 -0.3450  1.0282
  608MOL0     H80205   6.884   3.733   8.257 -0.2004 -3.4957  1.3781
  608MOL0     H80206   6.770   3.745   8.399 -1.1419 -1.4024 -2.8709
  608MOL0     H80207   6.950   3.949   8.269 -1.4944 -0.0119 -2.1804
  608MOL0     H80208   6.841   3.992   8.411 -0.7281 -0.4128  0.8543
  608MOL0     H80209   6.574   3.987   8.375 -0.8165 -1.0246  0.1772
  608MOL0     H80210   6.353   4.011   8.116  1.6489  0.6780  0.6053
  608MOL0     H80211   6.364   3.922   8.267  3.3000 -1.8468  0.9713
  608MOL0     H80212   6.374   3.804   7.986 -0.8863 -1.7749  0.1401
  608MOL0     H80213   6.250   3.782   8.102  0.0314  1.0229  0.5672
  608MOL0     H80214   6.389   3.565   8.088  0.1553 -1.7700  2.7223
  608MOL0     H80215   6.529   3.674   8.072  2.2994  1.3693  2.5294
  608MOL0     H80216   6.525   3.705   8.312  1.3039 -0.0939 -0.6128
  608MOL0     H80217   6.508   3.540   8.277  0.2511  1.1455  0.3188
  608MOL0     H80218   6.401   3.680   8.574  0.4697 -0.4314  0.8378
  608MOL0     H80219   6.444   3.535   8.759  1.9972  4.6182 -2.6395
  608MOL0     H80220   6.159   2.985   8.908  0.6547  2.4867 -1.5733
  608MOL0     H80221   6.213   2.834   9.074 -1.3971  1.9049 -0.2674
  608MOL0     H80222   6.499   2.586   9.030  1.7514  0.4716 -0.4630
  608MOL0     H80223   6.460   2.571   9.203  3.8036  1.7403  3.9567
  608MOL0     H80224   6.674   2.675   9.262  0.0926  0.5731  0.4638
  608MOL0     H80225   6.729   2.648   9.089 -1.7921 -1.1397 -2.3981
  608MOL0     H80226   6.650   2.413   9.126 -2.0158  0.4968  1.3598
  608MOL0     H80227   6.657   2.437   9.299 -1.0772 -2.1121 -1.0317
  608MOL0     H80228   6.905   2.487   9.136 -1.7064  0.6784 -1.7293
  608MOL0     H80229   6.860   2.502   9.309  3.2489 -1.3210 -0.5728
  608MOL0     H80230   6.906   2.237   9.146 -1.3573 -0.5444  0.0882
  608MOL0     H80231   6.824   2.247   9.295 -2.5242  3.7127  0.2130
  608MOL0     H80232   7.046   2.201   9.371 -1.8459  0.3274  0.0864
  608MOL0     H80233   7.049   2.374   9.379 -0.3367  2.8070 -3.0252
  608MOL0     H80234   7.136   2.227   9.120  1.9625 -1.1624  1.4736
  608MOL0     H80235   7.107   2.406   9.154  1.0866  1.9043  0.3121
  608MOL0     H80236   7.296   2.212   9.279 -2.2189 -0.5593  1.4063
  608MOL0     H80237   7.291   2.389   9.319 -1.2578  1.8400 -1.9400
  608MOL0     H80238   6.638   2.899   8.999 -0.0093 -1.3655 -0.0972
  608MOL0     H80239   6.586   3.063   8.838 -0.3054 -0.9208 -0.6071
  608MOL0     H80240   6.299   3.204   8.536 -0.5326 -0.3467 -0.8283
  608MOL0     H80241   6.284   3.345   8.335 -1.7333  2.3290 -1.1086
  608MOL0     H80242   7.678   3.261   8.198  1.3302 -0.2378 -3.2554
  608MOL0     H80243   7.895   3.243   8.098 -2.1023  0.3401 -0.2946
  608MOL0     H80244   8.367   3.406   8.145  1.1464  0.2029 -2.4573
  608MOL0     H80245   8.623   3.375   8.142 -1.2244  0.8587  2.4041
  608MOL0     H80246   8.876   3.121   7.957  1.4959  0.4664  0.4343
  608MOL0     H80247   8.741   3.020   7.941  0.1224 -1.4533  0.3239
  608MOL0     H80248   8.836   2.875   8.127 -1.3707  1.8811  0.3656
  608MOL0     H80249   8.946   2.913   7.985 -0.1518  1.1498 -1.1968
  608MOL0     H80250   9.059   2.915   8.210  1.0157 -0.2974 -1.5033
  608MOL0     H80251   8.933   3.025   8.267  0.1941  1.8109 -1.7814
  608MOL0     H80252   9.129   3.105   8.055 -2.1324  3.2747 -2.5960
  608MOL0     H80253   9.012   3.200   8.115  0.2357  0.7634  0.8278
  608MOL0     H80254   9.344   3.210   8.386  0.1784 -0.9476 -1.8966
  608MOL0     H80255   8.535   2.957   8.033 -3.4079 -1.5630  0.5238
  608MOL0     H80256   8.313   2.989   8.030  3.4737 -1.2008 -2.0826
  609MOL0     O80257   6.698   8.695   9.793  0.1086 -0.5005 -0.5464
  609MOL0     C80258   6.644   8.801   9.815 -0.7379 -0.1643  0.0275
  609MOL0     O80259   6.640   8.899   9.719  1.2530 -0.7536 -0.1122
  609MOL0     C80260   6.689   8.880   9.592  0.1536 -0.1541 -0.0736
  609MOL0     C80261   6.609   8.790   9.504 -0.4450 -0.4878  0.1197
  609MOL0     C80262   6.668   8.778   9.386  0.5748 -1.0919  0.8500
  609MOL0     C80263   6.779   8.848   9.336  0.1601 -0.2279  0.1666
  609MOL0     O80264   6.841   8.839   9.217 -0.2184 -0.2510 -0.3019
  609MOL0     C80265   6.801   8.744   9.114 -0.3597  0.3850 -0.0430
  609MOL0     C80266   6.904   8.753   9.002  0.2939  0.1842 -0.4545
  609MOL0     C80267   7.028   8.674   9.032  1.0052  0.9396  0.2406
  609MOL0     C80268   7.010   8.520   9.008  1.4096  0.5530  0.2716
  609MOL0     C80269   7.124   8.434   9.063  0.0244 -0.6817 -0.1881
  609MOL0     C80270   7.123   8.299   8.989 -0.2991 -0.5257 -0.3281
  609MOL0     C80271   7.096   8.190   9.092  0.2103  0.0355  0.2685
  609MOL0     C80272   6.967   8.189   9.177 -0.2435 -0.2196  0.2919
  609MOL0     N80273   6.846   8.151   9.105  0.8759 -0.0243  0.6584
  609MOL0     C80274   6.807   8.033   9.053  0.0925  0.0627 -0.3336
  609MOL0     C80275   6.685   8.058   8.994 -0.7186 -0.0213 -0.1199
  609MOL0     C80276   6.612   7.960   8.900  1.1289 -0.1247 -0.7060
  609MOL0     C80277   6.461   7.935   8.950 -0.0458  0.1841 -0.0791
  609MOL0     C80278   6.392   7.843   8.855 -0.1509  0.8969 -0.6717
  609MOL0     C80279   6.361   7.923   8.721  0.4945  1.2459  0.4426
  609MOL0     O80280   6.282   7.836   8.639 -0.7304 -0.6126 -0.7009
  609MOL0     C80281   6.152   7.808   8.657 -0.8120  0.3033  0.0083
  609MOL0     C80282   6.099   7.694   8.593  0.5556 -0.9751  0.1596
  609MOL0     C80283   5.968   7.654   8.629 -0.2498  0.2287  1.0931
  609MOL0     C80284   5.889   7.728   8.725  0.1465  1.0195  0.4655
  609MOL0     C80285   5.755   7.679   8.766 -0.2652  0.0524  0.4958
  609MOL0     O80286   5.695   7.749   8.866  0.2181  0.4867  0.9908
  609MOL0     C80287   5.612   7.668   8.929  0.1923 -0.4389 -0.5049
  609MOL0     C80288   5.471   7.693   8.918 -1.3211 -0.6377 -0.0757
  609MOL0     C80289   5.376   7.610   8.989 -0.2293 -0.1257  0.3463
  609MOL0     C80290   5.433   7.526   9.093 -0.2548  0.3728 -0.8070
  609MOL0     O80291   5.362   7.447   9.183 -0.0073  0.9759 -0.2502
  609MOL0     C80292   5.224   7.472   9.193 -0.7801  0.5497 -0.0376
  609MOL0     C80293   5.179   7.406   9.323  0.1983  0.0467  0.3881
  609MOL0     C80294   5.026   7.415   9.322  0.1141  0.6905 -0.6903
  609MOL0     C80295   4.964   7.556   9.323 -0.5980 -0.1983  0.1588
  609MOL0     C80296   4.822   7.556   9.345  0.5582  0.0524  0.4181
  609MOL0     C80297   4.748   7.439   9.288 -0.0595  1.0694  0.1073
  609MOL0     C80298   4.601   7.431   9.318  0.9637  0.3535 -0.3395
  609MOL0     C80299   4.536   7.313   9.241  0.5007  0.0574 -0.8825
  609MOL0    Cl80300   4.361   7.304   9.298 -0.3524  0.1547  0.2885
  609MOL0     C80301   5.572   7.508   9.096  0.1066 -0.4351 -0.1463
  609MOL0     C80302   5.662   7.573   9.012  0.5208  0.0344 -0.8325
  609MOL0     O80303   5.716   7.569   8.714  0.8437 -0.6524  0.0788
  609MOL0     C80304   5.948   7.830   8.786  0.6029 -0.8904 -0.0537
  609MOL0     C80305   6.074   7.878   8.744  0.6143  0.4853 -0.1602
  609MOL0     N80306   6.651   8.182   9.011  1.1233  0.6822 -1.0028
  609MOL0     N80307   6.756   8.243   9.064  0.3995 -0.0952 -0.3915
  609MOL0     C80308   6.852   8.928   9.425  0.2977  0.1771  0.6697
  609MOL0     C80309   6.808   8.950   9.549 -0.5737 -0.3493 -0.3994
  609MOL0     C80310   6.568   8.818   9.940  0.9081 -0.4133 -0.7136
  609MOL0     C80311   6.579   8.715  10.036 -0.6501  0.4418  0.4236
  609MOL0     C80312   6.513   8.740  10.161 -0.0288  0.4994  0.1684
  609MOL0     C80313   6.461   8.862  10.195  0.1390  0.4315  0.5819
  609MOL0     O80314   6.410   8.900  10.317  0.2331  1.0099  0.0747
  609MOL0     C80315   6.350   8.800  10.403 -0.1921 -0.3759 -0.7388
  609MOL0     C80316   6.205   8.771  10.366  0.5729 -0.3090  0.6811
  609MOL0     C80317   6.116   8.888  10.388  1.0839  0.5826 -0.1435
  609MOL0     C80318   5.977   8.865  10.335  0.3688 -0.3915  0.1510
  609MOL0     C80319   5.902   8.758  10.408  0.0568  0.5029 -0.6680
  609MOL0     C80320   5.840   8.667  10.460  0.7799  0.8829 -0.7237
  609MOL0     C80321   6.453   8.956  10.104 -0.9045 -0.5887 -0.0722
  609MOL0     C80322   6.500   8.936   9.970  0.0407  0.5343 -0.8255
  609MOL0     H80323   6.523   8.731   9.535 -0.2570 -0.4077  0.8116
  609MOL0     H80324   6.624   8.694   9.332 -3.2492 -1.1177  3.6408
  609MOL0     H80325   6.702   8.781   9.085 -0.5570  1.6912  2.0735
  609MOL0     H80326   6.795   8.645   9.161  0.1289  0.4266  0.1115
  609MOL0     H80327   6.923   8.857   8.977 -3.0823  0.9570 -0.2997
  609MOL0     H80328   6.866   8.714   8.907  0.9983 -2.1159  0.1428
  609MOL0     H80329   7.078   8.686   9.129 -0.8052 -1.5957  1.6388
  609MOL0     H80330   7.094   8.696   8.948  0.2970 -1.8978 -1.2074
  609MOL0     H80331   6.916   8.478   9.045  2.7246 -4.7008 -1.4829
  609MOL0     H80332   7.009   8.498   8.901 -1.9815 -0.4105  0.4020
  609MOL0     H80333   7.115   8.417   9.170 -0.1151  0.1040 -0.0692
  609MOL0     H80334   7.213   8.488   9.029 -1.0229  0.1025 -1.8253
  609MOL0     H80335   7.223   8.277   8.950 -0.2940  1.2473 -1.4256
  609MOL0     H80336   7.057   8.287   8.902  0.8875 -1.1633 -1.1754
  609MOL0     H80337   7.090   8.097   9.034  1.3741  2.0608 -3.3893
  609MOL0     H80338   7.182   8.193   9.158  0.4117 -3.2937  0.3217
  609MOL0     H80339   6.950   8.287   9.222  1.1279 -0.3400  1.1336
  609MOL0     H80340   6.989   8.123   9.262  1.6172  1.0169  0.8271
  609MOL0     H80341   6.856   7.936   9.057  1.5872  0.8171  1.0372
  609MOL0     H80342   6.673   7.870   8.882 -1.1601 -1.0127 -5.5362
  609MOL0     H80343   6.601   8.004   8.801 -2.8426 -3.0974 -1.8573
  609MOL0     H80344   6.417   8.035   8.954  1.7670  1.0730 -1.3280
  609MOL0     H80345   6.452   7.896   9.052 -1.1816  1.4570  0.3383
  609MOL0     H80346   6.462   7.760   8.839 -0.3425 -0.1764  3.1534
  609MOL0     H80347   6.305   7.796   8.901  1.4040 -0.2192  1.2578
  609MOL0     H80348   6.449   7.950   8.661 -0.7070  3.6418 -0.3741
  609MOL0     H80349   6.310   8.017   8.747 -0.3261  0.6322  1.1000
  609MOL0     H80350   6.161   7.631   8.530 -0.0537  1.3326 -3.0000
  609MOL0     H80351   5.919   7.574   8.575  2.5092 -2.0106  1.6597
  609MOL0     H80352   5.447   7.777   8.854  1.1091  0.7021  0.6522
  609MOL0     H80353   5.271   7.632   8.975 -0.0613  0.3115 -0.2863
  609MOL0     H80354   5.168   7.430   9.109 -0.7064 -0.2281  0.2930
  609MOL0     H80355   5.204   7.580   9.202 -0.5194  0.5236  0.8420
  609MOL0     H80356   5.235   7.447   9.407  3.7359 -0.8581 -1.3172
  609MOL0     H80357   5.198   7.299   9.320 -3.6811 -0.7840  0.1715
  609MOL0     H80358   5.003   7.350   9.407  4.5609  0.8349  0.8802
  609MOL0     H80359   4.991   7.356   9.236  3.1287 -1.5993 -0.5041
  609MOL0     H80360   5.001   7.631   9.393 -0.2584  0.7342 -0.9854
  609MOL0     H80361   4.978   7.594   9.222 -2.1107 -0.6038 -0.2289
  609MOL0     H80362   4.779   7.645   9.297  0.4761 -1.0242 -1.6062
  609MOL0     H80363   4.814   7.556   9.454  3.0536 -0.9271  0.6669
  609MOL0     H80364   4.785   7.348   9.335 -0.5934 -0.3537 -2.0710
  609MOL0     H80365   4.777   7.442   9.182  2.5538  0.7279  0.7462
  609MOL0     H80366   4.598   7.412   9.426  0.9597  2.0910 -0.0035
  609MOL0     H80367   4.550   7.524   9.292  2.9804  2.1571  1.6564
  609MOL0     H80368   4.587   7.218   9.256 -0.1516  0.1467  2.8253
  609MOL0     H80369   4.522   7.337   9.135 -0.8014  1.6529 -0.3887
  609MOL0     H80370   5.598   7.430   9.167 -1.8691 -1.6172 -0.6359
  609MOL0     H80371   5.769   7.557   9.016  1.0869  3.0873 -1.3927
  609MOL0     H80372   5.898   7.891   8.862  1.1202  0.2417 -0.5933
  609MOL0     H80373   6.108   7.976   8.776 -2.0789  1.3325  0.3500
  609MOL0     H80374   6.936   8.981   9.381  0.9099 -1.6719 -0.5517
  609MOL0     H80375   6.862   9.002   9.628  0.2897 -2.8144  0.7500
  609MOL0     H80376   6.621   8.618  10.011 -0.0422  0.6543  0.5922
  609MOL0     H80377   6.504   8.658  10.231  2.6335 -0.8059 -0.8753
  609MOL0     H80378   6.351   8.837  10.506  4.4846  1.9496 -1.3765
  609MOL0     H80379   6.406   8.707  10.402  0.6616  0.1092  0.0093
  609MOL0     H80380   6.202   8.740  10.261 -0.2820  0.1278  0.5676
  609MOL0     H80381   6.181   8.686  10.430 -1.3007 -0.0626  0.3697
  609MOL0     H80382   6.149   8.979  10.338 -3.6331  2.4457 -0.3892
  609MOL0     H80383   6.119   8.906  10.496  1.0946 -4.3626  0.9168
  609MOL0     H80384   5.916   8.953  10.359 -0.6860 -1.8944  3.5599
  609MOL0     H80385   5.977   8.841  10.228  0.7733  1.8470 -0.3968
  609MOL0     H80386   5.794   8.592  10.520  2.9609 -0.8330 -1.0621
  609MOL0     H80387   6.421   9.057  10.129  1.6603  0.4244 -0.5750
  609MOL0     H80388   6.494   9.020   9.901  0.2340  1.3293  0.0998
  610MOL0     O80389   1.670   9.774   7.084 -0.7667  0.5022 -0.8372
  610MOL0     C80390   1.744   9.831   7.000 -0.2154  0.2925  0.2576
  610MOL0     O80391   1.701   9.927   6.910 -0.5858  0.0216  0.1469
  610MOL0     C80392   1.569   9.976   6.910 -0.8062 -0.0873  0.1569
  610MOL0     C80393   1.487  10.010   7.016 -0.9467 -0.8082  0.5678
  610MOL0     C80394   1.362  10.059   6.994 -0.2248 -0.5296  1.3179
  610MOL0     C80395   1.310  10.059   6.862  0.0618 -0.2581  0.0027
  610MOL0     O80396   1.173  10.084   6.847  0.4682 -0.4669 -0.5496
  610MOL0     C80397   1.076  10.050   6.947 -0.6327 -0.1222 -0.3489
  610MOL0     C80398   1.009   9.934   6.900  0.1123 -0.2205  0.1631
  610MOL0     C80399   0.894   9.976   6.806 -0.0651  0.8540  0.0750
  610MOL0     C80400   0.765  10.008   6.882  0.5432  0.4522 -0.3068
  610MOL0     C80401   0.649  10.062   6.796 -0.5780 -0.4505  0.1278
  610MOL0     C80402   0.511  10.087   6.881  0.0654 -0.0647  0.5193
  610MOL0     C80403   0.397  10.148   6.795 -0.5353  0.0349  0.5089
  610MOL0     C80404   0.284  10.180   6.886 -0.4998 -0.4378  1.4217
  610MOL0     N80405   0.164  10.207   6.802 -0.1688 -0.6552  1.0096
  610MOL0     C80406   0.088  10.117   6.743  0.6902  0.3165  0.7057
  610MOL0     C80407  -0.032  10.177   6.710 -0.2808  0.0650  0.4279
  610MOL0     C80408  -0.145  10.116   6.618 -0.1312 -0.0924  0.1287
  610MOL0     C80409  -0.106  10.155   6.469  0.5540  0.1667  0.1650
  610MOL0     C80410   0.021  10.108   6.399 -0.0682  0.2086 -0.0891
  610MOL0     C80411   0.025   9.962   6.355 -0.7777  0.2222  0.6579
  610MOL0     O80412   0.040   9.877   6.464 -0.3875  1.1205 -0.0209
  610MOL0     C80413   0.173   9.835   6.496 -0.3142  0.6998 -0.2731
  610MOL0     C80414   0.179   9.730   6.585 -0.1376 -0.3778  0.0715
  610MOL0     C80415   0.299   9.680   6.620 -0.0307 -0.2452  0.0793
  610MOL0     C80416   0.424   9.719   6.569  0.6852  0.1867  0.1517
  610MOL0     C80417   0.553   9.675   6.619 -0.2854 -0.3199  0.9935
  610MOL0     O80418   0.663   9.723   6.551 -0.2990 -0.0097  0.1760
  610MOL0     C80419   0.778   9.654   6.553  0.0772 -0.2712 -0.0837
  610MOL0     C80420   0.797   9.521   6.570  0.4380 -0.0915 -0.3772
  610MOL0     C80421   0.923   9.469   6.557 -1.1359  0.8620  0.4314
  610MOL0     C80422   1.040   9.536   6.538  0.4706 -0.3697 -0.3155
  610MOL0     O80423   1.160   9.475   6.541  0.3355  0.3396 -0.1930
  610MOL0     C80424   1.286   9.545   6.526 -0.5497  0.0778  0.3444
  610MOL0     C80425   1.374   9.492   6.637  0.8071 -0.4296 -0.2651
  610MOL0     C80426   1.515   9.557   6.620  0.5636  1.0276 -0.6355
  610MOL0     C80427   1.604   9.512   6.735  0.1708  0.4494 -0.2929
  610MOL0     C80428   1.750   9.558   6.714  0.3101 -0.0127 -0.2948
  610MOL0     C80429   1.856   9.456   6.757 -0.2821  0.4868  1.2144
  610MOL0     C80430   2.002   9.493   6.728  0.1607 -0.5040 -0.3571
  610MOL0     C80431   2.088   9.372   6.690 -0.2518 -0.2927  0.6373
  610MOL0    Cl80432   2.254   9.427   6.673 -0.3591  0.2616 -0.0656
  610MOL0     C80433   1.020   9.669   6.503  0.1572 -1.0325 -0.3707
  610MOL0     C80434   0.895   9.730   6.525  0.2839 -0.4273  0.6233
  610MOL0     O80435   0.556   9.602   6.719  0.3370 -0.8823  0.4035
  610MOL0     C80436   0.420   9.825   6.478 -0.7098  0.5494 -0.1489
  610MOL0     C80437   0.292   9.885   6.435 -1.1339  0.0340 -0.8522
  610MOL0     N80438  -0.033  10.296   6.762  0.1384 -0.4475 -0.5802
  610MOL0     N80439   0.084  10.312   6.815 -0.5647 -0.1257 -0.9005
  610MOL0     C80440   1.390  10.029   6.755  0.1555  0.5688  0.3621
  610MOL0     C80441   1.521   9.995   6.781 -0.4399  0.2862  0.8389
  610MOL0     C80442   1.889   9.799   7.007  0.1578  0.4461  0.1642
  610MOL0     C80443   1.984   9.846   6.913  0.0864  0.3373  0.8782
  610MOL0     C80444   2.117   9.818   6.932  0.5003 -0.2083 -0.5240
  610MOL0     C80445   2.166   9.745   7.040  1.2637  0.8692  0.1074
  610MOL0     O80446   2.304   9.734   7.043 -0.1601 -0.0470 -0.3451
  610MOL0     C80447   2.365   9.666   7.151  0.9541 -0.1769 -0.0789
  610MOL0     C80448   2.508   9.716   7.163 -0.2618  0.5653  0.3877
  610MOL0     C80449   2.520   9.841   7.244  0.0735 -0.3373 -0.7054
  610MOL0     C80450   2.434   9.956   7.205  0.4940 -0.5070 -0.0939
  610MOL0     C80451   2.446  10.061   7.305 -0.2107 -0.9841 -0.8276
  610MOL0     C80452   2.469  10.132   7.398 -0.3947 -0.7954  0.4845
  610MOL0     C80453   2.070   9.686   7.124  0.3462  0.2714 -1.2366
  610MOL0     C80454   1.936   9.715   7.106 -0.5449 -0.1525 -0.1525
  610MOL0     H80455   1.528   9.995   7.116  0.2092 -0.9759  0.0877
  610MOL0     H80456   1.309  10.085   7.085  0.6144 -0.3615  1.7765
  610MOL0     H80457   1.011  10.136   6.965  2.2964  1.6437  3.0194
  610MOL0     H80458   1.119  10.021   7.043  0.3011  0.4380 -0.5901
  610MOL0     H80459   0.975   9.867   6.980  3.3142  0.4712  2.2719
  610MOL0     H80460   1.076   9.886   6.827  3.0959  4.4551 -0.5666
  610MOL0     H80461   0.879   9.904   6.724  1.4101  1.7708 -1.0536
  610MOL0     H80462   0.925  10.066   6.753 -0.2371  2.5363  2.7000
  610MOL0     H80463   0.734   9.919   6.939  0.8845  0.4907 -0.0619
  610MOL0     H80464   0.794  10.086   6.953  2.7401  0.5999 -1.2888
  610MOL0     H80465   0.628   9.988   6.718  1.5318 -1.1330  0.1420
  610MOL0     H80466   0.678  10.160   6.756 -0.0862  0.6565  2.9550
  610MOL0     H80467   0.523  10.162   6.960 -0.4107  0.3316  0.2173
  610MOL0     H80468   0.474   9.990   6.918 -0.8580 -0.7242 -1.9697
  610MOL0     H80469   0.421  10.243   6.746 -0.4820 -1.4040 -2.4761
  610MOL0     H80470   0.368  10.080   6.714 -1.4336  0.9962  0.0061
  610MOL0     H80471   0.311  10.266   6.948  0.6771  0.1862  0.0929
  610MOL0     H80472   0.261  10.094   6.950  1.2524 -1.5408  0.6740
  610MOL0     H80473   0.131  10.026   6.701  0.4281  1.6488 -2.7812
  610MOL0     H80474  -0.244  10.152   6.645  1.1079  1.7946  2.5683
  610MOL0     H80475  -0.132  10.007   6.620  0.3345 -0.0864 -1.4231
  610MOL0     H80476  -0.104  10.264   6.462  2.1664  0.0800 -1.5349
  610MOL0     H80477  -0.186  10.137   6.397  1.2732 -0.5560 -0.4815
  610MOL0     H80478   0.035  10.163   6.306 -1.8236 -1.2115 -1.2868
  610MOL0     H80479   0.107  10.124   6.464 -2.4724  1.1645  3.1735
  610MOL0     H80480   0.098   9.946   6.275  1.2188 -2.2674  2.7795
  610MOL0     H80481  -0.076   9.948   6.314 -0.1860  1.2107 -1.2259
  610MOL0     H80482   0.088   9.685   6.625 -2.1912  0.2054 -3.4961
  610MOL0     H80483   0.279   9.606   6.696 -0.2224 -1.6374 -1.2815
  610MOL0     H80484   0.721   9.450   6.601  2.0327 -2.2611 -1.1429
  610MOL0     H80485   0.923   9.361   6.568 -2.7533  0.5546 -1.8409
  610MOL0     H80486   1.275   9.654   6.535  0.3097  0.1133  1.2615
  610MOL0     H80487   1.317   9.508   6.428 -1.9018 -1.5031  0.4690
  610MOL0     H80488   1.385   9.385   6.617 -0.2853 -0.1610 -2.6376
  610MOL0     H80489   1.327   9.512   6.733 -3.2444 -1.7614 -1.7675
  610MOL0     H80490   1.505   9.665   6.611 -0.5136  0.9795 -0.0981
  610MOL0     H80491   1.559   9.523   6.526 -0.6105  1.3222 -1.3074
  610MOL0     H80492   1.568   9.555   6.828  1.2141 -1.0149  0.8298
  610MOL0     H80493   1.601   9.402   6.740 -2.2864  0.4383 -0.7442
  610MOL0     H80494   1.768   9.662   6.740  1.9655  0.7001 -3.6815
  610MOL0     H80495   1.764   9.551   6.606 -1.6205 -1.2980 -0.5016
  610MOL0     H80496   1.837   9.360   6.709 -0.1186  0.6845  0.7542
  610MOL0     H80497   1.847   9.456   6.866 -0.1147  0.4605  1.2284
  610MOL0     H80498   2.005   9.567   6.648 -1.6503  2.6819  2.2843
  610MOL0     H80499   2.036   9.526   6.827 -1.4122  0.7147 -0.1872
  610MOL0     H80500   2.057   9.328   6.595  0.4958 -0.4652  0.4656
  610MOL0     H80501   2.063   9.293   6.761 -1.4283 -1.5692 -1.1075
  610MOL0     H80502   1.094   9.739   6.467 -0.3203  0.9412  2.1770
  610MOL0     H80503   0.887   9.834   6.495 -0.9912 -0.5287  0.5750
  610MOL0     H80504   0.509   9.871   6.437 -0.9360  1.0541 -0.0823
  610MOL0     H80505   0.302   9.961   6.358 -0.5182  0.6511 -0.1787
  610MOL0     H80506   1.336  10.020   6.661  0.5730  2.5234 -0.1066
  610MOL0     H80507   1.592   9.951   6.711 -1.6820 -0.0911 -0.2260
  610MOL0     H80508   1.966   9.911   6.827  1.7002 -1.5288 -0.9927
  610MOL0     H80509   2.190   9.865   6.866  1.0796 -0.2983  0.0482
  610MOL0     H80510   2.361   9.560   7.124 -2.0180 -0.7378  2.0435
  610MOL0     H80511   2.318   9.679   7.249 -0.0254  1.5918 -0.7188
  610MOL0     H80512   2.569   9.639   7.213  0.7649  0.9084 -0.2969
  610MOL0     H80513   2.555   9.730   7.065 -3.6569 -0.1003 -1.4700
  610MOL0     H80514   2.621   9.880   7.257  0.5462 -2.2290  1.9846
  610MOL0     H80515   2.502   9.820   7.350  1.6707 -0.7556 -0.4943
  610MOL0     H80516   2.478  10.003   7.117  1.6593  0.5114  0.9918
  610MOL0     H80517   2.335   9.929   7.169  1.0533  1.3769 -3.4721
  610MOL0     H80518   2.483  10.208   7.473 -2.2706  2.9157 -2.5440
  610MOL0     H80519   2.099   9.627   7.210  1.2235  4.0185  1.2898
  610MOL0     H80520   1.868   9.665   7.175  0.0174  0.2573  0.7227
  611MOL0     O80521   0.884   1.755   9.716  0.2202  0.6124 -0.2013
  611MOL0     C80522   0.981   1.792   9.785 -0.8994 -0.4018  0.8021
  611MOL0     O80523   0.990   1.786   9.914 -0.9227  0.4091 -0.1882
  611MOL0     C80524   0.897   1.712   9.987  0.1132 -0.2276  0.8841
  611MOL0     C80525   0.948   1.593  10.043  0.0320 -0.2563  0.0054
  611MOL0     C80526   0.875   1.519  10.130  0.9533  0.8163 -0.3734
  611MOL0     C80527   0.742   1.549  10.156  0.1244  0.4054  0.3923
  611MOL0     O80528   0.672   1.474  10.243  0.0484  0.2669  0.5016
  611MOL0     C80529   0.561   1.523  10.318  0.2733  0.5927 -1.2507
  611MOL0     C80530   0.436   1.433  10.327  0.1570 -0.3171 -0.4583
  611MOL0     C80531   0.452   1.313  10.417  0.1970  0.1804  0.8820
  611MOL0     C80532   0.315   1.243  10.420  0.1478  0.4459  0.3411
  611MOL0     C80533   0.318   1.157  10.545  0.3164  0.0320 -0.4122
  611MOL0     C80534   0.232   1.037  10.536  0.4522 -1.0269  0.1262
  611MOL0     C80535   0.251   0.939  10.656 -0.3338 -0.1887  0.2910
  611MOL0     C80536   0.145   0.830  10.656 -0.3637 -0.4339 -0.1892
  611MOL0     N80537   0.024   0.885  10.727 -0.9231 -0.2913 -0.9383
  611MOL0     C80538  -0.008   0.845  10.862  0.0727  0.2533 -0.6009
  611MOL0     C80539  -0.139   0.876  10.880 -0.4199 -0.0594 -0.4019
  611MOL0     C80540  -0.231   0.846  10.997  0.1279  0.5879 -0.6901
  611MOL0     C80541  -0.331   0.742  10.974  0.2614  0.2584  0.4256
  611MOL0     C80542  -0.425   0.728  11.090 -0.6705  0.1217 -0.1452
  611MOL0     C80543  -0.543   0.645  11.043  0.3848  0.5615 -0.0538
  611MOL0     O80544  -0.598   0.551  11.148 -0.4981  0.2221  0.3165
  611MOL0     C80545  -0.669   0.607  11.249 -0.3000  0.2844  0.6004
  611MOL0     C80546  -0.697   0.746  11.255 -0.0866 -0.5092 -0.4570
  611MOL0     C80547  -0.793   0.784  11.359 -0.1709 -0.0559  1.2258
  611MOL0     C80548  -0.851   0.696  11.451  0.1620  0.5460  0.6983
  611MOL0     C80549  -0.952   0.743  11.550  0.5184 -0.6147  0.4998
  611MOL0     O80550  -0.984   0.878  11.545 -0.4252  0.4332 -0.6994
  611MOL0     C80551  -1.090   0.925  11.614 -0.8860  1.4813 -0.0037
  611MOL0     C80552  -1.224   0.894  11.560 -0.3967 -0.7960  0.0348
  611MOL0     C80553  -1.336   0.929  11.636  0.4575 -1.1927 -0.1637
  611MOL0     C80554  -1.324   0.984  11.767  0.8055 -0.6983  0.8397
  611MOL0     O80555  -1.436   1.009  11.835 -0.6395 -0.4374  1.1433
  611MOL0     C80556  -1.440   1.067  11.961 -1.4811 -0.4008 -0.0394
  611MOL0     C80557  -1.577   1.124  11.980  0.5441 -0.6599 -0.2709
  611MOL0     C80558  -1.588   1.154  12.134 -0.1190  0.3837  0.2776
  611MOL0     C80559  -1.710   1.239  12.165  0.0495 -0.4178  0.2684
  611MOL0     C80560  -1.701   1.313  12.291  0.0317  0.1428  0.0224
  611MOL0     C80561  -1.825   1.396  12.330  0.0503 -0.1428 -0.8970
  611MOL0     C80562  -1.783   1.519  12.415 -0.7568 -0.0845 -1.0184
  611MOL0     C80563  -1.896   1.610  12.463 -0.4457 -0.5296  0.5180
  611MOL0    Cl80564  -2.022   1.530  12.560 -0.1292 -0.1749  0.2366
  611MOL0     C80565  -1.201   1.001  11.821 -0.0085  0.2648  0.6331
  611MOL0     C80566  -1.081   0.968  11.746 -0.2366 -0.4146 -1.0735
  611MOL0     O80567  -1.006   0.659  11.624  0.1488  0.5278 -0.4901
  611MOL0     C80568  -0.810   0.562  11.439  0.0342 -0.7438 -0.4806
  611MOL0     C80569  -0.728   0.517  11.339 -0.7955  0.3494  0.6292
  611MOL0     N80570  -0.183   0.946  10.765 -0.2660 -0.9271  0.0144
  611MOL0     N80571  -0.077   0.956  10.678 -0.6689  0.0863 -0.1792
  611MOL0     C80572   0.689   1.649  10.080 -0.2148 -0.3666  0.3102
  611MOL0     C80573   0.762   1.740   9.993 -0.1017 -0.7146 -0.7413
  611MOL0     C80574   1.097   1.850   9.711 -0.1528  0.2413 -0.1218
  611MOL0     C80575   1.087   1.847   9.570  0.5712  0.2484 -0.4801
  611MOL0     C80576   1.202   1.879   9.482  0.2252 -0.4967  0.1795
  611MOL0     C80577   1.323   1.927   9.529  0.5610 -1.5370 -0.3962
  611MOL0     O80578   1.428   1.966   9.453 -0.2268 -0.5787  0.6119
  611MOL0     C80579   1.540   2.051   9.488 -0.0970 -0.1500 -0.4566
  611MOL0     C80580   1.480   2.190   9.495  0.2698  0.5238  0.1431
  611MOL0     C80581   1.592   2.277   9.544  0.3049 -0.4516 -0.1875
  611MOL0     C80582   1.556   2.425   9.555  0.7845  0.9065  0.2890
  611MOL0     C80583   1.478   2.471   9.442 -0.5305 -0.8034  0.1411
  611MOL0     C80584   1.407   2.494   9.349  0.1311 -0.0916 -0.1218
  611MOL0     C80585   1.333   1.925   9.668  0.7209 -0.9051  0.2831
  611MOL0     C80586   1.224   1.887   9.759 -0.3561 -0.8306  0.9621
  611MOL0     H80587   1.054   1.574  10.031  0.3593 -0.1438  2.2732
  611MOL0     H80588   0.926   1.430  10.166 -1.6176 -1.1407 -1.2672
  611MOL0     H80589   0.526   1.625  10.299  1.2556  0.8585 -1.6842
  611MOL0     H80590   0.603   1.548  10.416 -1.8086 -0.8222  0.0770
  611MOL0     H80591   0.402   1.412  10.225  0.0882  0.7310 -0.6598
  611MOL0     H80592   0.361   1.494  10.378  1.4872 -1.6209  3.3661
  611MOL0     H80593   0.469   1.349  10.519  0.6458  4.1238 -0.4411
  611MOL0     H80594   0.518   1.236  10.375  2.5776  3.3488 -1.6589
  611MOL0     H80595   0.234   1.313  10.401 -0.1903  0.2247  0.9616
  611MOL0     H80596   0.296   1.175  10.335 -1.2609  2.6030 -1.1691
  611MOL0     H80597   0.278   1.220  10.626  0.0710  0.8548 -1.1631
  611MOL0     H80598   0.419   1.121  10.568  1.0611 -0.7520 -4.2903
  611MOL0     H80599   0.253   0.984  10.443 -2.4524  1.2265 -2.0232
  611MOL0     H80600   0.125   1.060  10.531  0.6570  0.0617  0.3831
  611MOL0     H80601   0.349   0.892  10.643 -0.5327 -1.5787  3.1284
  611MOL0     H80602   0.268   0.979  10.756  1.6140 -2.7472  1.0879
  611MOL0     H80603   0.179   0.736  10.701 -3.5899 -0.8474  1.7144
  611MOL0     H80604   0.116   0.811  10.552 -0.6517 -4.5868  0.4696
  611MOL0     H80605   0.050   0.784  10.931 -1.6469  1.0159  1.6660
  611MOL0     H80606  -0.281   0.935  11.035  0.9873  1.7966 -2.2628
  611MOL0     H80607  -0.173   0.805  11.081 -0.5707  0.8862 -0.0467
  611MOL0     H80608  -0.278   0.649  10.947  0.1213  0.6064 -1.1154
  611MOL0     H80609  -0.389   0.757  10.883  1.4165 -1.1016 -0.5875
  611MOL0     H80610  -0.378   0.692  11.182  2.5931  0.4177 -1.5794
  611MOL0     H80611  -0.459   0.831  11.107 -0.0478  0.3880 -0.4921
  611MOL0     H80612  -0.520   0.587  10.953 -2.4529 -1.0783  0.1621
  611MOL0     H80613  -0.622   0.716  11.016 -0.5814 -0.1627  0.7870
  611MOL0     H80614  -0.666   0.830  11.194 -2.0848  2.8913  2.7262
  611MOL0     H80615  -0.829   0.886  11.369 -2.5715 -0.6599 -0.3852
  611MOL0     H80616  -1.243   0.857  11.459 -4.7086  1.1183 -0.1161
  611MOL0     H80617  -1.433   0.907  11.592 -0.1417 -0.6541  0.8395
  611MOL0     H80618  -1.364   1.144  11.971  3.6714 -4.6106 -1.9971
  611MOL0     H80619  -1.405   0.992  12.033 -3.0259 -2.1113 -0.9608
  611MOL0     H80620  -1.657   1.051  11.968  0.1462 -0.2876  0.1050
  611MOL0     H80621  -1.593   1.213  11.918  0.0184 -1.6789 -1.6551
  611MOL0     H80622  -1.507   1.225  12.155  0.1686  0.9153 -2.2779
  611MOL0     H80623  -1.591   1.067  12.199  0.2927  1.5850  1.9720
  611MOL0     H80624  -1.721   1.309  12.082  0.8597  0.6096  1.0007
  611MOL0     H80625  -1.795   1.171  12.171 -1.4394  1.3670  0.1259
  611MOL0     H80626  -1.609   1.370  12.299 -0.2101  0.8093 -1.6072
  611MOL0     H80627  -1.689   1.249  12.380 -2.2737  1.4872  1.4043
  611MOL0     H80628  -1.878   1.339  12.406  0.8567 -0.0923 -0.2811
  611MOL0     H80629  -1.879   1.419  12.237 -1.0205 -0.4803 -0.3705
  611MOL0     H80630  -1.742   1.466  12.502 -4.0319 -2.0268 -0.4813
  611MOL0     H80631  -1.699   1.574  12.371  1.9931 -2.6403  0.6341
  611MOL0     H80632  -1.934   1.663  12.375 -1.1822  0.1959  1.2625
  611MOL0     H80633  -1.854   1.686  12.529 -0.3786  1.2384 -1.4419
  611MOL0     H80634  -1.211   1.040  11.921 -1.5155  0.9300  0.2531
  611MOL0     H80635  -0.984   0.976  11.795 -0.3036 -1.5895 -0.7056
  611MOL0     H80636  -0.860   0.490  11.502 -1.7263  0.2958 -0.6312
  611MOL0     H80637  -0.700   0.412  11.336 -1.9623  0.0393  0.1620
  611MOL0     H80638   0.587   1.684  10.091  0.1320  0.4894  0.9145
  611MOL0     H80639   0.724   1.839   9.968  2.4768  0.5821  0.1298
  611MOL0     H80640   1.000   1.808   9.518 -1.2403  0.4494  2.2156
  611MOL0     H80641   1.186   1.861   9.376  1.8210  1.5136 -0.4908
  611MOL0     H80642   1.625   2.048   9.420 -1.0585 -1.1130 -1.6807
  611MOL0     H80643   1.586   2.022   9.583 -0.7958  1.1688  0.3059
  611MOL0     H80644   1.445   2.225   9.397  2.4680  2.6545 -0.0039
  611MOL0     H80645   1.393   2.192   9.560  0.6214 -1.9674  0.7815
  611MOL0     H80646   1.669   2.282   9.467 -0.9203  0.6757 -1.3980
  611MOL0     H80647   1.617   2.233   9.641 -0.4742 -2.0862 -0.6814
  611MOL0     H80648   1.504   2.445   9.649  0.2301  2.1946 -0.2766
  611MOL0     H80649   1.649   2.482   9.547  0.2141  1.6298 -1.5420
  611MOL0     H80650   1.341   2.514   9.267 -0.7740  1.2215  0.8744
  611MOL0     H80651   1.424   1.964   9.711  0.5158  1.9483 -1.5610
  611MOL0     H80652   1.248   1.876   9.864  2.9307 -1.0280  0.2805
  612MOL0     O80653   0.625   7.166   3.015  0.5978 -0.8108  0.4656
  612MOL0     C80654   0.536   7.091   2.983  0.4987  0.0424 -0.2570
  612MOL0     O80655   0.543   7.008   2.883 -0.2078  0.6430  0.2840
  612MOL0     C80656   0.652   7.005   2.803  0.5983 -0.2198 -0.3322
  612MOL0     C80657   0.627   6.982   2.673  0.6827  0.4924  0.4478
  612MOL0     C80658   0.734   6.988   2.580  0.3513  0.5747  0.2962
  612MOL0     C80659   0.870   6.994   2.624  0.1658 -0.0889 -0.1485
  612MOL0     O80660   0.964   7.005   2.517  0.1383 -0.0876  0.1422
  612MOL0     C80661   1.104   7.032   2.537  0.0074  0.5773  0.6749
  612MOL0     C80662   1.137   7.172   2.480  0.0417 -0.4531  0.5900
  612MOL0     C80663   1.263   7.219   2.530  0.1888  0.8963  0.2656
  612MOL0     C80664   1.302   7.347   2.451  0.5073 -0.6131  0.0838
  612MOL0     C80665   1.402   7.408   2.539 -0.8230 -0.2343  0.3213
  612MOL0     C80666   1.337   7.484   2.653 -0.9095  0.4901 -0.3746
  612MOL0     C80667   1.456   7.536   2.747  0.6009 -0.7772 -0.0022
  612MOL0     C80668   1.404   7.639   2.848 -0.2461  0.6606 -0.0923
  612MOL0     N80669   1.486   7.658   2.974  0.2076 -0.0681 -0.7906
  612MOL0     C80670   1.611   7.715   3.005  0.6801 -0.6709  0.3644
  612MOL0     C80671   1.632   7.702   3.137 -0.2171 -0.8687 -0.3977
  612MOL0     C80672   1.757   7.739   3.217  0.5355  0.6814 -0.8588
  612MOL0     C80673   1.800   7.879   3.214  0.6845 -0.1171  0.1965
  612MOL0     C80674   1.867   7.921   3.079  0.4173  0.3058 -0.3395
  612MOL0     C80675   1.962   7.818   3.022 -0.3725  0.4005  0.0266
  612MOL0     O80676   2.015   7.882   2.907  0.6274 -0.5681 -0.5673
  612MOL0     C80677   2.141   7.941   2.920 -0.0167 -0.7165 -0.3980
  612MOL0     C80678   2.185   8.002   3.032 -0.4470 -0.3778 -0.1799
  612MOL0     C80679   2.303   8.077   3.022  0.4254 -0.2039 -0.6405
  612MOL0     C80680   2.379   8.086   2.906 -0.3073  0.1789  0.1554
  612MOL0     C80681   2.513   8.145   2.907 -0.5425  0.3365  0.0087
  612MOL0     O80682   2.569   8.178   2.791 -0.6562 -0.0106  0.3715
  612MOL0     C80683   2.698   8.237   2.789 -0.0224  0.0449 -0.3627
  612MOL0     C80684   2.806   8.168   2.746 -0.6209  0.3674  0.1197
  612MOL0     C80685   2.937   8.217   2.747  0.4966 -0.5566 -0.1304
  612MOL0     C80686   2.958   8.359   2.788  0.3309  0.5252  1.1388
  612MOL0     O80687   3.078   8.423   2.761 -0.6691  0.0001 -0.5426
  612MOL0     C80688   3.091   8.565   2.781  0.6726 -0.1314 -0.3218
  612MOL0     C80689   3.195   8.633   2.684  0.5620 -0.0376 -0.4018
  612MOL0     C80690   3.170   8.785   2.648  0.9648 -0.1216  0.1738
  612MOL0     C80691   3.286   8.844   2.555 -0.0143 -0.8874 -0.0372
  612MOL0     C80692   3.427   8.814   2.606  0.5967 -0.0890  0.2778
  612MOL0     C80693   3.536   8.905   2.530 -0.4729 -0.7460 -0.7830
  612MOL0     C80694   3.595   8.837   2.402  0.3363 -0.0970  0.1345
  612MOL0     C80695   3.713   8.907   2.337  0.6587  0.0986 -0.7629
  612MOL0    Cl80696   3.761   8.822   2.191  0.4795 -0.2644  0.2780
  612MOL0     C80697   2.846   8.423   2.847 -0.4073  0.0155 -0.6253
  612MOL0     C80698   2.720   8.363   2.843  0.1518 -0.0791  0.0631
  612MOL0     O80699   2.568   8.152   3.017 -0.0931 -0.2883  0.5777
  612MOL0     C80700   2.320   8.033   2.791  0.4103 -0.6168  1.2553
  612MOL0     C80701   2.199   7.963   2.796 -0.2439 -0.0063  0.3498
  612MOL0     N80702   1.525   7.630   3.185  0.0527 -0.4896 -0.7574
  612MOL0     N80703   1.452   7.597   3.090  0.8391  0.4452  0.6641
  612MOL0     C80704   0.893   7.006   2.759 -0.2206  0.1936 -0.5361
  612MOL0     C80705   0.783   6.997   2.847 -0.3941  0.0903 -0.5466
  612MOL0     C80706   0.426   7.071   3.080  0.6019  0.1833 -0.3409
  612MOL0     C80707   0.377   7.187   3.151  0.5544  0.6215 -0.5832
  612MOL0     C80708   0.271   7.171   3.243 -0.8098  0.2413 -0.9228
  612MOL0     C80709   0.209   7.047   3.268 -0.4266 -0.0515 -0.3736
  612MOL0     O80710   0.113   7.038   3.365 -0.4429 -0.7862  0.2977
  612MOL0     C80711   0.168   7.073   3.498  0.1730 -0.2124  0.9354
  612MOL0     C80712   0.080   7.177   3.566 -0.2139 -0.0027 -0.7293
  612MOL0     C80713  -0.072   7.144   3.580  0.0389 -0.0109 -0.0112
  612MOL0     C80714  -0.136   7.271   3.636 -0.7677  0.9401 -0.2653
  612MOL0     C80715  -0.277   7.243   3.664  0.5881 -0.5590  0.0198
  612MOL0     C80716  -0.398   7.228   3.690 -0.5648  0.3069  0.1145
  612MOL0     C80717   0.260   6.940   3.197  0.0283  0.0456  0.9095
  612MOL0     C80718   0.359   6.954   3.103 -0.3983 -0.9020 -0.2180
  612MOL0     H80719   0.525   6.975   2.636  0.9487 -0.0059 -0.2248
  612MOL0     H80720   0.705   6.994   2.476  0.9510  1.9875  0.1830
  612MOL0     H80721   1.158   6.949   2.490 -2.0812 -0.9387  0.8342
  612MOL0     H80722   1.131   7.042   2.642  2.8582  1.6191 -0.0604
  612MOL0     H80723   1.059   7.248   2.491 -0.3144 -0.7224 -0.0082
  612MOL0     H80724   1.150   7.153   2.373 -0.3499 -0.0139  0.4615
  612MOL0     H80725   1.341   7.148   2.500  1.6388  2.5009  0.0832
  612MOL0     H80726   1.274   7.206   2.638 -0.2486 -1.3819  0.0709
  612MOL0     H80727   1.359   7.317   2.363 -0.6752 -3.4992  0.1997
  612MOL0     H80728   1.219   7.412   2.419  1.5533 -0.6080 -2.8336
  612MOL0     H80729   1.460   7.485   2.488 -0.3508 -0.3376  0.6899
  612MOL0     H80730   1.476   7.336   2.575 -2.4580 -2.5618 -0.7503
  612MOL0     H80731   1.261   7.428   2.709 -0.3538  1.1564  1.1129
  612MOL0     H80732   1.281   7.565   2.607 -0.9676 -0.0440 -1.2571
  612MOL0     H80733   1.509   7.450   2.789  1.8532 -1.3973 -2.6748
  612MOL0     H80734   1.531   7.596   2.694  0.7837  0.5923  1.7185
  612MOL0     H80735   1.307   7.598   2.878  1.7988 -2.3864  3.1073
  612MOL0     H80736   1.387   7.729   2.788 -0.8074 -0.3165 -1.4530
  612MOL0     H80737   1.683   7.754   2.933  2.8480 -0.6761  2.3906
  612MOL0     H80738   1.833   7.669   3.182  1.6086  2.0293 -1.3072
  612MOL0     H80739   1.742   7.721   3.324  0.1810  2.2862 -0.6065
  612MOL0     H80740   1.863   7.906   3.299 -1.4175  1.6559  1.2585
  612MOL0     H80741   1.710   7.940   3.222  0.4583 -0.7160  2.8480
  612MOL0     H80742   1.791   7.941   3.004 -0.7482  2.7325  1.3616
  612MOL0     H80743   1.915   8.017   3.099  3.7117 -1.7364  2.9168
  612MOL0     H80744   1.910   7.728   2.989 -1.2216  1.1508 -0.7546
  612MOL0     H80745   2.037   7.794   3.098 -0.8188  0.0315  0.3584
  612MOL0     H80746   2.133   7.993   3.127  1.7968 -0.1591  1.1589
  612MOL0     H80747   2.350   8.117   3.112  0.5119 -1.7787  0.0364
  612MOL0     H80748   2.792   8.067   2.708  0.9737 -0.8583  2.5366
  612MOL0     H80749   3.016   8.155   2.706 -0.2498 -0.8122 -1.2377
  612MOL0     H80750   3.119   8.594   2.883  0.3188  2.2163 -0.8421
  612MOL0     H80751   2.993   8.605   2.754  0.3586 -0.2200  0.6562
  612MOL0     H80752   3.184   8.583   2.588 -3.9832  1.3725 -0.8649
  612MOL0     H80753   3.291   8.619   2.735 -0.7500 -0.1913  2.2149
  612MOL0     H80754   3.158   8.853   2.733  2.8957  3.9857 -2.5159
  612MOL0     H80755   3.073   8.791   2.598  1.1412  0.4601 -0.1125
  612MOL0     H80756   3.271   8.789   2.461 -0.1984 -0.4253 -0.2829
  612MOL0     H80757   3.273   8.948   2.526 -1.6790 -0.4672  1.9804
  612MOL0     H80758   3.448   8.708   2.593  1.7213  0.4179 -2.8630
  612MOL0     H80759   3.428   8.849   2.710  1.2324 -1.0017  0.5897
  612MOL0     H80760   3.622   8.918   2.597 -1.4475  1.3924  0.1364
  612MOL0     H80761   3.491   9.001   2.505 -2.2221 -1.2106  0.3677
  612MOL0     H80762   3.622   8.733   2.424 -0.9696 -0.9429 -1.9782
  612MOL0     H80763   3.507   8.837   2.337  0.1484 -1.6801  0.3346
  612MOL0     H80764   3.801   8.913   2.402 -0.5573  0.3976  0.9262
  612MOL0     H80765   3.687   9.011   2.315 -0.7634 -0.7983 -3.8631
  612MOL0     H80766   2.847   8.521   2.895 -3.1629 -0.3016  0.2569
  612MOL0     H80767   2.633   8.425   2.867  0.5988  0.6699 -0.2249
  612MOL0     H80768   2.361   8.040   2.691 -0.9757 -1.1653  0.6197
  612MOL0     H80769   2.161   7.915   2.707  0.8068 -0.3868  0.0950
  612MOL0     H80770   0.988   6.997   2.812 -0.3633  0.1508 -0.2864
  612MOL0     H80771   0.806   6.973   2.950 -4.0028 -2.6709 -0.2126
  612MOL0     H80772   0.438   7.276   3.137  1.2417  0.4432  1.0200
  612MOL0     H80773   0.250   7.265   3.293  1.2733  0.6592 -0.7388
  612MOL0     H80774   0.266   7.121   3.491 -0.9416  2.3989  2.0123
  612MOL0     H80775   0.176   6.979   3.552 -1.8669 -0.3769  1.0245
  612MOL0     H80776   0.121   7.192   3.666 -2.3772 -0.7452  0.3410
  612MOL0     H80777   0.082   7.271   3.511 -2.5050  1.4388  1.4171
  612MOL0     H80778  -0.089   7.059   3.647 -3.1496 -1.3400 -2.2409
  612MOL0     H80779  -0.116   7.121   3.483  0.1380  2.1778 -0.6304
  612MOL0     H80780  -0.094   7.313   3.728  0.3225  0.4368 -0.5171
  612MOL0     H80781  -0.140   7.354   3.564 -0.0165  1.0980 -0.1308
  612MOL0     H80782  -0.503   7.233   3.715 -0.2317 -0.5117  1.8219
  612MOL0     H80783   0.234   6.839   3.226  1.1704  0.1090  2.2719
  612MOL0     H80784   0.413   6.875   3.053  0.2737 -0.8485  0.4063
  613MOL0     O80785   2.518   7.842   8.964 -0.2523  1.0107 -0.2378
  613MOL0     C80786   2.635   7.796   8.944  0.3879 -1.0723  0.6873
  613MOL0     O80787   2.744   7.870   8.918 -0.3273 -0.8666 -0.7388
  613MOL0     C80788   2.716   8.001   8.867 -0.3564  0.5974 -0.2175
  613MOL0     C80789   2.654   8.091   8.955 -0.5203 -0.8334 -0.1651
  613MOL0     C80790   2.611   8.211   8.900 -0.4796 -1.2778 -0.1886
  613MOL0     C80791   2.634   8.245   8.764  0.3967  0.3686  0.1233
  613MOL0     O80792   2.593   8.364   8.698 -0.1476 -0.2385 -0.1181
  613MOL0     C80793   2.475   8.428   8.749 -0.3487 -0.3989 -0.1755
  613MOL0     C80794   2.451   8.565   8.676 -0.1569 -1.3025 -0.4843
  613MOL0     C80795   2.580   8.647   8.671  0.8282  0.2948 -0.1116
  613MOL0     C80796   2.528   8.784   8.621 -1.4710  0.2607  1.6403
  613MOL0     C80797   2.653   8.869   8.605  0.4542  0.2272  0.9754
  613MOL0     C80798   2.725   8.836   8.470  1.4821  0.1067  0.5620
  613MOL0     C80799   2.851   8.927   8.440 -0.2018 -0.3772  0.4691
  613MOL0     C80800   2.929   8.877   8.325 -0.0014  0.2599 -0.3078
  613MOL0     N80801   3.024   8.773   8.363 -0.3512  0.1239 -0.5480
  613MOL0     C80802   3.023   8.631   8.356 -1.2454  0.0454 -0.2683
  613MOL0     C80803   3.156   8.600   8.366 -0.1841  0.2582  0.0659
  613MOL0     C80804   3.196   8.452   8.374  1.2264 -0.5377  0.1503
  613MOL0     C80805   3.152   8.395   8.511 -0.7399 -0.9923  0.5671
  613MOL0     C80806   3.177   8.243   8.531  0.0148  0.0060 -0.2078
  613MOL0     C80807   3.332   8.203   8.523 -0.1053 -0.1053  0.5334
  613MOL0     O80808   3.343   8.065   8.571  0.7180 -0.1991 -0.1585
  613MOL0     C80809   3.358   8.040   8.703 -0.6875 -0.2823  0.3252
  613MOL0     C80810   3.401   8.135   8.800  0.3173  0.8673 -0.1843
  613MOL0     C80811   3.441   8.095   8.936 -0.0165  0.8321  0.7439
  613MOL0     C80812   3.424   7.954   8.972  0.0124 -0.1149  0.5494
  613MOL0     C80813   3.477   7.900   9.099  0.4036  0.3120  0.0741
  613MOL0     O80814   3.480   7.765   9.114 -0.5809  0.5551  0.0042
  613MOL0     C80815   3.547   7.702   9.219  0.8913  0.1464  0.2949
  613MOL0     C80816   3.486   7.574   9.246 -1.1180  0.4502  0.0303
  613MOL0     C80817   3.546   7.499   9.347 -0.3336  0.0705  0.0804
  613MOL0     C80818   3.659   7.545   9.419 -0.2955  0.0825 -0.2982
  613MOL0     O80819   3.717   7.472   9.523  0.6762  1.4821  0.4891
  613MOL0     C80820   3.780   7.348   9.479  0.1409 -0.2528  0.6311
  613MOL0     C80821   3.900   7.317   9.569 -0.8640  0.1350  0.7122
  613MOL0     C80822   3.971   7.191   9.518  0.5827 -0.3943 -0.2065
  613MOL0     C80823   4.086   7.152   9.613  0.4542 -0.8419 -0.4902
  613MOL0     C80824   4.183   7.052   9.552  0.0551 -0.0295  0.1635
  613MOL0     C80825   4.125   6.909   9.542 -0.0269  0.3195  0.0118
  613MOL0     C80826   4.228   6.823   9.461 -0.4299  0.3756 -0.3225
  613MOL0     C80827   4.298   6.731   9.562 -1.1976  0.0692  0.2419
  613MOL0    Cl80828   4.372   6.808   9.708 -0.1029  0.2969 -0.1249
  613MOL0     C80829   3.713   7.672   9.397  0.0443  0.4042 -0.2674
  613MOL0     C80830   3.661   7.747   9.297  0.1649  0.3915  0.2902
  613MOL0     O80831   3.532   7.981   9.172 -0.1970 -0.6966  0.8928
  613MOL0     C80832   3.386   7.861   8.871 -0.4759 -0.0457  0.6125
  613MOL0     C80833   3.359   7.901   8.730  0.3420  1.0456  0.4968
  613MOL0     N80834   3.228   8.721   8.368  0.6080 -0.4773  0.9366
  613MOL0     N80835   3.147   8.818   8.361 -0.2793  0.2159  0.2992
  613MOL0     C80836   2.700   8.157   8.683 -0.1827 -0.5648  0.5062
  613MOL0     C80837   2.736   8.031   8.732  0.1216  0.4714 -0.0607
  613MOL0     C80838   2.646   7.651   8.955  0.8218 -0.7412 -0.5699
  613MOL0     C80839   2.746   7.582   8.894  0.0024  0.1133  0.3437
  613MOL0     C80840   2.759   7.440   8.897  0.3559  0.1728 -0.0247
  613MOL0     C80841   2.659   7.363   8.963 -0.0269  0.8281  0.4763
  613MOL0     O80842   2.659   7.228   8.980  1.0389  0.4685 -0.3143
  613MOL0     C80843   2.777   7.151   8.961 -0.0991 -0.2998 -0.0699
  613MOL0     C80844   2.764   7.010   9.008 -0.0163 -1.3152 -0.0169
  613MOL0     C80845   2.733   7.026   9.161 -1.1572  1.2213 -0.3522
  613MOL0     C80846   2.734   6.884   9.228  0.0609  0.4481 -0.0795
  613MOL0     C80847   2.872   6.850   9.255 -0.2486 -0.1073 -0.3097
  613MOL0     C80848   2.981   6.819   9.288 -0.2643  1.0951 -0.0388
  613MOL0     C80849   2.555   7.435   9.024  0.5303  0.0930  0.8971
  613MOL0     C80850   2.544   7.571   9.014 -0.9355 -0.0742  0.8056
  613MOL0     H80851   2.631   8.071   9.059  2.2620 -2.3731  0.2566
  613MOL0     H80852   2.566   8.273   8.976  1.4840 -0.0510  0.0147
  613MOL0     H80853   2.476   8.442   8.858  2.3305  1.9997 -0.3956
  613MOL0     H80854   2.392   8.358   8.735  0.4852 -2.2870  3.2786
  613MOL0     H80855   2.362   8.612   8.718  0.3235 -0.7214 -0.0998
  613MOL0     H80856   2.425   8.526   8.577 -2.8468  2.5594 -1.5273
  613MOL0     H80857   2.665   8.609   8.614  0.5238  1.3719 -1.3124
  613MOL0     H80858   2.608   8.670   8.775 -2.0110 -0.5040  0.9280
  613MOL0     H80859   2.480   8.770   8.523 -0.3099  0.4621  1.0254
  613MOL0     H80860   2.463   8.832   8.695  1.5567  3.7570  2.3218
  613MOL0     H80861   2.714   8.842   8.691 -1.1604 -0.6673  1.9025
  613MOL0     H80862   2.628   8.975   8.616 -1.1034  0.0342 -0.2725
  613MOL0     H80863   2.653   8.877   8.398  0.2955  1.4067  2.4044
  613MOL0     H80864   2.745   8.730   8.457 -2.6955 -0.6947 -0.7896
  613MOL0     H80865   2.827   9.030   8.411  3.2433  0.0739 -1.3871
  613MOL0     H80866   2.912   8.911   8.530  0.8019  1.0440  0.0815
  613MOL0     H80867   2.977   8.959   8.271 -2.0272  0.4611 -1.9010
  613MOL0     H80868   2.863   8.832   8.251 -0.2681 -3.5312  1.9872
  613MOL0     H80869   2.944   8.558   8.368  0.1164 -1.6056 -0.8525
  613MOL0     H80870   3.304   8.450   8.358  1.1088 -0.9661 -0.5907
  613MOL0     H80871   3.153   8.394   8.292  0.4962 -1.4568  1.1623
  613MOL0     H80872   3.049   8.425   8.529  0.0927  0.9186  2.6185
  613MOL0     H80873   3.210   8.456   8.581  0.1718 -0.9754 -0.1754
  613MOL0     H80874   3.140   8.209   8.628  3.1598 -2.5047  0.3002
  613MOL0     H80875   3.129   8.196   8.444  3.2260  1.6542 -3.1063
  613MOL0     H80876   3.403   8.275   8.564  1.8281 -1.9060  0.5020
  613MOL0     H80877   3.351   8.187   8.416 -1.0303  2.8174 -0.1641
  613MOL0     H80878   3.405   8.241   8.777  1.7009  0.7091 -0.7456
  613MOL0     H80879   3.460   8.175   9.006 -0.2662  2.4093 -0.9118
  613MOL0     H80880   3.398   7.537   9.194 -0.4211  1.0088 -1.6095
  613MOL0     H80881   3.515   7.397   9.364 -0.2256 -0.4153 -2.3305
  613MOL0     H80882   3.822   7.372   9.380 -3.4922  1.9911 -0.5387
  613MOL0     H80883   3.719   7.259   9.463  0.5478 -0.7831  1.8994
  613MOL0     H80884   3.858   7.295   9.667 -0.1442 -1.0499  0.7747
  613MOL0     H80885   3.975   7.397   9.573  1.8964 -2.3130  2.4871
  613MOL0     H80886   4.019   7.209   9.422 -1.4272 -0.6988 -1.3326
  613MOL0     H80887   3.898   7.111   9.500 -0.3508  0.5831 -0.8970
  613MOL0     H80888   4.148   7.238   9.642  0.2352 -0.2681 -1.6598
  613MOL0     H80889   4.045   7.106   9.703 -2.1089  0.5701 -0.8299
  613MOL0     H80890   4.263   7.054   9.626 -0.1234 -1.9353  0.4702
  613MOL0     H80891   4.211   7.087   9.452 -2.7801  1.3055 -0.2792
  613MOL0     H80892   4.040   6.907   9.473  2.0092  2.4344 -2.7725
  613MOL0     H80893   4.087   6.859   9.632  0.6654  0.2769  0.2846
  613MOL0     H80894   4.197   6.768   9.372  2.7694 -1.2068 -0.6051
  613MOL0     H80895   4.311   6.887   9.431  1.0043 -1.0686  0.4324
  613MOL0     H80896   4.376   6.675   9.509  0.5596  0.2875  2.4233
  613MOL0     H80897   4.225   6.670   9.616 -1.7817  2.8995  2.9452
  613MOL0     H80898   3.802   7.706   9.449  1.7797  1.8209 -3.7989
  613MOL0     H80899   3.712   7.842   9.282 -1.4749  1.7159  2.3820
  613MOL0     H80900   3.389   7.756   8.896  2.3937  0.1556  1.4346
  613MOL0     H80901   3.325   7.822   8.664 -0.2374  1.8018 -0.1339
  613MOL0     H80902   2.720   8.183   8.579  0.5902 -2.8418  0.0175
  613MOL0     H80903   2.777   7.948   8.674  1.8065 -1.0296  3.0193
  613MOL0     H80904   2.819   7.648   8.846 -0.3407  1.1132  1.1554
  613MOL0     H80905   2.848   7.391   8.857 -0.3879 -0.6175 -0.7585
  613MOL0     H80906   2.859   7.205   9.008  1.6900 -0.2510 -3.0015
  613MOL0     H80907   2.809   7.161   8.857  2.0456  2.6497  0.7695
  613MOL0     H80908   2.687   6.959   8.950  0.0647 -1.3254 -0.1146
  613MOL0     H80909   2.857   6.952   8.999 -0.9041 -2.5934 -1.4479
  613MOL0     H80910   2.635   7.073   9.176 -1.8054 -0.3416  0.5736
  613MOL0     H80911   2.810   7.087   9.208  0.2980 -3.3888  4.0765
  613MOL0     H80912   2.679   6.887   9.322  3.3584 -0.5692  2.0380
  613MOL0     H80913   2.694   6.813   9.155  2.4528  1.1064 -2.2067
  613MOL0     H80914   3.078   6.794   9.325 -1.2928 -1.3335  1.2401
  613MOL0     H80915   2.484   7.378   9.082 -1.6023  0.8355 -0.8518
  613MOL0     H80916   2.454   7.613   9.057 -0.6399 -2.0517  3.5938
  614MOL0     O80917   1.547   9.402   6.027 -0.5384  0.3498 -0.2114
  614MOL0     C80918   1.663   9.359   6.001  0.8515 -0.2243 -0.2100
  614MOL0     O80919   1.690   9.227   5.974  0.4117  0.0352 -0.4559
  614MOL0     C80920   1.586   9.136   5.987 -0.0991 -0.0844  0.6736
  614MOL0     C80921   1.576   9.034   5.886 -0.3483 -0.3039  0.4578
  614MOL0     C80922   1.486   8.929   5.891  0.2081 -0.2558 -1.4895
  614MOL0     C80923   1.429   8.906   6.017 -0.0086  0.2155  0.2842
  614MOL0     O80924   1.362   8.793   6.055 -0.8126  0.1241 -1.0954
  614MOL0     C80925   1.395   8.668   5.982  0.3918  0.0505 -0.6797
  614MOL0     C80926   1.317   8.553   6.054 -0.2633 -0.2702  0.7163
  614MOL0     C80927   1.184   8.517   5.979  0.0855  0.0973  0.8857
  614MOL0     C80928   1.099   8.416   6.069  0.0263  0.0941 -0.7941
  614MOL0     C80929   0.961   8.392   6.020 -0.3060  0.2380  0.4785
  614MOL0     C80930   0.890   8.302   6.114 -0.6388 -0.3448 -0.5844
  614MOL0     C80931   0.766   8.236   6.052 -0.0127  0.1463  0.8494
  614MOL0     C80932   0.645   8.220   6.154 -0.2647  0.1365 -0.0751
  614MOL0     N80933   0.681   8.158   6.281  0.1586  0.1818  0.7443
  614MOL0     C80934   0.689   8.022   6.291  0.0903 -0.4730 -0.3436
  614MOL0     C80935   0.749   8.008   6.411  0.1227  0.6239  0.6845
  614MOL0     C80936   0.772   7.874   6.471 -0.4233 -1.3803  0.0633
  614MOL0     C80937   0.662   7.854   6.576 -1.0038 -0.2999 -0.0366
  614MOL0     C80938   0.668   7.706   6.613  0.1167  0.0078 -0.0919
  614MOL0     C80939   0.565   7.661   6.720  0.3017 -0.5095 -0.1619
  614MOL0     O80940   0.518   7.532   6.713 -0.0674  0.6826 -0.2488
  614MOL0     C80941   0.423   7.493   6.624 -0.5241 -0.4188 -0.1660
  614MOL0     C80942   0.360   7.375   6.650 -0.0097  0.1000 -0.2541
  614MOL0     C80943   0.267   7.320   6.560  1.2360  0.2313  0.2570
  614MOL0     C80944   0.223   7.399   6.451 -0.2769  1.5121 -0.5264
  614MOL0     C80945   0.128   7.361   6.359  0.4020  0.6716 -0.1942
  614MOL0     O80946   0.071   7.449   6.281  0.4791  0.6917  0.2890
  614MOL0     C80947   0.000   7.396   6.174 -0.0964  0.1443 -0.0282
  614MOL0     C80948   0.058   7.341   6.061  0.1461 -0.1017 -0.6614
  614MOL0     C80949  -0.028   7.285   5.954 -0.1898 -0.2760  0.4330
  614MOL0     C80950  -0.164   7.303   5.952  0.3360  0.7215 -0.5932
  614MOL0     O80951  -0.245   7.251   5.848  0.4958 -0.3117  0.7665
  614MOL0     C80952  -0.305   7.359   5.772 -0.2084  0.0301  0.4554
  614MOL0     C80953  -0.366   7.312   5.645  0.1817 -0.4373 -0.4838
  614MOL0     C80954  -0.410   7.434   5.566 -0.1832  0.8691 -0.0929
  614MOL0     C80955  -0.511   7.380   5.465 -0.5418 -0.0426  0.3919
  614MOL0     C80956  -0.534   7.488   5.352 -0.3069  0.6873 -0.7487
  614MOL0     C80957  -0.572   7.628   5.392 -0.4731 -0.2867 -0.2714
  614MOL0     C80958  -0.593   7.729   5.280 -0.8764 -0.4158 -0.2248
  614MOL0     C80959  -0.676   7.852   5.313  1.3688  0.2437  0.7860
  614MOL0    Cl80960  -0.851   7.811   5.315  0.5560  0.1166  0.7698
  614MOL0     C80961  -0.220   7.373   6.062 -0.4545 -0.0778  0.0629
  614MOL0     C80962  -0.137   7.411   6.168  0.1457 -0.0139  0.5577
  614MOL0     O80963   0.091   7.244   6.375  0.4284 -0.0926 -0.3391
  614MOL0     C80964   0.288   7.525   6.433  0.1538  0.4313  0.3023
  614MOL0     C80965   0.384   7.571   6.516 -0.2039  0.2361  0.2179
  614MOL0     N80966   0.784   8.129   6.463  0.7767 -1.0565 -0.6542
  614MOL0     N80967   0.740   8.214   6.380 -1.0129 -0.4863 -0.5436
  614MOL0     C80968   1.436   9.004   6.121  0.1917 -0.3765  0.0966
  614MOL0     C80969   1.511   9.121   6.093  0.2344  0.5232 -0.6234
  614MOL0     C80970   1.781   9.447   5.983  0.6275 -0.3831 -0.0023
  614MOL0     C80971   1.746   9.582   5.959 -0.5166  0.4379  0.4983
  614MOL0     C80972   1.849   9.664   5.918 -0.5923 -0.6677 -0.3412
  614MOL0     C80973   1.984   9.621   5.918 -0.5041 -0.5774 -0.8515
  614MOL0     O80974   2.065   9.723   5.882 -0.0401 -0.1592  0.0522
  614MOL0     C80975   2.205   9.701   5.855  0.3390  0.2560  0.1320
  614MOL0     C80976   2.215   9.654   5.706  0.1718  0.8233 -0.2112
  614MOL0     C80977   2.178   9.770   5.610 -0.4042 -0.2176 -0.2624
  614MOL0     C80978   2.249   9.775   5.478 -0.4091  0.7734  0.0566
  614MOL0     C80979   2.239   9.646   5.404 -0.4755  0.6320 -0.9551
  614MOL0     C80980   2.220   9.551   5.335  0.3236 -0.6810 -0.4083
  614MOL0     C80981   2.010   9.492   5.934 -0.5978  0.0401 -0.0479
  614MOL0     C80982   1.906   9.402   5.965  0.2056 -0.5597 -0.5031
  614MOL0     H80983   1.623   9.055   5.790 -1.7843  1.5424  0.0938
  614MOL0     H80984   1.492   8.859   5.808  1.1018 -1.7966 -0.1865
  614MOL0     H80985   1.502   8.649   5.990  0.4949  1.0120  0.4759
  614MOL0     H80986   1.378   8.675   5.875  2.6156 -0.7701 -1.1364
  614MOL0     H80987   1.293   8.575   6.159 -1.8116 -4.7876  1.5346
  614MOL0     H80988   1.381   8.464   6.055  1.2355  0.6216  4.2782
  614MOL0     H80989   1.208   8.472   5.882  1.3796  0.1915  1.1483
  614MOL0     H80990   1.135   8.613   5.957 -1.7667 -1.0563 -0.3764
  614MOL0     H80991   1.156   8.322   6.070  0.3198  0.2573 -1.5718
  614MOL0     H80992   1.094   8.451   6.172  0.5541 -0.0470 -0.7153
  614MOL0     H80993   0.961   8.354   5.918  3.9650  1.6509 -0.2295
  614MOL0     H80994   0.917   8.492   6.014  1.6088  1.0423 -3.1737
  614MOL0     H80995   0.858   8.362   6.200 -2.2715 -3.4322  1.1255
  614MOL0     H80996   0.951   8.216   6.143 -0.6936  0.1309  1.0382
  614MOL0     H80997   0.712   8.293   5.976  0.2543 -1.2127 -0.4065
  614MOL0     H80998   0.785   8.143   5.998  1.2035  1.4397 -1.0665
  614MOL0     H80999   0.563   8.166   6.105 -0.1571  0.3539 -0.4970
  614MOL0     H81000   0.616   8.322   6.178 -2.0608 -0.7717  1.9246
  614MOL0     H81001   0.654   7.937   6.233  1.3053 -2.9400  2.2444
  614MOL0     H81002   0.874   7.879   6.510 -0.1821  0.5617 -0.7242
  614MOL0     H81003   0.768   7.795   6.395 -0.7204 -1.0367 -0.2799
  614MOL0     H81004   0.569   7.879   6.525 -0.0357  4.8534  0.1970
  614MOL0     H81005   0.685   7.913   6.665  1.1692 -2.3149  0.8523
  614MOL0     H81006   0.652   7.650   6.520  0.5398 -0.1575 -0.0656
  614MOL0     H81007   0.764   7.681   6.658 -1.6085 -1.2648  3.1773
  614MOL0     H81008   0.474   7.721   6.721 -0.1144 -1.0506 -1.8829
  614MOL0     H81009   0.615   7.664   6.817 -2.3138  2.7104  1.2617
  614MOL0     H81010   0.374   7.313   6.737 -1.6079  2.4292  1.8244
  614MOL0     H81011   0.218   7.229   6.591  1.3582  0.4436  1.1144
  614MOL0     H81012   0.166   7.328   6.050 -0.0408 -2.5123 -0.2927
  614MOL0     H81013   0.015   7.234   5.868  3.7781  0.4479  1.7505
  614MOL0     H81014  -0.223   7.418   5.730 -0.1416 -0.6254 -0.3474
  614MOL0     H81015  -0.378   7.420   5.826 -1.4239  1.1832 -2.2981
  614MOL0     H81016  -0.457   7.261   5.679  1.4017 -0.5103  3.1013
  614MOL0     H81017  -0.299   7.244   5.593  3.0746  1.1680  0.9164
  614MOL0     H81018  -0.318   7.452   5.510  0.2361 -3.0756 -0.9606
  614MOL0     H81019  -0.450   7.520   5.620  1.6101  2.6243 -1.3919
  614MOL0     H81020  -0.495   7.283   5.419 -4.4699 -1.2681  1.1642
  614MOL0     H81021  -0.610   7.373   5.511 -0.6502  0.3001  0.2181
  614MOL0     H81022  -0.604   7.452   5.276  1.7996  0.2212 -2.6060
  614MOL0     H81023  -0.441   7.478   5.294  0.8222  1.2440  0.8778
  614MOL0     H81024  -0.498   7.673   5.459  1.4321 -2.9061 -0.4597
  614MOL0     H81025  -0.663   7.613   5.450  0.7468 -0.9371  1.5499
  614MOL0     H81026  -0.494   7.761   5.249 -0.2732 -1.9899  0.0012
  614MOL0     H81027  -0.642   7.672   5.200 -1.7763 -2.4486  1.6699
  614MOL0     H81028  -0.661   7.923   5.231  1.2444 -0.7984 -0.1671
  614MOL0     H81029  -0.643   7.894   5.409  0.5784  3.6322 -0.2880
  614MOL0     H81030  -0.328   7.380   6.078 -0.8355 -3.4087 -0.4467
  614MOL0     H81031  -0.190   7.451   6.254 -1.2076 -0.3355 -0.1040
  614MOL0     H81032   0.278   7.580   6.340  0.8088 -0.5225 -0.3483
  614MOL0     H81033   0.414   7.673   6.493  0.9068  0.8203  3.6949
  614MOL0     H81034   1.385   8.987   6.215  1.2935 -2.4364  0.3829
  614MOL0     H81035   1.518   9.194   6.174  1.5100 -1.1616  0.8556
  614MOL0     H81036   1.647   9.623   5.975 -1.5883 -1.9762  0.5654
  614MOL0     H81037   1.831   9.770   5.903 -0.7636 -0.5434  0.6508
  614MOL0     H81038   2.255   9.639   5.929 -0.4678  2.4530  2.6983
  614MOL0     H81039   2.265   9.793   5.851  1.5407 -0.4863  0.6049
  614MOL0     H81040   2.318   9.623   5.684 -0.9280 -3.3450 -0.4051
  614MOL0     H81041   2.146   9.573   5.680  2.2004  0.4513 -5.9532
  614MOL0     H81042   2.191   9.868   5.656  0.0693 -0.9165  1.1258
  614MOL0     H81043   2.073   9.758   5.582 -1.0521 -0.0931  1.9363
  614MOL0     H81044   2.202   9.850   5.413  0.6707  1.1239 -0.3365
  614MOL0     H81045   2.355   9.799   5.492 -0.2149  1.3130 -2.0282
  614MOL0     H81046   2.206   9.460   5.279 -1.1199 -1.6372  1.4005
  614MOL0     H81047   2.113   9.461   5.923 -0.6802  0.5718 -2.9262
  614MOL0     H81048   1.922   9.295   5.963  1.8218 -0.3449 -0.6378
  615MOL0     O81049   2.717   4.436   0.572  0.0306 -0.2322  1.0363
  615MOL0     C81050   2.677   4.320   0.557 -0.1604  0.8445 -0.3707
  615MOL0     O81051   2.758   4.210   0.540  0.0243 -0.0128 -0.1094
  615MOL0     C81052   2.898   4.212   0.532 -0.3410 -0.3721 -0.3038
  615MOL0     C81053   2.952   4.087   0.562  0.6998 -0.4250 -0.4847
  615MOL0     C81054   3.093   4.070   0.550  0.0918  0.4760 -0.2750
  615MOL0     C81055   3.181   4.169   0.508  0.1847 -0.0569 -0.2836
  615MOL0     O81056   3.319   4.164   0.495 -0.2912 -0.1457 -1.0317
  615MOL0     C81057   3.357   4.167   0.361  1.1871 -0.7065 -0.2901
  615MOL0     C81058   3.516   4.166   0.342 -0.1730 -0.2404 -0.7992
  615MOL0     C81059   3.568   4.180   0.204 -0.2958 -0.0958 -0.2144
  615MOL0     C81060   3.728   4.159   0.211  0.3585 -0.7617 -0.1619
  615MOL0     C81061   3.798   4.163   0.066  0.0043 -0.1835 -0.0800
  615MOL0     C81062   3.751   4.048  -0.020  0.4449  0.0349 -1.2989
  615MOL0     C81063   3.788   3.912   0.032 -0.1148 -0.0479  0.0326
  615MOL0     C81064   3.922   3.873  -0.006  0.2390  0.8906 -0.6406
  615MOL0     N81065   3.912   3.807  -0.141 -0.4855 -0.7092 -0.0409
  615MOL0     C81066   3.948   3.868  -0.261  0.8509  0.7921 -0.6497
  615MOL0     C81067   3.924   3.771  -0.362  0.1335 -0.7498 -0.1739
  615MOL0     C81068   3.940   3.781  -0.512  0.5060  0.1717 -0.0326
  615MOL0     C81069   4.083   3.757  -0.565  0.2017  0.8510 -0.1133
  615MOL0     C81070   4.192   3.851  -0.507 -0.7854  0.2047  1.1129
  615MOL0     C81071   4.326   3.859  -0.586 -0.1090  0.4022  1.1972
  615MOL0     O81072   4.318   3.868  -0.727 -0.4379 -0.0372  0.7062
  615MOL0     C81073   4.427   3.855  -0.812  0.3902 -0.5827 -0.4754
  615MOL0     C81074   4.551   3.830  -0.765 -0.2646  0.3201 -0.0316
  615MOL0     C81075   4.656   3.801  -0.857  0.6522  0.0125 -0.5041
  615MOL0     C81076   4.627   3.793  -0.996 -0.2801  0.1709 -0.9558
  615MOL0     C81077   4.736   3.753  -1.089 -1.4947 -0.8326 -0.0069
  615MOL0     O81078   4.869   3.743  -1.041  0.1749 -0.6084  0.8805
  615MOL0     C81079   4.958   3.723  -1.141 -0.7262  0.5039  0.0782
  615MOL0     C81080   5.002   3.822  -1.230  0.0246 -0.4410 -0.0990
  615MOL0     C81081   5.099   3.800  -1.324 -0.7756  0.6405  0.9758
  615MOL0     C81082   5.172   3.684  -1.333  0.8598  0.6081 -0.3850
  615MOL0     O81083   5.275   3.666  -1.419 -0.0408  0.1311 -0.3177
  615MOL0     C81084   5.381   3.572  -1.394 -0.4232  0.6206 -0.1220
  615MOL0     C81085   5.490   3.560  -1.510  0.4556 -0.5390  0.1337
  615MOL0     C81086   5.552   3.688  -1.549 -0.5322  0.1365 -0.1969
  615MOL0     C81087   5.658   3.674  -1.653  0.1380 -0.0448  0.8915
  615MOL0     C81088   5.735   3.813  -1.679 -0.1759  0.7829  0.9806
  615MOL0     C81089   5.647   3.943  -1.698 -0.4196  0.6756  0.2629
  615MOL0     C81090   5.726   4.070  -1.731 -0.8981  0.0985  0.2233
  615MOL0     C81091   5.676   4.181  -1.636 -0.1071 -0.5833  0.0415
  615MOL0    Cl81092   5.500   4.204  -1.661  0.2201 -0.2502 -0.0074
  615MOL0     C81093   5.127   3.581  -1.240 -0.8754  0.8830 -0.3164
  615MOL0     C81094   5.029   3.604  -1.147  0.4796 -0.1014  0.2706
  615MOL0     O81095   4.702   3.725  -1.199  0.0564 -0.1279  0.2465
  615MOL0     C81096   4.497   3.825  -1.042 -0.5291  0.1922  0.6544
  615MOL0     C81097   4.397   3.842  -0.950  0.1639  0.8390  0.5091
  615MOL0     N81098   3.866   3.664  -0.302 -0.0997 -0.0075 -0.7426
  615MOL0     N81099   3.862   3.684  -0.174  0.3429  0.4616  0.5960
  615MOL0     C81100   3.120   4.292   0.489 -0.7323 -0.6724  0.0711
  615MOL0     C81101   2.985   4.318   0.490  0.0762  0.3725  0.1551
  615MOL0     C81102   2.540   4.295   0.596  0.3347 -1.3304 -0.5169
  615MOL0     C81103   2.485   4.172   0.582 -0.5855 -0.1627 -0.0034
  615MOL0     C81104   2.355   4.149   0.617  0.1468  0.5080 -0.3558
  615MOL0     C81105   2.272   4.251   0.671  0.5239  0.6548  0.1593
  615MOL0     O81106   2.139   4.225   0.722 -0.3988  0.4644 -0.1709
  615MOL0     C81107   2.042   4.247   0.623  0.0432  0.9979  0.1427
  615MOL0     C81108   2.022   4.394   0.585  0.7690 -0.0187  0.6691
  615MOL0     C81109   1.936   4.413   0.463  0.7014 -0.2397  0.5942
  615MOL0     C81110   1.779   4.407   0.487  0.0191  1.0592  0.5533
  615MOL0     C81111   1.732   4.537   0.531 -0.9236 -0.3460  0.5198
  615MOL0     C81112   1.718   4.645   0.588 -0.0302 -0.4086  0.2101
  615MOL0     C81113   2.321   4.374   0.701  0.2221  0.4964  0.6846
  615MOL0     C81114   2.465   4.396   0.659 -0.6935  0.1149  0.8756
  615MOL0     H81115   2.892   4.007   0.604  2.5621 -0.2953  2.7096
  615MOL0     H81116   3.143   3.977   0.575  2.2719  1.7300  0.3708
  615MOL0     H81117   3.303   4.253   0.322 -0.1923 -1.8077 -0.8716
  615MOL0     H81118   3.311   4.084   0.308 -0.2106 -0.0364 -0.1504
  615MOL0     H81119   3.557   4.068   0.367  0.7913  0.3694  0.1170
  615MOL0     H81120   3.557   4.242   0.410  0.5428 -2.8943  1.9484
  615MOL0     H81121   3.550   4.282   0.169  1.2544  1.1459  2.2830
  615MOL0     H81122   3.523   4.104   0.140  1.2390 -0.7796 -0.5319
  615MOL0     H81123   3.771   4.240   0.270  0.4021 -2.0333  1.6194
  615MOL0     H81124   3.754   4.065   0.261  2.0100  1.1837  2.9187
  615MOL0     H81125   3.907   4.151   0.076  0.1886 -2.0027 -3.0416
  615MOL0     H81126   3.776   4.256   0.014 -0.4973 -0.9268 -1.2427
  615MOL0     H81127   3.798   4.062  -0.117  1.3622 -2.9931 -1.3718
  615MOL0     H81128   3.644   4.070  -0.028 -0.1134 -1.1165  1.6341
  615MOL0     H81129   3.802   3.900   0.140  0.7002 -1.4201 -0.2041
  615MOL0     H81130   3.722   3.840  -0.016  0.0321  0.8895 -1.6372
  615MOL0     H81131   3.957   3.802   0.068  3.4216  1.6800 -1.2414
  615MOL0     H81132   3.991   3.958  -0.010  3.2675 -1.4228 -0.9123
  615MOL0     H81133   3.970   3.974  -0.262 -0.1645  1.0384  0.6719
  615MOL0     H81134   3.905   3.880  -0.543 -1.4358 -0.9026 -1.5231
  615MOL0     H81135   3.870   3.714  -0.564  1.3665  1.3382 -2.9312
  615MOL0     H81136   4.068   3.769  -0.673  0.0222 -1.5812 -0.4141
  615MOL0     H81137   4.108   3.651  -0.550 -1.2264  0.7325  1.7514
  615MOL0     H81138   4.157   3.955  -0.499  0.2814  0.5468  1.5288
  615MOL0     H81139   4.215   3.814  -0.407  0.9530  0.1318  0.7097
  615MOL0     H81140   4.379   3.768  -0.555 -0.8167 -0.5949 -0.3892
  615MOL0     H81141   4.394   3.941  -0.564  0.8704 -0.1690  0.3969
  615MOL0     H81142   4.580   3.822  -0.661 -0.2087  3.7711  0.3282
  615MOL0     H81143   4.749   3.782  -0.804 -0.0128 -1.3747  0.2308
  615MOL0     H81144   4.971   3.925  -1.211 -1.2602 -0.7782 -0.3079
  615MOL0     H81145   5.134   3.886  -1.380  1.9358 -1.6720 -1.2390
  615MOL0     H81146   5.335   3.475  -1.375  1.3431 -0.3551 -0.6769
  615MOL0     H81147   5.439   3.600  -1.305  0.4415 -3.9973  1.0101
  615MOL0     H81148   5.442   3.528  -1.603 -1.4463  1.2451  0.4035
  615MOL0     H81149   5.565   3.486  -1.484 -0.6621 -1.3003  1.3364
  615MOL0     H81150   5.593   3.734  -1.458 -0.9715 -0.2614  0.2131
  615MOL0     H81151   5.477   3.761  -1.581 -0.9454 -0.1940  0.0027
  615MOL0     H81152   5.736   3.605  -1.619  1.6319 -0.2940 -2.6164
  615MOL0     H81153   5.621   3.630  -1.746  4.1231 -1.6457 -0.1672
  615MOL0     H81154   5.788   3.797  -1.773 -1.2463 -0.8288  0.6140
  615MOL0     H81155   5.806   3.827  -1.597  0.5901 -0.7460  0.6209
  615MOL0     H81156   5.609   3.963  -1.598 -3.4880 -1.8001 -0.2468
  615MOL0     H81157   5.570   3.928  -1.775  1.4550  2.1368 -2.0488
  615MOL0     H81158   5.832   4.054  -1.710 -1.0017  0.0265  0.7101
  615MOL0     H81159   5.715   4.103  -1.834 -0.8074 -1.6562 -0.3715
  615MOL0     H81160   5.738   4.268  -1.659  2.2735 -2.4383 -1.1368
  615MOL0     H81161   5.688   4.155  -1.530 -3.2162 -1.3188  0.3031
  615MOL0     H81162   5.162   3.478  -1.241 -3.1234 -0.0118  1.9430
  615MOL0     H81163   5.005   3.535  -1.067 -1.1730  0.7395  0.5414
  615MOL0     H81164   4.496   3.819  -1.151  0.4469 -3.3330  0.7092
  615MOL0     H81165   4.302   3.862  -0.999  1.7025  1.2529 -2.5919
  615MOL0     H81166   3.177   4.381   0.464 -2.6611  1.0895  1.5308
  615MOL0     H81167   2.947   4.413   0.455 -1.4586 -1.0182 -2.2240
  615MOL0     H81168   2.549   4.090   0.549  1.6217  2.3832 -2.7596
  615MOL0     H81169   2.302   4.056   0.598  0.3542  0.4699 -0.7726
  615MOL0     H81170   1.945   4.215   0.662  0.5361 -0.3602  0.2838
  615MOL0     H81171   2.057   4.187   0.532  1.6168 -0.4704  1.3190
  615MOL0     H81172   1.980   4.445   0.672 -0.9501 -1.3454  0.6668
  615MOL0     H81173   2.117   4.434   0.550  0.5101 -0.0635 -0.1088
  615MOL0     H81174   1.965   4.336   0.391  1.7604 -1.7814  2.5407
  615MOL0     H81175   1.957   4.507   0.411 -2.3639 -0.4765 -1.2855
  615MOL0     H81176   1.728   4.385   0.393 -0.0825 -2.5659  1.3176
  615MOL0     H81177   1.752   4.326   0.554  3.3606  0.0533  0.8431
  615MOL0     H81178   1.687   4.729   0.646 -3.0870 -2.1071  1.3009
  615MOL0     H81179   2.251   4.444   0.746 -1.8684  0.5092 -2.3128
  615MOL0     H81180   2.517   4.487   0.685 -1.7561  1.8159 -2.3232
  616MOL0     O81181   2.110   0.318   1.478 -0.1223  0.3520 -0.3857
  616MOL0     C81182   2.010   0.278   1.533 -1.0264 -0.4158 -0.4689
  616MOL0     O81183   2.002   0.177   1.633 -0.6131 -0.3838 -0.2660
  616MOL0     C81184   2.123   0.139   1.680 -0.0541  0.8026  0.2005
  616MOL0     C81185   2.164   0.179   1.805  0.2999  1.0763 -0.2082
  616MOL0     C81186   2.282   0.138   1.854 -0.3482  0.0910  0.0792
  616MOL0     C81187   2.372   0.059   1.786  0.4550  0.4033  1.4908
  616MOL0     O81188   2.490   0.026   1.844 -0.9642 -0.2200 -0.1146
  616MOL0     C81189   2.596  -0.036   1.776  0.6342 -0.1880  1.0735
  616MOL0     C81190   2.695  -0.080   1.873 -0.3063 -0.2317  0.1117
  616MOL0     C81191   2.824  -0.124   1.795  0.1260 -0.0901 -0.5831
  616MOL0     C81192   2.943  -0.130   1.893 -0.7457 -0.1831  1.2104
  616MOL0     C81193   2.947  -0.246   1.996  1.1119 -0.5194  0.0178
  616MOL0     C81194   2.950  -0.379   1.923  0.0570  0.1692 -0.4437
  616MOL0     C81195   2.939  -0.500   2.025  0.1007  0.0317  0.5165
  616MOL0     C81196   2.898  -0.631   1.938 -0.3471 -0.6420 -0.6492
  616MOL0     N81197   2.829  -0.730   2.027  0.2875 -0.1584 -0.1214
  616MOL0     C81198   2.712  -0.705   2.086 -0.0213  0.2350 -0.1466
  616MOL0     C81199   2.692  -0.786   2.180 -0.4504  0.3362  0.8652
  616MOL0     C81200   2.575  -0.781   2.281 -0.6557 -0.6792 -0.0485
  616MOL0     C81201   2.452  -0.861   2.227 -0.8870  0.0873 -0.5917
  616MOL0     C81202   2.343  -0.871   2.328  0.3690 -0.0450  0.1976
  616MOL0     C81203   2.375  -0.981   2.429  0.1657  0.3212 -0.7778
  616MOL0     O81204   2.289  -0.974   2.549 -0.3314 -0.1835 -0.1535
  616MOL0     C81205   2.328  -0.905   2.662  1.3132  0.3364  0.1560
  616MOL0     C81206   2.447  -0.848   2.685 -0.1685  0.3971 -0.9481
  616MOL0     C81207   2.479  -0.776   2.799  0.6870 -0.7874  0.1117
  616MOL0     C81208   2.389  -0.772   2.905  0.5636  0.8449  0.2756
  616MOL0     C81209   2.437  -0.707   3.034  0.0340  0.3496 -0.1672
  616MOL0     O81210   2.570  -0.668   3.044 -0.2488 -0.0990  0.6148
  616MOL0     C81211   2.619  -0.656   3.170  0.0662 -0.2937 -0.0877
  616MOL0     C81212   2.696  -0.749   3.233 -0.3983 -0.2849  0.2625
  616MOL0     C81213   2.733  -0.738   3.362  0.3654  0.2551 -0.0849
  616MOL0     C81214   2.693  -0.623   3.434 -0.8822  0.1639 -0.1705
  616MOL0     O81215   2.742  -0.582   3.556 -0.7971  0.3397 -0.0288
  616MOL0     C81216   2.855  -0.652   3.614  0.2727  0.0398  0.3379
  616MOL0     C81217   2.934  -0.561   3.709  0.4325 -0.3894 -0.8134
  616MOL0     C81218   3.024  -0.461   3.639  0.6737 -0.0035  0.1943
  616MOL0     C81219   3.123  -0.384   3.728  0.4501  0.8312  0.5419
  616MOL0     C81220   3.199  -0.277   3.659  1.0989 -0.1334  0.0809
  616MOL0     C81221   3.272  -0.178   3.758  0.9842  0.0995 -0.7233
  616MOL0     C81222   3.349  -0.065   3.686  0.5823 -0.3791 -0.1992
  616MOL0     C81223   3.398   0.039   3.788 -0.0358 -0.0909 -1.9698
  616MOL0    Cl81224   3.465   0.155   3.678  0.2215 -0.3189  0.3135
  616MOL0     C81225   2.628  -0.519   3.366  0.0623 -0.0030 -0.9584
  616MOL0     C81226   2.582  -0.539   3.235  0.0120  1.1254  0.2571
  616MOL0     O81227   2.352  -0.710   3.132  0.4445 -1.0702  0.4487
  616MOL0     C81228   2.264  -0.835   2.884 -0.6078  0.3439  0.3777
  616MOL0     C81229   2.227  -0.900   2.761 -1.1931 -0.3358 -0.1107
  616MOL0     N81230   2.781  -0.892   2.169  0.5720  0.1494 -0.4162
  616MOL0     N81231   2.863  -0.857   2.072 -0.3238 -0.9922  0.1522
  616MOL0     C81232   2.336   0.020   1.653  0.0629 -0.0595  0.7582
  616MOL0     C81233   2.207   0.045   1.605  0.5987 -0.1984 -0.1012
  616MOL0     C81234   1.883   0.321   1.480  0.8742  0.0539 -0.1770
  616MOL0     C81235   1.761   0.289   1.546  0.3195 -0.3133 -0.4550
  616MOL0     C81236   1.640   0.328   1.505 -0.7855  0.4200  0.0543
  616MOL0     C81237   1.631   0.396   1.381  0.6086 -0.5449 -0.4352
  616MOL0     O81238   1.515   0.431   1.321 -0.5221 -1.0953 -0.0958
  616MOL0     C81239   1.399   0.366   1.355 -0.4026  0.0898 -0.0942
  616MOL0     C81240   1.319   0.312   1.241 -0.4662 -0.3194  0.3115
  616MOL0     C81241   1.177   0.290   1.288 -0.1086 -0.2077  0.5260
  616MOL0     C81242   1.088   0.231   1.169  0.1953  0.3199 -1.0841
  616MOL0     C81243   1.051   0.337   1.079 -0.0873 -0.5209  0.5894
  616MOL0     C81244   1.034   0.433   1.014 -0.0091 -1.2512 -0.4079
  616MOL0     C81245   1.752   0.437   1.317 -1.0574 -0.5909  0.4273
  616MOL0     C81246   1.881   0.400   1.363  1.1603 -0.2039  0.1709
  616MOL0     H81247   2.097   0.235   1.870 -0.5920 -0.0829 -0.1038
  616MOL0     H81248   2.303   0.179   1.952 -0.5775  1.9173 -0.5877
  616MOL0     H81249   2.629   0.030   1.695 -0.3379 -1.3212 -0.3107
  616MOL0     H81250   2.564  -0.125   1.721 -1.0392  1.6031 -1.0518
  616MOL0     H81251   2.651  -0.156   1.937  0.7576 -2.3774 -1.5816
  616MOL0     H81252   2.730   0.002   1.938  0.7659  0.2182 -0.9941
  616MOL0     H81253   2.860  -0.050   1.722  0.2321  0.0167 -0.4242
  616MOL0     H81254   2.798  -0.224   1.760 -0.6015 -1.2618  2.8676
  616MOL0     H81255   3.036  -0.145   1.837 -0.9997  2.9324 -0.2530
  616MOL0     H81256   2.953  -0.034   1.945 -0.8040  0.2294  0.4635
  616MOL0     H81257   2.863  -0.237   2.065  0.8996 -0.0909 -0.2900
  616MOL0     H81258   3.039  -0.236   2.055 -0.7507  1.9658  2.7674
  616MOL0     H81259   3.034  -0.376   1.853  0.4928  3.3298  0.0714
  616MOL0     H81260   2.856  -0.393   1.868 -0.2905 -1.0455  0.4082
  616MOL0     H81261   3.029  -0.523   2.082 -1.6699  1.6510  4.2838
  616MOL0     H81262   2.859  -0.483   2.097 -0.2655 -0.2625  0.1787
  616MOL0     H81263   2.989  -0.675   1.897  1.8480  3.4893 -0.7275
  616MOL0     H81264   2.831  -0.606   1.856 -0.3405 -0.8485 -0.7191
  616MOL0     H81265   2.640  -0.624   2.081  0.7914  1.0724  1.2442
  616MOL0     H81266   2.549  -0.674   2.277 -0.0298 -0.4580  1.2172
  616MOL0     H81267   2.605  -0.819   2.379 -0.1260 -3.0757 -1.0715
  616MOL0     H81268   2.483  -0.957   2.187  1.3909  1.1861 -1.6236
  616MOL0     H81269   2.421  -0.819   2.131  3.9602 -1.0182 -2.9324
  616MOL0     H81270   2.332  -0.772   2.373 -4.1813 -0.0297 -0.4196
  616MOL0     H81271   2.252  -0.892   2.271  0.6565  2.4956 -1.3358
  616MOL0     H81272   2.480  -0.982   2.459  0.3956 -2.4640 -1.3499
  616MOL0     H81273   2.364  -1.079   2.381  1.2778  0.3938 -1.2019
  616MOL0     H81274   2.527  -0.867   2.614 -0.4674  2.9491 -2.0536
  616MOL0     H81275   2.572  -0.721   2.796  1.3148 -1.5390  2.8336
  616MOL0     H81276   2.741  -0.831   3.177 -0.4337  1.2004 -2.0498
  616MOL0     H81277   2.794  -0.820   3.399  4.1632  2.8822  0.0561
  616MOL0     H81278   2.916  -0.701   3.538 -0.8565 -1.2958  0.2503
  616MOL0     H81279   2.825  -0.743   3.666  3.5536 -1.0775  0.5039
  616MOL0     H81280   2.998  -0.623   3.773 -0.7682 -1.0524 -0.2255
  616MOL0     H81281   2.872  -0.518   3.789  4.4877  1.8927  1.4487
  616MOL0     H81282   2.975  -0.392   3.570  0.0018 -0.1484  0.5169
  616MOL0     H81283   3.093  -0.524   3.583  1.6115 -0.4993  1.8234
  616MOL0     H81284   3.068  -0.347   3.814 -2.1256 -0.9202 -0.2343
  616MOL0     H81285   3.201  -0.454   3.761  1.0919  0.4833 -1.5635
  616MOL0     H81286   3.131  -0.214   3.601  2.7675  0.0817 -1.7552
  616MOL0     H81287   3.282  -0.315   3.597  0.3751  0.6228 -1.4128
  616MOL0     H81288   3.343  -0.233   3.820 -0.0563 -0.4341  0.0221
  616MOL0     H81289   3.199  -0.134   3.827  2.1396  0.7593  0.1158
  616MOL0     H81290   3.419  -0.119   3.622  0.7263  0.5549 -0.8472
  616MOL0     H81291   3.289  -0.008   3.614 -0.6727  2.1646  2.6380
  616MOL0     H81292   3.469  -0.006   3.857 -0.9768  0.8102 -0.3560
  616MOL0     H81293   3.320   0.078   3.854  1.3613  1.5576 -1.2305
  616MOL0     H81294   2.604  -0.420   3.403 -0.0461  0.4582 -2.2309
  616MOL0     H81295   2.515  -0.472   3.183 -2.0795 -0.5935  0.5718
  616MOL0     H81296   2.176  -0.822   2.946 -3.7246  1.9617 -3.8993
  616MOL0     H81297   2.135  -0.952   2.738  0.4200 -3.5492  0.0682
  616MOL0     H81298   2.405  -0.031   1.587  2.8674  2.2916  1.6409
  616MOL0     H81299   2.175   0.032   1.502  2.4343 -3.2205 -0.4376
  616MOL0     H81300   1.759   0.228   1.636 -0.9089 -0.9144 -0.8639
  616MOL0     H81301   1.553   0.308   1.567  0.6947 -1.8112  1.5456
  616MOL0     H81302   1.344   0.446   1.405  1.0857  3.3868 -3.3372
  616MOL0     H81303   1.409   0.289   1.433 -0.2374 -2.4623 -2.4603
  616MOL0     H81304   1.310   0.386   1.161 -1.6247  3.1133  3.3278
  616MOL0     H81305   1.365   0.220   1.204  0.7283  1.8080 -4.2738
  616MOL0     H81306   1.134   0.389   1.306  0.8407  0.0077  1.7054
  616MOL0     H81307   1.163   0.223   1.373 -0.3777  0.6704  1.1804
  616MOL0     H81308   1.129   0.154   1.103 -1.8372 -0.7784 -1.1567
  616MOL0     H81309   0.993   0.188   1.204  0.8314  1.4705  2.4617
  616MOL0     H81310   1.024   0.520   0.953  0.7751  1.4584  2.9994
  616MOL0     H81311   1.749   0.494   1.225 -2.5568  3.4393  2.7505
  616MOL0     H81312   1.969   0.426   1.305  1.2643  0.9797  0.8155
  617MOL0     O81313   1.777   5.973   3.745  0.3873 -0.4762  0.0528
  617MOL0     C81314   1.784   5.892   3.658  0.0169 -0.1330 -0.1144
  617MOL0     O81315   1.743   5.903   3.526  0.4465  0.5381 -0.7110
  617MOL0     C81316   1.665   6.013   3.485 -0.2235  1.0603 -0.3479
  617MOL0     C81317   1.625   5.999   3.351  0.8447 -0.2178 -0.2115
  617MOL0     C81318   1.541   6.089   3.290 -0.3554  0.5769 -0.0885
  617MOL0     C81319   1.499   6.199   3.357  0.1179  0.6637 -0.6247
  617MOL0     O81320   1.406   6.279   3.297 -0.1615 -0.4720 -0.1262
  617MOL0     C81321   1.336   6.384   3.370 -0.4178  0.1025 -0.0355
  617MOL0     C81322   1.213   6.433   3.291  0.0085 -0.2739  0.3936
  617MOL0     C81323   1.107   6.324   3.265 -0.2404  0.9706 -0.1362
  617MOL0     C81324   0.969   6.380   3.223  0.9029  0.6274  0.1437
  617MOL0     C81325   0.875   6.273   3.159  0.2121  0.2118  0.1455
  617MOL0     C81326   0.916   6.255   3.002  0.5210 -0.8898 -0.9843
  617MOL0     C81327   0.799   6.205   2.897  0.2798 -0.3528 -0.1163
  617MOL0     C81328   0.673   6.299   2.911  0.2335 -1.1062  0.1083
  617MOL0     N81329   0.559   6.255   2.825 -0.4128 -0.0779  0.8352
  617MOL0     C81330   0.475   6.346   2.767  0.0481 -0.0058  0.6147
  617MOL0     C81331   0.406   6.286   2.677  0.1011 -0.4869  0.4372
  617MOL0     C81332   0.307   6.350   2.571 -1.1944  0.6395 -0.3747
  617MOL0     C81333   0.178   6.384   2.632 -0.1575  0.5707  0.0134
  617MOL0     C81334   0.103   6.281   2.720  0.3333  0.5726  0.7931
  617MOL0     C81335   0.072   6.152   2.646  0.0512 -0.8994  1.1947
  617MOL0     O81336  -0.016   6.189   2.538 -0.2362 -0.3047  1.1825
  617MOL0     C81337  -0.148   6.183   2.553 -0.2273  0.0913 -0.1262
  617MOL0     C81338  -0.227   6.181   2.443 -0.6269  0.2574  0.2216
  617MOL0     C81339  -0.363   6.176   2.442  0.2711  0.1162 -0.0894
  617MOL0     C81340  -0.430   6.202   2.558  0.1713 -0.5624 -0.3074
  617MOL0     C81341  -0.576   6.209   2.575  0.7570 -0.4596  0.4180
  617MOL0     O81342  -0.625   6.252   2.697  0.4185 -0.0149  0.0056
  617MOL0     C81343  -0.753   6.309   2.692  0.2257  0.6215 -0.3252
  617MOL0     C81344  -0.761   6.444   2.722 -1.2793 -0.0337 -0.0212
  617MOL0     C81345  -0.874   6.518   2.726 -0.8910  0.8788 -0.1029
  617MOL0     C81346  -0.997   6.456   2.705  0.5842  0.8726  0.0463
  617MOL0     O81347  -1.114   6.525   2.727 -0.9247 -0.0018 -0.6651
  617MOL0     C81348  -1.246   6.473   2.689 -0.5690 -0.9688  0.2099
  617MOL0     C81349  -1.365   6.583   2.712 -0.2105 -0.7408  0.0137
  617MOL0     C81350  -1.346   6.713   2.627 -0.2876  0.2932 -0.3339
  617MOL0     C81351  -1.352   6.683   2.474  0.2227 -0.0418  0.2167
  617MOL0     C81352  -1.326   6.818   2.384 -0.7027 -0.7114 -0.4346
  617MOL0     C81353  -1.329   6.807   2.233  0.5771 -0.0991  0.1943
  617MOL0     C81354  -1.472   6.762   2.187 -0.2844 -0.7008  0.6503
  617MOL0     C81355  -1.507   6.811   2.042  0.3565 -1.5298 -0.3799
  617MOL0    Cl81356  -1.557   6.982   2.057  0.3543 -0.0766  0.1708
  617MOL0     C81357  -0.997   6.319   2.680 -0.1547  0.1617  0.0813
  617MOL0     C81358  -0.875   6.249   2.670  0.5465  0.1193  0.7604
  617MOL0     O81359  -0.646   6.184   2.479  0.0673  0.2063  0.2368
  617MOL0     C81360  -0.357   6.217   2.671  0.5653 -0.1155 -0.0685
  617MOL0     C81361  -0.217   6.200   2.668  0.2776  0.1337  0.4571
  617MOL0     N81362   0.438   6.148   2.676  0.2922 -0.2303 -0.5680
  617MOL0     N81363   0.530   6.130   2.766 -0.3047 -0.2819  0.0210
  617MOL0     C81364   1.552   6.223   3.489  0.7812 -0.1529  0.1950
  617MOL0     C81365   1.637   6.136   3.553  0.2366  1.3184 -0.5242
  617MOL0     C81366   1.833   5.750   3.695 -0.1082 -0.5524  0.9384
  617MOL0     C81367   1.899   5.712   3.817  0.1009 -0.6337 -0.7423
  617MOL0     C81368   1.953   5.592   3.841  0.5402  0.1616 -0.0024
  617MOL0     C81369   1.940   5.485   3.746  0.5286  0.7011 -0.2315
  617MOL0     O81370   1.983   5.358   3.768 -0.3684 -0.2488  0.0504
  617MOL0     C81371   2.089   5.335   3.870 -0.2804 -0.2073 -0.6083
  617MOL0     C81372   2.136   5.192   3.863 -0.0081 -0.1356 -0.3866
  617MOL0     C81373   2.225   5.162   3.747  0.3525 -0.6929 -0.2667
  617MOL0     C81374   2.231   5.011   3.708  0.8177  0.0958 -0.5324
  617MOL0     C81375   2.324   4.974   3.601  0.2413  0.0269 -0.8288
  617MOL0     C81376   2.394   4.944   3.512 -0.3386  0.9800 -0.9813
  617MOL0     C81377   1.881   5.512   3.622  0.7959  0.4507 -0.0532
  617MOL0     C81378   1.817   5.638   3.598 -0.1033  0.6684 -0.4231
  617MOL0     H81379   1.642   5.903   3.304 -1.4421 -0.7889 -0.0086
  617MOL0     H81380   1.499   6.076   3.191 -3.3003 -0.2967  1.1505
  617MOL0     H81381   1.393   6.477   3.380  0.3055 -0.3002 -0.2643
  617MOL0     H81382   1.304   6.340   3.464  0.3792  1.1263  0.7458
  617MOL0     H81383   1.244   6.475   3.195 -0.0603 -0.2784  0.3690
  617MOL0     H81384   1.163   6.511   3.349  1.6279  1.7923 -0.8545
  617MOL0     H81385   1.095   6.263   3.355  1.5516  0.9188  0.1111
  617MOL0     H81386   1.129   6.263   3.177 -3.4801  2.6230 -2.2861
  617MOL0     H81387   0.919   6.432   3.305 -1.2769 -0.0616 -0.6685
  617MOL0     H81388   0.981   6.463   3.153  2.1133 -0.0331 -0.4613
  617MOL0     H81389   0.772   6.309   3.163  0.0485  0.0834 -1.6980
  617MOL0     H81390   0.881   6.172   3.200  2.3375 -0.7999 -2.2988
  617MOL0     H81391   1.002   6.186   3.006  1.4126  0.2467  0.8912
  617MOL0     H81392   0.946   6.353   2.965  1.6489  0.2032  2.4348
  617MOL0     H81393   0.845   6.201   2.798  2.6871 -3.4924  0.9373
  617MOL0     H81394   0.768   6.102   2.920  2.1911 -2.2895 -4.9595
  617MOL0     H81395   0.700   6.402   2.887 -1.5064 -0.6251  0.0928
  617MOL0     H81396   0.644   6.296   3.017  3.3691  1.5109  1.2017
  617MOL0     H81397   0.464   6.452   2.788  0.7147  0.1415  0.2463
  617MOL0     H81398   0.289   6.273   2.496  1.3312 -0.4089  0.0001
  617MOL0     H81399   0.361   6.434   2.525  0.8594  0.9006  2.2607
  617MOL0     H81400   0.109   6.425   2.557 -1.6439  0.2887  1.1681
  617MOL0     H81401   0.207   6.461   2.705  1.3162  1.1606 -1.1556
  617MOL0     H81402   0.180   6.262   2.796  0.6607  3.8243  1.4453
  617MOL0     H81403   0.022   6.324   2.779  1.6317  0.2894  2.9096
  617MOL0     H81404   0.012   6.092   2.715 -0.3701  0.0447  1.6755
  617MOL0     H81405   0.166   6.107   2.614  1.6378  1.8854  1.6332
  617MOL0     H81406  -0.171   6.181   2.350 -2.2775 -2.3964 -0.8882
  617MOL0     H81407  -0.419   6.159   2.350 -0.2669 -2.6585  0.6537
  617MOL0     H81408  -0.665   6.483   2.757 -1.5925  0.4940  0.2652
  617MOL0     H81409  -0.876   6.622   2.759  0.9674  2.0042 -3.1198
  617MOL0     H81410  -1.275   6.388   2.752 -0.0574 -1.7317 -0.5675
  617MOL0     H81411  -1.238   6.451   2.582 -3.1106 -3.3408  0.3896
  617MOL0     H81412  -1.361   6.617   2.815 -4.5506  1.1405 -0.2418
  617MOL0     H81413  -1.461   6.535   2.691  0.7270 -2.1469 -1.2984
  617MOL0     H81414  -1.249   6.753   2.657  0.5001 -0.5139 -1.6503
  617MOL0     H81415  -1.418   6.790   2.653  0.0118 -0.7341  4.2208
  617MOL0     H81416  -1.284   6.599   2.456 -3.4679 -2.6830 -3.2455
  617MOL0     H81417  -1.447   6.640   2.440 -0.0198  0.9846 -0.4559
  617MOL0     H81418  -1.223   6.843   2.410 -0.3360  0.3584 -2.6505
  617MOL0     H81419  -1.395   6.891   2.426 -1.3639 -1.9008  0.6009
  617MOL0     H81420  -1.253   6.732   2.209  1.2544 -0.3204  2.7763
  617MOL0     H81421  -1.294   6.907   2.204  0.5605  0.4791  2.0254
  617MOL0     H81422  -1.465   6.653   2.190  0.8919 -0.6378  0.5970
  617MOL0     H81423  -1.550   6.785   2.260 -1.5710  1.6163 -1.3065
  617MOL0     H81424  -1.595   6.756   2.007 -1.6557  0.9680  0.4255
  617MOL0     H81425  -1.427   6.798   1.969  1.0492  0.3177 -0.0265
  617MOL0     H81426  -1.087   6.262   2.657 -0.9996  1.4508  0.0540
  617MOL0     H81427  -0.888   6.148   2.632 -0.6666  0.3797  0.4330
  617MOL0     H81428  -0.408   6.236   2.765  1.7789  0.9894  0.3940
  617MOL0     H81429  -0.182   6.212   2.770  1.0489  0.4697  0.1605
  617MOL0     H81430   1.530   6.322   3.529  0.3260  0.7052 -2.0355
  617MOL0     H81431   1.677   6.158   3.651 -2.4855  1.2200  0.7045
  617MOL0     H81432   1.907   5.791   3.891  1.8928 -1.0496 -0.4522
  617MOL0     H81433   1.990   5.568   3.941  0.4568 -3.5635 -0.7270
  617MOL0     H81434   2.048   5.353   3.969  1.2449  4.4459 -0.5316
  617MOL0     H81435   2.171   5.405   3.851 -1.2919  0.9104 -1.0429
  617MOL0     H81436   2.182   5.168   3.959  1.7189 -0.0919 -1.1462
  617MOL0     H81437   2.049   5.127   3.860  1.6674 -2.9011  3.4361
  617MOL0     H81438   2.324   5.203   3.769 -0.0941 -0.5673  1.6491
  617MOL0     H81439   2.187   5.218   3.661  2.8222 -1.1292 -1.7480
  617MOL0     H81440   2.266   4.952   3.793  1.5820  4.0784  2.1954
  617MOL0     H81441   2.127   4.988   3.683  0.3533  0.7672  0.6941
  617MOL0     H81442   2.450   4.929   3.422 -0.9111  3.4494 -1.8055
  617MOL0     H81443   1.874   5.433   3.547  3.7990  0.8166 -0.8279
  617MOL0     H81444   1.767   5.661   3.504 -0.6730  0.3591 -0.2015
  618MOL0     O81445   5.826   0.493   7.876 -0.0827  0.0881  0.0937
  618MOL0     C81446   5.735   0.529   7.800  0.1178  0.4225  0.0591
  618MOL0     O81447   5.716   0.656   7.738  0.1965  0.1023 -0.2993
  618MOL0     C81448   5.793   0.764   7.779 -0.1619 -0.2554 -0.2382
  618MOL0     C81449   5.897   0.831   7.711  0.1952  0.1611  0.6945
  618MOL0     C81450   5.975   0.927   7.770 -0.5975 -0.7716 -0.7158
  618MOL0     C81451   5.966   0.952   7.910  0.2978  0.2652 -0.3390
  618MOL0     O81452   6.049   1.043   7.976  0.0856  0.2512  0.3274
  618MOL0     C81453   6.141   1.132   7.904 -0.0250  0.5150 -0.0606
  618MOL0     C81454   6.223   1.207   8.014  0.2787 -0.2873 -0.0694
  618MOL0     C81455   6.291   1.336   7.958  0.9834  0.1980 -0.7343
  618MOL0     C81456   6.191   1.428   7.887  0.5225 -0.1330  0.7483
  618MOL0     C81457   6.176   1.421   7.732  0.7097  0.4172  0.1531
  618MOL0     C81458   6.305   1.395   7.652 -0.4575  0.2588 -1.3354
  618MOL0     C81459   6.298   1.421   7.502  0.7586  0.8374  0.0513
  618MOL0     C81460   6.191   1.332   7.428 -0.5462  0.2491  0.5945
  618MOL0     N81461   6.245   1.195   7.422  0.4180  0.1508 -0.4284
  618MOL0     C81462   6.350   1.158   7.341 -0.9603 -0.8774  0.6337
  618MOL0     C81463   6.367   1.024   7.364 -0.6408 -0.3150 -0.6310
  618MOL0     C81464   6.473   0.938   7.292  0.2684  0.0442 -0.0717
  618MOL0     C81465   6.418   0.823   7.205 -0.8675  0.0289  0.3907
  618MOL0     C81466   6.532   0.778   7.109  0.2316 -0.0482 -0.6739
  618MOL0     C81467   6.545   0.865   6.981 -0.1932  0.3090 -0.7013
  618MOL0     O81468   6.672   0.841   6.916  0.4849 -0.3810 -0.3051
  618MOL0     C81469   6.670   0.743   6.823  0.0711  0.1074 -0.4076
  618MOL0     C81470   6.773   0.726   6.735 -0.8281 -0.5833 -0.5984
  618MOL0     C81471   6.789   0.635   6.637 -0.1421  1.1142 -0.5231
  618MOL0     C81472   6.693   0.532   6.632  0.2778 -1.5362  0.1540
  618MOL0     C81473   6.720   0.409   6.537 -0.4836  0.5078 -0.3878
  618MOL0     O81474   6.844   0.415   6.477  0.0629  0.4632  0.5922
  618MOL0     C81475   6.876   0.346   6.359  0.1803  0.2396 -0.4763
  618MOL0     C81476   6.829   0.207   6.350 -0.2241 -0.0882  0.3955
  618MOL0     C81477   6.868   0.143   6.235 -0.6089 -0.1309  0.2848
  618MOL0     C81478   6.948   0.201   6.136  0.0425  0.5599 -0.0029
  618MOL0     O81479   6.977   0.131   6.023  0.5403  0.5456 -0.0704
  618MOL0     C81480   7.113   0.091   6.023 -0.2107  0.5442  0.5052
  618MOL0     C81481   7.129  -0.001   5.896 -0.0962  0.7336 -1.0892
  618MOL0     C81482   7.077   0.053   5.759 -0.0533  0.1194 -0.2185
  618MOL0     C81483   7.133   0.185   5.707  0.4377 -0.2337  0.2877
  618MOL0     C81484   7.282   0.181   5.694  0.6539 -0.7055  0.6108
  618MOL0     C81485   7.321   0.299   5.599  0.0044  0.9398  0.1248
  618MOL0     C81486   7.476   0.297   5.582 -0.3079  1.1330  1.2959
  618MOL0     C81487   7.553   0.423   5.561  0.4770 -0.1294 -0.4137
  618MOL0    Cl81488   7.553   0.484   5.393  0.2623  0.2655 -0.0503
  618MOL0     C81489   7.010   0.321   6.155 -0.1915 -0.5664  0.0150
  618MOL0     C81490   6.965   0.401   6.261  0.2418 -0.3384 -0.1145
  618MOL0     O81491   6.628   0.331   6.511  0.2841  0.2547  0.4737
  618MOL0     C81492   6.575   0.549   6.706 -0.1419 -0.3991  0.1319
  618MOL0     C81493   6.565   0.646   6.807 -0.0298 -0.1888 -0.2410
  618MOL0     N81494   6.266   0.981   7.453  0.6572 -0.3712  0.5942
  618MOL0     N81495   6.193   1.084   7.481  0.4319  0.4891 -0.4550
  618MOL0     C81496   5.862   0.890   7.979 -0.3701  0.1048  0.5267
  618MOL0     C81497   5.775   0.798   7.917 -0.3529  0.9253  0.5224
  618MOL0     C81498   5.621   0.436   7.771  0.4470  0.6595 -0.2398
  618MOL0     C81499   5.505   0.485   7.714  0.0279  0.5322  0.2751
  618MOL0     C81500   5.390   0.400   7.679 -0.0220  0.2128 -0.6462
  618MOL0     C81501   5.393   0.268   7.732 -1.3458  0.2977  0.5740
  618MOL0     O81502   5.291   0.187   7.695  0.1182 -0.7615 -0.1543
  618MOL0     C81503   5.269   0.073   7.774  0.9009  0.4610 -0.6337
  618MOL0     C81504   5.125   0.020   7.733  0.0765  0.9477  0.6762
  618MOL0     C81505   5.010   0.072   7.815  0.3566 -0.0573 -1.2670
  618MOL0     C81506   4.873   0.033   7.756 -1.2029  0.9404  0.0789
  618MOL0     C81507   4.764   0.098   7.814 -0.0508 -0.3879 -0.7439
  618MOL0     C81508   4.674   0.162   7.844  0.5058  1.0101 -0.3351
  618MOL0     C81509   5.499   0.223   7.794  0.2436 -0.0179  0.1317
  618MOL0     C81510   5.616   0.304   7.813 -0.1606 -0.4930  0.2036
  618MOL0     H81511   5.921   0.811   7.607  2.2048  0.6453  1.0286
  618MOL0     H81512   6.035   0.988   7.703  1.0159 -0.0623  1.2760
  618MOL0     H81513   6.073   1.200   7.851  0.2802  1.7095  1.0233
  618MOL0     H81514   6.207   1.076   7.837  0.7545 -1.2381  2.0546
  618MOL0     H81515   6.295   1.143   8.065 -0.6009  0.0870  1.7709
  618MOL0     H81516   6.149   1.242   8.087  1.5182  1.7452  0.2826
  618MOL0     H81517   6.385   1.308   7.910  2.8157 -0.8959  3.0946
  618MOL0     H81518   6.332   1.381   8.050 -1.3001 -0.0293  0.4693
  618MOL0     H81519   6.087   1.422   7.919 -0.5095  0.7329 -2.1669
  618MOL0     H81520   6.224   1.527   7.918  2.0333 -0.6489  0.8709
  618MOL0     H81521   6.121   1.511   7.705 -4.5966 -2.6121 -0.4165
  618MOL0     H81522   6.103   1.344   7.709  0.6069 -1.0622  4.5022
  618MOL0     H81523   6.335   1.293   7.679 -1.1861  0.1286 -0.9857
  618MOL0     H81524   6.378   1.455   7.708 -0.8542 -0.5205  0.0549
  618MOL0     H81525   6.275   1.527   7.486  1.2262  0.9069 -0.1729
  618MOL0     H81526   6.398   1.396   7.468  2.2214 -1.1576  4.8840
  618MOL0     H81527   6.185   1.366   7.324  1.4380  0.1478  0.4008
  618MOL0     H81528   6.093   1.348   7.474 -0.3475  1.8533  0.5246
  618MOL0     H81529   6.400   1.225   7.272 -2.9203 -2.1546 -2.2194
  618MOL0     H81530   6.544   0.893   7.363 -0.1562 -4.2620 -2.0560
  618MOL0     H81531   6.535   1.000   7.226  0.4109 -0.1456 -0.1191
  618MOL0     H81532   6.329   0.859   7.152  1.3868 -0.2418 -3.9493
  618MOL0     H81533   6.387   0.748   7.279 -2.3245  1.2934  1.1453
  618MOL0     H81534   6.627   0.786   7.164 -1.2996  5.0863  1.8682
  618MOL0     H81535   6.513   0.671   7.094 -1.5904 -0.1218  1.5910
  618MOL0     H81536   6.542   0.974   6.996  0.2601  0.4374 -1.4571
  618MOL0     H81537   6.466   0.828   6.915  1.4171 -1.8119 -1.5199
  618MOL0     H81538   6.848   0.804   6.742 -0.9454 -0.2834 -2.2934
  618MOL0     H81539   6.876   0.633   6.573  0.3197  0.0537  0.0982
  618MOL0     H81540   6.753   0.169   6.418  0.0599  0.1110  0.8249
  618MOL0     H81541   6.847   0.037   6.235 -2.3328  0.1876 -0.2671
  618MOL0     H81542   7.141   0.028   6.108 -1.1090 -1.7547 -0.8204
  618MOL0     H81543   7.183   0.174   6.011  0.6056 -0.1863  0.1020
  618MOL0     H81544   7.070  -0.092   5.913 -1.0098  1.7386  1.5006
  618MOL0     H81545   7.237  -0.020   5.887  0.2313  0.2542  2.5707
  618MOL0     H81546   6.968   0.050   5.753 -0.0881 -0.5136  0.6502
  618MOL0     H81547   7.110  -0.015   5.679 -0.5509 -1.3194  0.7671
  618MOL0     H81548   7.083   0.198   5.610  1.1536 -3.9797 -0.7741
  618MOL0     H81549   7.106   0.269   5.771  0.5840  2.2342 -2.6543
  618MOL0     H81550   7.311   0.083   5.653 -2.2727 -1.7499  0.8348
  618MOL0     H81551   7.320   0.190   5.796  3.6673  1.0863 -0.5363
  618MOL0     H81552   7.293   0.396   5.640  1.0022  1.6536 -0.8021
  618MOL0     H81553   7.270   0.292   5.503  1.3409  2.1982 -0.7235
  618MOL0     H81554   7.527   0.253   5.669  1.8676 -1.9501 -1.2996
  618MOL0     H81555   7.511   0.234   5.500 -1.3573  2.7574 -0.4664
  618MOL0     H81556   7.660   0.407   5.579  0.0216 -1.7959  1.1885
  618MOL0     H81557   7.513   0.495   5.634 -2.6578 -0.9191 -1.2078
  618MOL0     H81558   7.075   0.358   6.076  1.3512 -1.9984  0.5672
  618MOL0     H81559   7.011   0.499   6.272  1.0488 -0.3620 -2.7159
  618MOL0     H81560   6.505   0.466   6.696  0.6108 -0.9834 -0.3550
  618MOL0     H81561   6.485   0.632   6.879 -0.8432 -0.4535 -1.1877
  618MOL0     H81562   5.841   0.928   8.078 -0.6102  2.2525 -0.3011
  618MOL0     H81563   5.707   0.756   7.990  0.5889  0.0425  0.9111
  618MOL0     H81564   5.506   0.589   7.683  1.5951  0.4128 -0.1484
  618MOL0     H81565   5.303   0.430   7.622  1.1156 -0.2082 -2.7340
  618MOL0     H81566   5.286   0.090   7.881 -2.7275  1.9733 -0.1638
  618MOL0     H81567   5.345   0.001   7.740  0.4726 -0.0957 -0.4283
  618MOL0     H81568   5.107   0.031   7.626  0.0674 -1.7909  0.3053
  618MOL0     H81569   5.113  -0.089   7.737 -1.7427  1.1187  0.8946
  618MOL0     H81570   5.021   0.181   7.824 -0.8457 -0.0016 -0.0850
  618MOL0     H81571   5.022   0.034   7.917 -3.1354 -2.4604 -1.5685
  618MOL0     H81572   4.885   0.038   7.647 -0.8820 -0.7834  0.0119
  618MOL0     H81573   4.853  -0.073   7.771  0.8604  0.5947  0.6781
  618MOL0     H81574   4.612   0.237   7.890  0.0012  0.0685  0.5611
  618MOL0     H81575   5.507   0.122   7.832 -1.8166 -0.3185 -0.1384
  618MOL0     H81576   5.704   0.252   7.850  0.5651 -0.5989 -1.5246
  619MOL0     O81577   7.593   7.525   4.692  0.2245 -0.0085 -0.2653
  619MOL0     C81578   7.653   7.596   4.620  0.1696 -0.6094  1.3012
  619MOL0     O81579   7.622   7.727   4.585  0.7319 -0.1439  0.0822
  619MOL0     C81580   7.532   7.802   4.657 -0.0953  0.5438 -0.1712
  619MOL0     C81581   7.569   7.930   4.704  0.2222  0.2519 -0.0375
  619MOL0     C81582   7.471   8.015   4.760 -0.5317  0.4946 -0.8492
  619MOL0     C81583   7.341   7.966   4.778  0.1544  0.2088 -1.3192
  619MOL0     O81584   7.248   8.061   4.818  0.2843  0.1728  0.3081
  619MOL0     C81585   7.149   8.092   4.720  0.2830 -0.1958 -0.7149
  619MOL0     C81586   7.013   8.030   4.774  0.7426  0.0603  0.8524
  619MOL0     C81587   6.892   8.076   4.683  0.2675  0.5093 -1.3162
  619MOL0     C81588   6.744   8.019   4.709  0.1592 -0.3017 -0.5362
  619MOL0     C81589   6.705   8.014   4.854 -0.6440  0.0642 -0.1308
  619MOL0     C81590   6.583   7.905   4.875 -0.6816  0.3514 -0.4426
  619MOL0     C81591   6.452   7.965   4.835  0.1449 -0.0455  0.9528
  619MOL0     C81592   6.343   7.952   4.939 -0.5103 -0.6594  0.4781
  619MOL0     N81593   6.246   8.055   4.915  0.2373 -0.2645  0.1628
  619MOL0     C81594   6.174   8.066   4.798 -0.2244 -0.2957 -0.5562
  619MOL0     C81595   6.149   8.198   4.785  1.3514  0.8165  0.2569
  619MOL0     C81596   6.085   8.266   4.674 -1.1814  0.5972 -0.0946
  619MOL0     C81597   5.943   8.290   4.696 -0.5465  0.0082  0.6427
  619MOL0     C81598   5.862   8.381   4.595  0.2679 -0.8900 -0.0978
  619MOL0     C81599   5.711   8.386   4.636  0.2239 -0.0429  0.3240
  619MOL0     O81600   5.661   8.252   4.635  0.4455 -0.5701 -0.3256
  619MOL0     C81601   5.541   8.231   4.694 -0.1931  0.5020  0.9389
  619MOL0     C81602   5.471   8.320   4.776  0.1389  0.1675 -0.6495
  619MOL0     C81603   5.341   8.291   4.822  0.4219  0.2453  0.3053
  619MOL0     C81604   5.287   8.157   4.799 -0.2081 -0.0670  0.1599
  619MOL0     C81605   5.152   8.125   4.856 -0.6506 -0.6542  0.2661
  619MOL0     O81606   5.112   8.206   4.958 -0.2227  1.3698 -0.1331
  619MOL0     C81607   5.000   8.178   5.037  0.0788  0.0811 -0.2204
  619MOL0     C81608   4.974   8.045   5.079 -0.3259  0.1978 -0.7051
  619MOL0     C81609   4.859   8.018   5.168 -0.7816 -0.3517 -0.1545
  619MOL0     C81610   4.778   8.126   5.207 -1.3861  0.9440  0.2033
  619MOL0     O81611   4.669   8.088   5.286 -0.2245  0.0337  0.3846
  619MOL0     C81612   4.585   8.187   5.346  0.3056 -0.1320  0.3083
  619MOL0     C81613   4.477   8.121   5.444  0.6955  0.0505 -0.0535
  619MOL0     C81614   4.366   8.215   5.481  0.5442 -0.5207  0.6748
  619MOL0     C81615   4.266   8.132   5.559 -0.9528  0.5323  0.3477
  619MOL0     C81616   4.120   8.198   5.575 -0.1186  0.1524 -0.5761
  619MOL0     C81617   4.126   8.341   5.625 -0.5786  0.3934 -1.0327
  619MOL0     C81618   4.014   8.394   5.719 -0.9358  0.2208  0.6820
  619MOL0     C81619   4.017   8.538   5.759  1.1248  0.2485 -0.3511
  619MOL0    Cl81620   4.165   8.561   5.855  0.6498  0.2275 -0.0894
  619MOL0     C81621   4.804   8.252   5.161 -0.1590  0.2509 -0.6357
  619MOL0     C81622   4.912   8.282   5.083  0.1212 -0.3890  0.2827
  619MOL0     O81623   5.090   8.030   4.807 -0.8345  0.0539  0.0847
  619MOL0     C81624   5.364   8.064   4.718 -1.0661 -0.1092 -0.2854
  619MOL0     C81625   5.489   8.102   4.663  0.5535  0.7357 -1.0110
  619MOL0     N81626   6.186   8.269   4.901  0.3889  0.2899 -0.0217
  619MOL0     N81627   6.249   8.178   4.976 -0.7880  0.2153 -0.4510
  619MOL0     C81628   7.306   7.841   4.745 -0.1325  0.1302  0.4437
  619MOL0     C81629   7.403   7.756   4.683  0.4144  0.9079  0.7916
  619MOL0     C81630   7.751   7.531   4.534 -0.1723  0.8602  0.4184
  619MOL0     C81631   7.804   7.402   4.568  0.2283  0.3057 -0.5492
  619MOL0     C81632   7.907   7.339   4.495  0.4556 -0.9135 -0.1372
  619MOL0     C81633   7.970   7.402   4.376  0.8865 -0.3737 -0.7219
  619MOL0     O81634   8.051   7.337   4.287 -0.2304 -0.7959 -0.0306
  619MOL0     C81635   8.074   7.196   4.286 -0.8848 -0.4526 -0.9410
  619MOL0     C81636   8.135   7.148   4.155 -0.3453  0.9948 -0.2047
  619MOL0     C81637   8.100   7.000   4.139  0.2282 -0.8518  0.1300
  619MOL0     C81638   8.181   6.925   4.034 -0.9063  0.3439 -0.1597
  619MOL0     C81639   8.178   6.991   3.912  0.2223  0.2934  0.9040
  619MOL0     C81640   8.193   7.023   3.796  0.6269  0.0530 -0.3633
  619MOL0     C81641   7.915   7.529   4.339 -1.4454  0.7094 -0.1458
  619MOL0     C81642   7.804   7.588   4.419 -0.1522  0.0428  0.3681
  619MOL0     H81643   7.673   7.951   4.680  0.6603  0.5391  1.9715
  619MOL0     H81644   7.496   8.116   4.790  0.5639 -0.6547  2.6530
  619MOL0     H81645   7.169   8.073   4.614  1.8415  0.4038 -0.5643
  619MOL0     H81646   7.129   8.200   4.725 -4.0673 -0.6380 -3.1407
  619MOL0     H81647   6.994   8.050   4.880  1.0892 -2.0029  1.3497
  619MOL0     H81648   7.026   7.925   4.746  0.9260  0.7495 -2.0153
  619MOL0     H81649   6.918   8.062   4.577  0.9017 -1.5878 -0.9243
  619MOL0     H81650   6.884   8.184   4.698 -0.0084  0.5408 -1.6737
  619MOL0     H81651   6.669   8.075   4.652  0.4443 -0.3242 -0.9308
  619MOL0     H81652   6.739   7.913   4.683 -1.9153  0.1700 -2.3360
  619MOL0     H81653   6.672   8.113   4.888  1.4847 -0.0575  2.6505
  619MOL0     H81654   6.787   7.982   4.920  1.0538  3.2249 -0.5419
  619MOL0     H81655   6.567   7.892   4.982  1.1101  2.2113  0.1132
  619MOL0     H81656   6.590   7.805   4.830 -2.1643  0.1413 -0.2478
  619MOL0     H81657   6.455   8.066   4.792 -2.9314 -0.7235 -1.2253
  619MOL0     H81658   6.420   7.922   4.739  0.7661  1.5841 -0.0468
  619MOL0     H81659   6.372   7.969   5.043  0.0055  1.9900 -0.0277
  619MOL0     H81660   6.290   7.857   4.932 -0.8276 -0.4900  0.5203
  619MOL0     H81661   6.157   7.991   4.722  2.0323 -1.6012  0.1246
  619MOL0     H81662   6.107   8.219   4.578  0.2949 -0.0427  0.5347
  619MOL0     H81663   6.130   8.365   4.665 -1.7919  0.6786 -3.1754
  619MOL0     H81664   5.917   8.337   4.792 -0.0372 -0.4840  1.0334
  619MOL0     H81665   5.898   8.191   4.691  0.0450 -0.2083 -0.9065
  619MOL0     H81666   5.907   8.480   4.599  2.1861 -1.7519  0.7694
  619MOL0     H81667   5.870   8.359   4.488 -1.9255  1.3791 -0.8425
  619MOL0     H81668   5.646   8.437   4.563 -0.0053 -2.1603 -1.0313
  619MOL0     H81669   5.709   8.433   4.735 -0.2561 -0.8911  0.7269
  619MOL0     H81670   5.519   8.411   4.811 -0.4076  0.1825  0.0695
  619MOL0     H81671   5.292   8.354   4.896 -2.4952 -0.2033 -1.0981
  619MOL0     H81672   5.035   7.963   5.044  0.4229  0.0122  0.9438
  619MOL0     H81673   4.825   7.916   5.181 -2.0755  0.1675  0.6699
  619MOL0     H81674   4.534   8.251   5.274 -1.8836 -0.4235  1.5118
  619MOL0     H81675   4.651   8.246   5.411  0.9237  0.7413 -1.0762
  619MOL0     H81676   4.532   8.087   5.532 -0.6041  2.0897  1.6539
  619MOL0     H81677   4.430   8.039   5.390 -2.0890  1.0355  0.6997
  619MOL0     H81678   4.313   8.248   5.392  2.7169 -0.5068 -0.6904
  619MOL0     H81679   4.398   8.303   5.536  0.8566  1.2182 -2.1055
  619MOL0     H81680   4.254   8.028   5.528 -1.4798 -0.1392  2.5730
  619MOL0     H81681   4.297   8.125   5.664 -3.1820 -1.6423  0.9578
  619MOL0     H81682   4.075   8.140   5.656 -0.0392  2.1182  0.9556
  619MOL0     H81683   4.060   8.186   5.484 -0.8783 -0.5187 -0.0015
  619MOL0     H81684   4.141   8.406   5.539 -0.4776  0.6952 -0.7884
  619MOL0     H81685   4.210   8.340   5.695 -2.0153 -0.0239  0.7758
  619MOL0     H81686   3.922   8.387   5.660 -0.8020 -0.6692  0.5700
  619MOL0     H81687   4.004   8.337   5.811 -0.0132  0.0063  0.6667
  619MOL0     H81688   3.929   8.566   5.819  2.1288  2.0875  0.3384
  619MOL0     H81689   4.016   8.609   5.676 -0.3315  1.9500  1.0246
  619MOL0     H81690   4.732   8.331   5.181  0.1205  0.9450 -2.2194
  619MOL0     H81691   4.909   8.385   5.048  1.6106 -0.9813 -1.8325
  619MOL0     H81692   5.318   7.966   4.701 -0.8216 -1.2545  4.3700
  619MOL0     H81693   5.542   8.037   4.595 -0.9475  1.0915 -2.5790
  619MOL0     H81694   7.202   7.811   4.739 -0.1700 -0.0118  1.5500
  619MOL0     H81695   7.380   7.662   4.634 -0.7460  0.9267  1.2751
  619MOL0     H81696   7.767   7.348   4.655  0.8671  1.9945  0.8533
  619MOL0     H81697   7.941   7.244   4.536 -1.0553 -2.4192 -2.1997
  619MOL0     H81698   7.970   7.165   4.297 -1.4742  1.3226 -1.0415
  619MOL0     H81699   8.115   7.152   4.377  0.1655  1.9639 -0.1423
  619MOL0     H81700   8.092   7.207   4.073  0.5402  3.1882  0.8221
  619MOL0     H81701   8.243   7.166   4.146 -0.1117 -0.2550 -0.0306
  619MOL0     H81702   7.992   6.996   4.123  0.5948 -3.1011 -2.7534
  619MOL0     H81703   8.128   6.951   4.233 -2.7611  0.1100  1.6597
  619MOL0     H81704   8.283   6.919   4.074 -1.1588  1.5895  0.7303
  619MOL0     H81705   8.148   6.821   4.023  1.9974 -0.5839 -1.1433
  619MOL0     H81706   8.190   7.037   3.690  0.1273 -0.3590 -0.4057
  619MOL0     H81707   7.952   7.575   4.248 -0.1724  1.2114  0.5969
  619MOL0     H81708   7.762   7.682   4.383  1.9595  0.8404 -0.1900
  620MOL0     O81709  10.999   1.804   3.106  0.1291 -0.7289  0.3717
  620MOL0     C81710  10.926   1.810   3.002 -0.4873  0.6015 -0.9905
  620MOL0     O81711  10.891   1.924   2.943  0.7689  0.3100 -0.1571
  620MOL0     C81712  10.980   2.028   2.930 -0.9966  0.7749 -1.1098
  620MOL0     C81713  10.958   2.131   3.012 -0.1808 -0.8880  0.5143
  620MOL0     C81714  11.045   2.245   3.009  0.6120  0.9927 -0.4893
  620MOL0     C81715  11.153   2.238   2.934 -1.7597 -0.4729  0.8988
  620MOL0     O81716  11.233   2.346   2.951  0.0249  0.0426  0.0317
  620MOL0     C81717  11.374   2.335   2.955  0.1749  0.0638 -0.1835
  620MOL0     C81718  11.420   2.421   3.065  0.2402  0.8155 -0.6458
  620MOL0     C81719  11.425   2.572   3.043  0.3980 -0.2135  0.0670
  620MOL0     C81720  11.297   2.637   2.991  0.0904  0.6278  0.0661
  620MOL0     C81721  11.291   2.788   3.029 -0.3296 -0.5895 -0.1782
  620MOL0     C81722  11.388   2.874   2.947 -0.2974  0.8153  0.3555
  620MOL0     C81723  11.389   3.025   2.990  0.9213  0.1917  0.2327
  620MOL0     C81724  11.515   3.103   2.943  0.4664 -0.0414 -0.0010
  620MOL0     N81725  11.503   3.102   2.796 -1.0187  0.2002 -0.4118
  620MOL0     C81726  11.537   2.997   2.708  1.1937  0.0266 -0.0325
  620MOL0     C81727  11.535   3.062   2.594  0.1395 -0.2204 -0.2618
  620MOL0     C81728  11.557   2.993   2.467  0.2998 -0.0610 -0.6100
  620MOL0     C81729  11.632   2.855   2.471 -0.5179 -1.3262 -0.5874
  620MOL0     C81730  11.671   2.809   2.330 -0.1220 -0.6008 -0.0640
  620MOL0     C81731  11.747   2.673   2.329 -0.4250  0.2640  0.8605
  620MOL0     O81732  11.672   2.559   2.375  1.1903  0.0637  0.6897
  620MOL0     C81733  11.623   2.461   2.275  0.7164 -0.6364  0.1401
  620MOL0     C81734  11.559   2.352   2.335 -0.3439 -0.4565 -0.1585
  620MOL0     C81735  11.515   2.255   2.247 -0.3186 -0.1819 -0.7418
  620MOL0     C81736  11.516   2.264   2.106 -0.4132  0.6848 -0.1955
  620MOL0     C81737  11.473   2.156   2.015  0.6190  0.1625  0.4650
  620MOL0     O81738  11.406   2.054   2.071  0.4060 -0.7107  0.0817
  620MOL0     C81739  11.393   1.938   2.000  1.1308  0.5710  0.5503
  620MOL0     C81740  11.269   1.883   2.001  0.1002  0.5751  0.1487
  620MOL0     C81741  11.248   1.758   1.941 -0.2362  0.4906  0.0636
  620MOL0     C81742  11.358   1.685   1.879  0.2508 -0.4187 -0.5189
  620MOL0     O81743  11.342   1.570   1.808  0.2192 -0.1104 -0.2456
  620MOL0     C81744  11.230   1.476   1.829  0.1985  0.3915  0.3342
  620MOL0     C81745  11.252   1.392   1.952 -0.1262 -0.0850 -0.2463
  620MOL0     C81746  11.337   1.269   1.928  0.1934  0.3433 -0.4610
  620MOL0     C81747  11.276   1.169   1.819  0.9468 -0.7724 -0.6638
  620MOL0     C81748  11.375   1.054   1.801 -0.3001  0.0509 -0.0545
  620MOL0     C81749  11.398   0.978   1.938  0.0855 -0.3057  0.1531
  620MOL0     C81750  11.488   0.855   1.904  0.1281 -1.0955  0.3300
  620MOL0     C81751  11.545   0.799   2.044  0.4506  0.1325  0.8947
  620MOL0    Cl81752  11.395   0.750   2.143 -0.0116  0.6508 -0.1736
  620MOL0     C81753  11.488   1.740   1.883  0.3190  0.3771 -0.2742
  620MOL0     C81754  11.502   1.871   1.949  0.1096  0.0195  0.5058
  620MOL0     O81755  11.470   2.174   1.884 -0.0184 -0.6761 -0.3686
  620MOL0     C81756  11.577   2.373   2.052  0.8493 -0.2079 -0.6178
  620MOL0     C81757  11.640   2.466   2.136  0.7328 -0.9033  0.1070
  620MOL0     N81758  11.514   3.196   2.611 -0.1652  0.0934  0.0816
  620MOL0     N81759  11.514   3.222   2.733 -0.0938 -0.6323 -0.5273
  620MOL0     C81760  11.188   2.126   2.858 -0.0963  0.5824 -0.1784
  620MOL0     C81761  11.089   2.026   2.845 -0.0930 -0.1187  1.1679
  620MOL0     C81762  10.865   1.682   2.971  0.0460  0.0950  1.0666
  620MOL0     C81763  10.811   1.668   2.838 -0.6159 -0.1797 -0.5697
  620MOL0     C81764  10.752   1.545   2.812  0.1045  0.2300  0.1365
  620MOL0     C81765  10.749   1.440   2.907  0.5081 -0.2487 -0.2323
  620MOL0     O81766  10.695   1.310   2.897 -0.0748 -0.1458  0.4321
  620MOL0     C81767  10.717   1.245   2.774 -1.6346  0.5816 -0.3750
  620MOL0     C81768  10.697   1.092   2.780 -0.3712 -0.7903 -0.1211
  620MOL0     C81769  10.742   1.026   2.909 -0.5155  0.0422 -0.0252
  620MOL0     C81770  10.745   0.871   2.905  0.7110 -0.4475 -0.4911
  620MOL0     C81771  10.619   0.812   2.878  0.2647  0.4699 -0.8849
  620MOL0     C81772  10.517   0.748   2.855  0.4360 -0.4601 -0.0248
  620MOL0     C81773  10.812   1.451   3.024 -1.1701  0.7009  0.5309
  620MOL0     C81774  10.865   1.568   3.059  0.5969 -0.1971 -0.0418
  620MOL0     H81775  10.866   2.132   3.070 -1.3370  1.8731 -1.1591
  620MOL0     H81776  11.021   2.330   3.072  1.1849  0.0211  1.1051
  620MOL0     H81777  11.416   2.362   2.857  3.3224  0.3714  1.1110
  620MOL0     H81778  11.406   2.233   2.980 -2.0406 -0.3853  1.0344
  620MOL0     H81779  11.520   2.389   3.095 -0.1764 -2.4896 -2.2539
  620MOL0     H81780  11.360   2.403   3.154 -0.4719 -1.9592 -1.6006
  620MOL0     H81781  11.503   2.597   2.971  0.3795 -0.1479  0.0701
  620MOL0     H81782  11.454   2.616   3.139  1.8451  3.6918 -1.9822
  620MOL0     H81783  11.286   2.621   2.883  0.8921 -1.3823  0.2398
  620MOL0     H81784  11.225   2.582   3.052 -1.2485  2.9764  0.7456
  620MOL0     H81785  11.316   2.803   3.135 -4.3869  0.8028  0.7834
  620MOL0     H81786  11.188   2.822   3.013  0.0558  1.5167  1.3668
  620MOL0     H81787  11.355   2.869   2.843 -1.5127 -1.2886  0.7800
  620MOL0     H81788  11.487   2.831   2.960 -0.6418 -0.4129 -0.9069
  620MOL0     H81789  11.300   3.084   2.969 -0.1677 -1.2808  0.5275
  620MOL0     H81790  11.397   3.032   3.099  0.1145 -1.2848  0.4102
  620MOL0     H81791  11.604   3.050   2.977  0.0446 -0.3291  0.6874
  620MOL0     H81792  11.519   3.204   2.986  3.2528 -0.2301  0.3404
  620MOL0     H81793  11.579   2.897   2.716  4.3349  0.7061 -4.4148
  620MOL0     H81794  11.602   3.058   2.391 -1.1917  1.4639 -0.2602
  620MOL0     H81795  11.461   2.973   2.418 -0.1827  1.7200 -0.4662
  620MOL0     H81796  11.556   2.784   2.506 -2.2905  0.1142 -1.3431
  620MOL0     H81797  11.717   2.856   2.540 -0.3482  1.8691 -0.7159
  620MOL0     H81798  11.588   2.797   2.260 -0.2223 -3.1745  0.3914
  620MOL0     H81799  11.739   2.884   2.288 -0.3195 -0.2897  0.1619
  620MOL0     H81800  11.831   2.669   2.398  0.9468 -3.0394 -0.7639
  620MOL0     H81801  11.788   2.651   2.230 -1.3503  0.7265  0.3644
  620MOL0     H81802  11.546   2.358   2.443 -0.5747 -1.7121 -0.1070
  620MOL0     H81803  11.467   2.172   2.299 -1.0450  2.2138  2.7830
  620MOL0     H81804  11.184   1.935   2.045 -0.1330  0.8649 -0.6180
  620MOL0     H81805  11.149   1.714   1.939 -0.4845  1.0747 -0.8905
  620MOL0     H81806  11.216   1.416   1.738 -0.7834  0.7594  0.2379
  620MOL0     H81807  11.134   1.529   1.827  0.6647  1.2987 -1.8824
  620MOL0     H81808  11.154   1.362   1.989 -0.1977 -1.1610 -1.2780
  620MOL0     H81809  11.294   1.456   2.031  1.1061  1.9322 -2.4285
  620MOL0     H81810  11.326   1.214   2.022 -2.4294  0.2448 -0.7504
  620MOL0     H81811  11.436   1.296   1.893  1.0231 -1.8805  0.0157
  620MOL0     H81812  11.187   1.115   1.851  0.4424 -0.1068 -0.9248
  620MOL0     H81813  11.246   1.224   1.729 -5.4844 -3.1122 -0.4668
  620MOL0     H81814  11.471   1.091   1.764  0.2789 -0.5771  0.7993
  620MOL0     H81815  11.333   0.980   1.732  1.6892 -0.6679 -0.5510
  620MOL0     H81816  11.314   0.920   1.975 -1.0757  0.8891 -0.5255
  620MOL0     H81817  11.436   1.047   2.013 -2.4027  0.6565  0.6032
  620MOL0     H81818  11.436   0.781   1.844 -1.6781 -2.0138  2.8621
  620MOL0     H81819  11.575   0.893   1.849  0.6252 -1.3758  0.9099
  620MOL0     H81820  11.606   0.876   2.091  4.0419 -2.0183  0.1654
  620MOL0     H81821  11.606   0.714   2.010  0.3555  1.3199 -2.6441
  620MOL0     H81822  11.585   1.702   1.854 -0.0457 -0.2420 -0.7201
  620MOL0     H81823  11.599   1.915   1.965  0.3578 -0.5303  0.5522
  620MOL0     H81824  11.593   2.368   1.944  0.5753  0.8389 -0.7187
  620MOL0     H81825  11.698   2.547   2.091 -2.1722 -0.1676 -2.6835
  620MOL0     H81826  11.278   2.128   2.798  0.9013 -0.7462  1.2142
  620MOL0     H81827  11.094   1.934   2.787 -0.4434 -0.5776  1.8506
  620MOL0     H81828  10.806   1.749   2.766 -2.6582 -0.0421 -0.3345
  620MOL0     H81829  10.696   1.527   2.721  2.6384  0.4074 -1.5494
  620MOL0     H81830  10.815   1.272   2.734 -2.1833  1.4922 -1.1627
  620MOL0     H81831  10.651   1.293   2.700 -1.8073  1.4272  0.3063
  620MOL0     H81832  10.592   1.078   2.754 -0.3877 -1.6971  0.3827
  620MOL0     H81833  10.751   1.052   2.694 -0.5742  1.0329 -1.1397
  620MOL0     H81834  10.683   1.064   2.993  1.9401 -0.5942  2.1595
  620MOL0     H81835  10.844   1.064   2.923 -1.0316  1.8694 -0.8613
  620MOL0     H81836  10.814   0.832   2.829 -0.9366 -2.3482 -1.1054
  620MOL0     H81837  10.774   0.833   3.003 -1.8371 -1.9568 -0.2228
  620MOL0     H81838  10.423   0.704   2.828  0.4526 -0.2589 -0.4167
  620MOL0     H81839  10.828   1.364   3.087 -0.2306  2.2042  2.4751
  620MOL0     H81840  10.898   1.591   3.160 -1.7298 -0.3500  0.8261
  621MOL0     O81841   5.301  10.161   9.555 -0.2101  0.1685 -0.5058
  621MOL0     C81842   5.388  10.101   9.606  0.7204  0.9379 -0.5313
  621MOL0     O81843   5.393  10.074   9.741 -0.0143 -0.1119 -0.7152
  621MOL0     C81844   5.294  10.100   9.833 -0.6355 -0.4355 -0.3646
  621MOL0     C81845   5.282  10.025   9.940  0.4078  1.4030  1.2868
  621MOL0     C81846   5.185  10.047  10.039 -0.1483 -0.7218 -1.1359
  621MOL0     C81847   5.108  10.157  10.036 -0.6806 -0.0421 -0.1485
  621MOL0     O81848   5.030  10.179  10.145  0.0032  0.2733 -0.2165
  621MOL0     C81849   4.906  10.248  10.122  0.4814  0.5556 -0.4603
  621MOL0     C81850   4.900  10.403  10.162  0.1590  0.8006 -0.2069
  621MOL0     C81851   4.961  10.436  10.299  0.7269  0.1330 -0.6569
  621MOL0     C81852   5.003  10.582  10.295 -0.4493  0.0073 -0.1758
  621MOL0     C81853   5.022  10.648  10.435  0.0225  0.3649 -0.3103
  621MOL0     C81854   4.882  10.656  10.514  0.8646 -0.3784  0.8113
  621MOL0     C81855   4.784  10.739  10.432  0.1772  0.9356 -0.1787
  621MOL0     C81856   4.644  10.751  10.502 -0.2727 -0.3287 -0.8791
  621MOL0     N81857   4.557  10.830  10.418 -0.7866 -0.2394  0.5496
  621MOL0     C81858   4.476  10.785  10.314 -0.2936  0.4893 -0.5638
  621MOL0     C81859   4.417  10.904  10.281 -0.1905 -1.2424  1.2977
  621MOL0     C81860   4.329  10.915  10.168 -0.7000 -0.0840  0.0810
  621MOL0     C81861   4.187  10.851  10.183 -0.3533 -0.6685 -0.3903
  621MOL0     C81862   4.175  10.706  10.116 -0.4510  0.1898 -0.2628
  621MOL0     C81863   4.024  10.676  10.088  0.3529  0.0651 -0.6631
  621MOL0     O81864   3.942  10.707  10.215 -0.3005  0.9272  0.8365
  621MOL0     C81865   3.808  10.681  10.202 -0.8972 -0.1854 -0.3452
  621MOL0     C81866   3.734  10.691  10.322  0.4789 -0.8875  0.2288
  621MOL0     C81867   3.608  10.629  10.324  0.0875  0.9200 -0.4614
  621MOL0     C81868   3.550  10.575  10.204 -0.7648  0.1447 -1.1221
  621MOL0     C81869   3.411  10.521  10.203  0.0537  0.3443  0.5545
  621MOL0     O81870   3.360  10.492  10.321  0.4157 -0.6808  0.4227
  621MOL0     C81871   3.237  10.447  10.332  0.2002  0.2788  0.2527
  621MOL0     C81872   3.188  10.316  10.303 -0.3024 -0.1788  0.2886
  621MOL0     C81873   3.055  10.276  10.327 -0.3953  0.2904  0.1012
  621MOL0     C81874   2.960  10.370  10.374 -0.2711 -0.4375 -0.3458
  621MOL0     O81875   2.827  10.330  10.386 -1.0206 -0.0624 -0.0277
  621MOL0     C81876   2.735  10.412  10.457 -0.0471 -0.1339 -0.2741
  621MOL0     C81877   2.754  10.376  10.608 -0.8950 -0.1623  0.1733
  621MOL0     C81878   2.648  10.434  10.697 -0.1355 -0.7328  0.2917
  621MOL0     C81879   2.657  10.594  10.719  0.8332 -0.1292 -0.0351
  621MOL0     C81880   2.525  10.646  10.773  0.1035 -0.6979 -0.0306
  621MOL0     C81881   2.418  10.679  10.661 -0.6842  0.5676 -0.0414
  621MOL0     C81882   2.285  10.728  10.730  0.0041 -0.3045  0.7377
  621MOL0     C81883   2.173  10.718  10.623 -0.2360 -0.3360  0.8620
  621MOL0    Cl81884   2.147  10.567  10.545 -0.5524  0.1989 -0.3261
  621MOL0     C81885   3.005  10.501  10.404 -0.2983  0.7057  0.0937
  621MOL0     C81886   3.140  10.533  10.386  0.7451 -0.1941 -0.4182
  621MOL0     O81887   3.350  10.497  10.098 -0.3227  0.5724 -0.3895
  621MOL0     C81888   3.621  10.580  10.082 -0.7509  0.0084  0.6340
  621MOL0     C81889   3.746  10.642  10.081 -0.1842 -0.0492  0.4659
  621MOL0     N81890   4.459  11.012  10.355 -0.4207  0.5148 -0.2828
  621MOL0     N81891   4.552  10.965  10.430 -1.0302  0.0389 -0.1431
  621MOL0     C81892   5.130  10.249   9.933  0.5780 -0.0563 -0.1371
  621MOL0     C81893   5.210  10.215   9.822  0.2201 -0.6419 -0.7226
  621MOL0     C81894   5.485  10.035   9.526 -0.3145  0.4511  0.3588
  621MOL0     C81895   5.471  10.026   9.383  0.9776 -0.5818 -0.6583
  621MOL0     C81896   5.553   9.963   9.296  0.5153  0.5521  0.3549
  621MOL0     C81897   5.672   9.910   9.346  0.2325 -0.2364 -0.2106
  621MOL0     O81898   5.768   9.846   9.274  0.3185  0.1413  0.4810
  621MOL0     C81899   5.766   9.860   9.133  0.6193 -0.2276  0.3318
  621MOL0     C81900   5.887   9.804   9.070 -0.2507  1.0806  0.2755
  621MOL0     C81901   6.024   9.851   9.131  0.3878  0.4324  0.0695
  621MOL0     C81902   6.137   9.749   9.105 -0.6939 -0.6589  0.3744
  621MOL0     C81903   6.249   9.796   9.189 -0.4941 -0.4105 -0.5321
  621MOL0     C81904   6.336   9.854   9.249  0.1934  0.5826  0.2403
  621MOL0     C81905   5.698   9.923   9.488  0.5003  0.1072 -0.6273
  621MOL0     C81906   5.598   9.981   9.567  0.1110 -0.3774  0.2737
  621MOL0     H81907   5.340   9.939   9.970 -1.8121  0.0688  1.9610
  621MOL0     H81908   5.186   9.974  10.118 -0.7270  1.5888  1.1450
  621MOL0     H81909   4.845  10.196  10.197  0.3436 -0.1921 -1.0828
  621MOL0     H81910   4.868  10.221  10.022  3.9813  1.5406 -2.1925
  621MOL0     H81911   4.801  10.449  10.161  0.1354  0.7502 -0.1563
  621MOL0     H81912   4.959  10.446  10.080 -2.9392  0.9020 -2.5524
  621MOL0     H81913   5.050  10.374  10.316 -0.6118 -2.1618 -1.5500
  621MOL0     H81914   4.888  10.414  10.378  1.0222  0.6723 -0.2246
  621MOL0     H81915   5.098  10.574  10.242 -0.2255 -4.4439  0.4821
  621MOL0     H81916   4.932  10.636  10.232 -1.8088 -2.7065 -1.1366
  621MOL0     H81917   5.056  10.752  10.435  1.3486 -0.0139 -2.1920
  621MOL0     H81918   5.088  10.592  10.502  0.9339  2.0547  0.2824
  621MOL0     H81919   4.903  10.701  10.612  0.0186  1.0037  0.3859
  621MOL0     H81920   4.837  10.558  10.533  1.0823 -0.1595  2.6889
  621MOL0     H81921   4.822  10.839  10.412 -3.0381  2.2939 -0.1195
  621MOL0     H81922   4.756  10.699  10.333 -1.8728 -1.0570  1.0971
  621MOL0     H81923   4.651  10.815  10.591 -0.9966  0.3487 -1.2917
  621MOL0     H81924   4.602  10.655  10.532  0.0640 -1.4617 -3.7060
  621MOL0     H81925   4.479  10.694  10.254  4.8111 -0.6528  0.8897
  621MOL0     H81926   4.380  10.876  10.079  0.5103  2.5109 -0.4701
  621MOL0     H81927   4.328  11.020  10.137 -0.2832  0.2930  1.2724
  621MOL0     H81928   4.108  10.920  10.152 -0.4086 -0.1433  0.9010
  621MOL0     H81929   4.172  10.833  10.290  0.3755 -1.3120 -0.3865
  621MOL0     H81930   4.221  10.708  10.017 -2.5037  1.1290 -1.2696
  621MOL0     H81931   4.222  10.635  10.184 -0.2023  1.7748  1.3046
  621MOL0     H81932   4.016  10.572  10.056  0.2425 -0.1729  0.0973
  621MOL0     H81933   3.982  10.745  10.015  0.5055  1.2112  0.2898
  621MOL0     H81934   3.774  10.745  10.407 -0.1015  0.5127 -0.3532
  621MOL0     H81935   3.550  10.630  10.416  1.6453  1.4368  0.5481
  621MOL0     H81936   3.266  10.246  10.276 -0.1805 -0.1926  0.6605
  621MOL0     H81937   3.031  10.173  10.300 -1.0362  1.5483 -5.3096
  621MOL0     H81938   2.633  10.386  10.424 -0.2059  1.7648 -1.4804
  621MOL0     H81939   2.732  10.520  10.441 -0.5858  0.0268  0.8532
  621MOL0     H81940   2.857  10.399  10.637  0.0622 -0.6124 -2.6200
  621MOL0     H81941   2.754  10.266  10.612 -0.9842 -0.2977 -2.1553
  621MOL0     H81942   2.648  10.386  10.795  0.9807 -3.0560 -0.7790
  621MOL0     H81943   2.547  10.407  10.664 -1.4741  2.1005  1.6819
  621MOL0     H81944   2.739  10.632  10.781 -0.5600  0.2474  1.6489
  621MOL0     H81945   2.672  10.623  10.614 -1.8612  1.2131 -0.1286
  621MOL0     H81946   2.546  10.732  10.837  1.5072 -1.5698  0.7549
  621MOL0     H81947   2.471  10.570  10.831  1.3323 -0.5698  1.3515
  621MOL0     H81948   2.407  10.592  10.596  0.3558  0.3313  0.0716
  621MOL0     H81949   2.457  10.755  10.592 -0.8396  0.3462 -0.3771
  621MOL0     H81950   2.254  10.654  10.805 -1.4046 -0.8142 -0.3037
  621MOL0     H81951   2.296  10.828  10.774  0.3445  0.7869 -1.7026
  621MOL0     H81952   2.194  10.786  10.540 -1.1867  1.8203  2.3172
  621MOL0     H81953   2.078  10.744  10.670 -1.9894 -0.8754 -2.0864
  621MOL0     H81954   2.943  10.570  10.460  0.0042  0.8405  0.2653
  621MOL0     H81955   3.170  10.637  10.395 -1.3222  0.3490  1.2332
  621MOL0     H81956   3.578  10.546   9.989  2.9732  3.3326 -2.7136
  621MOL0     H81957   3.784  10.635   9.980  2.0379  0.5147  1.2159
  621MOL0     H81958   5.080  10.345   9.933  2.3480  0.9154  0.4315
  621MOL0     H81959   5.221  10.288   9.742  2.5856 -1.6335 -1.4154
  621MOL0     H81960   5.387  10.077   9.337 -1.4627 -3.8037 -0.0540
  621MOL0     H81961   5.526   9.951   9.192  1.4469  0.8934  0.0664
  621MOL0     H81962   5.742   9.966   9.115 -3.9493 -0.8380  1.5483
  621MOL0     H81963   5.676   9.815   9.088 -1.5040  3.6066  0.2910
  621MOL0     H81964   5.886   9.695   9.084 -0.4933  0.7312 -2.0267
  621MOL0     H81965   5.883   9.809   8.960  2.2951  1.1675  0.1212
  621MOL0     H81966   6.007   9.869   9.237  0.8910 -4.5636  1.2432
  621MOL0     H81967   6.051   9.948   9.087 -0.0805  3.2454  5.2409
  621MOL0     H81968   6.103   9.654   9.145 -2.6552  0.2248  0.9321
  621MOL0     H81969   6.167   9.734   9.000  1.8949  1.8519  0.6211
  621MOL0     H81970   6.415   9.891   9.312  0.8493 -0.7250  0.2117
  621MOL0     H81971   5.796   9.901   9.531 -0.9510  1.3396  3.8728
  621MOL0     H81972   5.619  10.001   9.672 -2.1709  2.4301  0.3177
  622MOL0     O81973   1.104   0.494   8.642 -1.1171 -0.4243  0.2137
  622MOL0     C81974   1.014   0.570   8.602 -0.1107 -0.7084  0.4611
  622MOL0     O81975   0.913   0.631   8.677 -0.4456 -0.6190  0.2855
  622MOL0     C81976   0.904   0.615   8.812  0.2715 -0.5686 -0.4482
  622MOL0     C81977   0.829   0.718   8.884  0.1259 -0.0541 -0.5031
  622MOL0     C81978   0.804   0.704   9.022 -0.2252 -0.5821 -0.6274
  622MOL0     C81979   0.862   0.600   9.100 -0.1642  0.2268  0.5238
  622MOL0     O81980   0.845   0.593   9.233  0.0876 -0.2238 -0.3554
  622MOL0     C81981   0.934   0.519   9.316  0.5413 -0.4419 -0.3447
  622MOL0     C81982   0.900   0.573   9.457 -1.0659 -0.5110  0.5760
  622MOL0     C81983   0.764   0.573   9.505 -0.0208  0.0808  0.8538
  622MOL0     C81984   0.762   0.619   9.653 -0.0369 -1.0091 -0.3157
  622MOL0     C81985   0.787   0.764   9.694  0.5146 -0.6702 -0.4745
  622MOL0     C81986   0.742   0.801   9.838 -0.4273  0.0529 -1.1919
  622MOL0     C81987   0.766   0.948   9.876 -0.6932  0.1193 -0.2866
  622MOL0     C81988   0.709   0.973  10.024  0.0929 -0.3631  0.0890
  622MOL0     N81989   0.572   0.925  10.038  0.0927  0.1204  0.3595
  622MOL0     C81990   0.459   1.002  10.023 -0.2083 -0.0433  0.0523
  622MOL0     C81991   0.359   0.924  10.078  0.0292  0.0733 -0.2885
  622MOL0     C81992   0.215   0.968  10.086 -0.2983  0.3349 -0.1396
  622MOL0     C81993   0.168   1.036   9.956 -0.2783  0.4580 -0.8840
  622MOL0     C81994   0.165   0.927   9.845  0.2819 -1.0192  0.6254
  622MOL0     C81995   0.122   0.971   9.704  0.9347 -0.7038  0.5834
  622MOL0     O81996   0.138   1.111   9.678  0.0841 -0.4934  0.4623
  622MOL0     C81997   0.270   1.146   9.644  1.2404  0.7364  0.5717
  622MOL0     C81998   0.309   1.261   9.701 -0.6221 -0.2568  0.9625
  622MOL0     C81999   0.439   1.308   9.687  0.0050  0.3286  0.1804
  622MOL0     C82000   0.536   1.240   9.603  1.3484 -0.4111  0.2324
  622MOL0     C82001   0.673   1.288   9.609  0.3865 -0.0386  0.1506
  622MOL0     O82002   0.764   1.234   9.515 -1.0973 -0.0432  0.2632
  622MOL0     C82003   0.901   1.253   9.535  0.6471 -0.2031 -0.3253
  622MOL0     C82004   0.950   1.383   9.574  0.5006  0.6019 -1.0132
  622MOL0     C82005   1.084   1.417   9.579 -0.6760 -0.6133  0.2185
  622MOL0     C82006   1.183   1.318   9.562  1.7508  1.0829 -0.8945
  622MOL0     O82007   1.316   1.335   9.585  0.2667  0.7926 -0.0121
  622MOL0     C82008   1.392   1.429   9.509  0.6516 -0.4050 -0.3013
  622MOL0     C82009   1.542   1.400   9.539  0.8127 -0.0651 -0.0496
  622MOL0     C82010   1.650   1.487   9.475  0.3120 -0.2240 -0.6168
  622MOL0     C82011   1.762   1.493   9.585  0.1877  1.0496 -0.8064
  622MOL0     C82012   1.892   1.571   9.549 -0.0218 -0.0907 -0.4053
  622MOL0     C82013   1.838   1.719   9.545  0.4907  0.1266 -0.1072
  622MOL0     C82014   1.956   1.819   9.542 -0.0470  0.4402 -0.1514
  622MOL0     C82015   1.927   1.965   9.499 -0.5907  0.0805 -0.1126
  622MOL0    Cl82016   1.835   2.064   9.619  0.2321 -0.0780 -0.4065
  622MOL0     C82017   1.139   1.190   9.520 -0.8448  0.2317 -0.2559
  622MOL0     C82018   1.004   1.157   9.505  0.9925  0.1365  0.6834
  622MOL0     O82019   0.705   1.359   9.706 -0.3314  0.1727 -0.1972
  622MOL0     C82020   0.500   1.118   9.535  0.2727 -0.5431  0.3302
  622MOL0     C82021   0.370   1.073   9.560 -0.1214 -0.2939  0.3546
  622MOL0     N82022   0.411   0.802  10.112 -0.1971  0.2593 -0.4453
  622MOL0     N82023   0.540   0.807  10.090 -0.3965 -0.3157  0.9866
  622MOL0     C82024   0.937   0.505   9.025 -0.4367  0.6764  0.1767
  622MOL0     C82025   0.963   0.514   8.890  0.3435  0.4209 -0.4637
  622MOL0     C82026   0.995   0.588   8.458 -0.6984 -0.1955  0.1828
  622MOL0     C82027   1.048   0.509   8.355 -0.3161  0.4077 -0.7089
  622MOL0     C82028   1.016   0.541   8.222  0.2079 -1.0307  0.1594
  622MOL0     C82029   0.945   0.654   8.197  0.9646  0.9709  0.3310
  622MOL0     O82030   0.909   0.667   8.063  0.1011  0.3483  0.1770
  622MOL0     C82031   0.878   0.796   8.006 -0.7221  0.2141 -0.2914
  622MOL0     C82032   0.896   0.770   7.860 -0.8553 -0.0674  0.4882
  622MOL0     C82033   0.931   0.905   7.778 -0.8299  0.2880 -0.3126
  622MOL0     C82034   1.031   0.879   7.664  0.2354  0.0660 -0.6562
  622MOL0     C82035   0.950   0.861   7.541  0.5743  0.1257  0.8239
  622MOL0     C82036   0.886   0.873   7.439 -0.5374  0.1234  1.1867
  622MOL0     C82037   0.887   0.732   8.299  0.1716  0.0103  1.2831
  622MOL0     C82038   0.922   0.697   8.426  0.5787 -0.5496 -1.0340
  622MOL0     H82039   0.792   0.803   8.828 -0.3092 -1.0417 -1.7955
  622MOL0     H82040   0.754   0.780   9.081 -1.8149 -1.8484 -0.2786
  622MOL0     H82041   1.041   0.531   9.295  1.1565 -0.4041  2.4213
  622MOL0     H82042   0.911   0.412   9.319  2.9612 -1.0125 -0.0772
  622MOL0     H82043   0.930   0.678   9.458  0.9552 -0.9850 -1.2446
  622MOL0     H82044   0.952   0.514   9.534  0.1340  0.9807  0.9508
  622MOL0     H82045   0.724   0.471   9.500  2.6170 -1.0874  1.9954
  622MOL0     H82046   0.713   0.646   9.440  2.2308  1.3498  0.4043
  622MOL0     H82047   0.658   0.597   9.679 -1.5732  2.5384 -2.6214
  622MOL0     H82048   0.834   0.555   9.704 -0.3429 -2.3080 -1.4243
  622MOL0     H82049   0.735   0.838   9.632 -0.5873 -3.0401 -2.5806
  622MOL0     H82050   0.890   0.800   9.696 -0.0335  1.0790  2.5765
  622MOL0     H82051   0.789   0.733   9.910 -2.3568 -0.2496 -0.1425
  622MOL0     H82052   0.635   0.777   9.846 -0.1703 -0.5379  3.2870
  622MOL0     H82053   0.873   0.968   9.873 -0.8639  1.0792 -0.5373
  622MOL0     H82054   0.705   1.015   9.815 -1.9349 -3.1093 -2.8900
  622MOL0     H82055   0.712   1.077  10.057 -1.3794  0.0999 -1.0964
  622MOL0     H82056   0.762   0.920  10.103 -2.0077  1.1795  2.7012
  622MOL0     H82057   0.446   1.106   9.994  1.7756  0.0933 -0.5142
  622MOL0     H82058   0.201   1.026  10.178 -0.7430 -0.8001  0.5307
  622MOL0     H82059   0.145   0.885  10.098 -0.8014  0.8843  0.8950
  622MOL0     H82060   0.233   1.123   9.944  0.9500  0.1086  2.2806
  622MOL0     H82061   0.067   1.073   9.973 -0.9831 -1.3828 -0.8327
  622MOL0     H82062   0.263   0.879   9.833  0.7897  0.3935 -1.6256
  622MOL0     H82063   0.095   0.848   9.873 -1.0862  1.0136  3.4911
  622MOL0     H82064   0.016   0.946   9.698  0.6338  0.8326 -3.0326
  622MOL0     H82065   0.163   0.912   9.622 -0.0674  1.9154 -1.9980
  622MOL0     H82066   0.244   1.326   9.759 -0.4479  3.0427 -2.2093
  622MOL0     H82067   0.464   1.396   9.745 -0.5532  0.9269 -0.4680
  622MOL0     H82068   0.879   1.464   9.592  2.1265  1.7304  0.7823
  622MOL0     H82069   1.120   1.516   9.604  0.3857 -0.5682 -1.3464
  622MOL0     H82070   1.370   1.529   9.549 -0.7311 -1.1120  0.7881
  622MOL0     H82071   1.378   1.435   9.401 -2.1233 -3.8747 -0.2945
  622MOL0     H82072   1.568   1.295   9.524  2.0177  0.2487 -0.2552
  622MOL0     H82073   1.550   1.414   9.647  1.3114 -3.3403  0.4372
  622MOL0     H82074   1.624   1.589   9.445 -1.3089 -0.8827 -1.6042
  622MOL0     H82075   1.675   1.441   9.379 -0.9453  0.4685 -1.3048
  622MOL0     H82076   1.741   1.517   9.689  2.9994 -2.1811  0.6971
  622MOL0     H82077   1.791   1.388   9.594  2.7713  1.7274 -0.4179
  622MOL0     H82078   1.932   1.534   9.454 -0.1523  4.5248 -2.5220
  622MOL0     H82079   1.971   1.556   9.623 -0.0524 -0.4132 -0.4358
  622MOL0     H82080   1.773   1.720   9.633  1.3773 -2.2614  0.6672
  622MOL0     H82081   1.778   1.725   9.453 -0.2976 -2.7032  0.1200
  622MOL0     H82082   1.997   1.829   9.643  0.4142  0.8084 -0.3723
  622MOL0     H82083   2.040   1.777   9.486 -1.7529 -0.8847 -1.8756
  622MOL0     H82084   1.871   1.955   9.405 -0.1739  1.0022 -0.4670
  622MOL0     H82085   2.017   2.021   9.472 -2.0634  1.8780 -1.5942
  622MOL0     H82086   1.212   1.114   9.496 -2.2693 -0.6180 -2.2495
  622MOL0     H82087   0.969   1.058   9.478 -1.8458  1.0830  0.5024
  622MOL0     H82088   0.572   1.065   9.474  2.9378  1.2669  1.6580
  622MOL0     H82089   0.354   0.984   9.499 -1.0954 -0.2439  0.5228
  622MOL0     H82090   0.988   0.428   9.082 -0.2245  1.1776  0.6742
  622MOL0     H82091   1.024   0.441   8.837  0.5914  0.2704  0.0183
  622MOL0     H82092   1.098   0.417   8.383  1.7088  2.2010  2.1126
  622MOL0     H82093   1.051   0.482   8.139 -1.6637 -1.3803 -0.4228
  622MOL0     H82094   0.946   0.872   8.047  0.5351 -0.6806 -0.6745
  622MOL0     H82095   0.775   0.827   8.026 -1.1275 -1.1976 -0.0801
  622MOL0     H82096   0.974   0.694   7.852 -1.0203 -0.0412 -1.9052
  622MOL0     H82097   0.812   0.727   7.805 -0.9138  0.9893 -0.2783
  622MOL0     H82098   0.985   0.971   7.846 -0.6082  1.9124 -1.9708
  622MOL0     H82099   0.834   0.942   7.742 -1.6175 -2.3227 -1.0973
  622MOL0     H82100   1.103   0.961   7.659 -1.0845  1.5116  2.0895
  622MOL0     H82101   1.083   0.784   7.675 -2.8259 -1.6580  0.1719
  622MOL0     H82102   0.845   0.894   7.342  0.5510 -0.6497  0.5486
  622MOL0     H82103   0.829   0.820   8.273 -0.2198 -0.1662  1.5398
  622MOL0     H82104   0.882   0.763   8.502  1.2577  0.0606 -1.2012
  623MOL0     O82105   0.965  11.137   3.469  0.0659 -0.0600 -0.5201
  623MOL0     C82106   1.040  11.073   3.395  0.7378 -0.4845  0.4686
  623MOL0     O82107   1.035  11.086   3.258  0.3687 -0.3860 -0.3600
  623MOL0     C82108   0.948  11.162   3.191 -0.3923  0.0865  0.2119
  623MOL0     C82109   0.812  11.146   3.198  0.6906  0.3861  0.2705
  623MOL0     C82110   0.720  11.217   3.118  0.7718  0.2417  0.6026
  623MOL0     C82111   0.769  11.311   3.023 -1.1178  0.0977 -1.3040
  623MOL0     O82112   0.677  11.389   2.953  0.2739 -0.0509  0.1206
  623MOL0     C82113   0.729  11.483   2.854 -0.1625  0.5502  0.7232
  623MOL0     C82114   0.615  11.567   2.800 -0.1125 -0.0636 -0.5119
  623MOL0     C82115   0.518  11.470   2.732 -0.7643  0.1603  0.8183
  623MOL0     C82116   0.577  11.391   2.605 -1.0764  0.0576 -1.2752
  623MOL0     C82117   0.469  11.327   2.518  0.2792  0.2234  0.4755
  623MOL0     C82118   0.536  11.233   2.403  0.4436  0.4842 -0.3914
  623MOL0     C82119   0.431  11.177   2.312  0.0303  0.1948 -0.1096
  623MOL0     C82120   0.364  11.285   2.227 -0.3664  0.2001  0.7270
  623MOL0     N82121   0.361  11.224   2.096  0.1054  0.5270 -0.7919
  623MOL0     C82122   0.467  11.186   2.011  0.5072  0.4717  0.1496
  623MOL0     C82123   0.422  11.154   1.894  0.0464 -0.0116 -0.1759
  623MOL0     C82124   0.514  11.138   1.779  0.2039  0.1868 -0.0421
  623MOL0     C82125   0.431  11.115   1.645  0.7059  0.7928 -0.6092
  623MOL0     C82126   0.508  11.189   1.539  0.9185  0.2504  0.1110
  623MOL0     C82127   0.434  11.171   1.401 -1.1886 -0.3649 -0.2123
  623MOL0     O82128   0.486  11.271   1.304  0.4633 -0.1862  0.7122
  623MOL0     C82129   0.401  11.380   1.275  0.5487  0.1069 -0.5182
  623MOL0     C82130   0.402  11.489   1.360 -0.1095 -0.2142  0.0054
  623MOL0     C82131   0.348  11.608   1.323  0.3525 -0.1965  0.5048
  623MOL0     C82132   0.254  11.605   1.216 -0.7254 -0.8472 -0.3209
  623MOL0     C82133   0.153  11.713   1.205 -0.4584  0.2744 -0.4291
  623MOL0     O82134   0.162  11.825   1.281  0.2096  0.0529 -0.3406
  623MOL0     C82135   0.098  11.949   1.267  0.7818 -0.3672  0.4144
  623MOL0     C82136  -0.017  11.982   1.186 -0.0770 -0.2740  1.3928
  623MOL0     C82137  -0.096  12.097   1.206 -0.4123  0.1826 -0.6770
  623MOL0     C82138  -0.058  12.188   1.302  0.6350 -0.4257 -0.0972
  623MOL0     O82139  -0.142  12.292   1.329 -0.2043 -0.2943 -0.2301
  623MOL0     C82140  -0.084  12.422   1.322  0.6898 -1.3325 -0.2119
  623MOL0     C82141  -0.046  12.456   1.181 -0.1471 -0.7071  0.9234
  623MOL0     C82142  -0.164  12.486   1.092 -0.8639  0.5706  0.5993
  623MOL0     C82143  -0.158  12.415   0.957 -0.1686 -0.5102 -0.0944
  623MOL0     C82144  -0.043  12.462   0.861 -1.2196 -0.1147  0.3281
  623MOL0     C82145  -0.031  12.606   0.816 -0.3083  0.2285 -0.2882
  623MOL0     C82146   0.074  12.638   0.703 -0.1089 -0.3795  0.1771
  623MOL0     C82147   0.074  12.787   0.650  0.2603 -0.5955  0.4799
  623MOL0    Cl82148   0.112  12.912   0.783 -0.0437 -0.2710  0.1325
  623MOL0     C82149   0.070  12.175   1.370  0.3629 -0.8023  1.1255
  623MOL0     C82150   0.132  12.053   1.352  0.0869  0.0555  1.0862
  623MOL0     O82151   0.072  11.705   1.114 -0.2944  0.0963 -0.2087
  623MOL0     C82152   0.255  11.488   1.132 -0.3137 -0.6046  1.3771
  623MOL0     C82153   0.323  11.379   1.157 -0.0124 -0.1158 -0.2695
  623MOL0     N82154   0.289  11.181   1.893 -0.8032 -0.0315  0.0357
  623MOL0     N82155   0.255  11.223   2.011  1.0774  0.8858  0.7289
  623MOL0     C82156   0.908  11.327   3.022  0.4266  0.6213 -0.6124
  623MOL0     C82157   0.998  11.260   3.102  0.4625  1.0083 -0.7375
  623MOL0     C82158   1.139  10.985   3.449 -0.7054  0.3057 -1.2356
  623MOL0     C82159   1.159  10.964   3.588 -1.0390  0.4470 -0.1255
  623MOL0     C82160   1.257  10.883   3.636  0.3435  0.4362  0.1805
  623MOL0     C82161   1.340  10.808   3.549 -0.6974 -0.2796 -0.9314
  623MOL0     O82162   1.433  10.723   3.599  0.1120 -0.0794 -0.4765
  623MOL0     C82163   1.545  10.776   3.668  0.2137  0.1450  0.2601
  623MOL0     C82164   1.654  10.666   3.670  0.0721  0.0452  0.1805
  623MOL0     C82165   1.751  10.705   3.781  0.2341  0.4994 -1.1653
  623MOL0     C82166   1.865  10.594   3.776 -0.6598  0.1272  0.0693
  623MOL0     C82167   1.979  10.657   3.847  0.5313  0.4035  0.4866
  623MOL0     C82168   2.078  10.685   3.904 -0.0405  0.1991  0.4845
  623MOL0     C82169   1.315  10.815   3.415  0.1254 -0.7846 -0.5021
  623MOL0     C82170   1.219  10.903   3.367  0.0593 -0.2235 -0.3783
  623MOL0     H82171   0.773  11.084   3.278  0.2439  1.1202  0.6278
  623MOL0     H82172   0.615  11.191   3.113  0.4809  1.2766  1.1100
  623MOL0     H82173   0.782  11.426   2.777  0.0330  2.2057 -0.4129
  623MOL0     H82174   0.799  11.542   2.913  1.7123  1.1302 -1.8845
  623MOL0     H82175   0.645  11.642   2.727 -0.6361 -1.3700 -2.1294
  623MOL0     H82176   0.563  11.619   2.881  1.1726  0.4754  0.0065
  623MOL0     H82177   0.431  11.523   2.692  0.2833  1.2899 -0.0412
  623MOL0     H82178   0.480  11.393   2.800 -4.3244 -0.1871 -1.3195
  623MOL0     H82179   0.654  11.447   2.551  2.0449 -0.1987  2.4371
  623MOL0     H82180   0.629  11.306   2.650 -2.3054 -0.9830 -1.7806
  623MOL0     H82181   0.419  11.407   2.462 -1.5906 -2.1639 -1.4781
  623MOL0     H82182   0.392  11.277   2.577 -0.6520 -1.5292 -2.0797
  623MOL0     H82183   0.576  11.145   2.455 -1.0980  0.2756  0.5165
  623MOL0     H82184   0.607  11.294   2.347  0.1709  1.4622  0.3068
  623MOL0     H82185   0.466  11.093   2.252 -2.4312 -2.9690  2.5233
  623MOL0     H82186   0.361  11.140   2.388  1.5545 -0.5305  0.9853
  623MOL0     H82187   0.417  11.380   2.219  1.8887 -1.1137 -0.8084
  623MOL0     H82188   0.261  11.300   2.262  0.1045  0.0441  2.2342
  623MOL0     H82189   0.574  11.195   2.029  1.2543 -0.1997 -3.3217
  623MOL0     H82190   0.579  11.051   1.790 -2.1577 -1.4525  2.0868
  623MOL0     H82191   0.575  11.226   1.754  0.9522 -0.9276 -2.3808
  623MOL0     H82192   0.328  11.152   1.653 -0.0186 -1.5258  4.2759
  623MOL0     H82193   0.425  11.013   1.606  1.8143  0.5585 -0.2122
  623MOL0     H82194   0.496  11.297   1.551  0.4300  0.2972 -0.7611
  623MOL0     H82195   0.611  11.152   1.534  1.2868  1.3938 -2.3243
  623MOL0     H82196   0.327  11.191   1.412 -1.1025  1.0688 -1.4911
  623MOL0     H82197   0.459  11.071   1.366 -0.5837 -0.3425  0.1537
  623MOL0     H82198   0.472  11.479   1.443 -1.1678 -0.6986  0.8616
  623MOL0     H82199   0.365  11.697   1.383  0.3670  0.1579 -0.0208
  623MOL0     H82200  -0.054  11.906   1.118 -2.7335  2.2544 -0.2613
  623MOL0     H82201  -0.188  12.111   1.149 -0.5553  0.9410 -0.2655
  623MOL0     H82202   0.005  12.438   1.384  1.1949  1.1582 -1.4430
  623MOL0     H82203  -0.158  12.491   1.362 -0.0786 -0.4049 -3.0285
  623MOL0     H82204   0.019  12.380   1.136 -0.5430 -0.5560  0.0618
  623MOL0     H82205   0.008  12.550   1.187 -0.1009 -0.7730  1.5457
  623MOL0     H82206  -0.180  12.594   1.093  1.0798  0.9612  3.7789
  623MOL0     H82207  -0.255  12.446   1.136 -0.8376  0.3840  0.4862
  623MOL0     H82208  -0.154  12.308   0.981  3.5847 -0.4207  0.2597
  623MOL0     H82209  -0.252  12.434   0.905  0.5707 -2.5929 -2.4426
  623MOL0     H82210  -0.065  12.406   0.769 -1.4400 -0.7686  0.7714
  623MOL0     H82211   0.057  12.432   0.893 -1.1762  1.2650  1.5679
  623MOL0     H82212  -0.014  12.680   0.895  2.3542 -0.4335 -0.1394
  623MOL0     H82213  -0.128  12.625   0.769  0.3524  1.2628 -1.2832
  623MOL0     H82214   0.177  12.630   0.741  0.2556  3.2369  0.3600
  623MOL0     H82215   0.051  12.570   0.621 -1.7872  0.4937 -0.1104
  623MOL0     H82216  -0.024  12.822   0.618  1.3267  4.5204  1.8443
  623MOL0     H82217   0.148  12.795   0.570  0.1403 -0.0314  0.4238
  623MOL0     H82218   0.090  12.248   1.447 -1.3352 -2.0158  2.8105
  623MOL0     H82219   0.206  12.019   1.424 -0.2960 -1.6501  0.7259
  623MOL0     H82220   0.193  11.482   1.043  1.8802  1.6729 -0.4615
  623MOL0     H82221   0.328  11.294   1.091  0.7888  1.4284 -2.3138
  623MOL0     H82222   0.945  11.409   2.962 -0.7038  0.5975 -1.3605
  623MOL0     H82223   1.101  11.287   3.080  0.5501  0.5947 -0.8505
  623MOL0     H82224   1.105  11.019   3.664  1.0420  1.9123  0.3964
  623MOL0     H82225   1.269  10.863   3.742  1.1343  0.8356  0.1697
  623MOL0     H82226   1.518  10.810   3.769  0.0752  0.3645  0.1501
  623MOL0     H82227   1.584  10.867   3.623 -2.0812  0.7806 -0.6033
  623MOL0     H82228   1.635  10.562   3.700  3.9415 -1.0651 -0.5900
  623MOL0     H82229   1.699  10.658   3.571 -0.5550  2.0673 -0.3022
  623MOL0     H82230   1.703  10.690   3.878  1.2833 -3.9496 -1.1096
  623MOL0     H82231   1.776  10.810   3.769 -2.4649  1.3002 -0.5343
  623MOL0     H82232   1.836  10.491   3.800  1.4730 -1.4635 -3.4742
  623MOL0     H82233   1.900  10.578   3.674 -1.3770 -0.0442 -0.1530
  623MOL0     H82234   2.172  10.702   3.953 -0.3979  1.4773  0.7815
  623MOL0     H82235   1.347  10.747   3.337 -0.1735 -0.6540 -0.7436
  623MOL0     H82236   1.205  10.910   3.259 -1.9036  1.0767 -0.0875
  624MOL0     O82237   7.340   2.646   2.360 -0.3489  0.1281 -1.0157
  624MOL0     C82238   7.294   2.653   2.248 -1.3141  0.6705 -0.0245
  624MOL0     O82239   7.181   2.594   2.206 -0.1017 -0.4869  0.3730
  624MOL0     C82240   7.112   2.527   2.304 -0.1688  0.6449  0.4047
  624MOL0     C82241   7.076   2.586   2.429  0.2032 -0.4438  0.4175
  624MOL0     C82242   7.013   2.512   2.530  0.3066 -1.0250 -0.3070
  624MOL0     C82243   6.985   2.375   2.510 -0.6465 -0.5425  0.1596
  624MOL0     O82244   6.942   2.294   2.607  0.3729  0.7041 -0.0955
  624MOL0     C82245   6.959   2.336   2.745 -0.3308 -0.1635 -0.5942
  624MOL0     C82246   6.921   2.202   2.822  0.0783 -0.0022  0.0706
  624MOL0     C82247   6.994   2.188   2.955  0.0080 -0.2772 -0.1699
  624MOL0     C82248   6.933   2.065   3.028 -0.2155 -0.7459  0.5733
  624MOL0     C82249   6.959   2.051   3.184  0.7319  0.4816  0.2591
  624MOL0     C82250   7.092   2.094   3.245 -0.5870 -0.0248 -0.1742
  624MOL0     C82251   7.213   2.004   3.211 -0.7595 -0.7821 -0.6830
  624MOL0     C82252   7.330   2.047   3.305 -0.4807  0.0831  0.3631
  624MOL0     N82253   7.458   1.999   3.260  0.0711 -0.1969  0.0090
  624MOL0     C82254   7.530   1.892   3.304 -0.3351  0.1013  0.6873
  624MOL0     C82255   7.649   1.908   3.246  0.5751 -0.4763 -0.9740
  624MOL0     C82256   7.766   1.811   3.298 -0.4592 -0.0805 -0.7598
  624MOL0     C82257   7.906   1.865   3.290  0.9106  0.2216  0.1964
  624MOL0     C82258   7.998   1.759   3.348  0.4621 -0.8002 -0.1450
  624MOL0     C82259   8.042   1.671   3.237  0.1710 -0.6624 -0.0966
  624MOL0     O82260   8.082   1.543   3.294 -0.0868  0.0810 -0.3803
  624MOL0     C82261   8.210   1.524   3.337 -0.9184 -0.3518 -0.3395
  624MOL0     C82262   8.321   1.599   3.305 -1.2836  0.0613  0.1769
  624MOL0     C82263   8.450   1.556   3.351 -0.5342  0.0547 -0.0907
  624MOL0     C82264   8.470   1.440   3.423  0.0268  0.2419  0.5541
  624MOL0     C82265   8.607   1.407   3.460  0.3670  0.1096  0.1374
  624MOL0     O82266   8.711   1.456   3.388  0.3085 -0.5442  0.3612
  624MOL0     C82267   8.851   1.439   3.415  0.3064  0.5330 -0.3759
  624MOL0     C82268   8.907   1.408   3.546 -0.2187 -0.2653  0.5748
  624MOL0     C82269   9.045   1.414   3.571  0.6075  0.3054  0.8952
  624MOL0     C82270   9.124   1.455   3.467  0.1379 -0.9243  0.0193
  624MOL0     O82271   9.252   1.445   3.484  0.2278 -0.4380 -0.0788
  624MOL0     C82272   9.321   1.381   3.367  0.4947  0.2137 -0.0670
  624MOL0     C82273   9.305   1.223   3.388 -0.6441 -0.4264 -0.2489
  624MOL0     C82274   9.358   1.169   3.524  0.4982  0.2880  1.6435
  624MOL0     C82275   9.303   1.027   3.537  0.2263  0.4248  0.0175
  624MOL0     C82276   9.342   0.942   3.649 -0.2638  0.4111 -0.4215
  624MOL0     C82277   9.500   0.924   3.667 -0.2175 -0.9682  1.0020
  624MOL0     C82278   9.532   0.826   3.780 -0.0073  0.4301 -0.3116
  624MOL0     C82279   9.646   0.725   3.757 -0.4339  0.3180  0.9477
  624MOL0    Cl82280   9.803   0.810   3.729  0.1563 -0.0321  0.0131
  624MOL0     C82281   9.071   1.501   3.348  0.7103  0.0791  1.7189
  624MOL0     C82282   8.936   1.495   3.314  0.2844  0.2445 -0.0912
  624MOL0     O82283   8.612   1.332   3.557  0.3335  0.7217  0.0829
  624MOL0     C82284   8.360   1.357   3.450  0.1574  0.6237 -0.5149
  624MOL0     C82285   8.232   1.399   3.406 -0.1574  0.2928 -0.2128
  624MOL0     N82286   7.651   2.014   3.163 -0.1469 -0.0105  0.2392
  624MOL0     N82287   7.542   2.070   3.178  0.5122  0.1857  0.3137
  624MOL0     C82288   7.009   2.320   2.385  0.3903  0.3706  0.5597
  624MOL0     C82289   7.079   2.390   2.285 -0.3379 -1.1927 -0.0328
  624MOL0     C82290   7.363   2.717   2.136 -0.6641  0.5780  0.1397
  624MOL0     C82291   7.502   2.708   2.127  0.3690  0.0199  0.0146
  624MOL0     C82292   7.573   2.755   2.014 -0.3061 -0.1195 -0.8144
  624MOL0     C82293   7.503   2.807   1.905  0.3846 -0.4227 -1.0905
  624MOL0     O82294   7.568   2.854   1.792  0.4969 -0.2115 -0.3106
  624MOL0     C82295   7.669   2.770   1.738  0.9995  0.6475 -0.3418
  624MOL0     C82296   7.702   2.814   1.590 -0.4875 -0.6833 -0.0334
  624MOL0     C82297   7.585   2.812   1.487  0.9666 -0.0464  0.3226
  624MOL0     C82298   7.517   2.951   1.489 -0.0266 -0.1354  0.4357
  624MOL0     C82299   7.615   3.056   1.451 -0.3701  0.3421 -0.1759
  624MOL0     C82300   7.678   3.150   1.402 -1.1171  0.0847 -0.0885
  624MOL0     C82301   7.358   2.811   1.915 -0.1075  0.2169 -0.6578
  624MOL0     C82302   7.291   2.763   2.023  0.3893 -0.0070 -1.4482
  624MOL0     H82303   7.097   2.692   2.437  2.9663 -0.7559 -1.2138
  624MOL0     H82304   6.988   2.566   2.620  0.3838 -0.4100 -0.6454
  624MOL0     H82305   6.899   2.419   2.784  2.4165  0.7850  2.0387
  624MOL0     H82306   7.059   2.367   2.777 -1.6334  1.4711  2.2924
  624MOL0     H82307   6.948   2.120   2.756 -3.3837 -2.7868  1.7480
  624MOL0     H82308   6.815   2.208   2.847  0.2818  0.2694  0.9255
  624MOL0     H82309   6.978   2.275   3.019 -0.1715 -2.7103  3.3934
  624MOL0     H82310   7.099   2.166   2.936  0.8233  0.8909  2.4300
  624MOL0     H82311   6.826   2.075   3.010 -0.0319 -0.0086 -0.1267
  624MOL0     H82312   6.969   1.979   2.971 -0.8272 -0.6485  0.0350
  624MOL0     H82313   6.944   1.946   3.210 -1.2200  0.4760 -0.7150
  624MOL0     H82314   6.884   2.102   3.244 -1.0014 -2.0401  0.3952
  624MOL0     H82315   7.076   2.108   3.352  4.0360  1.0106  0.5652
  624MOL0     H82316   7.119   2.197   3.220 -1.4680 -0.2149 -2.1557
  624MOL0     H82317   7.190   1.901   3.238  2.0610 -1.9856 -2.4087
  624MOL0     H82318   7.249   2.029   3.111  0.9416  2.9317  0.6730
  624MOL0     H82319   7.314   2.017   3.409 -1.0421  0.5344  0.4138
  624MOL0     H82320   7.336   2.157   3.299 -1.5708  0.1574  0.3950
  624MOL0     H82321   7.488   1.813   3.365 -0.6776 -0.8317 -0.7164
  624MOL0     H82322   7.746   1.719   3.241 -0.1299  0.1875 -1.3107
  624MOL0     H82323   7.751   1.789   3.404 -0.3463  0.2882 -0.6687
  624MOL0     H82324   7.899   1.959   3.347 -1.7350  0.0818  0.2242
  624MOL0     H82325   7.930   1.889   3.186  0.1691  2.5210  0.5024
  624MOL0     H82326   8.079   1.823   3.385  0.6639 -0.4692 -1.1192
  624MOL0     H82327   7.948   1.702   3.426  1.5031  1.7172  2.5699
  624MOL0     H82328   8.123   1.725   3.186  2.0141 -1.4429  1.8228
  624MOL0     H82329   7.956   1.667   3.170 -0.9944  0.7120  1.2238
  624MOL0     H82330   8.320   1.695   3.253  1.2937  1.0252  1.6898
  624MOL0     H82331   8.533   1.623   3.327  1.2770 -1.2744  2.1624
  624MOL0     H82332   8.835   1.387   3.624 -0.6982 -0.7325  0.0183
  624MOL0     H82333   9.098   1.392   3.663  1.2777  1.4975  0.8176
  624MOL0     H82334   9.429   1.400   3.367  0.5485 -0.0571  0.6943
  624MOL0     H82335   9.286   1.401   3.266 -0.6751  0.6115  0.3945
  624MOL0     H82336   9.374   1.171   3.321 -0.4025 -1.6134  0.8741
  624MOL0     H82337   9.201   1.204   3.363 -0.1926 -0.2701 -2.5267
  624MOL0     H82338   9.331   1.240   3.604 -1.6693  0.5416  0.7473
  624MOL0     H82339   9.468   1.168   3.525  0.5432  0.5906 -0.1669
  624MOL0     H82340   9.194   1.032   3.539  0.0659  0.5886 -3.3733
  624MOL0     H82341   9.332   0.981   3.443 -3.0358  0.8260 -1.3102
  624MOL0     H82342   9.311   0.841   3.620  2.8311 -1.2535  1.5566
  624MOL0     H82343   9.298   0.971   3.745 -0.7979 -2.5530  0.3384
  624MOL0     H82344   9.548   1.019   3.694 -2.1386  0.0955  0.8791
  624MOL0     H82345   9.541   0.889   3.572  1.9210 -2.5201  2.4151
  624MOL0     H82346   9.562   0.881   3.870  2.5325 -1.0610 -0.1264
  624MOL0     H82347   9.441   0.771   3.805 -0.2226  0.3886 -1.1469
  624MOL0     H82348   9.621   0.667   3.668  0.7748  2.0396 -0.5953
  624MOL0     H82349   9.661   0.657   3.841  0.6017  1.0726  1.3919
  624MOL0     H82350   9.136   1.541   3.271 -0.5138  0.4517  0.8463
  624MOL0     H82351   8.889   1.539   3.227 -2.1107  1.9991  1.9200
  624MOL0     H82352   8.382   1.259   3.490 -0.3576  0.0750 -1.5428
  624MOL0     H82353   8.145   1.337   3.423  1.1681 -1.3721  0.8314
  624MOL0     H82354   6.974   2.217   2.382  2.1996 -0.3017 -3.3077
  624MOL0     H82355   7.077   2.326   2.197  0.3504 -0.5297 -0.5403
  624MOL0     H82356   7.556   2.650   2.200 -1.5119 -1.7195  0.0926
  624MOL0     H82357   7.681   2.749   2.014  0.2079  4.0064  2.3254
  624MOL0     H82358   7.633   2.667   1.729 -1.4086  1.4882 -1.1322
  624MOL0     H82359   7.761   2.776   1.798  1.0631 -1.8737 -0.0548
  624MOL0     H82360   7.751   2.911   1.603 -1.2882 -0.1449 -0.9648
  624MOL0     H82361   7.778   2.739   1.564  1.5873  1.7910 -1.6258
  624MOL0     H82362   7.515   2.730   1.506 -1.5034  1.9767  0.5595
  624MOL0     H82363   7.624   2.784   1.389  0.5431  0.1408  0.0958
  624MOL0     H82364   7.433   2.955   1.420  0.8810 -1.7277 -0.8208
  624MOL0     H82365   7.472   2.973   1.586  1.3755 -0.7942  1.2677
  624MOL0     H82366   7.718   3.233   1.348 -2.6709  1.7262  1.1472
  624MOL0     H82367   7.294   2.843   1.834 -1.0604  0.1144  0.0418
  624MOL0     H82368   7.183   2.760   2.015  0.3377 -0.9604 -0.5909
  625MOL0     O82369   6.863   4.614   8.641 -0.2111 -1.0705  0.1978
  625MOL0     C82370   6.895   4.699   8.556 -0.5461 -0.8136 -0.2508
  625MOL0     O82371   6.997   4.784   8.577  0.8977 -0.9176  0.0947
  625MOL0     C82372   7.104   4.735   8.649 -0.3336 -0.2950 -0.3770
  625MOL0     C82373   7.179   4.619   8.630  0.1278  0.8139 -0.0547
  625MOL0     C82374   7.310   4.602   8.687  0.3514 -1.0882  0.6378
  625MOL0     C82375   7.370   4.682   8.789 -0.2089 -0.4182 -0.0516
  625MOL0     O82376   7.497   4.659   8.828 -0.2283  0.3910 -0.0402
  625MOL0     C82377   7.571   4.764   8.902 -0.2956 -0.7858 -0.9083
  625MOL0     C82378   7.715   4.721   8.940 -0.1769 -0.2428 -0.6552
  625MOL0     C82379   7.810   4.664   8.830  0.7469 -0.2410 -0.4097
  625MOL0     C82380   7.838   4.770   8.721 -0.7708 -0.3310  0.4911
  625MOL0     C82381   7.966   4.718   8.654  0.5218 -0.2462 -0.5244
  625MOL0     C82382   8.014   4.811   8.541 -0.2161 -0.0975  0.4086
  625MOL0     C82383   8.098   4.929   8.589  0.6070  0.3872 -0.6767
  625MOL0     C82384   8.224   4.959   8.504 -0.0599 -0.2673 -0.1480
  625MOL0     N82385   8.199   5.041   8.383 -1.2366  0.2709 -0.3947
  625MOL0     C82386   8.115   5.022   8.281  0.6310  0.6765  0.1258
  625MOL0     C82387   8.114   5.130   8.203  0.7542  0.7258 -0.5194
  625MOL0     C82388   8.009   5.152   8.097 -0.0861 -0.4351 -0.3937
  625MOL0     C82389   8.068   5.094   7.963 -1.6318  0.5915 -0.3332
  625MOL0     C82390   8.180   5.167   7.901 -0.9863  0.5340 -0.0988
  625MOL0     C82391   8.117   5.299   7.838  0.0354  0.8883  0.2828
  625MOL0     O82392   8.018   5.241   7.748  0.7018 -0.6780 -0.0959
  625MOL0     C82393   7.922   5.315   7.684  0.5293 -0.2116 -0.1532
  625MOL0     C82394   7.908   5.459   7.675 -0.2306  0.5718 -0.6646
  625MOL0     C82395   7.806   5.518   7.593  1.0462  0.1034 -1.0480
  625MOL0     C82396   7.709   5.436   7.529 -0.7855  0.7255  0.3651
  625MOL0     C82397   7.604   5.494   7.436  0.2436 -1.5598  0.0066
  625MOL0     O82398   7.576   5.625   7.458 -0.2915  0.2756  0.0264
  625MOL0     C82399   7.505   5.700   7.374 -0.5901 -0.0414 -0.1600
  625MOL0     C82400   7.468   5.824   7.432  0.3868  0.0027  0.6175
  625MOL0     C82401   7.394   5.921   7.344  0.0532 -0.0317 -1.1154
  625MOL0     C82402   7.345   5.890   7.224 -0.9382  0.0821 -0.5143
  625MOL0     O82403   7.283   5.990   7.159  0.2630  0.8817  0.6217
  625MOL0     C82404   7.319   5.996   7.015  0.1418  1.2649  0.0880
  625MOL0     C82405   7.193   6.004   6.931  0.3375  0.2254  0.0281
  625MOL0     C82406   7.093   5.879   6.948 -0.7439 -0.1039 -0.4692
  625MOL0     C82407   6.957   5.891   6.872 -1.0662 -0.0348  0.6323
  625MOL0     C82408   6.846   5.792   6.930 -0.3344 -0.1934  0.3146
  625MOL0     C82409   6.805   5.838   7.072 -0.1797 -0.0149 -0.2058
  625MOL0     C82410   6.688   5.754   7.136 -0.3203  1.1126  0.9824
  625MOL0     C82411   6.554   5.791   7.108  0.9765 -0.0138 -0.1481
  625MOL0    Cl82412   6.514   5.939   7.187  0.3650  0.1273 -0.2346
  625MOL0     C82413   7.390   5.762   7.171  0.1771 -0.6273  0.5256
  625MOL0     C82414   7.463   5.669   7.246 -0.3475 -1.4992  0.0033
  625MOL0     O82415   7.562   5.426   7.343  0.6032  0.4638  0.9159
  625MOL0     C82416   7.725   5.297   7.546  0.4186  0.1608  0.2702
  625MOL0     C82417   7.830   5.237   7.616  0.8863  0.7882  0.0660
  625MOL0     N82418   8.218   5.213   8.248 -0.5463  0.7400 -0.5373
  625MOL0     N82419   8.269   5.156   8.357 -0.1385 -0.0830  0.4292
  625MOL0     C82420   7.293   4.798   8.809  0.3423 -0.6078  0.1397
  625MOL0     C82421   7.175   4.825   8.731  0.0083  0.2475 -0.6509
  625MOL0     C82422   6.800   4.741   8.452 -0.7142 -0.5025  0.1266
  625MOL0     C82423   6.842   4.844   8.366  0.5459 -0.4791  0.1122
  625MOL0     C82424   6.749   4.896   8.281 -0.2105 -0.0871  0.4073
  625MOL0     C82425   6.617   4.853   8.281 -1.0688  1.1401  1.0211
  625MOL0     O82426   6.543   4.910   8.188 -0.8301  0.2378 -1.0607
  625MOL0     C82427   6.406   4.883   8.184  0.2528  0.2281 -0.4949
  625MOL0     C82428   6.367   4.924   8.039  0.9417 -0.4424  0.0759
  625MOL0     C82429   6.396   4.823   7.932  0.4817  0.5579 -0.9594
  625MOL0     C82430   6.370   4.888   7.791  0.4532  0.1661  0.0957
  625MOL0     C82431   6.403   4.810   7.672  0.1968  0.6115 -0.3282
  625MOL0     C82432   6.415   4.753   7.564  0.5555  0.2470 -0.5331
  625MOL0     C82433   6.576   4.750   8.369  0.0009 -0.7842 -0.2093
  625MOL0     C82434   6.670   4.693   8.453  0.1255  0.0449  0.5834
  625MOL0     H82435   7.133   4.535   8.581 -0.6638 -1.2976  3.8865
  625MOL0     H82436   7.358   4.505   8.676  1.0644 -0.6253 -0.6056
  625MOL0     H82437   7.524   4.784   8.999  0.6747  0.6611 -0.7099
  625MOL0     H82438   7.574   4.854   8.840 -1.5596 -0.5670 -0.6801
  625MOL0     H82439   7.694   4.640   9.011 -3.3592 -0.8414 -2.1102
  625MOL0     H82440   7.765   4.804   8.989  1.3855 -2.9198  2.7065
  625MOL0     H82441   7.762   4.578   8.782  0.1421  0.4456 -1.0823
  625MOL0     H82442   7.902   4.633   8.880  0.9409 -1.0341 -1.2386
  625MOL0     H82443   7.763   4.785   8.643  2.2688  0.5062 -2.5109
  625MOL0     H82444   7.854   4.871   8.760  2.9948 -0.5958  0.0074
  625MOL0     H82445   7.936   4.627   8.600 -1.0511 -0.7132  1.0260
  625MOL0     H82446   8.037   4.690   8.732 -0.6073  0.6681  0.8767
  625MOL0     H82447   7.932   4.844   8.475  0.8331 -1.7228 -1.8495
  625MOL0     H82448   8.081   4.745   8.485  0.6865  1.7637 -0.7981
  625MOL0     H82449   8.036   5.018   8.577 -1.1103 -0.4985  1.0121
  625MOL0     H82450   8.131   4.912   8.692  2.0394  2.2261 -0.7865
  625MOL0     H82451   8.270   4.862   8.482  1.4915  0.0190  1.5698
  625MOL0     H82452   8.287   5.014   8.574  0.5854  1.1851 -1.7911
  625MOL0     H82453   8.036   4.947   8.279  0.8370  0.4627 -0.1084
  625MOL0     H82454   7.997   5.260   8.084  0.7096 -0.4653 -1.5860
  625MOL0     H82455   7.911   5.115   8.128  0.9531 -1.2468  2.1809
  625MOL0     H82456   7.988   5.065   7.895 -2.7881  3.5345 -0.3860
  625MOL0     H82457   8.115   4.997   7.976 -1.4432  0.6165 -0.8284
  625MOL0     H82458   8.270   5.181   7.961 -1.8294  2.8191  0.7256
  625MOL0     H82459   8.220   5.104   7.821  1.1760 -0.9758  2.0188
  625MOL0     H82460   8.187   5.349   7.770 -0.5437  0.5084 -0.6080
  625MOL0     H82461   8.082   5.361   7.921  0.7082 -0.3785  1.5596
  625MOL0     H82462   7.970   5.526   7.735  0.0513 -1.4736  1.4779
  625MOL0     H82463   7.800   5.625   7.578  1.4243  0.0795 -1.3923
  625MOL0     H82464   7.499   5.858   7.531  2.3085  2.6706 -0.7676
  625MOL0     H82465   7.390   6.019   7.390  3.1237 -1.0902  1.8727
  625MOL0     H82466   7.369   5.904   6.981  1.5067  2.6271 -1.8248
  625MOL0     H82467   7.394   6.076   7.009 -0.5403  1.8083 -2.8123
  625MOL0     H82468   7.216   6.031   6.828 -0.1470  0.1263 -0.1060
  625MOL0     H82469   7.138   6.095   6.960  1.5029  1.0065 -0.1408
  625MOL0     H82470   7.096   5.858   7.056 -0.6767 -0.4723 -0.5417
  625MOL0     H82471   7.132   5.787   6.902  0.9442  1.1917 -1.7670
  625MOL0     H82472   6.917   5.992   6.865 -3.1703 -0.7415  1.5885
  625MOL0     H82473   6.976   5.858   6.769  0.1205 -0.1556  0.8676
  625MOL0     H82474   6.890   5.692   6.928 -0.6292 -0.3111 -1.3392
  625MOL0     H82475   6.755   5.795   6.870 -1.6097  5.8499  1.8876
  625MOL0     H82476   6.761   5.938   7.062  1.7610  0.8971 -0.1434
  625MOL0     H82477   6.882   5.860   7.147 -1.4810 -0.9607  1.4678
  625MOL0     H82478   6.699   5.653   7.094 -2.2472  1.2923 -0.0770
  625MOL0     H82479   6.700   5.749   7.245  0.4751  1.7396  0.9322
  625MOL0     H82480   6.481   5.717   7.142 -0.4735  0.0552 -2.8471
  625MOL0     H82481   6.538   5.798   7.000 -1.3994 -0.5841  0.1167
  625MOL0     H82482   7.353   5.732   7.074 -0.2445  2.7174 -0.4870
  625MOL0     H82483   7.486   5.575   7.197 -0.3123 -2.4080  1.6788
  625MOL0     H82484   7.646   5.237   7.501  1.3997  0.9034 -2.6981
  625MOL0     H82485   7.828   5.129   7.626 -0.8482  0.6927 -0.7943
  625MOL0     H82486   7.324   4.874   8.879 -2.0250  0.0924  0.4878
  625MOL0     H82487   7.136   4.926   8.734  0.5985  0.4773 -0.7236
  625MOL0     H82488   6.944   4.881   8.361  0.4400  0.9382  4.4350
  625MOL0     H82489   6.778   4.967   8.204  0.5909  0.4690  1.1956
  625MOL0     H82490   6.354   4.947   8.255 -0.7249 -0.0500 -0.9391
  625MOL0     H82491   6.388   4.776   8.194 -3.0309  0.9138  4.7612
  625MOL0     H82492   6.260   4.945   8.041  0.7745 -1.0993  3.1743
  625MOL0     H82493   6.425   5.013   8.010  1.1249  0.0040  1.6931
  625MOL0     H82494   6.340   4.732   7.958  0.2137  1.7018  3.3134
  625MOL0     H82495   6.500   4.788   7.940 -0.4695 -2.5064 -0.8016
  625MOL0     H82496   6.266   4.922   7.795  1.0522  1.9552  2.4325
  625MOL0     H82497   6.425   4.981   7.779  0.1599  0.4323  0.7886
  625MOL0     H82498   6.424   4.702   7.470  2.3293 -0.0116 -0.2470
  625MOL0     H82499   6.479   4.702   8.378 -0.0639 -0.2796  2.7039
  625MOL0     H82500   6.629   4.611   8.510 -2.0716 -0.0025 -0.9342
  626MOL0     O82501   2.077   6.178   0.312  0.1186  0.6633 -0.1559
  626MOL0     C82502   1.979   6.171   0.392 -0.6935 -0.6623  0.2333
  626MOL0     O82503   1.872   6.094   0.391  0.1849  0.0466 -0.4305
  626MOL0     C82504   1.819   6.054   0.272 -1.0516  0.0210  0.1649
  626MOL0     C82505   1.762   5.927   0.264 -0.3697 -0.2554 -0.1607
  626MOL0     C82506   1.713   5.876   0.140 -0.1531  0.2905 -0.3846
  626MOL0     C82507   1.707   5.963   0.031 -0.1849  1.1434  0.1031
  626MOL0     O82508   1.645   5.896  -0.077 -0.5711  0.1502  0.0522
  626MOL0     C82509   1.678   5.959  -0.202  0.2319 -0.2305 -0.5259
  626MOL0     C82510   1.821   5.953  -0.249  0.1689 -0.1474  0.1420
  626MOL0     C82511   1.901   5.822  -0.238  0.0343  0.1684 -0.5297
  626MOL0     C82512   2.032   5.850  -0.151  0.2366  0.3778 -0.4635
  626MOL0     C82513   2.117   5.732  -0.124 -0.5105  0.1136 -0.2729
  626MOL0     C82514   2.061   5.639  -0.014  0.2155 -0.4806 -0.5694
  626MOL0     C82515   2.123   5.500  -0.012  0.3429  0.2260 -0.3645
  626MOL0     C82516   2.069   5.410   0.106  0.0687  0.1518 -0.2911
  626MOL0     N82517   2.086   5.264   0.065 -0.2317  0.1338  0.4601
  626MOL0     C82518   2.208   5.205   0.073  0.2350  0.7496  0.4812
  626MOL0     C82519   2.168   5.068   0.070 -0.7914 -0.0073 -0.1705
  626MOL0     C82520   2.274   4.963   0.056  0.1093  0.3704 -0.2833
  626MOL0     C82521   2.376   4.953   0.181 -0.3562 -0.0158 -0.4627
  626MOL0     C82522   2.317   4.979   0.320  0.8040 -0.2333 -0.5240
  626MOL0     C82523   2.421   4.995   0.433 -0.4143  1.2728 -0.1030
  626MOL0     O82524   2.480   4.865   0.436  0.6031 -0.3434 -0.1693
  626MOL0     C82525   2.616   4.861   0.459 -0.2893  0.3130 -0.1146
  626MOL0     C82526   2.694   4.943   0.547  0.8374  0.7401  1.2503
  626MOL0     C82527   2.829   4.915   0.563  0.0197  0.7182 -0.0603
  626MOL0     C82528   2.884   4.800   0.512  0.4381 -1.8506 -0.6609
  626MOL0     C82529   3.032   4.767   0.539 -0.3431  0.2388  0.7220
  626MOL0     O82530   3.076   4.669   0.450 -0.3191 -0.3494 -0.1264
  626MOL0     C82531   3.209   4.652   0.434 -0.3010 -0.0315  0.1320
  626MOL0     C82532   3.288   4.618   0.545  0.0816 -0.3131 -1.5084
  626MOL0     C82533   3.416   4.582   0.519  0.1107 -0.1769 -0.7648
  626MOL0     C82534   3.479   4.599   0.394 -0.2003  0.1827  0.1458
  626MOL0     O82535   3.611   4.586   0.371 -0.4843 -0.3557  0.7022
  626MOL0     C82536   3.694   4.534   0.478  0.8659 -0.0184  0.3854
  626MOL0     C82537   3.830   4.515   0.415 -0.6461 -0.6631 -0.2161
  626MOL0     C82538   3.945   4.606   0.452  0.9777  1.2190  0.0992
  626MOL0     C82539   4.068   4.585   0.362 -0.0256  0.1533 -0.2249
  626MOL0     C82540   4.156   4.715   0.386 -0.6344  0.1459 -0.0700
  626MOL0     C82541   4.272   4.707   0.285 -0.7995 -0.3240  0.0243
  626MOL0     C82542   4.366   4.824   0.310  0.2547 -0.0612  1.2106
  626MOL0     C82543   4.470   4.822   0.194 -0.7853  0.1290 -0.0088
  626MOL0    Cl82544   4.607   4.703   0.224  0.2107 -0.2730 -0.4647
  626MOL0     C82545   3.400   4.638   0.292 -0.9669 -0.1338  0.7218
  626MOL0     C82546   3.267   4.665   0.305 -0.3135 -0.8037  0.7259
  626MOL0     O82547   3.102   4.826   0.624 -0.1631 -0.3768 -0.4983
  626MOL0     C82548   2.809   4.726   0.414  0.9480  0.1672 -0.4306
  626MOL0     C82549   2.678   4.753   0.394  0.3903 -0.3808  1.0690
  626MOL0     N82550   2.035   5.052   0.041  0.0081 -0.1767  0.3845
  626MOL0     N82551   1.992   5.176   0.034 -0.4250  0.0626 -0.8611
  626MOL0     C82552   1.753   6.095   0.040 -0.7448 -0.2613 -0.4086
  626MOL0     C82553   1.806   6.147   0.166  0.4222  0.5256  0.6649
  626MOL0     C82554   2.002   6.268   0.502  0.5329 -0.0278  0.4030
  626MOL0     C82555   1.909   6.281   0.603  0.8521  0.3409  0.4293
  626MOL0     C82556   1.931   6.378   0.711 -0.2461 -0.7294  0.1541
  626MOL0     C82557   2.045   6.461   0.712 -0.5656 -0.0195  1.0846
  626MOL0     O82558   2.067   6.556   0.808  0.1683  0.5887 -0.6064
  626MOL0     C82559   1.989   6.681   0.786 -0.3712 -0.1108 -0.4553
  626MOL0     C82560   1.993   6.764   0.914  0.4221 -0.4872 -0.1325
  626MOL0     C82561   2.129   6.820   0.943 -0.8571 -0.3014 -0.4614
  626MOL0     C82562   2.139   6.975   0.966  0.6942 -0.3435  0.1287
  626MOL0     C82563   2.231   7.005   1.075  0.0646 -0.4711 -0.4034
  626MOL0     C82564   2.310   6.991   1.166  0.5448 -0.2709 -0.5715
  626MOL0     C82565   2.140   6.435   0.619 -0.7357 -0.6077  0.5852
  626MOL0     C82566   2.122   6.336   0.517  0.0347  0.2174  0.2043
  626MOL0     H82567   1.767   5.865   0.352 -2.4357  1.2723  1.1203
  626MOL0     H82568   1.681   5.773   0.132  2.3909 -0.4613 -1.9944
  626MOL0     H82569   1.648   6.063  -0.213  0.3853 -0.2507 -1.1944
  626MOL0     H82570   1.623   5.900  -0.276 -1.9469  2.0570 -0.8618
  626MOL0     H82571   1.867   6.038  -0.198 -0.1601  0.2854 -0.2677
  626MOL0     H82572   1.837   5.981  -0.354  4.2457 -2.3627 -0.0241
  626MOL0     H82573   1.929   5.797  -0.340 -3.0824 -0.5054 -1.3019
  626MOL0     H82574   1.843   5.739  -0.196 -0.4998  1.4765  1.5024
  626MOL0     H82575   2.095   5.919  -0.208 -1.3047 -1.1503 -4.4075
  626MOL0     H82576   1.998   5.890  -0.055 -1.0228 -0.4290 -0.5459
  626MOL0     H82577   2.222   5.753  -0.101  0.3270 -2.4805 -1.3311
  626MOL0     H82578   2.121   5.669  -0.213  1.3999 -0.3832  0.1104
  626MOL0     H82579   1.955   5.619  -0.029 -0.2840  0.2332  1.5973
  626MOL0     H82580   2.056   5.680   0.087 -0.1486  1.5792 -1.3716
  626MOL0     H82581   2.091   5.450  -0.104 -1.9034 -1.0680  1.0450
  626MOL0     H82582   2.232   5.501  -0.017  0.5502  2.3139  2.3199
  626MOL0     H82583   1.962   5.423   0.125 -0.8316 -1.1016 -3.7995
  626MOL0     H82584   2.121   5.438   0.199  2.7085 -0.8116 -1.3733
  626MOL0     H82585   2.306   5.244   0.100  0.0264  0.4422  1.7265
  626MOL0     H82586   2.329   4.959  -0.039 -0.2655  0.4584 -0.5041
  626MOL0     H82587   2.217   4.870   0.046 -0.4797  0.9216 -2.5506
  626MOL0     H82588   2.454   5.027   0.165  1.3460 -1.6501 -0.0620
  626MOL0     H82589   2.421   4.853   0.184 -0.2531  0.0339 -0.3585
  626MOL0     H82590   2.261   5.073   0.307  0.9776  0.0482  0.6599
  626MOL0     H82591   2.241   4.902   0.336  0.5947  0.4204  2.0404
  626MOL0     H82592   2.374   5.015   0.530  2.2399  1.1027  1.3272
  626MOL0     H82593   2.498   5.070   0.412  2.3985 -1.8311 -1.8981
  626MOL0     H82594   2.635   5.019   0.596 -0.0684  0.9777 -0.1508
  626MOL0     H82595   2.893   4.982   0.618 -0.4386  5.1219 -4.2572
  626MOL0     H82596   3.244   4.613   0.644  2.7958  0.6373 -0.1175
  626MOL0     H82597   3.479   4.552   0.602 -0.9340  1.7740  0.8335
  626MOL0     H82598   3.655   4.442   0.522  1.4555 -0.0518  0.8454
  626MOL0     H82599   3.700   4.606   0.560  0.6392 -0.4039  0.7442
  626MOL0     H82600   3.810   4.518   0.307  1.7710  0.7741 -0.7070
  626MOL0     H82601   3.856   4.409   0.426  0.6080 -0.3662 -0.2036
  626MOL0     H82602   3.982   4.594   0.555 -2.0355  1.1711  1.2805
  626MOL0     H82603   3.913   4.709   0.434  0.5988  0.5028 -4.1540
  626MOL0     H82604   4.118   4.492   0.391 -0.7747 -0.2942 -0.3509
  626MOL0     H82605   4.040   4.588   0.256 -2.6403  1.1404  0.4202
  626MOL0     H82606   4.188   4.720   0.490 -0.7834 -1.9196  0.1087
  626MOL0     H82607   4.098   4.807   0.374 -0.8789  0.3233  2.1061
  626MOL0     H82608   4.234   4.705   0.183  2.6098  1.3667 -1.4557
  626MOL0     H82609   4.330   4.615   0.296  1.2750  1.1170  2.6108
  626MOL0     H82610   4.311   4.918   0.308 -0.5458 -0.4605  2.6124
  626MOL0     H82611   4.425   4.816   0.402  2.4048 -3.7735 -0.2721
  626MOL0     H82612   4.502   4.926   0.178 -1.6936  0.2111 -1.5289
  626MOL0     H82613   4.420   4.794   0.101 -1.5714  0.7022  0.2209
  626MOL0     H82614   3.447   4.646   0.195  0.4469 -1.3164  1.2613
  626MOL0     H82615   3.199   4.693   0.226 -1.0593 -0.4018  1.4876
  626MOL0     H82616   2.843   4.633   0.369 -2.1224 -0.7261 -1.1384
  626MOL0     H82617   2.620   4.690   0.328  0.2449 -1.3980  2.1291
  626MOL0     H82618   1.747   6.180  -0.027 -1.5852  2.7983  3.2044
  626MOL0     H82619   1.846   6.246   0.183  0.1952  0.7914 -0.2807
  626MOL0     H82620   1.813   6.230   0.605  2.5927 -3.6004 -2.4749
  626MOL0     H82621   1.851   6.401   0.780  0.7210 -0.6167  1.2482
  626MOL0     H82622   1.887   6.663   0.752 -0.5987  1.4603 -0.6767
  626MOL0     H82623   2.041   6.727   0.701 -0.9091 -0.4462 -0.9717
  626MOL0     H82624   1.921   6.846   0.907  0.8174 -0.0934  0.3934
  626MOL0     H82625   1.963   6.704   1.001  0.4917 -0.5397 -0.1447
  626MOL0     H82626   2.208   6.785   0.877 -0.0076  1.4200 -0.4069
  626MOL0     H82627   2.152   6.765   1.034 -2.6890  0.7944  0.7328
  626MOL0     H82628   2.159   7.030   0.874  0.3948 -0.1081  0.2014
  626MOL0     H82629   2.046   7.022   1.000  0.3750  1.8508 -3.3187
  626MOL0     H82630   2.370   6.955   1.247  1.0126  0.3030 -0.6464
  626MOL0     H82631   2.240   6.477   0.624 -0.8588 -0.1879 -0.2799
  626MOL0     H82632   2.202   6.333   0.444 -0.2155 -0.8980 -0.0416
  627MOL0     O82633   4.631   9.109   2.549 -0.0217 -1.1279  0.8804
  627MOL0     C82634   4.702   9.010   2.574 -0.0447 -0.3805  0.0422
  627MOL0     O82635   4.719   8.903   2.490  0.0999  0.4187 -0.2898
  627MOL0     C82636   4.657   8.902   2.372  0.5500 -0.1858 -0.6336
  627MOL0     C82637   4.723   8.888   2.253  0.0589  0.2829  0.1673
  627MOL0     C82638   4.648   8.875   2.136 -0.1615 -0.5674 -1.2309
  627MOL0     C82639   4.508   8.878   2.142  0.5336  0.5330  0.6775
  627MOL0     O82640   4.425   8.860   2.030 -0.9347 -1.3082 -0.1432
  627MOL0     C82641   4.466   8.774   1.921 -0.4486  0.9448  0.2979
  627MOL0     C82642   4.343   8.758   1.827  0.0220 -0.4632 -0.4476
  627MOL0     C82643   4.239   8.669   1.893  0.5220  0.3008 -0.4140
  627MOL0     C82644   4.125   8.646   1.794  0.3893  0.2491  0.6814
  627MOL0     C82645   4.033   8.536   1.851 -0.4050  0.2839 -0.7850
  627MOL0     C82646   3.934   8.472   1.761 -0.4372 -0.7230  0.8462
  627MOL0     C82647   3.844   8.358   1.812 -0.2826 -0.2562  0.6823
  627MOL0     C82648   3.726   8.325   1.720 -0.5620  0.1616 -0.3441
  627MOL0     N82649   3.596   8.368   1.764 -0.0810 -0.2875  0.4092
  627MOL0     C82650   3.554   8.505   1.751 -0.3027 -0.6515  0.2625
  627MOL0     C82651   3.449   8.524   1.838 -0.2289 -0.6981  0.4189
  627MOL0     C82652   3.359   8.641   1.840 -0.0779  0.0780 -0.0664
  627MOL0     C82653   3.431   8.763   1.906  0.1232 -0.0858  0.0654
  627MOL0     C82654   3.445   8.747   2.064  0.1359  0.0945 -0.3765
  627MOL0     C82655   3.344   8.665   2.149  1.2215  0.2672  0.5367
  627MOL0     O82656   3.208   8.705   2.110  0.1394  0.3703 -0.3364
  627MOL0     C82657   3.129   8.686   2.218  0.6628 -0.2252  0.2118
  627MOL0     C82658   3.062   8.803   2.264  0.2762  0.6860  1.4887
  627MOL0     C82659   2.950   8.785   2.347 -0.0931  1.2478  0.2665
  627MOL0     C82660   2.915   8.656   2.403 -1.1202 -0.4574 -0.0387
  627MOL0     C82661   2.789   8.644   2.484 -0.2649 -0.3469 -0.2895
  627MOL0     O82662   2.715   8.528   2.493 -0.1330 -0.1229  0.6193
  627MOL0     C82663   2.686   8.473   2.372 -0.1672  0.0831  0.4777
  627MOL0     C82664   2.594   8.531   2.290  0.3401 -1.2343 -0.5850
  627MOL0     C82665   2.545   8.465   2.179  0.4207 -0.5129 -1.0523
  627MOL0     C82666   2.569   8.327   2.168 -0.4869  0.2131  0.0824
  627MOL0     O82667   2.511   8.256   2.060  0.3375 -1.0744  0.1075
  627MOL0     C82668   2.539   8.314   1.929 -0.8477 -0.3964  0.0604
  627MOL0     C82669   2.552   8.199   1.828  0.8198  0.2039  0.4856
  627MOL0     C82670   2.686   8.131   1.824 -0.4149  0.8382  0.1429
  627MOL0     C82671   2.680   8.008   1.729 -0.7886 -0.5734 -0.1875
  627MOL0     C82672   2.807   7.927   1.727  0.3143  0.5114 -0.0144
  627MOL0     C82673   2.827   7.851   1.856 -0.9846  1.4547  0.3510
  627MOL0     C82674   2.963   7.782   1.879 -0.7556 -0.3682 -0.2352
  627MOL0     C82675   3.016   7.789   2.018  0.3674 -0.8663  0.4347
  627MOL0    Cl82676   2.895   7.741   2.146  0.2657 -0.0247 -0.2698
  627MOL0     C82677   2.670   8.266   2.253 -0.1287 -0.7600 -0.3965
  627MOL0     C82678   2.721   8.338   2.360  0.3711  0.7928  0.3373
  627MOL0     O82679   2.768   8.742   2.554 -0.7263 -0.1712  0.1681
  627MOL0     C82680   3.001   8.550   2.375  0.2363 -0.2074  0.4713
  627MOL0     C82681   3.102   8.561   2.276  0.3643  0.2322 -0.2433
  627MOL0     N82682   3.424   8.398   1.898  0.2396  0.1900 -0.1265
  627MOL0     N82683   3.513   8.308   1.864 -0.3049  0.5413  0.7072
  627MOL0     C82684   4.444   8.881   2.265  0.8202 -0.8971 -0.2864
  627MOL0     C82685   4.520   8.896   2.376 -0.0464  0.2745  0.0347
  627MOL0     C82686   4.755   9.013   2.713 -0.6245 -0.0666  1.2817
  627MOL0     C82687   4.840   8.915   2.751 -0.3681 -0.8341 -0.5441
  627MOL0     C82688   4.896   8.918   2.881  0.6064  1.2268 -0.3552
  627MOL0     C82689   4.859   9.022   2.976  0.0796  0.0643 -0.0443
  627MOL0     O82690   4.918   9.022   3.097  0.2710 -1.1134 -0.4514
  627MOL0     C82691   4.939   9.149   3.162 -0.0365 -0.4013  0.1540
  627MOL0     C82692   5.019   9.133   3.288 -0.3815 -0.8466 -0.5541
  627MOL0     C82693   5.086   9.264   3.325 -0.4401 -0.4500 -0.6321
  627MOL0     C82694   5.188   9.305   3.227  0.4696 -0.2510  0.0109
  627MOL0     C82695   5.289   9.399   3.277  0.8153  0.0846 -0.0854
  627MOL0     C82696   5.381   9.472   3.309 -0.3045 -0.6335  0.1276
  627MOL0     C82697   4.773   9.124   2.927 -0.2432 -0.2159  0.2800
  627MOL0     C82698   4.721   9.118   2.804 -0.8230 -0.2509  0.0796
  627MOL0     H82699   4.832   8.882   2.254  0.1176  1.2648  0.8756
  627MOL0     H82700   4.690   8.853   2.038  1.2544 -0.3236 -0.6916
  627MOL0     H82701   4.501   8.683   1.971  0.4931  0.5871 -0.9638
  627MOL0     H82702   4.549   8.822   1.868 -0.8670  1.6486  0.2775
  627MOL0     H82703   4.375   8.721   1.729 -2.7545  2.8346 -2.8565
  627MOL0     H82704   4.296   8.854   1.804 -0.8218 -0.3179  1.6650
  627MOL0     H82705   4.199   8.714   1.984 -0.9351  3.1744 -2.2858
  627MOL0     H82706   4.303   8.583   1.912  2.9357  1.4203 -2.7828
  627MOL0     H82707   4.070   8.741   1.799  1.2844  0.8077  0.3349
  627MOL0     H82708   4.161   8.632   1.692  1.0521 -0.2190  0.9726
  627MOL0     H82709   3.988   8.565   1.947 -1.5179  3.5505 -2.1683
  627MOL0     H82710   4.106   8.459   1.877 -0.9098 -0.2291 -0.8677
  627MOL0     H82711   3.971   8.443   1.662 -0.9548  1.9066 -0.2028
  627MOL0     H82712   3.866   8.551   1.730 -0.4232 -0.2218  2.0579
  627MOL0     H82713   3.902   8.265   1.815  1.3142  0.5956 -1.3338
  627MOL0     H82714   3.815   8.379   1.916  0.4490 -1.8490  1.2427
  627MOL0     H82715   3.715   8.217   1.703  0.8073  0.1220 -1.1704
  627MOL0     H82716   3.750   8.368   1.622  0.3944  2.1643  0.7121
  627MOL0     H82717   3.592   8.584   1.686  1.8054 -0.0396  2.1213
  627MOL0     H82718   3.266   8.629   1.896 -0.7332 -3.1754 -1.6136
  627MOL0     H82719   3.330   8.672   1.739 -0.8301  1.7428  0.6109
  627MOL0     H82720   3.373   8.853   1.887  1.0962  0.4863 -0.2628
  627MOL0     H82721   3.529   8.781   1.861 -0.0871 -2.7813 -1.7083
  627MOL0     H82722   3.537   8.696   2.095 -1.7195 -1.6748  2.7588
  627MOL0     H82723   3.456   8.847   2.107 -1.2989  0.6479 -1.2332
  627MOL0     H82724   3.377   8.661   2.253  2.4508 -0.7706  0.1203
  627MOL0     H82725   3.365   8.567   2.106  0.0579  0.7985 -1.3836
  627MOL0     H82726   3.081   8.891   2.203  3.7670 -0.5268  0.6024
  627MOL0     H82727   2.890   8.872   2.372 -0.3293  0.8729  1.0405
  627MOL0     H82728   2.580   8.637   2.308 -0.1863 -1.5430  0.9353
  627MOL0     H82729   2.486   8.528   2.113  2.4665 -1.3523 -3.8779
  627MOL0     H82730   2.627   8.380   1.928 -1.9172  1.0801 -1.1901
  627MOL0     H82731   2.442   8.362   1.912 -1.3211 -1.9135 -1.8354
  627MOL0     H82732   2.522   8.245   1.733 -1.7331 -3.3517 -0.6706
  627MOL0     H82733   2.476   8.122   1.848 -0.5655  1.7552  1.5135
  627MOL0     H82734   2.727   8.108   1.923 -2.1740  0.1549  0.7413
  627MOL0     H82735   2.758   8.203   1.784  0.5987  1.2248  2.4687
  627MOL0     H82736   2.588   7.952   1.743 -0.2777 -1.1888  0.8767
  627MOL0     H82737   2.679   8.046   1.626  2.2258 -2.2763 -0.9708
  627MOL0     H82738   2.895   7.990   1.712  1.1537 -0.7383 -0.4953
  627MOL0     H82739   2.789   7.854   1.647 -0.4118 -0.8134  1.3086
  627MOL0     H82740   2.748   7.777   1.867  0.9904 -1.0063 -0.9892
  627MOL0     H82741   2.822   7.921   1.940  1.0040 -1.8674  3.5596
  627MOL0     H82742   2.967   7.683   1.833  3.5746 -0.5516  0.1483
  627MOL0     H82743   3.043   7.837   1.829 -0.7251  0.8962  1.1303
  627MOL0     H82744   3.059   7.889   2.032 -1.5233  0.3507 -1.6811
  627MOL0     H82745   3.106   7.729   2.030  0.6746 -0.4535  0.2208
  627MOL0     H82746   2.690   8.159   2.255  1.3146 -0.5071  1.8760
  627MOL0     H82747   2.773   8.289   2.442  0.5350  2.5508  1.3202
  627MOL0     H82748   2.963   8.459   2.421  3.8405 -2.2719 -0.2015
  627MOL0     H82749   3.140   8.468   2.234 -2.2239 -2.1744  2.3324
  627MOL0     H82750   4.336   8.875   2.272  0.9784 -4.4071  1.4705
  627MOL0     H82751   4.461   8.902   2.466 -0.1128  2.3425 -0.0853
  627MOL0     H82752   4.862   8.838   2.678  0.1943 -1.5663  0.3661
  627MOL0     H82753   4.945   8.829   2.921 -0.3303  1.8708  2.5241
  627MOL0     H82754   4.847   9.196   3.197  0.6676 -0.6013  2.4206
  627MOL0     H82755   4.996   9.214   3.095 -1.3536 -0.6784 -1.3029
  627MOL0     H82756   4.956   9.114   3.375 -1.1998  2.1779 -0.3801
  627MOL0     H82757   5.094   9.056   3.270 -1.2913 -1.4328 -2.1140
  627MOL0     H82758   5.126   9.253   3.426  0.5959  2.5059 -0.6061
  627MOL0     H82759   5.024   9.352   3.348  4.3948  2.9638  0.9205
  627MOL0     H82760   5.245   9.218   3.195  0.1106 -1.9410  3.4707
  627MOL0     H82761   5.153   9.357   3.137  2.1698 -1.3509 -1.3385
  627MOL0     H82762   5.465   9.537   3.321  0.5188 -1.2836 -1.8126
  627MOL0     H82763   4.733   9.207   2.984 -1.1479  1.8267 -3.0311
  627MOL0     H82764   4.681   9.211   2.765  3.0431  0.9179 -1.5594
  628MOL0     O82765   5.759   9.261   7.025  0.7269  0.6834  0.4169
  628MOL0     C82766   5.854   9.259   6.946 -0.5201 -0.8417 -0.5165
  628MOL0     O82767   5.982   9.303   6.985 -0.9121 -0.0185  0.6107
  628MOL0     C82768   6.014   9.331   7.112 -0.4409  0.5475  0.6255
  628MOL0     C82769   6.012   9.226   7.211  0.4815  0.4779 -0.0599
  628MOL0     C82770   6.055   9.248   7.342  0.1134 -0.0214  0.1645
  628MOL0     C82771   6.097   9.375   7.387  0.2783  0.1465  0.4219
  628MOL0     O82772   6.140   9.411   7.509  0.8260 -0.1973 -0.2855
  628MOL0     C82773   6.111   9.329   7.623 -0.9962  0.7001  0.0495
  628MOL0     C82774   6.073   9.427   7.729 -0.4284 -0.5064 -1.0622
  628MOL0     C82775   5.947   9.507   7.706 -0.1022  0.0385  0.0001
  628MOL0     C82776   5.916   9.614   7.808  0.5917 -0.4286  0.2278
  628MOL0     C82777   5.781   9.683   7.761  0.2556  0.9603 -0.3261
  628MOL0     C82778   5.713   9.730   7.885  0.1210  0.0911 -0.0522
  628MOL0     C82779   5.603   9.834   7.867  0.8964  0.3825 -0.3872
  628MOL0     C82780   5.484   9.782   7.784 -0.2002 -0.5555  0.3363
  628MOL0     N82781   5.378   9.886   7.779  0.0613  0.3397 -0.1759
  628MOL0     C82782   5.288   9.897   7.678  0.3987  0.1451 -1.5801
  628MOL0     C82783   5.205   9.997   7.721 -0.1974  0.5226 -0.2955
  628MOL0     C82784   5.079  10.039   7.644  0.3504  0.0569  0.1305
  628MOL0     C82785   5.088  10.176   7.589  0.1342  0.1094 -0.4858
  628MOL0     C82786   5.091  10.285   7.692 -0.0391 -0.0192 -1.0198
  628MOL0     C82787   5.083  10.425   7.654  0.1229  0.1269 -0.6553
  628MOL0     O82788   5.203  10.488   7.605  0.4826 -0.8484 -0.9011
  628MOL0     C82789   5.192  10.628   7.570  0.4114 -0.2098  0.2155
  628MOL0     C82790   5.083  10.713   7.622 -0.5193  0.0074  0.4817
  628MOL0     C82791   5.085  10.848   7.577  0.5740  0.4939  1.2599
  628MOL0     C82792   5.171  10.901   7.472 -0.0632 -0.2386 -0.7695
  628MOL0     C82793   5.167  11.036   7.422  0.2935  0.0729 -0.6223
  628MOL0     O82794   5.272  11.078   7.357 -0.3559 -0.7443 -0.1094
  628MOL0     C82795   5.263  11.207   7.311  0.9471 -0.3966  0.0879
  628MOL0     C82796   5.264  11.231   7.174  0.5088  0.0610  0.1845
  628MOL0     C82797   5.254  11.365   7.122  0.7674 -0.2847 -0.7587
  628MOL0     C82798   5.240  11.464   7.215  0.2173  0.1923  0.9638
  628MOL0     O82799   5.239  11.593   7.173 -0.9404  0.3045  0.4281
  628MOL0     C82800   5.187  11.631   7.043 -0.3183  0.5174  0.4055
  628MOL0     C82801   5.296  11.662   6.949 -0.4440  1.1205  0.8060
  628MOL0     C82802   5.244  11.712   6.818 -0.4891 -0.1873  0.0261
  628MOL0     C82803   5.177  11.606   6.729  0.3788  0.1459  0.0874
  628MOL0     C82804   5.168  11.652   6.583  0.0456  0.5007  0.0835
  628MOL0     C82805   5.291  11.710   6.510  0.9782  0.1982 -0.3716
  628MOL0     C82806   5.400  11.612   6.513 -0.8938 -0.1584 -0.3533
  628MOL0     C82807   5.498  11.591   6.628 -1.2754 -0.1185  0.4012
  628MOL0    Cl82808   5.640  11.499   6.572  0.0690 -0.2862  0.3789
  628MOL0     C82809   5.247  11.443   7.352 -0.0733  0.6366 -0.6073
  628MOL0     C82810   5.265  11.314   7.399  0.9496  0.2541 -0.1010
  628MOL0     O82811   5.067  11.107   7.448  0.3132 -0.2632 -0.4699
  628MOL0     C82812   5.280  10.815   7.448 -0.2267 -0.8808  0.4122
  628MOL0     C82813   5.297  10.684   7.498  0.1632 -0.1307  0.2828
  628MOL0     N82814   5.234  10.035   7.855 -0.1144 -0.4997 -0.5457
  628MOL0     N82815   5.332   9.960   7.893  0.5415 -0.7167 -0.2752
  628MOL0     C82816   6.104   9.471   7.288  0.3602 -0.2780  0.0765
  628MOL0     C82817   6.066   9.450   7.154 -0.3172 -0.7067  0.1027
  628MOL0     C82818   5.827   9.240   6.805  0.0109  0.5703  0.4813
  628MOL0     C82819   5.921   9.270   6.704  0.3710  0.0641  0.2172
  628MOL0     C82820   5.893   9.244   6.570  0.2710 -0.9880  0.0225
  628MOL0     C82821   5.770   9.202   6.530 -0.7300  0.2862 -0.5501
  628MOL0     O82822   5.758   9.158   6.403 -0.0683  0.0279  0.1597
  628MOL0     C82823   5.681   9.040   6.378  0.6455 -0.6335 -0.5699
  628MOL0     C82824   5.766   8.926   6.322  0.7379  0.2853  0.5080
  628MOL0     C82825   5.847   8.968   6.199  0.6253 -0.6924 -0.3045
  628MOL0     C82826   5.991   9.002   6.245 -0.0491  0.3138 -0.6255
  628MOL0     C82827   6.071   9.076   6.140 -0.2561 -0.1852  0.2579
  628MOL0     C82828   6.148   9.125   6.057 -0.0802 -0.4932 -0.8991
  628MOL0     C82829   5.668   9.185   6.630  0.0078 -0.1606 -0.5439
  628MOL0     C82830   5.695   9.202   6.764  0.4764  0.1285  0.5204
  628MOL0     H82831   5.984   9.125   7.184  0.8999  0.4722 -0.4787
  628MOL0     H82832   6.062   9.165   7.412 -0.8696  1.5662  2.2506
  628MOL0     H82833   6.200   9.267   7.639 -2.5399 -1.5767  0.4104
  628MOL0     H82834   6.039   9.248   7.603  1.7013 -1.5256 -1.3576
  628MOL0     H82835   6.152   9.501   7.744  1.4176 -2.7479  1.1525
  628MOL0     H82836   6.065   9.366   7.819  1.3126 -0.1057 -0.5873
  628MOL0     H82837   5.868   9.433   7.688  0.8565 -0.2546 -4.0238
  628MOL0     H82838   5.954   9.570   7.617 -0.4035  0.9570  0.6151
  628MOL0     H82839   5.913   9.581   7.912 -0.1983  1.0593  0.7116
  628MOL0     H82840   6.000   9.685   7.813  0.3367 -0.1838  3.4286
  628MOL0     H82841   5.725   9.601   7.716  1.3207  0.7233 -1.2557
  628MOL0     H82842   5.796   9.758   7.683 -2.3130  1.4067 -0.4459
  628MOL0     H82843   5.785   9.781   7.949  1.7792 -1.6703 -0.4608
  628MOL0     H82844   5.672   9.643   7.936 -0.1721 -1.0728 -2.1532
  628MOL0     H82845   5.572   9.858   7.970 -0.2033 -1.0371 -0.3637
  628MOL0     H82846   5.636   9.927   7.819 -0.3044  0.9946 -0.0797
  628MOL0     H82847   5.450   9.686   7.824  3.1803 -2.1559 -0.3362
  628MOL0     H82848   5.509   9.752   7.682 -3.3211  2.2464 -1.4752
  628MOL0     H82849   5.311   9.855   7.580  1.7062  0.7204 -1.5386
  628MOL0     H82850   4.996  10.030   7.714 -1.1660 -2.3570 -1.7840
  628MOL0     H82851   5.065   9.978   7.554 -0.8242  3.7949 -2.4696
  628MOL0     H82852   5.001  10.191   7.525  1.3617  2.9692 -1.6433
  628MOL0     H82853   5.169  10.177   7.516  0.3622  1.4784 -0.2366
  628MOL0     H82854   5.006  10.264   7.758 -0.6460 -0.7677 -1.9983
  628MOL0     H82855   5.181  10.268   7.750 -0.5662 -2.1272 -0.7273
  628MOL0     H82856   5.047  10.480   7.741  1.2387 -0.6652  0.3378
  628MOL0     H82857   5.002  10.445   7.583  0.5838 -1.6331 -1.7320
  628MOL0     H82858   5.009  10.680   7.695  0.5444  1.3345  2.2384
  628MOL0     H82859   5.001  10.907   7.614  0.1305  0.6733  0.0329
  628MOL0     H82860   5.280  11.145   7.110  3.7165  0.5770  0.1243
  628MOL0     H82861   5.247  11.384   7.015  4.2582  0.0698 -1.0467
  628MOL0     H82862   5.132  11.723   7.065  1.0360  1.3288  0.5454
  628MOL0     H82863   5.115  11.558   7.005  0.0730 -0.0845  0.7986
  628MOL0     H82864   5.342  11.565   6.929 -1.1426  0.8512  0.4810
  628MOL0     H82865   5.371  11.731   6.991 -0.2126  1.1475  0.3581
  628MOL0     H82866   5.336  11.746   6.768  0.8634 -1.3531  1.6155
  628MOL0     H82867   5.181  11.801   6.830 -1.7310 -0.8620 -1.1919
  628MOL0     H82868   5.230  11.510   6.732 -1.9472 -1.2876 -1.5601
  628MOL0     H82869   5.085  11.568   6.773  1.3185 -0.0203  2.0006
  628MOL0     H82870   5.084  11.721   6.574 -0.1386  0.0996 -1.8199
  628MOL0     H82871   5.131  11.564   6.529 -0.2609 -2.0531  4.0159
  628MOL0     H82872   5.323  11.801   6.561 -2.1984 -0.3188  2.9204
  628MOL0     H82873   5.270  11.713   6.402  1.5663 -2.5273 -0.6389
  628MOL0     H82874   5.364  11.520   6.467 -0.8113 -0.2481 -0.2399
  628MOL0     H82875   5.469  11.655   6.440  0.6395  2.4668  2.4066
  628MOL0     H82876   5.448  11.543   6.712  0.8756 -3.4344 -0.0469
  628MOL0     H82877   5.537  11.687   6.663  0.9542 -1.0800  0.7011
  628MOL0     H82878   5.248  11.526   7.421 -0.9116  1.4415 -1.5201
  628MOL0     H82879   5.268  11.286   7.504  1.2910  0.2850 -0.1025
  628MOL0     H82880   5.358  10.852   7.383 -2.4102  0.1851 -1.7776
  628MOL0     H82881   5.389  10.626   7.488 -1.0407 -2.2715  1.1096
  628MOL0     H82882   6.151   9.567   7.306  1.2401 -0.6052 -0.4263
  628MOL0     H82883   6.087   9.534   7.089  0.0726 -1.3066 -0.5719
  628MOL0     H82884   6.020   9.303   6.736 -0.1969  1.2784  0.7999
  628MOL0     H82885   5.977   9.237   6.501  1.1106 -2.4592  1.1282
  628MOL0     H82886   5.590   9.063   6.321  1.0846  0.4517 -0.8637
  628MOL0     H82887   5.645   8.989   6.468  0.8057 -0.6616 -0.5226
  628MOL0     H82888   5.834   8.903   6.404 -0.8845  1.2149  2.1858
  628MOL0     H82889   5.713   8.834   6.296  1.0800  0.3769 -0.5782
  628MOL0     H82890   5.806   9.048   6.137  1.6342  0.1272  0.0487
  628MOL0     H82891   5.849   8.882   6.130  0.4044 -1.4537  0.6206
  628MOL0     H82892   5.992   9.031   6.350  1.0700 -4.1032  0.7911
  628MOL0     H82893   6.044   8.906   6.247  1.1632  0.9837  0.6634
  628MOL0     H82894   6.207   9.178   5.986 -1.2985  1.1821 -0.7198
  628MOL0     H82895   5.562   9.171   6.609 -0.1877 -0.1240  0.3848
  628MOL0     H82896   5.616   9.188   6.837  0.7650  1.7844  1.1956
  629MOL0     O82897   1.261   7.160  11.325  0.0381 -0.1685 -0.0893
  629MOL0     C82898   1.385   7.173  11.335 -0.1982 -0.1664  0.3706
  629MOL0     O82899   1.456   7.281  11.376  1.0370  0.7630 -0.3847
  629MOL0     C82900   1.394   7.402  11.352  0.9222  0.5136  0.0193
  629MOL0     C82901   1.436   7.479  11.242 -0.9587 -0.1459 -0.4470
  629MOL0     C82902   1.365   7.596  11.201 -0.1836  0.1878  0.2069
  629MOL0     C82903   1.256   7.649  11.276  0.1765  0.8703  0.4963
  629MOL0     O82904   1.173   7.749  11.242  0.3134 -0.3401  0.3780
  629MOL0     C82905   1.236   7.873  11.207  0.1862  0.8704  0.4418
  629MOL0     C82906   1.137   7.941  11.122  1.0493  0.1981 -0.1526
  629MOL0     C82907   1.173   8.091  11.117  0.8496  0.9817 -0.0570
  629MOL0     C82908   1.084   8.161  11.019  0.5643  0.0515  0.8331
  629MOL0     C82909   0.973   8.237  11.090 -1.1592 -0.5798 -0.3966
  629MOL0     C82910   0.919   8.362  11.010  0.8740  0.7667 -0.7004
  629MOL0     C82911   0.813   8.415  11.107  0.2999 -0.3747  0.6599
  629MOL0     C82912   0.776   8.568  11.067 -1.2482  0.5951  0.6441
  629MOL0     N82913   0.889   8.665  11.097 -0.1446  1.0907 -0.8861
  629MOL0     C82914   0.939   8.679  11.230 -0.5531  0.2307 -1.1242
  629MOL0     C82915   1.062   8.725  11.209 -0.6473  0.6471  1.1095
  629MOL0     C82916   1.158   8.755  11.321 -0.0617 -0.0647  0.6222
  629MOL0     C82917   1.153   8.898  11.353  0.4301 -0.6548  0.1247
  629MOL0     C82918   1.244   8.921  11.470 -0.5681 -0.5285  0.0001
  629MOL0     C82919   1.250   9.073  11.508  0.7844  0.8656 -0.3420
  629MOL0     O82920   1.324   9.116  11.628  0.5081 -0.1430  0.7371
  629MOL0     C82921   1.458   9.113  11.637 -0.4350  1.1828  0.8074
  629MOL0     C82922   1.502   9.185  11.751  0.5856 -0.3855  0.6190
  629MOL0     C82923   1.641   9.189  11.773 -0.6724 -0.5162  0.5868
  629MOL0     C82924   1.735   9.130  11.679  0.2059  0.1423  0.7285
  629MOL0     C82925   1.883   9.144  11.704 -0.4403  0.5704 -1.2232
  629MOL0     O82926   1.928   9.232  11.798  0.1550  0.1238 -0.2077
  629MOL0     C82927   2.066   9.237  11.805 -0.0419 -0.7498 -0.2602
  629MOL0     C82928   2.126   9.193  11.921 -0.0509 -1.1874 -0.3514
  629MOL0     C82929   2.257   9.197  11.935 -0.3171 -0.4487 -0.0393
  629MOL0     C82930   2.337   9.260  11.842 -0.6790 -0.6913 -0.4687
  629MOL0     O82931   2.473   9.272  11.877  0.5563 -0.4399  0.0315
  629MOL0     C82932   2.557   9.342  11.797 -0.0620 -0.0688 -1.4716
  629MOL0     C82933   2.703   9.309  11.846  0.1736 -0.0838  0.8541
  629MOL0     C82934   2.809   9.390  11.773  0.4073 -0.7757  0.6354
  629MOL0     C82935   2.954   9.370  11.829  0.0041  0.8173 -0.5945
  629MOL0     C82936   3.056   9.466  11.769  0.2161  0.2575  0.3597
  629MOL0     C82937   3.199   9.417  11.804  0.6434  0.5474  0.2535
  629MOL0     C82938   3.245   9.481  11.939 -0.0983  0.2881 -0.1634
  629MOL0     C82939   3.343   9.588  11.904  0.3994  0.5340 -0.4595
  629MOL0    Cl82940   3.411   9.670  12.041  0.1346  0.3113  0.6125
  629MOL0     C82941   2.276   9.310  11.727 -0.9027  1.2499  0.5047
  629MOL0     C82942   2.144   9.301  11.709  0.0690  0.0158  0.8956
  629MOL0     O82943   1.953   9.064  11.645  1.2971 -1.1535 -0.4141
  629MOL0     C82944   1.685   9.070  11.558  0.0527  1.0941 -0.2545
  629MOL0     C82945   1.543   9.051  11.543 -0.4103  0.8886  0.0342
  629MOL0     N82946   1.075   8.761  11.073 -1.0802  0.5210  0.6991
  629MOL0     N82947   0.971   8.723  11.011  0.4021  0.0385 -0.8007
  629MOL0     C82948   1.227   7.577  11.391 -0.1247  0.1835 -0.3664
  629MOL0     C82949   1.298   7.459  11.437 -0.1187 -0.3337 -0.0457
  629MOL0     C82950   1.466   7.068  11.279  0.0006  0.4150  0.0385
  629MOL0     C82951   1.604   7.072  11.285 -0.3239  1.3762 -0.8811
  629MOL0     C82952   1.669   6.972  11.219  0.0354  0.0842  0.6189
  629MOL0     C82953   1.609   6.861  11.164 -1.1592  0.2796  0.4149
  629MOL0     O82954   1.667   6.761  11.086  0.1812 -0.1180 -0.5480
  629MOL0     C82955   1.674   6.626  11.150 -0.6983 -0.1406  0.1703
  629MOL0     C82956   1.796   6.607  11.238 -0.0599 -0.8057  0.7837
  629MOL0     C82957   1.802   6.475  11.304 -0.5108  0.2301 -0.8966
  629MOL0     C82958   1.945   6.458  11.376  0.0839  0.2547 -0.3820
  629MOL0     C82959   2.012   6.324  11.361 -0.1597 -0.1011  1.3375
  629MOL0     C82960   2.086   6.226  11.369 -1.1588 -0.4268 -0.0449
  629MOL0     C82961   1.473   6.856  11.169  0.4462  0.2100  0.5954
  629MOL0     C82962   1.398   6.958  11.226 -0.6871 -0.7505  0.2409
  629MOL0     H82963   1.502   7.440  11.166 -0.7663 -3.1242  1.1240
  629MOL0     H82964   1.381   7.642  11.103 -0.1239  0.0007  0.1292
  629MOL0     H82965   1.331   7.863  11.154 -0.0729 -1.0368  0.2785
  629MOL0     H82966   1.247   7.937  11.295 -0.3979 -0.0359  1.1960
  629MOL0     H82967   1.038   7.933  11.167  1.3118 -2.9549  0.0646
  629MOL0     H82968   1.146   7.891  11.026 -1.7776 -1.9800  0.5809
  629MOL0     H82969   1.274   8.089  11.074  1.6054  1.3674  1.6300
  629MOL0     H82970   1.193   8.133  11.216  3.5614  2.9954 -1.3284
  629MOL0     H82971   1.151   8.234  10.973 -1.3675  1.4537  0.0944
  629MOL0     H82972   1.027   8.108  10.942  2.3806  1.8039 -1.8886
  629MOL0     H82973   1.009   8.264  11.190  0.2665  0.8901 -1.2599
  629MOL0     H82974   0.890   8.169  11.110  1.3743 -4.2307 -1.2017
  629MOL0     H82975   0.860   8.349  10.919 -3.3557  3.3093  1.3860
  629MOL0     H82976   0.994   8.441  10.996  0.8625  0.8158 -0.4737
  629MOL0     H82977   0.726   8.351  11.088  1.9220 -2.4907  0.0105
  629MOL0     H82978   0.829   8.415  11.215  1.0379  1.0804  0.5629
  629MOL0     H82979   0.690   8.609  11.121 -0.2027  2.4094  1.0264
  629MOL0     H82980   0.750   8.570  10.961 -1.0986 -0.1377  0.5907
  629MOL0     H82981   0.894   8.640  11.321  0.9109  0.9461 -0.0601
  629MOL0     H82982   1.261   8.735  11.292 -1.0638 -1.3090 -2.5728
  629MOL0     H82983   1.140   8.698  11.413 -1.3985  1.0839  1.0995
  629MOL0     H82984   1.048   8.920  11.375 -0.1345 -0.9913 -2.0307
  629MOL0     H82985   1.176   8.964  11.269  1.6374 -2.7346 -1.2742
  629MOL0     H82986   1.213   8.859  11.554  0.5828 -2.7367 -1.1172
  629MOL0     H82987   1.341   8.884  11.435  0.2365  1.1923  0.3221
  629MOL0     H82988   1.152   9.120  11.523  0.6017  1.5829 -3.2355
  629MOL0     H82989   1.306   9.126  11.431  1.8934  2.0913  1.2561
  629MOL0     H82990   1.422   9.239  11.802  2.8577 -0.3644  4.5977
  629MOL0     H82991   1.682   9.254  11.850 -1.3418 -0.4670  0.9059
  629MOL0     H82992   2.083   9.145  12.009  1.1043 -1.2059  0.2262
  629MOL0     H82993   2.305   9.153  12.022  0.7315 -2.8469 -1.7109
  629MOL0     H82994   2.537   9.449  11.803  0.0336 -0.0501 -1.4916
  629MOL0     H82995   2.545   9.299  11.697 -0.5413 -0.9306 -1.0606
  629MOL0     H82996   2.739   9.205  11.839  0.3786 -0.0793  1.7445
  629MOL0     H82997   2.716   9.321  11.954  2.4044  2.2672  0.4304
  629MOL0     H82998   2.767   9.490  11.788 -2.2080 -1.8649  1.0174
  629MOL0     H82999   2.796   9.355  11.671 -2.1770  0.4839  0.4645
  629MOL0     H83000   2.967   9.377  11.937  0.6454 -1.8955 -0.4369
  629MOL0     H83001   2.975   9.267  11.801 -1.1778  0.7169 -1.1736
  629MOL0     H83002   3.053   9.574  11.786 -0.1240  0.7224 -2.2517
  629MOL0     H83003   3.043   9.443  11.663  1.2259 -2.1925  0.6977
  629MOL0     H83004   3.262   9.451  11.722  0.2924  0.6791  0.0375
  629MOL0     H83005   3.212   9.309  11.807 -1.4485  0.1906 -1.0616
  629MOL0     H83006   3.161   9.523  11.996  0.2585  2.5808 -1.2246
  629MOL0     H83007   3.286   9.400  12.000 -1.9499 -0.6677 -0.1069
  629MOL0     H83008   3.289   9.661  11.843 -0.3259  0.4002  0.0063
  629MOL0     H83009   3.429   9.558  11.844 -0.3075  3.1746 -3.0191
  629MOL0     H83010   2.345   9.362  11.662  1.4024  0.7154  2.3798
  629MOL0     H83011   2.087   9.354  11.634 -1.8332 -1.7767  0.9949
  629MOL0     H83012   1.741   9.027  11.476  1.6294  1.2251  0.7321
  629MOL0     H83013   1.509   9.010  11.449  1.4798 -0.2249 -0.2205
  629MOL0     H83014   1.134   7.600  11.443 -2.0644  0.6683 -3.7926
  629MOL0     H83015   1.265   7.406  11.526  0.6857 -0.0249  0.4470
  629MOL0     H83016   1.648   7.153  11.343 -2.0485  1.5871  0.2146
  629MOL0     H83017   1.777   6.977  11.214  0.0054 -0.4283 -1.0845
  629MOL0     H83018   1.687   6.565  11.061  0.7811 -0.5240  0.6135
  629MOL0     H83019   1.584   6.594  11.203  0.0212 -1.8204  0.4276
  629MOL0     H83020   1.881   6.632  11.174 -1.6129  1.6854 -0.4569
  629MOL0     H83021   1.783   6.680  11.318  0.6117  2.1911 -1.6552
  629MOL0     H83022   1.800   6.402  11.222  0.7043 -0.9644  0.0814
  629MOL0     H83023   1.717   6.462  11.371  1.2268  1.8774  1.8429
  629MOL0     H83024   2.013   6.538  11.343  1.5313  0.1200  2.0080
  629MOL0     H83025   1.937   6.475  11.484  3.1610  0.8441 -0.1518
  629MOL0     H83026   2.170   6.159  11.370 -1.7567 -1.4858  4.5415
  629MOL0     H83027   1.423   6.774  11.119  1.1341 -0.0194  0.2684
  629MOL0     H83028   1.290   6.955  11.240 -0.6985  1.3259  0.9887
  630MOL0     O83029   7.991   3.627   9.004 -0.5106 -0.1760  0.4923
  630MOL0     C83030   8.086   3.570   8.956 -0.4580  0.0905 -0.1978
  630MOL0     O83031   8.098   3.433   8.940 -0.9396 -0.4036  0.6813
  630MOL0     C83032   7.994   3.352   8.980  0.6670  0.3117 -1.0707
  630MOL0     C83033   8.029   3.224   9.024 -0.3138  0.1169  0.3513
  630MOL0     C83034   7.928   3.138   9.073  0.0956  0.1545  0.4424
  630MOL0     C83035   7.791   3.178   9.083  0.0056  0.0258  0.8069
  630MOL0     O83036   7.681   3.116   9.140 -0.1333  0.0375  0.4286
  630MOL0     C83037   7.708   3.028   9.251  0.2622  0.4407  0.4181
  630MOL0     C83038   7.588   2.991   9.338 -0.5529 -0.6634 -0.4485
  630MOL0     C83039   7.482   2.923   9.256 -0.3449 -0.0764 -0.4114
  630MOL0     C83040   7.373   2.883   9.351  0.4579  0.2621 -0.0758
  630MOL0     C83041   7.257   2.809   9.285 -0.0369  0.1874 -0.6782
  630MOL0     C83042   7.177   2.903   9.202  0.5348  0.1392 -0.4784
  630MOL0     C83043   7.060   2.820   9.136 -0.0574 -0.1473  0.6909
  630MOL0     C83044   6.972   2.915   9.057  0.0542  0.6394 -1.1402
  630MOL0     N83045   6.919   3.026   9.140  0.7510  1.1959  0.2855
  630MOL0     C83046   6.806   3.010   9.218  0.4978 -0.4321 -0.4661
  630MOL0     C83047   6.776   3.138   9.268 -0.0053  0.5072 -0.7248
  630MOL0     C83048   6.658   3.189   9.345  0.2276 -0.3450 -0.3734
  630MOL0     C83049   6.544   3.225   9.252 -0.6786  0.4990 -0.9722
  630MOL0     C83050   6.455   3.331   9.322  0.2100  0.0705 -0.1737
  630MOL0     C83051   6.346   3.395   9.230  0.3907  0.5818 -0.2785
  630MOL0     O83052   6.249   3.452   9.308 -0.6406 -0.1066 -0.3415
  630MOL0     C83053   6.154   3.541   9.259  0.0065 -0.0696 -0.5413
  630MOL0     C83054   6.119   3.557   9.126 -0.4714  0.5933 -0.1239
  630MOL0     C83055   6.016   3.645   9.077  0.1059 -0.4115 -0.2897
  630MOL0     C83056   5.946   3.726   9.171  1.1921 -0.3001  0.2064
  630MOL0     C83057   5.835   3.815   9.131  0.0886 -0.0127 -0.7272
  630MOL0     O83058   5.812   3.919   9.202  0.0422 -0.1125  0.0829
  630MOL0     C83059   5.717   4.000   9.176  0.0901  1.1468  0.3917
  630MOL0     C83060   5.639   4.030   9.289  0.1549 -0.2033  0.0595
  630MOL0     C83061   5.546   4.129   9.271  0.5298  1.0254  0.4994
  630MOL0     C83062   5.527   4.199   9.147 -0.5611  0.1906 -0.1629
  630MOL0     O83063   5.430   4.298   9.141 -0.1102  0.0228  0.0505
  630MOL0     C83064   5.408   4.350   9.008 -0.0318 -0.0765  1.2844
  630MOL0     C83065   5.297   4.462   8.998 -0.5579 -0.4903  0.8994
  630MOL0     C83066   5.156   4.421   9.025 -0.0937 -0.6040  0.4177
  630MOL0     C83067   5.056   4.536   9.006 -0.2888  0.0172 -1.4969
  630MOL0     C83068   4.912   4.511   9.050  0.7708 -0.6470 -0.0103
  630MOL0     C83069   4.840   4.647   9.069 -0.1401 -0.4175  0.2417
  630MOL0     C83070   4.702   4.644   8.997  0.3726  0.0136 -0.8887
  630MOL0     C83071   4.709   4.660   8.846 -0.7878  0.0907 -0.7149
  630MOL0    Cl83072   4.793   4.803   8.778 -0.1159 -0.1623  0.0091
  630MOL0     C83073   5.597   4.141   9.034 -0.0195  0.1170 -0.1697
  630MOL0     C83074   5.692   4.044   9.045  1.4121  0.1065 -0.1661
  630MOL0     O83075   5.763   3.777   9.034  0.3736  0.4468 -0.9217
  630MOL0     C83076   5.978   3.706   9.307  0.8040  0.0420 -0.0377
  630MOL0     C83077   6.076   3.618   9.345 -0.1321 -0.4828 -0.2075
  630MOL0     N83078   6.868   3.219   9.222  0.1143  0.5062 -0.3856
  630MOL0     N83079   6.950   3.155   9.142 -0.3945 -0.1102  0.5097
  630MOL0     C83080   7.760   3.304   9.025  0.0890  0.9317  0.3998
  630MOL0     C83081   7.856   3.380   8.971  0.5206 -0.0920  0.2871
  630MOL0     C83082   8.211   3.638   8.936  0.6899  0.0223  0.9709
  630MOL0     C83083   8.227   3.776   8.973 -0.2637  0.8468 -0.1923
  630MOL0     C83084   8.354   3.851   8.966  0.9663  0.4822  1.0676
  630MOL0     C83085   8.465   3.772   8.941  0.4725  0.0520  0.1487
  630MOL0     O83086   8.597   3.807   8.928  0.7006 -0.1468  0.7119
  630MOL0     C83087   8.629   3.939   8.957  0.1203  0.1268  0.0290
  630MOL0     C83088   8.781   3.960   8.944  0.3709  0.3134  0.1011
  630MOL0     C83089   8.812   4.101   8.958  0.6045 -1.2976  0.3122
  630MOL0     C83090   8.963   4.123   8.954 -0.4457 -0.5290  0.1122
  630MOL0     C83091   9.006   4.258   8.978 -0.1588  0.7346 -0.1607
  630MOL0     C83092   9.030   4.374   8.991 -0.2716  0.0748  0.2908
  630MOL0     C83093   8.450   3.638   8.912 -0.3190  0.0811 -0.2744
  630MOL0     C83094   8.328   3.571   8.912  0.3491  0.6692  0.7858
  630MOL0     H83095   8.134   3.195   9.021 -0.0651  0.3138  3.8901
  630MOL0     H83096   7.941   3.039   9.117 -1.8528  0.0401  0.8563
  630MOL0     H83097   7.787   3.073   9.311 -0.3958  0.7576  1.0645
  630MOL0     H83098   7.739   2.932   9.209 -2.3489  0.5185 -2.0552
  630MOL0     H83099   7.561   3.087   9.381  0.6615  0.1567 -1.4509
  630MOL0     H83100   7.621   2.933   9.425 -1.3350  0.1758  0.4182
  630MOL0     H83101   7.512   2.837   9.195 -2.7685 -2.9264  2.0293
  630MOL0     H83102   7.439   3.002   9.194  0.5951  1.6295  1.0122
  630MOL0     H83103   7.418   2.816   9.425  0.5124  0.5439  0.1466
  630MOL0     H83104   7.329   2.972   9.396  0.3254  1.2985 -2.1344
  630MOL0     H83105   7.200   2.754   9.360  2.4023 -2.8291 -0.8110
  630MOL0     H83106   7.294   2.726   9.223 -3.0403 -0.9065 -1.1833
  630MOL0     H83107   7.234   2.954   9.124  1.3318 -0.3379 -0.2194
  630MOL0     H83108   7.134   2.981   9.266 -0.1700  1.0085 -1.9542
  630MOL0     H83109   7.111   2.752   9.067 -0.0015 -0.9445  1.4975
  630MOL0     H83110   7.016   2.757   9.214  1.2197 -3.2865 -0.9287
  630MOL0     H83111   6.888   2.858   9.014  0.9155 -1.4205 -0.2566
  630MOL0     H83112   7.023   2.955   8.969 -0.7262  1.7410 -1.1126
  630MOL0     H83113   6.744   2.922   9.233  0.3737 -0.1821  0.5327
  630MOL0     H83114   6.694   3.282   9.391  3.8464 -1.6903 -0.1715
  630MOL0     H83115   6.617   3.135   9.431 -0.9117 -1.8398 -1.8204
  630MOL0     H83116   6.489   3.133   9.233 -1.5182  1.0339 -1.1600
  630MOL0     H83117   6.591   3.262   9.160  1.9698 -2.6694 -1.0735
  630MOL0     H83118   6.404   3.279   9.404 -3.9219 -0.1384 -2.6078
  630MOL0     H83119   6.513   3.414   9.365 -0.1354  1.6792 -2.6286
  630MOL0     H83120   6.302   3.332   9.153 -1.9568  1.6816  0.0672
  630MOL0     H83121   6.401   3.458   9.159  4.5288 -5.3554 -3.1757
  630MOL0     H83122   6.172   3.499   9.051 -0.8256  0.1312 -0.0215
  630MOL0     H83123   6.015   3.645   8.969  0.2845 -1.4291 -0.3036
  630MOL0     H83124   5.647   3.980   9.385  1.0074  0.4712  0.3531
  630MOL0     H83125   5.470   4.164   9.340 -0.0263 -0.8182  0.8857
  630MOL0     H83126   5.376   4.268   8.944 -1.2084 -1.0596  3.0592
  630MOL0     H83127   5.494   4.411   8.979 -0.5940  0.5282  0.8566
  630MOL0     H83128   5.303   4.498   8.895 -0.9535  0.3521  1.1568
  630MOL0     H83129   5.333   4.551   9.051 -0.0887 -0.4088  0.4551
  630MOL0     H83130   5.146   4.397   9.131  1.7249 -1.3726  0.4465
  630MOL0     H83131   5.134   4.335   8.960  4.3655 -1.2078 -0.6237
  630MOL0     H83132   5.089   4.614   9.075 -2.7976  0.0411 -0.2270
  630MOL0     H83133   5.068   4.567   8.901 -0.3185 -1.2868 -1.9004
  630MOL0     H83134   4.921   4.458   9.145 -1.3533  1.3017  1.3516
  630MOL0     H83135   4.847   4.446   8.991  1.7112 -1.3349 -0.3162
  630MOL0     H83136   4.895   4.732   9.028  0.5036 -1.0195 -0.1744
  630MOL0     H83137   4.842   4.661   9.177  0.8192 -0.6350  0.2638
  630MOL0     H83138   4.652   4.552   9.029 -0.3821  0.1960 -1.5113
  630MOL0     H83139   4.642   4.724   9.041  1.8479  2.9436 -3.8198
  630MOL0     H83140   4.601   4.679   8.835 -1.4427 -0.2174  3.5533
  630MOL0     H83141   4.731   4.569   8.790 -1.5416 -1.2459  1.0594
  630MOL0     H83142   5.596   4.179   8.932 -1.7182 -1.6979 -0.8799
  630MOL0     H83143   5.744   4.013   8.955  5.5575 -0.6387  2.2001
  630MOL0     H83144   5.921   3.763   9.380 -0.5660 -2.3024  0.8093
  630MOL0     H83145   6.096   3.598   9.450  2.8711  4.7113  0.5553
  630MOL0     H83146   7.661   3.347   9.025  0.8505  2.8129 -1.5291
  630MOL0     H83147   7.814   3.475   8.938 -1.4263 -1.3502 -1.0798
  630MOL0     H83148   8.147   3.834   9.016 -0.8620 -0.6262  0.7956
  630MOL0     H83149   8.350   3.959   8.975 -2.3493  0.8921 -2.4823
  630MOL0     H83150   8.607   3.962   9.062  0.2660  3.8176 -0.6196
  630MOL0     H83151   8.573   4.006   8.891  1.7331 -0.7030 -2.3187
  630MOL0     H83152   8.829   3.908   9.027  3.8256  0.1824 -1.8247
  630MOL0     H83153   8.811   3.932   8.842 -3.0332  0.9309 -1.2296
  630MOL0     H83154   8.779   4.147   9.052  2.5032  3.2953 -0.9669
  630MOL0     H83155   8.758   4.156   8.881  1.4247  1.5895  1.6520
  630MOL0     H83156   8.996   4.058   9.036  1.2378  0.5163  0.3031
  630MOL0     H83157   9.009   4.089   8.860 -1.7600 -1.1688 -0.3251
  630MOL0     H83158   9.065   4.473   8.969  3.8666 -1.2465 -0.0224
  630MOL0     H83159   8.536   3.583   8.874 -0.1123  1.9101 -2.7235
  630MOL0     H83160   8.326   3.464   8.895 -0.7306  0.8715 -0.4885
  631MOL0     O83161   9.796   9.282   9.439 -1.1728 -0.4834 -0.3409
  631MOL0     C83162   9.770   9.163   9.462 -0.0255  0.2685  1.3292
  631MOL0     O83163   9.659   9.113   9.524  0.4651  0.6774 -0.1102
  631MOL0     C83164   9.569   9.207   9.582 -0.4011 -0.3357  0.4519
  631MOL0     C83165   9.541   9.185   9.716 -0.0080 -0.4108 -0.1382
  631MOL0     C83166   9.472   9.286   9.786  1.5215 -0.1227  0.2945
  631MOL0     C83167   9.417   9.397   9.727  1.4001 -0.1766 -0.2974
  631MOL0     O83168   9.357   9.496   9.806 -0.5116  0.3813 -0.2529
  631MOL0     C83169   9.265   9.581   9.743  0.3647 -0.8381  0.5060
  631MOL0     C83170   9.159   9.637   9.840  0.3614 -0.7843 -0.3196
  631MOL0     C83171   9.056   9.721   9.762 -0.2237 -0.0351 -0.0313
  631MOL0     C83172   8.945   9.771   9.856  0.4559  1.0219  0.0933
  631MOL0     C83173   8.831   9.846   9.778  0.3588 -0.2781 -0.5522
  631MOL0     C83174   8.705   9.869   9.870  0.0391 -0.0012 -0.6567
  631MOL0     C83175   8.585   9.907   9.791 -0.0690  0.9881  0.3140
  631MOL0     C83176   8.473   9.942   9.879 -0.7558  1.0891  0.5378
  631MOL0     N83177   8.337   9.958   9.821  0.1863 -0.3740  0.4314
  631MOL0     C83178   8.278  10.080   9.786  0.7661  0.0988  0.3444
  631MOL0     C83179   8.146  10.046   9.750 -0.1356  1.3279 -0.4146
  631MOL0     C83180   8.044  10.141   9.690  0.1708 -0.1652  0.2942
  631MOL0     C83181   7.958  10.085   9.577 -0.2480 -0.3326  0.4001
  631MOL0     C83182   7.826  10.031   9.635  0.6414 -0.1495  0.9166
  631MOL0     C83183   7.716  10.010   9.532  0.5158 -0.3055  0.7161
  631MOL0     O83184   7.679  10.139   9.495  0.4532 -0.3448  0.2513
  631MOL0     C83185   7.554  10.150   9.440 -0.0799 -1.0025  0.0342
  631MOL0     C83186   7.545  10.229   9.327 -0.4731  0.4548  0.4082
  631MOL0     C83187   7.418  10.246   9.265  0.4272  0.6404  0.4237
  631MOL0     C83188   7.303  10.171   9.309  0.3316 -0.1483  1.6592
  631MOL0     C83189   7.172  10.166   9.224 -0.4397 -0.1403  0.0074
  631MOL0     O83190   7.179  10.247   9.114 -0.3665  0.3880 -0.8465
  631MOL0     C83191   7.077  10.242   9.025 -0.7075  0.4863  0.3860
  631MOL0     C83192   6.954  10.302   9.054  0.6882 -0.3072  0.8954
  631MOL0     C83193   6.850  10.289   8.956 -0.7251 -0.0083  0.3886
  631MOL0     C83194   6.873  10.220   8.842  0.8603 -0.2588 -0.0217
  631MOL0     O83195   6.778  10.191   8.744  0.1927 -0.2641 -0.3985
  631MOL0     C83196   6.654  10.263   8.758  0.5324 -0.0568 -0.2389
  631MOL0     C83197   6.577  10.245   8.626  0.0451  0.3686 -0.0492
  631MOL0     C83198   6.445  10.322   8.626 -0.3017 -0.1469  1.8823
  631MOL0     C83199   6.388  10.321   8.479 -0.4523 -0.5875 -0.2691
  631MOL0     C83200   6.244  10.382   8.488 -0.0462 -0.7655  0.1942
  631MOL0     C83201   6.122  10.288   8.502  0.1047 -0.6212  0.0517
  631MOL0     C83202   6.078  10.227   8.643 -0.4875 -1.6222  0.0021
  631MOL0     C83203   5.941  10.161   8.636 -0.2459  0.5260 -0.6942
  631MOL0    Cl83204   5.913  10.072   8.792 -0.1170 -0.2085 -0.3367
  631MOL0     C83205   6.996  10.155   8.820 -0.6677 -1.0772  0.5624
  631MOL0     C83206   7.101  10.173   8.909 -0.2419  0.4653  0.7412
  631MOL0     O83207   7.079  10.091   9.253 -0.1018  0.6601  0.0953
  631MOL0     C83208   7.325  10.094   9.425  1.2596  0.1551  0.7345
  631MOL0     C83209   7.446  10.091   9.494 -0.2974 -0.4891  0.4565
  631MOL0     N83210   8.132   9.907   9.764 -0.4012 -0.5242 -0.1031
  631MOL0     N83211   8.244   9.863   9.809 -1.3400  0.5150 -0.9613
  631MOL0     C83212   9.452   9.416   9.594 -0.1942 -0.1307  1.2131
  631MOL0     C83213   9.524   9.327   9.521 -1.5588 -1.8459  0.0088
  631MOL0     C83214   9.866   9.056   9.424 -0.4263 -0.7351  0.6911
  631MOL0     C83215   9.843   8.919   9.439 -0.1034 -0.4063 -0.9842
  631MOL0     C83216   9.939   8.824   9.399 -0.0408 -0.3177  0.2225
  631MOL0     C83217  10.052   8.869   9.320 -0.1875 -0.0260  0.4096
  631MOL0     O83218  10.157   8.788   9.272 -0.5521  0.2544 -0.5337
  631MOL0     C83219  10.140   8.641   9.300 -0.1578  0.9372 -0.6453
  631MOL0     C83220  10.274   8.559   9.266 -0.2370  0.1469  0.6490
  631MOL0     C83221  10.313   8.575   9.120  0.3316 -0.3893  0.1034
  631MOL0     C83222  10.440   8.504   9.071 -0.0116 -0.1888 -0.5720
  631MOL0     C83223  10.552   8.535   9.156 -0.2522  0.8761  0.4484
  631MOL0     C83224  10.640   8.549   9.235 -0.5465  0.6250  0.5600
  631MOL0     C83225  10.081   9.006   9.315  0.2442 -0.1417 -0.5186
  631MOL0     C83226   9.994   9.098   9.369  0.2329 -0.3594  0.3489
  631MOL0     H83227   9.576   9.100   9.773 -2.0105 -1.1430  0.0954
  631MOL0     H83228   9.457   9.274   9.893  0.0263 -1.0580 -0.0048
  631MOL0     H83229   9.218   9.522   9.663 -1.1673  0.1089  0.6621
  631MOL0     H83230   9.329   9.660   9.703  1.5724 -0.6029  2.7350
  631MOL0     H83231   9.216   9.697   9.911  4.3858 -1.7742 -2.3692
  631MOL0     H83232   9.121   9.544   9.882 -1.3587 -0.3682 -0.8798
  631MOL0     H83233   9.008   9.665   9.681 -0.3071  2.7546 -2.0572
  631MOL0     H83234   9.100   9.812   9.721  0.1730 -0.5843 -0.8681
  631MOL0     H83235   8.905   9.678   9.897 -0.4208  2.3956  2.5624
  631MOL0     H83236   8.995   9.825   9.937  0.8704  0.8366 -0.0351
  631MOL0     H83237   8.794   9.787   9.694 -2.3569  2.6564 -1.5931
  631MOL0     H83238   8.873   9.938   9.734 -0.6822 -0.1436 -1.3019
  631MOL0     H83239   8.742   9.948   9.936 -1.2118 -0.7648  1.0284
  631MOL0     H83240   8.695   9.779   9.931  1.6109  0.0742 -0.2337
  631MOL0     H83241   8.619   9.983   9.720 -0.1086  1.8226  1.1598
  631MOL0     H83242   8.563   9.818   9.732 -1.3088  2.1267 -1.0195
  631MOL0     H83243   8.502  10.042   9.915 -0.3422  0.9933  0.4753
  631MOL0     H83244   8.446   9.866   9.953 -3.3537 -0.3259 -1.7081
  631MOL0     H83245   8.323  10.177   9.769  0.4249 -0.0892 -1.8887
  631MOL0     H83246   8.087  10.237   9.658  2.5928 -1.7024 -1.3658
  631MOL0     H83247   7.974  10.167   9.769  1.8977 -0.7290  2.0962
  631MOL0     H83248   8.007  10.002   9.526  1.2334  0.0847  1.1047
  631MOL0     H83249   7.943  10.168   9.507 -1.4010  0.3808  1.4604
  631MOL0     H83250   7.841   9.930   9.674  0.4257 -0.9153 -0.8760
  631MOL0     H83251   7.780  10.100   9.706 -3.4492  0.0747 -1.5829
  631MOL0     H83252   7.636   9.950   9.575  0.6228  0.9182  2.7639
  631MOL0     H83253   7.762   9.956   9.449  0.0399  2.5114 -1.5595
  631MOL0     H83254   7.641  10.273   9.299 -0.4677 -0.2875 -0.8324
  631MOL0     H83255   7.404  10.308   9.177 -0.8961  1.9378  1.4970
  631MOL0     H83256   6.926  10.355   9.145 -0.3547 -3.7488  2.7954
  631MOL0     H83257   6.752  10.322   8.989 -0.1083  1.3971  0.8813
  631MOL0     H83258   6.674  10.370   8.773 -2.4320  0.4717  0.7534
  631MOL0     H83259   6.601  10.234   8.849 -0.8880  0.3175 -0.9171
  631MOL0     H83260   6.554  10.140   8.606 -2.2525  0.5277  1.3945
  631MOL0     H83261   6.645  10.279   8.547  2.6993 -2.0215  1.0627
  631MOL0     H83262   6.449  10.425   8.663  2.7031  1.6573 -2.6048
  631MOL0     H83263   6.375  10.268   8.690 -1.0881 -1.3138  0.1273
  631MOL0     H83264   6.442  10.380   8.404  0.9907 -1.9280 -0.3310
  631MOL0     H83265   6.377  10.220   8.440 -0.2732 -0.0169 -1.8781
  631MOL0     H83266   6.227  10.435   8.394  0.2852  1.5272  1.3378
  631MOL0     H83267   6.246  10.462   8.563 -0.7993  0.4600 -1.0503
  631MOL0     H83268   6.134  10.202   8.435 -0.8828 -0.5209 -0.2729
  631MOL0     H83269   6.034  10.352   8.489  0.3501  0.2515  2.3098
  631MOL0     H83270   6.150  10.150   8.671 -0.1879 -1.5398 -0.5342
  631MOL0     H83271   6.090  10.301   8.723 -0.0687 -0.9476 -0.6695
  631MOL0     H83272   5.939  10.104   8.542  2.5386  0.9308 -1.0898
  631MOL0     H83273   5.872  10.245   8.625 -0.0744  0.5769 -1.4043
  631MOL0     H83274   7.009  10.103   8.725 -1.4043  2.1946 -1.4888
  631MOL0     H83275   7.194  10.120   8.896 -0.7401  0.0225 -1.2992
  631MOL0     H83276   7.249  10.036   9.476  1.6746  0.4119  1.6597
  631MOL0     H83277   7.454  10.041   9.590  1.5071 -1.8894 -0.3645
  631MOL0     H83278   9.413   9.491   9.525  2.6573 -0.1802 -0.6027
  631MOL0     H83279   9.538   9.343   9.415  1.9976 -1.6439  0.4169
  631MOL0     H83280   9.758   8.879   9.494  1.1493  1.0305  2.2427
  631MOL0     H83281   9.925   8.727   9.445 -0.1877  0.2075  1.3223
  631MOL0     H83282  10.058   8.600   9.240  1.2632 -3.9343  0.3365
  631MOL0     H83283  10.124   8.626   9.407  4.1936  1.4398  0.2511
  631MOL0     H83284  10.359   8.595   9.324  0.0909  1.5108 -0.6112
  631MOL0     H83285  10.256   8.452   9.281 -2.0286  0.2426 -0.5349
  631MOL0     H83286  10.340   8.676   9.087  2.2135 -1.5662 -2.2885
  631MOL0     H83287  10.225   8.534   9.071 -2.2135  1.1060  3.0500
  631MOL0     H83288  10.423   8.396   9.069  1.8072 -0.5120 -1.4316
  631MOL0     H83289  10.457   8.531   8.966 -0.7572  3.1128  0.0319
  631MOL0     H83290  10.717   8.589   9.298  0.7509  2.1524 -1.8513
  631MOL0     H83291  10.167   9.050   9.265  1.4883  2.8938  3.6809
  631MOL0     H83292  10.010   9.205   9.364 -2.1087  0.1501  1.8871
  632MOL0     O83293   6.741   9.742  11.322  0.6144 -0.6956 -0.0422
  632MOL0     C83294   6.833   9.768  11.246  0.5322  0.2649 -0.0458
  632MOL0     O83295   6.845   9.884  11.173 -0.4377 -0.3723  1.0156
  632MOL0     C83296   6.813  10.003  11.226  1.4775 -0.0852 -0.8706
  632MOL0     C83297   6.909  10.108  11.218  0.5995  0.2833 -0.0633
  632MOL0     C83298   6.885  10.225  11.284 -0.2332 -0.2948 -0.0786
  632MOL0     C83299   6.776  10.238  11.368  0.2309  0.0833  0.5277
  632MOL0     O83300   6.749  10.334  11.461  0.0092 -0.3860  0.7750
  632MOL0     C83301   6.825  10.459  11.465 -0.0633  0.1438 -0.2913
  632MOL0     C83302   6.968  10.434  11.525  0.9191 -0.3497 -0.5153
  632MOL0     C83303   7.068  10.545  11.504  0.1892  0.0066  0.3207
  632MOL0     C83304   7.200  10.520  11.572 -1.2244  0.3035  0.0058
  632MOL0     C83305   7.302  10.621  11.510  0.6561 -0.1333  0.6154
  632MOL0     C83306   7.439  10.652  11.583 -0.5003 -0.9682  0.2006
  632MOL0     C83307   7.527  10.531  11.619 -0.4659  0.5764  0.5147
  632MOL0     C83308   7.573  10.446  11.504  0.1793 -0.5668 -0.5408
  632MOL0     N83309   7.715  10.436  11.487 -1.1403  1.0838 -0.5935
  632MOL0     C83310   7.792  10.512  11.403  0.1865 -0.5488  0.8131
  632MOL0     C83311   7.918  10.492  11.439  0.1693  0.6048 -0.1429
  632MOL0     C83312   8.049  10.547  11.374  0.0800 -0.4004  0.1859
  632MOL0     C83313   8.069  10.694  11.390 -0.1637 -0.1430  0.5153
  632MOL0     C83314   8.147  10.740  11.520 -0.3677  0.7308 -0.0330
  632MOL0     C83315   8.068  10.687  11.650 -0.7538 -0.1120 -0.2024
  632MOL0     O83316   8.124  10.754  11.770  0.1257  0.0154 -0.6193
  632MOL0     C83317   8.059  10.735  11.892 -0.5138  0.6310  0.2789
  632MOL0     C83318   7.954  10.641  11.918 -0.2359  0.1263 -0.5869
  632MOL0     C83319   7.915  10.605  12.046 -0.3624 -0.3914  1.5100
  632MOL0     C83320   7.980  10.652  12.165  0.6035  0.2529  0.0900
  632MOL0     C83321   7.950  10.610  12.302 -0.2103  0.0312 -0.7393
  632MOL0     O83322   7.828  10.546  12.322  0.0740 -0.3659 -0.5444
  632MOL0     C83323   7.789  10.515  12.444  0.8340  0.2005 -0.0746
  632MOL0     C83324   7.786  10.381  12.476  0.1356  0.4293 -0.2363
  632MOL0     C83325   7.710  10.339  12.591  0.5586  0.2587  0.0879
  632MOL0     C83326   7.660  10.429  12.680  1.5669 -0.5678 -0.0750
  632MOL0     O83327   7.594  10.388  12.789 -0.1528  0.3352  0.1927
  632MOL0     C83328   7.622  10.459  12.916 -0.1043 -0.1688 -0.5209
  632MOL0     C83329   7.594  10.362  13.026  0.7961  0.2480 -0.2327
  632MOL0     C83330   7.609  10.428  13.164 -0.0148 -0.3079 -0.5151
  632MOL0     C83331   7.584  10.316  13.262  0.7089 -0.6321 -0.6069
  632MOL0     C83332   7.597  10.370  13.401  0.6035 -0.0848 -0.1117
  632MOL0     C83333   7.594  10.268  13.512  0.6246  0.2672 -0.5870
  632MOL0     C83334   7.576  10.349  13.643  0.5813 -0.5081  0.2480
  632MOL0     C83335   7.576  10.270  13.771 -0.8232 -0.0510  0.0929
  632MOL0    Cl83336   7.670  10.103  13.758 -0.0350  0.0009 -0.0111
  632MOL0     C83337   7.677  10.568  12.655  0.6075 -0.0447  0.4916
  632MOL0     C83338   7.737  10.610  12.533  0.5628  0.6285  0.2870
  632MOL0     O83339   8.032  10.638  12.392 -0.5663  0.8485 -0.9109
  632MOL0     C83340   8.079  10.747  12.138  0.4033 -0.3928 -0.0917
  632MOL0     C83341   8.114  10.784  12.009  0.3697 -0.6807  0.1531
  632MOL0     N83342   7.920  10.386  11.535  0.3624  0.3485 -0.1477
  632MOL0     N83343   7.799  10.360  11.560  0.5146 -0.4713 -0.1637
  632MOL0     C83344   6.676  10.145  11.365  0.1818 -1.1723 -0.2674
  632MOL0     C83345   6.689  10.025  11.298 -0.1413 -0.6240  1.4817
  632MOL0     C83346   6.938   9.669  11.235  0.4002 -0.1727  0.7680
  632MOL0     C83347   6.993   9.624  11.111  0.6753  0.2217  0.0122
  632MOL0     C83348   7.086   9.523  11.107  0.8575  0.9533 -0.5076
  632MOL0     C83349   7.135   9.460  11.224  0.8170  0.1566  0.8186
  632MOL0     O83350   7.223   9.357  11.200  0.8789 -0.1889  0.3822
  632MOL0     C83351   7.297   9.302  11.304 -0.2309 -0.6402 -0.5531
  632MOL0     C83352   7.433   9.247  11.254 -0.1389  0.2592  0.5119
  632MOL0     C83353   7.509   9.174  11.360  0.0321  0.4781 -0.2088
  632MOL0     C83354   7.545   9.241  11.494 -0.1016  0.3231 -0.2555
  632MOL0     C83355   7.635   9.155  11.564 -0.3681  0.1174 -0.5635
  632MOL0     C83356   7.709   9.098  11.644 -0.1908  0.0986  0.5048
  632MOL0     C83357   7.092   9.504  11.350  0.7716  0.1619  1.0109
  632MOL0     C83358   6.985   9.607  11.353  0.6063 -0.2385  0.0168
  632MOL0     H83359   7.003  10.079  11.173 -0.8104  0.1309 -3.1124
  632MOL0     H83360   6.953  10.305  11.258 -0.3642  1.2462  3.7070
  632MOL0     H83361   6.762  10.516  11.533 -0.2591  0.1118 -0.4442
  632MOL0     H83362   6.844  10.503  11.367  3.1038 -1.4783 -0.5262
  632MOL0     H83363   7.004  10.338  11.487  1.4540 -1.7542  3.1469
  632MOL0     H83364   6.953  10.413  11.631 -2.3161 -3.5393 -1.4255
  632MOL0     H83365   7.028  10.636  11.549  2.3423  0.0045  2.4392
  632MOL0     H83366   7.079  10.553  11.395 -1.8463  0.4394  0.1178
  632MOL0     H83367   7.172  10.540  11.675 -1.9266 -2.4470  0.4287
  632MOL0     H83368   7.231  10.415  11.563  0.9724  0.9154 -0.1426
  632MOL0     H83369   7.250  10.716  11.490 -3.0312 -1.6305  2.1621
  632MOL0     H83370   7.329  10.585  11.410  1.4395 -0.0908  0.8101
  632MOL0     H83371   7.418  10.706  11.675 -1.2740  3.1979 -2.1660
  632MOL0     H83372   7.489  10.715  11.509 -1.1289 -0.0953  0.5076
  632MOL0     H83373   7.614  10.582  11.662  0.6429 -0.0634 -0.8893
  632MOL0     H83374   7.487  10.464  11.695  2.4471 -0.5960  1.1374
  632MOL0     H83375   7.525  10.472  11.410 -1.6995 -0.0305  0.5209
  632MOL0     H83376   7.540  10.343  11.523 -1.6203  0.4730  2.7687
  632MOL0     H83377   7.755  10.557  11.311 -1.0599  0.9152  1.9750
  632MOL0     H83378   8.034  10.511  11.272 -2.1657 -0.1029  0.3630
  632MOL0     H83379   8.140  10.493  11.403 -0.5371 -3.2745 -2.6578
  632MOL0     H83380   7.972  10.744  11.402  0.2102  0.7514 -0.0861
  632MOL0     H83381   8.116  10.732  11.299  2.3635  0.3544  1.9368
  632MOL0     H83382   8.254  10.716  11.518 -0.1427  1.3512  1.9728
  632MOL0     H83383   8.148  10.849  11.527  0.3735  0.7252  0.0544
  632MOL0     H83384   8.060  10.579  11.642 -1.5263 -0.0201 -0.8256
  632MOL0     H83385   7.966  10.726  11.639 -0.9891 -0.7511 -0.3474
  632MOL0     H83386   7.902  10.601  11.831 -2.4737 -0.9046  1.1084
  632MOL0     H83387   7.831  10.537  12.050 -1.2501  0.5909  0.3669
  632MOL0     H83388   7.820  10.308  12.403  0.1435  0.3972 -0.2007
  632MOL0     H83389   7.691  10.234  12.609 -0.5063 -0.2312 -3.1240
  632MOL0     H83390   7.547  10.538  12.926 -1.8855 -1.8223 -0.1340
  632MOL0     H83391   7.724  10.498  12.918 -0.8478  2.0792  2.7972
  632MOL0     H83392   7.678  10.291  13.026  2.7960  2.4466  1.7099
  632MOL0     H83393   7.496  10.319  13.004 -0.4044  1.7473  1.8017
  632MOL0     H83394   7.532  10.507  13.166  2.8730  2.7752 -1.6664
  632MOL0     H83395   7.710  10.467  13.177  0.4513 -0.3832 -3.3638
  632MOL0     H83396   7.482  10.278  13.252  0.0477  0.8504  0.1661
  632MOL0     H83397   7.649  10.230  13.245 -0.5815 -2.2087  1.7640
  632MOL0     H83398   7.508  10.433  13.410 -0.5491 -1.6306 -0.2388
  632MOL0     H83399   7.687  10.431  13.406  1.1168 -0.9342  3.5434
  632MOL0     H83400   7.683  10.205  13.518 -0.6070 -1.4749  0.4338
  632MOL0     H83401   7.511  10.201  13.487  2.0669 -1.8294 -0.0017
  632MOL0     H83402   7.659  10.421  13.641 -0.1136  0.3407 -2.3218
  632MOL0     H83403   7.491  10.415  13.623  0.0778 -1.7464 -2.0195
  632MOL0     H83404   7.477  10.256  13.816  0.8211 -0.2548  4.1031
  632MOL0     H83405   7.631  10.332  13.842  1.4537  0.8642 -2.3293
  632MOL0     H83406   7.637  10.637  12.728 -2.3387  0.5254 -1.5073
  632MOL0     H83407   7.735  10.716  12.512 -0.0069  0.5115 -0.2729
  632MOL0     H83408   8.140  10.784  12.219  0.6542 -2.4224  0.7015
  632MOL0     H83409   8.196  10.852  11.988  0.4859 -0.7265  0.4583
  632MOL0     H83410   6.581  10.167  11.413 -0.5397  0.3804 -2.2653
  632MOL0     H83411   6.603   9.959  11.300 -0.2283 -0.7872 -2.2340
  632MOL0     H83412   6.963   9.664  11.014  0.5033 -0.4265 -0.2078
  632MOL0     H83413   7.110   9.489  11.007 -0.2813 -0.4068 -0.3590
  632MOL0     H83414   7.237   9.219  11.341  2.4073 -2.2948  0.2544
  632MOL0     H83415   7.327   9.370  11.384  1.2984 -2.9324  0.9523
  632MOL0     H83416   7.417   9.176  11.172 -1.1061  0.0892  0.8384
  632MOL0     H83417   7.501   9.327  11.224  2.0143 -2.8548 -4.3312
  632MOL0     H83418   7.598   9.139  11.307 -2.2012  0.2339 -4.1828
  632MOL0     H83419   7.461   9.077  11.376 -0.0067  0.4804 -0.3061
  632MOL0     H83420   7.606   9.329  11.473  2.1710 -0.6453  1.8728
  632MOL0     H83421   7.452   9.266  11.546 -1.4731 -1.2447 -1.8082
  632MOL0     H83422   7.781   9.055  11.710 -0.6346  0.6154  1.3424
  632MOL0     H83423   7.139   9.472  11.442  1.3487  2.2348  1.4933
  632MOL0     H83424   6.959   9.637  11.454  0.3847 -0.1800 -0.0568
  633MOL0     O83425   0.251   2.939   9.806  0.1145 -0.1397  1.1073
  633MOL0     C83426   0.156   2.961   9.735  0.5597  0.2626  0.4146
  633MOL0     O83427   0.023   3.001   9.778  0.6504 -0.0846  0.6142
  633MOL0     C83428   0.003   2.991   9.916 -1.0924 -0.3338  0.1445
  633MOL0     C83429  -0.011   2.872   9.981  0.2225  0.5896  0.2270
  633MOL0     C83430  -0.017   2.873  10.117  0.0761 -0.2461  0.1373
  633MOL0     C83431  -0.043   2.996  10.190 -0.0258  0.1360  0.2421
  633MOL0     O83432  -0.081   2.978  10.317  0.5457 -0.1435  0.1387
  633MOL0     C83433  -0.219   3.001  10.351 -0.3233 -0.0838  0.3869
  633MOL0     C83434  -0.237   3.046  10.497 -0.0392  0.3440  0.0305
  633MOL0     C83435  -0.384   3.043  10.530  0.1915 -0.1669 -0.3692
  633MOL0     C83436  -0.408   3.064  10.680  0.2173  0.5935  0.1938
  633MOL0     C83437  -0.553   3.054  10.726  0.8315 -0.5748  0.5427
  633MOL0     C83438  -0.654   3.142  10.653  0.6021 -0.3301 -0.3508
  633MOL0     C83439  -0.800   3.140  10.705  0.6045  0.5624 -0.3115
  633MOL0     C83440  -0.864   2.997  10.696 -0.1789 -1.6332 -0.6090
  633MOL0     N83441  -1.008   3.020  10.687  0.2194  0.6804  0.4889
  633MOL0     C83442  -1.089   3.117  10.750 -0.0751  0.0185 -0.9755
  633MOL0     C83443  -1.212   3.099  10.705 -0.8317 -0.1609  0.5224
  633MOL0     C83444  -1.326   3.184  10.731  0.9349  0.9887 -0.2082
  633MOL0     C83445  -1.392   3.161  10.869 -0.3600 -0.1057 -0.0961
  633MOL0     C83446  -1.472   3.031  10.878 -0.6036 -0.7979 -0.1414
  633MOL0     C83447  -1.510   3.000  11.027  0.3731  0.2517 -0.0496
  633MOL0     O83448  -1.639   3.056  11.026  0.3264  0.0252 -1.0537
  633MOL0     C83449  -1.705   3.046  11.150  0.9466 -0.2912  0.2829
  633MOL0     C83450  -1.825   2.977  11.156 -0.5924  0.6393  0.1830
  633MOL0     C83451  -1.908   2.959  11.268 -0.9740  0.6746 -1.0532
  633MOL0     C83452  -1.862   3.011  11.389 -0.0147  0.7466  0.1618
  633MOL0     C83453  -1.929   2.986  11.521  0.9094 -0.0765  0.3566
  633MOL0     O83454  -2.020   2.889  11.512 -0.1812  0.0381  0.8411
  633MOL0     C83455  -2.032   2.794  11.606  0.1274 -0.1090 -0.8267
  633MOL0     C83456  -1.926   2.725  11.646 -0.1388 -0.4675 -0.1058
  633MOL0     C83457  -1.934   2.628  11.745  0.1112  0.7503 -0.4794
  633MOL0     C83458  -2.058   2.595  11.797 -0.4516  0.6537  0.4910
  633MOL0     O83459  -2.067   2.492  11.884  0.1870  0.1632 -0.0538
  633MOL0     C83460  -2.186   2.415  11.880  0.0793  0.1735  0.3044
  633MOL0     C83461  -2.178   2.302  11.979  0.5320  0.1370 -0.0139
  633MOL0     C83462  -2.312   2.234  11.981 -0.1360  0.7437  0.1383
  633MOL0     C83463  -2.301   2.128  12.089  0.4978  0.1212  0.4323
  633MOL0     C83464  -2.433   2.061  12.109 -0.4462  0.8169  0.6456
  633MOL0     C83465  -2.434   1.928  12.192  0.5677 -0.4368 -0.3105
  633MOL0     C83466  -2.368   1.939  12.333  0.0948  1.0004  0.0424
  633MOL0     C83467  -2.216   1.913  12.326 -0.0309  0.4528  0.0095
  633MOL0    Cl83468  -2.159   1.949  12.483  0.0872 -0.1457 -0.1653
  633MOL0     C83469  -2.171   2.672  11.751 -0.4343  0.3310 -1.2485
  633MOL0     C83470  -2.159   2.771  11.661  0.3279 -0.3248 -0.0248
  633MOL0     O83471  -1.886   3.034  11.620  0.1650 -0.2093 -0.1355
  633MOL0     C83472  -1.746   3.092  11.381  0.3346 -0.2057  0.0478
  633MOL0     C83473  -1.666   3.109  11.268 -0.7044 -0.3090  0.1804
  633MOL0     N83474  -1.205   2.992  10.610  0.7519 -0.5366 -0.6691
  633MOL0     N83475  -1.085   2.943  10.605 -1.0057  0.2493 -1.1262
  633MOL0     C83476  -0.045   3.118  10.117  0.3636  0.0141 -0.6744
  633MOL0     C83477  -0.018   3.110   9.980 -0.4434  0.6551 -0.4042
  633MOL0     C83478   0.173   2.945   9.589 -0.6026  0.0451 -1.2475
  633MOL0     C83479   0.289   2.896   9.531  0.3551  0.6744  0.4265
  633MOL0     C83480   0.305   2.892   9.394 -0.3271  0.0985  0.2982
  633MOL0     C83481   0.205   2.921   9.315  0.0323 -0.7736 -0.0077
  633MOL0     O83482   0.226   2.924   9.179  0.9947  0.5122 -0.0494
  633MOL0     C83483   0.119   2.869   9.102  0.9604 -0.6701 -0.2721
  633MOL0     C83484   0.158   2.831   8.958 -0.0025  0.9262  0.2644
  633MOL0     C83485   0.245   2.705   8.969 -0.4177 -0.2991 -0.0054
  633MOL0     C83486   0.260   2.617   8.841 -0.4632  0.3527  0.4780
  633MOL0     C83487   0.321   2.695   8.733 -0.5126  0.1128  0.8248
  633MOL0     C83488   0.366   2.738   8.628  0.4081  0.4212 -0.4006
  633MOL0     C83489   0.086   2.974   9.366 -0.4528  0.5775 -0.3996
  633MOL0     C83490   0.063   2.991   9.504 -0.2182 -0.4654  0.7298
  633MOL0     H83491  -0.014   2.783   9.919 -2.7709 -0.0129  1.0318
  633MOL0     H83492  -0.027   2.786  10.181  2.2310 -0.4415  0.2636
  633MOL0     H83493  -0.288   2.918  10.334  1.0595 -0.9749 -1.1163
  633MOL0     H83494  -0.268   3.075  10.288  0.7213 -0.3613 -0.7851
  633MOL0     H83495  -0.201   3.149  10.508 -1.2659  0.8501 -0.5291
  633MOL0     H83496  -0.179   2.975  10.557  0.0740  1.1869  0.9298
  633MOL0     H83497  -0.425   2.945  10.505  2.0814 -0.6873 -1.6319
  633MOL0     H83498  -0.430   3.124  10.472  0.7110 -0.1414 -0.7489
  633MOL0     H83499  -0.341   2.996  10.734 -2.0181  0.0684  2.4598
  633MOL0     H83500  -0.385   3.161  10.725 -1.2817 -0.7995  4.4168
  633MOL0     H83501  -0.536   3.087  10.829  0.9699  3.6432 -0.6375
  633MOL0     H83502  -0.589   2.951  10.716 -1.1027  0.1818 -0.9749
  633MOL0     H83503  -0.656   3.122  10.545 -0.8138  1.1803 -0.6364
  633MOL0     H83504  -0.619   3.246  10.662  2.6319 -0.9461 -0.4543
  633MOL0     H83505  -0.823   3.185  10.802 -2.1769  3.8740 -2.2813
  633MOL0     H83506  -0.861   3.191  10.630  0.3895 -1.8264 -1.8620
  633MOL0     H83507  -0.851   2.928  10.779 -0.9307 -3.2283 -1.7557
  633MOL0     H83508  -0.827   2.957  10.600 -0.6134 -1.6912 -0.7543
  633MOL0     H83509  -1.045   3.180  10.826  0.8321  0.5892 -1.9414
  633MOL0     H83510  -1.391   3.165  10.645 -0.2135  2.2049  0.3459
  633MOL0     H83511  -1.307   3.292  10.730  2.2212  0.7759 -2.0665
  633MOL0     H83512  -1.469   3.236  10.888 -1.1239 -1.1501  1.1649
  633MOL0     H83513  -1.308   3.170  10.939  1.3184  1.5935 -2.1980
  633MOL0     H83514  -1.567   3.037  10.824 -1.7337 -0.3568  1.8318
  633MOL0     H83515  -1.403   2.960  10.829 -0.2087  0.7384 -1.9277
  633MOL0     H83516  -1.450   3.043  11.108 -2.6096  2.5230  1.1196
  633MOL0     H83517  -1.522   2.892  11.041 -3.4537  0.7262  1.6466
  633MOL0     H83518  -1.847   2.937  11.058 -0.7269 -1.5475  1.0598
  633MOL0     H83519  -1.990   2.888  11.265  2.4663 -3.8360 -0.1178
  633MOL0     H83520  -1.839   2.730  11.581 -1.7639 -0.2765 -2.3926
  633MOL0     H83521  -1.843   2.572  11.766  0.2496  0.6531 -1.3077
  633MOL0     H83522  -2.211   2.381  11.779  0.8250 -0.9004  0.4508
  633MOL0     H83523  -2.270   2.472  11.919  0.4952  1.8399 -1.1098
  633MOL0     H83524  -2.170   2.333  12.084  0.2246 -1.2067  0.4228
  633MOL0     H83525  -2.098   2.236  11.944  0.4224 -0.1391  0.2528
  633MOL0     H83526  -2.343   2.190  11.886 -5.4835 -2.7945  2.9772
  633MOL0     H83527  -2.389   2.306  12.010  0.1692  1.0804  0.1214
  633MOL0     H83528  -2.239   2.049  12.046 -0.0150  0.5786 -1.2480
  633MOL0     H83529  -2.275   2.170  12.186 -4.8196  0.9170  1.8268
  633MOL0     H83530  -2.462   2.034  12.007  3.1765 -2.1052  0.2086
  633MOL0     H83531  -2.497   2.134  12.161 -1.5652 -0.8055  1.6408
  633MOL0     H83532  -2.375   1.855  12.135 -0.1168 -2.4896  1.4849
  633MOL0     H83533  -2.538   1.896  12.202  0.2145 -0.0896 -2.4366
  633MOL0     H83534  -2.389   2.040  12.369  0.2338  1.2340 -0.5227
  633MOL0     H83535  -2.423   1.869  12.396  0.4661 -0.2411 -0.9725
  633MOL0     H83536  -2.153   1.972  12.258  1.4444  0.0332  0.9828
  633MOL0     H83537  -2.200   1.809  12.299 -0.1278  0.3887  0.1967
  633MOL0     H83538  -2.264   2.645  11.800  1.3556 -0.3446  2.0131
  633MOL0     H83539  -2.244   2.829  11.624  0.7473  0.3058 -0.0041
  633MOL0     H83540  -1.721   3.144  11.473 -2.5144  0.3292  0.6092
  633MOL0     H83541  -1.580   3.176  11.275 -1.2727  0.2641  4.5892
  633MOL0     H83542  -0.069   3.214  10.162 -0.8016  0.6689 -2.5886
  633MOL0     H83543  -0.010   3.197   9.915 -4.4780  1.0743 -0.6202
  633MOL0     H83544   0.366   2.857   9.597 -1.0340 -1.6204  0.7982
  633MOL0     H83545   0.403   2.862   9.357  1.2575 -0.3670  4.3937
  633MOL0     H83546   0.046   2.950   9.094 -2.1348 -2.9648  2.1252
  633MOL0     H83547   0.068   2.781   9.141  1.5073 -2.5301 -3.3562
  633MOL0     H83548   0.066   2.820   8.901 -2.1588  0.5896  3.5377
  633MOL0     H83549   0.207   2.905   8.894  0.3541  0.1981 -0.3233
  633MOL0     H83550   0.202   2.640   9.045  0.8587 -3.8763 -2.1345
  633MOL0     H83551   0.341   2.735   9.013  0.7337 -1.4428 -1.6272
  633MOL0     H83552   0.313   2.522   8.850 -1.1316 -0.3136 -1.8587
  633MOL0     H83553   0.170   2.577   8.793  1.7616 -3.1823 -1.1639
  633MOL0     H83554   0.405   2.770   8.533 -0.0706  2.6835  0.0973
  633MOL0     H83555   0.003   3.022   9.315 -1.3733 -1.2444 -0.7094
  633MOL0     H83556  -0.021   3.049   9.541 -1.7046 -0.5774 -2.1726
  634MOL0     O83557   4.495  10.300   2.927  0.4223  0.8048 -0.7290
  634MOL0     C83558   4.572  10.206   2.930 -0.2835 -0.0699  0.4853
  634MOL0     O83559   4.582  10.104   2.839 -0.6864  0.9785  0.7077
  634MOL0     C83560   4.476  10.090   2.751  0.3969 -0.6719 -0.1089
  634MOL0     C83561   4.507  10.071   2.615  0.3784  0.6495  0.1558
  634MOL0     C83562   4.410  10.033   2.522  0.1903  0.4567  0.7724
  634MOL0     C83563   4.275  10.018   2.562  0.4585  1.4592  0.2164
  634MOL0     O83564   4.171   9.975   2.484 -0.2779  0.1746 -0.5141
  634MOL0     C83565   4.149  10.060   2.372 -0.9126  0.6676 -0.1152
  634MOL0     C83566   4.095   9.977   2.253 -0.8197  1.0145  0.5597
  634MOL0     C83567   4.069  10.070   2.130 -0.6725  0.1075 -0.4609
  634MOL0     C83568   3.995   9.997   2.019  0.2025  0.5503  0.5036
  634MOL0     C83569   3.980  10.085   1.886  0.8988 -0.2868  0.3521
  634MOL0     C83570   3.927  10.236   1.906 -0.5327 -0.2852  0.7200
  634MOL0     C83571   3.950  10.325   1.785 -0.5059  1.0021 -0.0577
  634MOL0     C83572   3.917  10.469   1.821 -0.5132 -0.1827 -1.0406
  634MOL0     N83573   3.904  10.561   1.712  0.9293 -0.4843 -0.0818
  634MOL0     C83574   4.008  10.627   1.658  0.1880 -0.1959  0.1743
  634MOL0     C83575   3.949  10.719   1.575  0.6427 -0.3417  0.1933
  634MOL0     C83576   4.025  10.805   1.475  0.2286  0.0710  0.6038
  634MOL0     C83577   4.075  10.935   1.528  0.7403  0.3788  0.0574
  634MOL0     C83578   3.969  11.037   1.553  0.1665 -1.1087 -0.5704
  634MOL0     C83579   3.914  11.087   1.421  0.0533 -0.2325 -0.2150
  634MOL0     O83580   3.803  11.174   1.433  0.0474  0.5206  0.0121
  634MOL0     C83581   3.826  11.299   1.482 -0.1309  0.0862 -0.5735
  634MOL0     C83582   3.711  11.353   1.531 -0.1551 -0.2245  0.5590
  634MOL0     C83583   3.712  11.476   1.599  0.0349  0.3266 -0.5414
  634MOL0     C83584   3.824  11.558   1.591 -1.0781  0.9572 -0.6494
  634MOL0     C83585   3.822  11.688   1.682 -1.0904 -0.8328  0.4795
  634MOL0     O83586   3.714  11.774   1.698 -0.0512  0.1464 -0.3300
  634MOL0     C83587   3.731  11.895   1.765 -0.3432  0.1714 -0.0363
  634MOL0     C83588   3.767  12.017   1.703  0.5710 -0.7999 -0.4618
  634MOL0     C83589   3.761  12.145   1.770  0.5576  0.5477  0.8195
  634MOL0     C83590   3.735  12.141   1.909  0.1319  1.0080  0.0524
  634MOL0     O83591   3.734  12.256   1.979  0.7349  0.1429  0.3870
  634MOL0     C83592   3.606  12.311   2.005  0.3679 -1.3556  0.1555
  634MOL0     C83593   3.621  12.448   2.071 -0.1705 -0.3295 -0.2372
  634MOL0     C83594   3.483  12.517   2.072  0.6211 -0.5258  0.1281
  634MOL0     C83595   3.378  12.466   2.166 -0.2106  0.7465 -0.3449
  634MOL0     C83596   3.278  12.575   2.194  0.5993 -0.5112  0.1779
  634MOL0     C83597   3.164  12.505   2.265 -0.8864  0.3659 -0.5548
  634MOL0     C83598   3.111  12.594   2.374  0.8319  0.1069 -0.0565
  634MOL0     C83599   2.965  12.563   2.418  0.0401  0.2500 -0.2987
  634MOL0    Cl83600   2.967  12.412   2.515 -0.0263  0.0199 -0.2867
  634MOL0     C83601   3.692  12.029   1.976  0.2388  0.3926 -0.1222
  634MOL0     C83602   3.693  11.901   1.903 -0.5962 -0.2991 -0.9656
  634MOL0     O83603   3.936  11.717   1.717 -0.0635  0.0859 -0.0408
  634MOL0     C83604   3.940  11.505   1.541 -0.3554  0.0831 -0.8597
  634MOL0     C83605   3.947  11.375   1.493 -0.1463 -0.2942  0.6103
  634MOL0     N83606   3.808  10.709   1.586 -0.4789  0.6172 -0.2445
  634MOL0     N83607   3.783  10.616   1.673  0.2341 -0.4285 -0.0603
  634MOL0     C83608   4.245  10.052   2.682 -0.3270  0.5230 -0.0021
  634MOL0     C83609   4.338  10.091   2.777  0.4827 -0.7927  0.2468
  634MOL0     C83610   4.687  10.201   3.026 -0.6052 -0.0762  0.7672
  634MOL0     C83611   4.816  10.171   2.979  0.5738  0.2176  0.0480
  634MOL0     C83612   4.921  10.180   3.069 -1.0311  0.1373  0.4622
  634MOL0     C83613   4.905  10.202   3.209 -0.0231  0.3807 -0.2409
  634MOL0     O83614   5.005  10.200   3.307  0.9102  0.1309  1.0393
  634MOL0     C83615   5.088  10.321   3.311  0.5674 -1.0679  0.8204
  634MOL0     C83616   5.163  10.348   3.176 -0.3764 -0.6853  0.7536
  634MOL0     C83617   5.247  10.482   3.187  0.2468  1.0288  0.3836
  634MOL0     C83618   5.348  10.486   3.297 -0.6411  0.3922 -0.6151
  634MOL0     C83619   5.427  10.364   3.327  0.2989  0.4294  1.1240
  634MOL0     C83620   5.483  10.256   3.354 -0.0173 -0.8002  0.0431
  634MOL0     C83621   4.777  10.227   3.253 -0.1790  0.1391  0.2164
  634MOL0     C83622   4.668  10.233   3.161  0.4531  0.0531 -0.8024
  634MOL0     H83623   4.612  10.057   2.594  0.4433 -2.0128  1.7604
  634MOL0     H83624   4.440  10.002   2.422  1.1485 -0.9707  1.4621
  634MOL0     H83625   4.243  10.110   2.348 -1.3719  3.0646  2.5719
  634MOL0     H83626   4.081  10.143   2.392 -1.6095  0.8996 -2.9452
  634MOL0     H83627   4.000   9.931   2.282  0.2962 -2.7476 -1.1344
  634MOL0     H83628   4.169   9.897   2.240  0.2147  1.9757  0.4054
  634MOL0     H83629   4.166  10.108   2.100 -1.0471  1.2193 -0.2881
  634MOL0     H83630   4.007  10.154   2.161 -0.9147  0.3880 -1.6275
  634MOL0     H83631   4.027   9.894   2.000 -1.8099  0.2007 -1.2479
  634MOL0     H83632   3.898   9.979   2.066  0.3745 -0.7894  0.3838
  634MOL0     H83633   3.926  10.036   1.805  3.2061  0.5968 -1.8643
  634MOL0     H83634   4.082  10.099   1.850  0.4150  0.0244 -0.9534
  634MOL0     H83635   3.983  10.271   1.993  2.1038 -2.4668  0.0428
  634MOL0     H83636   3.819  10.233   1.925 -0.6510 -2.6711 -0.0813
  634MOL0     H83637   4.053  10.318   1.750  0.7403  0.1545  3.3907
  634MOL0     H83638   3.890  10.297   1.698 -0.3649 -0.6821  0.3707
  634MOL0     H83639   3.985  10.505   1.900 -1.7601  1.4517 -0.6529
  634MOL0     H83640   3.823  10.465   1.878 -0.5015  0.0967 -1.0022
  634MOL0     H83641   4.113  10.616   1.683  0.7689  0.4181 -1.8161
  634MOL0     H83642   3.972  10.818   1.380  2.2208  1.7508 -0.3591
  634MOL0     H83643   4.108  10.742   1.443 -1.9341 -2.6852  0.0073
  634MOL0     H83644   4.160  10.984   1.479  0.5879  2.6709  1.9022
  634MOL0     H83645   4.122  10.907   1.623 -4.3129 -1.5298  2.3453
  634MOL0     H83646   3.883  11.002   1.610  0.1862  0.8955  0.7928
  634MOL0     H83647   4.006  11.122   1.610 -0.5434 -2.2189  1.6583
  634MOL0     H83648   3.884  11.000   1.362  1.7006 -1.3701  0.5409
  634MOL0     H83649   3.997  11.144   1.377  0.4711  0.4211  1.3443
  634MOL0     H83650   3.622  11.291   1.535  0.2990 -1.3504 -3.2166
  634MOL0     H83651   3.630  11.520   1.656  0.2964 -0.2380  0.2883
  634MOL0     H83652   3.796  12.005   1.599  2.4704 -1.9879  0.1425
  634MOL0     H83653   3.796  12.234   1.718  0.5076  0.1416  0.0739
  634MOL0     H83654   3.541  12.245   2.064 -1.5606 -1.8810 -2.3597
  634MOL0     H83655   3.555  12.327   1.909  2.6194  0.2460 -0.8559
  634MOL0     H83656   3.690  12.503   2.007  0.0909  0.4244  0.6744
  634MOL0     H83657   3.670  12.443   2.169  3.4445 -2.3721 -1.9673
  634MOL0     H83658   3.434  12.502   1.975  0.6816 -0.4299  0.0838
  634MOL0     H83659   3.496  12.623   2.093 -2.0390 -0.0953 -0.0726
  634MOL0     H83660   3.344  12.372   2.121 -0.6270 -0.7483  2.8750
  634MOL0     H83661   3.431  12.436   2.257 -0.6740 -2.5470 -1.0546
  634MOL0     H83662   3.236  12.631   2.110  0.1596  2.6635  2.3272
  634MOL0     H83663   3.323  12.652   2.258 -1.1653 -0.3240  1.2675
  634MOL0     H83664   3.195  12.410   2.309  0.3518  1.3164  0.7189
  634MOL0     H83665   3.095  12.476   2.185 -0.3728 -1.5855 -0.3304
  634MOL0     H83666   3.176  12.579   2.461  1.1413 -1.3046 -0.5101
  634MOL0     H83667   3.112  12.697   2.337 -1.9084  0.0564 -0.4150
  634MOL0     H83668   2.911  12.538   2.326  0.5533 -2.8899  0.1390
  634MOL0     H83669   2.921  12.646   2.473  0.0305 -0.1335  0.2788
  634MOL0     H83670   3.666  12.031   2.081 -0.3416  0.6835 -0.2668
  634MOL0     H83671   3.671  11.811   1.960 -0.1253 -0.9858 -1.8387
  634MOL0     H83672   4.036  11.557   1.550  0.9353 -1.9309 -2.1301
  634MOL0     H83673   4.037  11.327   1.455 -2.1944 -3.1217 -1.0070
  634MOL0     H83674   4.139  10.048   2.705  0.1239  0.0522  2.1862
  634MOL0     H83675   4.298  10.113   2.876  0.2558 -2.4040  0.5401
  634MOL0     H83676   4.831  10.151   2.873 -0.3048  1.0871 -0.2470
  634MOL0     H83677   5.026  10.166   3.042 -0.8422  0.8514  0.8165
  634MOL0     H83678   5.167  10.302   3.385  1.0587 -2.3051  0.0095
  634MOL0     H83679   5.038  10.408   3.354  3.0288 -0.3776  2.4801
  634MOL0     H83680   5.216  10.266   3.128  0.4153  1.3089 -2.0247
  634MOL0     H83681   5.087  10.366   3.100 -1.4429 -1.5994  1.5609
  634MOL0     H83682   5.173  10.561   3.199 -0.5894  0.4132 -0.5611
  634MOL0     H83683   5.289  10.497   3.087  2.5537 -3.2756  0.4547
  634MOL0     H83684   5.412  10.571   3.274 -1.6411  1.4637  0.3928
  634MOL0     H83685   5.297  10.513   3.390  0.7000 -0.4615  0.4119
  634MOL0     H83686   5.525  10.162   3.384  0.4743 -0.1603  1.4597
  634MOL0     H83687   4.766  10.236   3.361  4.9279 -0.5815  1.0934
  634MOL0     H83688   4.566  10.247   3.195 -0.4522  0.9045 -3.5966
  635MOL0     O83689   5.135   2.877   0.036 -0.1025 -0.0927 -0.0718
  635MOL0     C83690   5.227   2.945   0.063 -0.6633  0.2364  0.1643
  635MOL0     O83691   5.271   2.966   0.192  0.3562 -0.6755  0.2098
  635MOL0     C83692   5.226   2.898   0.305 -0.6477  0.3256  0.4500
  635MOL0     C83693   5.280   2.936   0.432 -0.5901 -0.4485  0.7928
  635MOL0     C83694   5.245   2.877   0.547 -0.1665 -0.0014  0.1300
  635MOL0     C83695   5.165   2.759   0.539 -1.4681 -0.4809 -0.5092
  635MOL0     O83696   5.124   2.698   0.651 -0.1098  0.1900  0.1475
  635MOL0     C83697   5.105   2.765   0.774 -1.4290 -0.7418 -0.1320
  635MOL0     C83698   5.041   2.667   0.880  0.3375 -0.6733  0.2521
  635MOL0     C83699   4.982   2.728   1.006  0.0448 -0.0503 -1.2557
  635MOL0     C83700   5.090   2.783   1.104 -0.1886 -0.0431 -0.6114
  635MOL0     C83701   5.067   2.775   1.255  1.0857  0.1543  0.3770
  635MOL0     C83702   4.942   2.838   1.306 -0.6840 -0.7011  0.9542
  635MOL0     C83703   4.943   2.871   1.448 -0.8343  0.7523 -0.2708
  635MOL0     C83704   4.800   2.870   1.499 -0.1763 -0.8766  0.8104
  635MOL0     N83705   4.739   3.005   1.488 -0.2198  0.8642  0.1701
  635MOL0     C83706   4.794   3.120   1.543 -0.3350 -0.4095 -0.3273
  635MOL0     C83707   4.715   3.221   1.508 -0.6766  0.9798  0.4402
  635MOL0     C83708   4.714   3.365   1.547  0.4450  0.4755  0.9152
  635MOL0     C83709   4.824   3.440   1.478 -0.1406 -0.1864 -0.2458
  635MOL0     C83710   4.802   3.590   1.463 -0.0333  0.5421  0.2573
  635MOL0     C83711   4.807   3.658   1.592 -0.4894 -0.8187 -0.0672
  635MOL0     O83712   4.744   3.791   1.585 -0.3730  0.0064 -0.2333
  635MOL0     C83713   4.617   3.806   1.646  0.5483  0.4040 -0.0876
  635MOL0     C83714   4.567   3.938   1.666 -0.2010  0.8613  0.9560
  635MOL0     C83715   4.434   3.963   1.704  0.6660  0.1739 -1.3419
  635MOL0     C83716   4.342   3.851   1.720 -0.1604  0.1622  0.5878
  635MOL0     C83717   4.208   3.880   1.758 -0.1158 -0.1474 -0.1402
  635MOL0     O83718   4.176   4.017   1.774 -0.0540  0.0889  0.0412
  635MOL0     C83719   4.049   4.053   1.806  0.1385  0.9119 -0.2940
  635MOL0     C83720   3.943   3.995   1.737  0.6098 -0.3102  0.0068
  635MOL0     C83721   3.806   4.042   1.760 -0.0028  0.4545  0.2517
  635MOL0     C83722   3.780   4.122   1.875 -0.1445  0.5256  0.0605
  635MOL0     O83723   3.645   4.148   1.894 -0.3431 -0.1316 -0.7177
  635MOL0     C83724   3.608   4.204   2.022  0.0752  0.0497 -0.2556
  635MOL0     C83725   3.463   4.222   2.045  0.4914 -0.5903 -0.2718
  635MOL0     C83726   3.403   4.309   1.941 -0.4621 -0.3358  1.1240
  635MOL0     C83727   3.259   4.359   1.982  1.3480  0.4186  0.0039
  635MOL0     C83728   3.172   4.434   1.883 -0.8097 -0.3141  0.5897
  635MOL0     C83729   3.063   4.511   1.960  0.2864 -0.0013 -0.0246
  635MOL0     C83730   2.969   4.575   1.858 -0.5213  0.6498  0.7149
  635MOL0     C83731   2.884   4.686   1.929 -0.5704  1.2468 -0.0908
  635MOL0    Cl83732   2.810   4.788   1.810  0.0376  0.0101 -0.0697
  635MOL0     C83733   3.886   4.176   1.953 -0.8582  1.3173  0.3378
  635MOL0     C83734   4.022   4.143   1.916  0.3504 -0.7982 -0.0377
  635MOL0     O83735   4.127   3.787   1.765 -0.0198  0.3230 -0.3508
  635MOL0     C83736   4.388   3.725   1.699 -0.5315 -0.2450  0.3573
  635MOL0     C83737   4.520   3.697   1.660  0.1268  0.0002  0.6649
  635MOL0     N83738   4.622   3.166   1.417 -0.7959  0.2083  1.3717
  635MOL0     N83739   4.637   3.038   1.410 -0.6413  0.4325 -0.1915
  635MOL0     C83740   5.132   2.694   0.423 -0.3185 -0.3250 -0.8391
  635MOL0     C83741   5.163   2.769   0.307 -0.1090  1.3193 -0.3989
  635MOL0     C83742   5.274   3.027  -0.050 -0.0818 -0.1639  0.2771
  635MOL0     C83743   5.335   3.150  -0.026  0.1070 -0.8669  0.6482
  635MOL0     C83744   5.390   3.210  -0.134 -0.2722  0.4567  0.6914
  635MOL0     C83745   5.369   3.173  -0.266 -0.4789 -0.9041  1.7686
  635MOL0     O83746   5.403   3.246  -0.376  1.0945 -0.6662 -0.1252
  635MOL0     C83747   5.426   3.386  -0.356 -0.4868 -0.2926  0.2362
  635MOL0     C83748   5.542   3.424  -0.451 -0.0347 -0.0340 -0.7106
  635MOL0     C83749   5.663   3.325  -0.433 -0.4284  0.2585  0.9698
  635MOL0     C83750   5.780   3.376  -0.524 -0.2878  0.3016  0.0520
  635MOL0     C83751   5.856   3.254  -0.533 -1.8269 -0.6066  0.3299
  635MOL0     C83752   5.936   3.165  -0.543 -0.0576  0.1767 -0.2424
  635MOL0     C83753   5.283   3.060  -0.287  0.0546  0.5687 -0.0858
  635MOL0     C83754   5.241   2.988  -0.185 -0.4775  0.5961 -0.4850
  635MOL0     H83755   5.346   3.023   0.435  0.0537 -0.9177  0.4044
  635MOL0     H83756   5.284   2.917   0.640 -2.3829 -1.2868  1.7026
  635MOL0     H83757   5.043   2.854   0.762 -1.4779 -0.4772  1.7257
  635MOL0     H83758   5.209   2.788   0.800 -1.6359  0.7398 -0.5322
  635MOL0     H83759   5.125   2.598   0.893  0.4885 -1.4800 -3.7695
  635MOL0     H83760   4.962   2.609   0.832  1.1383 -0.0233 -1.9681
  635MOL0     H83761   4.930   2.651   1.064  1.3368  0.1075  0.1782
  635MOL0     H83762   4.914   2.810   0.982  1.4583  1.6136  0.1138
  635MOL0     H83763   5.177   2.717   1.092 -0.0903 -0.4309  1.6767
  635MOL0     H83764   5.113   2.884   1.068  0.1195 -0.7634 -2.5259
  635MOL0     H83765   5.150   2.819   1.311  0.7559  1.0597  0.1773
  635MOL0     H83766   5.065   2.668   1.277  2.7471 -0.1762 -0.9031
  635MOL0     H83767   4.856   2.777   1.277 -1.2230  1.1018 -1.6817
  635MOL0     H83768   4.944   2.941   1.270 -2.1367 -0.0309  2.6211
  635MOL0     H83769   4.997   2.804   1.515 -2.0480 -1.8902 -1.7688
  635MOL0     H83770   4.987   2.970   1.460  0.0967  0.5742 -1.8479
  635MOL0     H83771   4.807   2.850   1.606 -0.5319  0.7411  1.1679
  635MOL0     H83772   4.736   2.797   1.449  2.4975 -3.8655  1.4298
  635MOL0     H83773   4.883   3.133   1.603  0.3126  2.2085 -1.6950
  635MOL0     H83774   4.726   3.349   1.655  1.1176 -1.8942  0.5520
  635MOL0     H83775   4.621   3.418   1.525 -0.0118  0.3601  2.4393
  635MOL0     H83776   4.833   3.401   1.376  1.2216 -2.7746  0.7709
  635MOL0     H83777   4.922   3.415   1.519  0.1211 -2.0116 -1.8542
  635MOL0     H83778   4.881   3.619   1.393 -0.4884 -2.7321 -1.8284
  635MOL0     H83779   4.707   3.592   1.409  0.2696  0.1684 -0.2957
  635MOL0     H83780   4.912   3.674   1.617 -0.1213 -0.1658 -1.8317
  635MOL0     H83781   4.754   3.594   1.664 -0.2051 -0.7836  0.1731
  635MOL0     H83782   4.624   4.031   1.661 -0.6253  1.0833  0.0975
  635MOL0     H83783   4.405   4.062   1.738  5.1546  0.9342  0.9376
  635MOL0     H83784   3.965   3.922   1.660 -1.3917 -2.8831  1.7041
  635MOL0     H83785   3.737   4.009   1.683  1.9099 -3.4325 -0.0400
  635MOL0     H83786   3.648   4.305   2.012 -0.6544  0.2285 -1.5729
  635MOL0     H83787   3.657   4.158   2.108 -0.3865  1.9475  1.1019
  635MOL0     H83788   3.448   4.263   2.145 -1.3336 -0.4395 -0.5743
  635MOL0     H83789   3.414   4.124   2.037  0.1487 -0.4243 -0.2473
  635MOL0     H83790   3.399   4.254   1.846  2.1258  0.4642  0.4810
  635MOL0     H83791   3.467   4.396   1.928 -1.6050  0.1561 -2.2353
  635MOL0     H83792   3.201   4.271   2.013  0.7392  0.7484 -0.1766
  635MOL0     H83793   3.254   4.424   2.070 -3.1756  1.8560 -1.0555
  635MOL0     H83794   3.128   4.360   1.816  1.9636 -1.0964 -0.5052
  635MOL0     H83795   3.240   4.507   1.838 -0.3694 -0.9730  0.1785
  635MOL0     H83796   3.108   4.586   2.026  0.9489  0.9467 -1.5014
  635MOL0     H83797   2.997   4.438   2.008 -1.7959  1.6017 -0.3210
  635MOL0     H83798   3.026   4.634   1.785 -0.6968  1.6614  1.3727
  635MOL0     H83799   2.915   4.494   1.809  2.0253 -0.5791 -0.2733
  635MOL0     H83800   2.943   4.755   1.989 -1.4327  1.6148  0.3609
  635MOL0     H83801   2.807   4.649   1.998  1.9516  1.2080  2.9262
  635MOL0     H83802   3.878   4.237   2.043  0.6508 -0.1324  1.5285
  635MOL0     H83803   4.109   4.183   1.967  0.2597 -2.7647  1.7796
  635MOL0     H83804   4.324   3.638   1.703 -1.1741  0.2438  0.8737
  635MOL0     H83805   4.544   3.594   1.637  1.9418  0.5850 -0.2453
  635MOL0     H83806   5.083   2.598   0.418 -1.8295  0.4638 -2.4134
  635MOL0     H83807   5.131   2.733   0.210 -2.6487  1.2733  0.3790
  635MOL0     H83808   5.340   3.188   0.075  1.2079 -1.4917  0.8427
  635MOL0     H83809   5.448   3.295  -0.099  5.3999 -2.4240 -0.4306
  635MOL0     H83810   5.443   3.418  -0.253  1.0927 -3.0379  0.9190
  635MOL0     H83811   5.342   3.446  -0.393  1.0064  0.9156 -1.3070
  635MOL0     H83812   5.502   3.431  -0.553 -3.3303 -0.0252  0.4563
  635MOL0     H83813   5.565   3.526  -0.418  0.6090 -1.1003  2.4513
  635MOL0     H83814   5.633   3.223  -0.461 -1.5290  0.6360  0.7248
  635MOL0     H83815   5.686   3.323  -0.327  0.7668  0.7600  0.7251
  635MOL0     H83816   5.750   3.395  -0.628 -0.2303  0.8667  0.1323
  635MOL0     H83817   5.846   3.458  -0.491  3.7425 -1.9543 -1.6255
  635MOL0     H83818   6.001   3.079  -0.542 -2.1476 -1.5055 -1.1420
  635MOL0     H83819   5.256   3.020  -0.384  1.2326 -0.0808 -0.1720
  635MOL0     H83820   5.193   2.891  -0.192 -1.7090  0.8608  2.6905
  636MOL0     O83821   9.183   2.098   5.969 -0.3945  0.5376 -0.2997
  636MOL0     C83822   9.097   2.017   5.936 -1.3173  0.5745  1.0086
  636MOL0     O83823   9.133   1.895   5.874  0.0280 -0.3994  0.2059
  636MOL0     C83824   9.265   1.883   5.857  0.3903  0.5292  0.3868
  636MOL0     C83825   9.336   1.817   5.955 -0.0478  0.2531  0.8037
  636MOL0     C83826   9.472   1.798   5.940  0.7909 -0.1067  0.0942
  636MOL0     C83827   9.534   1.851   5.825  0.9995  0.5622  0.9260
  636MOL0     O83828   9.669   1.860   5.801  0.1983 -0.4637 -0.4580
  636MOL0     C83829   9.737   1.738   5.840  0.5593 -0.1978  1.0423
  636MOL0     C83830   9.885   1.778   5.867  0.2353 -0.1295 -0.5494
  636MOL0     C83831   9.956   1.657   5.940 -0.1910 -0.2568  0.3796
  636MOL0     C83832  10.116   1.687   5.942 -0.5212 -0.5447  1.1014
  636MOL0     C83833  10.190   1.605   6.052 -0.6669  0.3584 -0.6336
  636MOL0     C83834  10.217   1.677   6.187  0.1504 -0.0134  0.5821
  636MOL0     C83835  10.314   1.589   6.265  0.3585  0.9014 -1.1780
  636MOL0     C83836  10.394   1.666   6.369  0.8997  0.9776  0.6533
  636MOL0     N83837  10.323   1.679   6.498 -0.0748  0.0165  0.2373
  636MOL0     C83838  10.281   1.575   6.568 -0.5658 -0.5138 -0.5187
  636MOL0     C83839  10.235   1.629   6.685 -0.2875 -0.3852 -0.0894
  636MOL0     C83840  10.158   1.550   6.791 -0.3131 -0.5529  0.2094
  636MOL0     C83841  10.005   1.582   6.780 -0.7419  0.0842 -0.5007
  636MOL0     C83842   9.945   1.524   6.651 -0.1552 -0.3705  0.0130
  636MOL0     C83843   9.801   1.579   6.653 -0.8978  0.2751  0.5596
  636MOL0     O83844   9.734   1.486   6.748  0.7453 -0.1909  0.8558
  636MOL0     C83845   9.603   1.511   6.770 -0.2117 -0.7122 -0.4081
  636MOL0     C83846   9.525   1.600   6.692  1.2127  0.1867  1.1681
  636MOL0     C83847   9.394   1.618   6.731  0.0442 -0.3429  0.3449
  636MOL0     C83848   9.334   1.560   6.838 -0.8199 -0.7278 -0.0200
  636MOL0     C83849   9.195   1.589   6.886  0.5791 -0.7852 -0.6724
  636MOL0     O83850   9.168   1.539   7.011 -0.3239  0.3446  0.6049
  636MOL0     C83851   9.088   1.613   7.097  0.1654  0.8362 -0.4060
  636MOL0     C83852   8.953   1.615   7.081  1.0446  0.2397 -0.2914
  636MOL0     C83853   8.869   1.702   7.153  0.2504 -0.1127  0.0242
  636MOL0     C83854   8.932   1.791   7.242  0.5324  0.4846 -0.4792
  636MOL0     O83855   8.856   1.884   7.311 -0.4951 -0.1479 -0.5147
  636MOL0     C83856   8.830   2.012   7.235  0.0984 -0.7870 -1.0899
  636MOL0     C83857   8.723   2.113   7.291 -0.5986  0.3505 -0.3680
  636MOL0     C83858   8.600   2.046   7.331 -0.1223 -0.2445  0.6239
  636MOL0     C83859   8.489   2.130   7.414  0.2690  0.4294  1.1043
  636MOL0     C83860   8.414   2.223   7.318 -0.1943  0.0225  0.4824
  636MOL0     C83861   8.285   2.278   7.373 -0.6109 -0.3561 -0.1069
  636MOL0     C83862   8.168   2.207   7.346  0.1078  0.6633  0.7389
  636MOL0     C83863   8.133   2.081   7.428  0.7019 -0.6404 -0.6306
  636MOL0    Cl83864   7.986   1.998   7.351 -0.1573  0.3582  0.4012
  636MOL0     C83865   9.069   1.777   7.271  0.2837 -0.0737 -1.1531
  636MOL0     C83866   9.144   1.688   7.194  0.1199 -1.0519 -1.2252
  636MOL0     O83867   9.115   1.647   6.809  0.0147 -0.6234  0.4276
  636MOL0     C83868   9.422   1.473   6.926  0.2958 -0.5409  0.5288
  636MOL0     C83869   9.556   1.452   6.884 -0.2240 -0.0237 -0.8234
  636MOL0     N83870  10.259   1.761   6.686 -0.2927  0.2573  0.2820
  636MOL0     N83871  10.309   1.794   6.570 -0.7810 -0.3392 -0.3983
  636MOL0     C83872   9.464   1.917   5.732 -0.7911  0.5457 -0.3069
  636MOL0     C83873   9.329   1.927   5.748  1.2246 -0.1060  0.1779
  636MOL0     C83874   8.961   2.068   5.947  0.7014 -0.4055  0.0533
  636MOL0     C83875   8.935   2.205   5.977 -0.2099 -1.8204 -0.4476
  636MOL0     C83876   8.805   2.252   5.988  0.7123 -0.7407 -0.4066
  636MOL0     C83877   8.689   2.169   5.961  1.0270  0.2371 -0.6178
  636MOL0     O83878   8.556   2.202   5.957  0.0416  0.6134 -0.2316
  636MOL0     C83879   8.524   2.337   5.993  0.3407  0.8753 -0.3710
  636MOL0     C83880   8.380   2.377   5.987  0.3304 -0.6368  0.0192
  636MOL0     C83881   8.365   2.531   5.968  0.0254  0.7201  0.2631
  636MOL0     C83882   8.223   2.583   5.966  0.0172  0.1963  0.1310
  636MOL0     C83883   8.158   2.546   5.834  0.0238  0.5255  0.4005
  636MOL0     C83884   8.108   2.500   5.731  1.8509 -0.2977  0.1584
  636MOL0     C83885   8.714   2.042   5.929 -0.0090  0.3877 -0.6447
  636MOL0     C83886   8.842   1.997   5.924 -0.2827 -0.1382 -0.2688
  636MOL0     H83887   9.295   1.770   6.045  0.8940 -1.2348  0.4979
  636MOL0     H83888   9.527   1.757   6.024  1.4414 -1.9324 -1.1580
  636MOL0     H83889   9.743   1.672   5.753 -3.4170  2.5505 -1.6554
  636MOL0     H83890   9.694   1.675   5.919  0.3960 -0.3589  0.8280
  636MOL0     H83891   9.894   1.869   5.927 -0.8644 -1.3964  1.6453
  636MOL0     H83892   9.927   1.803   5.769 -1.3270  1.1457 -0.9223
  636MOL0     H83893   9.927   1.559   5.901 -1.4877  0.0217  0.6159
  636MOL0     H83894   9.924   1.659   6.044  0.1264  1.5668  0.4738
  636MOL0     H83895  10.166   1.651   5.852 -1.6223  0.7133 -0.0523
  636MOL0     H83896  10.141   1.793   5.948 -0.4635 -0.5495  0.9261
  636MOL0     H83897  10.281   1.553   6.021  0.1889  0.8223  1.0018
  636MOL0     H83898  10.118   1.527   6.078 -0.4926  0.9669  1.8733
  636MOL0     H83899  10.116   1.689   6.228 -0.7742 -0.8929 -1.3131
  636MOL0     H83900  10.260   1.777   6.173 -3.4153  1.2560 -3.3300
  636MOL0     H83901  10.257   1.504   6.303  0.8751  0.5090 -1.2702
  636MOL0     H83902  10.386   1.537   6.202  0.2454  1.2507 -1.6053
  636MOL0     H83903  10.427   1.765   6.336 -0.8921  1.5241  0.4125
  636MOL0     H83904  10.485   1.606   6.381  0.6113 -0.8829 -4.1667
  636MOL0     H83905  10.286   1.472   6.535  0.7952 -0.2261 -1.2590
  636MOL0     H83906  10.191   1.579   6.891  0.5912 -1.9278  0.3397
  636MOL0     H83907  10.171   1.443   6.771 -0.6407 -0.8036  1.2919
  636MOL0     H83908  10.002   1.690   6.759  1.2050 -0.0156 -1.4454
  636MOL0     H83909   9.957   1.558   6.876  2.3417  1.3417  1.5045
  636MOL0     H83910  10.005   1.560   6.567  0.5506  0.3777  0.8172
  636MOL0     H83911   9.946   1.415   6.661 -2.7891 -0.3437  1.4774
  636MOL0     H83912   9.766   1.569   6.550 -3.5897  0.7837  1.3577
  636MOL0     H83913   9.795   1.685   6.678 -0.7811  0.2097  0.8674
  636MOL0     H83914   9.572   1.647   6.606  0.8717 -1.0194  0.2949
  636MOL0     H83915   9.334   1.683   6.668 -0.8231  2.0190  3.3345
  636MOL0     H83916   8.922   1.548   7.002 -0.2011 -2.8361  2.5551
  636MOL0     H83917   8.763   1.713   7.136  0.4085  0.5247 -0.6028
  636MOL0     H83918   8.795   1.982   7.136 -0.8603 -1.8084 -0.4646
  636MOL0     H83919   8.923   2.070   7.231 -1.1452  1.3225 -4.7464
  636MOL0     H83920   8.686   2.188   7.220  1.2392  1.1432 -0.5734
  636MOL0     H83921   8.765   2.164   7.379  1.7357 -4.0866  1.4104
  636MOL0     H83922   8.628   1.966   7.400 -0.1023  0.3818  1.3623
  636MOL0     H83923   8.550   2.005   7.243  0.9126 -0.4665  0.1252
  636MOL0     H83924   8.420   2.058   7.457 -0.2942 -0.1842 -0.7171
  636MOL0     H83925   8.528   2.185   7.499  1.1498  0.1672  0.8792
  636MOL0     H83926   8.381   2.172   7.227 -2.0177  2.0592 -0.0725
  636MOL0     H83927   8.486   2.299   7.285  2.8509 -1.7738  2.5418
  636MOL0     H83928   8.276   2.370   7.315  1.0085 -0.5590 -0.7137
  636MOL0     H83929   8.297   2.298   7.480  2.1960 -2.1696 -0.0009
  636MOL0     H83930   8.087   2.278   7.363 -1.3958 -1.1318  1.4195
  636MOL0     H83931   8.162   2.186   7.239 -1.1882  1.5276  0.6202
  636MOL0     H83932   8.102   2.091   7.532  3.2128 -2.0886  0.3596
  636MOL0     H83933   8.220   2.015   7.428  0.3014 -1.1850 -1.3073
  636MOL0     H83934   9.118   1.844   7.341 -0.4723  1.1551 -1.7683
  636MOL0     H83935   9.253   1.690   7.200  0.0569 -0.1365  2.1744
  636MOL0     H83936   9.382   1.430   7.018  0.9032  2.2172  2.1861
  636MOL0     H83937   9.632   1.403   6.944 -1.8550 -0.3494  1.0584
  636MOL0     H83938   9.509   1.970   5.648 -1.6588 -2.5100 -2.9031
  636MOL0     H83939   9.263   1.981   5.681  2.2125  1.3195  0.3155
  636MOL0     H83940   9.012   2.280   5.993 -1.4501 -0.4078 -0.9847
  636MOL0     H83941   8.803   2.355   6.020  0.0051 -0.4515 -1.3527
  636MOL0     H83942   8.557   2.402   5.910 -2.2021  1.1170 -1.2901
  636MOL0     H83943   8.573   2.379   6.081 -1.1304  3.6807 -0.7536
  636MOL0     H83944   8.316   2.319   5.919 -2.3915  0.1505  1.7292
  636MOL0     H83945   8.337   2.348   6.083 -0.4792 -0.6541 -0.3386
  636MOL0     H83946   8.413   2.566   5.877 -0.6795 -0.0697 -0.4349
  636MOL0     H83947   8.416   2.577   6.053  1.2521 -1.0251  0.5396
  636MOL0     H83948   8.173   2.534   6.049  0.8187  0.8809  1.0376
  636MOL0     H83949   8.218   2.692   5.971 -2.0583  0.3602 -2.9010
  636MOL0     H83950   8.054   2.460   5.648 -0.2853  1.4133  0.6485
  636MOL0     H83951   8.630   1.974   5.914  0.8525 -1.2527  1.4180
  636MOL0     H83952   8.860   1.899   5.879  3.2208  0.3843 -0.2950
  637MOL0     O83953  10.071   8.693   7.352  0.0973 -1.1806 -0.2056
  637MOL0     C83954  10.129   8.664   7.246  0.5402 -0.4343  0.4525
  637MOL0     O83955  10.078   8.683   7.116 -0.3754 -0.2550  0.1178
  637MOL0     C83956   9.961   8.744   7.079 -0.0593  0.3670 -0.8930
  637MOL0     C83957   9.906   8.729   6.954  0.6720 -0.0884 -0.0798
  637MOL0     C83958   9.796   8.799   6.915  0.7022  0.0602 -0.9231
  637MOL0     C83959   9.730   8.893   6.993 -0.4362 -0.8553  0.7013
  637MOL0     O83960   9.610   8.959   6.955 -0.2276 -0.4552 -0.6709
  637MOL0     C83961   9.548   8.913   6.832 -0.4913 -0.0545  1.0098
  637MOL0     C83962   9.437   9.002   6.780 -0.7217 -0.4670  0.2319
  637MOL0     C83963   9.327   8.920   6.703 -0.6046 -0.2064 -0.0170
  637MOL0     C83964   9.369   8.861   6.570  0.3645  0.2084 -0.5566
  637MOL0     C83965   9.260   8.769   6.520 -0.3991  0.0224  0.6043
  637MOL0     C83966   9.278   8.744   6.371 -0.4068 -1.0436 -0.3692
  637MOL0     C83967   9.154   8.693   6.298  0.5403 -0.5322  0.1016
  637MOL0     C83968   9.091   8.555   6.329 -0.2145  0.5710 -0.8628
  637MOL0     N83969   9.009   8.527   6.209  0.1926  0.1500 -0.1384
  637MOL0     C83970   8.873   8.527   6.204  0.5468  0.1753  0.6888
  637MOL0     C83971   8.831   8.507   6.074 -0.4985  0.2736  0.5807
  637MOL0     C83972   8.687   8.489   6.017 -0.6156 -0.2083  0.2149
  637MOL0     C83973   8.595   8.420   6.117  0.6985  0.2340  0.1184
  637MOL0     C83974   8.453   8.418   6.059  0.0841  0.9341 -0.4890
  637MOL0     C83975   8.340   8.347   6.155  0.2556  0.7235  0.1480
  637MOL0     O83976   8.211   8.383   6.101 -0.0077 -0.0995 -0.3329
  637MOL0     C83977   8.113   8.398   6.192  0.9802  0.1347 -0.0865
  637MOL0     C83978   8.024   8.515   6.189 -0.6967  0.6614 -0.0507
  637MOL0     C83979   7.920   8.518   6.273 -0.4194 -0.7623 -0.2064
  637MOL0     C83980   7.889   8.422   6.370 -0.4665  0.1374 -0.8318
  637MOL0     C83981   7.775   8.440   6.467 -0.2066  0.2796  0.4766
  637MOL0     O83982   7.720   8.335   6.534 -0.3077  0.6524 -0.1001
  637MOL0     C83983   7.602   8.355   6.607 -0.0357 -0.1433 -0.0693
  637MOL0     C83984   7.474   8.344   6.548 -0.3691 -0.4038  0.4330
  637MOL0     C83985   7.364   8.381   6.625  0.9524 -0.1054 -0.9044
  637MOL0     C83986   7.382   8.429   6.759 -0.6374  0.2015 -0.0560
  637MOL0     O83987   7.279   8.446   6.842  0.5498 -0.1952 -0.7090
  637MOL0     C83988   7.143   8.471   6.807 -0.2631 -0.1409 -0.5551
  637MOL0     C83989   7.066   8.339   6.792 -0.5752  0.8762  0.1928
  637MOL0     C83990   7.101   8.217   6.899 -0.2541 -0.7892 -0.0934
  637MOL0     C83991   7.022   8.090   6.862 -0.0986 -0.0593  0.8412
  637MOL0     C83992   7.068   7.982   6.954 -0.6393  0.0830 -0.2670
  637MOL0     C83993   6.954   7.876   6.960  1.0739 -0.2756  0.4408
  637MOL0     C83994   6.989   7.767   7.050 -1.1009  0.0828 -0.1616
  637MOL0     C83995   6.867   7.690   7.107 -0.2789  0.4013 -0.5498
  637MOL0    Cl83996   6.903   7.539   7.182  0.1620 -0.5803  0.5270
  637MOL0     C83997   7.508   8.440   6.811  0.7408  0.1813  0.2561
  637MOL0     C83998   7.614   8.403   6.736  0.7752  0.0841  0.2575
  637MOL0     O83999   7.737   8.556   6.483  0.8271 -0.0336 -0.3468
  637MOL0     C84000   7.963   8.306   6.366  0.5680  0.8028 -0.4105
  637MOL0     C84001   8.072   8.296   6.285 -0.5019  0.1337 -1.6738
  637MOL0     N84002   8.959   8.494   6.008  0.7286  0.1170  0.5137
  637MOL0     N84003   9.052   8.507   6.083  0.2425  0.1338 -0.2318
  637MOL0     C84004   9.782   8.906   7.122  0.0907  0.1427 -0.1704
  637MOL0     C84005   9.892   8.828   7.165  0.7317  0.3929 -0.6303
  637MOL0     C84006  10.256   8.593   7.260  0.6140 -0.0801 -0.5571
  637MOL0     C84007  10.312   8.551   7.388 -0.4367  0.0524  0.4683
  637MOL0     C84008  10.441   8.492   7.395  0.0022 -0.0625 -0.1770
  637MOL0     C84009  10.515   8.478   7.275 -0.0170 -0.2659  0.1341
  637MOL0     O84010  10.635   8.419   7.255 -0.3157  0.2337 -0.7359
  637MOL0     C84011  10.702   8.349   7.366  0.2200 -0.3953  0.2565
  637MOL0     C84012  10.793   8.452   7.439 -0.5001 -0.0846 -0.6466
  637MOL0     C84013  10.864   8.394   7.571  0.5687  0.5277  0.1416
  637MOL0     C84014  10.954   8.488   7.647 -1.0842  0.5689 -0.2933
  637MOL0     C84015  10.983   8.417   7.773  0.0939 -0.2578  0.7869
  637MOL0     C84016  11.033   8.380   7.880  0.0469 -0.3976  0.7238
  637MOL0     C84017  10.467   8.538   7.153  0.9055 -0.5179  0.0001
  637MOL0     C84018  10.332   8.584   7.145 -0.6449 -0.1447 -0.1193
  637MOL0     H84019   9.950   8.664   6.879  1.8999 -1.6267  1.8711
  637MOL0     H84020   9.764   8.788   6.812 -3.1577 -1.3210  0.2364
  637MOL0     H84021   9.511   8.811   6.851 -1.0644 -0.0379  0.0432
  637MOL0     H84022   9.623   8.912   6.752  1.5743  4.3250  2.5723
  637MOL0     H84023   9.467   9.091   6.723  2.3792 -0.6307  1.4468
  637MOL0     H84024   9.387   9.042   6.869  1.0372 -2.1903  2.1034
  637MOL0     H84025   9.231   8.972   6.689  0.5096  1.3493 -2.8123
  637MOL0     H84026   9.287   8.842   6.768 -1.8103  1.1372  0.9192
  637MOL0     H84027   9.396   8.941   6.500  0.7683 -0.6505 -1.4111
  637MOL0     H84028   9.461   8.803   6.567 -0.1282 -0.5540 -2.3293
  637MOL0     H84029   9.162   8.811   6.543  0.2200  0.0671  3.6657
  637MOL0     H84030   9.261   8.667   6.561 -1.4264 -0.3123 -0.1689
  637MOL0     H84031   9.363   8.677   6.361  1.6053  1.1713  0.9421
  637MOL0     H84032   9.309   8.838   6.325  2.3877 -3.6084 -4.3419
  637MOL0     H84033   9.081   8.774   6.307  0.0854 -0.9922  0.6725
  637MOL0     H84034   9.169   8.699   6.190 -3.0008  3.1162 -0.4176
  637MOL0     H84035   9.032   8.560   6.421  1.7124 -1.9367  0.6428
  637MOL0     H84036   9.165   8.475   6.341  0.3517  0.8943 -2.0456
  637MOL0     H84037   8.812   8.540   6.292  0.5631 -1.0004  0.8834
  637MOL0     H84038   8.707   8.439   5.922  0.1354 -1.8641  1.1928
  637MOL0     H84039   8.645   8.585   5.988  0.2754  1.0170  2.6758
  637MOL0     H84040   8.592   8.465   6.217  1.7390  1.7235 -0.4927
  637MOL0     H84041   8.627   8.316   6.122  0.9600  0.0475 -3.2388
  637MOL0     H84042   8.426   8.520   6.032  0.9469  1.5234  0.7888
  637MOL0     H84043   8.467   8.357   5.969  3.0311 -0.3890  0.7365
  637MOL0     H84044   8.363   8.386   6.255  2.3785 -0.5534  0.2005
  637MOL0     H84045   8.348   8.238   6.147 -1.0257  0.7363 -1.9714
  637MOL0     H84046   8.024   8.595   6.116  1.5045  1.8148  1.1103
  637MOL0     H84047   7.857   8.604   6.258  0.1308 -0.3227 -0.0118
  637MOL0     H84048   7.476   8.305   6.446  3.3746 -3.7285  1.4886
  637MOL0     H84049   7.273   8.373   6.568  0.1666 -0.0987  0.3071
  637MOL0     H84050   7.131   8.532   6.717 -1.9839  0.4806  0.0523
  637MOL0     H84051   7.104   8.522   6.896  1.2348  0.2791 -0.1063
  637MOL0     H84052   7.096   8.303   6.692 -0.6477 -1.2737  0.8943
  637MOL0     H84053   6.959   8.362   6.797  0.0589  3.8891  1.9171
  637MOL0     H84054   7.067   8.260   6.993 -0.4162 -2.1457  0.4922
  637MOL0     H84055   7.206   8.187   6.903 -0.8046 -3.3403 -2.0875
  637MOL0     H84056   6.914   8.102   6.861 -0.2526 -1.0505 -1.4364
  637MOL0     H84057   7.051   8.067   6.759  0.8576  0.2967  1.0223
  637MOL0     H84058   7.096   8.022   7.051  0.5905 -2.9106  0.7469
  637MOL0     H84059   7.157   7.938   6.908 -1.2549 -0.9461 -0.5050
  637MOL0     H84060   6.945   7.827   6.862 -0.7102  2.3671 -0.8536
  637MOL0     H84061   6.862   7.927   6.989  1.3392  0.6062 -0.2222
  637MOL0     H84062   7.054   7.698   6.996 -0.0229  0.9214  0.0255
  637MOL0     H84063   7.042   7.809   7.136 -2.2827  1.7264 -0.1777
  637MOL0     H84064   6.795   7.670   7.026 -0.9614 -1.0532  0.3688
  637MOL0     H84065   6.814   7.749   7.183  0.3853  1.3538 -0.8133
  637MOL0     H84066   7.515   8.469   6.916 -2.8328  1.0373  0.3825
  637MOL0     H84067   7.713   8.412   6.780  0.8686 -0.8314  0.2660
  637MOL0     H84068   7.953   8.219   6.430  4.6771  1.4830  1.4992
  637MOL0     H84069   8.133   8.206   6.295  2.6816  2.2352 -0.3235
  637MOL0     H84070   9.735   8.972   7.194  0.5266  0.1298  0.1327
  637MOL0     H84071   9.918   8.862   7.265 -0.9381  0.1357 -0.0725
  637MOL0     H84072  10.248   8.569   7.474 -1.4203 -0.7059 -0.0866
  637MOL0     H84073  10.487   8.468   7.490  3.5772  3.0286 -0.8636
  637MOL0     H84074  10.752   8.267   7.315 -1.8114 -0.6298 -1.5173
  637MOL0     H84075  10.627   8.312   7.436 -3.8556  3.2759 -1.6657
  637MOL0     H84076  10.876   8.483   7.374  2.8627 -2.0232  2.3720
  637MOL0     H84077  10.741   8.545   7.467 -1.2187 -1.5921  3.7039
  637MOL0     H84078  10.931   8.318   7.530  2.4210  2.6335 -0.9422
  637MOL0     H84079  10.786   8.355   7.637 -3.6259  3.4914 -2.5524
  637MOL0     H84080  11.048   8.505   7.593 -0.6887  0.7697  0.4326
  637MOL0     H84081  10.899   8.580   7.671  1.7659  2.1051  0.9095
  637MOL0     H84082  11.096   8.345   7.960  1.5110  1.5873  0.5255
  637MOL0     H84083  10.518   8.540   7.057 -0.1862  0.4449 -0.5926
  637MOL0     H84084  10.297   8.628   7.052 -1.3695  0.8600  0.5964
  638MOL0     O84085  10.223   5.449   2.350  0.1175  0.5794 -0.2625
  638MOL0     C84086  10.158   5.393   2.259 -0.1836 -0.3024  0.0971
  638MOL0     O84087  10.181   5.265   2.225  0.2146 -0.1820 -0.1921
  638MOL0     C84088  10.307   5.219   2.269  1.1230 -0.1403  0.2864
  638MOL0     C84089  10.409   5.226   2.181 -0.2718  0.2958  0.2240
  638MOL0     C84090  10.532   5.189   2.224  0.1125 -0.1500  0.5387
  638MOL0     C84091  10.563   5.135   2.349  1.0311 -0.4434 -0.2531
  638MOL0     O84092  10.686   5.117   2.414  0.1162  0.3176  0.8613
  638MOL0     C84093  10.802   5.182   2.344 -0.2254 -0.3817 -0.4841
  638MOL0     C84094  10.924   5.166   2.430  0.5903  0.6676 -0.8153
  638MOL0     C84095  10.983   5.022   2.447 -0.9161  0.9220  0.5905
  638MOL0     C84096  11.106   5.026   2.539  0.2069  0.4999  0.9947
  638MOL0     C84097  11.166   4.895   2.589  0.0921  0.3018  0.3447
  638MOL0     C84098  11.301   4.934   2.650 -0.2316  0.5912  0.0638
  638MOL0     C84099  11.386   4.802   2.691  0.2482 -0.4804 -0.1092
  638MOL0     C84100  11.512   4.846   2.773  0.1971 -0.3073  0.1593
  638MOL0     N84101  11.582   4.730   2.805  0.0973 -0.7897 -0.1334
  638MOL0     C84102  11.671   4.723   2.907  0.0202  0.3372 -0.0610
  638MOL0     C84103  11.744   4.616   2.880 -0.4212 -1.2031  0.4029
  638MOL0     C84104  11.846   4.549   2.962 -1.6327 -0.2212 -0.9946
  638MOL0     C84105  11.980   4.615   2.974  0.4796  0.4589 -0.0440
  638MOL0     C84106  12.048   4.658   2.840 -0.0332 -0.0781  0.4450
  638MOL0     C84107  12.112   4.557   2.762 -0.2321  0.6538  0.5790
  638MOL0     O84108  12.213   4.620   2.680  1.2135 -0.6494  1.0476
  638MOL0     C84109  12.294   4.535   2.608 -1.4561  0.0475 -0.3438
  638MOL0     C84110  12.249   4.418   2.552  0.9401  0.6345  0.3638
  638MOL0     C84111  12.326   4.347   2.461  0.0438 -0.1445 -0.1233
  638MOL0     C84112  12.454   4.390   2.416  0.2181 -0.4581  1.4014
  638MOL0     C84113  12.524   4.315   2.299  0.1975  0.1276 -0.0740
  638MOL0     O84114  12.613   4.384   2.233  0.3387  0.3157  0.9202
  638MOL0     C84115  12.725   4.330   2.157 -0.1130 -0.6229 -0.1082
  638MOL0     C84116  12.776   4.393   2.041  0.0332 -0.4477 -0.3700
  638MOL0     C84117  12.888   4.328   1.973  0.5499 -0.3579  0.2346
  638MOL0     C84118  12.963   4.225   2.024  0.3609  0.4541  1.1309
  638MOL0     O84119  13.066   4.166   1.959  0.2679 -0.8354  0.2098
  638MOL0     C84120  13.146   4.268   1.907 -0.5239 -0.0347 -0.1720
  638MOL0     C84121  13.266   4.203   1.856  0.4373  0.7168  0.3704
  638MOL0     C84122  13.249   4.074   1.783 -0.4747  0.6673  0.2393
  638MOL0     C84123  13.373   4.007   1.720 -0.7205 -0.4909 -0.0723
  638MOL0     C84124  13.421   4.098   1.607 -0.1468  0.4073  0.6962
  638MOL0     C84125  13.308   4.129   1.506 -0.6687  0.0497  0.2971
  638MOL0     C84126  13.365   4.174   1.364 -0.4322 -0.2334 -0.7751
  638MOL0     C84127  13.265   4.154   1.250 -0.2825  0.4512  1.0118
  638MOL0    Cl84128  13.350   4.216   1.097 -0.1601 -0.1719  0.0358
  638MOL0     C84129  12.920   4.170   2.142 -0.1260 -0.6298  0.7127
  638MOL0     C84130  12.795   4.211   2.201  0.4123  0.0076  0.0429
  638MOL0     O84131  12.508   4.194   2.295  0.4183 -0.1234 -0.7529
  638MOL0     C84132  12.499   4.512   2.466 -0.2290 -0.3111  0.4191
  638MOL0     C84133  12.424   4.579   2.574  0.1279  0.2316 -0.3723
  638MOL0     N84134  11.701   4.566   2.758  0.4262  0.1644 -0.6878
  638MOL0     N84135  11.617   4.646   2.708 -0.1720  0.8279 -0.1954
  638MOL0     C84136  10.452   5.127   2.439 -0.4783  1.3719  0.5201
  638MOL0     C84137  10.325   5.167   2.400  0.6462  0.5427 -0.0305
  638MOL0     C84138  10.032   5.453   2.207 -0.1224  0.5198 -0.0894
  638MOL0     C84139   9.933   5.381   2.139 -0.4363 -0.0571  0.0020
  638MOL0     C84140   9.819   5.449   2.093 -0.5832  0.3428  1.0511
  638MOL0     C84141   9.792   5.578   2.126  0.4028 -0.6764 -0.0566
  638MOL0     O84142   9.674   5.649   2.091 -0.5022  0.5643 -0.6713
  638MOL0     C84143   9.565   5.617   2.000 -0.7769  0.0293  0.3283
  638MOL0     C84144   9.467   5.515   2.079 -0.4230 -1.1685 -0.8242
  638MOL0     C84145   9.329   5.510   2.024 -0.1177 -0.5039 -0.3999
  638MOL0     C84146   9.217   5.465   2.114 -0.1607 -0.7848 -0.5111
  638MOL0     C84147   9.095   5.433   2.037 -0.9231 -0.5814  0.3228
  638MOL0     C84148   9.003   5.383   1.976  0.3888 -0.5415  0.7907
  638MOL0     C84149   9.890   5.653   2.186  0.3245 -0.0861  0.6686
  638MOL0     C84150  10.007   5.590   2.233  0.2846  0.1200  0.5966
  638MOL0     H84151  10.395   5.270   2.082 -0.0086  0.8664  0.4325
  638MOL0     H84152  10.611   5.223   2.157 -1.1636  2.5913  0.2760
  638MOL0     H84153  10.772   5.285   2.321  0.9649 -0.4622 -2.6479
  638MOL0     H84154  10.816   5.126   2.251  1.6641  0.3361 -0.6735
  638MOL0     H84155  10.890   5.205   2.527 -1.5537  0.4900 -1.4572
  638MOL0     H84156  11.000   5.225   2.378 -0.8665  0.6484 -3.0705
  638MOL0     H84157  11.023   4.983   2.353 -0.6408  1.7307  0.3681
  638MOL0     H84158  10.902   4.969   2.497 -0.7483  3.2274  3.6080
  638MOL0     H84159  11.172   5.071   2.465  0.9997 -0.3738  1.1482
  638MOL0     H84160  11.093   5.104   2.614  1.6383  2.1720 -0.4181
  638MOL0     H84161  11.179   4.826   2.505 -1.0254 -0.5151  0.8197
  638MOL0     H84162  11.094   4.861   2.664 -1.5103  0.3930 -1.1067
  638MOL0     H84163  11.287   5.006   2.731 -0.6963  1.5634 -0.8592
  638MOL0     H84164  11.361   4.988   2.576  1.2493  0.2295  0.9436
  638MOL0     H84165  11.328   4.742   2.761  2.7960 -0.0611  2.5829
  638MOL0     H84166  11.400   4.751   2.596  0.1325  1.3907 -1.1786
  638MOL0     H84167  11.500   4.905   2.864  0.8679 -0.9159  0.6485
  638MOL0     H84168  11.584   4.902   2.712  2.0846 -1.0535  1.5933
  638MOL0     H84169  11.676   4.783   2.997  1.2475  4.8462 -2.8122
  638MOL0     H84170  11.861   4.460   2.900  1.6825 -0.4622 -0.0551
  638MOL0     H84171  11.806   4.528   3.062  1.2689  1.9213  0.7888
  638MOL0     H84172  12.046   4.547   3.029 -1.0052  0.0733  1.3606
  638MOL0     H84173  11.967   4.703   3.039  0.5137 -1.6494  3.0710
  638MOL0     H84174  11.979   4.713   2.777  1.5064  2.9105  1.1714
  638MOL0     H84175  12.128   4.729   2.866  0.6720 -1.2207  1.5584
  638MOL0     H84176  12.043   4.494   2.706  1.1093 -0.0542 -0.3594
  638MOL0     H84177  12.164   4.485   2.826  0.0948 -1.5703 -1.9940
  638MOL0     H84178  12.156   4.378   2.592  0.9765  0.1270 -0.0560
  638MOL0     H84179  12.277   4.254   2.430  1.1679 -0.2757 -1.6177
  638MOL0     H84180  12.732   4.487   2.009 -1.3861  0.0169  2.5969
  638MOL0     H84181  12.904   4.380   1.879 -1.1874 -1.6037 -0.8231
  638MOL0     H84182  13.184   4.343   1.978 -1.9517 -1.3368  2.0917
  638MOL0     H84183  13.092   4.321   1.828  0.0603  2.2589  0.8657
  638MOL0     H84184  13.325   4.190   1.948  1.2608  1.0866 -0.0928
  638MOL0     H84185  13.323   4.274   1.796 -0.1654  0.8639 -0.0369
  638MOL0     H84186  13.163   4.078   1.715 -2.0295 -0.2273  2.0720
  638MOL0     H84187  13.201   4.002   1.849  1.3234 -0.6776  0.1231
  638MOL0     H84188  13.452   3.992   1.795 -0.8597 -2.0243 -0.1941
  638MOL0     H84189  13.344   3.906   1.690 -0.1844 -0.0320 -2.3166
  638MOL0     H84190  13.503   4.047   1.557  0.2910  0.5067  1.2942
  638MOL0     H84191  13.455   4.193   1.649  0.2965  0.5198  0.0838
  638MOL0     H84192  13.247   4.213   1.543 -0.1757  1.3861 -1.7413
  638MOL0     H84193  13.247   4.039   1.496 -0.9095  0.0370  1.6599
  638MOL0     H84194  13.383   4.278   1.392  0.5266 -1.0440  1.9819
  638MOL0     H84195  13.457   4.118   1.346  1.6337  1.5564  3.1139
  638MOL0     H84196  13.171   4.210   1.248 -0.8302 -0.4585  0.4500
  638MOL0     H84197  13.248   4.049   1.224 -0.4818  1.1141 -1.7520
  638MOL0     H84198  12.966   4.073   2.159 -2.2814 -1.6499  1.0571
  638MOL0     H84199  12.753   4.141   2.273 -2.7406  0.4146 -1.2434
  638MOL0     H84200  12.595   4.556   2.440 -0.4826 -0.9909 -1.8676
  638MOL0     H84201  12.467   4.673   2.608 -1.6923  2.0331 -2.6998
  638MOL0     H84202  10.466   5.083   2.538 -0.5581  0.6595  0.2176
  638MOL0     H84203  10.241   5.142   2.464  1.0569 -3.9009 -0.8775
  638MOL0     H84204   9.948   5.275   2.122  0.8761 -0.0741  1.1348
  638MOL0     H84205   9.750   5.383   2.042 -0.7008 -1.1169  2.9902
  638MOL0     H84206   9.608   5.556   1.921 -0.9955  0.9031 -0.4910
  638MOL0     H84207   9.513   5.705   1.961 -0.4258  1.0039  1.9563
  638MOL0     H84208   9.522   5.422   2.067  1.4514  0.1027 -2.9074
  638MOL0     H84209   9.467   5.542   2.185 -0.2568 -5.3662  0.3963
  638MOL0     H84210   9.326   5.444   1.937  0.3396 -2.5603  1.0661
  638MOL0     H84211   9.308   5.612   1.989  1.4705  0.6931  1.8807
  638MOL0     H84212   9.239   5.382   2.183 -2.2744 -0.0271  1.1713
  638MOL0     H84213   9.192   5.547   2.182 -1.7737 -2.9445  1.6752
  638MOL0     H84214   8.938   5.334   1.906  2.7448 -1.5347 -0.8428
  638MOL0     H84215   9.874   5.761   2.186  3.7408  0.5445  0.4152
  638MOL0     H84216  10.077   5.659   2.280 -0.2702  3.2934 -2.7264
  639MOL0     O84217   0.946   5.628   0.117  0.9718  0.1617  0.4219
  639MOL0     C84218   0.903   5.648   0.231  0.0289  0.2405  0.1000
  639MOL0     O84219   0.849   5.552   0.314  0.3496  0.6720 -1.1727
  639MOL0     C84220   0.861   5.427   0.272  0.0266  0.7927 -0.0224
  639MOL0     C84221   0.747   5.343   0.260  0.4378  1.1602 -0.2433
  639MOL0     C84222   0.765   5.213   0.201  0.1467 -0.8351 -0.6781
  639MOL0     C84223   0.892   5.156   0.179  0.0471 -0.2806 -0.6009
  639MOL0     O84224   0.894   5.033   0.125  0.2750  0.1101  0.0569
  639MOL0     C84225   0.985   5.005   0.015 -0.0660  0.8842  0.0468
  639MOL0     C84226   1.081   4.896   0.083 -0.6184  0.0823  1.2405
  639MOL0     C84227   1.162   4.826  -0.035 -0.1191  0.3093 -0.0023
  639MOL0     C84228   1.234   4.698   0.014 -0.6390  0.3640 -0.6679
  639MOL0     C84229   1.299   4.629  -0.103  0.5685  0.0978 -0.1965
  639MOL0     C84230   1.353   4.498  -0.075  0.0959 -0.0537 -0.6873
  639MOL0     C84231   1.252   4.405  -0.007  0.7858  0.2782  0.0167
  639MOL0     C84232   1.278   4.255  -0.038  0.5571  0.2698 -0.0066
  639MOL0     N84233   1.386   4.206   0.051  0.1876 -0.0775  0.4957
  639MOL0     C84234   1.512   4.161   0.010  0.9948 -0.2079 -0.7360
  639MOL0     C84235   1.582   4.128   0.125 -0.4850  0.8106 -0.0927
  639MOL0     C84236   1.723   4.080   0.141 -0.2943 -0.4517  0.5111
  639MOL0     C84237   1.825   4.184   0.155 -0.2703 -0.0302  0.5258
  639MOL0     C84238   1.826   4.281   0.041  0.0337 -0.9071  0.4554
  639MOL0     C84239   1.934   4.387   0.051  1.1294  0.0796  0.3406
  639MOL0     O84240   1.886   4.498   0.134 -0.5085 -0.2134  0.4508
  639MOL0     C84241   1.811   4.600   0.079 -0.4723  0.2294 -1.1003
  639MOL0     C84242   1.776   4.700   0.172 -0.6172  1.1388  0.0452
  639MOL0     C84243   1.714   4.808   0.130 -0.2957  0.0225  0.6667
  639MOL0     C84244   1.665   4.824  -0.009 -1.5270  0.4132  0.0659
  639MOL0     C84245   1.592   4.941  -0.048  0.5230  0.3540  0.6422
  639MOL0     O84246   1.480   4.994   0.026 -1.1163 -0.5071  0.5270
  639MOL0     C84247   1.407   5.104  -0.024  0.1412  0.0386  0.5969
  639MOL0     C84248   1.391   5.119  -0.163  0.5249  0.2221 -0.3601
  639MOL0     C84249   1.312   5.222  -0.213  0.3868 -0.5505  0.6360
  639MOL0     C84250   1.247   5.307  -0.129 -0.5864 -0.4398 -0.3541
  639MOL0     O84251   1.182   5.397  -0.204 -0.7092  0.0095 -1.2609
  639MOL0     C84252   1.085   5.475  -0.135 -0.0397 -0.1417 -0.4269
  639MOL0     C84253   1.032   5.580  -0.242  0.0353 -0.5065  0.2698
  639MOL0     C84254   1.128   5.634  -0.348  0.1107  0.3909  0.7219
  639MOL0     C84255   1.084   5.775  -0.392 -0.3682  0.3318 -0.2165
  639MOL0     C84256   0.955   5.766  -0.477  0.2180  0.5510  0.6182
  639MOL0     C84257   0.890   5.907  -0.498  0.2315 -0.2207 -0.4599
  639MOL0     C84258   0.917   5.975  -0.637  0.1690  0.7267  0.4478
  639MOL0     C84259   0.847   6.114  -0.654  0.5487 -0.2518  0.3162
  639MOL0    Cl84260   0.898   6.181  -0.815 -0.2481  0.1002 -0.4796
  639MOL0     C84261   1.263   5.297   0.006 -1.0713  0.2146 -0.4842
  639MOL0     C84262   1.343   5.194   0.066  0.1569  0.6834  0.1649
  639MOL0     O84263   1.635   4.984  -0.158  0.3049 -1.0974 -0.2934
  639MOL0     C84264   1.691   4.715  -0.092 -0.3415  0.5267  0.5241
  639MOL0     C84265   1.770   4.602  -0.051  0.2274 -0.2133  0.3262
  639MOL0     N84266   1.494   4.148   0.233 -0.3101  0.4201  0.2766
  639MOL0     N84267   1.376   4.192   0.185 -0.2181  0.9033  0.1582
  639MOL0     C84268   1.004   5.233   0.210  0.0396 -0.4300  0.5596
  639MOL0     C84269   0.995   5.368   0.257 -0.2147  0.0904 -0.1075
  639MOL0     C84270   0.917   5.789   0.282 -0.0621  0.5704  0.7438
  639MOL0     C84271   0.904   5.898   0.194 -0.2467 -0.0124  0.4740
  639MOL0     C84272   0.930   6.031   0.229  0.3129 -0.1999 -0.2113
  639MOL0     C84273   0.967   6.063   0.357 -0.0516  0.1867  0.8961
  639MOL0     O84274   1.003   6.184   0.405  0.8865  0.3080 -0.1250
  639MOL0     C84275   1.100   6.254   0.330  0.2199  0.1589  0.2675
  639MOL0     C84276   1.114   6.387   0.398 -0.5591  1.1122  0.9501
  639MOL0     C84277   1.190   6.370   0.530 -0.4757  0.0059  0.0878
  639MOL0     C84278   1.341   6.377   0.517  0.3569 -0.0720  0.5444
  639MOL0     C84279   1.394   6.238   0.474  1.4092 -0.5575 -0.1319
  639MOL0     C84280   1.447   6.134   0.458 -1.0674 -0.7017 -0.4390
  639MOL0     C84281   0.969   5.967   0.445  0.3008  0.8948 -0.0665
  639MOL0     C84282   0.950   5.830   0.414  0.1454  0.0410 -0.7154
  639MOL0     H84283   0.650   5.372   0.298  0.7610 -0.4219  2.0236
  639MOL0     H84284   0.679   5.147   0.188 -0.4492 -1.8605  5.4319
  639MOL0     H84285   1.040   5.090  -0.024  0.0930  1.4008  1.3415
  639MOL0     H84286   0.935   4.952  -0.067  2.8792 -0.6361 -0.9170
  639MOL0     H84287   1.033   4.820   0.144 -0.5367 -1.8025 -0.9156
  639MOL0     H84288   1.149   4.957   0.143 -0.4771  0.8098  0.3639
  639MOL0     H84289   1.229   4.900  -0.080  1.5353 -0.0368  1.7504
  639MOL0     H84290   1.096   4.792  -0.116  0.1879 -1.2317  0.3549
  639MOL0     H84291   1.319   4.723   0.079  0.2281 -2.5973 -0.4983
  639MOL0     H84292   1.168   4.639   0.078  0.7778 -0.2280  0.3226
  639MOL0     H84293   1.389   4.686  -0.129 -1.0272  1.4123 -3.4819
  639MOL0     H84294   1.240   4.613  -0.194 -0.2484 -1.5540  0.5870
  639MOL0     H84295   1.436   4.496  -0.004 -1.7383  0.7592  1.5867
  639MOL0     H84296   1.390   4.454  -0.168  1.2816 -0.5194 -0.0220
  639MOL0     H84297   1.262   4.425   0.100 -0.7975  1.2062  0.0163
  639MOL0     H84298   1.151   4.421  -0.046  0.2392 -2.5903  0.0395
  639MOL0     H84299   1.313   4.246  -0.142 -1.2130  1.6917 -0.7669
  639MOL0     H84300   1.179   4.208  -0.035  0.2080  1.0662  1.8583
  639MOL0     H84301   1.559   4.170  -0.087 -1.1504  1.9356 -1.6727
  639MOL0     H84302   1.750   4.035   0.046 -3.2982  3.6891 -2.7174
  639MOL0     H84303   1.725   4.016   0.230  0.9859  0.7744  1.4243
  639MOL0     H84304   1.924   4.138   0.157  0.7832  1.8274 -2.1653
  639MOL0     H84305   1.809   4.241   0.248 -2.0943  1.4166 -0.5981
  639MOL0     H84306   1.843   4.223  -0.050 -0.4155 -2.6781  1.4672
  639MOL0     H84307   1.729   4.330   0.028  1.3501  1.4088 -1.4729
  639MOL0     H84308   1.959   4.412  -0.053 -0.9329 -1.9890 -0.7655
  639MOL0     H84309   2.026   4.345   0.093  0.4451 -0.8232  0.9646
  639MOL0     H84310   1.812   4.707   0.274 -0.5719  1.1663  0.0272
  639MOL0     H84311   1.692   4.896   0.189 -1.7363  1.7326 -2.1505
  639MOL0     H84312   1.415   5.036  -0.229  0.0239 -2.1194  2.2150
  639MOL0     H84313   1.293   5.224  -0.320  0.8440  2.5276  0.5176
  639MOL0     H84314   1.130   5.524  -0.048 -4.1090 -0.8068  2.3575
  639MOL0     H84315   0.996   5.414  -0.113 -1.1509  0.3020 -3.3328
  639MOL0     H84316   0.986   5.663  -0.188 -0.3830 -1.6645  1.7727
  639MOL0     H84317   0.951   5.531  -0.296 -0.4992 -1.2730  1.7113
  639MOL0     H84318   1.140   5.568  -0.435  1.5699  2.1854 -0.5276
  639MOL0     H84319   1.228   5.645  -0.304  1.6642  0.7721 -2.5842
  639MOL0     H84320   1.068   5.838  -0.304  1.6311  0.5562  0.0300
  639MOL0     H84321   1.172   5.818  -0.441  2.6062 -3.3428  1.4492
  639MOL0     H84322   0.889   5.698  -0.422  1.2724  1.3422  3.0266
  639MOL0     H84323   0.975   5.725  -0.576  0.6075  0.1170  0.8725
  639MOL0     H84324   0.932   5.972  -0.420  1.0070 -3.2776  1.9003
  639MOL0     H84325   0.786   5.889  -0.470  0.1083 -0.3478 -0.9830
  639MOL0     H84326   1.024   5.990  -0.653  0.7933 -1.1078  2.3727
  639MOL0     H84327   0.883   5.907  -0.717  0.7588  1.7019 -0.6607
  639MOL0     H84328   0.863   6.172  -0.563 -0.8406  0.4353  0.1520
  639MOL0     H84329   0.740   6.093  -0.664  0.9610 -3.2248  1.1689
  639MOL0     H84330   1.220   5.368   0.077  1.6417 -0.3006  1.8305
  639MOL0     H84331   1.356   5.180   0.173  1.8821 -0.1644 -0.1128
  639MOL0     H84332   1.648   4.715  -0.192 -1.4791  1.0510  0.9846
  639MOL0     H84333   1.791   4.527  -0.126 -1.4883  2.2764 -2.8472
  639MOL0     H84334   1.105   5.197   0.193  0.4115  1.5456 -1.8859
  639MOL0     H84335   1.086   5.424   0.277  0.5329  0.0459 -2.9422
  639MOL0     H84336   0.878   5.877   0.091 -0.4551 -1.8070  0.8662
  639MOL0     H84337   0.920   6.107   0.153 -3.0719  2.2380  2.3660
  639MOL0     H84338   1.053   6.269   0.232  0.6040 -1.8986 -0.2855
  639MOL0     H84339   1.197   6.205   0.316 -0.1710 -0.3524 -0.8060
  639MOL0     H84340   1.170   6.456   0.334  1.7855 -2.9258 -1.8204
  639MOL0     H84341   1.014   6.429   0.412 -1.9903 -1.8043  0.2981
  639MOL0     H84342   1.158   6.273   0.567 -1.7573 -0.7174 -2.6637
  639MOL0     H84343   1.163   6.447   0.604  1.6013 -1.8750  3.0142
  639MOL0     H84344   1.381   6.445   0.442 -0.3800 -0.1734  0.0577
  639MOL0     H84345   1.387   6.409   0.611  2.1996 -0.3616 -0.2163
  639MOL0     H84346   1.492   6.044   0.420  1.4911 -0.0368  0.7989
  639MOL0     H84347   0.979   5.978   0.553 -1.8694 -1.0306  0.4008
  639MOL0     H84348   0.965   5.756   0.492 -0.1854 -0.2605 -0.9368
  640MOL0     O84349  10.934   7.717   1.298  0.5134  0.7129 -0.1780
  640MOL0     C84350  10.866   7.616   1.311 -0.3964  0.5522  0.0990
  640MOL0     O84351  10.875   7.507   1.235  0.5488 -0.0818  0.4725
  640MOL0     C84352  10.997   7.473   1.189 -0.6436  0.1427  1.2870
  640MOL0     C84353  11.096   7.450   1.279 -0.9868  1.0422 -0.0945
  640MOL0     C84354  11.224   7.410   1.235  1.7354 -1.0605 -0.4513
  640MOL0     C84355  11.249   7.389   1.105 -0.6719 -0.5363  0.5247
  640MOL0     O84356  11.381   7.352   1.072  0.2449 -0.0578 -0.7199
  640MOL0     C84357  11.497   7.435   1.107  0.1243 -0.5616 -0.1495
  640MOL0     C84358  11.602   7.349   1.177  0.6901  0.4222  0.6092
  640MOL0     C84359  11.742   7.413   1.182  0.0822  0.0990 -0.6114
  640MOL0     C84360  11.801   7.442   1.049  1.2209 -0.3129 -0.0771
  640MOL0     C84361  11.942   7.497   1.080  0.9129  0.3191  0.3767
  640MOL0     C84362  12.030   7.501   0.944  1.1265  0.5669  0.6790
  640MOL0     C84363  12.165   7.538   0.976  0.6624  0.2731  0.5055
  640MOL0     C84364  12.243   7.569   0.848  0.2209  0.6900 -0.4330
  640MOL0     N84365  12.254   7.444   0.764 -0.6013  0.1954 -0.4075
  640MOL0     C84366  12.175   7.402   0.666 -0.2501  0.3531  0.5174
  640MOL0     C84367  12.232   7.295   0.609  0.0300  0.2276  0.5263
  640MOL0     C84368  12.185   7.215   0.489 -0.1211 -0.6652  0.1527
  640MOL0     C84369  12.272   7.114   0.415 -0.0139 -0.3329 -0.4302
  640MOL0     C84370  12.341   7.166   0.288  0.2370  0.0986 -0.3815
  640MOL0     C84371  12.491   7.123   0.275 -0.2631  0.3325  0.0276
  640MOL0     O84372  12.504   6.985   0.290  0.4160 -0.7418  0.5100
  640MOL0     C84373  12.454   6.893   0.201 -0.4995  0.4352 -0.5140
  640MOL0     C84374  12.394   6.924   0.076 -0.4841  0.2397  0.1364
  640MOL0     C84375  12.348   6.817  -0.009  0.2843  0.0234 -0.9667
  640MOL0     C84376  12.361   6.678   0.031 -0.2186  0.0842 -0.0926
  640MOL0     C84377  12.326   6.558  -0.053 -0.1017  0.3365 -0.2158
  640MOL0     O84378  12.245   6.472   0.007  0.3961 -0.0072 -0.3659
  640MOL0     C84379  12.223   6.352  -0.049  0.0956 -0.5284 -0.9404
  640MOL0     C84380  12.319   6.243  -0.064 -0.5563  0.3197 -0.4476
  640MOL0     C84381  12.268   6.115  -0.107 -0.4321 -0.3981 -0.1128
  640MOL0     C84382  12.135   6.093  -0.147 -0.3395  1.1292 -0.1008
  640MOL0     O84383  12.106   5.971  -0.203 -0.5538 -0.5173 -0.1855
  640MOL0     C84384  11.968   5.928  -0.221 -1.1908 -0.0821 -0.1153
  640MOL0     C84385  11.893   5.977  -0.343 -1.0555 -0.9470  0.4801
  640MOL0     C84386  11.743   5.945  -0.354  1.0772 -1.0056  0.8605
  640MOL0     C84387  11.728   5.797  -0.360  0.5740  0.5997  0.1069
  640MOL0     C84388  11.590   5.734  -0.384 -0.0289 -0.8474  0.2419
  640MOL0     C84389  11.607   5.583  -0.409  0.4123 -0.1217  0.3293
  640MOL0     C84390  11.464   5.521  -0.443  0.1597  0.2902 -0.9452
  640MOL0     C84391  11.468   5.361  -0.430  0.0941  0.5752  1.5835
  640MOL0    Cl84392  11.580   5.294  -0.550  0.0372 -0.0327 -0.2847
  640MOL0     C84393  12.045   6.193  -0.122  0.1744  0.5857  0.0173
  640MOL0     C84394  12.089   6.323  -0.069 -0.1180  0.1940 -0.2827
  640MOL0     O84395  12.369   6.551  -0.169  0.0946 -0.4160 -0.4974
  640MOL0     C84396  12.405   6.654   0.167 -0.6579  0.4302 -0.0159
  640MOL0     C84397  12.464   6.761   0.237 -0.3337 -0.4805 -0.4411
  640MOL0     N84398  12.339   7.256   0.684  0.8623 -0.2665  0.4204
  640MOL0     N84399  12.347   7.348   0.778 -0.5651 -0.3352  0.3641
  640MOL0     C84400  11.141   7.393   1.007  1.2687  0.3798 -0.8071
  640MOL0     C84401  11.014   7.433   1.052 -0.6712 -0.0062  0.6538
  640MOL0     C84402  10.751   7.633   1.399  0.1575  0.0219  0.0163
  640MOL0     C84403  10.655   7.529   1.414 -0.4451  0.4897  0.5155
  640MOL0     C84404  10.543   7.551   1.498  0.4584  0.2322  0.7507
  640MOL0     C84405  10.516   7.671   1.573 -0.4527 -0.6930  0.7493
  640MOL0     O84406  10.402   7.681   1.640 -0.4591  0.6687  0.2235
  640MOL0     C84407  10.360   7.794   1.697 -0.1884 -1.0841  0.2596
  640MOL0     C84408  10.245   7.754   1.790 -0.2583 -0.1019 -0.0843
  640MOL0     C84409  10.120   7.745   1.711  1.2188 -0.3925  0.5069
  640MOL0     C84410  10.035   7.628   1.775  1.1443 -1.0904 -0.6441
  640MOL0     C84411  10.074   7.506   1.713 -0.0096 -0.2213 -0.2589
  640MOL0     C84412  10.127   7.399   1.683  0.9312 -0.3608  0.3178
  640MOL0     C84413  10.605   7.780   1.543 -0.7221  0.9164 -0.3059
  640MOL0     C84414  10.717   7.757   1.461 -0.2278 -0.5899  0.0134
  640MOL0     H84415  11.075   7.467   1.385 -3.3195  0.1797 -0.3650
  640MOL0     H84416  11.296   7.380   1.311  2.5476 -2.6052 -1.7519
  640MOL0     H84417  11.466   7.518   1.171  2.2484  0.3414 -0.2069
  640MOL0     H84418  11.533   7.480   1.014 -0.5847  1.0633  0.3275
  640MOL0     H84419  11.604   7.258   1.117  2.2731  0.5824  0.3670
  640MOL0     H84420  11.564   7.302   1.268 -1.0212 -0.0236 -0.2917
  640MOL0     H84421  11.799   7.328   1.221  1.5321  1.0467 -0.5771
  640MOL0     H84422  11.754   7.497   1.252  0.8755  0.9251 -1.6832
  640MOL0     H84423  11.811   7.349   0.992 -0.8892  0.2830 -1.5400
  640MOL0     H84424  11.750   7.519   0.991  0.2301  0.1730  1.3740
  640MOL0     H84425  11.994   7.426   1.145  1.0665 -1.4496 -1.5516
  640MOL0     H84426  11.924   7.591   1.134 -1.2997 -0.4945  1.1800
  640MOL0     H84427  11.987   7.574   0.874 -1.3011 -1.5579 -0.2137
  640MOL0     H84428  12.019   7.405   0.892  0.2247 -0.3936  2.5653
  640MOL0     H84429  12.169   7.623   1.046 -1.8287 -0.0589  1.1525
  640MOL0     H84430  12.221   7.461   1.030  2.5604 -0.1449 -1.8976
  640MOL0     H84431  12.342   7.609   0.872 -0.0344  0.8116  0.4487
  640MOL0     H84432  12.188   7.644   0.791  3.8976  2.6525 -1.7122
  640MOL0     H84433  12.078   7.441   0.637 -0.4752  0.1047  0.9378
  640MOL0     H84434  12.156   7.288   0.412  1.6617 -0.7298 -0.6442
  640MOL0     H84435  12.102   7.157   0.531  0.4719  0.0522  2.4523
  640MOL0     H84436  12.217   7.021   0.400  1.6244 -1.8566  2.2035
  640MOL0     H84437  12.348   7.084   0.488  0.5774  0.1426 -0.8365
  640MOL0     H84438  12.291   7.145   0.193 -1.4563 -1.5991  0.8111
  640MOL0     H84439  12.340   7.276   0.295 -0.7957  0.0089  1.8981
  640MOL0     H84440  12.543   7.168   0.359 -0.2667 -0.3983  0.4289
  640MOL0     H84441  12.544   7.146   0.182 -1.1707  0.8360 -0.3768
  640MOL0     H84442  12.377   7.020   0.028 -0.6250 -1.3897 -3.4267
  640MOL0     H84443  12.310   6.835  -0.109  1.2352 -1.5917 -1.6678
  640MOL0     H84444  12.426   6.260  -0.056 -0.5633  0.5948 -0.8974
  640MOL0     H84445  12.348   6.044  -0.128  0.1022  1.3021 -5.0885
  640MOL0     H84446  11.913   5.942  -0.127  0.3296  1.3488  0.6101
  640MOL0     H84447  11.974   5.819  -0.233  1.4752  0.1325 -1.6027
  640MOL0     H84448  11.947   5.937  -0.429 -2.5910 -0.0395 -0.9755
  640MOL0     H84449  11.892   6.086  -0.355 -0.5414 -0.9386  0.4876
  640MOL0     H84450  11.694   5.992  -0.439  0.5926 -0.2887  1.5211
  640MOL0     H84451  11.696   5.982  -0.262  0.1905  2.7010 -0.8896
  640MOL0     H84452  11.788   5.754  -0.440  0.3104  0.3229  0.0580
  640MOL0     H84453  11.767   5.758  -0.265 -0.2460 -1.1275 -0.2308
  640MOL0     H84454  11.538   5.781  -0.468  0.7153  1.3823  0.9654
  640MOL0     H84455  11.528   5.760  -0.298  1.1423  1.1557  0.5402
  640MOL0     H84456  11.652   5.536  -0.321 -0.4735 -0.1591  0.7722
  640MOL0     H84457  11.676   5.573  -0.493 -0.4327  1.2791 -0.5656
  640MOL0     H84458  11.394   5.550  -0.364  1.7586 -2.3304  1.6388
  640MOL0     H84459  11.427   5.550  -0.541  0.5188  2.3974 -0.5109
  640MOL0     H84460  11.371   5.310  -0.428 -0.3157  1.3612  2.6492
  640MOL0     H84461  11.518   5.334  -0.336  1.3591 -1.0446  0.4985
  640MOL0     H84462  11.941   6.173  -0.146  0.1903 -0.6930  0.9164
  640MOL0     H84463  12.013   6.400  -0.078 -1.8098 -1.4067 -0.1349
  640MOL0     H84464  12.409   6.552   0.203 -1.0685  1.0568  1.9253
  640MOL0     H84465  12.487   6.740   0.341 -0.8834 -1.6292 -0.5341
  640MOL0     H84466  11.151   7.354   0.906 -2.1640 -1.5221 -0.5787
  640MOL0     H84467  10.940   7.426   0.972  0.7766  0.4200 -0.7799
  640MOL0     H84468  10.663   7.430   1.370  1.7806  1.0473 -0.4556
  640MOL0     H84469  10.469   7.471   1.502 -0.0198  0.4109 -2.3868
  640MOL0     H84470  10.336   7.873   1.625  2.9983 -1.2509 -1.1307
  640MOL0     H84471  10.447   7.832   1.752 -1.7223 -1.1891  2.9623
  640MOL0     H84472  10.265   7.659   1.840 -0.8058 -1.5895 -2.5359
  640MOL0     H84473  10.221   7.826   1.868 -0.7896  0.8223 -1.0671
  640MOL0     H84474  10.142   7.721   1.607  0.2127 -0.3290  0.2746
  640MOL0     H84475  10.055   7.832   1.726  2.4623  1.3306 -3.0741
  640MOL0     H84476  10.053   7.623   1.883  0.6363 -0.0583 -0.5009
  640MOL0     H84477   9.929   7.640   1.755  1.2438 -0.1656 -0.6460
  640MOL0     H84478  10.157   7.301   1.650 -2.5052 -2.1115  1.8904
  640MOL0     H84479  10.582   7.877   1.584 -0.3651  1.3083 -1.0096
  640MOL0     H84480  10.788   7.835   1.438  2.7304 -3.0174  0.3111
  641MOL0     O84481   1.803   2.654   3.591  0.9340  0.1054 -1.0291
  641MOL0     C84482   1.736   2.682   3.692 -1.0141  0.0522 -0.0602
  641MOL0     O84483   1.797   2.719   3.816 -0.5002 -0.4187 -0.0643
  641MOL0     C84484   1.932   2.706   3.842 -0.5014  0.3622 -0.0544
  641MOL0     C84485   2.021   2.609   3.785 -0.3469  0.1507 -0.2430
  641MOL0     C84486   2.164   2.606   3.819  0.6111 -0.2886 -0.9070
  641MOL0     C84487   2.209   2.687   3.928  0.2480  0.0511 -0.3114
  641MOL0     O84488   2.337   2.651   3.966  0.5136 -0.7849  0.3662
  641MOL0     C84489   2.385   2.693   4.094  0.4071 -0.5525  1.6659
  641MOL0     C84490   2.500   2.597   4.132  0.2297  0.0559 -0.7861
  641MOL0     C84491   2.473   2.454   4.122  0.7781  0.1538 -1.1306
  641MOL0     C84492   2.582   2.374   4.204  0.2668  0.4397  0.5689
  641MOL0     C84493   2.558   2.217   4.210 -1.1424 -0.5136  0.5328
  641MOL0     C84494   2.651   2.143   4.308  1.1233 -0.2385 -0.6434
  641MOL0     C84495   2.797   2.142   4.257 -0.8188 -0.0192  0.7231
  641MOL0     C84496   2.888   2.052   4.365  1.4852  0.7344  0.1106
  641MOL0     N84497   3.025   2.042   4.315 -0.8265  0.1135 -0.5442
  641MOL0     C84498   3.057   1.978   4.201  0.0375 -0.3392  0.8078
  641MOL0     C84499   3.186   1.990   4.194 -0.0886  0.1636 -0.4108
  641MOL0     C84500   3.271   1.933   4.079 -1.5335  0.1825  0.7746
  641MOL0     C84501   3.429   1.951   4.099 -0.1743  0.1655 -0.4893
  641MOL0     C84502   3.488   1.835   4.192 -0.5190  0.0495  0.5367
  641MOL0     C84503   3.504   1.708   4.106  0.2743 -1.0769 -0.1338
  641MOL0     O84504   3.621   1.726   4.027  0.2767  0.0804 -0.6975
  641MOL0     C84505   3.666   1.620   3.959  0.8882  0.1336 -0.1518
  641MOL0     C84506   3.593   1.518   3.901 -0.5602  0.4702  0.2162
  641MOL0     C84507   3.656   1.419   3.818  0.2234  0.6464  1.0510
  641MOL0     C84508   3.794   1.426   3.799 -0.4028 -0.8503 -0.1263
  641MOL0     C84509   3.868   1.306   3.734  0.2666  0.2731  0.0734
  641MOL0     O84510   3.805   1.187   3.710  0.3827 -1.1198  0.9542
  641MOL0     C84511   3.876   1.106   3.624 -0.0067  0.1649  0.3067
  641MOL0     C84512   3.944   0.994   3.673 -0.0190 -1.1474  0.2420
  641MOL0     C84513   3.996   0.908   3.587 -0.7703 -0.0202 -0.0549
  641MOL0     C84514   4.002   0.937   3.445  0.1406  0.0881 -0.4833
  641MOL0     O84515   4.075   0.848   3.371  0.5241  0.0045  0.3659
  641MOL0     C84516   4.122   0.890   3.244 -0.1502 -0.2734  0.6230
  641MOL0     C84517   4.230   0.798   3.206 -0.0037 -0.2434 -0.5682
  641MOL0     C84518   4.195   0.645   3.206 -0.1211 -0.1348 -1.1740
  641MOL0     C84519   4.267   0.599   3.082  0.0500 -0.2265  0.1881
  641MOL0     C84520   4.237   0.444   3.054 -0.2140 -0.7623 -0.7973
  641MOL0     C84521   4.329   0.401   2.946 -0.6146 -0.4348  0.0203
  641MOL0     C84522   4.320   0.255   2.919 -0.6803 -0.1385  0.5407
  641MOL0     C84523   4.433   0.209   2.818  0.9666 -0.1664 -0.0039
  641MOL0    Cl84524   4.400   0.039   2.786 -0.2398  0.1808  0.4909
  641MOL0     C84525   3.922   1.041   3.391 -0.7586  0.0579 -0.5950
  641MOL0     C84526   3.865   1.126   3.483 -0.5975 -0.4731  0.4671
  641MOL0     O84527   3.980   1.330   3.698  0.0779  0.0313  0.3959
  641MOL0     C84528   3.868   1.538   3.854  0.3091  0.9667 -0.0582
  641MOL0     C84529   3.797   1.628   3.939 -0.3090  0.1811  0.4877
  641MOL0     N84530   3.237   2.058   4.297  0.3224 -0.3433  0.6475
  641MOL0     N84531   3.142   2.083   4.375  0.3943  1.0539 -0.3561
  641MOL0     C84532   2.123   2.776   3.983 -0.8369 -0.4692  0.5644
  641MOL0     C84533   1.987   2.787   3.939  0.8650 -0.5771 -0.6498
  641MOL0     C84534   1.586   2.681   3.677 -0.3233  0.3633 -0.4652
  641MOL0     C84535   1.502   2.759   3.758  0.2538  0.3615 -0.4986
  641MOL0     C84536   1.370   2.771   3.729  1.1473  0.3977 -0.3909
  641MOL0     C84537   1.308   2.708   3.619  0.0472  0.0702 -0.0722
  641MOL0     O84538   1.173   2.719   3.587 -0.0684 -0.7386 -0.5752
  641MOL0     C84539   1.110   2.650   3.481  0.1115 -0.2753  1.3639
  641MOL0     C84540   0.959   2.664   3.459 -0.8571 -0.0118  0.6368
  641MOL0     C84541   0.896   2.569   3.567 -0.1984 -0.0027  0.6355
  641MOL0     C84542   0.741   2.561   3.571  0.1564  0.4690  0.5264
  641MOL0     C84543   0.694   2.436   3.627  0.6721  0.6366 -0.2673
  641MOL0     C84544   0.659   2.322   3.663  0.6903  0.6416  0.6536
  641MOL0     C84545   1.397   2.629   3.534  0.1590 -0.0333 -0.8804
  641MOL0     C84546   1.528   2.616   3.566 -0.6785 -0.5637 -0.0802
  641MOL0     H84547   1.994   2.538   3.708  0.5673 -1.0019  0.4586
  641MOL0     H84548   2.225   2.526   3.779  0.8801  0.8996 -3.0488
  641MOL0     H84549   2.304   2.699   4.168 -0.6771  3.4652  0.4022
  641MOL0     H84550   2.436   2.787   4.075  1.0314 -1.3027 -0.5945
  641MOL0     H84551   2.495   2.624   4.238  1.0245 -0.0185 -0.7267
  641MOL0     H84552   2.593   2.632   4.086  0.3053  0.5584 -0.2726
  641MOL0     H84553   2.502   2.422   4.022  3.6289 -0.6948 -0.1325
  641MOL0     H84554   2.378   2.417   4.162  2.2565 -1.8252  0.8215
  641MOL0     H84555   2.686   2.385   4.172  1.1178  2.8690  3.6973
  641MOL0     H84556   2.584   2.422   4.302  3.1948  3.2730 -0.7060
  641MOL0     H84557   2.585   2.178   4.111  1.8183  1.4899  0.4097
  641MOL0     H84558   2.453   2.198   4.233 -1.7835  0.1612 -1.5399
  641MOL0     H84559   2.614   2.040   4.318 -0.3937  0.1582 -1.8756
  641MOL0     H84560   2.644   2.177   4.411  0.0049 -3.2478  0.4056
  641MOL0     H84561   2.784   2.087   4.163 -0.3021  2.1290 -0.6681
  641MOL0     H84562   2.840   2.242   4.246  1.8819 -1.3692 -3.2677
  641MOL0     H84563   2.846   1.951   4.374 -0.0100  1.2752 -0.5142
  641MOL0     H84564   2.874   2.113   4.455 -0.1844  1.7689 -0.8035
  641MOL0     H84565   2.989   1.935   4.129  0.9983 -0.3331 -0.1252
  641MOL0     H84566   3.255   1.997   3.992 -0.5033 -0.7658 -0.1400
  641MOL0     H84567   3.242   1.830   4.058  0.7368 -0.5067  0.7488
  641MOL0     H84568   3.436   2.043   4.158 -2.2920  1.0046 -1.4486
  641MOL0     H84569   3.481   1.959   4.003 -2.5557  2.2725 -1.7275
  641MOL0     H84570   3.586   1.853   4.237 -1.2396  0.3881  2.0419
  641MOL0     H84571   3.416   1.820   4.273 -1.9447 -1.4824 -0.9220
  641MOL0     H84572   3.417   1.675   4.049  1.1935 -4.3840  0.2020
  641MOL0     H84573   3.515   1.620   4.170  0.3591 -3.6188 -3.4196
  641MOL0     H84574   3.485   1.523   3.902 -0.6634 -0.6999 -1.3241
  641MOL0     H84575   3.601   1.354   3.751  1.6063  0.3515  0.1781
  641MOL0     H84576   3.973   0.987   3.777  1.5567  0.2520 -0.0676
  641MOL0     H84577   4.050   0.828   3.636 -1.0262 -0.9091 -1.1755
  641MOL0     H84578   4.151   0.995   3.251 -0.0687 -0.1209 -1.4660
  641MOL0     H84579   4.045   0.883   3.166 -0.3928  0.6920  0.7597
  641MOL0     H84580   4.300   0.820   3.288 -4.1865  2.9574  2.5775
  641MOL0     H84581   4.267   0.829   3.108  1.1750 -1.3803 -0.5191
  641MOL0     H84582   4.088   0.622   3.217  0.4632 -2.7419 -0.2411
  641MOL0     H84583   4.244   0.597   3.291  0.7851 -2.2484 -2.8069
  641MOL0     H84584   4.242   0.651   2.989 -3.7243 -0.0626  1.1667
  641MOL0     H84585   4.373   0.607   3.109 -0.1264 -1.6842  1.4351
  641MOL0     H84586   4.137   0.432   3.011  0.4163  1.9614 -3.3853
  641MOL0     H84587   4.255   0.390   3.147  0.1392 -0.6914 -0.8210
  641MOL0     H84588   4.431   0.426   2.977 -0.7209 -0.1455  0.1438
  641MOL0     H84589   4.311   0.449   2.850  0.1231 -1.7250 -0.7966
  641MOL0     H84590   4.325   0.202   3.015 -1.7747 -1.0244  0.1220
  641MOL0     H84591   4.226   0.256   2.864 -0.3776  1.3988 -0.0087
  641MOL0     H84592   4.540   0.219   2.840  1.1707  4.9469 -1.9850
  641MOL0     H84593   4.419   0.274   2.731 -2.4574  3.2762  2.7458
  641MOL0     H84594   3.910   1.055   3.284 -1.0342 -1.0384 -0.7136
  641MOL0     H84595   3.821   1.211   3.432  0.5306 -0.2427 -0.1835
  641MOL0     H84596   3.975   1.541   3.841  0.7699 -2.6305  1.5122
  641MOL0     H84597   3.842   1.716   3.984  0.4639  0.7116 -1.2499
  641MOL0     H84598   2.154   2.849   4.057 -1.3703  1.7761 -1.2979
  641MOL0     H84599   1.927   2.870   3.976 -0.3884 -1.0024 -1.6723
  641MOL0     H84600   1.538   2.805   3.850  0.7608  1.3670 -1.1796
  641MOL0     H84601   1.325   2.854   3.784  0.5481  0.0370 -0.3282
  641MOL0     H84602   1.134   2.543   3.484 -2.1758 -1.0077 -1.6250
  641MOL0     H84603   1.154   2.702   3.395 -0.0104 -0.3343  1.2663
  641MOL0     H84604   0.921   2.766   3.463  0.4174  0.7696 -2.9977
  641MOL0     H84605   0.927   2.636   3.358 -1.3967 -0.6924  0.9895
  641MOL0     H84606   0.935   2.597   3.665  2.2680  2.0820 -0.8459
  641MOL0     H84607   0.945   2.471   3.566 -0.1950 -0.0204 -1.5966
  641MOL0     H84608   0.696   2.648   3.619  1.0654  1.2635 -0.0229
  641MOL0     H84609   0.713   2.569   3.466 -1.0621  0.8737  0.8617
  641MOL0     H84610   0.615   2.227   3.685  1.9069 -0.4558 -1.2852
  641MOL0     H84611   1.343   2.584   3.451 -2.3768 -0.7545  1.0117
  641MOL0     H84612   1.591   2.549   3.509  1.2213 -0.3577  1.6371
  642MOL0     O84613   2.742   4.452   5.118  0.1767  0.6536 -0.1771
  642MOL0     C84614   2.695   4.565   5.124 -0.1037 -0.0573 -0.1462
  642MOL0     O84615   2.569   4.594   5.166  0.2204 -0.2915  0.2053
  642MOL0     C84616   2.500   4.490   5.210  0.6338 -0.6074  0.3815
  642MOL0     C84617   2.498   4.460   5.341  0.5071 -0.5226 -0.4951
  642MOL0     C84618   2.432   4.348   5.388  1.1293 -0.3604  0.7805
  642MOL0     C84619   2.348   4.273   5.305  0.3672 -0.6682  0.4849
  642MOL0     O84620   2.269   4.185   5.369 -0.4501  0.0941 -0.3461
  642MOL0     C84621   2.207   4.081   5.290  0.3734 -0.2206 -0.7549
  642MOL0     C84622   2.170   3.969   5.395  0.5360  0.0128 -0.3047
  642MOL0     C84623   2.159   3.828   5.328 -0.6057 -0.2477  0.0250
  642MOL0     C84624   2.149   3.716   5.443  0.0176 -0.9204 -0.4520
  642MOL0     C84625   2.133   3.572   5.389  0.1460  0.7063 -0.5260
  642MOL0     C84626   2.138   3.467   5.504  0.8817 -0.0024  0.5481
  642MOL0     C84627   2.002   3.470   5.574 -0.3863  0.4917  1.1091
  642MOL0     C84628   2.018   3.377   5.690 -0.1708  0.6676 -0.0599
  642MOL0     N84629   1.888   3.326   5.738  0.5376 -0.7651 -0.3491
  642MOL0     C84630   1.795   3.270   5.660  0.0834  0.4439 -0.7426
  642MOL0     C84631   1.695   3.227   5.737 -0.2040 -1.3608 -0.3036
  642MOL0     C84632   1.564   3.167   5.706 -0.0688  0.3409  0.0828
  642MOL0     C84633   1.459   3.188   5.813 -0.8198  1.4158 -0.1094
  642MOL0     C84634   1.321   3.191   5.767 -0.3299 -0.3986  0.7307
  642MOL0     C84635   1.219   3.199   5.887  0.3811 -0.7247 -0.1584
  642MOL0     O84636   1.108   3.108   5.872 -0.9066  0.1268 -1.0818
  642MOL0     C84637   1.017   3.144   5.781  0.4140 -0.0045  0.1903
  642MOL0     C84638   0.966   3.043   5.703 -0.7717 -0.7550 -0.7936
  642MOL0     C84639   0.876   3.068   5.606  0.2265  0.6665 -0.4029
  642MOL0     C84640   0.837   3.199   5.581 -0.3783 -0.5847  0.0743
  642MOL0     C84641   0.734   3.227   5.484 -0.0871 -0.5331  0.6794
  642MOL0     O84642   0.718   3.358   5.437  1.1884 -0.0971  0.7209
  642MOL0     C84643   0.638   3.375   5.324  0.9661  0.3663 -0.2547
  642MOL0     C84644   0.694   3.401   5.199 -0.1392  0.1757 -0.1067
  642MOL0     C84645   0.621   3.444   5.088 -0.5645 -0.1368  0.4232
  642MOL0     C84646   0.483   3.443   5.102 -0.3338 -0.2195 -1.5296
  642MOL0     O84647   0.406   3.478   4.992  0.5784  0.0151 -0.1562
  642MOL0     C84648   0.447   3.582   4.902  0.7808  0.4772 -0.2064
  642MOL0     C84649   0.456   3.714   4.952 -0.6028 -0.6968 -0.9676
  642MOL0     C84650   0.324   3.767   5.017 -0.6877  0.0419  0.0286
  642MOL0     C84651   0.344   3.905   5.073  0.2215  0.2352 -0.9386
  642MOL0     C84652   0.224   3.977   5.134 -0.6449 -0.3003 -1.0808
  642MOL0     C84653   0.251   4.123   5.176 -0.2120  0.6330  0.3517
  642MOL0     C84654   0.359   4.139   5.277  0.0349  0.7072 -0.1781
  642MOL0     C84655   0.343   4.270   5.356  0.3583  0.1925  0.0597
  642MOL0    Cl84656   0.486   4.330   5.441  0.3856 -0.4507  0.1014
  642MOL0     C84657   0.419   3.406   5.218 -0.1123 -1.1349 -0.4989
  642MOL0     C84658   0.498   3.388   5.333  0.4078  0.1223  0.0830
  642MOL0     O84659   0.656   3.135   5.466  0.4521 -0.5786 -0.4546
  642MOL0     C84660   0.893   3.307   5.657  0.0799  0.6686  0.1840
  642MOL0     C84661   0.973   3.286   5.758 -0.0505  0.4541  0.3726
  642MOL0     N84662   1.731   3.261   5.868 -0.5937  0.4913 -0.0943
  642MOL0     N84663   1.846   3.320   5.866 -0.0833 -0.2981  0.2704
  642MOL0     C84664   2.340   4.302   5.170  0.1369 -0.1736  0.0724
  642MOL0     C84665   2.420   4.412   5.128  0.2109 -0.2506 -0.3875
  642MOL0     C84666   2.790   4.674   5.106  0.3107 -0.6269  0.1074
  642MOL0     C84667   2.932   4.656   5.106  0.5249  0.3517 -0.1901
  642MOL0     C84668   3.025   4.755   5.096  0.8948 -0.2195  1.0055
  642MOL0     C84669   2.990   4.893   5.078 -0.1429 -0.8150  0.1755
  642MOL0     O84670   3.092   4.979   5.048  0.2404  0.1167 -0.7402
  642MOL0     C84671   3.051   5.119   5.036  0.5209  0.2686  0.7819
  642MOL0     C84672   3.177   5.200   4.978  0.4116  0.6023 -0.0506
  642MOL0     C84673   3.217   5.165   4.834 -0.4280 -0.2387 -0.0495
  642MOL0     C84674   3.141   5.254   4.737  0.0116 -0.5827 -0.4944
  642MOL0     C84675   3.201   5.249   4.600  0.9008  0.5603 -0.1583
  642MOL0     C84676   3.283   5.242   4.510  0.9484 -0.1418  0.3658
  642MOL0     C84677   2.853   4.919   5.084  0.1733  0.2415  0.8418
  642MOL0     C84678   2.754   4.815   5.101 -0.1323  0.3251 -0.3691
  642MOL0     H84679   2.548   4.530   5.408 -0.8687 -0.1601  0.1823
  642MOL0     H84680   2.432   4.323   5.494  0.9754  0.3670  0.9589
  642MOL0     H84681   2.277   4.051   5.212 -0.4822 -0.8999 -1.2752
  642MOL0     H84682   2.115   4.108   5.238  0.8991  2.8007 -0.2822
  642MOL0     H84683   2.078   4.008   5.438  0.3890 -1.7396  1.0477
  642MOL0     H84684   2.238   3.972   5.480  0.2875 -0.1160 -0.1005
  642MOL0     H84685   2.237   3.809   5.253 -1.7772 -1.0487 -1.0206
  642MOL0     H84686   2.062   3.827   5.278 -1.6554  0.3158  1.9808
  642MOL0     H84687   2.238   3.721   5.505  1.7243  0.9584 -2.8372
  642MOL0     H84688   2.060   3.744   5.500  0.1517  1.3515 -1.2648
  642MOL0     H84689   2.218   3.557   5.323  1.7529 -0.4509  1.6770
  642MOL0     H84690   2.039   3.578   5.332 -0.2232  1.3609  0.1266
  642MOL0     H84691   2.221   3.488   5.572  2.0399 -0.0258 -0.8123
  642MOL0     H84692   2.164   3.375   5.451  0.8586  1.4060 -2.0455
  642MOL0     H84693   1.971   3.568   5.612  2.9621  1.1870  2.3682
  642MOL0     H84694   1.936   3.424   5.499  0.0864  0.7844  0.5077
  642MOL0     H84695   2.066   3.432   5.772  1.3793  1.9117 -1.7236
  642MOL0     H84696   2.086   3.294   5.669  1.5966  1.8167  0.8429
  642MOL0     H84697   1.793   3.272   5.551  1.6099  3.8213 -0.8656
  642MOL0     H84698   1.581   3.061   5.686  3.1771  1.0766 -1.8382
  642MOL0     H84699   1.532   3.197   5.606  1.7931 -0.3271 -0.7578
  642MOL0     H84700   1.474   3.279   5.871 -1.0400  0.7841  0.9638
  642MOL0     H84701   1.473   3.107   5.886 -1.0754  0.0244 -1.5418
  642MOL0     H84702   1.311   3.275   5.697 -3.7229  0.3903  1.9895
  642MOL0     H84703   1.308   3.096   5.714 -3.3124  1.0982 -1.5761
  642MOL0     H84704   1.181   3.300   5.906 -2.3235 -1.3044 -1.9627
  642MOL0     H84705   1.270   3.167   5.978  1.3770 -0.0354 -0.4537
  642MOL0     H84706   1.008   2.948   5.735  1.3438 -1.5642 -5.1607
  642MOL0     H84707   0.828   2.989   5.549  1.8206  0.5963 -1.7285
  642MOL0     H84708   0.802   3.396   5.184 -0.2157  2.3393 -1.8884
  642MOL0     H84709   0.674   3.469   4.997  1.4659 -1.0737  1.2882
  642MOL0     H84710   0.367   3.591   4.828  1.6013  1.1175 -1.0555
  642MOL0     H84711   0.544   3.555   4.860  1.9113  2.6636  0.8336
  642MOL0     H84712   0.494   3.774   4.869  0.6597  0.1177  0.1411
  642MOL0     H84713   0.531   3.696   5.030  0.3129  1.0220 -1.3995
  642MOL0     H84714   0.296   3.697   5.095 -3.1245  3.0872  2.1432
  642MOL0     H84715   0.242   3.762   4.946 -1.8763 -2.2163  1.4473
  642MOL0     H84716   0.420   3.896   5.151  0.8392  3.1911 -1.0775
  642MOL0     H84717   0.389   3.969   4.997  1.5174 -0.7622 -1.0298
  642MOL0     H84718   0.187   3.922   5.222  0.5872 -1.3800 -1.2124
  642MOL0     H84719   0.144   3.994   5.062  0.3324  1.5343 -1.7974
  642MOL0     H84720   0.162   4.169   5.220 -1.0426 -3.2076  3.1809
  642MOL0     H84721   0.288   4.171   5.084  2.5107 -0.7519  0.6392
  642MOL0     H84722   0.350   4.060   5.351 -2.2012  1.3930  0.3413
  642MOL0     H84723   0.459   4.134   5.232 -1.0235  0.5501 -2.6342
  642MOL0     H84724   0.262   4.257   5.429 -2.0678  0.7519 -2.3604
  642MOL0     H84725   0.309   4.354   5.294  4.4196  0.1403 -2.6266
  642MOL0     H84726   0.310   3.404   5.224 -0.1526  0.3244 -0.1996
  642MOL0     H84727   0.462   3.375   5.435 -0.7090  3.2397  0.2143
  642MOL0     H84728   0.872   3.412   5.641  0.5345  0.7698  0.2265
  642MOL0     H84729   1.003   3.375   5.812 -3.1548  1.8475  0.0000
  642MOL0     H84730   2.262   4.245   5.120 -0.3271 -3.4931  4.0470
  642MOL0     H84731   2.420   4.436   5.023  0.1641  2.8679  0.2472
  642MOL0     H84732   2.964   4.553   5.110 -3.0034 -0.8430  0.6615
  642MOL0     H84733   3.125   4.716   5.080 -0.0849 -2.2644 -0.4934
  642MOL0     H84734   3.030   5.157   5.136  0.3401 -1.4745  1.4503
  642MOL0     H84735   2.968   5.126   4.966  0.2272 -1.6767  0.8780
  642MOL0     H84736   3.146   5.305   4.978 -1.5813  0.1838 -3.6997
  642MOL0     H84737   3.261   5.178   5.045 -1.8470 -1.1402  2.4007
  642MOL0     H84738   3.201   5.059   4.813 -0.0240 -0.7319  1.9433
  642MOL0     H84739   3.325   5.183   4.825 -0.4588 -0.4706 -1.0110
  642MOL0     H84740   3.033   5.247   4.748 -0.0395 -2.5459 -1.6624
  642MOL0     H84741   3.172   5.357   4.757  1.6085 -0.7783 -1.7464
  642MOL0     H84742   3.352   5.237   4.428  0.0837  2.8212 -0.6668
  642MOL0     H84743   2.808   5.017   5.075 -1.1708 -0.4891 -1.3494
  642MOL0     H84744   2.647   4.833   5.105 -0.9157 -3.4793  0.0198
  643MOL0     O84745   9.207   4.493   3.647  0.2548  0.2160 -0.2655
  643MOL0     C84746   9.156   4.426   3.737  0.5161 -0.1301 -1.0500
  643MOL0     O84747   9.021   4.424   3.764 -0.5839  0.1843  1.6310
  643MOL0     C84748   8.948   4.479   3.660 -0.4233 -0.0350 -0.0622
  643MOL0     C84749   8.877   4.600   3.657  0.1152 -0.7226  0.0658
  643MOL0     C84750   8.787   4.630   3.549 -0.0343  0.4395  0.3890
  643MOL0     C84751   8.782   4.544   3.427 -0.4906  0.1829 -1.3062
  643MOL0     O84752   8.707   4.577   3.322 -0.9182 -0.4562  0.2959
  643MOL0     C84753   8.711   4.496   3.203 -0.0833  0.9003 -0.7705
  643MOL0     C84754   8.639   4.561   3.086 -0.5017 -0.3850 -0.2571
  643MOL0     C84755   8.497   4.602   3.117 -0.4131 -0.0267  0.7589
  643MOL0     C84756   8.421   4.676   3.011 -1.1629 -0.0239 -0.0990
  643MOL0     C84757   8.381   4.609   2.880  0.7846 -0.9525  1.0959
  643MOL0     C84758   8.307   4.723   2.796 -0.1299 -0.2131 -0.4605
  643MOL0     C84759   8.276   4.666   2.659  0.5739 -0.5209  0.2379
  643MOL0     C84760   8.187   4.543   2.657 -0.5930  0.2303 -0.5114
  643MOL0     N84761   8.131   4.498   2.530  0.4974 -0.6306  0.4136
  643MOL0     C84762   8.131   4.562   2.403  0.0555 -0.3886 -0.3639
  643MOL0     C84763   8.091   4.467   2.319 -0.3663 -0.8869  0.1326
  643MOL0     C84764   8.072   4.477   2.164 -0.3578 -0.9872 -0.0219
  643MOL0     C84765   8.200   4.408   2.102 -0.3427  0.8784  0.1865
  643MOL0     C84766   8.208   4.410   1.958  0.1759  0.5428  0.8994
  643MOL0     C84767   8.079   4.365   1.877 -0.1875 -0.1360  0.2696
  643MOL0     O84768   7.989   4.471   1.874  0.4382 -0.1926 -0.4695
  643MOL0     C84769   7.864   4.442   1.808 -0.7059 -1.0145  0.5183
  643MOL0     C84770   7.790   4.560   1.771  0.1002  1.0008  0.2425
  643MOL0     C84771   7.650   4.543   1.737  0.5308 -0.3873  0.3369
  643MOL0     C84772   7.586   4.415   1.722 -0.7674  0.5977  0.6880
  643MOL0     C84773   7.439   4.395   1.683  0.9489 -0.3048 -0.2466
  643MOL0     O84774   7.391   4.268   1.684 -0.2398 -0.3709 -0.2642
  643MOL0     C84775   7.255   4.249   1.667 -0.2608 -0.4895 -0.3561
  643MOL0     C84776   7.182   4.182   1.761 -0.1453 -0.0250 -0.1003
  643MOL0     C84777   7.048   4.164   1.756 -0.3888  0.2874 -0.2027
  643MOL0     C84778   6.986   4.175   1.635  0.0634  0.6331  0.2750
  643MOL0     O84779   6.855   4.129   1.635 -0.5819  0.1482 -0.4332
  643MOL0     C84780   6.799   4.098   1.504 -0.2584  0.6202 -0.3210
  643MOL0     C84781   6.727   4.218   1.441  0.2675  0.7005 -0.0461
  643MOL0     C84782   6.596   4.253   1.525  0.3545  0.4981  0.3813
  643MOL0     C84783   6.519   4.377   1.463 -0.4685 -0.6762 -0.2574
  643MOL0     C84784   6.377   4.361   1.418  0.4247  1.0282  0.0993
  643MOL0     C84785   6.322   4.474   1.327  0.0594 -0.5860 -0.8010
  643MOL0     C84786   6.164   4.471   1.345  0.0455 -1.0003 -0.2159
  643MOL0     C84787   6.105   4.583   1.256  1.0324 -0.0936 -0.6205
  643MOL0    Cl84788   6.170   4.743   1.300 -0.3562  0.2029 -0.2712
  643MOL0     C84789   7.050   4.248   1.534  0.0495 -0.0253 -0.6027
  643MOL0     C84790   7.185   4.289   1.551 -0.0434 -0.2087 -0.0868
  643MOL0     O84791   7.374   4.495   1.662 -1.0399  1.0770  0.1339
  643MOL0     C84792   7.666   4.303   1.752  0.4664  0.5302 -0.8211
  643MOL0     C84793   7.803   4.311   1.789 -0.3673 -0.0947  0.0881
  643MOL0     N84794   8.065   4.349   2.383 -0.2084  0.8105  1.1211
  643MOL0     N84795   8.090   4.365   2.516  0.0294  0.1033 -0.1721
  643MOL0     C84796   8.869   4.433   3.428 -0.7917 -0.2054 -0.6254
  643MOL0     C84797   8.949   4.403   3.541  0.8163  0.2648 -0.5053
  643MOL0     C84798   9.253   4.363   3.836 -0.4507  0.3553  0.6557
  643MOL0     C84799   9.390   4.406   3.843  1.2542  0.2979  0.0007
  643MOL0     C84800   9.485   4.333   3.905 -0.1321  0.1837  0.7387
  643MOL0     C84801   9.453   4.213   3.971 -0.1442 -0.0989 -0.0160
  643MOL0     O84802   9.564   4.146   4.031  0.3201 -0.2591  0.2558
  643MOL0     C84803   9.549   4.005   4.065 -0.2812 -0.9099  0.4776
  643MOL0     C84804   9.546   4.001   4.219 -0.1787  0.3622  0.5000
  643MOL0     C84805   9.484   3.870   4.262  0.2050  0.3800  0.2883
  643MOL0     C84806   9.483   3.855   4.408 -0.6556  0.6858  0.1194
  643MOL0     C84807   9.618   3.839   4.468  0.1303  0.6208  0.6650
  643MOL0     C84808   9.726   3.834   4.522  0.8122 -0.8659 -0.3280
  643MOL0     C84809   9.320   4.175   3.971  0.2222 -0.5862  0.4138
  643MOL0     C84810   9.223   4.243   3.907  0.1751  0.1689  0.3218
  643MOL0     H84811   8.903   4.668   3.738 -0.7866 -0.8959  0.5158
  643MOL0     H84812   8.724   4.718   3.539 -1.0522 -0.1175  1.6470
  643MOL0     H84813   8.678   4.394   3.227 -1.2405  1.7391  1.4585
  643MOL0     H84814   8.812   4.482   3.164 -0.2097 -0.2257 -0.7497
  643MOL0     H84815   8.632   4.497   2.998 -2.3909  2.5868 -2.4658
  643MOL0     H84816   8.693   4.646   3.045 -1.6178 -0.3049 -1.6694
  643MOL0     H84817   8.492   4.665   3.206  1.0774  1.8894 -0.4271
  643MOL0     H84818   8.438   4.512   3.137  0.0248 -0.9212 -1.6267
  643MOL0     H84819   8.335   4.724   3.059 -0.8110  1.1629 -0.6238
  643MOL0     H84820   8.489   4.760   2.994  0.0599 -0.5216  1.9814
  643MOL0     H84821   8.325   4.516   2.896 -0.3799 -0.9508 -2.2634
  643MOL0     H84822   8.464   4.569   2.821 -1.5597 -4.2391 -0.3256
  643MOL0     H84823   8.368   4.813   2.803  0.5094 -0.6087 -0.7914
  643MOL0     H84824   8.212   4.748   2.843 -0.1453  1.7996 -1.4921
  643MOL0     H84825   8.241   4.744   2.591  2.3923 -1.3621 -1.7668
  643MOL0     H84826   8.373   4.633   2.622  0.6209 -1.7068  1.3269
  643MOL0     H84827   8.101   4.554   2.723 -1.3832  1.8877 -1.7489
  643MOL0     H84828   8.261   4.466   2.681 -0.2734  0.9492  0.9031
  643MOL0     H84829   8.167   4.660   2.374 -0.4045 -0.3314 -0.7449
  643MOL0     H84830   8.080   4.582   2.134  3.3862 -1.0760  0.2041
  643MOL0     H84831   7.978   4.430   2.135  0.0077 -1.0647 -1.1192
  643MOL0     H84832   8.211   4.305   2.138  2.0632  1.1552  0.4369
  643MOL0     H84833   8.289   4.463   2.135 -0.1789  0.4177  0.5258
  643MOL0     H84834   8.237   4.509   1.923  1.6273 -0.2120 -0.1298
  643MOL0     H84835   8.289   4.343   1.929  0.4849  1.2266  0.1459
  643MOL0     H84836   8.028   4.276   1.914  2.4173 -2.6406 -1.7030
  643MOL0     H84837   8.115   4.350   1.775  2.3029 -0.0129  1.0529
  643MOL0     H84838   7.849   4.651   1.778 -0.1565  1.1041  1.2758
  643MOL0     H84839   7.591   4.632   1.715 -1.3404 -1.2290  1.6797
  643MOL0     H84840   7.234   4.132   1.842 -1.0164  0.1323  0.5717
  643MOL0     H84841   6.988   4.116   1.833 -2.2790 -0.2111 -1.8967
  643MOL0     H84842   6.721   4.022   1.508  0.2153  0.1275 -0.3728
  643MOL0     H84843   6.880   4.071   1.435 -0.7721  4.0672 -2.5302
  643MOL0     H84844   6.698   4.204   1.336 -2.7847  1.4072  0.6192
  643MOL0     H84845   6.796   4.302   1.436  0.8188  0.3084  0.8237
  643MOL0     H84846   6.630   4.274   1.627  0.9060 -0.9691  0.5364
  643MOL0     H84847   6.529   4.167   1.535  1.2661 -0.2594  0.2165
  643MOL0     H84848   6.528   4.445   1.548  1.0913 -1.9712  0.6731
  643MOL0     H84849   6.578   4.418   1.380  2.3394 -3.3945  0.1959
  643MOL0     H84850   6.307   4.338   1.500 -0.5452 -1.0728 -1.2269
  643MOL0     H84851   6.372   4.268   1.361 -1.2052  2.4336 -2.2674
  643MOL0     H84852   6.350   4.469   1.222 -1.7749  1.2819 -1.4472
  643MOL0     H84853   6.357   4.570   1.366 -0.4289 -0.5074 -0.5491
  643MOL0     H84854   6.117   4.376   1.318 -1.2286 -0.2209 -0.7968
  643MOL0     H84855   6.135   4.500   1.447 -0.0379  0.6067 -0.6778
  643MOL0     H84856   5.996   4.578   1.268  1.1693 -0.2735  0.6648
  643MOL0     H84857   6.130   4.561   1.152 -0.1915  3.7118 -1.8810
  643MOL0     H84858   7.018   4.262   1.432  1.8507 -1.2849 -1.3859
  643MOL0     H84859   7.252   4.334   1.478 -1.3676  2.0677  0.0104
  643MOL0     H84860   7.633   4.200   1.739  2.4348 -0.4481  1.2865
  643MOL0     H84861   7.860   4.221   1.808 -1.4126 -0.6066  0.9231
  643MOL0     H84862   8.891   4.367   3.345  0.3463  1.0610 -1.3877
  643MOL0     H84863   9.011   4.314   3.540 -0.0673 -0.3625 -1.4604
  643MOL0     H84864   9.402   4.504   3.798 -0.6663 -0.4089 -2.2762
  643MOL0     H84865   9.583   4.379   3.913 -0.1404  0.1654  0.9413
  643MOL0     H84866   9.634   3.949   4.025  0.3309 -0.4370  1.1000
  643MOL0     H84867   9.457   3.962   4.024 -0.1970 -0.5610 -0.0826
  643MOL0     H84868   9.646   4.005   4.262  0.0571  1.1592 -0.0851
  643MOL0     H84869   9.494   4.088   4.261  3.0882  2.2063  1.0357
  643MOL0     H84870   9.527   3.776   4.226 -0.1364  0.2600  0.1894
  643MOL0     H84871   9.378   3.878   4.235  0.0907  3.6864  1.2788
  643MOL0     H84872   9.445   3.951   4.445 -1.1089  1.0100 -1.1490
  643MOL0     H84873   9.409   3.783   4.446  0.7139 -0.9857 -0.2394
  643MOL0     H84874   9.823   3.830   4.569  0.7564 -1.4620 -0.2612
  643MOL0     H84875   9.292   4.087   4.027 -0.5655 -1.8153 -1.8157
  643MOL0     H84876   9.118   4.219   3.914 -0.3458  1.9882 -0.7012
  644MOL0     O84877   4.259   7.687   3.905  0.0419  0.1741  0.2760
  644MOL0     C84878   4.142   7.665   3.940  1.1360  0.3038  0.2362
  644MOL0     O84879   4.067   7.750   4.018  0.1677 -0.3803  0.3979
  644MOL0     C84880   4.110   7.879   4.049  0.6140  0.8620  0.3644
  644MOL0     C84881   4.187   7.959   3.962 -1.0069  0.3085 -1.0190
  644MOL0     C84882   4.217   8.087   4.000  0.4727 -1.4554 -0.1572
  644MOL0     C84883   4.193   8.139   4.128  0.2407 -0.4995  0.4130
  644MOL0     O84884   4.207   8.275   4.152  0.4013  0.0336 -0.1928
  644MOL0     C84885   4.329   8.326   4.134  0.2713  0.7560  0.1531
  644MOL0     C84886   4.413   8.315   4.264 -0.0194  0.4791 -0.8517
  644MOL0     C84887   4.561   8.258   4.247 -1.5252  0.8296 -0.6561
  644MOL0     C84888   4.569   8.111   4.200  0.6244 -0.8803 -1.0746
  644MOL0     C84889   4.616   8.002   4.300  1.1350 -0.4189 -0.1408
  644MOL0     C84890   4.530   7.982   4.417 -0.7686  0.8414  0.3181
  644MOL0     C84891   4.429   7.879   4.402 -0.1427  1.1746  0.1382
  644MOL0     C84892   4.367   7.846   4.524 -0.2825  0.2873  0.8374
  644MOL0     N84893   4.245   7.768   4.509  0.1517 -0.6048 -0.2132
  644MOL0     C84894   4.237   7.632   4.479  0.1816  1.3424 -0.7978
  644MOL0     C84895   4.109   7.605   4.459  0.0105  0.0246  0.3983
  644MOL0     C84896   4.059   7.471   4.425 -0.9999  0.1114  0.1089
  644MOL0     C84897   3.962   7.472   4.307  1.1405 -0.7193 -0.0147
  644MOL0     C84898   3.944   7.330   4.260  0.0932 -0.8210 -1.1358
  644MOL0     C84899   3.883   7.230   4.372  0.2641  0.4628 -0.6717
  644MOL0     O84900   3.797   7.134   4.315 -0.2399 -0.0478 -0.9990
  644MOL0     C84901   3.740   7.054   4.411 -0.1138 -0.4593  0.0118
  644MOL0     C84902   3.722   7.080   4.551 -0.1514 -0.1092  0.3934
  644MOL0     C84903   3.641   6.995   4.629 -1.0534  0.0850  0.4830
  644MOL0     C84904   3.587   6.877   4.584 -0.7276 -0.9967  0.1547
  644MOL0     C84905   3.505   6.790   4.674  0.9026  0.1075 -0.4453
  644MOL0     O84906   3.472   6.831   4.799  0.5432  0.1655  0.4915
  644MOL0     C84907   3.402   6.762   4.885 -1.0328 -0.1612  0.1697
  644MOL0     C84908   3.309   6.831   4.956  0.3472  0.9767  0.2833
  644MOL0     C84909   3.219   6.756   5.047 -0.6655 -0.6772  0.6044
  644MOL0     C84910   3.238   6.621   5.071  0.2823  0.1683 -0.6303
  644MOL0     O84911   3.168   6.546   5.158  0.2449 -0.1287 -0.3852
  644MOL0     C84912   3.080   6.609   5.258 -0.4145  0.6277 -1.4018
  644MOL0     C84913   3.025   6.496   5.351 -0.4252  0.1051 -0.1851
  644MOL0     C84914   2.935   6.539   5.465 -0.5151  0.0375 -0.1165
  644MOL0     C84915   2.877   6.409   5.531 -0.1400  0.6722 -0.2152
  644MOL0     C84916   2.756   6.428   5.625  0.0160 -1.1098  1.5420
  644MOL0     C84917   2.623   6.413   5.555 -0.9743  0.3496 -0.1378
  644MOL0     C84918   2.509   6.437   5.657 -0.8546  0.2396  0.8305
  644MOL0     C84919   2.375   6.375   5.628  0.3699  0.2514  0.9982
  644MOL0    Cl84920   2.386   6.207   5.686 -0.1302 -0.3866  0.0761
  644MOL0     C84921   3.336   6.556   4.987 -0.0062 -0.7717  0.3028
  644MOL0     C84922   3.413   6.622   4.897 -0.8914 -0.3072  0.4013
  644MOL0     O84923   3.473   6.681   4.625 -0.1509 -0.4844 -0.2697
  644MOL0     C84924   3.608   6.856   4.447  0.2493 -0.2891  0.8876
  644MOL0     C84925   3.682   6.937   4.362 -0.4005 -0.6502 -0.1297
  644MOL0     N84926   4.036   7.717   4.486 -0.6423 -0.2047  0.0624
  644MOL0     N84927   4.118   7.819   4.506 -0.6677 -0.2634 -0.4398
  644MOL0     C84928   4.122   8.053   4.214  0.8942 -0.1197  0.1387
  644MOL0     C84929   4.081   7.924   4.174  0.0240  0.4529  0.4064
  644MOL0     C84930   4.074   7.542   3.889  0.1709  0.0005 -0.4771
  644MOL0     C84931   3.942   7.515   3.931 -0.1515  0.4031  0.4878
  644MOL0     C84932   3.881   7.390   3.914  0.0017  0.9649 -0.3660
  644MOL0     C84933   3.944   7.289   3.828 -0.6760 -0.8142 -0.6114
  644MOL0     O84934   3.885   7.174   3.782  0.0147 -0.1843 -0.3507
  644MOL0     C84935   3.752   7.134   3.832  0.2642  0.3790 -0.1970
  644MOL0     C84936   3.699   7.033   3.732 -0.2120 -0.0111  0.3177
  644MOL0     C84937   3.593   6.959   3.806 -0.2601 -0.1405  0.8077
  644MOL0     C84938   3.548   6.844   3.717  0.5094 -0.1661  0.3760
  644MOL0     C84939   3.653   6.754   3.661 -0.4845  0.2099  0.1849
  644MOL0     C84940   3.745   6.682   3.607  0.7706 -0.3801  0.1532
  644MOL0     C84941   4.077   7.320   3.793  0.3421 -0.9227  0.2351
  644MOL0     C84942   4.142   7.443   3.823 -0.2872  0.3522  0.3820
  644MOL0     H84943   4.208   7.925   3.861  0.7393 -0.1980 -0.5278
  644MOL0     H84944   4.260   8.149   3.922 -0.7381  0.4591  0.6381
  644MOL0     H84945   4.327   8.433   4.110  0.1670  0.8547  0.5917
  644MOL0     H84946   4.383   8.274   4.054 -0.3887  1.9371 -1.0886
  644MOL0     H84947   4.361   8.248   4.333 -2.3669  1.4275 -1.6030
  644MOL0     H84948   4.410   8.417   4.302  3.5593  1.0914 -1.8554
  644MOL0     H84949   4.614   8.250   4.342 -2.7679  2.4417  0.2289
  644MOL0     H84950   4.619   8.327   4.184 -2.0362  1.1978 -0.7340
  644MOL0     H84951   4.471   8.089   4.158  0.1215  0.7070 -0.8027
  644MOL0     H84952   4.656   8.107   4.133  3.1658  1.8419  1.7325
  644MOL0     H84953   4.715   8.029   4.339  1.1341 -0.3343 -0.1969
  644MOL0     H84954   4.623   7.908   4.244  0.2316 -1.7889  1.9455
  644MOL0     H84955   4.481   8.076   4.444  0.2074  1.3041  0.4998
  644MOL0     H84956   4.595   7.942   4.496 -0.0441 -3.9107 -2.3046
  644MOL0     H84957   4.351   7.922   4.338  0.2008  0.9987 -0.4140
  644MOL0     H84958   4.461   7.787   4.352  3.0562  3.2202 -1.9631
  644MOL0     H84959   4.327   7.942   4.558 -2.6755  0.4577 -2.0741
  644MOL0     H84960   4.438   7.795   4.590  0.6614  0.4860  0.0043
  644MOL0     H84961   4.319   7.562   4.471  0.4710  1.7243 -1.2443
  644MOL0     H84962   4.002   7.424   4.506 -2.0528 -0.0770 -0.7199
  644MOL0     H84963   4.151   7.415   4.407  0.3928  2.9384 -2.5193
  644MOL0     H84964   3.990   7.533   4.220 -2.6364  0.1922 -0.7768
  644MOL0     H84965   3.866   7.516   4.335  1.1744 -1.6956  1.7409
  644MOL0     H84966   3.873   7.326   4.177 -1.2717 -1.0961  0.0087
  644MOL0     H84967   4.042   7.298   4.224  0.8514  0.6245 -0.4170
  644MOL0     H84968   3.820   7.298   4.429  0.6015  1.0048 -0.9433
  644MOL0     H84969   3.962   7.180   4.431 -1.9749 -1.3234  1.0121
  644MOL0     H84970   3.746   7.179   4.589 -1.5042 -0.2819  1.7985
  644MOL0     H84971   3.621   7.030   4.729 -1.0249 -0.5058  0.6982
  644MOL0     H84972   3.306   6.939   4.947  2.8127  0.9411 -2.4566
  644MOL0     H84973   3.142   6.806   5.105 -1.3913 -0.0009 -0.8929
  644MOL0     H84974   2.995   6.648   5.202  0.9686  2.2578 -2.4755
  644MOL0     H84975   3.128   6.685   5.320  0.1301 -0.9016  0.1281
  644MOL0     H84976   3.107   6.433   5.389 -2.4270 -0.8793  2.9471
  644MOL0     H84977   2.970   6.428   5.286 -0.3804  0.3329 -0.4615
  644MOL0     H84978   2.855   6.601   5.425  0.2310  0.6495 -0.7079
  644MOL0     H84979   2.996   6.592   5.539  0.9857 -0.6603 -0.7916
  644MOL0     H84980   2.852   6.332   5.457 -1.7096  0.8130  0.1335
  644MOL0     H84981   2.953   6.360   5.593 -2.1982  0.3838  2.2956
  644MOL0     H84982   2.758   6.533   5.656 -3.5463  0.6727 -3.0678
  644MOL0     H84983   2.768   6.375   5.720 -0.1481 -0.3542  1.9943
  644MOL0     H84984   2.632   6.308   5.524 -0.9028 -0.4311  2.3079
  644MOL0     H84985   2.604   6.473   5.466 -2.7681 -1.7416 -1.2711
  644MOL0     H84986   2.528   6.389   5.754 -1.0262 -0.5495  0.4859
  644MOL0     H84987   2.504   6.545   5.671  1.2717  0.3853  0.9082
  644MOL0     H84988   2.362   6.368   5.520  1.1380  0.0753  0.9132
  644MOL0     H84989   2.297   6.439   5.671  0.8052  3.9084 -2.9608
  644MOL0     H84990   3.332   6.447   4.979 -2.8764 -0.6586 -1.8331
  644MOL0     H84991   3.481   6.562   4.837  2.4438  0.6082  2.9561
  644MOL0     H84992   3.561   6.770   4.400 -2.0832 -0.0471  2.6134
  644MOL0     H84993   3.689   6.914   4.256  1.8717 -0.0772 -0.1559
  644MOL0     H84994   4.105   8.095   4.312  0.8553 -0.0963  0.1218
  644MOL0     H84995   4.038   7.859   4.250  0.2179  1.4891  1.4285
  644MOL0     H84996   3.886   7.585   3.993 -2.1514 -1.1955  0.5849
  644MOL0     H84997   3.778   7.397   3.948  0.5067 -1.0371  1.7688
  644MOL0     H84998   3.673   7.209   3.842 -1.7360 -1.4837 -0.9678
  644MOL0     H84999   3.762   7.086   3.930 -0.2690 -0.1777 -0.4054
  644MOL0     H85000   3.662   7.086   3.643 -3.5610  0.6961  1.9526
  644MOL0     H85001   3.783   6.970   3.701 -0.3182  0.8983 -2.0338
  644MOL0     H85002   3.515   7.030   3.836  1.0115  1.4606  0.4745
  644MOL0     H85003   3.631   6.908   3.895 -1.6835 -0.4438  1.2734
  644MOL0     H85004   3.484   6.774   3.771 -1.9706 -1.1308 -3.4311
  644MOL0     H85005   3.487   6.893   3.641  0.3230 -2.0979 -0.7749
  644MOL0     H85006   3.828   6.628   3.565  0.4878 -3.1692  2.8149
  644MOL0     H85007   4.132   7.248   3.733  0.6805 -1.2956  0.9806
  644MOL0     H85008   4.246   7.445   3.792 -0.5971  1.1121 -0.6590
  645MOL0     O85009   1.579   2.735   9.131 -0.3446  0.3197 -0.8345
  645MOL0     C85010   1.670   2.700   9.213  1.1900 -1.1063  0.1019
  645MOL0     O85011   1.772   2.614   9.197  0.0392 -0.2242  0.3110
  645MOL0     C85012   1.773   2.519   9.090 -0.3690  0.2351 -0.1871
  645MOL0     C85013   1.883   2.492   9.010 -0.0624  0.0864  0.7986
  645MOL0     C85014   1.894   2.388   8.920 -0.3633 -0.2594 -0.3562
  645MOL0     C85015   1.789   2.310   8.898  0.4154  0.5580  0.5450
  645MOL0     O85016   1.778   2.202   8.810  0.1154  0.0090 -0.0732
  645MOL0     C85017   1.906   2.136   8.794  0.4905  0.3562 -0.3248
  645MOL0     C85018   1.860   2.013   8.722 -0.0759  0.6475 -0.2012
  645MOL0     C85019   1.797   1.891   8.801  0.3108 -0.1024 -0.1291
  645MOL0     C85020   1.792   1.766   8.716 -0.8526 -0.6464  0.3268
  645MOL0     C85021   1.712   1.659   8.792  0.7942  0.7218  0.0043
  645MOL0     C85022   1.584   1.603   8.721  0.5619 -0.4724  0.6480
  645MOL0     C85023   1.522   1.474   8.793  0.4378 -0.1089 -0.1949
  645MOL0     C85024   1.422   1.397   8.701 -0.1399  0.0337 -0.1332
  645MOL0     N85025   1.359   1.291   8.772  0.2232  0.0419  0.2772
  645MOL0     C85026   1.351   1.165   8.726 -0.0767  0.8243  0.2828
  645MOL0     C85027   1.259   1.102   8.801 -0.0619  0.5743  0.4179
  645MOL0     C85028   1.216   0.959   8.783  0.3311 -0.8007 -0.3119
  645MOL0     C85029   1.331   0.859   8.796  0.9628  0.6456 -0.5181
  645MOL0     C85030   1.273   0.718   8.806 -0.7604  0.2684  0.7880
  645MOL0     C85031   1.374   0.634   8.728  0.0342 -0.2347 -0.2013
  645MOL0     O85032   1.505   0.633   8.789  0.0635  0.3791 -0.0846
  645MOL0     C85033   1.510   0.561   8.910 -0.5306  0.1340  0.7721
  645MOL0     C85034   1.413   0.475   8.962 -0.1900  0.1262  0.2964
  645MOL0     C85035   1.404   0.439   9.094 -0.8838  0.0548 -0.0462
  645MOL0     C85036   1.504   0.482   9.184  0.7493 -0.0663 -0.6733
  645MOL0     C85037   1.499   0.455   9.331  0.7517 -0.3008 -0.2161
  645MOL0     O85038   1.617   0.453   9.404 -0.5148  0.2281 -0.1501
  645MOL0     C85039   1.607   0.445   9.542  0.5662  0.0778 -0.2707
  645MOL0     C85040   1.546   0.335   9.604  0.2159  0.1402  0.0667
  645MOL0     C85041   1.547   0.342   9.741 -0.1089  0.5294  0.1865
  645MOL0     C85042   1.597   0.445   9.823  0.6905  0.1800  0.0921
  645MOL0     O85043   1.589   0.450   9.958  0.2553 -0.1733  0.1701
  645MOL0     C85044   1.503   0.350  10.019 -0.3487  0.3766 -0.6431
  645MOL0     C85045   1.520   0.346  10.175  0.4476  0.0765  0.5349
  645MOL0     C85046   1.644   0.259  10.210  0.5771  0.1663  0.1576
  645MOL0     C85047   1.697   0.277  10.350  0.9395  0.7112  0.4507
  645MOL0     C85048   1.830   0.205  10.351  0.4297  0.4746  0.3476
  645MOL0     C85049   1.883   0.197  10.501 -0.3432 -0.4600  1.6055
  645MOL0     C85050   2.002   0.104  10.522  0.2218  0.0040 -0.0059
  645MOL0     C85051   2.058   0.117  10.664 -0.3600 -0.6324 -0.7647
  645MOL0    Cl85052   1.939   0.047  10.784  0.9176  0.0588 -0.2270
  645MOL0     C85053   1.654   0.555   9.757  0.4927 -0.4065  0.0758
  645MOL0     C85054   1.656   0.555   9.619  0.4025  0.2982 -0.6126
  645MOL0     O85055   1.386   0.432   9.374 -0.2356  0.3621 -0.2786
  645MOL0     C85056   1.603   0.554   9.132 -0.3961  0.2103  0.4780
  645MOL0     C85057   1.614   0.590   8.996 -1.4540  0.5455 -0.4767
  645MOL0     N85058   1.206   1.199   8.884 -0.2384 -0.3632 -0.0245
  645MOL0     N85059   1.273   1.312   8.878  0.0359 -0.1540 -0.0208
  645MOL0     C85060   1.667   2.330   8.968 -0.8878  0.3637  0.1594
  645MOL0     C85061   1.658   2.443   9.062 -0.5427  0.9108  0.2732
  645MOL0     C85062   1.671   2.780   9.336  0.9992 -0.4045  1.0521
  645MOL0     C85063   1.599   2.898   9.346  0.6713 -0.7042 -0.5955
  645MOL0     C85064   1.594   2.962   9.474  0.1712  0.6098  1.2840
  645MOL0     C85065   1.669   2.922   9.577 -0.2332 -0.1363 -0.5392
  645MOL0     O85066   1.665   2.998   9.692  0.2817 -0.7238 -0.3745
  645MOL0     C85067   1.725   2.953   9.809  0.7922  0.3898  0.3832
  645MOL0     C85068   1.677   3.034   9.929 -0.1831 -0.8829  0.1493
  645MOL0     C85069   1.527   2.992   9.948 -0.6817 -0.1114  0.4987
  645MOL0     C85070   1.463   3.084  10.057  0.0280  1.4163  0.1140
  645MOL0     C85071   1.509   3.229  10.053  1.0184  0.7450 -0.1645
  645MOL0     C85072   1.528   3.348  10.052 -0.2266 -0.0107 -0.6837
  645MOL0     C85073   1.743   2.808   9.564 -1.1492  0.6151 -0.0107
  645MOL0     C85074   1.750   2.739   9.446 -0.1228  0.5436  0.6913
  645MOL0     H85075   1.966   2.560   9.028  0.5533  0.6487 -3.1446
  645MOL0     H85076   1.987   2.380   8.866 -0.6918 -0.7173 -0.8680
  645MOL0     H85077   1.950   2.122   8.893 -2.0177 -0.8936  0.6815
  645MOL0     H85078   1.989   2.174   8.734  2.1841 -2.3475  0.1242
  645MOL0     H85079   1.947   1.962   8.679 -1.0358 -1.0406 -0.2561
  645MOL0     H85080   1.808   2.042   8.630  1.5353  0.7353 -1.1237
  645MOL0     H85081   1.694   1.915   8.827  0.3864  1.2910 -1.0210
  645MOL0     H85082   1.844   1.861   8.895 -2.9438 -0.4487  1.5159
  645MOL0     H85083   1.735   1.786   8.625  1.5937  3.0341 -0.6393
  645MOL0     H85084   1.888   1.726   8.681 -0.5129  0.1558  0.3298
  645MOL0     H85085   1.670   1.705   8.881 -1.2143 -0.6263 -0.1916
  645MOL0     H85086   1.776   1.573   8.813 -3.0956 -1.6128  3.7131
  645MOL0     H85087   1.614   1.582   8.618 -0.5741  0.1936  0.1574
  645MOL0     H85088   1.503   1.677   8.717 -0.1149 -1.2167  0.2155
  645MOL0     H85089   1.600   1.409   8.834 -0.2631  0.0094  1.4185
  645MOL0     H85090   1.444   1.506   8.864  0.5329  2.5792 -1.1768
  645MOL0     H85091   1.479   1.373   8.610  0.6289  0.7721  0.1453
  645MOL0     H85092   1.346   1.472   8.679  2.5713  2.9021 -0.2683
  645MOL0     H85093   1.409   1.119   8.647 -0.7758 -0.4244  0.4786
  645MOL0     H85094   1.158   0.934   8.694 -1.7102  1.1420  0.3891
  645MOL0     H85095   1.157   0.937   8.873  3.2718 -2.4416  1.3912
  645MOL0     H85096   1.386   0.882   8.888 -0.2333  0.7630  0.1865
  645MOL0     H85097   1.393   0.875   8.707 -0.6095  2.0888 -1.4240
  645MOL0     H85098   1.266   0.695   8.912  2.0501  2.3556  1.5612
  645MOL0     H85099   1.172   0.723   8.764  0.1077  2.0529 -1.3643
  645MOL0     H85100   1.389   0.679   8.629  3.7307  2.4056  1.3462
  645MOL0     H85101   1.353   0.529   8.704  2.0403 -1.0535  1.3400
  645MOL0     H85102   1.329   0.439   8.903 -0.3666  0.0805  0.5773
  645MOL0     H85103   1.315   0.385   9.125 -2.2669  0.8640 -2.3909
  645MOL0     H85104   1.494   0.252   9.557 -1.3371  1.5806 -0.8948
  645MOL0     H85105   1.521   0.247   9.785  1.5484 -1.6723 -3.1649
  645MOL0     H85106   1.513   0.248   9.983 -0.2894  0.6241 -1.3515
  645MOL0     H85107   1.400   0.384  10.004 -0.3157  1.1879  0.7243
  645MOL0     H85108   1.428   0.304  10.218  0.6320  0.4258  1.2818
  645MOL0     H85109   1.523   0.449  10.212 -0.8182  1.1436 -2.0761
  645MOL0     H85110   1.727   0.277  10.142  0.7317  1.8585  0.7501
  645MOL0     H85111   1.612   0.156  10.186 -1.1667  0.5163  0.7867
  645MOL0     H85112   1.718   0.379  10.383  2.2067  0.8391 -0.6706
  645MOL0     H85113   1.624   0.223  10.411  0.1321 -1.5040 -2.2713
  645MOL0     H85114   1.908   0.251  10.289  0.5923  1.7406  1.4419
  645MOL0     H85115   1.817   0.106  10.306 -0.5486  0.4515  0.6737
  645MOL0     H85116   1.797   0.175  10.564 -2.4437  1.7347 -0.3163
  645MOL0     H85117   1.901   0.303  10.524  0.8391 -0.0171 -1.0268
  645MOL0     H85118   1.978  -0.003  10.517  1.1176 -0.1797 -1.0289
  645MOL0     H85119   2.076   0.125  10.444  3.2475 -4.5903  1.2059
  645MOL0     H85120   2.085   0.220  10.688 -0.4440 -0.3362 -1.8844
  645MOL0     H85121   2.149   0.057  10.671 -0.2786 -0.3345  2.2625
  645MOL0     H85122   1.687   0.644   9.809  0.9268  0.7684 -2.1017
  645MOL0     H85123   1.705   0.641   9.575 -2.1371  2.7062  0.9256
  645MOL0     H85124   1.680   0.606   9.188 -0.3659  0.4869  0.1779
  645MOL0     H85125   1.691   0.665   8.979 -0.7500  0.7457  2.9688
  645MOL0     H85126   1.582   2.267   8.944 -1.4502  0.6221  1.4217
  645MOL0     H85127   1.569   2.448   9.125 -0.3424  1.5099  0.5122
  645MOL0     H85128   1.541   2.945   9.268  1.0271  3.7672  1.5141
  645MOL0     H85129   1.525   3.039   9.507  1.5157  1.4815  2.1540
  645MOL0     H85130   1.834   2.958   9.802  0.7566  0.0588 -0.5271
  645MOL0     H85131   1.697   2.849   9.831 -5.9531  1.7529  0.5875
  645MOL0     H85132   1.739   3.002  10.013 -0.3354 -0.6848  0.3366
  645MOL0     H85133   1.699   3.139   9.910  0.0738 -1.1616 -1.2875
  645MOL0     H85134   1.505   2.887   9.968 -1.2736 -0.5193 -1.9402
  645MOL0     H85135   1.469   3.002   9.855  2.0404 -1.8868 -1.5706
  645MOL0     H85136   1.355   3.071  10.053  0.2760 -0.8255 -1.7972
  645MOL0     H85137   1.484   3.055  10.161  0.6170 -1.5931 -0.7327
  645MOL0     H85138   1.557   3.451  10.055  1.0628 -0.2610 -2.5834
  645MOL0     H85139   1.801   2.776   9.651 -2.1160  0.1476  0.4730
  645MOL0     H85140   1.802   2.645   9.433 -1.0105  0.2257 -0.8996
  646MOL0     O85141   1.947   4.236   2.250 -0.1225  0.1326 -0.9518
  646MOL0     C85142   1.861   4.180   2.318 -0.3811 -0.3199 -0.1921
  646MOL0     O85143   1.843   4.051   2.328 -0.0527 -0.1836  0.0045
  646MOL0     C85144   1.931   3.961   2.278 -0.1757 -0.1620 -0.0904
  646MOL0     C85145   1.973   3.861   2.362 -0.0705  0.9613  0.2477
  646MOL0     C85146   2.059   3.760   2.311  0.8078  0.0553  0.5986
  646MOL0     C85147   2.097   3.758   2.180  0.5524  0.5073  0.6058
  646MOL0     O85148   2.173   3.655   2.136  0.1936  1.0817  0.7909
  646MOL0     C85149   2.230   3.656   2.007 -0.5126 -0.2375  0.1067
  646MOL0     C85150   2.320   3.541   1.984  0.0611 -0.5803  0.8984
  646MOL0     C85151   2.462   3.558   2.053 -0.2565  1.1687  1.0267
  646MOL0     C85152   2.565   3.658   1.985  0.1706  0.0811  0.5859
  646MOL0     C85153   2.688   3.685   2.062 -0.0720  1.1115  0.4946
  646MOL0     C85154   2.683   3.703   2.208 -0.3343  0.0583 -0.4108
  646MOL0     C85155   2.588   3.817   2.265  0.0772  1.0884  0.1044
  646MOL0     C85156   2.644   3.961   2.256 -0.4896 -0.3943 -0.1690
  646MOL0     N85157   2.569   4.043   2.359  0.2855 -0.2642  0.5402
  646MOL0     C85158   2.434   4.068   2.368  0.7581 -0.5935 -0.0532
  646MOL0     C85159   2.413   4.173   2.442 -0.4076 -0.5214 -0.0798
  646MOL0     C85160   2.292   4.232   2.502 -0.0879 -0.4770  0.2543
  646MOL0     C85161   2.233   4.354   2.439 -0.2898 -0.2268 -0.3127
  646MOL0     C85162   2.336   4.471   2.396  0.9684 -0.2716  0.2306
  646MOL0     C85163   2.250   4.586   2.359  0.5576 -0.0513 -0.2670
  646MOL0     O85164   2.219   4.651   2.489  0.3520 -0.6405 -0.2050
  646MOL0     C85165   2.133   4.756   2.499 -0.4353 -0.8642 -0.5779
  646MOL0     C85166   2.145   4.843   2.609  0.2341  0.3704  0.2530
  646MOL0     C85167   2.063   4.946   2.631 -0.7799  0.0215 -0.5945
  646MOL0     C85168   1.955   4.971   2.545  0.0095 -0.2231 -0.6770
  646MOL0     C85169   1.864   5.084   2.576 -0.2293 -0.5389  0.1198
  646MOL0     O85170   1.915   5.204   2.642 -0.0799 -0.6268  0.3366
  646MOL0     C85171   1.820   5.288   2.678  0.9714 -0.1413 -0.1135
  646MOL0     C85172   1.727   5.358   2.593  0.5398  0.4529 -0.3505
  646MOL0     C85173   1.630   5.439   2.648  1.0579 -0.1347 -0.1705
  646MOL0     C85174   1.620   5.474   2.786  0.3841  0.3688 -0.2149
  646MOL0     O85175   1.521   5.558   2.818  0.5591  0.3753  0.2772
  646MOL0     C85176   1.405   5.500   2.883  1.1845 -1.5260  0.4153
  646MOL0     C85177   1.286   5.603   2.868 -0.6084 -0.5018  0.5492
  646MOL0     C85178   1.196   5.589   2.750  0.5768  0.3306  0.4293
  646MOL0     C85179   1.262   5.636   2.622 -0.2865  0.3306  0.1676
  646MOL0     C85180   1.173   5.604   2.501  0.9785 -0.0885  0.1266
  646MOL0     C85181   1.245   5.647   2.371 -0.3026  0.5810  0.3878
  646MOL0     C85182   1.377   5.572   2.355  0.5378  0.4352 -0.7881
  646MOL0     C85183   1.430   5.590   2.214  0.1686  0.2863  0.4533
  646MOL0    Cl85184   1.325   5.514   2.098 -0.3712 -0.0062  0.6795
  646MOL0     C85185   1.716   5.410   2.864  0.4881  0.5528  0.4510
  646MOL0     C85186   1.809   5.324   2.812 -0.6781  0.8095  0.3824
  646MOL0     O85187   1.748   5.065   2.545  0.2852 -0.2718  0.9900
  646MOL0     C85188   1.941   4.890   2.440  0.2655 -0.3549  0.0168
  646MOL0     C85189   2.027   4.778   2.415  0.2955 -0.6751 -0.1247
  646MOL0     N85190   2.541   4.216   2.477 -0.3521  0.3298 -0.0449
  646MOL0     N85191   2.629   4.134   2.435  0.8566  1.2441  0.4494
  646MOL0     C85192   2.048   3.858   2.092  0.7545  0.3257 -0.3042
  646MOL0     C85193   1.982   3.963   2.148 -0.2303  0.8310  0.0919
  646MOL0     C85194   1.781   4.266   2.406  0.2297 -0.3730  0.2700
  646MOL0     C85195   1.817   4.397   2.421 -0.0634 -0.1269  0.8949
  646MOL0     C85196   1.746   4.482   2.491  0.6660 -0.0323 -0.7748
  646MOL0     C85197   1.624   4.443   2.543 -0.0507 -0.2724  0.4844
  646MOL0     O85198   1.547   4.523   2.619 -0.0991 -0.4122  0.3636
  646MOL0     C85199   1.450   4.589   2.530 -0.0657 -0.6088 -1.1765
  646MOL0     C85200   1.481   4.749   2.513  0.3787  0.4110 -0.6719
  646MOL0     C85201   1.377   4.828   2.426  0.6568 -0.5091 -0.1158
  646MOL0     C85202   1.442   4.939   2.340 -0.4544  0.5420 -1.1032
  646MOL0     C85203   1.346   5.031   2.283 -1.0373  0.6686  0.7092
  646MOL0     C85204   1.261   5.090   2.221  0.3101 -0.0601 -0.0863
  646MOL0     C85205   1.578   4.313   2.524 -0.3227  0.3632 -1.4836
  646MOL0     C85206   1.651   4.226   2.447 -0.1932 -0.2487  0.1482
  646MOL0     H85207   1.945   3.866   2.467 -1.2293 -1.5869  0.1298
  646MOL0     H85208   2.089   3.682   2.379  1.8986  1.4161  1.7490
  646MOL0     H85209   2.275   3.755   1.994  2.0341 -0.6457  3.9996
  646MOL0     H85210   2.154   3.646   1.929 -0.0600  0.5722 -0.4608
  646MOL0     H85211   2.333   3.523   1.877 -0.8872 -0.4060  0.7471
  646MOL0     H85212   2.268   3.451   2.018 -3.4291  0.7930 -0.3376
  646MOL0     H85213   2.512   3.461   2.052 -1.5381  0.4608 -0.8316
  646MOL0     H85214   2.447   3.591   2.156 -4.6522  1.0227  0.6184
  646MOL0     H85215   2.604   3.615   1.892 -0.0141  0.9606  0.0904
  646MOL0     H85216   2.506   3.749   1.969 -3.0280 -2.1756 -2.0827
  646MOL0     H85217   2.738   3.767   2.010  0.3513 -0.0602 -1.0245
  646MOL0     H85218   2.752   3.597   2.055 -0.7472  0.6693 -0.2873
  646MOL0     H85219   2.785   3.736   2.233 -1.2750  2.5412  0.4448
  646MOL0     H85220   2.667   3.608   2.259 -3.3814  1.2978  1.1491
  646MOL0     H85221   2.491   3.814   2.215 -0.3487 -0.6944  0.9496
  646MOL0     H85222   2.579   3.793   2.371 -0.9027 -0.9445 -0.3935
  646MOL0     H85223   2.637   4.000   2.154  2.3374  0.1234 -0.2609
  646MOL0     H85224   2.749   3.969   2.286 -0.4724 -0.6903 -0.1456
  646MOL0     H85225   2.352   4.002   2.345  0.6732 -0.7676  0.7184
  646MOL0     H85226   2.324   4.272   2.599 -1.3273 -0.0733  0.5147
  646MOL0     H85227   2.213   4.158   2.519 -2.2436  1.1504 -1.9095
  646MOL0     H85228   2.157   4.402   2.502  0.5823 -0.9611  1.3779
  646MOL0     H85229   2.169   4.325   2.355 -0.6081  1.3381 -0.6326
  646MOL0     H85230   2.405   4.489   2.479  0.3769 -0.4259  0.7594
  646MOL0     H85231   2.395   4.440   2.309 -0.7261 -0.3228 -0.9515
  646MOL0     H85232   2.162   4.541   2.310  0.5013  2.1044 -2.3482
  646MOL0     H85233   2.305   4.646   2.286  0.7307 -0.3980 -0.4217
  646MOL0     H85234   2.234   4.822   2.667  1.0293 -1.8190 -1.5544
  646MOL0     H85235   2.085   5.014   2.713 -3.5546  0.2468  0.0885
  646MOL0     H85236   1.733   5.341   2.486  2.7859 -0.4186 -0.1436
  646MOL0     H85237   1.564   5.487   2.576  0.6490 -1.6076 -0.8210
  646MOL0     H85238   1.420   5.485   2.990 -5.3366 -0.9107  1.7971
  646MOL0     H85239   1.379   5.403   2.839  0.3316 -1.2721  0.3363
  646MOL0     H85240   1.337   5.700   2.876  0.3543 -0.7604 -1.6586
  646MOL0     H85241   1.227   5.594   2.960 -0.1528  2.9512  1.3187
  646MOL0     H85242   1.105   5.649   2.759 -1.2815 -1.9406 -1.6025
  646MOL0     H85243   1.179   5.481   2.749  1.5451  0.1292  2.3452
  646MOL0     H85244   1.279   5.744   2.631  3.7512 -0.2642  1.6423
  646MOL0     H85245   1.357   5.585   2.607  0.3727  1.2151  1.2526
  646MOL0     H85246   1.076   5.654   2.505  2.2980  2.6936  4.6967
  646MOL0     H85247   1.155   5.497   2.493 -1.5552  0.1682  1.5033
  646MOL0     H85248   1.277   5.751   2.378  1.3814  0.0830  0.4233
  646MOL0     H85249   1.185   5.633   2.280 -1.1190 -1.5379  1.2049
  646MOL0     H85250   1.445   5.615   2.429 -1.1691 -3.0011  3.2070
  646MOL0     H85251   1.371   5.463   2.362  3.2389  0.2178 -0.8289
  646MOL0     H85252   1.527   5.541   2.200 -0.1418 -0.8995  2.2108
  646MOL0     H85253   1.438   5.694   2.180 -0.0777 -0.1494 -1.0387
  646MOL0     H85254   1.727   5.431   2.969 -1.2551  1.1977  0.5328
  646MOL0     H85255   1.886   5.292   2.882 -1.4653 -1.9557  0.0980
  646MOL0     H85256   1.859   4.909   2.371  1.2807 -1.9279 -1.6884
  646MOL0     H85257   2.003   4.711   2.333 -3.4381  0.3522 -0.0634
  646MOL0     H85258   2.069   3.870   1.986  1.9305  3.7458  0.1894
  646MOL0     H85259   1.955   4.045   2.082 -1.1729 -0.1416 -0.7778
  646MOL0     H85260   1.907   4.428   2.368 -1.0522  0.1122 -0.7365
  646MOL0     H85261   1.776   4.587   2.492  2.5518 -0.5126 -1.6420
  646MOL0     H85262   1.358   4.589   2.587  0.8281 -2.0142  0.3584
  646MOL0     H85263   1.436   4.541   2.432 -1.8324 -0.0921 -1.1954
  646MOL0     H85264   1.478   4.807   2.606  0.3131  0.3391 -0.6293
  646MOL0     H85265   1.587   4.760   2.487  0.1453 -0.3353 -1.9843
  646MOL0     H85266   1.298   4.865   2.492 -0.3387 -0.6454 -1.1903
  646MOL0     H85267   1.327   4.756   2.361 -3.8268  0.0773  2.2465
  646MOL0     H85268   1.512   4.991   2.407  0.5202 -1.1553 -0.7189
  646MOL0     H85269   1.495   4.878   2.265 -2.2675 -2.0810 -0.3988
  646MOL0     H85270   1.193   5.151   2.165  1.9076 -0.8693 -3.1332
  646MOL0     H85271   1.478   4.294   2.562  0.5380 -1.9786 -0.1736
  646MOL0     H85272   1.615   4.128   2.419  1.2506 -1.5950  2.6587
  647MOL0     O85273   8.449  10.704   6.833 -0.2134  0.1317 -1.0606
  647MOL0     C85274   8.483  10.762   6.735  0.5191  0.4004  0.6134
  647MOL0     O85275   8.606  10.760   6.680 -0.0366 -0.4100  0.1548
  647MOL0     C85276   8.716  10.693   6.729 -0.2280 -0.0927 -0.7330
  647MOL0     C85277   8.812  10.635   6.635 -0.0729  0.6913 -0.3840
  647MOL0     C85278   8.914  10.550   6.696 -0.5744 -0.6229  0.1347
  647MOL0     C85279   8.933  10.542   6.841 -0.1209  0.7256 -0.0724
  647MOL0     O85280   9.041  10.467   6.900  0.0108  0.0018 -1.1254
  647MOL0     C85281   9.152  10.421   6.814 -0.1496  0.7465 -0.8040
  647MOL0     C85282   9.257  10.360   6.919 -0.2017 -0.2008  0.0930
  647MOL0     C85283   9.379  10.304   6.852  0.5543  0.0957 -0.7675
  647MOL0     C85284   9.476  10.416   6.821 -0.2263 -0.1490 -0.3919
  647MOL0     C85285   9.602  10.357   6.756 -0.3326  0.8774  0.5046
  647MOL0     C85286   9.710  10.457   6.723 -0.0025 -0.2889  0.0506
  647MOL0     C85287   9.798  10.506   6.845  0.8525 -0.3132 -0.1792
  647MOL0     C85288   9.907  10.407   6.883 -0.5294  0.4291 -0.5701
  647MOL0     N85289   9.992  10.363   6.771  0.3885  1.3174 -0.9265
  647MOL0     C85290  10.033  10.227   6.765  0.7587 -0.6040  0.7649
  647MOL0     C85291  10.134  10.234   6.674 -0.5246 -0.1734 -0.3376
  647MOL0     C85292  10.223  10.108   6.645  0.3525 -0.2886 -0.7203
  647MOL0     C85293  10.366  10.142   6.599  0.3507  0.4668  0.7561
  647MOL0     C85294  10.440  10.019   6.558  1.0237  0.8176 -0.1191
  647MOL0     C85295  10.576  10.044   6.495  0.3218 -0.4114 -0.1322
  647MOL0     O85296  10.639   9.922   6.456 -0.5803  0.1879 -0.2526
  647MOL0     C85297  10.746   9.862   6.518  0.6626 -0.4498 -0.3940
  647MOL0     C85298  10.808   9.749   6.462 -0.0212 -0.4023 -0.6530
  647MOL0     C85299  10.926   9.704   6.520  0.1871  0.5645  0.4117
  647MOL0     C85300  10.990   9.765   6.633 -0.0582 -0.3063  0.6562
  647MOL0     C85301  11.109   9.717   6.697 -0.2961  0.0918  0.1644
  647MOL0     O85302  11.167   9.787   6.796 -0.0375  0.0123 -0.6128
  647MOL0     C85303  11.276   9.740   6.871  0.7006  0.4035 -0.2774
  647MOL0     C85304  11.348   9.837   6.928 -0.2708 -0.5372 -0.9221
  647MOL0     C85305  11.459   9.799   7.003  0.1581 -0.9160  0.4948
  647MOL0     C85306  11.505   9.673   7.020  0.2356 -0.4777  0.5204
  647MOL0     O85307  11.614   9.647   7.093 -0.1588  0.7463 -0.3410
  647MOL0     C85308  11.740   9.679   7.038  0.3164  0.6934 -0.6107
  647MOL0     C85309  11.838   9.564   7.042 -0.2148  0.0777 -0.8620
  647MOL0     C85310  11.795   9.433   6.980  0.3155 -0.4886  0.4717
  647MOL0     C85311  11.916   9.331   6.948  0.1173  0.1440  0.2414
  647MOL0     C85312  11.873   9.221   6.844  0.0297  0.6518  0.5442
  647MOL0     C85313  11.985   9.135   6.787  0.2840  0.3458  0.4163
  647MOL0     C85314  11.933   9.044   6.684 -0.6933  0.7739  0.5206
  647MOL0     C85315  11.989   8.900   6.713 -0.3517  0.9969 -0.2122
  647MOL0    Cl85316  11.906   8.834   6.864  0.0304 -0.1456 -0.0240
  647MOL0     C85317  11.436   9.572   6.960 -0.2363  0.3558  0.3963
  647MOL0     C85318  11.314   9.604   6.889 -0.2493 -0.3177  0.0521
  647MOL0     O85319  11.158   9.615   6.649  0.0920  0.7696 -0.1673
  647MOL0     C85320  10.942   9.895   6.676  0.0207  0.2250  0.2536
  647MOL0     C85321  10.815   9.929   6.628  0.0451  0.4905  0.1276
  647MOL0     N85322  10.147  10.366   6.625  0.2162  0.7093  0.1892
  647MOL0     N85323  10.064  10.442   6.692 -0.2053  0.7082 -0.2019
  647MOL0     C85324   8.837  10.599   6.929  0.7528  0.3270  0.2115
  647MOL0     C85325   8.734  10.665   6.864  0.6856  0.9443 -0.9090
  647MOL0     C85326   8.391  10.872   6.680  0.5943 -0.0814  0.1560
  647MOL0     C85327   8.261  10.882   6.734  0.6630  0.0919 -0.4623
  647MOL0     C85328   8.169  10.969   6.673 -0.4475 -0.6946 -0.2773
  647MOL0     C85329   8.206  11.042   6.561 -0.1538 -0.5727 -1.0189
  647MOL0     O85330   8.105  11.124   6.510 -0.2293  0.3536  0.4208
  647MOL0     C85331   8.146  11.206   6.402 -0.1927 -0.7803 -0.5096
  647MOL0     C85332   8.037  11.308   6.371 -0.3173 -0.6189  0.2601
  647MOL0     C85333   8.093  11.392   6.253  0.4404 -0.1518  0.6094
  647MOL0     C85334   7.994  11.503   6.201 -1.0717 -0.1714 -0.2158
  647MOL0     C85335   8.080  11.610   6.142  0.4779 -0.8183  0.3246
  647MOL0     C85336   8.144  11.693   6.084  0.3042  0.4328  0.4095
  647MOL0     C85337   8.333  11.033   6.504  0.6394 -0.3445  0.0222
  647MOL0     C85338   8.418  10.937   6.558 -0.3255 -0.5985 -0.1068
  647MOL0     H85339   8.798  10.640   6.528 -0.6326  0.3218 -0.3329
  647MOL0     H85340   8.980  10.493   6.632 -0.0061  0.2229 -0.0515
  647MOL0     H85341   9.188  10.506   6.756  2.2017  0.2089 -0.2382
  647MOL0     H85342   9.113  10.346   6.745  0.8671  2.6169 -3.5814
  647MOL0     H85343   9.211  10.271   6.963  0.8145 -0.5654  0.4448
  647MOL0     H85344   9.292  10.431   6.994 -0.1357  2.7242 -2.5255
  647MOL0     H85345   9.335  10.254   6.765 -2.2883  0.4549  0.3749
  647MOL0     H85346   9.426  10.225   6.912 -2.3945 -1.6656 -0.5502
  647MOL0     H85347   9.430  10.485   6.751 -0.5228  1.3757  1.2338
  647MOL0     H85348   9.490  10.477   6.911 -0.5453  2.8630 -2.2444
  647MOL0     H85349   9.571  10.300   6.668 -0.4229  0.2694  0.9221
  647MOL0     H85350   9.640  10.274   6.818 -3.6932 -1.1273  0.0821
  647MOL0     H85351   9.662  10.546   6.680 -0.4964  2.1870  4.9721
  647MOL0     H85352   9.771  10.419   6.641 -2.4090 -0.2777 -1.8659
  647MOL0     H85353   9.847  10.601   6.822  0.8559 -0.1475  0.4858
  647MOL0     H85354   9.733  10.528   6.930  1.4437  3.2530 -0.5009
  647MOL0     H85355   9.859  10.316   6.920 -0.7762  0.5112 -0.6805
  647MOL0     H85356   9.968  10.455   6.960 -0.8117  1.0733 -0.7416
  647MOL0     H85357  10.007  10.131   6.808 -1.3377  0.4902  2.1132
  647MOL0     H85358  10.166  10.050   6.571 -2.6567  0.1503  1.1272
  647MOL0     H85359  10.220  10.059   6.743  0.9312 -0.3775 -0.7392
  647MOL0     H85360  10.413  10.190   6.685  0.3648 -2.9216  2.8026
  647MOL0     H85361  10.353  10.215   6.518  0.1470  0.3760  0.7047
  647MOL0     H85362  10.445   9.956   6.648  1.0815  1.1897  0.1398
  647MOL0     H85363  10.376   9.970   6.484 -0.5869  1.5291  0.7653
  647MOL0     H85364  10.625  10.107   6.569 -2.1793  1.5719 -0.0129
  647MOL0     H85365  10.569  10.106   6.405  1.3502 -0.0185  0.0491
  647MOL0     H85366  10.753   9.707   6.378 -1.0038 -1.1629  0.3427
  647MOL0     H85367  10.964   9.612   6.477  0.7329  1.0115 -0.0752
  647MOL0     H85368  11.302   9.935   6.924 -1.4069 -1.0871 -1.8500
  647MOL0     H85369  11.498   9.887   7.053  3.8533  0.5027 -4.1847
  647MOL0     H85370  11.782   9.762   7.095 -0.8008  1.5592 -1.0092
  647MOL0     H85371  11.732   9.722   6.938  2.7241 -0.5498 -1.4209
  647MOL0     H85372  11.883   9.543   7.139  2.9542 -1.0438 -2.4532
  647MOL0     H85373  11.921   9.594   6.979  0.9992 -1.3119 -0.0128
  647MOL0     H85374  11.748   9.456   6.884  0.6297 -1.9261 -0.0472
  647MOL0     H85375  11.718   9.390   7.045  0.8941 -1.5961  0.4371
  647MOL0     H85376  11.992   9.381   6.888  0.3327 -1.4073 -0.8576
  647MOL0     H85377  11.953   9.289   7.043  2.6370 -0.5620 -0.9671
  647MOL0     H85378  11.833   9.276   6.759 -1.7311 -1.3580 -0.0001
  647MOL0     H85379  11.792   9.159   6.883  1.5792 -0.0164  2.8822
  647MOL0     H85380  12.025   9.087   6.877  2.2865  3.2913  1.2406
  647MOL0     H85381  12.066   9.187   6.736  1.9875 -1.4201  1.2009
  647MOL0     H85382  11.825   9.050   6.675 -0.7725  0.7553  1.4004
  647MOL0     H85383  11.970   9.059   6.582 -2.8614 -0.9181 -0.5848
  647MOL0     H85384  12.096   8.894   6.734 -0.6700 -0.5738  1.1914
  647MOL0     H85385  11.967   8.831   6.630  0.5360  0.2275  0.1866
  647MOL0     H85386  11.459   9.468   6.982  1.4287 -0.1510 -3.0907
  647MOL0     H85387  11.241   9.529   6.861  0.1236 -0.6842  0.0408
  647MOL0     H85388  10.987   9.957   6.752 -2.7224  0.5185  1.7805
  647MOL0     H85389  10.766  10.014   6.673 -2.6401 -0.0383 -1.5357
  647MOL0     H85390   8.842  10.586   7.036  0.7950  1.1056  0.3081
  647MOL0     H85391   8.666  10.704   6.939 -0.9187  0.9265 -2.2964
  647MOL0     H85392   8.238  10.828   6.825  1.0945  0.6765  0.0068
  647MOL0     H85393   8.073  10.987   6.721  0.4237  3.7503  0.2196
  647MOL0     H85394   8.176  11.154   6.310  0.4599  0.2494 -0.8960
  647MOL0     H85395   8.231  11.263   6.438 -1.6527  1.5142 -0.5317
  647MOL0     H85396   7.955  11.252   6.325 -1.2942  2.0339 -1.4106
  647MOL0     H85397   8.006  11.368   6.457 -0.4990  2.3598 -1.7650
  647MOL0     H85398   8.124  11.329   6.169 -2.4490  1.2266 -1.6896
  647MOL0     H85399   8.177  11.448   6.294  0.3670 -0.3874  1.0829
  647MOL0     H85400   7.928  11.463   6.124 -1.8582  0.7240 -0.0180
  647MOL0     H85401   7.932  11.528   6.287 -1.1373 -1.6624  0.2005
  647MOL0     H85402   8.201  11.766   6.031  1.2489  0.2813  1.1955
  647MOL0     H85403   8.384  11.091   6.427  2.1887 -0.4075  0.9419
  647MOL0     H85404   8.518  10.921   6.517 -0.2846 -3.3563  0.9006
  648MOL0     O85405   4.928  10.814   5.142  0.4375  0.2277  0.1438
  648MOL0     C85406   4.950  10.906   5.057  0.3165  0.0959  0.3777
  648MOL0     O85407   4.878  11.020   5.036  0.7111  0.0870  0.1791
  648MOL0     C85408   4.770  11.028   5.118  0.1172 -0.6071 -0.1927
  648MOL0     C85409   4.669  10.932   5.126 -0.2281 -0.0235  0.1443
  648MOL0     C85410   4.572  10.937   5.229 -0.4179 -0.0993 -0.2671
  648MOL0     C85411   4.554  11.056   5.304 -0.1213 -0.7324  1.3720
  648MOL0     O85412   4.440  11.080   5.377 -0.0368 -0.3859  0.5139
  648MOL0     C85413   4.415  10.982   5.479  0.5452  0.2035 -0.2722
  648MOL0     C85414   4.353  11.037   5.608 -0.5560 -0.1854  0.4278
  648MOL0     C85415   4.391  11.177   5.659  0.0014  1.2422 -1.1925
  648MOL0     C85416   4.295  11.237   5.771  0.4806 -0.6544  0.2711
  648MOL0     C85417   4.363  11.326   5.874 -0.2165  0.5555 -0.0427
  648MOL0     C85418   4.277  11.393   5.970  0.0657 -0.5762 -0.2344
  648MOL0     C85419   4.365  11.502   6.039 -0.2179  0.2268 -0.5390
  648MOL0     C85420   4.461  11.458   6.150  0.6616  0.4170  0.8480
  648MOL0     N85421   4.381  11.397   6.250 -0.3751  0.4999 -0.4753
  648MOL0     C85422   4.297  11.472   6.328  0.4272 -0.5481 -0.6912
  648MOL0     C85423   4.246  11.392   6.422  0.3696 -0.5593  0.5038
  648MOL0     C85424   4.157  11.412   6.543  1.9172  0.8909 -0.3497
  648MOL0     C85425   4.241  11.449   6.665 -0.2502  0.4196 -1.3243
  648MOL0     C85426   4.169  11.483   6.782 -0.3394  0.0895 -0.9219
  648MOL0     C85427   4.276  11.543   6.887 -0.3260 -0.0206  0.2193
  648MOL0     O85428   4.289  11.686   6.852  0.0059  0.0048  0.5752
  648MOL0     C85429   4.321  11.781   6.955 -0.8794  1.1030  0.5809
  648MOL0     C85430   4.353  11.751   7.092 -0.1917  0.2330  0.5305
  648MOL0     C85431   4.371  11.846   7.187  0.6534 -0.8023 -0.3945
  648MOL0     C85432   4.371  11.985   7.145  0.2032  0.4604 -0.7358
  648MOL0     C85433   4.400  12.093   7.239  0.5117 -0.4986 -0.1229
  648MOL0     O85434   4.434  12.217   7.188  0.0770 -0.6908 -0.2395
  648MOL0     C85435   4.467  12.315   7.277  0.3669 -0.0791 -0.2760
  648MOL0     C85436   4.588  12.310   7.347 -0.0614  0.5850 -0.0845
  648MOL0     C85437   4.621  12.411   7.435 -0.8086  0.3390 -0.2285
  648MOL0     C85438   4.531  12.502   7.483 -0.1418 -0.5220 -0.9854
  648MOL0     O85439   4.556  12.601   7.579  0.2983 -0.1036 -0.7237
  648MOL0     C85440   4.685  12.606   7.650 -0.6716 -0.0295  0.6455
  648MOL0     C85441   4.680  12.713   7.755 -0.1968  0.4888  0.0709
  648MOL0     C85442   4.812  12.745   7.817 -0.3211 -0.9831  0.0646
  648MOL0     C85443   4.797  12.840   7.935  0.8766  0.8664  0.4375
  648MOL0     C85444   4.936  12.880   7.997 -0.4043 -0.3243 -0.6577
  648MOL0     C85445   4.910  12.979   8.108 -0.0313 -0.0780 -0.4362
  648MOL0     C85446   5.023  13.064   8.163  0.1927 -0.3299 -0.9239
  648MOL0     C85447   5.114  13.004   8.257  0.7618  0.3064 -0.5312
  648MOL0    Cl85448   5.208  13.132   8.331  0.1233  0.3972 -0.4118
  648MOL0     C85449   4.398  12.498   7.432  0.2034  0.0968  0.9251
  648MOL0     C85450   4.375  12.415   7.320  0.0294  0.2793 -0.8126
  648MOL0     O85451   4.368  12.076   7.359  0.1761  0.0514 -0.0543
  648MOL0     C85452   4.346  12.015   7.015  0.3676 -1.2409  1.0570
  648MOL0     C85453   4.318  11.914   6.914 -0.0455  0.1007 -0.1570
  648MOL0     N85454   4.287  11.265   6.391  0.7378 -0.1693  0.0995
  648MOL0     N85455   4.359  11.269   6.284  1.1995  0.7253  0.3114
  648MOL0     C85456   4.646  11.152   5.285 -0.6336 -0.3707 -0.4846
  648MOL0     C85457   4.761  11.149   5.188  0.2822 -0.0950 -1.1894
  648MOL0     C85458   5.069  10.887   4.963 -0.0648 -0.2805 -0.7984
  648MOL0     C85459   5.136  10.770   4.968 -0.7597  0.3010  0.4508
  648MOL0     C85460   5.267  10.766   4.904  0.0103 -0.3108 -0.3869
  648MOL0     C85461   5.315  10.873   4.826  0.2277  0.3980  1.6673
  648MOL0     O85462   5.436  10.841   4.763  0.0593  0.0369  0.4245
  648MOL0     C85463   5.493  10.935   4.675  0.3274 -0.7535  0.0118
  648MOL0     C85464   5.640  10.920   4.655  1.4210  0.3402  1.0635
  648MOL0     C85465   5.725  10.931   4.782  0.6414 -0.1757 -0.8471
  648MOL0     C85466   5.871  10.903   4.777  0.4425 -0.1322  1.0421
  648MOL0     C85467   5.905  10.887   4.915 -0.6755 -0.3181  0.1560
  648MOL0     C85468   5.928  10.865   5.036  0.3874 -0.1376 -0.7701
  648MOL0     C85469   5.239  10.985   4.811  0.5938  0.5778  0.6352
  648MOL0     C85470   5.113  10.991   4.878 -0.2522  0.5191  0.3912
  648MOL0     H85471   4.660  10.841   5.069 -1.1828  0.1247  0.0434
  648MOL0     H85472   4.498  10.858   5.240 -2.5662  2.1093  2.5684
  648MOL0     H85473   4.512  10.938   5.504  0.2969  0.0554  0.4329
  648MOL0     H85474   4.356  10.900   5.438 -0.8321  1.8480 -1.7377
  648MOL0     H85475   4.353  10.963   5.689 -1.3134  1.5484  2.0854
  648MOL0     H85476   4.251  11.051   5.572 -0.2273  1.6449  0.1112
  648MOL0     H85477   4.398  11.250   5.578  1.7041  1.9466 -0.4646
  648MOL0     H85478   4.489  11.174   5.707 -1.7089 -0.2342  2.5628
  648MOL0     H85479   4.209  11.282   5.720  0.0990 -2.1646 -0.4764
  648MOL0     H85480   4.255  11.155   5.830  3.3691 -1.1335  1.6941
  648MOL0     H85481   4.424  11.392   5.812  3.5731 -2.2246  0.3722
  648MOL0     H85482   4.442  11.269   5.922 -1.3410 -0.9240  0.1051
  648MOL0     H85483   4.237  11.326   6.047  1.4996 -2.5949 -1.1725
  648MOL0     H85484   4.183  11.426   5.926 -0.4964 -2.6999 -0.7445
  648MOL0     H85485   4.419  11.546   5.955 -0.8513 -1.6779 -2.0063
  648MOL0     H85486   4.304  11.583   6.081  0.5537 -0.0107  1.1309
  648MOL0     H85487   4.525  11.538   6.188 -0.7055  0.5854  2.9370
  648MOL0     H85488   4.530  11.382   6.112  0.9475 -0.2248  2.5900
  648MOL0     H85489   4.280  11.578   6.315  0.0166 -0.2144  1.9778
  648MOL0     H85490   4.118  11.310   6.552 -0.4185  1.6201 -1.4113
  648MOL0     H85491   4.079  11.488   6.547  0.3991 -0.3177 -3.5054
  648MOL0     H85492   4.306  11.532   6.635 -0.9931  0.8328 -1.8184
  648MOL0     H85493   4.307  11.365   6.688  1.7188  2.0333 -0.7163
  648MOL0     H85494   4.103  11.570   6.774 -2.1714 -0.8482  2.3719
  648MOL0     H85495   4.122  11.397   6.830 -0.5870 -0.5852 -2.3331
  648MOL0     H85496   4.369  11.486   6.886  0.4543  1.2269 -1.0512
  648MOL0     H85497   4.236  11.539   6.989  1.2946  1.0240  0.9440
  648MOL0     H85498   4.367  11.648   7.122 -1.5222 -0.5054 -1.2144
  648MOL0     H85499   4.384  11.813   7.289 -0.6810  0.4753  0.2145
  648MOL0     H85500   4.660  12.232   7.327  1.0760  1.3986  0.6923
  648MOL0     H85501   4.720  12.398   7.479 -0.6259 -0.5531 -0.8706
  648MOL0     H85502   4.760  12.640   7.578 -0.2070 -1.8777  0.1931
  648MOL0     H85503   4.720  12.515   7.698 -0.3836 -0.3680 -0.1853
  648MOL0     H85504   4.609  12.676   7.830  2.4384  2.3004  3.6897
  648MOL0     H85505   4.633  12.801   7.711 -1.7181 -2.1049 -4.2273
  648MOL0     H85506   4.880  12.792   7.745  1.8873 -1.5973  1.6461
  648MOL0     H85507   4.854  12.650   7.850  0.9629 -0.8625 -1.1550
  648MOL0     H85508   4.740  12.928   7.903 -1.1239  0.1579  1.8296
  648MOL0     H85509   4.738  12.790   8.012 -2.8035 -0.0057 -2.6379
  648MOL0     H85510   4.995  12.922   7.914  1.4037 -1.5741 -0.0694
  648MOL0     H85511   4.995  12.795   8.034  1.1442  0.3038 -1.5650
  648MOL0     H85512   4.857  12.921   8.184  0.3018 -1.3424 -1.1356
  648MOL0     H85513   4.833  13.049   8.074 -2.1867 -1.1838  1.8724
  648MOL0     H85514   5.080  13.113   8.084  2.6666 -0.6055  0.5993
  648MOL0     H85515   4.967  13.141   8.216  0.3028 -1.7277  1.3145
  648MOL0     H85516   5.184  12.937   8.206  0.6222 -0.4112  0.1919
  648MOL0     H85517   5.051  12.946   8.325  1.4203 -5.0157 -3.8365
  648MOL0     H85518   4.317  12.561   7.469 -0.5396  1.0882 -2.1377
  648MOL0     H85519   4.273  12.425   7.284 -0.8809  0.8068  1.7081
  648MOL0     H85520   4.335  12.119   6.987  1.3709 -1.0431  1.3719
  648MOL0     H85521   4.302  11.938   6.810  2.2802  1.2382 -0.3238
  648MOL0     H85522   4.631  11.247   5.335  1.7768 -0.8078  1.2610
  648MOL0     H85523   4.831  11.230   5.175  1.1679 -0.3710  1.4020
  648MOL0     H85524   5.101  10.687   5.028 -2.4026  0.6469  0.0283
  648MOL0     H85525   5.337  10.684   4.918  1.3158  0.4521 -2.0142
  648MOL0     H85526   5.487  11.032   4.724  1.9097  0.0109 -1.2158
  648MOL0     H85527   5.444  10.936   4.577 -0.1966  1.7674  0.2414
  648MOL0     H85528   5.661  10.829   4.598 -0.5360  0.2991  0.3370
  648MOL0     H85529   5.674  11.012   4.606  6.2131  0.2210  3.5891
  648MOL0     H85530   5.683  10.857   4.852 -0.9151  0.0148 -1.5249
  648MOL0     H85531   5.712  11.029   4.829  0.1098 -1.2861  1.4901
  648MOL0     H85532   5.893  10.807   4.729  6.3395  1.8787 -1.1625
  648MOL0     H85533   5.932  10.983   4.735 -1.9670  1.9148  1.2167
  648MOL0     H85534   5.925  10.862   5.144 -1.1850  4.9915 -0.3887
  648MOL0     H85535   5.268  11.063   4.741  0.5426 -0.0650 -0.1263
  648MOL0     H85536   5.049  11.079   4.884 -2.4767 -0.9656 -0.3374
  649MOL0     O85537   4.823  10.586   0.152 -0.5098 -0.2038  0.3518
  649MOL0     C85538   4.710  10.560   0.141  0.3753 -0.5763 -0.9040
  649MOL0     O85539   4.653  10.453   0.066 -0.0569 -0.7854 -0.0575
  649MOL0     C85540   4.721  10.348   0.005  0.2127  0.9642 -0.5206
  649MOL0     C85541   4.832  10.283   0.061 -0.9860 -0.4318  0.2754
  649MOL0     C85542   4.891  10.189  -0.024 -0.1675  0.5153  0.1974
  649MOL0     C85543   4.840  10.145  -0.143 -0.5279 -0.6069  0.4905
  649MOL0     O85544   4.902  10.054  -0.216 -0.1578  0.4157  0.6553
  649MOL0     C85545   5.007  10.115  -0.301 -0.3109  0.1612 -0.8274
  649MOL0     C85546   5.093  10.002  -0.355 -0.9818 -0.1945 -0.2285
  649MOL0     C85547   5.226  10.064  -0.401 -0.9992 -0.6777 -0.6033
  649MOL0     C85548   5.315   9.948  -0.448 -1.2229  0.3646  0.7225
  649MOL0     C85549   5.456  10.000  -0.471 -0.0711 -0.5310  0.5896
  649MOL0     C85550   5.554   9.886  -0.518  0.2091  0.0872 -1.0815
  649MOL0     C85551   5.681   9.939  -0.595 -0.0031 -0.0181  0.5476
  649MOL0     C85552   5.762   9.824  -0.657  0.2156 -0.2614 -0.7462
  649MOL0     N85553   5.704   9.761  -0.773 -0.7548 -0.4428  0.1941
  649MOL0     C85554   5.663   9.818  -0.890  0.6300 -0.5407  0.2385
  649MOL0     C85555   5.618   9.716  -0.967  0.9779  0.5239  0.6567
  649MOL0     C85556   5.586   9.725  -1.112  1.5488 -0.4510 -0.7372
  649MOL0     C85557   5.658   9.617  -1.193 -0.0797  0.1218  0.0881
  649MOL0     C85558   5.691   9.634  -1.341 -1.3209  0.2218  0.4125
  649MOL0     C85559   5.838   9.627  -1.373  0.4404 -1.0591 -0.2521
  649MOL0     O85560   5.882   9.489  -1.388  0.7625 -0.7388 -1.0254
  649MOL0     C85561   6.018   9.463  -1.390  0.4551 -0.3075 -0.5610
  649MOL0     C85562   6.056   9.330  -1.392  0.3005 -0.8181 -0.3306
  649MOL0     C85563   6.189   9.298  -1.390 -0.8246 -0.4602  0.1664
  649MOL0     C85564   6.293   9.397  -1.403  0.3523 -0.0692 -0.2437
  649MOL0     C85565   6.444   9.366  -1.437  0.4143 -0.2306  0.5745
  649MOL0     O85566   6.521   9.455  -1.382 -0.8676  0.2171 -0.1674
  649MOL0     C85567   6.650   9.475  -1.421  0.1999 -0.4324 -0.0992
  649MOL0     C85568   6.744   9.504  -1.319  0.6452  0.1515  0.3208
  649MOL0     C85569   6.875   9.530  -1.359  0.4496  0.1578  0.8516
  649MOL0     C85570   6.916   9.519  -1.496  0.3319 -0.2379 -0.2155
  649MOL0     O85571   7.044   9.534  -1.547  0.2846  0.2566 -0.4183
  649MOL0     C85572   7.149   9.532  -1.451  0.9727 -0.0517  0.1471
  649MOL0     C85573   7.211   9.395  -1.446  0.2100  0.7550  0.3193
  649MOL0     C85574   7.312   9.381  -1.330 -0.3901 -0.6281 -0.0025
  649MOL0     C85575   7.269   9.378  -1.188 -0.5740  0.1792 -0.2697
  649MOL0     C85576   7.402   9.399  -1.104  0.3426 -0.1416  0.4559
  649MOL0     C85577   7.467   9.260  -1.084  0.2336  0.3442  0.0444
  649MOL0     C85578   7.602   9.279  -1.004  0.8167  0.6696  0.3281
  649MOL0     C85579   7.687   9.147  -1.002  0.1817  0.2749  0.3129
  649MOL0    Cl85580   7.640   9.040  -0.860  0.3220 -0.1502  0.1306
  649MOL0     C85581   6.821   9.490  -1.597 -0.1313  0.2961  0.1770
  649MOL0     C85582   6.694   9.470  -1.559  0.6075  0.2710 -1.2180
  649MOL0     O85583   6.480   9.271  -1.514 -0.3653 -0.4450  0.8307
  649MOL0     C85584   6.252   9.528  -1.401 -0.2748 -0.1985  0.1930
  649MOL0     C85585   6.116   9.562  -1.388 -0.2745  0.7087  0.2845
  649MOL0     N85586   5.618   9.604  -0.892  0.5526 -0.5705  0.5343
  649MOL0     N85587   5.691   9.624  -0.788 -0.3186  0.6437  1.0048
  649MOL0     C85588   4.709  10.194  -0.172 -0.3982 -0.0820  0.0148
  649MOL0     C85589   4.653  10.305  -0.100  0.3846  0.0189 -0.0852
  649MOL0     C85590   4.618  10.632   0.243 -0.1906 -0.4288  0.8679
  649MOL0     C85591   4.494  10.580   0.264 -0.3201  0.8281 -0.0869
  649MOL0     C85592   4.415  10.655   0.362 -0.0885 -0.8157  0.3704
  649MOL0     C85593   4.454  10.760   0.430 -0.2360 -1.5985  0.1082
  649MOL0     O85594   4.388  10.828   0.529 -0.2679 -0.2273  0.0537
  649MOL0     C85595   4.246  10.814   0.534 -0.0224 -0.0541 -0.2846
  649MOL0     C85596   4.167  10.906   0.439  0.4622 -0.4183  1.0277
  649MOL0     C85597   4.214  11.054   0.450  0.1028 -0.1744  1.2042
  649MOL0     C85598   4.151  11.134   0.571 -0.0447  0.1457 -0.2052
  649MOL0     C85599   4.216  11.122   0.703 -0.7839  0.0305  0.6910
  649MOL0     C85600   4.268  11.118   0.803 -0.3188 -0.1944 -0.5315
  649MOL0     C85601   4.584  10.806   0.400  0.0607  0.5368 -0.5965
  649MOL0     C85602   4.659  10.749   0.305 -0.3367 -0.4280 -1.5297
  649MOL0     H85603   4.866  10.307   0.161  0.0347 -1.8102  0.2881
  649MOL0     H85604   4.976  10.132   0.013  0.0684 -1.7045 -3.3958
  649MOL0     H85605   5.072  10.178  -0.240  1.8515 -1.4704 -1.3160
  649MOL0     H85606   4.956  10.167  -0.383 -1.5692  0.0901 -0.1234
  649MOL0     H85607   5.047   9.944  -0.435  0.8291 -2.8952  0.5623
  649MOL0     H85608   5.120   9.933  -0.274  1.9062  0.4068 -0.5647
  649MOL0     H85609   5.282  10.105  -0.317  3.0888 -1.6737 -2.6226
  649MOL0     H85610   5.203  10.148  -0.467 -1.4326 -1.4498 -1.4642
  649MOL0     H85611   5.322   9.871  -0.371  0.9285  0.1898  0.4017
  649MOL0     H85612   5.276   9.895  -0.535  1.0049 -0.4289  0.1511
  649MOL0     H85613   5.491  10.037  -0.375 -0.0418 -0.2382  0.4672
  649MOL0     H85614   5.462  10.076  -0.550 -2.8798 -0.3312  0.4827
  649MOL0     H85615   5.499   9.820  -0.586 -1.6943  1.1734 -0.6888
  649MOL0     H85616   5.574   9.833  -0.425 -1.1234  2.8215  0.8991
  649MOL0     H85617   5.658  10.016  -0.670  1.3684  0.8796  0.9999
  649MOL0     H85618   5.758   9.984  -0.531  1.0201 -0.5890 -0.2502
  649MOL0     H85619   5.759   9.752  -0.575 -2.1802  0.6364  0.0191
  649MOL0     H85620   5.863   9.862  -0.679  0.7919 -0.2106  1.6322
  649MOL0     H85621   5.674   9.923  -0.913 -1.3260 -0.5078 -0.7936
  649MOL0     H85622   5.607   9.829  -1.138  0.5044  0.3702  1.4390
  649MOL0     H85623   5.478   9.715  -1.124  1.0890  2.7924 -0.0993
  649MOL0     H85624   5.590   9.531  -1.188 -0.8144  0.5760 -1.4141
  649MOL0     H85625   5.754   9.581  -1.154  0.1136  1.3528  0.7984
  649MOL0     H85626   5.638   9.553  -1.393 -1.6729  0.9304 -0.3434
  649MOL0     H85627   5.652   9.729  -1.379  0.8742  0.6937 -0.8406
  649MOL0     H85628   5.893   9.673  -1.290 -0.3725  1.1951 -0.8892
  649MOL0     H85629   5.860   9.680  -1.466 -1.1808  0.8489  0.3953
  649MOL0     H85630   5.979   9.254  -1.386 -0.2867 -0.2604 -0.6682
  649MOL0     H85631   6.214   9.194  -1.409 -1.2576 -0.2950 -1.4536
  649MOL0     H85632   6.700   9.523  -1.222 -1.0280 -1.2739 -0.1182
  649MOL0     H85633   6.944   9.550  -1.277 -0.1385  0.4656  1.2784
  649MOL0     H85634   7.118   9.558  -1.349 -2.5561 -1.8268 -0.3257
  649MOL0     H85635   7.229   9.600  -1.481  0.3344  0.3918 -0.6007
  649MOL0     H85636   7.265   9.372  -1.538  1.2259 -0.4253  1.1853
  649MOL0     H85637   7.126   9.326  -1.447  0.5428  0.1822 -3.7321
  649MOL0     H85638   7.371   9.470  -1.351 -2.9586  1.1388 -0.1442
  649MOL0     H85639   7.371   9.289  -1.338 -1.0608 -1.1062  0.4181
  649MOL0     H85640   7.205   9.465  -1.168 -0.4858  0.7486 -2.3077
  649MOL0     H85641   7.220   9.285  -1.156 -0.0181 -0.0057  0.0582
  649MOL0     H85642   7.374   9.438  -1.006 -1.5955 -0.5884  0.1076
  649MOL0     H85643   7.464   9.475  -1.154  3.0104 -0.5079  2.9339
  649MOL0     H85644   7.488   9.199  -1.172  0.2294 -1.5789  1.3088
  649MOL0     H85645   7.410   9.190  -1.023 -1.8847 -1.7893 -4.0244
  649MOL0     H85646   7.644   9.368  -1.052 -0.1681  0.1242 -1.6186
  649MOL0     H85647   7.575   9.308  -0.902  1.9414  1.5633  0.3858
  649MOL0     H85648   7.790   9.173  -0.976 -0.1365  0.4106  1.5045
  649MOL0     H85649   7.680   9.089  -1.095 -2.4586 -1.6713  1.6042
  649MOL0     H85650   6.844   9.488  -1.703 -0.9224  0.2508 -0.0018
  649MOL0     H85651   6.616   9.458  -1.634  0.2894 -0.7008 -0.7501
  649MOL0     H85652   6.320   9.612  -1.407 -0.8418  0.1592 -1.8703
  649MOL0     H85653   6.090   9.666  -1.371  2.9916  1.0682  4.8044
  649MOL0     H85654   4.667  10.153  -0.263  1.0135 -1.4842 -0.0557
  649MOL0     H85655   4.553  10.343  -0.118 -0.2160 -1.0262  0.8935
  649MOL0     H85656   4.454  10.492   0.216  0.1620  0.7127 -0.2766
  649MOL0     H85657   4.318  10.607   0.375 -1.3342  1.1586 -0.9645
  649MOL0     H85658   4.208  10.854   0.628 -0.5234  1.3198 -1.0463
  649MOL0     H85659   4.210  10.710   0.541 -2.0300  0.5801 -0.4260
  649MOL0     H85660   4.143  10.865   0.341 -0.6212  2.3473  0.0356
  649MOL0     H85661   4.065  10.910   0.480  0.1793 -0.4204  0.3422
  649MOL0     H85662   4.187  11.109   0.359  3.3612 -0.6937 -0.2327
  649MOL0     H85663   4.323  11.063   0.451  0.1717 -0.9482  2.2389
  649MOL0     H85664   4.138  11.239   0.543 -1.6351  0.5809  1.9176
  649MOL0     H85665   4.047  11.105   0.590 -0.1950 -0.4520 -1.7441
  649MOL0     H85666   4.309  11.110   0.901 -3.0239  0.8046  0.7671
  649MOL0     H85667   4.633  10.898   0.431  2.2984  0.0476 -2.4309
  649MOL0     H85668   4.751  10.795   0.271 -0.2853 -1.4307 -2.8326
  650MOL0     O85669   6.134   5.766   6.628 -0.1722 -0.2820 -0.3000
  650MOL0     C85670   6.095   5.765   6.743  0.9346  0.0249  0.2550
  650MOL0     O85671   6.033   5.866   6.812  0.0154 -0.4603  0.4092
  650MOL0     C85672   6.026   5.988   6.751 -0.3714  0.4782  0.8718
  650MOL0     C85673   5.897   6.048   6.724 -1.2545 -0.2205  1.2991
  650MOL0     C85674   5.880   6.188   6.698  0.2492 -1.0074 -0.5626
  650MOL0     C85675   5.989   6.266   6.685 -0.6830  0.9372  0.0706
  650MOL0     O85676   5.974   6.396   6.646 -0.3458  0.2056  0.1760
  650MOL0     C85677   5.913   6.413   6.516 -0.4943  1.0822  0.2044
  650MOL0     C85678   5.912   6.561   6.492  0.0459 -0.5040 -0.0722
  650MOL0     C85679   5.890   6.591   6.343 -0.2312  0.0156 -0.6156
  650MOL0     C85680   5.899   6.750   6.309 -0.1481 -0.2980  1.0140
  650MOL0     C85681   5.749   6.803   6.295  0.2769  0.4377 -0.5950
  650MOL0     C85682   5.749   6.955   6.275  0.4398  0.3545 -0.6164
  650MOL0     C85683   5.600   7.000   6.303  0.0035 -0.3445  0.6707
  650MOL0     C85684   5.575   7.149   6.329  0.3395  0.7725  0.4839
  650MOL0     N85685   5.597   7.237   6.206 -0.1543  0.2219  0.9422
  650MOL0     C85686   5.521   7.345   6.171 -0.4373  0.1573  0.4482
  650MOL0     C85687   5.584   7.413   6.078  0.8920  0.5633  0.9741
  650MOL0     C85688   5.511   7.529   6.004 -0.5922  0.1373 -0.1929
  650MOL0     C85689   5.626   7.622   5.962  0.6115  0.6771  0.6546
  650MOL0     C85690   5.572   7.726   5.861  0.4628 -1.4097 -0.2167
  650MOL0     C85691   5.677   7.831   5.836  0.0022  0.0836 -0.6306
  650MOL0     O85692   5.786   7.762   5.773 -0.1520 -0.4267 -0.2538
  650MOL0     C85693   5.900   7.833   5.740 -0.1488  0.8472  0.5372
  650MOL0     C85694   5.907   7.972   5.736  0.3636 -1.1085 -0.0502
  650MOL0     C85695   6.019   8.035   5.692 -0.2696  0.2895  0.0229
  650MOL0     C85696   6.122   7.965   5.643  0.1092  0.0123  1.3213
  650MOL0     C85697   6.227   8.042   5.573 -0.2578 -0.1164  0.0344
  650MOL0     O85698   6.339   7.976   5.551  0.4637  0.4475 -0.4591
  650MOL0     C85699   6.434   8.011   5.462 -0.3113  0.3027 -0.7233
  650MOL0     C85700   6.401   8.092   5.352  0.3509 -0.3017  0.5267
  650MOL0     C85701   6.498   8.118   5.259  0.2419 -0.9494 -0.1082
  650MOL0     C85702   6.632   8.065   5.276  0.8373 -0.6673 -1.1952
  650MOL0     O85703   6.732   8.109   5.200  0.5920  0.3539  0.2599
  650MOL0     C85704   6.824   8.206   5.267 -1.4046  0.0354 -1.0113
  650MOL0     C85705   6.951   8.232   5.187  0.6874  0.0087  0.3141
  650MOL0     C85706   6.930   8.361   5.104 -1.0492 -0.8828  0.0355
  650MOL0     C85707   7.038   8.373   5.005  0.0445 -0.1360  0.0035
  650MOL0     C85708   7.052   8.514   4.960 -0.5066 -0.0687 -0.6727
  650MOL0     C85709   7.106   8.520   4.811  0.2090 -0.2975  0.1642
  650MOL0     C85710   7.151   8.659   4.774  0.0497 -0.0251  0.8756
  650MOL0     C85711   7.185   8.656   4.623  0.8208 -0.5099 -0.6868
  650MOL0    Cl85712   7.312   8.783   4.593 -0.2141  0.4186  0.3490
  650MOL0     C85713   6.661   7.979   5.384  0.1743 -0.7126  0.0236
  650MOL0     C85714   6.560   7.948   5.467  0.3707  0.5885  0.4779
  650MOL0     O85715   6.199   8.160   5.550 -0.8015 -0.5554  0.3898
  650MOL0     C85716   6.110   7.825   5.630  0.4903  0.0221 -0.8706
  650MOL0     C85717   6.004   7.753   5.688 -0.1964  0.4549  0.5509
  650MOL0     N85718   5.710   7.363   6.057 -1.1242 -1.1973  0.4418
  650MOL0     N85719   5.713   7.264   6.137 -0.8796  0.5815 -0.8467
  650MOL0     C85720   6.114   6.215   6.709  0.5643 -0.3302  0.9249
  650MOL0     C85721   6.136   6.078   6.746 -0.3600 -0.1115  0.1130
  650MOL0     C85722   6.131   5.642   6.816  0.2574 -0.1511 -0.7967
  650MOL0     C85723   6.245   5.570   6.772 -0.0142 -0.8708  1.0567
  650MOL0     C85724   6.294   5.476   6.852  0.6197  0.4901 -0.3942
  650MOL0     C85725   6.232   5.430   6.977 -0.1519 -0.8270  1.0458
  650MOL0     O85726   6.279   5.331   7.053 -0.7189  0.0601 -0.4437
  650MOL0     C85727   6.395   5.255   7.004 -0.2221  0.3258  0.0297
  650MOL0     C85728   6.348   5.138   6.918  0.1093 -0.3684  0.5828
  650MOL0     C85729   6.295   5.015   6.997 -0.0677  0.2679 -0.5009
  650MOL0     C85730   6.169   5.045   7.077  0.2420 -0.1952  0.2606
  650MOL0     C85731   6.104   4.914   7.104  0.1301  0.0140  0.3750
  650MOL0     C85732   6.057   4.803   7.123  0.4769  0.5441  0.1764
  650MOL0     C85733   6.109   5.496   7.007 -0.5994 -1.0303  0.3693
  650MOL0     C85734   6.068   5.603   6.935  0.0542  0.1281  0.2349
  650MOL0     H85735   5.810   5.987   6.746 -5.3495  4.6610  0.6666
  650MOL0     H85736   5.779   6.225   6.693  0.7665  1.1926  2.5944
  650MOL0     H85737   5.813   6.369   6.507  0.4661 -1.8173  2.2731
  650MOL0     H85738   5.978   6.361   6.446 -0.2460  0.2531  1.0356
  650MOL0     H85739   6.009   6.607   6.513 -0.2757  0.0334  0.2607
  650MOL0     H85740   5.840   6.603   6.563  2.3674  2.6838  0.6222
  650MOL0     H85741   5.802   6.533   6.315 -1.4325  0.6744  1.6053
  650MOL0     H85742   5.977   6.548   6.292  3.3147  1.7383  3.3118
  650MOL0     H85743   5.960   6.800   6.384 -0.3050 -0.2485  1.1103
  650MOL0     H85744   5.950   6.758   6.213 -1.2660  0.0981  0.4328
  650MOL0     H85745   5.702   6.779   6.390  0.1618  1.9293 -0.2377
  650MOL0     H85746   5.695   6.754   6.213  0.5765 -1.7730  0.4608
  650MOL0     H85747   5.783   6.985   6.176 -1.4087 -4.1206 -2.8938
  650MOL0     H85748   5.806   7.001   6.356 -1.3920  0.2081  0.8460
  650MOL0     H85749   5.541   6.983   6.213  0.1529  0.9273  0.3144
  650MOL0     H85750   5.552   6.942   6.382 -1.2065  0.8789  0.8668
  650MOL0     H85751   5.644   7.179   6.409  0.5187 -2.9195  1.9300
  650MOL0     H85752   5.480   7.167   6.380  1.5809 -0.8574  3.6613
  650MOL0     H85753   5.423   7.348   6.218 -0.4294 -0.5774  0.5236
  650MOL0     H85754   5.455   7.596   6.070  2.4994  0.2529  2.5470
  650MOL0     H85755   5.443   7.495   5.925  0.2519 -1.0070 -0.4483
  650MOL0     H85756   5.718   7.574   5.929  0.5704  2.3341 -2.2042
  650MOL0     H85757   5.634   7.679   6.055 -3.0072  2.3600  0.1323
  650MOL0     H85758   5.543   7.669   5.772  0.1931  0.4644 -1.3748
  650MOL0     H85759   5.491   7.782   5.910  3.0101  2.3798  0.0457
  650MOL0     H85760   5.719   7.886   5.920  2.0390 -0.9324 -0.9280
  650MOL0     H85761   5.643   7.894   5.753  2.8004  0.6702 -1.4450
  650MOL0     H85762   5.831   8.034   5.781  1.1664 -2.1800  3.0719
  650MOL0     H85763   6.010   8.143   5.701 -0.8721  0.6369 -3.2881
  650MOL0     H85764   6.300   8.125   5.331  0.4333 -0.7642 -0.6483
  650MOL0     H85765   6.460   8.158   5.165 -0.6526 -1.4831  0.0104
  650MOL0     H85766   6.856   8.159   5.361 -5.6036 -1.1205  0.0668
  650MOL0     H85767   6.779   8.305   5.278  1.5739  1.2319  2.5602
  650MOL0     H85768   6.973   8.145   5.125  0.9117  0.8534 -0.8290
  650MOL0     H85769   7.029   8.252   5.262 -0.5897  0.3966  1.5933
  650MOL0     H85770   6.926   8.439   5.180 -2.6267 -1.3354  0.4664
  650MOL0     H85771   6.836   8.355   5.047 -0.9712 -1.5567 -0.0372
  650MOL0     H85772   7.126   8.336   5.058 -0.7958 -1.2946  0.6580
  650MOL0     H85773   7.021   8.301   4.924 -1.3889 -0.4898  0.5802
  650MOL0     H85774   7.120   8.565   5.029 -2.1811  4.3500 -2.0017
  650MOL0     H85775   6.960   8.572   4.964 -1.2007 -0.9006 -2.9600
  650MOL0     H85776   7.032   8.488   4.737  1.7292 -1.1684 -1.0538
  650MOL0     H85777   7.198   8.460   4.805  1.5707  1.6519  0.6226
  650MOL0     H85778   7.065   8.724   4.790  1.5594  2.2538  0.1988
  650MOL0     H85779   7.237   8.691   4.834  0.8156 -1.9849  0.9045
  650MOL0     H85780   7.086   8.660   4.577 -0.3477 -3.2316  1.2960
  650MOL0     H85781   7.226   8.561   4.587  1.6364 -0.9067  1.1276
  650MOL0     H85782   6.761   7.942   5.402 -0.1700 -0.6094  2.5142
  650MOL0     H85783   6.583   7.877   5.545  1.4437  0.5104  0.1001
  650MOL0     H85784   6.172   7.767   5.562 -1.6929 -0.2484 -2.7511
  650MOL0     H85785   5.982   7.647   5.684  0.1022  0.3786  0.8703
  650MOL0     H85786   6.190   6.287   6.680 -0.5197  0.5283  0.1263
  650MOL0     H85787   6.235   6.048   6.777  0.5444  1.3932 -1.1602
  650MOL0     H85788   6.293   5.599   6.679 -3.0283  3.5338  0.5496
  650MOL0     H85789   6.391   5.437   6.823  1.1425 -2.3523  4.1708
  650MOL0     H85790   6.455   5.224   7.091  0.4200 -1.8402 -1.1059
  650MOL0     H85791   6.477   5.309   6.955 -1.2260  2.3783  0.5339
  650MOL0     H85792   6.274   5.164   6.842 -0.0887 -0.1339  0.8572
  650MOL0     H85793   6.430   5.098   6.856 -1.9637 -2.9367 -0.7291
  650MOL0     H85794   6.371   4.992   7.073  0.3497 -2.8796 -1.7160
  650MOL0     H85795   6.275   4.932   6.929 -0.0157  0.5861 -0.9066
  650MOL0     H85796   6.189   5.098   7.170 -0.8988  1.3695 -0.3529
  650MOL0     H85797   6.096   5.113   7.032 -1.1928  0.5686  3.4761
  650MOL0     H85798   6.016   4.705   7.137 -2.1892  1.3710 -1.1959
  650MOL0     H85799   6.059   5.459   7.096  2.3681 -1.4110  2.0248
  650MOL0     H85800   5.986   5.669   6.959 -1.9135 -2.3032  0.6218
  651MOL0     O85801   2.619   3.034   1.911 -1.1295  0.0829  0.0359
  651MOL0     C85802   2.584   3.012   2.022  1.2657 -0.4229 -0.1299
  651MOL0     O85803   2.490   2.922   2.053 -0.6665 -0.0291 -0.0641
  651MOL0     C85804   2.417   2.846   1.962 -0.5220  0.8644 -0.2471
  651MOL0     C85805   2.411   2.861   1.819  1.1665  1.1119  0.0272
  651MOL0     C85806   2.345   2.764   1.746  0.8914 -0.0474  0.7296
  651MOL0     C85807   2.303   2.644   1.808  0.5310  0.2628 -0.0103
  651MOL0     O85808   2.256   2.542   1.726 -0.2838  0.6038 -0.1047
  651MOL0     C85809   2.214   2.418   1.776 -0.7339 -0.3104 -0.4787
  651MOL0     C85810   2.148   2.334   1.666  0.2773  1.0639 -0.6517
  651MOL0     C85811   2.080   2.209   1.730 -0.1804 -0.0082 -1.2109
  651MOL0     C85812   1.993   2.132   1.631  0.3208 -0.0517  0.3132
  651MOL0     C85813   1.900   2.030   1.697 -0.3163  0.3368 -0.1341
  651MOL0     C85814   1.841   1.940   1.595  0.8622  0.0921  0.0848
  651MOL0     C85815   1.714   1.870   1.646 -0.1810  1.0506  0.4472
  651MOL0     C85816   1.584   1.960   1.627  0.8405  0.3308 -0.6312
  651MOL0     N85817   1.545   1.994   1.493  0.3737 -0.3905 -0.7781
  651MOL0     C85818   1.555   2.122   1.442 -0.4184 -1.1336 -0.3816
  651MOL0     C85819   1.473   2.134   1.338  0.1812  0.2856  0.2237
  651MOL0     C85820   1.461   2.264   1.258  0.6941 -0.2092 -0.4851
  651MOL0     C85821   1.523   2.237   1.120  0.3594 -0.1689  0.3241
  651MOL0     C85822   1.673   2.209   1.135 -0.2812  1.1956 -0.9960
  651MOL0     C85823   1.748   2.218   1.002 -0.9325 -0.1530  0.5800
  651MOL0     O85824   1.808   2.346   1.021 -0.0804 -0.1149 -0.1722
  651MOL0     C85825   1.921   2.360   0.947  0.2489 -0.2472  1.4552
  651MOL0     C85826   1.986   2.479   0.978  0.2969 -0.1359 -0.2573
  651MOL0     C85827   2.118   2.508   0.922  0.0426 -0.3218  0.3087
  651MOL0     C85828   2.173   2.431   0.819 -0.4991  0.7813 -0.0841
  651MOL0     C85829   2.313   2.454   0.764 -0.3982  0.3396 -0.1752
  651MOL0     O85830   2.379   2.355   0.698 -0.7367  0.4222 -0.6195
  651MOL0     C85831   2.505   2.375   0.663  0.4852 -0.8960  0.1522
  651MOL0     C85832   2.614   2.355   0.752 -0.6512  0.6465 -0.0019
  651MOL0     C85833   2.742   2.386   0.705  0.4133  0.1566 -0.7585
  651MOL0     C85834   2.778   2.418   0.577 -0.4396  1.1885  0.2448
  651MOL0     O85835   2.902   2.405   0.520  0.2155 -0.0636  0.5604
  651MOL0     C85836   3.015   2.394   0.602 -0.1568  0.5012  0.7023
  651MOL0     C85837   3.140   2.439   0.528 -0.3084 -0.9305 -0.8966
  651MOL0     C85838   3.266   2.385   0.600 -0.4514 -0.8131 -0.5552
  651MOL0     C85839   3.395   2.439   0.542 -1.0261 -0.0789  0.7073
  651MOL0     C85840   3.521   2.346   0.572 -0.0273 -0.0472 -0.1289
  651MOL0     C85841   3.533   2.226   0.485  0.2158 -0.2959 -0.3293
  651MOL0     C85842   3.678   2.179   0.481 -0.9165  0.1511  0.1663
  651MOL0     C85843   3.761   2.246   0.369 -0.5292 -0.2182  0.9908
  651MOL0    Cl85844   3.677   2.212   0.210  0.0169  0.0979 -0.0924
  651MOL0     C85845   2.670   2.444   0.487  0.0305 -0.7811  0.2509
  651MOL0     C85846   2.533   2.429   0.532  1.1017 -0.3932  0.1000
  651MOL0     O85847   2.352   2.569   0.775  0.0402 -0.0166  0.0150
  651MOL0     C85848   2.091   2.320   0.773 -0.3078 -0.2022 -0.3089
  651MOL0     C85849   1.970   2.286   0.834  0.2022 -0.1043 -0.7977
  651MOL0     N85850   1.405   2.011   1.329  0.1383 -0.3700  0.2308
  651MOL0     N85851   1.448   1.931   1.429  0.2842 -0.2982  0.3209
  651MOL0     C85852   2.310   2.628   1.948  0.6885  0.2051  0.1540
  651MOL0     C85853   2.360   2.736   2.019 -0.6488 -0.7096 -0.4308
  651MOL0     C85854   2.621   3.111   2.136 -0.5386  0.9190 -0.2970
  651MOL0     C85855   2.713   3.207   2.107  0.4615  0.3271 -0.1825
  651MOL0     C85856   2.753   3.302   2.204  0.0871  0.0102  0.0311
  651MOL0     C85857   2.691   3.308   2.328  0.1561 -0.4725  0.8716
  651MOL0     O85858   2.739   3.402   2.417 -0.0049  0.1118 -0.8985
  651MOL0     C85859   2.709   3.389   2.560 -0.1741 -0.1997  0.7681
  651MOL0     C85860   2.824   3.446   2.644  0.0479 -0.3875  0.2238
  651MOL0     C85861   2.852   3.596   2.611 -0.4520  0.1276  0.4680
  651MOL0     C85862   2.778   3.688   2.714 -0.1599  1.0391  0.7050
  651MOL0     C85863   2.801   3.820   2.674 -1.0895 -0.0759  0.4960
  651MOL0     C85864   2.813   3.928   2.630  0.4253 -0.3067 -0.3576
  651MOL0     C85865   2.595   3.211   2.356  0.9195  0.6286  0.1209
  651MOL0     C85866   2.560   3.114   2.260  0.3293  0.6236  1.0992
  651MOL0     H85867   2.464   2.944   1.776  1.2711  0.3566 -1.3607
  651MOL0     H85868   2.333   2.760   1.638  0.7723 -2.1275  0.7713
  651MOL0     H85869   2.144   2.437   1.858  0.0294 -0.1016  0.1309
  651MOL0     H85870   2.304   2.365   1.807 -0.0057  1.1401 -0.0338
  651MOL0     H85871   2.220   2.307   1.588  1.4070  1.3106  0.2665
  651MOL0     H85872   2.068   2.393   1.621 -0.3055  0.8809  0.1189
  651MOL0     H85873   2.012   2.228   1.813  0.5218 -0.5255 -0.4951
  651MOL0     H85874   2.161   2.149   1.775 -0.8482  2.9048  4.9857
  651MOL0     H85875   1.923   2.211   1.602 -0.0405 -1.6390 -3.6949
  651MOL0     H85876   2.045   2.101   1.540  0.4402  0.7712  0.0885
  651MOL0     H85877   1.827   2.080   1.762  1.4467  2.1734  0.5453
  651MOL0     H85878   1.970   1.967   1.753  0.5973  0.9920 -0.5184
  651MOL0     H85879   1.916   1.869   1.558 -0.7497 -1.0836 -1.0728
  651MOL0     H85880   1.804   1.989   1.504 -0.4619  1.6801  1.4165
  651MOL0     H85881   1.704   1.777   1.589 -0.8976 -1.5896  4.5137
  651MOL0     H85882   1.720   1.827   1.746  1.1578 -1.7586 -0.7083
  651MOL0     H85883   1.584   2.053   1.683  1.5746  1.6358 -2.7008
  651MOL0     H85884   1.490   1.910   1.656  0.2789  1.9725  0.4897
  651MOL0     H85885   1.605   2.212   1.476 -0.4201 -0.4000 -2.2443
  651MOL0     H85886   1.507   2.342   1.319  0.4047 -1.4818  1.4313
  651MOL0     H85887   1.356   2.292   1.245  1.0826  2.2718  1.1297
  651MOL0     H85888   1.509   2.329   1.063  0.5808  0.7687  1.7227
  651MOL0     H85889   1.464   2.157   1.077 -0.8743  0.0310  1.5688
  651MOL0     H85890   1.715   2.275   1.211 -0.1051 -0.8550  0.8082
  651MOL0     H85891   1.684   2.106   1.170 -1.9578  0.1609 -3.2301
  651MOL0     H85892   1.694   2.209   0.907  0.6211  1.1552 -0.4766
  651MOL0     H85893   1.821   2.137   1.004 -1.1405 -0.3876 -0.6858
  651MOL0     H85894   1.934   2.557   1.032 -1.8608 -0.6757 -1.4648
  651MOL0     H85895   2.166   2.597   0.960 -0.5657  0.2634 -0.2751
  651MOL0     H85896   2.586   2.328   0.854 -1.4596 -1.0965 -0.6380
  651MOL0     H85897   2.827   2.370   0.771 -0.2797 -0.2361  0.0601
  651MOL0     H85898   3.022   2.288   0.629  0.7630  0.1487 -0.7528
  651MOL0     H85899   3.018   2.462   0.687  0.9907  1.8118 -0.3334
  651MOL0     H85900   3.145   2.547   0.542 -0.4602 -1.1759  1.3328
  651MOL0     H85901   3.139   2.419   0.420 -0.4016  0.3253 -1.1454
  651MOL0     H85902   3.273   2.279   0.572  0.6854 -0.3828 -2.0402
  651MOL0     H85903   3.267   2.400   0.708 -0.0698 -2.8570 -0.2337
  651MOL0     H85904   3.387   2.448   0.433 -1.7297  0.8502  0.8199
  651MOL0     H85905   3.416   2.542   0.575  1.2649 -0.2004 -0.2090
  651MOL0     H85906   3.510   2.314   0.676 -2.3410  0.4298 -0.1885
  651MOL0     H85907   3.616   2.400   0.563 -0.3942  0.8011  0.9546
  651MOL0     H85908   3.500   2.259   0.386  2.3522  0.9681 -0.6838
  651MOL0     H85909   3.463   2.149   0.520 -0.0777  0.0410 -0.1674
  651MOL0     H85910   3.733   2.195   0.575  2.1937 -1.5343 -1.2077
  651MOL0     H85911   3.665   2.071   0.466 -2.2890  0.3275  0.0242
  651MOL0     H85912   3.861   2.204   0.357  0.2710  2.2001 -2.1105
  651MOL0     H85913   3.761   2.354   0.385 -0.1505 -0.0492 -0.0765
  651MOL0     H85914   2.667   2.481   0.385  1.7753  3.1627  1.4170
  651MOL0     H85915   2.451   2.462   0.468 -1.7685 -1.9126  2.6891
  651MOL0     H85916   2.135   2.267   0.689  3.4367  2.0675  0.0191
  651MOL0     H85917   1.906   2.214   0.783 -3.3244  0.2234  2.7079
  651MOL0     H85918   2.279   2.537   2.000 -0.6923 -0.9825 -2.5188
  651MOL0     H85919   2.362   2.729   2.128 -1.4950  0.4212 -0.3308
  651MOL0     H85920   2.770   3.204   2.014  1.9594  1.2082  0.6526
  651MOL0     H85921   2.835   3.369   2.185  1.5056 -1.4548  0.7813
  651MOL0     H85922   2.684   3.290   2.599  0.7153 -0.6244  0.2884
  651MOL0     H85923   2.629   3.461   2.582 -1.3832 -1.1529 -0.3604
  651MOL0     H85924   2.820   3.433   2.753  2.6747 -0.2964  0.3999
  651MOL0     H85925   2.917   3.390   2.624  1.5218  1.3221  1.8620
  651MOL0     H85926   2.802   3.624   2.518 -1.4454  0.9098  1.2118
  651MOL0     H85927   2.960   3.614   2.613 -0.0691 -1.8280  3.2209
  651MOL0     H85928   2.671   3.673   2.696  0.2816  0.8122 -2.2399
  651MOL0     H85929   2.820   3.658   2.810  2.8997  0.4920 -0.6780
  651MOL0     H85930   2.835   4.024   2.588 -1.7499  0.9438  1.1870
  651MOL0     H85931   2.536   3.200   2.446  0.6641 -0.0100 -0.1156
  651MOL0     H85932   2.485   3.039   2.281  1.9266 -0.8859  1.6317
  652MOL0     O85933   5.117  11.072   9.655  0.5072  1.0306 -0.2227
  652MOL0     C85934   5.187  11.148   9.589 -0.9672 -0.1756 -0.1332
  652MOL0     O85935   5.153  11.279   9.550 -0.3099  0.1507 -0.1059
  652MOL0     C85936   5.032  11.319   9.603 -0.4445  0.7424 -0.6001
  652MOL0     C85937   4.916  11.300   9.535  0.2244  0.3828  0.3045
  652MOL0     C85938   4.800  11.332   9.598  0.0648 -0.0368  0.0067
  652MOL0     C85939   4.794  11.391   9.721 -0.0310 -0.8928  0.7102
  652MOL0     O85940   4.677  11.447   9.772  0.2447 -0.0616  0.1200
  652MOL0     C85941   4.543  11.401   9.727  0.4560  0.1058  0.1948
  652MOL0     C85942   4.433  11.471   9.795 -0.7355 -0.5283  0.7146
  652MOL0     C85943   4.437  11.487   9.945 -0.1749 -0.2091 -0.0544
  652MOL0     C85944   4.448  11.363  10.042 -0.1030  0.1688 -0.2714
  652MOL0     C85945   4.463  11.428  10.177  1.1666  0.6499  0.4653
  652MOL0     C85946   4.447  11.314  10.291 -0.5527 -0.3630 -0.3105
  652MOL0     C85947   4.449  11.375  10.433 -0.2113  0.0919  0.8843
  652MOL0     C85948   4.479  11.260  10.535 -0.1274  0.5598 -0.4780
  652MOL0     N85949   4.478  11.305  10.674 -0.2620 -0.0002  0.9606
  652MOL0     C85950   4.429  11.218  10.763 -0.0743  0.0573 -0.7781
  652MOL0     C85951   4.417  11.293  10.876 -0.2890 -0.1432  0.0411
  652MOL0     C85952   4.343  11.259  10.994  0.8019  0.5070 -0.8013
  652MOL0     C85953   4.192  11.243  10.966 -0.2144  0.4680  0.5308
  652MOL0     C85954   4.122  11.378  10.943 -1.2000  0.3357  0.2115
  652MOL0     C85955   3.976  11.346  10.921 -1.0918 -0.1419  0.1521
  652MOL0     O85956   3.916  11.311  11.048  0.0794 -0.2364 -0.8702
  652MOL0     C85957   3.790  11.251  11.050  0.1126  0.4866 -0.0153
  652MOL0     C85958   3.790  11.116  11.089  0.1765  0.5428 -0.2535
  652MOL0     C85959   3.672  11.046  11.097 -0.6060 -0.5817 -0.3579
  652MOL0     C85960   3.549  11.103  11.060 -0.9552 -0.9686 -0.0830
  652MOL0     C85961   3.423  11.036  11.084  0.4193 -0.6679  0.4366
  652MOL0     O85962   3.308  11.111  11.116 -0.2971 -0.0254 -0.0335
  652MOL0     C85963   3.185  11.048  11.124 -0.8844  0.0207  0.0618
  652MOL0     C85964   3.144  11.011  11.251  0.0261 -0.4675  0.9997
  652MOL0     C85965   3.025  10.942  11.270  0.3649 -0.2596  0.0279
  652MOL0     C85966   2.943  10.917  11.167 -1.0600 -0.2669 -0.1581
  652MOL0     O85967   2.826  10.861  11.189  0.5693  0.4495  0.2444
  652MOL0     C85968   2.734  10.925  11.285 -0.2475  0.5185  0.8418
  652MOL0     C85969   2.673  11.069  11.261  0.8371  0.5669 -0.1243
  652MOL0     C85970   2.596  11.103  11.133 -0.1367 -0.4944  0.8191
  652MOL0     C85971   2.540  11.254  11.129  0.4720  0.7897  0.8786
  652MOL0     C85972   2.503  11.308  10.993 -0.2863 -1.0473  0.4555
  652MOL0     C85973   2.461  11.452  11.010  0.3387 -0.6922  0.0574
  652MOL0     C85974   2.451  11.530  10.870  0.0982 -0.1548  0.1996
  652MOL0     C85975   2.435  11.676  10.882 -0.0281  0.2047  0.8626
  652MOL0    Cl85976   2.430  11.736  10.718  0.6793 -0.0715  0.3791
  652MOL0     C85977   2.983  10.938  11.035 -0.2733  0.5793 -1.2941
  652MOL0     C85978   3.099  11.012  11.012  0.1604  0.5387 -0.0380
  652MOL0     O85979   3.416  10.923  11.057 -0.0370 -0.1439 -0.1914
  652MOL0     C85980   3.552  11.236  11.009 -0.4093  0.8741 -0.1243
  652MOL0     C85981   3.674  11.309  11.012  0.2679  0.2665 -0.0108
  652MOL0     N85982   4.463  11.424  10.857  0.3922 -0.3556 -0.1583
  652MOL0     N85983   4.507  11.428  10.732  0.1818 -0.3592  0.2037
  652MOL0     C85984   4.910  11.421   9.793  0.0577  0.9288 -0.2703
  652MOL0     C85985   5.030  11.377   9.734 -0.2272 -0.4899  0.1904
  652MOL0     C85986   5.321  11.096   9.554  0.2632  1.2734 -0.9730
  652MOL0     C85987   5.414  11.173   9.485 -0.5578  0.0644  0.5126
  652MOL0     C85988   5.543  11.125   9.466 -0.2015  0.3541 -0.1214
  652MOL0     C85989   5.583  10.999   9.522 -0.2319 -0.3503 -0.0683
  652MOL0     O85990   5.721  10.974   9.514  0.3154 -0.4389 -0.0616
  652MOL0     C85991   5.777  10.846   9.565 -0.8308 -0.0118  0.2436
  652MOL0     C85992   5.924  10.880   9.576 -0.3304  0.3015  0.1362
  652MOL0     C85993   6.010  10.742   9.586 -0.0790 -0.9124  0.4263
  652MOL0     C85994   6.161  10.775   9.573  0.7417  0.5039  0.1938
  652MOL0     C85995   6.189  10.793   9.428  0.8554  0.1469  0.4131
  652MOL0     C85996   6.188  10.796   9.307 -0.1225  0.1662 -1.4264
  652MOL0     C85997   5.489  10.911   9.569 -0.2866 -0.4514 -0.5667
  652MOL0     C85998   5.356  10.956   9.586  0.4445 -0.7329  0.4566
  652MOL0     H85999   4.929  11.260   9.435 -0.7939  2.5806 -0.7728
  652MOL0     H86000   4.710  11.308   9.541  1.3762 -1.4803 -1.5569
  652MOL0     H86001   4.532  11.292   9.734  2.5044 -0.2977 -1.5719
  652MOL0     H86002   4.541  11.414   9.618  2.7377 -0.5872  0.0155
  652MOL0     H86003   4.337  11.427   9.769 -0.1877 -1.2769 -0.0808
  652MOL0     H86004   4.431  11.572   9.751 -1.2612 -0.0929  1.7037
  652MOL0     H86005   4.343  11.534   9.978 -0.3121  0.6636 -1.5857
  652MOL0     H86006   4.521  11.552   9.972  3.2475 -4.8115  1.5970
  652MOL0     H86007   4.357  11.306  10.023  0.5125 -0.6786 -0.7275
  652MOL0     H86008   4.528  11.292  10.021  0.6502  1.3017 -1.3882
  652MOL0     H86009   4.385  11.503  10.190 -1.8463 -2.0713 -0.5957
  652MOL0     H86010   4.564  11.468  10.166  0.7789  0.8754 -4.3011
  652MOL0     H86011   4.527  11.240  10.279 -0.7018 -0.7041  0.7158
  652MOL0     H86012   4.352  11.261  10.283  0.8592 -3.4241  1.5430
  652MOL0     H86013   4.528  11.448  10.454  0.4095 -0.4256  0.4152
  652MOL0     H86014   4.352  11.418  10.458 -0.7423 -1.5944  1.8785
  652MOL0     H86015   4.566  11.201  10.508 -0.2343 -2.6535  4.8187
  652MOL0     H86016   4.404  11.180  10.530  2.0491 -1.4727 -3.6348
  652MOL0     H86017   4.382  11.120  10.753  1.8590 -1.1643  1.0923
  652MOL0     H86018   4.352  11.337  11.071 -2.4769  0.9837 -0.7434
  652MOL0     H86019   4.376  11.167  11.042 -2.7890  0.8702  2.9430
  652MOL0     H86020   4.136  11.211  11.055 -1.9699  3.0857  0.4728
  652MOL0     H86021   4.169  11.169  10.889  1.3941 -2.7637  2.8650
  652MOL0     H86022   4.138  11.455  11.020 -0.0789  2.0882 -1.6584
  652MOL0     H86023   4.159  11.419  10.849  3.1324 -2.1873  0.5662
  652MOL0     H86024   3.971  11.262  10.851 -1.7464 -1.0080  1.2116
  652MOL0     H86025   3.931  11.441  10.890  2.6610  2.5530  2.2005
  652MOL0     H86026   3.889  11.081  11.117  0.8242 -2.0897 -4.8626
  652MOL0     H86027   3.656  10.951  11.148 -2.3761 -1.7260 -2.8395
  652MOL0     H86028   3.215  11.027  11.331  3.2051 -1.0894 -1.5078
  652MOL0     H86029   2.990  10.893  11.360 -2.0939 -0.3056 -0.8691
  652MOL0     H86030   2.784  10.939  11.381  0.1645  6.7078  0.1094
  652MOL0     H86031   2.641  10.868  11.297 -0.5433  1.1413  1.5442
  652MOL0     H86032   2.757  11.139  11.265  1.1067  0.2323  0.1945
  652MOL0     H86033   2.602  11.092  11.340  0.9967 -1.9199  0.8245
  652MOL0     H86034   2.509  11.037  11.124 -2.0492  1.7480  1.8446
  652MOL0     H86035   2.654  11.072  11.045  2.4269  0.3776  2.0698
  652MOL0     H86036   2.452  11.253  11.194  2.1973 -2.0104  3.4216
  652MOL0     H86037   2.617  11.315  11.178  0.2988  1.6179  0.1429
  652MOL0     H86038   2.418  11.255  10.950 -1.1579  0.9094 -0.3462
  652MOL0     H86039   2.590  11.306  10.928 -2.2934  3.2613 -2.8171
  652MOL0     H86040   2.538  11.509  11.063  0.1119  0.7744 -1.1002
  652MOL0     H86041   2.365  11.466  11.061  1.1893 -1.0946  1.8391
  652MOL0     H86042   2.545  11.515  10.815 -0.8624 -1.7096 -1.0780
  652MOL0     H86043   2.376  11.486  10.804  0.6794 -1.9243  0.6762
  652MOL0     H86044   2.502  11.731  10.948 -0.6470 -0.4794  2.1132
  652MOL0     H86045   2.339  11.701  10.931 -0.5334  0.4630 -0.2297
  652MOL0     H86046   2.918  10.913  10.951  1.4068 -1.2537 -2.1302
  652MOL0     H86047   3.121  11.044  10.910  1.0032  2.2971  0.6589
  652MOL0     H86048   3.463  11.285  10.972 -1.3187 -0.7654 -0.2161
  652MOL0     H86049   3.663  11.412  10.980 -1.5457 -0.3814 -1.7199
  652MOL0     H86050   4.911  11.463   9.893 -1.2847 -1.5097  0.8700
  652MOL0     H86051   5.130  11.379   9.776  1.0701 -1.0737 -2.6668
  652MOL0     H86052   5.384  11.273   9.457 -1.7090 -0.2797  0.4338
  652MOL0     H86053   5.621  11.196   9.443  0.9152  0.3032  3.0379
  652MOL0     H86054   5.760  10.757   9.502  2.2947 -1.5028  1.2999
  652MOL0     H86055   5.741  10.823   9.665  2.7668  0.1488  1.7110
  652MOL0     H86056   5.957  10.929   9.484 -0.1681  2.0957  1.0809
  652MOL0     H86057   5.945  10.955   9.653  3.1112  0.2767 -0.6200
  652MOL0     H86058   5.965  10.671   9.517 -1.9131 -0.1413  0.7564
  652MOL0     H86059   5.987  10.700   9.685 -1.7155 -0.6226  0.1817
  652MOL0     H86060   6.193  10.856   9.640  1.4387 -0.6794  1.3420
  652MOL0     H86061   6.223  10.688   9.598  1.0135  0.8437  0.7450
  652MOL0     H86062   6.195  10.778   9.201  0.9978 -0.9025 -1.1881
  652MOL0     H86063   5.529  10.819   9.611  0.7393 -1.1400 -2.9277
  652MOL0     H86064   5.281  10.896   9.637  1.1352 -1.5388  0.5396
  653MOL0     O86065   2.339   4.746  10.644  0.1566 -0.1270 -0.3360
  653MOL0     C86066   2.355   4.819  10.547 -0.5569 -0.7850 -0.0367
  653MOL0     O86067   2.456   4.806  10.452  0.4332 -0.0811 -0.1467
  653MOL0     C86068   2.524   4.684  10.458 -1.1831 -0.3511  0.2474
  653MOL0     C86069   2.469   4.566  10.389 -0.1978  0.3993 -0.6427
  653MOL0     C86070   2.538   4.442  10.399 -0.5054  0.1239 -1.2884
  653MOL0     C86071   2.661   4.436  10.470 -0.4465  0.0184  0.3712
  653MOL0     O86072   2.728   4.325  10.493  0.6413  0.4699 -0.0716
  653MOL0     C86073   2.662   4.219  10.560 -0.4386  0.3548 -0.1944
  653MOL0     C86074   2.735   4.085  10.530  0.1867 -0.0443 -0.1081
  653MOL0     C86075   2.663   3.955  10.578  1.1663 -0.8870 -0.2601
  653MOL0     C86076   2.760   3.831  10.543 -0.0969 -0.5128 -0.5025
  653MOL0     C86077   2.729   3.698  10.606  0.4950 -0.1026  0.4220
  653MOL0     C86078   2.591   3.634  10.579  0.1070  0.0839 -0.1247
  653MOL0     C86079   2.563   3.497  10.646 -0.0428 -0.1746 -1.0558
  653MOL0     C86080   2.657   3.380  10.620  0.4761  0.5323  0.7952
  653MOL0     N86081   2.666   3.351  10.468  0.1899  0.0355  0.2757
  653MOL0     C86082   2.563   3.323  10.382 -0.0944  0.2640 -0.5826
  653MOL0     C86083   2.613   3.320  10.259  0.2185 -0.0686  1.2130
  653MOL0     C86084   2.540   3.281  10.135  0.4564  0.4194 -0.8232
  653MOL0     C86085   2.549   3.389  10.025 -0.3538  0.0968 -0.0188
  653MOL0     C86086   2.426   3.398   9.936 -0.3324  0.2278  0.4363
  653MOL0     C86087   2.451   3.512   9.836  0.0899  0.0585 -0.1019
  653MOL0     O86088   2.516   3.456   9.726  0.5162  0.1209  0.2051
  653MOL0     C86089   2.545   3.545   9.622  0.1267 -0.1254  0.5853
  653MOL0     C86090   2.549   3.685   9.627  0.6127  0.4035  0.9907
  653MOL0     C86091   2.580   3.759   9.509 -0.0660  0.1269  0.7214
  653MOL0     C86092   2.604   3.695   9.386  0.4935  0.4581  1.1898
  653MOL0     C86093   2.631   3.782   9.271 -0.1805 -0.3277 -0.1399
  653MOL0     O86094   2.706   3.732   9.166 -0.3625  0.0813 -0.6768
  653MOL0     C86095   2.729   3.806   9.058 -1.1241  0.1678 -0.1735
  653MOL0     C86096   2.628   3.835   8.967  0.9706 -0.1117 -0.5366
  653MOL0     C86097   2.661   3.903   8.844 -0.3540  0.1777  0.6553
  653MOL0     C86098   2.790   3.920   8.802 -0.2834  1.0276  0.5790
  653MOL0     O86099   2.818   3.957   8.676  0.5962  0.0070  0.5444
  653MOL0     C86100   2.936   3.921   8.604 -0.1503  0.0342  1.2306
  653MOL0     C86101   2.950   4.025   8.482  0.3353  0.0023 -0.0856
  653MOL0     C86102   2.850   4.003   8.370 -0.3219  1.5118 -0.0884
  653MOL0     C86103   2.818   4.131   8.293  0.0972  0.0027 -0.0926
  653MOL0     C86104   2.762   4.085   8.162 -0.3414  0.6472  0.5932
  653MOL0     C86105   2.705   4.197   8.080  0.1323 -1.3199 -0.6968
  653MOL0     C86106   2.639   4.132   7.957  0.4022 -0.0606 -0.0133
  653MOL0     C86107   2.582   4.238   7.856 -0.4686  0.2883 -0.1868
  653MOL0    Cl86108   2.445   4.328   7.955  0.3391  0.0854  0.0835
  653MOL0     C86109   2.890   3.887   8.885 -0.3070 -0.0659 -0.2511
  653MOL0     C86110   2.861   3.843   9.018  0.3496 -0.1815 -0.2524
  653MOL0     O86111   2.591   3.900   9.274  0.1967 -0.2169  0.0793
  653MOL0     C86112   2.605   3.560   9.383 -0.3892  0.3478  0.2597
  653MOL0     C86113   2.569   3.490   9.496 -0.0114 -0.1738  0.3892
  653MOL0     N86114   2.751   3.336  10.270  0.0502  0.6030 -0.5097
  653MOL0     N86115   2.779   3.372  10.394  0.0308 -0.2463 -0.4329
  653MOL0     C86116   2.712   4.553  10.527  0.2248  0.4832 -1.2178
  653MOL0     C86117   2.650   4.675  10.522  0.6284  0.4947 -0.9189
  653MOL0     C86118   2.253   4.930  10.539  0.4786  0.2646  0.4651
  653MOL0     C86119   2.272   5.041  10.455  0.1899 -0.5681 -0.2584
  653MOL0     C86120   2.186   5.152  10.458  0.3154 -0.4421  0.3181
  653MOL0     C86121   2.064   5.145  10.523 -0.0535 -0.0174 -0.4487
  653MOL0     O86122   1.986   5.261  10.522 -0.2297 -0.1443 -1.1796
  653MOL0     C86123   1.869   5.254  10.599  0.7584 -0.5338 -0.2662
  653MOL0     C86124   1.802   5.389  10.590 -0.6982  0.1762 -0.2567
  653MOL0     C86125   1.883   5.487  10.689 -1.6280 -0.1076  0.2220
  653MOL0     C86126   2.028   5.532  10.658 -0.3626 -0.2931  0.1420
  653MOL0     C86127   2.059   5.665  10.719 -0.2704  1.2079  1.1084
  653MOL0     C86128   2.070   5.778  10.762 -0.2299 -0.9052 -0.7897
  653MOL0     C86129   2.034   5.029  10.598  0.0074  0.4497 -1.3003
  653MOL0     C86130   2.129   4.934  10.615  0.0596  0.0855  0.2802
  653MOL0     H86131   2.389   4.571  10.315 -2.2813 -1.4082  1.3278
  653MOL0     H86132   2.503   4.346  10.363 -1.0467 -0.4897  0.6956
  653MOL0     H86133   2.557   4.212  10.531  0.5465  2.3394 -5.4117
  653MOL0     H86134   2.670   4.254  10.663  1.3212 -1.3224  0.3062
  653MOL0     H86135   2.836   4.102  10.568  0.4404 -2.1747  0.3079
  653MOL0     H86136   2.756   4.085  10.422  1.9905 -1.6136  0.1800
  653MOL0     H86137   2.567   3.936  10.531  2.3025 -0.9251 -2.7156
  653MOL0     H86138   2.645   3.964  10.686  1.9185  0.6360 -0.2219
  653MOL0     H86139   2.774   3.822  10.435 -0.7979  3.5698 -1.0884
  653MOL0     H86140   2.849   3.855  10.602 -0.0864 -1.7912  0.0380
  653MOL0     H86141   2.731   3.711  10.714 -0.7640 -3.0411  0.8763
  653MOL0     H86142   2.802   3.625  10.569 -0.3704 -1.1125  0.6660
  653MOL0     H86143   2.590   3.621  10.470  0.4143 -1.3058  0.0208
  653MOL0     H86144   2.523   3.714  10.611  2.0557  0.9516  2.1150
  653MOL0     H86145   2.544   3.516  10.752  1.5192  0.7651 -0.9201
  653MOL0     H86146   2.468   3.460  10.605  0.5591 -2.3162 -0.6363
  653MOL0     H86147   2.622   3.293  10.675 -2.2484  0.0372 -1.5604
  653MOL0     H86148   2.757   3.406  10.658  0.6754 -0.1599  0.7439
  653MOL0     H86149   2.457   3.308  10.401 -0.1157  2.1229  1.0558
  653MOL0     H86150   2.436   3.257  10.161  0.4591 -3.0327 -3.2917
  653MOL0     H86151   2.569   3.182  10.099 -1.3762 -0.4129 -0.1811
  653MOL0     H86152   2.631   3.349   9.965 -1.5117 -0.2778 -1.4025
  653MOL0     H86153   2.595   3.483  10.058  1.5624 -1.7848  3.2159
  653MOL0     H86154   2.400   3.305   9.885 -2.0115 -0.6199  2.6718
  653MOL0     H86155   2.342   3.413  10.005 -1.2797  0.8773 -0.8080
  653MOL0     H86156   2.490   3.600   9.888 -2.8197  1.7778 -0.5749
  653MOL0     H86157   2.355   3.536   9.790  0.6537 -0.6699 -1.6975
  653MOL0     H86158   2.530   3.735   9.721 -2.0889  0.2324  0.6143
  653MOL0     H86159   2.583   3.867   9.513 -0.7164  0.3564 -2.4432
  653MOL0     H86160   2.527   3.809   8.996  1.7558 -0.4149  2.1975
  653MOL0     H86161   2.587   3.936   8.771  1.0722  0.7503 -0.5918
  653MOL0     H86162   2.913   3.825   8.558 -0.1693 -0.7728  2.8719
  653MOL0     H86163   3.027   3.929   8.663 -0.8762  2.0152  2.1635
  653MOL0     H86164   3.052   4.029   8.444  0.2066 -1.1959 -0.5821
  653MOL0     H86165   2.933   4.121   8.532  0.1108 -0.2428  0.3199
  653MOL0     H86166   2.759   3.956   8.408  0.1898  0.0550 -0.5937
  653MOL0     H86167   2.904   3.937   8.301  2.7653  3.2210  0.4913
  653MOL0     H86168   2.748   4.194   8.348 -0.4373  0.2706 -1.0598
  653MOL0     H86169   2.901   4.202   8.285 -1.5752  2.1381  0.6677
  653MOL0     H86170   2.692   4.004   8.184  3.1345 -2.9547 -0.5326
  653MOL0     H86171   2.839   4.032   8.105 -1.2208  0.2810 -0.2812
  653MOL0     H86172   2.784   4.263   8.044  0.2283 -2.1844 -2.1609
  653MOL0     H86173   2.635   4.259   8.138 -0.5776  0.4562 -3.2502
  653MOL0     H86174   2.711   4.071   7.902 -0.6239 -0.8657 -0.4908
  653MOL0     H86175   2.562   4.064   7.994  2.2543 -2.9614 -1.1911
  653MOL0     H86176   2.530   4.192   7.772  0.7820 -3.3000  0.8624
  653MOL0     H86177   2.651   4.319   7.830  2.0897 -1.9244 -0.6406
  653MOL0     H86178   2.996   3.897   8.863  0.4590 -0.5079  2.8405
  653MOL0     H86179   2.952   3.814   9.070  0.5953 -1.8720 -1.5175
  653MOL0     H86180   2.641   3.518   9.289 -1.1196 -0.1508  0.1952
  653MOL0     H86181   2.572   3.382   9.490 -2.5585 -0.4104  2.0733
  653MOL0     H86182   2.795   4.549  10.596  0.8833  2.2015 -1.8541
  653MOL0     H86183   2.681   4.762  10.579  0.2983 -0.1854  0.3367
  653MOL0     H86184   2.369   5.054  10.409 -0.4236 -0.6888 -1.6392
  653MOL0     H86185   2.221   5.240  10.404 -1.3340  0.9028  1.3334
  653MOL0     H86186   1.902   5.235  10.702  0.3909  1.0658  0.1610
  653MOL0     H86187   1.801   5.175  10.565  0.3582 -1.4022  2.3380
  653MOL0     H86188   1.791   5.430  10.490 -0.0840  0.3963 -0.2398
  653MOL0     H86189   1.703   5.384  10.637  0.1571 -2.3739  1.5201
  653MOL0     H86190   1.884   5.444  10.789 -0.4911 -0.0365  0.2622
  653MOL0     H86191   1.828   5.581  10.689 -0.6284  0.5026 -0.5251
  653MOL0     H86192   2.101   5.462  10.697  0.9023  1.3319  0.7942
  653MOL0     H86193   2.033   5.546  10.549  1.7654  0.7075  0.3315
  653MOL0     H86194   2.087   5.877  10.800  1.0815 -2.1221  2.1068
  653MOL0     H86195   1.945   4.997  10.652  2.5558 -1.7930  1.9550
  653MOL0     H86196   2.112   4.854  10.687 -0.7172  1.4539  1.6794
  654MOL0     O86197   2.445   3.760  11.052  0.1285 -0.0597  0.4144
  654MOL0     C86198   2.468   3.746  11.171 -1.0724  0.7541 -0.2526
  654MOL0     O86199   2.547   3.646  11.232 -0.5790 -0.0842 -0.0481
  654MOL0     C86200   2.623   3.558  11.159  1.3840  0.8226  0.8276
  654MOL0     C86201   2.569   3.475  11.058 -0.0408 -0.1766  0.1135
  654MOL0     C86202   2.646   3.372  10.996 -0.0377 -0.1800 -0.1874
  654MOL0     C86203   2.771   3.341  11.054 -0.7253  0.3218 -0.1893
  654MOL0     O86204   2.848   3.239  11.012 -0.5888  1.0348 -0.2527
  654MOL0     C86205   2.913   3.244  10.882 -0.3951  0.4941  0.1072
  654MOL0     C86206   2.957   3.102  10.838  0.6407  0.2753  0.8238
  654MOL0     C86207   3.042   3.106  10.710  0.5651  0.2093 -1.0846
  654MOL0     C86208   2.960   3.167  10.596 -1.0081 -0.8514  0.3756
  654MOL0     C86209   2.995   3.106  10.460  0.5185 -0.2238  0.1768
  654MOL0     C86210   3.144   3.115  10.435  0.2059  0.0971 -0.0385
  654MOL0     C86211   3.174   3.044  10.303  0.2451  0.4343  0.4037
  654MOL0     C86212   3.318   3.064  10.257  0.5084 -0.1098  0.1453
  654MOL0     N86213   3.343   2.996  10.127  1.0367 -0.6566 -0.2714
  654MOL0     C86214   3.464   2.973  10.069 -0.5647 -0.3188  0.2222
  654MOL0     C86215   3.438   2.952   9.935 -0.1846  0.1375 -0.1205
  654MOL0     C86216   3.552   2.914   9.839  0.6641 -0.0915  0.9440
  654MOL0     C86217   3.503   2.899   9.701 -0.8200 -1.0552  1.0165
  654MOL0     C86218   3.608   2.832   9.603  0.0670  0.5630  0.5814
  654MOL0     C86219   3.597   2.882   9.453 -0.6581 -0.2405 -0.5325
  654MOL0     O86220   3.618   3.026   9.446  0.0181  0.1620 -0.9074
  654MOL0     C86221   3.661   3.082   9.328 -0.6285  0.1186 -0.3502
  654MOL0     C86222   3.679   3.009   9.215  0.2141  0.1207  0.1343
  654MOL0     C86223   3.721   3.078   9.098  0.2219  0.1549 -0.1179
  654MOL0     C86224   3.745   3.216   9.098  1.0635 -0.8970 -0.7032
  654MOL0     C86225   3.787   3.295   8.979 -0.1998 -0.0087  0.1009
  654MOL0     O86226   3.752   3.429   8.959 -0.1647 -0.7652 -0.7819
  654MOL0     C86227   3.781   3.498   8.846  0.0551  0.2764 -0.1926
  654MOL0     C86228   3.897   3.484   8.772 -0.5671 -0.5146 -0.3566
  654MOL0     C86229   3.908   3.554   8.651 -0.1061  1.2682 -0.2906
  654MOL0     C86230   3.796   3.610   8.588 -0.0814 -0.0848 -0.1201
  654MOL0     O86231   3.821   3.650   8.461 -0.6671 -0.1357 -0.1786
  654MOL0     C86232   3.714   3.733   8.410  0.6430  0.0062  0.5677
  654MOL0     C86233   3.769   3.805   8.282 -0.1962 -0.0183 -0.6509
  654MOL0     C86234   3.656   3.830   8.176 -0.5311  0.6711 -0.4661
  654MOL0     C86235   3.720   3.865   8.049  0.2765  0.5257  0.3667
  654MOL0     C86236   3.626   3.916   7.936  0.2921  0.1829  0.2157
  654MOL0     C86237   3.709   3.977   7.820  0.2433  0.7829  0.1000
  654MOL0     C86238   3.625   4.038   7.704  0.2528 -0.5544  0.7061
  654MOL0     C86239   3.700   4.098   7.582  0.1408 -0.2347 -0.2573
  654MOL0    Cl86240   3.814   4.228   7.641 -0.2839  0.0858 -0.0312
  654MOL0     C86241   3.675   3.633   8.665 -0.6080  0.2668 -1.4021
  654MOL0     C86242   3.677   3.581   8.800 -0.0920  0.1522  0.4044
  654MOL0     O86243   3.849   3.233   8.893 -0.2341  0.4573  0.5747
  654MOL0     C86244   3.717   3.289   9.216  0.4461  0.9902 -0.8239
  654MOL0     C86245   3.683   3.219   9.331 -0.1873 -0.1911  0.4704
  654MOL0     N86246   3.298   2.959   9.913 -0.3872 -0.0747 -0.4150
  654MOL0     N86247   3.251   2.984  10.026 -0.5543 -0.7041  0.5906
  654MOL0     C86248   2.829   3.422  11.161  0.0686  1.0231 -0.0267
  654MOL0     C86249   2.756   3.533  11.206  0.1226  0.2034 -0.4363
  654MOL0     C86250   2.406   3.842  11.255 -0.3102  0.1108  0.8998
  654MOL0     C86251   2.351   3.958  11.206  0.4025  0.3041 -1.0981
  654MOL0     C86252   2.281   4.047  11.291  0.1971 -0.3414 -0.8359
  654MOL0     C86253   2.272   4.020  11.429  0.5260 -0.8354  0.1119
  654MOL0     O86254   2.195   4.108  11.501  0.2217  0.0241 -0.3398
  654MOL0     C86255   2.242   4.143  11.632  0.5196 -0.1559 -0.8705
  654MOL0     C86256   2.333   4.263  11.626 -0.2842 -0.4017 -0.5252
  654MOL0     C86257   2.255   4.389  11.607 -0.2212 -0.7967 -0.1982
  654MOL0     C86258   2.331   4.523  11.623 -0.7295 -0.4672 -0.0572
  654MOL0     C86259   2.284   4.598  11.741 -0.7409  0.4566 -0.7378
  654MOL0     C86260   2.254   4.655  11.842  0.7872  1.3121  0.0376
  654MOL0     C86261   2.336   3.910  11.487  0.1147 -0.4152 -0.4517
  654MOL0     C86262   2.408   3.821  11.398  0.2296 -0.1091 -0.1955
  654MOL0     H86263   2.475   3.498  11.009  1.2185 -0.1039 -2.4592
  654MOL0     H86264   2.606   3.314  10.913 -2.3550  2.6514 -1.2194
  654MOL0     H86265   3.004   3.304  10.886  0.9216 -1.4019  0.0782
  654MOL0     H86266   2.850   3.280  10.801  0.0440  0.8195 -0.0883
  654MOL0     H86267   2.874   3.031  10.845  0.5818  0.2945  0.3325
  654MOL0     H86268   3.028   3.069  10.915  1.5313 -1.6232 -0.7416
  654MOL0     H86269   3.075   3.004  10.685  0.3643  0.7136 -3.6314
  654MOL0     H86270   3.132   3.168  10.714  1.7207 -1.2104 -3.2363
  654MOL0     H86271   2.853   3.145  10.610 -1.5746  0.4821 -1.4705
  654MOL0     H86272   2.967   3.276  10.596 -1.1961 -0.8305  1.4224
  654MOL0     H86273   2.933   3.158  10.386  1.3493  1.4315  0.6030
  654MOL0     H86274   2.961   3.002  10.463  0.2433 -0.1125  2.0500
  654MOL0     H86275   3.203   3.071  10.516  0.4381 -1.8749 -1.2259
  654MOL0     H86276   3.178   3.219  10.429 -2.0988  0.9548  0.7599
  654MOL0     H86277   3.143   2.939  10.314  1.4081 -0.1065 -1.1007
  654MOL0     H86278   3.100   3.078  10.230 -1.2453 -2.3395  0.4887
  654MOL0     H86279   3.384   3.017  10.330 -1.0482 -1.4338  0.7552
  654MOL0     H86280   3.326   3.173  10.253  2.5011 -0.2506 -2.9920
  654MOL0     H86281   3.567   2.964  10.105 -0.6656 -0.2733  0.5292
  654MOL0     H86282   3.580   2.813   9.872 -1.2964  0.1881  3.8288
  654MOL0     H86283   3.632   2.987   9.844  1.3820 -0.7023 -0.7327
  654MOL0     H86284   3.487   2.999   9.662  0.9289 -0.4950  1.6427
  654MOL0     H86285   3.403   2.855   9.700 -1.5385  0.5231  0.8198
  654MOL0     H86286   3.707   2.849   9.645 -1.4456  2.0285  3.8858
  654MOL0     H86287   3.608   2.722   9.603  0.9728  0.5320 -0.7257
  654MOL0     H86288   3.505   2.841   9.409 -0.1880 -1.4223 -0.4444
  654MOL0     H86289   3.676   2.823   9.407 -0.4866 -3.6300  3.4676
  654MOL0     H86290   3.663   2.902   9.208 -0.5174  0.2708 -0.7907
  654MOL0     H86291   3.740   3.026   9.005 -0.8495  1.2281 -0.9565
  654MOL0     H86292   3.990   3.433   8.798 -0.6697  0.5290  2.3847
  654MOL0     H86293   3.997   3.549   8.590  0.4402 -1.0679  0.5599
  654MOL0     H86294   3.684   3.819   8.471  0.6524  1.2557 -1.1051
  654MOL0     H86295   3.631   3.668   8.380 -0.6361  1.2982  1.1872
  654MOL0     H86296   3.837   3.736   8.230 -1.0697 -0.9569 -0.5955
  654MOL0     H86297   3.808   3.904   8.308  0.5708 -0.7354  1.1467
  654MOL0     H86298   3.588   3.901   8.224 -0.2182 -0.6327  2.0345
  654MOL0     H86299   3.604   3.734   8.173  2.4273 -1.2370  2.5393
  654MOL0     H86300   3.778   3.955   8.073  3.7172 -0.6344 -2.8018
  654MOL0     H86301   3.790   3.785   8.027  0.8695  0.5350  2.1197
  654MOL0     H86302   3.554   3.989   7.973  0.5519 -0.0345  1.1877
  654MOL0     H86303   3.573   3.831   7.891  3.6852 -1.8699 -0.2425
  654MOL0     H86304   3.779   3.910   7.770 -0.8245 -0.2048 -0.1339
  654MOL0     H86305   3.769   4.062   7.853  2.5873  0.7593 -3.5371
  654MOL0     H86306   3.569   3.955   7.659 -0.8517  0.1994  0.6441
  654MOL0     H86307   3.564   4.118   7.746  2.4327  2.6199 -1.7344
  654MOL0     H86308   3.637   4.148   7.507  0.6291 -2.3159 -2.1711
  654MOL0     H86309   3.764   4.025   7.531 -1.2366 -0.4764 -1.7176
  654MOL0     H86310   3.583   3.677   8.628 -1.0897 -0.9353 -1.7067
  654MOL0     H86311   3.588   3.575   8.862  0.0500 -3.5409  0.5010
  654MOL0     H86312   3.749   3.391   9.237  1.4910  0.8922 -1.8209
  654MOL0     H86313   3.669   3.282   9.418  1.7035  1.5643 -0.4115
  654MOL0     H86314   2.924   3.409  11.210 -1.0076 -0.7394  1.7567
  654MOL0     H86315   2.775   3.601  11.288  0.2342 -0.6521  0.2596
  654MOL0     H86316   2.353   3.988  11.101  0.1956 -1.4837 -1.6417
  654MOL0     H86317   2.235   4.138  11.255 -0.2763  1.7955  4.2811
  654MOL0     H86318   2.297   4.066  11.687 -3.1479 -1.5029  1.2964
  654MOL0     H86319   2.161   4.178  11.697  1.2959 -0.6432  0.3952
  654MOL0     H86320   2.395   4.280  11.714 -1.4567 -2.2409  0.7226
  654MOL0     H86321   2.395   4.258  11.536  2.1217  0.6249  0.9836
  654MOL0     H86322   2.169   4.385  11.675  0.6856 -2.7537  0.9264
  654MOL0     H86323   2.220   4.384  11.503 -3.1370  2.4995  0.4378
  654MOL0     H86324   2.440   4.510  11.626 -0.6801 -0.2968 -0.7498
  654MOL0     H86325   2.319   4.578  11.529  0.8336 -0.0786 -0.0543
  654MOL0     H86326   2.220   4.698  11.934 -1.4239  0.7581 -0.4455
  654MOL0     H86327   2.326   3.881  11.591 -0.2084  1.2755  0.0258
  654MOL0     H86328   2.434   3.725  11.440  0.3650 -0.1108 -0.2834
  655MOL0     O86329   2.502   9.905   9.978  0.2251 -0.4365 -0.1785
  655MOL0     C86330   2.565   9.797   9.953  0.1056  0.5095 -0.6191
  655MOL0     O86331   2.641   9.786   9.839  0.1516 -0.0200  0.3406
  655MOL0     C86332   2.682   9.904   9.785 -1.0729  0.5895  0.8018
  655MOL0     C86333   2.587   9.969   9.713  1.0625  0.1905 -0.7373
  655MOL0     C86334   2.606  10.093   9.649  0.0918 -0.0744 -0.1782
  655MOL0     C86335   2.733  10.156   9.660  0.4226  0.4126 -0.1679
  655MOL0     O86336   2.769  10.270   9.590 -0.2451  0.4648 -0.1958
  655MOL0     C86337   2.895  10.323   9.586  0.4191  0.3322 -1.1451
  655MOL0     C86338   2.918  10.436   9.486  0.9600  0.1617 -0.0086
  655MOL0     C86339   2.847  10.559   9.537  0.9474  0.6052 -0.0711
  655MOL0     C86340   2.850  10.671   9.425 -0.6020 -0.2183 -0.7083
  655MOL0     C86341   2.968  10.764   9.452 -0.1223  0.2159  0.9119
  655MOL0     C86342   3.004  10.840   9.330 -0.2165  0.3255  0.5193
  655MOL0     C86343   3.096  10.956   9.366  0.3905 -1.0361  0.6649
  655MOL0     C86344   3.240  10.917   9.341 -0.5414 -1.0529 -0.6072
  655MOL0     N86345   3.340  11.028   9.337  0.3230  0.0820  0.5501
  655MOL0     C86346   3.445  11.029   9.424  0.3693 -0.4521 -0.4789
  655MOL0     C86347   3.501  11.138   9.387 -0.2272 -1.3681 -0.2562
  655MOL0     C86348   3.609  11.209   9.458  0.4989  0.6718  0.4051
  655MOL0     C86349   3.701  11.302   9.387  0.0314  0.0533  0.5627
  655MOL0     C86350   3.777  11.397   9.486 -0.1351  0.2055 -0.0437
  655MOL0     C86351   3.933  11.397   9.478  0.5787  0.3043 -0.9873
  655MOL0     O86352   3.974  11.435   9.341 -0.1079 -0.3115  1.0839
  655MOL0     C86353   4.092  11.501   9.320 -0.1238  0.1576 -0.3864
  655MOL0     C86354   4.114  11.577   9.207  0.8159 -0.0750  0.0360
  655MOL0     C86355   4.220  11.652   9.182 -0.0598  1.4102 -0.1921
  655MOL0     C86356   4.321  11.666   9.279  0.1234 -0.2768 -0.8190
  655MOL0     C86357   4.423  11.776   9.262 -0.4738  0.5118  0.1174
  655MOL0     O86358   4.404  11.841   9.151  1.2145 -0.1343  0.9258
  655MOL0     C86359   4.514  11.903   9.100  0.3576 -0.4753  0.8710
  655MOL0     C86360   4.576  11.843   8.985  0.0807 -0.2107  0.2447
  655MOL0     C86361   4.678  11.913   8.929  1.2010 -0.0158  0.3586
  655MOL0     C86362   4.710  12.041   8.975  0.2787  0.3613 -0.0968
  655MOL0     O86363   4.808  12.108   8.909  0.5562 -0.5192  0.8368
  655MOL0     C86364   4.944  12.061   8.910  0.7814  0.8200  0.1460
  655MOL0     C86365   5.029  12.170   8.963  0.4521 -0.6339  0.0851
  655MOL0     C86366   5.165  12.198   8.907 -0.5461 -0.6058  0.3972
  655MOL0     C86367   5.246  12.278   9.010  0.3133 -0.4765 -1.0138
  655MOL0     C86368   5.364  12.335   8.931 -0.0260 -1.1885  0.1135
  655MOL0     C86369   5.464  12.409   9.028  0.0266  0.3019  0.5919
  655MOL0     C86370   5.554  12.508   8.954 -0.1006 -0.2325  0.8580
  655MOL0     C86371   5.640  12.453   8.847 -0.4090 -0.3782  0.0531
  655MOL0    Cl86372   5.758  12.350   8.913 -0.2221  0.4160 -0.0978
  655MOL0     C86373   4.653  12.093   9.082 -0.4347  0.4181  0.9520
  655MOL0     C86374   4.544  12.023   9.146 -0.0320 -0.5440  0.1433
  655MOL0     O86375   4.519  11.772   9.333  0.1363  0.5090 -0.0730
  655MOL0     C86376   4.304  11.581   9.389  0.1059 -0.3202 -0.7616
  655MOL0     C86377   4.200  11.501   9.406 -0.3525 -0.1265 -0.7751
  655MOL0     N86378   3.432  11.205   9.287  0.3205  0.0265 -0.4111
  655MOL0     N86379   3.324  11.136   9.257 -0.0087  0.5947 -1.0900
  655MOL0     C86380   2.830  10.083   9.735  0.2481 -0.4501  0.4404
  655MOL0     C86381   2.806   9.955   9.784  0.4896 -0.2712 -0.2076
  655MOL0     C86382   2.537   9.680  10.043  0.0214 -0.9191  0.7529
  655MOL0     C86383   2.580   9.547  10.001 -0.3578 -1.0314  0.6044
  655MOL0     C86384   2.567   9.442  10.091  0.0940 -0.0079  0.9002
  655MOL0     C86385   2.497   9.461  10.211 -0.0032  0.1276 -0.9425
  655MOL0     O86386   2.491   9.345  10.288  0.7596 -0.4184 -0.4501
  655MOL0     C86387   2.519   9.352  10.436  0.1753  0.6323 -0.1724
  655MOL0     C86388   2.661   9.382  10.457 -0.0813  0.2893 -0.2099
  655MOL0     C86389   2.710   9.399  10.600 -0.2122  0.3734 -0.1401
  655MOL0     C86390   2.864   9.433  10.613 -0.4589 -0.2658  0.1778
  655MOL0     C86391   2.901   9.571  10.564 -0.0635  0.7366  0.3399
  655MOL0     C86392   2.900   9.679  10.508  0.7248  1.0680 -0.4780
  655MOL0     C86393   2.436   9.588  10.242 -0.1833 -0.4629  0.3039
  655MOL0     C86394   2.462   9.700  10.158 -0.2956 -0.6925  0.0327
  655MOL0     H86395   2.495   9.912   9.711  0.4080  1.0393  1.7595
  655MOL0     H86396   2.518  10.132   9.599 -1.6269 -0.4971  2.3309
  655MOL0     H86397   2.965  10.243   9.558  1.8441  0.0124  2.6697
  655MOL0     H86398   2.923  10.356   9.687  0.2108  1.6509 -1.5023
  655MOL0     H86399   2.878  10.404   9.389  1.4831 -0.4824 -0.0242
  655MOL0     H86400   3.027  10.442   9.481  1.4370 -4.3264  0.9633
  655MOL0     H86401   2.882  10.599   9.633 -0.5885  2.9445 -0.4126
  655MOL0     H86402   2.740  10.543   9.547  0.8026  0.7376 -1.2154
  655MOL0     H86403   2.849  10.639   9.320 -0.0329  0.4362 -0.9155
  655MOL0     H86404   2.759  10.731   9.429  0.5151  1.5620 -0.8675
  655MOL0     H86405   3.059  10.715   9.489  1.0391  2.0766  0.7114
  655MOL0     H86406   2.941  10.829   9.536 -1.0311 -1.5022  1.9903
  655MOL0     H86407   2.917  10.874   9.274 -0.3888 -0.1141  0.5163
  655MOL0     H86408   3.048  10.776   9.252 -1.4933  2.3741 -2.0710
  655MOL0     H86409   3.062  11.046   9.313 -0.3441 -1.8773 -0.3450
  655MOL0     H86410   3.092  10.973   9.474  0.3457 -0.0166  0.5166
  655MOL0     H86411   3.256  10.869   9.243  2.0942  1.7849 -1.7368
  655MOL0     H86412   3.274  10.850   9.421  3.2485 -0.8111 -1.8159
  655MOL0     H86413   3.474  10.969   9.509 -0.6029 -2.2475 -1.3409
  655MOL0     H86414   3.669  11.129   9.502 -0.6632 -1.9557 -2.4054
  655MOL0     H86415   3.560  11.268   9.536  1.0979  0.3554  1.0348
  655MOL0     H86416   3.663  11.374   9.313  2.6371  1.4949  0.5141
  655MOL0     H86417   3.773  11.250   9.324 -1.3703 -1.6976  0.3122
  655MOL0     H86418   3.747  11.500   9.467 -2.5182 -0.3327  0.5153
  655MOL0     H86419   3.751  11.372   9.589 -0.3253 -1.3909 -0.4505
  655MOL0     H86420   3.972  11.297   9.495 -0.7795 -1.4625 -6.3630
  655MOL0     H86421   3.980  11.467   9.548 -0.0370  0.4546 -0.7168
  655MOL0     H86422   4.027  11.565   9.144 -1.8392 -0.8908  3.5453
  655MOL0     H86423   4.210  11.710   9.090  1.0084 -0.5658 -1.6463
  655MOL0     H86424   4.536  11.748   8.949 -2.1334  0.5734  0.4727
  655MOL0     H86425   4.717  11.879   8.833  0.4745 -2.2809  0.7838
  655MOL0     H86426   4.963  12.036   8.806  2.8431  0.8203  0.4811
  655MOL0     H86427   4.958  11.968   8.965 -0.3448  0.9394  0.6857
  655MOL0     H86428   5.032  12.160   9.072 -4.0117 -2.3585  0.2665
  655MOL0     H86429   4.970  12.262   8.951 -1.9797 -1.7214  2.5210
  655MOL0     H86430   5.148  12.243   8.809 -1.9631 -0.7685  0.5482
  655MOL0     H86431   5.225  12.108   8.894  0.5717  0.2675 -0.7307
  655MOL0     H86432   5.188  12.353   9.064  1.3189 -0.1890 -0.3130
  655MOL0     H86433   5.286  12.213   9.089  1.0742  3.2421  1.9209
  655MOL0     H86434   5.328  12.413   8.864  0.4461 -2.9116 -2.2611
  655MOL0     H86435   5.417  12.269   8.862 -0.0466 -1.5741  0.4642
  655MOL0     H86436   5.521  12.338   9.088  4.2215  1.0786 -2.1067
  655MOL0     H86437   5.403  12.466   9.099 -0.2065 -0.3981  0.9620
  655MOL0     H86438   5.501  12.592   8.909  2.4998  1.1747  0.2347
  655MOL0     H86439   5.617  12.554   9.030  0.3873 -0.4661  0.5945
  655MOL0     H86440   5.694  12.531   8.794  3.1072 -1.4160  1.8111
  655MOL0     H86441   5.595  12.395   8.766  1.0320 -0.2096 -0.9058
  655MOL0     H86442   4.694  12.187   9.119  0.0816  0.6578 -0.2105
  655MOL0     H86443   4.502  12.063   9.238  0.9129 -1.5208  1.0269
  655MOL0     H86444   4.388  11.582   9.458 -0.4021 -1.4831 -0.0929
  655MOL0     H86445   4.217  11.433   9.489  2.2963  1.0329 -0.2609
  655MOL0     H86446   2.929  10.125   9.743  0.0465  0.4541 -1.4529
  655MOL0     H86447   2.885   9.894   9.826 -0.8263  0.3733  3.5613
  655MOL0     H86448   2.610   9.529   9.898  1.5895 -3.0996  1.4355
  655MOL0     H86449   2.616   9.346  10.081  0.7986  0.4261 -0.0649
  655MOL0     H86450   2.496   9.256  10.483 -1.0513 -0.2121 -2.3309
  655MOL0     H86451   2.460   9.431  10.483 -1.9137 -2.0914  2.1208
  655MOL0     H86452   2.694   9.288  10.412 -1.2056 -1.3782  2.2671
  655MOL0     H86453   2.689   9.471  10.399 -1.2053 -0.3958 -1.8759
  655MOL0     H86454   2.703   9.301  10.647  1.7976 -0.1828 -0.9078
  655MOL0     H86455   2.648   9.474  10.650  0.3357  1.1633 -0.6202
  655MOL0     H86456   2.885   9.435  10.720 -0.0750  2.4173  0.1333
  655MOL0     H86457   2.916   9.349  10.566  2.8501  2.6671 -1.9040
  655MOL0     H86458   2.870   9.778  10.479 -1.8234  0.5634  0.2198
  655MOL0     H86459   2.385   9.605  10.336  3.6247  1.4287  2.2636
  655MOL0     H86460   2.425   9.799  10.183 -0.5169  0.2071 -3.4459
  656MOL0     O86461   7.826   1.355  10.667  0.3249 -0.3762 -0.2857
  656MOL0     C86462   7.809   1.463  10.615  0.3923 -0.0795  0.3084
  656MOL0     O86463   7.687   1.513  10.589 -0.1559 -0.4432  0.6529
  656MOL0     C86464   7.578   1.431  10.622 -0.3244 -0.4417  0.1515
  656MOL0     C86465   7.522   1.427  10.752  0.4228  0.2984  0.2370
  656MOL0     C86466   7.409   1.353  10.777  1.0355  0.4459 -1.0076
  656MOL0     C86467   7.337   1.302  10.672  0.2742  0.0672  0.0687
  656MOL0     O86468   7.214   1.253  10.711  0.0473  0.1596 -0.3993
  656MOL0     C86469   7.120   1.254  10.603 -0.8315 -0.0683  0.0490
  656MOL0     C86470   6.979   1.240  10.655  0.6167  0.2219 -0.1289
  656MOL0     C86471   6.946   1.117  10.738  0.1242 -0.2393  0.2414
  656MOL0     C86472   6.801   1.123  10.800 -0.6916 -0.3208 -0.1372
  656MOL0     C86473   6.751   0.983  10.860 -0.9100 -0.1054  0.0658
  656MOL0     C86474   6.671   1.004  10.988 -0.0271 -0.8169 -0.2489
  656MOL0     C86475   6.546   1.081  10.993  0.3406 -0.1276 -1.1332
  656MOL0     C86476   6.437   1.017  10.904 -0.3151  0.2479 -0.7824
  656MOL0     N86477   6.308   1.079  10.937 -0.7183  0.1363  0.3443
  656MOL0     C86478   6.238   1.165  10.856 -0.0012 -0.7941  0.9925
  656MOL0     C86479   6.113   1.176  10.906 -0.3573 -0.2381 -0.2381
  656MOL0     C86480   6.010   1.276  10.851  0.3818  0.8824 -0.6469
  656MOL0     C86481   6.036   1.418  10.888 -0.5532 -0.0274 -0.6016
  656MOL0     C86482   5.983   1.513  10.782  0.7749 -0.8372  0.2271
  656MOL0     C86483   6.087   1.541  10.671  0.3101 -0.6958  0.3062
  656MOL0     O86484   6.177   1.642  10.727 -0.3930 -0.5863 -0.4677
  656MOL0     C86485   6.239   1.732  10.641  0.4619 -0.0667 -0.3988
  656MOL0     C86486   6.205   1.762  10.504 -0.7666  0.2643 -0.2501
  656MOL0     C86487   6.284   1.862  10.436  0.0126  0.2356  0.9262
  656MOL0     C86488   6.392   1.932  10.492  0.6238 -0.4312 -0.6662
  656MOL0     C86489   6.474   2.028  10.415 -0.5346 -0.0061  0.7410
  656MOL0     O86490   6.430   2.052  10.290 -0.6108  0.4928  0.6973
  656MOL0     C86491   6.481   2.135  10.192 -1.3166 -0.1571  0.7495
  656MOL0     C86492   6.571   2.236  10.227 -0.2596  0.2584  0.1905
  656MOL0     C86493   6.622   2.316  10.133 -0.2261 -0.5400  1.0045
  656MOL0     C86494   6.606   2.280   9.996 -0.0319  0.6601 -0.0461
  656MOL0     O86495   6.663   2.355   9.906 -0.5294  1.1273 -0.4970
  656MOL0     C86496   6.801   2.399   9.937  0.6465 -0.1076  0.5559
  656MOL0     C86497   6.891   2.352   9.829 -0.3807 -0.4386  0.5916
  656MOL0     C86498   7.022   2.397   9.873 -0.8937  0.4945  0.5656
  656MOL0     C86499   7.135   2.383   9.766 -0.4943  0.4023  0.1664
  656MOL0     C86500   7.282   2.405   9.814 -0.1378  0.3309  0.7173
  656MOL0     C86501   7.397   2.407   9.719  0.2026 -0.2677  0.7364
  656MOL0     C86502   7.438   2.259   9.680  0.2582 -0.3451  0.3860
  656MOL0     C86503   7.527   2.268   9.548  0.6973  0.5907 -0.6831
  656MOL0    Cl86504   7.555   2.102   9.471  0.1115 -0.0005 -0.7486
  656MOL0     C86505   6.517   2.178   9.956  0.4255 -0.1229  0.1108
  656MOL0     C86506   6.448   2.114  10.060 -0.4728 -0.3236  0.1806
  656MOL0     O86507   6.568   2.081  10.469 -0.8088 -0.0819  0.1261
  656MOL0     C86508   6.418   1.904  10.627  0.5436  0.7009 -0.6647
  656MOL0     C86509   6.349   1.804  10.688 -0.4232  0.5836  0.0522
  656MOL0     N86510   6.101   1.083  11.003 -0.2189  0.0260 -0.0685
  656MOL0     N86511   6.219   1.028  11.031 -0.0140 -0.2518  0.6024
  656MOL0     C86512   7.384   1.304  10.544  0.2504  0.1410 -0.3132
  656MOL0     C86513   7.508   1.365  10.515 -0.3274  0.0840  0.1251
  656MOL0     C86514   7.925   1.538  10.576 -0.3524  0.9060  0.2537
  656MOL0     C86515   8.049   1.469  10.571  0.6365  0.2259  0.7076
  656MOL0     C86516   8.159   1.536  10.539  0.1103 -1.2200 -0.0611
  656MOL0     C86517   8.156   1.676  10.506  0.2339  0.5484 -0.4949
  656MOL0     O86518   8.273   1.743  10.487 -0.8071 -0.3859 -0.4140
  656MOL0     C86519   8.293   1.815  10.367  0.8855  0.0878  0.7549
  656MOL0     C86520   8.299   1.702  10.255  0.1538  0.4372 -0.5483
  656MOL0     C86521   8.327   1.771  10.128 -0.5172  0.2954  0.4984
  656MOL0     C86522   8.298   1.676  10.008 -0.3128 -0.7941 -0.4444
  656MOL0     C86523   8.398   1.577   9.985  0.4176 -0.6898  0.3121
  656MOL0     C86524   8.482   1.493   9.959  0.8294  0.3067 -0.3624
  656MOL0     C86525   8.029   1.743  10.509  0.9579  0.0876 -0.2625
  656MOL0     C86526   7.921   1.674  10.546  0.5500  0.4355  0.6658
  656MOL0     H86527   7.586   1.480  10.822  1.6218  0.8570 -1.2208
  656MOL0     H86528   7.365   1.324  10.872  0.9779  0.0013 -1.1678
  656MOL0     H86529   7.143   1.174  10.532 -0.6439  1.1643 -1.3256
  656MOL0     H86530   7.126   1.349  10.550 -0.8649  0.2882  0.6768
  656MOL0     H86531   6.899   1.245  10.581 -0.0266  1.8133  0.6272
  656MOL0     H86532   6.960   1.330  10.714  3.7855  0.1529  1.2162
  656MOL0     H86533   7.022   1.092  10.813  0.5222 -3.6178 -1.1069
  656MOL0     H86534   6.953   1.030  10.672  2.7581  1.0108 -1.2943
  656MOL0     H86535   6.789   1.207  10.869  0.5452 -0.5983  0.4544
  656MOL0     H86536   6.727   1.145  10.723  0.8048  1.4583 -1.1409
  656MOL0     H86537   6.831   0.919  10.898 -1.2448  0.2316  1.3991
  656MOL0     H86538   6.681   0.944  10.787  0.8577 -0.0663 -1.7376
  656MOL0     H86539   6.747   1.044  11.056  0.0043  1.6759 -1.6256
  656MOL0     H86540   6.643   0.905  11.023  0.2198 -0.8965 -0.2766
  656MOL0     H86541   6.504   1.085  11.094  0.6599  1.0721 -1.0356
  656MOL0     H86542   6.577   1.181  10.959 -2.4815  0.9228 -0.9038
  656MOL0     H86543   6.421   0.910  10.922 -0.5710 -0.3563 -3.8987
  656MOL0     H86544   6.464   1.031  10.798 -1.6872 -0.3334 -1.2331
  656MOL0     H86545   6.274   1.235  10.781 -2.8788 -0.2993 -0.0399
  656MOL0     H86546   5.920   1.250  10.908  1.4126  2.0617  1.6745
  656MOL0     H86547   6.001   1.265  10.743  4.0701  0.8832 -1.0653
  656MOL0     H86548   6.142   1.435  10.911 -0.9409  2.3419 -0.3282
  656MOL0     H86549   5.983   1.439  10.981 -1.5527 -1.1081 -0.9000
  656MOL0     H86550   5.888   1.477  10.741  0.4100  0.0323  0.2787
  656MOL0     H86551   5.959   1.609  10.829  3.5956 -0.2252  0.5896
  656MOL0     H86552   6.038   1.575  10.579 -0.0146  0.6920  0.9650
  656MOL0     H86553   6.137   1.453  10.629  3.8767  2.8753 -3.9080
  656MOL0     H86554   6.116   1.722  10.457 -1.8755  2.8226 -0.4883
  656MOL0     H86555   6.266   1.876  10.330  1.1843 -0.5464  0.6179
  656MOL0     H86556   6.592   2.260  10.331  4.3518  0.0109 -0.4436
  656MOL0     H86557   6.667   2.411  10.161 -1.3694  0.3576 -0.1052
  656MOL0     H86558   6.839   2.345  10.024 -2.1460 -1.7363  0.8983
  656MOL0     H86559   6.805   2.507   9.953  0.8869 -0.0024 -0.2081
  656MOL0     H86560   6.857   2.395   9.735 -2.1843 -1.3649  0.7629
  656MOL0     H86561   6.885   2.242   9.834 -0.2802 -0.4411  0.6442
  656MOL0     H86562   7.055   2.353   9.968 -1.7207 -2.5642 -0.4605
  656MOL0     H86563   7.018   2.506   9.882 -2.7818  1.0230 -3.9096
  656MOL0     H86564   7.136   2.276   9.743  2.7605 -0.4251  3.2596
  656MOL0     H86565   7.118   2.444   9.676 -0.6030  0.0643 -0.0467
  656MOL0     H86566   7.308   2.332   9.891  0.7315 -0.1917 -0.0435
  656MOL0     H86567   7.267   2.507   9.850 -2.0552  0.6605 -0.8792
  656MOL0     H86568   7.476   2.449   9.781 -0.3395  1.8074  0.1073
  656MOL0     H86569   7.376   2.471   9.633  1.0290  2.7273  2.6010
  656MOL0     H86570   7.514   2.224   9.750  1.9629  0.4931 -0.9857
  656MOL0     H86571   7.352   2.193   9.666 -0.4657  0.3795  1.2821
  656MOL0     H86572   7.627   2.303   9.573  0.1702  1.3701  0.4025
  656MOL0     H86573   7.482   2.339   9.478 -2.3723  2.5026  2.8174
  656MOL0     H86574   6.499   2.149   9.853 -0.8907  1.1625 -0.0742
  656MOL0     H86575   6.378   2.032  10.046 -0.8187 -1.0914  4.9654
  656MOL0     H86576   6.500   1.948  10.682  2.9869 -2.5500 -1.4016
  656MOL0     H86577   6.378   1.773  10.788 -0.7628 -1.5020 -0.4633
  656MOL0     H86578   7.333   1.253  10.463  0.1490  2.0970 -1.5579
  656MOL0     H86579   7.552   1.359  10.416  0.6190 -1.6659  0.6048
  656MOL0     H86580   8.052   1.362  10.592 -2.5398  0.1163  0.9704
  656MOL0     H86581   8.257   1.489  10.537  1.4762  1.5072 -0.6298
  656MOL0     H86582   8.383   1.877  10.370  0.0403  1.3710  0.5276
  656MOL0     H86583   8.208   1.880  10.343 -1.2406 -3.5500 -2.7988
  656MOL0     H86584   8.375   1.625  10.274 -0.3891 -0.0734 -0.4078
  656MOL0     H86585   8.210   1.637  10.250  0.9324 -0.8069  0.7811
  656MOL0     H86586   8.429   1.808  10.116 -0.0291 -0.3219  2.3807
  656MOL0     H86587   8.264   1.861  10.125 -1.0402 -0.0768  0.0912
  656MOL0     H86588   8.201   1.631  10.028 -1.1875  1.7238  1.4718
  656MOL0     H86589   8.290   1.748   9.925 -0.3941  1.7301  1.6323
  656MOL0     H86590   8.563   1.425   9.940  1.8211  0.9721  1.2900
  656MOL0     H86591   8.030   1.849  10.487 -0.4857  0.0722 -0.4963
  656MOL0     H86592   7.825   1.723  10.549  0.2261 -0.1741  0.3754
  657MOL0     O86593   5.511   8.489   2.989 -0.4682  0.6708  0.0579
  657MOL0     C86594   5.392   8.479   2.994  0.0277  0.0164  0.0921
  657MOL0     O86595   5.302   8.537   2.909 -0.2570  0.2535 -0.2715
  657MOL0     C86596   5.339   8.616   2.803  0.1947  0.9032  1.4950
  657MOL0     C86597   5.269   8.596   2.677  0.6981  0.0677  1.3107
  657MOL0     C86598   5.309   8.673   2.560 -0.3579  0.3230  1.3217
  657MOL0     C86599   5.416   8.761   2.573 -0.6392  0.7695  1.0795
  657MOL0     O86600   5.476   8.817   2.462 -0.1006 -0.1452 -0.2860
  657MOL0     C86601   5.394   8.895   2.368  0.1882  0.1295 -0.1988
  657MOL0     C86602   5.355   9.038   2.418 -0.0142 -0.3905  0.0617
  657MOL0     C86603   5.226   9.040   2.499 -0.5718  0.7223  0.5153
  657MOL0     C86604   5.197   9.175   2.570  0.7013 -0.3133 -0.8468
  657MOL0     C86605   5.051   9.158   2.610 -0.7264 -0.7504  1.5033
  657MOL0     C86606   4.979   9.281   2.632 -0.0041 -0.1064  0.1447
  657MOL0     C86607   5.034   9.349   2.759  0.5704  0.2840  0.0084
  657MOL0     C86608   4.912   9.431   2.810 -0.5152 -0.8916 -0.9296
  657MOL0     N86609   4.948   9.499   2.938 -0.3695  0.8339  0.3786
  657MOL0     C86610   5.057   9.578   2.962 -0.8073 -0.5875  0.3424
  657MOL0     C86611   5.046   9.625   3.096  0.3412  0.2367 -0.8576
  657MOL0     C86612   5.134   9.714   3.170 -0.9793  0.1684 -0.0432
  657MOL0     C86613   5.157   9.843   3.085 -0.5475 -0.7050  0.6171
  657MOL0     C86614   5.210   9.955   3.175  1.2134  0.1303  0.2631
  657MOL0     C86615   5.329   9.917   3.262 -0.2030 -0.4788 -0.1154
  657MOL0     O86616   5.434   9.905   3.162  0.2885 -0.3220 -0.6663
  657MOL0     C86617   5.560   9.921   3.214  0.5587  0.5421  0.4556
  657MOL0     C86618   5.596   9.896   3.346  0.0570  0.6729 -0.0709
  657MOL0     C86619   5.727   9.930   3.396 -0.8295 -0.1024  0.1126
  657MOL0     C86620   5.820   9.976   3.300  0.1677  0.3634 -0.2016
  657MOL0     C86621   5.953  10.032   3.345 -0.9542  0.2144 -0.0472
  657MOL0     O86622   5.990  10.007   3.476 -0.5800 -0.5826  0.0984
  657MOL0     C86623   6.100  10.055   3.539  0.5620 -1.0784 -0.8136
  657MOL0     C86624   6.096  10.066   3.680  0.4585  0.4975 -0.6381
  657MOL0     C86625   6.202  10.116   3.751 -0.7162 -0.1156 -0.1863
  657MOL0     C86626   6.319  10.150   3.683 -0.1855  0.5751  0.0119
  657MOL0     O86627   6.443  10.166   3.745 -0.4878  0.4978 -0.2284
  657MOL0     C86628   6.490  10.046   3.804 -0.0135 -0.4593  0.5795
  657MOL0     C86629   6.643  10.041   3.804  0.3482 -0.3959 -0.0464
  657MOL0     C86630   6.709  10.084   3.667 -0.2178 -0.4526 -0.3217
  657MOL0     C86631   6.864  10.116   3.656 -0.2612  0.6608 -0.3714
  657MOL0     C86632   6.891  10.257   3.708 -0.1332  0.1296  0.0836
  657MOL0     C86633   7.020  10.307   3.657 -0.2430  0.2558  0.3205
  657MOL0     C86634   7.047  10.447   3.687 -0.0742  0.4878 -0.0413
  657MOL0     C86635   7.174  10.509   3.619  0.5417 -0.2938  0.0850
  657MOL0    Cl86636   7.304  10.394   3.672  0.1617 -0.1948 -0.1716
  657MOL0     C86637   6.330  10.138   3.549 -0.2512 -0.4670 -0.4235
  657MOL0     C86638   6.221  10.087   3.474  0.0957  0.9148 -0.6668
  657MOL0     O86639   6.004  10.117   3.270  0.6862  0.9119 -0.4220
  657MOL0     C86640   5.783   9.990   3.170 -0.3017  0.0938  0.0227
  657MOL0     C86641   5.654   9.968   3.123 -0.3409 -0.8249  0.3027
  657MOL0     N86642   4.919   9.580   3.137  0.1302 -0.9965  0.5072
  657MOL0     N86643   4.872   9.505   3.045 -0.4030 -0.7183 -0.1150
  657MOL0     C86644   5.479   8.774   2.690 -0.2404 -0.1189  0.4855
  657MOL0     C86645   5.442   8.707   2.799 -0.5355 -0.0136 -0.1455
  657MOL0     C86646   5.345   8.393   3.100  0.5346 -0.2449 -0.0520
  657MOL0     C86647   5.431   8.338   3.195 -0.5404  0.3006  0.6617
  657MOL0     C86648   5.386   8.252   3.295 -0.8289 -0.7671  0.0789
  657MOL0     C86649   5.255   8.205   3.298 -0.1995 -0.2031 -0.8533
  657MOL0     O86650   5.228   8.107   3.383 -0.6968 -0.0867 -0.3117
  657MOL0     C86651   5.096   8.046   3.373  0.2855  0.1171 -0.4586
  657MOL0     C86652   5.079   7.939   3.264  0.6784 -0.0294 -0.6357
  657MOL0     C86653   4.943   7.882   3.274 -0.0530  0.7397  1.0645
  657MOL0     C86654   4.823   7.978   3.275 -0.1026 -0.0468  0.0686
  657MOL0     C86655   4.811   8.039   3.143  0.2352  0.8053 -0.7471
  657MOL0     C86656   4.771   8.070   3.034  0.3205 -0.8926 -0.1989
  657MOL0     C86657   5.165   8.255   3.199 -0.5758  0.2984 -0.2100
  657MOL0     C86658   5.209   8.356   3.110 -0.5857  0.3970 -0.2412
  657MOL0     H86659   5.196   8.516   2.665  1.9218 -1.0048  0.7796
  657MOL0     H86660   5.249   8.662   2.470 -1.4022 -0.6454  2.1069
  657MOL0     H86661   5.298   8.849   2.340  1.0087 -0.4180 -2.2816
  657MOL0     H86662   5.447   8.901   2.273  0.0421  2.0016 -0.1991
  657MOL0     H86663   5.335   9.099   2.328  0.9513  2.2279  1.4998
  657MOL0     H86664   5.439   9.092   2.463 -1.0279  3.4859 -2.2162
  657MOL0     H86665   5.216   8.958   2.571 -2.1048  1.0328  0.6812
  657MOL0     H86666   5.156   9.016   2.418  0.0275 -2.4810  0.8010
  657MOL0     H86667   5.260   9.181   2.660  0.4154  2.9189 -0.7308
  657MOL0     H86668   5.210   9.262   2.504 -0.8685  0.2770 -0.4217
  657MOL0     H86669   5.052   9.090   2.695  1.7337 -1.0294  1.3234
  657MOL0     H86670   5.000   9.111   2.525  0.3122 -0.4050  0.6613
  657MOL0     H86671   4.872   9.261   2.638  0.0852 -0.5057  0.4545
  657MOL0     H86672   5.001   9.345   2.545 -0.1369 -1.5373 -0.9808
  657MOL0     H86673   5.061   9.271   2.832  0.0633  0.7186  0.6713
  657MOL0     H86674   5.121   9.410   2.736 -1.2006  1.4246 -4.7596
  657MOL0     H86675   4.823   9.370   2.830 -1.1906  0.5318  0.7144
  657MOL0     H86676   4.889   9.514   2.741  3.3817  0.7367 -0.5175
  657MOL0     H86677   5.141   9.596   2.897 -0.1501  2.4058  1.8643
  657MOL0     H86678   5.225   9.663   3.201 -3.0012 -3.5605  0.3083
  657MOL0     H86679   5.087   9.754   3.261  0.7949  0.4579  0.7997
  657MOL0     H86680   5.059   9.875   3.048 -0.2240 -0.7845 -0.3596
  657MOL0     H86681   5.223   9.835   2.998  0.7730  1.3492  1.3603
  657MOL0     H86682   5.237  10.037   3.109  1.1363 -0.4230 -0.4707
  657MOL0     H86683   5.134   9.990   3.245  0.7967 -3.6797  2.0158
  657MOL0     H86684   5.315   9.827   3.323  3.2730  1.1931  3.5946
  657MOL0     H86685   5.350  10.007   3.321  0.3098  0.4096 -1.5924
  657MOL0     H86686   5.534   9.853   3.424  0.5638 -0.0947 -0.0797
  657MOL0     H86687   5.778   9.906   3.489  0.4107  0.9923 -0.2471
  657MOL0     H86688   6.003  10.036   3.729 -0.4278  2.1812 -1.2040
  657MOL0     H86689   6.187  10.126   3.858 -2.9184  2.2419 -0.6149
  657MOL0     H86690   6.443   9.963   3.751  1.5953 -1.4619  0.6544
  657MOL0     H86691   6.453  10.042   3.907  0.1428 -2.1163  0.5973
  657MOL0     H86692   6.675   9.936   3.805  2.0512  0.0842  0.5669
  657MOL0     H86693   6.681  10.098   3.889 -0.5401 -0.1701  0.2094
  657MOL0     H86694   6.660  10.176   3.634  2.7740  0.7516 -1.6568
  657MOL0     H86695   6.688  10.011   3.588  0.6793 -3.3453  1.9203
  657MOL0     H86696   6.936  10.051   3.706 -0.3509 -0.1710 -1.3022
  657MOL0     H86697   6.895  10.105   3.552  3.3001  0.4412  0.5915
  657MOL0     H86698   6.897  10.246   3.817 -0.5894 -2.1436 -0.0677
  657MOL0     H86699   6.815  10.333   3.689  0.4995  0.7130 -0.1676
  657MOL0     H86700   7.006  10.313   3.549 -0.7860  3.3481  0.4618
  657MOL0     H86701   7.101  10.239   3.684 -1.8242 -0.9744  2.2314
  657MOL0     H86702   6.962  10.506   3.651 -0.8813  0.6336  1.9731
  657MOL0     H86703   7.063  10.472   3.792 -1.2434  2.8839 -0.3553
  657MOL0     H86704   7.189  10.611   3.658 -1.0470  0.1479 -0.3627
  657MOL0     H86705   7.172  10.515   3.510  4.3034 -1.8059 -0.1873
  657MOL0     H86706   6.421  10.157   3.492 -0.9508 -1.7147 -2.0292
  657MOL0     H86707   6.225  10.063   3.368  0.2736  1.9178 -0.8950
  657MOL0     H86708   5.857  10.030   3.102 -0.2381  2.3601  1.3363
  657MOL0     H86709   5.632  10.006   3.024 -2.6286 -2.8594 -0.0705
  657MOL0     H86710   5.551   8.855   2.693 -0.1412 -0.2303  1.5120
  657MOL0     H86711   5.491   8.732   2.892 -1.0487 -1.7421  0.6362
  657MOL0     H86712   5.536   8.364   3.185 -0.2663  0.0686  2.6129
  657MOL0     H86713   5.468   8.210   3.353 -0.1693 -2.3299 -1.8549
  657MOL0     H86714   5.025   8.128   3.367 -1.3890 -1.2707 -0.3146
  657MOL0     H86715   5.068   7.989   3.463 -1.6954  1.1853 -0.3464
  657MOL0     H86716   5.099   8.004   3.178 -2.8979  2.6052  0.2810
  657MOL0     H86717   5.152   7.859   3.274 -1.1595 -1.6415  0.6607
  657MOL0     H86718   4.933   7.823   3.366  0.0299  1.4372  1.5315
  657MOL0     H86719   4.926   7.804   3.199  2.8401  0.2850  0.7563
  657MOL0     H86720   4.739   7.912   3.295 -1.8066  0.5642 -4.1178
  657MOL0     H86721   4.828   8.054   3.354 -2.7209 -0.4987  0.7620
  657MOL0     H86722   4.732   8.092   2.936  0.6179 -0.2071 -0.1659
  657MOL0     H86723   5.058   8.237   3.193 -0.2486 -2.1392  0.2494
  657MOL0     H86724   5.140   8.399   3.038 -0.2136 -0.2912 -1.0259
  658MOL0     O86725   4.847   1.953   4.693 -0.0705 -0.4039  0.1790
  658MOL0     C86726   4.968   1.963   4.685  0.3681 -0.8943  0.4181
  658MOL0     O86727   5.040   2.060   4.744  0.4744  0.0342 -0.1667
  658MOL0     C86728   5.005   2.096   4.872  0.1850  1.1989  0.2922
  658MOL0     C86729   4.879   2.121   4.928  0.1039  0.1914  0.2915
  658MOL0     C86730   4.878   2.172   5.059  0.0696  0.7633 -0.1714
  658MOL0     C86731   4.988   2.204   5.140 -0.6579  0.5556  0.8831
  658MOL0     O86732   4.988   2.268   5.262  0.5634 -0.3438 -1.0008
  658MOL0     C86733   4.957   2.409   5.232  0.0881 -0.4314 -0.5102
  658MOL0     C86734   4.923   2.478   5.360  0.4131 -0.6042 -0.0652
  658MOL0     C86735   4.950   2.627   5.358  0.5724 -0.0566 -0.2570
  658MOL0     C86736   4.961   2.681   5.497  0.1710  0.5949  1.0133
  658MOL0     C86737   4.973   2.832   5.487 -0.6581 -0.9110 -0.5008
  658MOL0     C86738   5.024   2.886   5.623  0.3498 -0.2782 -0.6271
  658MOL0     C86739   5.083   3.027   5.598 -0.4547 -0.2785 -0.2050
  658MOL0     C86740   5.112   3.107   5.722  0.3168 -0.8000  0.1810
  658MOL0     N86741   5.118   3.260   5.695 -0.4623 -0.0641  0.1661
  658MOL0     C86742   5.207   3.336   5.630  0.3033  0.4309  0.5487
  658MOL0     C86743   5.158   3.463   5.626 -0.2712 -0.9080 -0.3085
  658MOL0     C86744   5.243   3.575   5.567 -0.5219  0.1632 -0.6921
  658MOL0     C86745   5.338   3.621   5.670 -0.8007 -0.8717 -0.0495
  658MOL0     C86746   5.430   3.728   5.619 -0.4605  0.2837 -0.2127
  658MOL0     C86747   5.517   3.789   5.745  0.2706 -0.4855  1.4092
  658MOL0     O86748   5.431   3.861   5.832 -0.0304 -0.3764 -0.7515
  658MOL0     C86749   5.474   3.898   5.952 -0.1992  0.3091 -0.5449
  658MOL0     C86750   5.380   3.943   6.042 -0.0168 -0.1218 -0.3727
  658MOL0     C86751   5.409   3.982   6.178  0.9137  0.1484  0.4987
  658MOL0     C86752   5.546   3.960   6.224  0.1949 -0.2124  0.6712
  658MOL0     C86753   5.590   4.011   6.355  0.2094  0.2578  0.0948
  658MOL0     O86754   5.494   4.042   6.445  1.1635 -0.1622 -0.1532
  658MOL0     C86755   5.540   4.089   6.567  0.3805  0.7330  0.7559
  658MOL0     C86756   5.505   4.214   6.606 -0.3512  0.0939  0.5455
  658MOL0     C86757   5.541   4.254   6.735  0.4603  0.3756  0.1133
  658MOL0     C86758   5.614   4.180   6.827  0.1485 -0.2001  0.2229
  658MOL0     O86759   5.635   4.227   6.953 -0.7177  0.1314  0.6421
  658MOL0     C86760   5.715   4.344   6.956 -0.2162 -0.1735  0.1094
  658MOL0     C86761   5.758   4.366   7.102  0.3583 -0.8105  1.0310
  658MOL0     C86762   5.787   4.237   7.176  0.7858  0.2330  0.1062
  658MOL0     C86763   5.832   4.250   7.321 -0.3985  0.3136  0.4878
  658MOL0     C86764   5.901   4.123   7.362  0.1868  0.6639  0.6955
  658MOL0     C86765   5.930   4.139   7.515 -0.4967  0.3627  0.0336
  658MOL0     C86766   6.008   4.011   7.562  0.5725  0.6565  0.4865
  658MOL0     C86767   5.999   4.003   7.721 -0.0216  0.5777  0.3485
  658MOL0    Cl86768   6.134   3.901   7.775  0.1146  0.2804  0.3542
  658MOL0     C86769   5.649   4.048   6.793 -0.4657 -0.0295  0.2524
  658MOL0     C86770   5.606   4.004   6.663 -0.3486 -0.3773  0.3181
  658MOL0     O86771   5.700   4.037   6.374 -0.4281  0.0918  0.1514
  658MOL0     C86772   5.639   3.918   6.135  0.0973  0.2788 -0.1126
  658MOL0     C86773   5.609   3.883   6.003  1.1389  0.0137  0.1142
  658MOL0     N86774   5.042   3.462   5.689  0.4399  0.2901  0.3006
  658MOL0     N86775   5.014   3.342   5.737 -0.0097  1.1118  0.4853
  658MOL0     C86776   5.117   2.172   5.079 -0.0281 -0.3333 -0.6545
  658MOL0     C86777   5.121   2.117   4.947  0.3786 -0.0835 -0.3080
  658MOL0     C86778   5.041   1.883   4.580 -0.2699 -0.2097 -0.5401
  658MOL0     C86779   5.183   1.875   4.589 -0.4481  0.7827  0.5645
  658MOL0     C86780   5.250   1.785   4.505  0.0221 -0.1779 -1.0587
  658MOL0     C86781   5.187   1.721   4.390 -0.0026 -0.0179 -0.4361
  658MOL0     O86782   5.258   1.643   4.311  0.4619 -0.0687 -0.0370
  658MOL0     C86783   5.393   1.602   4.351  1.3473 -0.0974 -0.0782
  658MOL0     C86784   5.461   1.493   4.256 -0.2304 -0.0422 -1.1696
  658MOL0     C86785   5.371   1.383   4.213  0.6405  0.1571  0.0367
  658MOL0     C86786   5.432   1.259   4.160  0.6915 -0.0689  0.6816
  658MOL0     C86787   5.483   1.260   4.021  0.8227 -0.2438  0.8327
  658MOL0     C86788   5.514   1.271   3.902  0.9182  0.7295 -1.0419
  658MOL0     C86789   5.048   1.735   4.386  0.0553 -0.3990 -0.0189
  658MOL0     C86790   4.977   1.810   4.482 -0.1832 -0.1602  0.2153
  658MOL0     H86791   4.787   2.103   4.873 -0.8167  1.8360  1.1994
  658MOL0     H86792   4.781   2.198   5.100 -1.4037 -4.0357  0.0379
  658MOL0     H86793   4.883   2.428   5.153 -2.5019 -0.6377  1.7201
  658MOL0     H86794   5.041   2.464   5.190  0.3672  3.6185  4.3790
  658MOL0     H86795   5.000   2.429   5.420  4.4234  0.4979 -3.7857
  658MOL0     H86796   4.823   2.448   5.394  0.1404  0.2422 -0.0785
  658MOL0     H86797   4.869   2.681   5.309  0.1213 -0.2038  0.3084
  658MOL0     H86798   5.043   2.647   5.305  1.5010 -1.9128  0.5694
  658MOL0     H86799   4.870   2.660   5.554 -1.6051 -1.8497 -2.3484
  658MOL0     H86800   5.040   2.630   5.551  3.3336  3.8545 -0.0855
  658MOL0     H86801   4.877   2.878   5.464 -0.4512  0.8763  1.7699
  658MOL0     H86802   5.045   2.854   5.408 -0.2797  1.3867  0.4146
  658MOL0     H86803   5.094   2.824   5.679 -0.4147  1.8134  2.9010
  658MOL0     H86804   4.936   2.890   5.687 -0.2250  0.5903 -1.4567
  658MOL0     H86805   5.167   3.018   5.529 -0.9070 -0.4087 -0.7393
  658MOL0     H86806   5.009   3.087   5.545 -0.5748  0.2256  0.5138
  658MOL0     H86807   5.203   3.070   5.769  0.6481  0.6445  0.7458
  658MOL0     H86808   5.020   3.096   5.779  0.7812 -0.5808  0.9850
  658MOL0     H86809   5.301   3.309   5.581 -0.6461  0.8430 -1.6090
  658MOL0     H86810   5.171   3.654   5.544 -0.1825  0.7593  0.2344
  658MOL0     H86811   5.284   3.543   5.471 -2.4670 -2.7575 -0.6520
  658MOL0     H86812   5.402   3.542   5.709  3.0351  2.3068  0.7265
  658MOL0     H86813   5.280   3.661   5.753 -3.3603 -2.4958 -0.9413
  658MOL0     H86814   5.508   3.696   5.549  0.8249  0.4003  1.1147
  658MOL0     H86815   5.370   3.805   5.570 -0.6569  0.4469  0.2809
  658MOL0     H86816   5.593   3.852   5.698 -1.5998  1.3956  0.7851
  658MOL0     H86817   5.574   3.708   5.793  0.5086 -1.4453 -0.3603
  658MOL0     H86818   5.277   3.960   6.012 -1.0883 -0.6624  2.6622
  658MOL0     H86819   5.341   4.046   6.233 -1.2554 -2.3020  0.8472
  658MOL0     H86820   5.445   4.283   6.547  2.1112  2.6176  0.7817
  658MOL0     H86821   5.520   4.357   6.764  0.2423  0.1684  0.7036
  658MOL0     H86822   5.662   4.437   6.935  1.2116  1.1648  2.0620
  658MOL0     H86823   5.801   4.343   6.889 -1.2658  3.3009 -1.5083
  658MOL0     H86824   5.677   4.416   7.157  0.5267 -1.2014  1.6454
  658MOL0     H86825   5.842   4.436   7.108 -0.1984 -0.0595  0.1971
  658MOL0     H86826   5.862   4.184   7.116 -0.5617 -0.8102 -0.6962
  658MOL0     H86827   5.709   4.161   7.178  0.8273  0.1789  2.8386
  658MOL0     H86828   5.905   4.331   7.334 -0.7482  0.3465  2.4638
  658MOL0     H86829   5.749   4.276   7.388  0.2067  0.2174  1.2868
  658MOL0     H86830   5.996   4.116   7.309  0.2206  1.8452  0.5877
  658MOL0     H86831   5.845   4.030   7.345 -0.9590  1.2108  1.3241
  658MOL0     H86832   5.836   4.163   7.565 -0.8683  0.7899 -0.8527
  658MOL0     H86833   6.001   4.219   7.534  1.5147 -1.6897  1.7650
  658MOL0     H86834   5.955   3.923   7.525 -2.1588  2.6759 -0.8019
  658MOL0     H86835   6.108   4.020   7.519 -0.5466 -1.2536 -2.9491
  658MOL0     H86836   5.900   3.980   7.762 -0.7853  2.0071 -0.5892
  658MOL0     H86837   6.021   4.106   7.750 -3.6535  2.3189 -2.2545
  658MOL0     H86838   5.720   3.997   6.856  3.4685  1.0844 -2.8587
  658MOL0     H86839   5.624   3.902   6.630 -1.6877 -0.0840 -1.4574
  658MOL0     H86840   5.740   3.907   6.172  0.6412  0.9882 -1.3248
  658MOL0     H86841   5.686   3.866   5.928 -0.5147 -0.3526 -1.5794
  658MOL0     H86842   5.203   2.216   5.128 -0.4750 -1.0371  0.8150
  658MOL0     H86843   5.214   2.093   4.896  1.1728  0.1946  0.9766
  658MOL0     H86844   5.237   1.916   4.673  0.4020 -0.1940  0.5180
  658MOL0     H86845   5.357   1.781   4.524 -0.2946 -1.3554  0.7402
  658MOL0     H86846   5.392   1.551   4.448  3.5636  0.8728  0.5264
  658MOL0     H86847   5.445   1.697   4.365  0.2485  0.4420  0.4383
  658MOL0     H86848   5.511   1.530   4.166 -0.6890  3.9490  0.0217
  658MOL0     H86849   5.538   1.460   4.326 -1.6496 -2.8325 -0.7998
  658MOL0     H86850   5.315   1.418   4.126  1.8362  1.1474 -0.3742
  658MOL0     H86851   5.303   1.359   4.295  0.3479 -3.2593 -1.0437
  658MOL0     H86852   5.516   1.219   4.219 -0.8914 -2.6048  1.3794
  658MOL0     H86853   5.353   1.184   4.158  0.4370  0.1958 -1.6372
  658MOL0     H86854   5.520   1.303   3.800  1.9783  2.8795 -0.3470
  658MOL0     H86855   4.983   1.692   4.310 -1.5026 -0.1042  1.1008
  658MOL0     H86856   4.869   1.812   4.486 -0.1327  0.8614  1.5397
  659MOL0     O86857   8.576   1.867   7.010 -0.0107 -0.4820  1.0486
  659MOL0     C86858   8.550   1.954   6.919  0.4431 -0.0277 -0.0431
  659MOL0     O86859   8.644   2.008   6.836 -0.8252  0.3952  0.4383
  659MOL0     C86860   8.775   2.012   6.869  0.4028  0.1152 -0.0520
  659MOL0     C86861   8.875   1.911   6.868  0.7522 -0.0529 -0.8083
  659MOL0     C86862   9.006   1.946   6.916 -0.0632  0.1841 -0.0609
  659MOL0     C86863   9.033   2.077   6.968  0.0679  0.2467 -0.4011
  659MOL0     O86864   9.157   2.119   7.012 -0.4807  0.0962 -0.4840
  659MOL0     C86865   9.242   2.020   7.049 -0.2990 -0.1947  0.0672
  659MOL0     C86866   9.386   2.065   7.079  0.5802 -0.1069  0.0565
  659MOL0     C86867   9.458   2.139   6.969 -0.5426  0.0681  0.7090
  659MOL0     C86868   9.458   2.043   6.848 -0.2634  0.0902 -0.5107
  659MOL0     C86869   9.561   2.089   6.745 -0.0095  0.4750  0.3905
  659MOL0     C86870   9.627   1.967   6.678  0.1826 -0.0489 -0.1453
  659MOL0     C86871   9.730   2.012   6.580  1.2807  0.8323 -0.2455
  659MOL0     C86872   9.782   1.902   6.481 -1.4068 -0.4098 -0.3509
  659MOL0     N86873   9.882   1.968   6.391  0.2181 -0.0573  0.3935
  659MOL0     C86874  10.014   1.933   6.395  0.0045 -0.2842 -0.4749
  659MOL0     C86875  10.073   2.021   6.300  0.2005 -0.2277 -1.8969
  659MOL0     C86876  10.227   2.044   6.282 -0.1208 -0.0622  0.4806
  659MOL0     C86877  10.259   2.038   6.129  0.3409 -1.0761  0.0431
  659MOL0     C86878  10.407   2.035   6.114 -0.9650  0.4591  0.0164
  659MOL0     C86879  10.444   2.029   5.963  0.0156  0.6078  0.0871
  659MOL0     O86880  10.589   2.016   5.940 -0.1310  0.2782 -0.5033
  659MOL0     C86881  10.636   1.899   6.008 -0.2710  0.3463  0.2059
  659MOL0     C86882  10.578   1.770   6.024  0.2072  1.0881  0.7690
  659MOL0     C86883  10.618   1.671   6.110 -0.0804 -0.6438 -0.1596
  659MOL0     C86884  10.745   1.703   6.180 -0.2058  0.9702 -0.0651
  659MOL0     C86885  10.791   1.606   6.277 -0.2914  0.3679  0.5498
  659MOL0     O86886  10.914   1.622   6.336 -0.4606 -0.1461  0.0305
  659MOL0     C86887  11.018   1.537   6.294  0.9343 -0.0532 -0.8667
  659MOL0     C86888  11.148   1.577   6.321 -0.2715 -0.9536 -0.5421
  659MOL0     C86889  11.252   1.484   6.295  0.0901  0.2896  0.4996
  659MOL0     C86890  11.235   1.362   6.238  0.5996  0.1737  0.0163
  659MOL0     O86891  11.329   1.261   6.216  0.5191  0.3489  0.1524
  659MOL0     C86892  11.460   1.284   6.268  0.4276 -0.3088 -0.5268
  659MOL0     C86893  11.569   1.199   6.201  0.5500  0.3944 -0.6218
  659MOL0     C86894  11.526   1.055   6.229  0.2575 -0.2454  0.2248
  659MOL0     C86895  11.623   0.963   6.175 -0.6127  0.0974 -0.0508
  659MOL0     C86896  11.583   0.815   6.186  0.7380  0.1408  0.7783
  659MOL0     C86897  11.659   0.719   6.084 -0.2384 -0.1012  0.2457
  659MOL0     C86898  11.811   0.712   6.120  0.4690  0.4156 -0.2131
  659MOL0     C86899  11.886   0.815   6.041  0.3252  0.6404  0.4641
  659MOL0    Cl86900  12.056   0.781   6.051 -0.3065 -0.0523 -0.1396
  659MOL0     C86901  11.099   1.317   6.218  0.4347  0.9909  0.0037
  659MOL0     C86902  10.990   1.406   6.245  0.7877 -0.3661  0.0956
  659MOL0     O86903  10.710   1.524   6.318 -0.3353  0.6252  0.0369
  659MOL0     C86904  10.812   1.823   6.159 -1.8652  0.0209 -0.0744
  659MOL0     C86905  10.757   1.917   6.074  0.6157 -0.5470 -0.7988
  659MOL0     N86906   9.975   2.099   6.251  0.3784  0.7484 -0.2496
  659MOL0     N86907   9.858   2.061   6.302 -0.6662 -0.6224  0.2820
  659MOL0     C86908   8.929   2.160   6.959  0.1833 -1.4297  0.8104
  659MOL0     C86909   8.798   2.136   6.918  0.0835 -0.8779 -0.3676
  659MOL0     C86910   8.413   2.006   6.913 -0.0390  0.2789 -0.3386
  659MOL0     C86911   8.309   1.956   6.989 -0.6864 -0.6079 -0.6519
  659MOL0     C86912   8.180   2.007   6.965  0.3672 -0.5781  0.3016
  659MOL0     C86913   8.148   2.094   6.863 -0.2524 -0.6860  0.3265
  659MOL0     O86914   8.014   2.125   6.844  0.0231  1.1166 -0.5870
  659MOL0     C86915   7.962   2.188   6.725  0.3046  0.1792 -0.0223
  659MOL0     C86916   7.824   2.141   6.714 -0.3065 -0.6555 -0.2591
  659MOL0     C86917   7.751   2.198   6.594 -0.4458 -0.3688 -0.5343
  659MOL0     C86918   7.788   2.338   6.543  0.0320 -0.0675 -0.5153
  659MOL0     C86919   7.758   2.432   6.649  0.0701  0.6049 -0.1172
  659MOL0     C86920   7.714   2.503   6.739 -0.2205  0.2439  0.0912
  659MOL0     C86921   8.255   2.151   6.794  0.1841 -0.4414  0.1225
  659MOL0     C86922   8.388   2.116   6.821  0.3827  0.3907  0.1819
  659MOL0     H86923   8.848   1.811   6.836 -1.8961 -0.0543  1.0684
  659MOL0     H86924   9.075   1.865   6.895  0.4769  0.7379 -0.4542
  659MOL0     H86925   9.249   1.934   6.983  3.6430  0.3371 -0.4766
  659MOL0     H86926   9.214   1.999   7.152 -0.2120  0.4508  0.2290
  659MOL0     H86927   9.446   1.976   7.099  1.3101  0.1764 -0.8142
  659MOL0     H86928   9.378   2.119   7.174  1.6905 -1.8537  1.1929
  659MOL0     H86929   9.558   2.172   6.999 -0.4790  2.1170 -1.3803
  659MOL0     H86930   9.404   2.232   6.951 -1.0270 -0.3018  0.2429
  659MOL0     H86931   9.482   1.941   6.881 -3.0957 -0.5717 -0.1541
  659MOL0     H86932   9.357   2.043   6.804 -1.1699 -3.0027  1.2025
  659MOL0     H86933   9.640   2.159   6.774 -1.3281  1.9245  0.5793
  659MOL0     H86934   9.513   2.157   6.675  0.5506  0.3570 -0.1252
  659MOL0     H86935   9.542   1.921   6.627 -0.3290  3.3721 -2.7274
  659MOL0     H86936   9.671   1.891   6.743  0.9456 -2.3997 -3.2066
  659MOL0     H86937   9.687   2.096   6.524 -0.7827 -1.6983 -2.7610
  659MOL0     H86938   9.819   2.038   6.638 -0.0757 -0.9701  2.8920
  659MOL0     H86939   9.697   1.856   6.429  0.3695 -3.7592 -0.5789
  659MOL0     H86940   9.832   1.808   6.508 -0.4725 -0.3463 -1.7666
  659MOL0     H86941  10.061   1.862   6.462 -1.0367 -0.1871  0.3743
  659MOL0     H86942  10.277   1.964   6.338 -2.4306 -0.5136  2.0379
  659MOL0     H86943  10.257   2.139   6.327 -3.0578  1.4462 -0.5293
  659MOL0     H86944  10.205   2.119   6.080 -0.0711 -1.4266 -0.0912
  659MOL0     H86945  10.213   1.944   6.096  2.5449 -2.0194 -0.5309
  659MOL0     H86946  10.463   2.126   6.137  1.4188 -0.2471 -2.3799
  659MOL0     H86947  10.439   1.945   6.167 -1.7005  2.7477  4.8385
  659MOL0     H86948  10.408   2.118   5.910  1.7402  0.8874 -0.6667
  659MOL0     H86949  10.396   1.946   5.912 -0.2819 -0.0564  1.3936
  659MOL0     H86950  10.491   1.760   5.959  2.1007  2.4956 -2.2342
  659MOL0     H86951  10.568   1.575   6.119 -1.7106  0.2303  0.6608
  659MOL0     H86952  11.159   1.678   6.359 -0.8187 -2.1131  3.0791
  659MOL0     H86953  11.347   1.528   6.322 -1.7389  3.3442  2.4970
  659MOL0     H86954  11.442   1.256   6.373 -1.6863 -0.2138 -0.8161
  659MOL0     H86955  11.499   1.385   6.252 -0.3460 -0.0567 -0.8893
  659MOL0     H86956  11.665   1.210   6.253  0.2430 -1.9245  0.5564
  659MOL0     H86957  11.582   1.226   6.096  4.8113 -0.4912 -0.5030
  659MOL0     H86958  11.427   1.033   6.189 -0.5731 -0.9229  2.4618
  659MOL0     H86959  11.516   1.036   6.337 -4.2935  0.2233  0.0686
  659MOL0     H86960  11.649   0.985   6.071  1.1572  1.4326  0.6229
  659MOL0     H86961  11.715   0.984   6.230 -1.2077 -0.4400  1.1969
  659MOL0     H86962  11.478   0.793   6.163  0.2346 -0.9969  3.6798
  659MOL0     H86963  11.612   0.779   6.285 -0.8008 -2.2540  0.4411
  659MOL0     H86964  11.643   0.751   5.981  2.2739 -1.7121 -0.7231
  659MOL0     H86965  11.616   0.620   6.100 -0.7872  0.1812  0.5692
  659MOL0     H86966  11.831   0.730   6.226  0.4780  1.0111 -0.3137
  659MOL0     H86967  11.830   0.608   6.093  3.1474 -0.3539  3.8412
  659MOL0     H86968  11.862   0.920   6.061 -0.8318  0.2786  1.0865
  659MOL0     H86969  11.855   0.784   5.941 -2.4371 -1.6140  1.8458
  659MOL0     H86970  11.070   1.222   6.174  1.3496 -0.4387  2.2929
  659MOL0     H86971  10.894   1.369   6.210  0.9262 -0.3128 -0.3509
  659MOL0     H86972  10.902   1.845   6.214 -0.4091 -2.8811 -1.0706
  659MOL0     H86973  10.794   2.019   6.068  0.2118 -0.2977  0.5019
  659MOL0     H86974   8.943   2.263   6.992  0.4790 -1.6286  1.3152
  659MOL0     H86975   8.721   2.214   6.915 -0.5774 -1.5256 -2.7856
  659MOL0     H86976   8.342   1.890   7.069  0.3487  1.4708  0.7299
  659MOL0     H86977   8.095   1.967   7.019 -1.7738  2.8451 -0.2322
  659MOL0     H86978   8.022   2.166   6.636 -0.3487 -0.2137 -0.3796
  659MOL0     H86979   7.961   2.295   6.745  1.2966  0.1458  0.2221
  659MOL0     H86980   7.833   2.034   6.696  1.6154 -0.6315  0.3743
  659MOL0     H86981   7.778   2.162   6.811  1.2308  0.0249  0.3463
  659MOL0     H86982   7.644   2.183   6.615  0.1659 -2.1370  1.7688
  659MOL0     H86983   7.769   2.118   6.522 -0.2211 -4.3394  3.5080
  659MOL0     H86984   7.895   2.340   6.521  0.7471 -0.7556  2.4531
  659MOL0     H86985   7.732   2.364   6.452 -0.7170 -1.6197 -0.5278
  659MOL0     H86986   7.672   2.579   6.802 -1.8518  0.9775 -1.7473
  659MOL0     H86987   8.235   2.217   6.710 -2.3914 -1.3969 -0.1030
  659MOL0     H86988   8.463   2.157   6.754  0.3942  1.7751  1.0171
  660MOL0     O86989   8.570   1.559   0.061 -0.7534 -0.0988  0.1771
  660MOL0     C86990   8.513   1.513  -0.036  0.0659  0.5906 -1.2812
  660MOL0     O86991   8.553   1.511  -0.160 -0.2947  0.0274 -0.4907
  660MOL0     C86992   8.670   1.546  -0.210 -0.5375  0.3592  0.0753
  660MOL0     C86993   8.693   1.485  -0.335 -0.3184  0.3676 -0.0137
  660MOL0     C86994   8.811   1.496  -0.396  0.2246  0.2879  0.3591
  660MOL0     C86995   8.920   1.562  -0.334  0.6198 -0.1551 -0.6707
  660MOL0     O86996   9.040   1.565  -0.385  0.1257 -0.7447  1.2653
  660MOL0     C86997   9.073   1.511  -0.512 -0.1135 -0.2621 -0.1118
  660MOL0     C86998   9.212   1.547  -0.557  0.3611 -0.2148  0.4885
  660MOL0     C86999   9.238   1.696  -0.591 -0.1658 -0.2936 -0.9938
  660MOL0     C87000   9.386   1.724  -0.620 -0.4376 -0.4575 -0.5687
  660MOL0     C87001   9.447   1.849  -0.557 -0.4401  1.1141 -0.1641
  660MOL0     C87002   9.431   1.981  -0.639  0.4282  0.3809  0.0165
  660MOL0     C87003   9.537   2.088  -0.598  0.0515 -0.1532 -0.4402
  660MOL0     C87004   9.547   2.213  -0.685 -0.4493 -0.1749  0.8737
  660MOL0     N87005   9.546   2.177  -0.828  0.0954 -0.4693  0.2228
  660MOL0     C87006   9.640   2.085  -0.876 -0.2400 -0.6593  0.3902
  660MOL0     C87007   9.586   2.059  -1.006 -0.0232 -0.1523  0.4551
  660MOL0     C87008   9.646   1.968  -1.111  0.4778 -0.4147 -0.1543
  660MOL0     C87009   9.766   2.031  -1.172 -1.0680 -0.0849  1.7903
  660MOL0     C87010   9.851   1.935  -1.264  0.0622 -0.1261  0.0154
  660MOL0     C87011   9.937   1.841  -1.182  0.3672  0.4673  0.0043
  660MOL0     O87012  10.031   1.909  -1.097  0.5955 -0.8473  0.0700
  660MOL0     C87013  10.164   1.894  -1.124 -0.1270  0.8375  0.3906
  660MOL0     C87014  10.243   1.781  -1.092  0.6106 -0.2257 -0.2350
  660MOL0     C87015  10.367   1.758  -1.139  0.5948  0.3159  0.3657
  660MOL0     C87016  10.424   1.853  -1.224  0.3673 -0.3011 -0.4348
  660MOL0     C87017  10.550   1.818  -1.290  0.1121  0.1383 -0.5745
  660MOL0     O87018  10.621   1.920  -1.340 -0.0922  0.4322 -0.2619
  660MOL0     C87019  10.724   1.878  -1.422  0.3430 -0.0536  0.3138
  660MOL0     C87020  10.853   1.890  -1.374  0.0008 -0.2086  0.4841
  660MOL0     C87021  10.956   1.837  -1.452  0.9372  0.2993 -0.4724
  660MOL0     C87022  10.946   1.782  -1.578 -0.1722  0.2335 -0.2201
  660MOL0     O87023  11.062   1.745  -1.642  0.4726  0.3439  1.0524
  660MOL0     C87024  11.177   1.831  -1.616  1.1781  0.6536  0.9455
  660MOL0     C87025  11.261   1.811  -1.735  0.1217 -0.9765  0.3698
  660MOL0     C87026  11.267   1.665  -1.794  0.7581 -0.5231 -0.5118
  660MOL0     C87027  11.390   1.640  -1.882  1.3186 -0.7548  0.1343
  660MOL0     C87028  11.363   1.526  -1.979 -0.6038  0.0233 -0.2159
  660MOL0     C87029  11.476   1.484  -2.062 -0.6245 -0.2949 -0.8913
  660MOL0     C87030  11.599   1.419  -1.999 -0.0823  0.9228 -0.0083
  660MOL0     C87031  11.709   1.525  -1.967  0.8260  0.4735 -0.0958
  660MOL0    Cl87032  11.758   1.610  -2.114  0.1673  0.0068 -0.3281
  660MOL0     C87033  10.817   1.776  -1.630 -0.2104  0.5822  0.0360
  660MOL0     C87034  10.701   1.818  -1.550  0.3498  0.6333 -0.7798
  660MOL0     O87035  10.583   1.693  -1.295 -0.1357 -0.8276 -0.7579
  660MOL0     C87036  10.351   1.970  -1.254 -0.1382 -0.4365 -0.8145
  660MOL0     C87037  10.224   1.989  -1.204  0.2082  0.4178 -0.7917
  660MOL0     N87038   9.472   2.132  -1.022  0.2624 -0.0019  0.4062
  660MOL0     N87039   9.444   2.197  -0.912 -0.3234  0.0758  0.0692
  660MOL0     C87040   8.891   1.646  -0.225 -0.0680  0.9393 -0.1821
  660MOL0     C87041   8.770   1.629  -0.162  0.4106 -1.1979 -0.4054
  660MOL0     C87042   8.402   1.426  -0.010  0.1819  0.5056 -0.1403
  660MOL0     C87043   8.301   1.447   0.086 -0.0730 -0.6564 -0.0916
  660MOL0     C87044   8.208   1.349   0.121 -0.4641 -0.8272 -0.2945
  660MOL0     C87045   8.203   1.230   0.055 -0.3643 -0.3640 -0.4548
  660MOL0     O87046   8.122   1.132   0.108 -0.6569 -0.5180  0.2803
  660MOL0     C87047   8.065   1.057   0.005  0.0150 -0.3648  0.0154
  660MOL0     C87048   7.936   1.014   0.064 -0.2164  0.6862  0.4640
  660MOL0     C87049   7.950   0.871   0.143 -0.7365  0.4722  0.8167
  660MOL0     C87050   7.846   0.768   0.106  0.2056 -1.2873 -0.9902
  660MOL0     C87051   7.849   0.711  -0.031 -0.1808  0.2024  0.4051
  660MOL0     C87052   7.842   0.679  -0.155 -0.2736 -0.0947 -0.3290
  660MOL0     C87053   8.294   1.211  -0.052 -0.1313 -0.7281 -1.3887
  660MOL0     C87054   8.390   1.310  -0.086  0.2836  0.0885 -0.1472
  660MOL0     H87055   8.609   1.433  -0.380 -2.1321 -0.0401  3.4496
  660MOL0     H87056   8.826   1.447  -0.491 -1.8498 -1.5739  0.8942
  660MOL0     H87057   9.007   1.555  -0.587 -2.3870  2.4545  3.2033
  660MOL0     H87058   9.068   1.402  -0.513 -0.4906 -0.2561  0.7448
  660MOL0     H87059   9.226   1.493  -0.651  4.7250 -1.1855  1.4692
  660MOL0     H87060   9.283   1.505  -0.485 -1.5838  1.8369  3.8571
  660MOL0     H87061   9.217   1.761  -0.505 -2.0147 -0.5286 -1.2215
  660MOL0     H87062   9.173   1.728  -0.673 -1.0114  3.4198  0.8701
  660MOL0     H87063   9.441   1.634  -0.591 -0.8451  0.3090  3.0955
  660MOL0     H87064   9.383   1.738  -0.729 -2.5318  0.4771 -0.4480
  660MOL0     H87065   9.553   1.829  -0.541 -0.7614 -0.0209  0.7175
  660MOL0     H87066   9.405   1.866  -0.457 -3.5686  2.9443 -1.6428
  660MOL0     H87067   9.332   2.024  -0.621 -0.1215  0.0501 -1.9771
  660MOL0     H87068   9.425   1.948  -0.743 -2.9992  0.0254  0.2194
  660MOL0     H87069   9.532   2.111  -0.491  0.0651  1.8144 -0.8237
  660MOL0     H87070   9.639   2.049  -0.607  0.3106  0.6890 -1.1967
  660MOL0     H87071   9.642   2.266  -0.671 -0.5942  2.2629 -4.7621
  660MOL0     H87072   9.473   2.277  -0.636  0.2890  0.4876  1.1548
  660MOL0     H87073   9.726   2.044  -0.824  1.4481 -1.7811 -2.9885
  660MOL0     H87074   9.560   1.969  -1.180 -2.1547  6.0495  2.3965
  660MOL0     H87075   9.670   1.872  -1.066  2.0593  0.8490  1.8550
  660MOL0     H87076   9.838   2.081  -1.107 -0.9824  1.9852  0.2059
  660MOL0     H87077   9.738   2.112  -1.240 -2.2629 -1.1025  1.0227
  660MOL0     H87078   9.788   1.869  -1.324 -0.3174 -0.0305  0.2982
  660MOL0     H87079   9.924   1.994  -1.319  1.2053 -0.5117  1.0672
  660MOL0     H87080   9.989   1.779  -1.255 -0.7755 -0.5307 -0.0017
  660MOL0     H87081   9.887   1.767  -1.119  2.0859 -0.4833  0.3096
  660MOL0     H87082  10.187   1.706  -1.036  0.5893  1.3931  2.0809
  660MOL0     H87083  10.405   1.661  -1.108 -1.6496 -0.7829 -0.1351
  660MOL0     H87084  10.856   1.929  -1.273 -3.3372 -2.0580  1.4549
  660MOL0     H87085  11.053   1.863  -1.411  1.8390 -1.9040 -1.0763
  660MOL0     H87086  11.231   1.812  -1.522  3.6611 -1.9301 -0.7970
  660MOL0     H87087  11.128   1.928  -1.626  0.1417 -0.0254 -0.9192
  660MOL0     H87088  11.363   1.842  -1.708 -0.6899  0.9033  1.5420
  660MOL0     H87089  11.237   1.882  -1.815 -1.5267 -1.2177  0.6158
  660MOL0     H87090  11.185   1.653  -1.865  0.6537 -1.1877 -0.2812
  660MOL0     H87091  11.261   1.583  -1.722  3.4165 -0.8203 -0.5091
  660MOL0     H87092  11.416   1.725  -1.946  1.1680 -0.6093  0.2665
  660MOL0     H87093  11.472   1.610  -1.816  0.6005  0.3503  1.5809
  660MOL0     H87094  11.284   1.556  -2.048  0.3731 -3.1944 -3.0109
  660MOL0     H87095  11.321   1.450  -1.912 -0.1661  0.8623  1.0622
  660MOL0     H87096  11.499   1.568  -2.128 -3.6650 -1.3895 -3.6310
  660MOL0     H87097  11.440   1.408  -2.132  0.7018  0.4429 -2.4351
  660MOL0     H87098  11.562   1.365  -1.911 -1.9344  0.3819 -1.0677
  660MOL0     H87099  11.631   1.337  -2.063  2.3015 -0.1051  2.3180
  660MOL0     H87100  11.789   1.469  -1.917 -0.9191 -0.4509  1.8402
  660MOL0     H87101  11.691   1.603  -1.892  1.7425 -1.7972  2.6729
  660MOL0     H87102  10.791   1.746  -1.731 -0.5789  2.7305 -0.5804
  660MOL0     H87103  10.600   1.817  -1.590 -0.7468 -0.7582  1.7827
  660MOL0     H87104  10.396   2.042  -1.321  1.5224  1.2628  1.9187
  660MOL0     H87105  10.168   2.078  -1.233  0.3864  1.0435  0.6750
  660MOL0     H87106   8.969   1.717  -0.199 -0.0572  2.0510 -2.9266
  660MOL0     H87107   8.756   1.691  -0.074  0.2284  2.3241 -2.7099
  660MOL0     H87108   8.307   1.529   0.156 -3.8801 -1.2084  1.1537
  660MOL0     H87109   8.153   1.353   0.215 -1.2514  1.1332 -0.7895
  660MOL0     H87110   8.131   0.975  -0.025  2.9888 -0.3723  5.3446
  660MOL0     H87111   8.059   1.111  -0.089  0.9920  0.3501  0.3472
  660MOL0     H87112   7.904   1.089   0.136  2.0515  2.2497 -0.0387
  660MOL0     H87113   7.865   1.000  -0.018 -1.6353 -0.3539  1.8064
  660MOL0     H87114   7.959   0.895   0.250  0.0533  0.5972  0.7311
  660MOL0     H87115   8.049   0.829   0.121 -1.7309 -2.4711  1.5304
  660MOL0     H87116   7.850   0.679   0.170 -0.3866 -2.0337 -1.9592
  660MOL0     H87117   7.752   0.824   0.106  2.1007  2.4927  3.0008
  660MOL0     H87118   7.869   0.634  -0.248  2.4313 -0.2797  0.4547
  660MOL0     H87119   8.288   1.123  -0.115  1.6241 -1.6776 -0.3120
  660MOL0     H87120   8.457   1.282  -0.166  0.7654 -1.2496  0.6923
  661MOL0     O87121   9.410   5.766   6.521  0.5089 -0.3211  0.3866
  661MOL0     C87122   9.466   5.663   6.475  0.3373 -0.0587  0.6784
  661MOL0     O87123   9.448   5.541   6.531  0.7580 -0.2467  0.8987
  661MOL0     C87124   9.336   5.518   6.606 -0.1598  0.1947  0.1764
  661MOL0     C87125   9.215   5.578   6.591 -0.0954 -0.0710 -0.6368
  661MOL0     C87126   9.111   5.543   6.669  0.6545 -0.1633 -0.0477
  661MOL0     C87127   9.113   5.446   6.770 -0.3891 -0.4758  0.1623
  661MOL0     O87128   9.005   5.432   6.848 -0.7084  0.0502 -0.2577
  661MOL0     C87129   8.987   5.313   6.920 -0.5286  0.0070 -0.6033
  661MOL0     C87130   8.877   5.229   6.847  1.0231 -0.0678 -1.1581
  661MOL0     C87131   8.738   5.307   6.851  0.2734 -0.3466  0.5044
  661MOL0     C87132   8.645   5.234   6.750 -0.7858 -0.3360 -0.6502
  661MOL0     C87133   8.505   5.275   6.787  0.2249  0.3863  0.1088
  661MOL0     C87134   8.428   5.173   6.877  0.1815  1.1081 -0.1333
  661MOL0     C87135   8.280   5.210   6.900  0.4224 -0.0405  0.6314
  661MOL0     C87136   8.217   5.104   6.993  0.4636 -0.6834  0.2506
  661MOL0     N87137   8.072   5.121   7.010  0.5188  0.4417  0.8638
  661MOL0     C87138   7.994   5.185   7.104 -0.0871  0.2786  0.3855
  661MOL0     C87139   7.870   5.163   7.062 -0.2948  0.1638 -0.2982
  661MOL0     C87140   7.744   5.216   7.129 -0.4935 -0.1570  0.3268
  661MOL0     C87141   7.653   5.301   7.030  0.2198 -0.6234  0.3812
  661MOL0     C87142   7.717   5.416   6.947  0.7605  0.0053 -0.7891
  661MOL0     C87143   7.785   5.526   7.030  0.9467  0.5969  0.7360
  661MOL0     O87144   7.850   5.630   6.956  0.6905 -0.6774 -0.2962
  661MOL0     C87145   7.970   5.666   7.000 -0.0894 -0.0985 -0.5506
  661MOL0     C87146   8.076   5.574   6.992 -0.4620 -0.4884  0.0266
  661MOL0     C87147   8.208   5.622   7.019 -0.7467  0.1328  0.1892
  661MOL0     C87148   8.234   5.753   7.056  0.0641 -0.0851 -0.8085
  661MOL0     C87149   8.369   5.803   7.056 -0.2081  1.0201  0.5205
  661MOL0     O87150   8.457   5.714   7.000 -0.7383  0.2986  0.8348
  661MOL0     C87151   8.570   5.766   6.945  0.9319  0.3520  0.0739
  661MOL0     C87152   8.578   5.881   6.863  0.3062  0.0859 -0.5640
  661MOL0     C87153   8.698   5.909   6.796  0.7196  0.3360  0.1735
  661MOL0     C87154   8.815   5.838   6.818  0.2529  0.6899  0.1408
  661MOL0     O87155   8.940   5.858   6.749 -0.3792  0.3147 -0.5095
  661MOL0     C87156   8.937   5.943   6.636  0.0685 -0.4358  0.6912
  661MOL0     C87157   9.055   5.908   6.547 -0.0374  0.4109  0.8381
  661MOL0     C87158   9.062   6.004   6.422  0.1855 -0.1775  0.0153
  661MOL0     C87159   9.199   6.005   6.363 -0.2536 -0.2084  0.5040
  661MOL0     C87160   9.224   6.139   6.296 -0.1777 -0.1284 -0.4766
  661MOL0     C87161   9.303   6.107   6.173 -0.4223 -0.5858  0.2620
  661MOL0     C87162   9.312   6.234   6.095 -0.3117 -0.4072 -0.8038
  661MOL0     C87163   9.445   6.239   6.012  0.2502  0.2553 -0.2983
  661MOL0    Cl87164   9.596   6.256   6.125  0.2275  0.3505 -0.0357
  661MOL0     C87165   8.805   5.718   6.896  0.1099 -0.2303 -0.4397
  661MOL0     C87166   8.688   5.685   6.959  1.2074  0.1711 -0.4199
  661MOL0     O87167   8.395   5.919   7.086  0.8463  0.7869 -0.5279
  661MOL0     C87168   8.130   5.842   7.067  1.1667 -0.7398 -0.4156
  661MOL0     C87169   7.997   5.798   7.037  0.3422 -0.3669 -0.5571
  661MOL0     N87170   7.865   5.098   6.945  0.0056  0.0133 -0.4821
  661MOL0     N87171   7.987   5.071   6.910 -0.0553 -0.3796  0.5337
  661MOL0     C87172   9.235   5.370   6.771  0.3779 -0.3343  0.3105
  661MOL0     C87173   9.340   5.410   6.692 -0.1013  0.7231  0.0782
  661MOL0     C87174   9.557   5.684   6.361 -0.3403  0.0609  0.2361
  661MOL0     C87175   9.603   5.821   6.324 -0.4094  0.8146 -0.8522
  661MOL0     C87176   9.660   5.834   6.197  0.8230  0.6190  0.0281
  661MOL0     C87177   9.693   5.728   6.116 -0.2105  0.4490  0.0177
  661MOL0     O87178   9.759   5.757   5.996 -0.1735 -0.1467  0.3103
  661MOL0     C87179   9.743   5.875   5.909  0.2919  0.6761 -0.6905
  661MOL0     C87180   9.598   5.903   5.869  0.2083  0.4703  0.2328
  661MOL0     C87181   9.561   5.808   5.748  0.8889  0.3705  0.8569
  661MOL0     C87182   9.420   5.813   5.706  1.3145 -0.0297  0.7673
  661MOL0     C87183   9.330   5.785   5.822 -0.2917  0.3411 -0.3193
  661MOL0     C87184   9.257   5.763   5.918  0.4628 -0.0382  0.7294
  661MOL0     C87185   9.660   5.596   6.159  0.9523 -0.0311 -0.5295
  661MOL0     C87186   9.596   5.576   6.280 -0.2779  0.0299 -0.8081
  661MOL0     H87187   9.191   5.661   6.525 -1.1403 -0.5027 -0.8138
  661MOL0     H87188   9.016   5.590   6.647 -0.3465 -2.2676 -0.5154
  661MOL0     H87189   8.964   5.342   7.023 -2.9617  1.2861 -1.4195
  661MOL0     H87190   9.080   5.256   6.923  0.1327  1.0648  2.4615
  661MOL0     H87191   8.868   5.132   6.897  1.1789 -0.4721 -1.8971
  661MOL0     H87192   8.898   5.208   6.741  2.8676  1.8307 -1.2277
  661MOL0     H87193   8.754   5.410   6.818 -1.9896  0.2096  0.9467
  661MOL0     H87194   8.703   5.302   6.955  0.9464  0.3219  0.7735
  661MOL0     H87195   8.671   5.271   6.651 -1.8250  0.5172 -0.6296
  661MOL0     H87196   8.649   5.125   6.743 -0.1931 -0.5457  1.7919
  661MOL0     H87197   8.437   5.299   6.704 -0.5332  0.3382  0.7017
  661MOL0     H87198   8.502   5.372   6.838  2.0734  1.7114 -2.0865
  661MOL0     H87199   8.483   5.158   6.970  1.4081  3.0093 -0.5020
  661MOL0     H87200   8.430   5.077   6.824  2.6597  1.6886 -1.2174
  661MOL0     H87201   8.275   5.313   6.935  1.4974  1.0504 -2.1689
  661MOL0     H87202   8.226   5.219   6.805  0.5156 -1.2320  0.4472
  661MOL0     H87203   8.271   5.107   7.089  0.6187  2.5182  0.1816
  661MOL0     H87204   8.244   5.009   6.946  1.1754 -0.3201 -0.0858
  661MOL0     H87205   8.032   5.231   7.195  0.6349  0.7654 -0.1600
  661MOL0     H87206   7.770   5.267   7.222 -3.1628 -0.5077  1.3450
  661MOL0     H87207   7.687   5.126   7.155 -0.2105 -1.2194 -2.3733
  661MOL0     H87208   7.576   5.350   7.089 -0.9021 -1.7462 -0.1054
  661MOL0     H87209   7.604   5.225   6.969  1.6199 -0.1209 -1.4632
  661MOL0     H87210   7.792   5.387   6.873  0.5060  2.0885 -1.9629
  661MOL0     H87211   7.638   5.470   6.892 -0.3195  0.0331  0.7265
  661MOL0     H87212   7.853   5.481   7.103 -1.1787 -3.2694  0.5959
  661MOL0     H87213   7.707   5.587   7.078  0.5736  1.2581 -0.6512
  661MOL0     H87214   8.063   5.472   6.959  4.6454 -2.0917  2.0324
  661MOL0     H87215   8.291   5.552   7.030 -0.6794  0.3392  0.9989
  661MOL0     H87216   8.487   5.939   6.862 -0.1492 -0.6238 -0.8317
  661MOL0     H87217   8.707   5.990   6.724 -0.5588  0.8216  0.5246
  661MOL0     H87218   8.933   6.051   6.654  0.2973  0.1521 -2.2761
  661MOL0     H87219   8.851   5.910   6.576  0.9320 -2.4071  0.4532
  661MOL0     H87220   9.047   5.804   6.512  0.3851  0.2939  1.0844
  661MOL0     H87221   9.153   5.906   6.595 -0.2011 -3.1106  1.2926
  661MOL0     H87222   9.041   6.104   6.459  1.5736 -0.3324  1.3489
  661MOL0     H87223   8.975   5.988   6.358 -0.3106  0.3829  0.5371
  661MOL0     H87224   9.280   6.002   6.436 -0.2610 -0.7085  0.4926
  661MOL0     H87225   9.194   5.928   6.286 -2.6026  0.6095 -0.2663
  661MOL0     H87226   9.255   6.219   6.365 -1.5351 -0.6449  0.7927
  661MOL0     H87227   9.122   6.168   6.270 -0.1974 -0.7069 -1.0699
  661MOL0     H87228   9.252   6.036   6.108  2.3160 -0.9302 -1.6797
  661MOL0     H87229   9.403   6.070   6.198 -0.1734  0.0193  0.1726
  661MOL0     H87230   9.225   6.248   6.030 -2.0265  3.1415  1.8520
  661MOL0     H87231   9.314   6.319   6.165  0.0699 -1.0855  0.0272
  661MOL0     H87232   9.443   6.315   5.933  3.3742  1.6327  0.7738
  661MOL0     H87233   9.460   6.145   5.960 -3.0717 -0.7212  0.2803
  661MOL0     H87234   8.891   5.656   6.918  0.8123  0.4263 -1.2535
  661MOL0     H87235   8.684   5.588   7.008 -2.5249  0.1513 -0.4700
  661MOL0     H87236   8.142   5.948   7.086  2.6657 -1.2872  2.2607
  661MOL0     H87237   7.922   5.876   7.043 -0.6924 -1.3753  0.0402
  661MOL0     H87238   9.262   5.288   6.837  1.7709 -0.0803  0.0777
  661MOL0     H87239   9.423   5.341   6.675 -0.2640  0.1115  1.6374
  661MOL0     H87240   9.580   5.907   6.386 -1.2623 -2.0154  3.1522
  661MOL0     H87241   9.675   5.939   6.175 -0.2555  1.0499  1.2279
  661MOL0     H87242   9.803   5.864   5.818  1.5267 -0.4867  0.2189
  661MOL0     H87243   9.787   5.962   5.958  1.7890 -1.2516  1.5884
  661MOL0     H87244   9.533   5.881   5.955  1.9770  0.3013  1.5977
  661MOL0     H87245   9.571   6.004   5.840 -1.4238 -0.5240 -1.9444
  661MOL0     H87246   9.596   5.708   5.773 -2.5597 -0.4214  3.1083
  661MOL0     H87247   9.605   5.838   5.652 -0.0266 -1.9434 -0.3450
  661MOL0     H87248   9.396   5.906   5.656  1.0478 -1.0290 -1.0439
  661MOL0     H87249   9.397   5.729   5.640  2.1872 -1.0631  1.7165
  661MOL0     H87250   9.196   5.753   6.006  0.2732  1.6126  0.8221
  661MOL0     H87251   9.688   5.514   6.094 -0.8291 -0.8640 -0.3016
  661MOL0     H87252   9.568   5.474   6.305  0.4707 -0.3392 -1.4253
  662MOL0     O87253   9.359   2.792  10.950 -0.0002  0.4291 -0.3003
  662MOL0     C87254   9.319   2.744  10.847 -0.1212  1.8314  0.1353
  662MOL0     O87255   9.333   2.615  10.812 -0.0063  0.8896  0.8966
  662MOL0     C87256   9.377   2.533  10.914  0.1434 -0.5078 -0.2722
  662MOL0     C87257   9.519   2.523  10.940  0.7178  0.6877 -0.4423
  662MOL0     C87258   9.570   2.414  11.016  0.6200 -0.2261 -0.0644
  662MOL0     C87259   9.485   2.331  11.086  0.8112  0.4952 -0.2184
  662MOL0     O87260   9.523   2.232  11.180  0.0216 -0.5135  0.6060
  662MOL0     C87261   9.634   2.255  11.265 -0.5773  0.8081 -0.4458
  662MOL0     C87262   9.659   2.128  11.341 -0.0072  0.7211 -0.8786
  662MOL0     C87263   9.552   2.089  11.440 -0.3344 -0.0144  0.4542
  662MOL0     C87264   9.571   2.173  11.559 -0.5026 -0.4595  0.8794
  662MOL0     C87265   9.466   2.142  11.666  0.0879  0.4928 -1.0873
  662MOL0     C87266   9.316   2.155  11.635  0.6150  0.1438  0.2799
  662MOL0     C87267   9.279   2.266  11.537  0.5389 -0.2174  0.8385
  662MOL0     C87268   9.129   2.272  11.522  0.5096 -0.5728 -0.2686
  662MOL0     N87269   9.088   2.370  11.426 -0.8037 -0.8225  0.3644
  662MOL0     C87270   9.139   2.502  11.420  0.6872 -0.1133  0.9289
  662MOL0     C87271   9.093   2.546  11.297  0.4518  0.0252 -0.2314
  662MOL0     C87272   9.135   2.677  11.244 -0.5416 -1.0793 -0.4661
  662MOL0     C87273   9.030   2.792  11.254  0.4778  0.2880  1.1230
  662MOL0     C87274   8.892   2.739  11.213  0.6015 -0.1683  0.3086
  662MOL0     C87275   8.877   2.694  11.065  0.3936  0.0478 -0.3271
  662MOL0     O87276   8.892   2.814  10.990  0.2029 -0.1831 -1.3035
  662MOL0     C87277   8.843   2.820  10.860 -0.1373  0.9003  1.8880
  662MOL0     C87278   8.839   2.942  10.792 -1.1745 -0.3755 -0.0855
  662MOL0     C87279   8.800   2.951  10.662 -0.5231  0.3882  0.1159
  662MOL0     C87280   8.767   2.833  10.582 -0.3294 -0.4560 -0.2164
  662MOL0     C87281   8.745   2.823  10.437 -0.2111  0.8909  1.1054
  662MOL0     O87282   8.720   2.701  10.383  0.1622 -0.3955 -0.8285
  662MOL0     C87283   8.680   2.690  10.257 -0.7366  0.5138 -0.7521
  662MOL0     C87284   8.545   2.677  10.235 -0.4501 -0.3448  0.1577
  662MOL0     C87285   8.495   2.654  10.109 -0.2630 -0.3180 -0.2448
  662MOL0     C87286   8.583   2.622  10.006  1.0001  0.1576 -0.4734
  662MOL0     O87287   8.543   2.574   9.882  0.3718 -0.5600  0.5382
  662MOL0     C87288   8.440   2.654   9.817 -0.3476 -0.2959  0.5461
  662MOL0     C87289   8.311   2.570   9.793 -1.0876 -1.1884 -1.7983
  662MOL0     C87290   8.224   2.641   9.701 -0.5097 -0.1476  0.2833
  662MOL0     C87291   8.086   2.572   9.697  0.7435 -0.2310  0.3793
  662MOL0     C87292   7.981   2.642   9.619 -0.4635  0.2294  1.0473
  662MOL0     C87293   7.847   2.560   9.626 -0.8590 -0.0586  0.5099
  662MOL0     C87294   7.735   2.624   9.546  0.0951 -0.3289 -0.5475
  662MOL0     C87295   7.770   2.619   9.394  0.5200 -0.3816 -0.3330
  662MOL0    Cl87296   7.619   2.596   9.309  0.1175  0.2384 -0.0714
  662MOL0     C87297   8.710   2.633  10.025 -0.5121 -0.9924  1.0019
  662MOL0     C87298   8.771   2.676  10.151  0.9636  1.3962 -0.2708
  662MOL0     O87299   8.765   2.920  10.364  0.0528 -0.0806  0.3553
  662MOL0     C87300   8.759   2.711  10.653 -0.0131 -1.2080  0.3665
  662MOL0     C87301   8.796   2.707  10.789  0.2923 -0.0190  0.9041
  662MOL0     N87302   9.011   2.455  11.243  0.4014 -0.1663 -0.2405
  662MOL0     N87303   9.009   2.349  11.314  0.1166  0.6284 -0.2593
  662MOL0     C87304   9.348   2.353  11.070  0.0199 -0.5637  0.1461
  662MOL0     C87305   9.299   2.430  10.973  0.1428 -0.7812  0.0997
  662MOL0     C87306   9.282   2.847  10.743 -0.2382  0.9414 -0.1687
  662MOL0     C87307   9.193   2.798  10.641  1.1460 -0.7995 -0.6737
  662MOL0     C87308   9.162   2.878  10.534 -0.1598 -0.3668 -0.0924
  662MOL0     C87309   9.218   3.007  10.524  0.0723 -0.0726  0.4688
  662MOL0     O87310   9.204   3.102  10.423  0.6453  0.0216  0.1371
  662MOL0     C87311   9.111   3.082  10.321  0.6199  0.0857  0.0585
  662MOL0     C87312   9.169   3.159  10.201 -0.6817  0.8471 -0.2057
  662MOL0     C87313   9.089   3.137  10.074 -0.2601  0.1939  0.3499
  662MOL0     C87314   9.158   3.187   9.948 -0.5915  0.1112 -0.4535
  662MOL0     C87315   9.277   3.111   9.916 -0.4640 -0.1759 -1.0005
  662MOL0     C87316   9.389   3.072   9.894 -0.2578 -0.5487  0.6209
  662MOL0     C87317   9.302   3.054  10.628  0.2141  0.1327 -0.1314
  662MOL0     C87318   9.331   2.979  10.741 -0.7520 -0.3100 -0.0002
  662MOL0     H87319   9.588   2.584  10.883  0.8027  1.0039 -0.0056
  662MOL0     H87320   9.676   2.397  11.001  0.2001 -0.5858 -3.5137
  662MOL0     H87321   9.604   2.338  11.330 -1.3621 -0.1154  0.4092
  662MOL0     H87322   9.726   2.278  11.211 -0.0839  2.6488  1.0342
  662MOL0     H87323   9.754   2.136  11.395  0.0022  1.0536 -0.9441
  662MOL0     H87324   9.681   2.039  11.281  0.5862 -1.8993  2.8818
  662MOL0     H87325   9.579   1.988  11.474 -3.0003  0.0900  3.3649
  662MOL0     H87326   9.451   2.084  11.398 -1.4937  0.8901  2.9165
  662MOL0     H87327   9.674   2.165  11.597  0.0435  1.4570 -0.0737
  662MOL0     H87328   9.553   2.276  11.527  0.7099 -0.2540  0.7930
  662MOL0     H87329   9.485   2.189  11.762 -0.2082 -0.7870 -0.3769
  662MOL0     H87330   9.484   2.035  11.681  0.8066  0.5487 -1.4913
  662MOL0     H87331   9.260   2.179  11.726  1.3077  0.2118  0.6901
  662MOL0     H87332   9.283   2.058  11.596 -0.1656 -0.3840  2.1404
  662MOL0     H87333   9.334   2.354  11.570  2.7264 -1.6048  1.0743
  662MOL0     H87334   9.323   2.244  11.440  0.8275 -0.4812  1.0291
  662MOL0     H87335   9.075   2.300  11.613 -1.8437 -1.1685 -1.3829
  662MOL0     H87336   9.086   2.177  11.490 -0.0538 -0.3811 -0.0949
  662MOL0     H87337   9.201   2.559  11.489  0.0686 -0.7189  2.0145
  662MOL0     H87338   9.161   2.665  11.138 -0.0229  0.2871 -0.5098
  662MOL0     H87339   9.230   2.716  11.282 -1.8440  1.2206  0.6209
  662MOL0     H87340   9.046   2.881  11.192  2.1733  0.2300  1.4303
  662MOL0     H87341   9.037   2.820  11.359  3.2218 -2.2847  1.7604
  662MOL0     H87342   8.858   2.648  11.263 -2.4751  0.4256 -0.4524
  662MOL0     H87343   8.827   2.824  11.237  0.0874  0.1659 -2.0457
  662MOL0     H87344   8.780   2.648  11.042 -1.7754  4.2290 -0.5070
  662MOL0     H87345   8.954   2.620  11.039  0.2562  0.0509 -0.7487
  662MOL0     H87346   8.875   3.031  10.844 -1.4665 -1.6722  2.5102
  662MOL0     H87347   8.800   3.052  10.623  0.9002  1.8304  3.4276
  662MOL0     H87348   8.478   2.672  10.320 -0.1319  2.0550  0.6105
  662MOL0     H87349   8.391   2.645  10.079 -0.5306  1.5536  0.0035
  662MOL0     H87350   8.467   2.667   9.712  1.0762 -0.7917  0.8288
  662MOL0     H87351   8.427   2.749   9.869 -0.1952 -1.8994  3.7954
  662MOL0     H87352   8.266   2.573   9.892  2.1491  2.5688 -0.1988
  662MOL0     H87353   8.327   2.470   9.751  2.1068 -1.4832 -0.1313
  662MOL0     H87354   8.273   2.639   9.604  2.1986  3.6425  1.3535
  662MOL0     H87355   8.215   2.745   9.733 -0.2471 -1.1787  4.1990
  662MOL0     H87356   8.102   2.473   9.655 -0.7240  0.4979 -2.0563
  662MOL0     H87357   8.047   2.557   9.798  0.3824  0.1534  0.2986
  662MOL0     H87358   8.013   2.668   9.518 -1.0758  2.3239  1.3350
  662MOL0     H87359   7.947   2.738   9.660 -3.3325  0.9816 -2.5030
  662MOL0     H87360   7.805   2.551   9.727  2.0879 -2.7332  1.6560
  662MOL0     H87361   7.856   2.454   9.600 -3.1317 -0.8894  2.7723
  662MOL0     H87362   7.649   2.566   9.578 -0.3637  1.5257  1.8533
  662MOL0     H87363   7.721   2.728   9.579 -3.4278 -1.0474  0.6825
  662MOL0     H87364   7.841   2.543   9.359  1.6089 -0.5718  2.0722
  662MOL0     H87365   7.813   2.713   9.356  1.9184 -1.5738 -1.8694
  662MOL0     H87366   8.777   2.611   9.943 -4.9576 -2.4176 -2.7020
  662MOL0     H87367   8.879   2.671  10.159  0.7830 -1.7984  1.5260
  662MOL0     H87368   8.733   2.616  10.606  0.2120 -2.7642  3.1517
  662MOL0     H87369   8.819   2.616  10.843  1.9880  0.0807  0.4128
  662MOL0     H87370   9.274   2.284  11.110 -1.4768 -1.9023 -4.3229
  662MOL0     H87371   9.195   2.442  10.944  0.8034  1.6240 -1.5882
  662MOL0     H87372   9.148   2.700  10.654 -2.0977  0.6939  0.3905
  662MOL0     H87373   9.088   2.840  10.465  0.1486 -0.9318 -0.1210
  662MOL0     H87374   9.015   3.124  10.353 -0.1260 -0.3013 -1.5475
  662MOL0     H87375   9.099   2.974  10.304  0.7164 -0.1451  1.3347
  662MOL0     H87376   9.169   3.268  10.217  0.5054  0.5896  1.9827
  662MOL0     H87377   9.272   3.127  10.185 -1.8791 -2.6373 -2.0226
  662MOL0     H87378   8.990   3.177  10.096  0.0050  0.3991  1.2030
  662MOL0     H87379   9.068   3.031  10.055  0.5584 -0.0365  0.6688
  662MOL0     H87380   9.090   3.196   9.862 -1.4332  3.3200  0.3998
  662MOL0     H87381   9.187   3.293   9.950  0.9209 -0.1281 -3.2580
  662MOL0     H87382   9.490   3.047   9.868 -0.9221 -0.4494 -2.3689
  662MOL0     H87383   9.353   3.149  10.616  0.2035  0.0999 -0.4498
  662MOL0     H87384   9.397   3.005  10.823 -1.4841 -0.0257  0.5064
  663MOL0     O87385   0.784   3.171   9.474 -0.4133  0.0730 -0.2061
  663MOL0     C87386   0.780   3.257   9.385 -0.7902 -0.1554 -0.2990
  663MOL0     O87387   0.841   3.383   9.379 -0.4754 -0.1368  0.3370
  663MOL0     C87388   0.885   3.438   9.492  0.1652  1.0180 -0.4259
  663MOL0     C87389   0.813   3.432   9.610  0.6561 -0.4127 -0.2875
  663MOL0     C87390   0.845   3.512   9.724 -0.2609 -0.4989 -0.4287
  663MOL0     C87391   0.953   3.591   9.720  0.5387  0.3412  0.7939
  663MOL0     O87392   0.978   3.654   9.838 -0.2772 -0.4768 -0.0869
  663MOL0     C87393   1.121   3.676   9.857 -0.1759  0.4263  0.1003
  663MOL0     C87394   1.132   3.755   9.991 -0.0923  0.1779  0.6663
  663MOL0     C87395   1.089   3.673  10.114 -0.3881  0.5265  1.0587
  663MOL0     C87396   1.175   3.540  10.130  0.0199  0.2633  0.5186
  663MOL0     C87397   1.168   3.480  10.272  0.0925  0.0042  0.1875
  663MOL0     C87398   1.036   3.419  10.306  1.3581 -0.8731 -0.2377
  663MOL0     C87399   1.000   3.446  10.454 -0.5480  0.0944 -1.1144
  663MOL0     C87400   1.091   3.348  10.533 -0.0340  1.0133  0.5530
  663MOL0     N87401   1.084   3.360  10.678 -1.3438  0.2984  0.5302
  663MOL0     C87402   0.982   3.325  10.760  0.1147 -0.3624 -0.2120
  663MOL0     C87403   1.019   3.350  10.893  0.2135 -0.5761  0.2780
  663MOL0     C87404   0.929   3.343  11.014 -0.4097 -0.4544  0.8092
  663MOL0     C87405   1.002   3.301  11.147  0.7163 -0.1654 -0.7388
  663MOL0     C87406   0.943   3.381  11.265  0.0891  1.0116 -0.5222
  663MOL0     C87407   0.792   3.359  11.280  0.0309  0.5327  0.2429
  663MOL0     O87408   0.748   3.424  11.401 -0.4636 -0.9195  0.1658
  663MOL0     C87409   0.673   3.356  11.482  1.3233  0.9337 -0.0199
  663MOL0     C87410   0.560   3.413  11.538 -0.3197 -1.0087  0.5076
  663MOL0     C87411   0.477   3.348  11.628 -0.4054  0.0950 -0.6245
  663MOL0     C87412   0.513   3.225  11.682  0.2518 -0.1253 -0.5584
  663MOL0     C87413   0.440   3.166  11.800 -0.2181  0.0587 -0.6971
  663MOL0     O87414   0.321   3.214  11.807 -0.7193 -0.3643  0.0573
  663MOL0     C87415   0.228   3.131  11.845 -0.1514  1.0776 -0.8790
  663MOL0     C87416   0.119   3.171  11.927  0.3302  0.7655 -0.5131
  663MOL0     C87417   0.026   3.080  11.979  0.3093  0.2231 -0.2825
  663MOL0     C87418   0.041   2.943  11.951 -0.9513 -0.0452 -0.0310
  663MOL0     O87419  -0.053   2.845  11.981  0.5117  0.1707  1.0200
  663MOL0     C87420  -0.181   2.888  11.927 -0.1334 -0.5607  0.7275
  663MOL0     C87421  -0.271   2.857  12.040 -0.2599 -0.0720 -0.0266
  663MOL0     C87422  -0.416   2.836  11.978  0.4265  0.3036 -0.4177
  663MOL0     C87423  -0.530   2.826  12.084  1.2099  0.4953 -0.3999
  663MOL0     C87424  -0.673   2.833  12.014 -0.6560 -0.4524 -0.8019
  663MOL0     C87425  -0.792   2.833  12.116  0.0808 -0.3139  0.0058
  663MOL0     C87426  -0.838   2.976  12.162 -0.2106 -0.0868 -0.2757
  663MOL0     C87427  -0.946   2.965  12.272  1.2145 -0.4131 -0.3129
  663MOL0    Cl87428  -0.970   3.132  12.323  0.1699  0.3859 -0.2944
  663MOL0     C87429   0.138   2.899  11.861  0.2783 -0.3367  0.1723
  663MOL0     C87430   0.221   2.994  11.797 -0.5062  0.5341 -1.1416
  663MOL0     O87431   0.491   3.087  11.883  0.0008 -0.1015 -0.7256
  663MOL0     C87432   0.638   3.162  11.635 -0.3241 -0.0547  1.5685
  663MOL0     C87433   0.722   3.238  11.537  0.7407  1.4109 -1.2519
  663MOL0     N87434   1.149   3.401  10.876  1.1426 -0.1487  0.4757
  663MOL0     N87435   1.187   3.411  10.748 -0.3646  0.0691 -0.0158
  663MOL0     C87436   1.032   3.588   9.595  0.1019  0.6505  0.1226
  663MOL0     C87437   1.002   3.508   9.483 -0.3366  0.4049 -0.1690
  663MOL0     C87438   0.701   3.235   9.267 -0.7832  1.0028  0.2364
  663MOL0     C87439   0.649   3.342   9.196  0.3408 -0.1422 -0.7510
  663MOL0     C87440   0.567   3.336   9.078  0.3791  0.8425 -0.1923
  663MOL0     C87441   0.536   3.201   9.036 -0.8229  1.0496 -0.4311
  663MOL0     O87442   0.468   3.174   8.926 -0.6186  0.0089  0.4772
  663MOL0     C87443   0.482   3.057   8.842  0.0143 -0.1245 -1.0385
  663MOL0     C87444   0.616   3.051   8.772 -0.6832 -0.1399  0.7431
  663MOL0     C87445   0.625   2.933   8.669  0.9767  0.0164 -0.5292
  663MOL0     C87446   0.754   2.890   8.605 -0.6865 -0.8633 -0.1654
  663MOL0     C87447   0.726   2.789   8.497 -0.4093  1.1844  0.3893
  663MOL0     C87448   0.699   2.699   8.419 -0.1176 -0.6437  0.2319
  663MOL0     C87449   0.581   3.092   9.112 -0.6318 -0.5234 -1.2424
  663MOL0     C87450   0.661   3.115   9.222 -0.0978 -0.4711  0.1933
  663MOL0     H87451   0.724   3.370   9.611 -1.3415  2.1024 -3.3640
  663MOL0     H87452   0.782   3.501   9.812  1.2368 -0.8108  0.6438
  663MOL0     H87453   1.154   3.740   9.775 -1.0251  1.2307  0.3608
  663MOL0     H87454   1.173   3.581   9.868  1.9911  1.8002  3.1312
  663MOL0     H87455   1.067   3.842   9.975 -2.0899 -1.6240 -1.8197
  663MOL0     H87456   1.232   3.796  10.005 -1.3417  2.9706  2.4988
  663MOL0     H87457   0.980   3.662  10.119 -0.9365  2.8601 -2.1810
  663MOL0     H87458   1.106   3.736  10.201  1.5126  0.2926  0.8991
  663MOL0     H87459   1.130   3.480  10.051  1.0381  1.7323 -1.2427
  663MOL0     H87460   1.278   3.568  10.107  1.5156 -2.1055  3.5804
  663MOL0     H87461   1.196   3.563  10.337 -0.3369  2.1934 -2.2849
  663MOL0     H87462   1.252   3.409  10.270  0.3418  0.3099 -1.1204
  663MOL0     H87463   1.043   3.311  10.286  1.1769 -1.0687  0.7106
  663MOL0     H87464   0.961   3.464  10.241  2.3435  0.6784 -0.3464
  663MOL0     H87465   1.024   3.549  10.483  1.3837 -1.0957  2.1509
  663MOL0     H87466   0.897   3.420  10.479 -0.1225 -0.9914 -0.4304
  663MOL0     H87467   1.194   3.356  10.497 -0.7908  0.7012 -1.8799
  663MOL0     H87468   1.057   3.245  10.519  0.0050  1.1662 -0.7374
  663MOL0     H87469   0.882   3.289  10.740  0.2747 -0.8276 -0.1759
  663MOL0     H87470   0.851   3.270  10.994 -0.7689 -0.4485  2.1463
  663MOL0     H87471   0.884   3.442  11.025  1.4326  0.2323  3.2480
  663MOL0     H87472   1.109   3.322  11.143  1.1826 -2.2074 -0.0926
  663MOL0     H87473   0.993   3.195  11.172 -1.0779  0.4843  1.6965
  663MOL0     H87474   0.983   3.340  11.358 -0.6773 -0.7495 -0.9222
  663MOL0     H87475   0.971   3.486  11.256  2.0757  0.5216 -0.5053
  663MOL0     H87476   0.766   3.252  11.277 -2.5651  1.1177 -0.1512
  663MOL0     H87477   0.736   3.407  11.199 -3.4705 -0.5459  1.8480
  663MOL0     H87478   0.544   3.514  11.502  2.0039 -1.3712 -1.8477
  663MOL0     H87479   0.385   3.396  11.661 -0.4748 -1.1310  1.1325
  663MOL0     H87480   0.115   3.278  11.945  1.2069  1.0362 -1.7760
  663MOL0     H87481  -0.042   3.103  12.060 -0.2100 -1.3974 -0.2330
  663MOL0     H87482  -0.205   2.834  11.835 -0.8659  1.1411 -0.1186
  663MOL0     H87483  -0.193   2.992  11.894 -0.3252 -0.8951 -0.2900
  663MOL0     H87484  -0.265   2.932  12.119  0.9191 -0.8051  0.6093
  663MOL0     H87485  -0.240   2.765  12.089 -1.3641 -0.6275 -0.3316
  663MOL0     H87486  -0.416   2.743  11.921  0.9068 -0.2057  0.3816
  663MOL0     H87487  -0.432   2.920  11.911  0.5709 -1.1967 -2.4276
  663MOL0     H87488  -0.513   2.732  12.137  4.0310  1.5549  0.7540
  663MOL0     H87489  -0.527   2.903  12.162  0.6932  0.9091 -0.7819
  663MOL0     H87490  -0.676   2.742  11.953  1.4022 -0.8262 -0.4188
  663MOL0     H87491  -0.685   2.929  11.961  3.3368  1.7933  1.8291
  663MOL0     H87492  -0.759   2.766  12.196 -1.3455 -2.4376 -1.1038
  663MOL0     H87493  -0.882   2.799  12.065 -0.8619  3.5520 -1.2209
  663MOL0     H87494  -0.754   3.042  12.187 -2.1665  1.3013  3.3975
  663MOL0     H87495  -0.892   3.011  12.074  0.4491  0.5682 -0.4319
  663MOL0     H87496  -0.914   2.916  12.364  0.4833  1.1690  0.8344
  663MOL0     H87497  -1.044   2.937  12.230  0.9091  2.4156 -1.7326
  663MOL0     H87498   0.153   2.797  11.829  1.6363  0.6244 -2.6060
  663MOL0     H87499   0.290   2.951  11.725 -0.5705 -1.4616 -0.0915
  663MOL0     H87500   0.673   3.070  11.681  0.0205  0.3789  2.1796
  663MOL0     H87501   0.823   3.201  11.521  1.3907  2.1437  0.8195
  663MOL0     H87502   1.131   3.632   9.601  0.3512 -0.0708  1.9116
  663MOL0     H87503   1.063   3.489   9.395 -1.4377 -0.3792 -0.7865
  663MOL0     H87504   0.684   3.442   9.217  1.7580 -1.1649  2.4284
  663MOL0     H87505   0.536   3.423   9.021 -1.8414 -0.2875 -0.8588
  663MOL0     H87506   0.410   3.067   8.759  1.6604  2.7092 -2.2943
  663MOL0     H87507   0.465   2.967   8.901 -1.0117  0.2528 -0.7283
  663MOL0     H87508   0.659   3.141   8.725 -1.8247 -0.7569 -1.6503
  663MOL0     H87509   0.691   3.024   8.847 -0.0118  4.9895  2.3419
  663MOL0     H87510   0.559   2.958   8.586 -0.9685  2.7528  1.6808
  663MOL0     H87511   0.582   2.846   8.721 -0.6256 -2.2197 -5.0521
  663MOL0     H87512   0.814   2.967   8.554  1.8678 -2.7549 -0.2110
  663MOL0     H87513   0.820   2.843   8.678 -0.2113  1.5863  1.1058
  663MOL0     H87514   0.651   2.640   8.343 -0.1846  2.0765 -2.0449
  663MOL0     H87515   0.552   2.988   9.098 -1.2763 -0.4340 -0.6481
  663MOL0     H87516   0.669   3.028   9.286 -0.6522 -1.5713 -1.2034
  664MOL0     O87517   0.650   7.713   7.837  0.8433  0.4737  0.5136
  664MOL0     C87518   0.621   7.775   7.937  0.7101 -1.0065  0.3227
  664MOL0     O87519   0.702   7.819   8.036 -0.0330  0.4658  0.3590
  664MOL0     C87520   0.836   7.843   8.003 -0.4837  0.1523 -0.3268
  664MOL0     C87521   0.882   7.960   7.943  0.0397 -0.8563  0.4089
  664MOL0     C87522   1.018   7.979   7.915 -0.2598 -0.5909 -0.3382
  664MOL0     C87523   1.113   7.877   7.955  0.5912 -0.5507  0.1352
  664MOL0     O87524   1.243   7.910   7.947  0.6225  0.2007  0.4544
  664MOL0     C87525   1.337   7.813   7.995  0.5448 -0.5065  0.2373
  664MOL0     C87526   1.480   7.868   7.981 -0.1457  0.2171  0.6080
  664MOL0     C87527   1.571   7.794   8.075  0.1513  0.0774  0.3936
  664MOL0     C87528   1.710   7.833   8.059 -0.0178  0.0280  0.1965
  664MOL0     C87529   1.815   7.736   8.110  1.0634  0.2201 -1.0298
  664MOL0     C87530   1.842   7.775   8.258 -0.3941 -0.1318  0.5237
  664MOL0     C87531   1.971   7.701   8.304  0.3017  0.2669  0.6759
  664MOL0     C87532   2.005   7.744   8.443  0.2979 -0.2685  0.3665
  664MOL0     N87533   2.030   7.888   8.453  0.0075  0.1684 -0.2875
  664MOL0     C87534   2.123   7.959   8.379 -0.2174  0.5941 -0.8463
  664MOL0     C87535   2.091   8.087   8.412 -0.5927  0.5668  0.1258
  664MOL0     C87536   2.134   8.217   8.356  0.1608  0.1687 -0.6224
  664MOL0     C87537   2.282   8.224   8.322 -0.3089  0.3872  0.1871
  664MOL0     C87538   2.365   8.207   8.446 -0.7479 -0.0952 -0.3854
  664MOL0     C87539   2.415   8.070   8.478  0.4525 -0.5985 -0.6538
  664MOL0     O87540   2.439   7.992   8.362 -0.1416  0.7364 -0.3695
  664MOL0     C87541   2.493   7.866   8.380  0.4702  0.2535 -1.0690
  664MOL0     C87542   2.513   7.783   8.267  0.7884  0.9982 -0.3751
  664MOL0     C87543   2.557   7.653   8.288 -0.5555  0.1266 -0.3058
  664MOL0     C87544   2.605   7.601   8.411  0.5747 -0.4891  0.1487
  664MOL0     C87545   2.661   7.463   8.428  0.7895 -0.7389  0.0515
  664MOL0     O87546   2.710   7.396   8.317  0.4143  0.9368  0.2177
  664MOL0     C87547   2.789   7.292   8.338 -0.3758 -0.2237  0.2984
  664MOL0     C87548   2.739   7.158   8.346  0.9732  0.1736 -0.4685
  664MOL0     C87549   2.817   7.043   8.340  0.2356  0.0581 -0.0018
  664MOL0     C87550   2.953   7.057   8.342  0.0335 -0.0127 -0.1697
  664MOL0     O87551   3.028   6.949   8.324 -0.2790 -0.5686 -0.3296
  664MOL0     C87552   3.156   6.958   8.259 -0.1091 -0.1768  0.3043
  664MOL0     C87553   3.201   6.831   8.180 -0.5685  0.0464 -0.0376
  664MOL0     C87554   3.340   6.836   8.111 -0.9440 -0.3946 -0.6066
  664MOL0     C87555   3.351   6.714   8.035 -0.2807 -0.0284  0.2800
  664MOL0     C87556   3.483   6.701   7.958 -0.9602 -0.0817 -0.6925
  664MOL0     C87557   3.610   6.654   8.038  0.9192 -0.9825 -0.6169
  664MOL0     C87558   3.730   6.632   7.953  0.4197  1.0147 -0.1857
  664MOL0     C87559   3.717   6.506   7.869  0.5427 -0.4542  0.7627
  664MOL0    Cl87560   3.873   6.493   7.769 -0.1005 -0.2870  0.1241
  664MOL0     C87561   3.011   7.184   8.338 -0.6602  1.1265 -0.3652
  664MOL0     C87562   2.936   7.297   8.330  0.6016  0.1964 -0.3765
  664MOL0     O87563   2.667   7.421   8.541  0.1517 -0.2050 -0.1311
  664MOL0     C87564   2.594   7.684   8.517  0.5648  0.1918  0.0840
  664MOL0     C87565   2.541   7.815   8.503  0.2562  0.0409  0.1002
  664MOL0     N87566   1.991   8.081   8.510 -1.1123 -0.6891  0.7471
  664MOL0     N87567   1.944   7.961   8.520 -0.0558  0.1471  0.2323
  664MOL0     C87568   1.055   7.753   8.004 -0.8283 -0.3876 -0.6544
  664MOL0     C87569   0.919   7.742   8.035 -0.1453  0.5911 -0.4322
  664MOL0     C87570   0.469   7.775   7.964 -0.3292 -0.6599 -0.1864
  664MOL0     C87571   0.419   7.785   8.091  0.8865  0.7090 -0.3379
  664MOL0     C87572   0.278   7.794   8.105 -0.4489  0.4013 -0.3470
  664MOL0     C87573   0.188   7.795   7.995  0.4207  0.3454 -0.0482
  664MOL0     O87574   0.046   7.811   8.002  1.0867 -0.2371  0.0219
  664MOL0     C87575  -0.021   7.855   8.114  1.1373 -0.0119 -0.3999
  664MOL0     C87576  -0.057   7.732   8.210  1.0809  0.4067  1.0190
  664MOL0     C87577  -0.039   7.771   8.356 -0.2947 -0.1016 -0.5151
  664MOL0     C87578  -0.073   7.643   8.455  0.3604  0.3411 -1.0618
  664MOL0     C87579   0.028   7.528   8.444  0.1971  0.4389  0.0781
  664MOL0     C87580   0.119   7.450   8.425  0.1259  0.1405 -0.4040
  664MOL0     C87581   0.241   7.792   7.865 -0.3104  0.4968  0.6505
  664MOL0     C87582   0.380   7.769   7.855  1.1680  0.4275 -0.1203
  664MOL0     H87583   0.818   8.044   7.922  3.5122  1.1442 -3.9447
  664MOL0     H87584   1.045   8.074   7.871 -2.2375 -0.7855 -2.1102
  664MOL0     H87585   1.324   7.723   7.935 -3.8552  0.8927 -1.3006
  664MOL0     H87586   1.321   7.798   8.102 -0.9657 -3.2564 -0.2860
  664MOL0     H87587   1.489   7.976   7.996  1.1537  0.1766  0.2845
  664MOL0     H87588   1.510   7.843   7.878  3.6223 -0.6197  1.7350
  664MOL0     H87589   1.572   7.689   8.045 -1.7169  0.7901 -2.6533
  664MOL0     H87590   1.536   7.799   8.179  0.4919 -3.3219  0.7818
  664MOL0     H87591   1.727   7.839   7.951 -1.0293  1.0653  0.0819
  664MOL0     H87592   1.746   7.931   8.091  4.5808 -1.4238  0.3344
  664MOL0     H87593   1.900   7.751   8.042  0.3387  0.8573 -1.8127
  664MOL0     H87594   1.792   7.630   8.106  3.6064 -0.4016 -1.1501
  664MOL0     H87595   1.753   7.755   8.319 -1.6166 -0.5797 -1.3233
  664MOL0     H87596   1.861   7.883   8.255 -1.2040  0.0060 -0.3525
  664MOL0     H87597   1.955   7.593   8.296  0.2143  0.3636 -0.8284
  664MOL0     H87598   2.057   7.723   8.240 -0.3709 -1.1614 -0.7919
  664MOL0     H87599   2.100   7.699   8.474  0.4513 -0.8829 -0.9080
  664MOL0     H87600   1.924   7.708   8.506 -0.6189  0.4309 -0.3806
  664MOL0     H87601   2.195   7.912   8.313  0.4022  1.2209 -0.6221
  664MOL0     H87602   2.116   8.298   8.428 -4.4226 -1.0597 -0.0587
  664MOL0     H87603   2.075   8.244   8.268 -0.7840 -0.7424 -0.2821
  664MOL0     H87604   2.295   8.319   8.270 -0.8228  0.2469 -0.2082
  664MOL0     H87605   2.287   8.148   8.244  3.4221 -0.0444  0.6946
  664MOL0     H87606   2.451   8.275   8.436 -2.0704  1.4737 -1.6227
  664MOL0     H87607   2.302   8.250   8.523  2.0828  0.8011  1.6017
  664MOL0     H87608   2.342   8.025   8.546  0.1744  0.9397  0.1245
  664MOL0     H87609   2.505   8.086   8.537 -1.0766  0.0001  1.6727
  664MOL0     H87610   2.488   7.815   8.166 -1.3616 -4.6378 -2.0070
  664MOL0     H87611   2.573   7.597   8.196 -3.3742 -1.6089  0.1560
  664MOL0     H87612   2.631   7.143   8.348  1.1296 -1.4522 -1.8478
  664MOL0     H87613   2.771   6.944   8.343 -1.4500  0.6762 -2.2757
  664MOL0     H87614   3.228   6.975   8.339  0.5004 -0.2353 -0.2312
  664MOL0     H87615   3.157   7.042   8.189 -1.8889 -0.3006  0.0801
  664MOL0     H87616   3.118   6.813   8.111 -2.0772  0.3789  1.6135
  664MOL0     H87617   3.206   6.746   8.249  0.7566 -0.8965 -1.2331
  664MOL0     H87618   3.424   6.831   8.181  0.3045 -3.7581 -2.1090
  664MOL0     H87619   3.347   6.924   8.047 -0.8622 -1.0385 -1.5072
  664MOL0     H87620   3.342   6.625   8.097 -4.8774  0.2484  0.3672
  664MOL0     H87621   3.270   6.722   7.961 -0.4802  0.0605  0.5095
  664MOL0     H87622   3.503   6.795   7.906  0.6785  0.2709  0.4894
  664MOL0     H87623   3.463   6.622   7.886  2.8686 -1.5307 -0.4116
  664MOL0     H87624   3.581   6.559   8.084  0.1485  0.3758  1.8707
  664MOL0     H87625   3.639   6.732   8.107 -1.1829  0.1160 -0.8850
  664MOL0     H87626   3.760   6.717   7.891  1.5291  0.2568 -0.7293
  664MOL0     H87627   3.810   6.606   8.023  0.3770  2.2583  0.3592
  664MOL0     H87628   3.629   6.507   7.804  0.4833  0.0945  0.8503
  664MOL0     H87629   3.714   6.419   7.935 -0.8710  0.0138  1.3497
  664MOL0     H87630   3.117   7.200   8.348 -0.5429 -0.1691  0.7053
  664MOL0     H87631   2.996   7.387   8.334  3.7214 -1.7154  3.3213
  664MOL0     H87632   2.618   7.656   8.619  2.9613 -1.1395 -0.7607
  664MOL0     H87633   2.543   7.885   8.586  0.3550  1.2103 -0.8649
  664MOL0     H87634   1.119   7.674   8.042 -1.0914  0.7612  2.5447
  664MOL0     H87635   0.877   7.658   8.088 -0.8720  1.7554  0.9216
  664MOL0     H87636   0.487   7.791   8.176 -1.6353 -0.0570  1.8666
  664MOL0     H87637   0.246   7.779   8.207  1.5373 -4.7831 -0.1810
  664MOL0     H87638  -0.118   7.900   8.093  1.2618  0.1144 -0.7114
  664MOL0     H87639   0.040   7.927   8.170 -1.8131 -0.0860  3.2853
  664MOL0     H87640  -0.163   7.715   8.191  1.3792  1.6553 -2.3077
  664MOL0     H87641   0.005   7.646   8.185 -1.4607 -0.4501 -3.0972
  664MOL0     H87642  -0.107   7.853   8.381  1.2807  0.8370  0.8633
  664MOL0     H87643   0.063   7.809   8.358 -0.4756  0.3822 -0.3882
  664MOL0     H87644  -0.077   7.679   8.558  1.0490  0.3750 -1.0430
  664MOL0     H87645  -0.175   7.610   8.432 -0.2356  2.9027 -2.6003
  664MOL0     H87646   0.209   7.393   8.418 -1.8930 -3.5527  1.2108
  664MOL0     H87647   0.174   7.794   7.780 -0.5284 -0.7822  0.7777
  664MOL0     H87648   0.423   7.763   7.755 -1.7215 -0.4840 -1.4248
  665MOL0     O87649   6.751   5.669   9.922 -0.1278 -0.1081 -0.6969
  665MOL0     C87650   6.824   5.756   9.883 -0.5326 -0.0664  0.0473
  665MOL0     O87651   6.785   5.866   9.808 -0.5859 -0.3015 -0.1751
  665MOL0     C87652   6.668   5.858   9.730  0.2123 -0.4348  0.1715
  665MOL0     C87653   6.635   5.752   9.652  0.1574  0.9319 -0.0532
  665MOL0     C87654   6.504   5.743   9.597  0.1612 -0.1994  0.2233
  665MOL0     C87655   6.421   5.851   9.606  0.8610 -0.0358 -0.1287
  665MOL0     O87656   6.298   5.839   9.549  0.2646  0.5450 -0.4704
  665MOL0     C87657   6.209   5.956   9.539  0.6380 -0.5073  0.3591
  665MOL0     C87658   6.138   5.978   9.675  0.9586  0.7139 -0.5746
  665MOL0     C87659   6.105   6.126   9.687  0.8422 -0.0275  0.6594
  665MOL0     C87660   6.020   6.166   9.810 -0.5847 -0.3592  0.1281
  665MOL0     C87661   6.025   6.325   9.835 -0.4737 -0.0170  0.5409
  665MOL0     C87662   5.949   6.414   9.736  0.0732  0.1430  0.4020
  665MOL0     C87663   5.798   6.381   9.729 -0.3507 -0.1949 -0.1447
  665MOL0     C87664   5.716   6.487   9.671  0.6635  0.0600 -0.2491
  665MOL0     N87665   5.734   6.514   9.529  0.1658  1.0635 -0.2742
  665MOL0     C87666   5.639   6.482   9.427 -0.0640  0.2778  0.2084
  665MOL0     C87667   5.707   6.513   9.312  0.5135 -0.3584 -0.0914
  665MOL0     C87668   5.643   6.501   9.172  0.3965 -0.3203 -0.0477
  665MOL0     C87669   5.532   6.397   9.163 -0.4096  0.2150  0.5866
  665MOL0     C87670   5.493   6.364   9.010 -0.6979 -0.1142  0.1380
  665MOL0     C87671   5.408   6.241   9.003 -0.2310  0.6667 -0.2227
  665MOL0     O87672   5.292   6.252   9.088  0.3009 -0.3895  0.5508
  665MOL0     C87673   5.178   6.320   9.034  0.6019  0.4358 -0.5185
  665MOL0     C87674   5.080   6.365   9.125 -0.1350 -0.3799 -0.0585
  665MOL0     C87675   4.954   6.420   9.087  0.0321  1.1768  0.8392
  665MOL0     C87676   4.929   6.435   8.947 -0.8724  0.4171  0.5535
  665MOL0     C87677   4.807   6.494   8.890  0.2536 -0.3244  0.1720
  665MOL0     O87678   4.795   6.511   8.751  0.0384 -0.3966  0.1863
  665MOL0     C87679   4.665   6.544   8.713  0.3940 -0.9493  0.4802
  665MOL0     C87680   4.570   6.454   8.667  0.4875  0.1177 -0.2097
  665MOL0     C87681   4.443   6.490   8.613 -0.4271 -1.0156  0.6583
  665MOL0     C87682   4.401   6.622   8.613 -0.6190  0.6992  0.8604
  665MOL0     O87683   4.282   6.647   8.551  0.0135 -0.3115 -0.5866
  665MOL0     C87684   4.185   6.691   8.640  0.5453 -0.7150 -0.0036
  665MOL0     C87685   4.042   6.625   8.618 -0.1607  0.3951  0.5775
  665MOL0     C87686   3.999   6.617   8.475 -0.3031  1.0346 -0.0248
  665MOL0     C87687   3.847   6.583   8.459 -0.9121  0.2458 -0.8489
  665MOL0     C87688   3.758   6.700   8.485 -0.1982 -0.0525  0.0420
  665MOL0     C87689   3.610   6.664   8.478  0.2514  0.0041  0.8195
  665MOL0     C87690   3.548   6.803   8.478  0.4029  0.1582  0.9640
  665MOL0     C87691   3.503   6.846   8.606 -0.1169  0.0737 -0.3831
  665MOL0    Cl87692   3.409   6.988   8.596 -0.1537 -0.5485  0.1404
  665MOL0     C87693   4.489   6.717   8.675  0.1493  0.4186  0.9126
  665MOL0     C87694   4.616   6.676   8.724 -1.1972  0.1487  0.0340
  665MOL0     O87695   4.723   6.532   8.981  0.0647 -0.8030 -0.0385
  665MOL0     C87696   5.020   6.397   8.854 -1.1716  0.0403  0.1030
  665MOL0     C87697   5.142   6.334   8.900 -0.4721 -0.2149 -0.1799
  665MOL0     N87698   5.835   6.565   9.336 -0.1748 -0.2860 -0.0792
  665MOL0     N87699   5.842   6.567   9.464 -0.1845 -0.1157  0.1057
  665MOL0     C87700   6.465   5.970   9.663  0.3959  0.6508 -0.5957
  665MOL0     C87701   6.583   5.967   9.725 -0.7019 -0.1539 -0.8041
  665MOL0     C87702   6.960   5.763   9.946  0.0482  0.3332 -0.4408
  665MOL0     C87703   7.034   5.882   9.948 -0.5371  1.0893  1.0534
  665MOL0     C87704   7.152   5.886  10.011  0.1516  0.2833 -0.3898
  665MOL0     C87705   7.211   5.778  10.074  0.6833  0.2910 -0.9111
  665MOL0     O87706   7.337   5.786  10.134  0.5584  0.0142 -0.0181
  665MOL0     C87707   7.430   5.899  10.105  0.4665  0.2860 -0.1484
  665MOL0     C87708   7.501   5.890   9.968 -0.1564 -0.0698 -0.6885
  665MOL0     C87709   7.583   5.759   9.947 -0.4586 -0.6012 -0.1264
  665MOL0     C87710   7.721   5.765  10.011 -0.3384  0.0137 -0.3813
  665MOL0     C87711   7.811   5.872   9.977  0.3952 -0.0748  1.0481
  665MOL0     C87712   7.895   5.956   9.946  0.5738 -0.8527  0.0617
  665MOL0     C87713   7.142   5.652  10.059  0.5037 -0.0981 -0.2884
  665MOL0     C87714   7.013   5.645  10.000 -0.7612 -0.8461 -0.2849
  665MOL0     H87715   6.700   5.665   9.641 -1.0390  0.1829 -1.6888
  665MOL0     H87716   6.467   5.650   9.556 -3.6078  1.8239 -1.4310
  665MOL0     H87717   6.129   5.936   9.467 -0.5937 -1.5507  1.9461
  665MOL0     H87718   6.254   6.044   9.492 -0.7772  0.1049  0.0815
  665MOL0     H87719   6.202   5.957   9.761  1.1917  3.0971 -0.0884
  665MOL0     H87720   6.049   5.916   9.691  2.4657 -0.8775  2.4800
  665MOL0     H87721   6.040   6.152   9.602  2.9070 -1.4375 -1.5101
  665MOL0     H87722   6.195   6.187   9.677 -0.7958  2.4514  0.1676
  665MOL0     H87723   5.915   6.136   9.802 -0.1509 -1.8336 -0.5436
  665MOL0     H87724   6.065   6.116   9.896  0.6018 -0.1502 -0.3582
  665MOL0     H87725   6.129   6.359   9.836  1.1135 -4.3194 -0.2510
  665MOL0     H87726   5.981   6.348   9.933  3.5548 -0.4309  2.6467
  665MOL0     H87727   5.989   6.392   9.636 -0.4560  1.1743 -0.0454
  665MOL0     H87728   5.963   6.521   9.751  0.4524  0.0012  1.1377
  665MOL0     H87729   5.788   6.285   9.678  2.4105  0.5338 -2.3121
  665MOL0     H87730   5.768   6.381   9.834  0.3028  0.1141  0.0440
  665MOL0     H87731   5.739   6.581   9.723 -0.7315  1.7510 -2.5105
  665MOL0     H87732   5.610   6.467   9.683  0.3765  1.9150  0.8000
  665MOL0     H87733   5.534   6.452   9.426 -0.4679  1.6035 -0.7032
  665MOL0     H87734   5.728   6.481   9.107  1.0260  0.1011  0.6297
  665MOL0     H87735   5.601   6.596   9.139 -0.8991 -1.6527 -2.5414
  665MOL0     H87736   5.450   6.416   9.232 -0.2507  1.2657  0.4978
  665MOL0     H87737   5.580   6.307   9.203  1.2096  1.1434  0.8168
  665MOL0     H87738   5.432   6.452   8.986 -1.6854 -0.7541  0.2849
  665MOL0     H87739   5.568   6.373   8.930 -2.5209  2.6830 -1.4318
  665MOL0     H87740   5.468   6.163   9.051  0.1570  3.0247  3.5461
  665MOL0     H87741   5.383   6.219   8.899 -1.0057  3.4098 -0.6944
  665MOL0     H87742   5.106   6.363   9.231  3.3671  1.7770 -0.7236
  665MOL0     H87743   4.879   6.452   9.159 -2.6096  1.0636 -1.6787
  665MOL0     H87744   4.601   6.350   8.666  2.1260  0.5611  0.6864
  665MOL0     H87745   4.386   6.408   8.571 -0.2904 -0.1070 -1.4279
  665MOL0     H87746   4.162   6.798   8.635 -1.5516 -1.1417 -0.7191
  665MOL0     H87747   4.210   6.668   8.744  1.5467 -1.9326 -0.4949
  665MOL0     H87748   3.965   6.671   8.682 -2.1929 -1.3856 -0.4489
  665MOL0     H87749   4.060   6.519   8.639  2.2115  0.4446 -0.9403
  665MOL0     H87750   4.065   6.541   8.435  1.4804  2.3298  0.3332
  665MOL0     H87751   4.020   6.709   8.419 -1.1811 -0.2400 -2.5728
  665MOL0     H87752   3.846   6.550   8.355  3.3186 -0.0234 -0.9666
  665MOL0     H87753   3.829   6.491   8.515  2.2135 -1.2942 -2.1196
  665MOL0     H87754   3.785   6.782   8.418  1.6396  1.4696  2.4914
  665MOL0     H87755   3.768   6.747   8.583 -4.1489  3.1011 -0.7726
  665MOL0     H87756   3.590   6.594   8.559  0.8036  1.7973  2.6231
  665MOL0     H87757   3.584   6.611   8.387  0.4198 -0.9875  1.3422
  665MOL0     H87758   3.613   6.877   8.431  0.6347 -0.3914  0.4081
  665MOL0     H87759   3.453   6.800   8.424  0.5360  1.1043  0.6635
  665MOL0     H87760   3.595   6.861   8.664  1.0811 -3.5972 -1.1059
  665MOL0     H87761   3.431   6.778   8.652 -0.8262  0.8178 -0.3633
  665MOL0     H87762   4.460   6.822   8.678 -1.0036  0.1471 -0.0069
  665MOL0     H87763   4.676   6.755   8.767 -2.1736  0.1205  1.5250
  665MOL0     H87764   5.003   6.416   8.749  2.5110  2.0498 -0.3153
  665MOL0     H87765   5.208   6.322   8.816  1.9994 -0.9454  1.7474
  665MOL0     H87766   6.409   6.063   9.671  2.1405  1.6732  0.5276
  665MOL0     H87767   6.610   6.057   9.779 -2.3232 -0.7327  1.1059
  665MOL0     H87768   6.997   5.971   9.898  0.7168  1.0061 -0.0580
  665MOL0     H87769   7.205   5.980  10.025 -3.9525  2.7481  0.2760
  665MOL0     H87770   7.500   5.906  10.188 -0.3638  1.7986  0.4560
  665MOL0     H87771   7.379   5.995  10.113 -0.4030 -0.0339 -1.3926
  665MOL0     H87772   7.414   5.884   9.902 -0.6935  1.0345 -0.1078
  665MOL0     H87773   7.562   5.979   9.952 -1.8908  1.1867 -0.6106
  665MOL0     H87774   7.585   5.744   9.839  3.1462 -0.4439 -0.1908
  665MOL0     H87775   7.536   5.672   9.993  2.9519 -3.2507 -1.2052
  665MOL0     H87776   7.711   5.760  10.119  4.0772  3.0649  0.4343
  665MOL0     H87777   7.780   5.678   9.981  0.3787  0.0484  0.8672
  665MOL0     H87778   7.971   6.024   9.914  0.9849  0.0749  2.7384
  665MOL0     H87779   7.201   5.567  10.092  0.3212  0.6220  2.0076
  665MOL0     H87780   6.977   5.544   9.980 -0.6451 -1.0824  0.6683
  666MOL0     O87781   9.691   2.270   4.338 -0.2315 -0.1219  1.1260
  666MOL0     C87782   9.791   2.207   4.351  0.0884  0.4999  1.5398
  666MOL0     O87783   9.886   2.182   4.253 -0.3336 -1.0932 -0.4361
  666MOL0     C87784   9.866   2.234   4.127 -0.4524  0.5426 -0.3971
  666MOL0     C87785   9.848   2.153   4.007  0.4481 -0.6395 -0.4478
  666MOL0     C87786   9.824   2.208   3.881 -0.2694  0.4108 -0.7474
  666MOL0     C87787   9.820   2.345   3.879  0.1331  0.3936 -0.1357
  666MOL0     O87788   9.793   2.400   3.757 -0.1169 -0.0081 -0.3918
  666MOL0     C87789   9.857   2.520   3.718 -0.0799 -0.3136  0.4477
  666MOL0     C87790   9.831   2.546   3.568  0.0677 -0.1154  0.5763
  666MOL0     C87791   9.870   2.423   3.477  0.6530 -0.5546  0.0982
  666MOL0     C87792  10.022   2.393   3.445  0.9039  0.5228  0.4867
  666MOL0     C87793  10.046   2.272   3.357  0.6305 -0.9697 -1.1611
  666MOL0     C87794  10.009   2.142   3.425 -0.2940  0.3941  0.7637
  666MOL0     C87795  10.056   2.009   3.355  0.5307 -0.4899  0.4382
  666MOL0     C87796  10.191   1.957   3.400  0.3240  0.4087  0.3185
  666MOL0     N87797  10.308   2.044   3.365  0.6340  0.3419  0.0466
  666MOL0     C87798  10.441   2.024   3.407 -0.1140 -0.6934 -0.3380
  666MOL0     C87799  10.515   2.104   3.327  0.2181 -0.6826 -0.4687
  666MOL0     C87800  10.665   2.107   3.315 -0.6864 -0.3690  0.2078
  666MOL0     C87801  10.741   2.056   3.440 -0.0121 -0.3524  0.0743
  666MOL0     C87802  10.751   2.159   3.555 -0.5175 -0.1619  0.2639
  666MOL0     C87803  10.841   2.103   3.667 -0.1020 -1.5153  0.6178
  666MOL0     O87804  10.815   1.965   3.680 -1.9489  0.0172  0.3263
  666MOL0     C87805  10.709   1.912   3.746  0.1482  0.3913 -1.0689
  666MOL0     C87806  10.718   1.771   3.759 -0.1900 -0.3089 -0.1637
  666MOL0     C87807  10.604   1.707   3.817 -0.8573  0.3311  0.6892
  666MOL0     C87808  10.492   1.777   3.851 -0.9219 -0.1681  0.0838
  666MOL0     C87809  10.371   1.699   3.915 -0.0247 -0.4105  0.5740
  666MOL0     O87810  10.365   1.568   3.878 -0.1519  0.3511 -0.1900
  666MOL0     C87811  10.259   1.488   3.919  0.8415 -0.3043  0.4274
  666MOL0     C87812  10.118   1.520   3.917  0.5684  0.3219 -0.0009
  666MOL0     C87813  10.026   1.428   3.968 -0.3631  0.5623 -0.1771
  666MOL0     C87814  10.068   1.300   3.998 -0.4179 -0.2340 -0.5514
  666MOL0     O87815   9.963   1.218   4.043  0.2909  0.6595 -0.8238
  666MOL0     C87816   9.968   1.079   4.017  0.3275 -0.4292  0.1061
  666MOL0     C87817   9.871   0.996   4.104 -0.7391 -0.0407  0.5512
  666MOL0     C87818   9.726   1.045   4.089 -0.2721 -1.2695 -0.0165
  666MOL0     C87819   9.686   1.164   4.179  0.1985  0.8367 -0.6713
  666MOL0     C87820   9.541   1.219   4.135 -0.7972  0.0327 -1.1576
  666MOL0     C87821   9.482   1.290   4.267 -1.3721  0.1076 -0.2477
  666MOL0     C87822   9.337   1.339   4.224 -0.2366 -0.4409 -0.0683
  666MOL0     C87823   9.222   1.311   4.322  1.3120  0.1508 -0.2910
  666MOL0    Cl87824   9.081   1.415   4.275 -0.0121 -0.1321 -0.3486
  666MOL0     C87825  10.199   1.265   3.996 -0.0159  1.0327  0.0206
  666MOL0     C87826  10.295   1.358   3.948  0.2066  0.1878 -0.4566
  666MOL0     O87827  10.293   1.758   3.982  0.1317 -0.3384 -0.3018
  666MOL0     C87828  10.491   1.918   3.848 -0.0039 -0.0989  1.0553
  666MOL0     C87829  10.601   1.986   3.795 -0.9114  0.1831  0.0300
  666MOL0     N87830  10.425   2.166   3.237  0.0482 -0.1090  0.1859
  666MOL0     N87831  10.309   2.124   3.254  0.0243  0.7721 -0.1201
  666MOL0     C87832   9.818   2.423   3.996 -0.3473 -0.1315 -0.2044
  666MOL0     C87833   9.854   2.369   4.114 -0.1786 -0.0174  0.0362
  666MOL0     C87834   9.839   2.157   4.484  0.7124  1.0317  0.0491
  666MOL0     C87835   9.973   2.137   4.509  0.1829 -0.1885 -0.8356
  666MOL0     C87836  10.013   2.107   4.639 -0.0194  0.3064  1.1185
  666MOL0     C87837   9.929   2.119   4.751  0.0339  1.2701  0.3174
  666MOL0     O87838   9.981   2.096   4.869 -0.4300 -0.2872  0.2930
  666MOL0     C87839   9.946   1.970   4.941 -0.1581 -0.4821 -0.1086
  666MOL0     C87840  10.061   1.874   4.942  0.2187  0.0796  0.2279
  666MOL0     C87841  10.182   1.909   5.031  1.6854  0.0660  0.5691
  666MOL0     C87842  10.290   1.807   5.059  2.0595  0.6051  0.7555
  666MOL0     C87843  10.376   1.857   5.164 -0.5430  0.5796 -0.4076
  666MOL0     C87844  10.451   1.903   5.249 -0.4175  0.3949  0.5443
  666MOL0     C87845   9.794   2.148   4.720  0.5016 -0.5820  0.0374
  666MOL0     C87846   9.746   2.150   4.591  0.9756 -0.3265  0.4804
  666MOL0     H87847   9.840   2.046   4.020  1.4898 -0.6577  0.1049
  666MOL0     H87848   9.826   2.140   3.797  0.1919 -0.4997 -0.0130
  666MOL0     H87849   9.966   2.515   3.730  0.0769 -1.3972 -1.1403
  666MOL0     H87850   9.814   2.597   3.783  1.5693  1.5744 -0.5877
  666MOL0     H87851   9.874   2.641   3.536 -3.2602  2.9713  4.2428
  666MOL0     H87852   9.724   2.570   3.560  0.6225  2.5890  0.2230
  666MOL0     H87853   9.820   2.442   3.382  0.6567  1.7210  0.4846
  666MOL0     H87854   9.826   2.335   3.524 -2.7769  1.7822  1.6862
  666MOL0     H87855  10.057   2.479   3.387  1.1044  2.1884  2.9022
  666MOL0     H87856  10.081   2.411   3.536  0.0069  1.5954  0.8896
  666MOL0     H87857  10.155   2.273   3.353  0.9905 -0.7553  3.4364
  666MOL0     H87858   9.996   2.280   3.261  1.6684  0.1400 -1.6242
  666MOL0     H87859   9.902   2.131   3.443 -0.0579  0.3639  2.2687
  666MOL0     H87860  10.051   2.153   3.525 -0.9840  0.8087  1.0157
  666MOL0     H87861   9.974   1.939   3.369  2.0170 -2.7365 -1.2824
  666MOL0     H87862  10.067   2.038   3.250  0.5809  1.4280  0.9258
  666MOL0     H87863  10.206   1.866   3.342  0.4981  0.4864  0.2391
  666MOL0     H87864  10.187   1.940   3.508  1.1065  0.0432  0.2965
  666MOL0     H87865  10.493   1.965   3.482 -0.3654 -1.7672 -0.9861
  666MOL0     H87866  10.684   2.214   3.301  1.2173 -0.8640 -1.4198
  666MOL0     H87867  10.694   2.059   3.221  1.3335 -0.7661  0.9920
  666MOL0     H87868  10.843   2.021   3.417 -0.2156 -1.7114  1.0781
  666MOL0     H87869  10.688   1.963   3.464  0.0379 -0.4011 -0.0025
  666MOL0     H87870  10.787   2.257   3.523  3.0759 -1.0737  1.0604
  666MOL0     H87871  10.652   2.173   3.599  0.0900  1.2791  1.2613
  666MOL0     H87872  10.818   2.149   3.764 -2.4819 -2.5570  0.6141
  666MOL0     H87873  10.942   2.131   3.636 -1.6621  4.5822 -0.2638
  666MOL0     H87874  10.801   1.722   3.710 -0.8326  0.0624 -1.7018
  666MOL0     H87875  10.594   1.599   3.815  0.2475  0.2155 -0.7314
  666MOL0     H87876  10.070   1.612   3.888 -0.9748 -0.0723  1.2045
  666MOL0     H87877   9.921   1.457   3.971 -0.9398 -1.3139  3.4944
  666MOL0     H87878  10.062   1.026   4.029  0.7923  0.3237 -0.1386
  666MOL0     H87879   9.937   1.080   3.912  2.1474  1.1146 -0.4732
  666MOL0     H87880   9.899   0.982   4.209 -1.8950 -1.0441  0.7544
  666MOL0     H87881   9.868   0.896   4.061  1.4036 -0.2967  0.9020
  666MOL0     H87882   9.664   0.958   4.111 -0.1725 -1.4949 -0.6094
  666MOL0     H87883   9.701   1.062   3.984 -2.9591 -0.0695  0.7131
  666MOL0     H87884   9.678   1.131   4.283  0.3447  3.7582  0.3457
  666MOL0     H87885   9.767   1.236   4.170  0.7957 -0.0009 -2.3988
  666MOL0     H87886   9.475   1.141   4.098 -0.8952 -0.4746  0.0506
  666MOL0     H87887   9.543   1.292   4.053 -0.4220 -1.0029 -2.0865
  666MOL0     H87888   9.538   1.370   4.315  0.4489 -1.6004  0.6215
  666MOL0     H87889   9.471   1.217   4.347 -2.6119  0.4825 -0.0595
  666MOL0     H87890   9.354   1.446   4.207 -1.5335  0.3961  3.0948
  666MOL0     H87891   9.308   1.290   4.131  1.3647 -0.8753 -0.3802
  666MOL0     H87892   9.278   1.347   4.408  2.3652 -0.3868 -0.7385
  666MOL0     H87893   9.195   1.205   4.332  0.9121  0.1489 -1.2704
  666MOL0     H87894  10.230   1.172   4.042  0.3464  2.0020  1.7985
  666MOL0     H87895  10.396   1.321   3.932  0.3993 -2.0812  4.2013
  666MOL0     H87896  10.416   1.973   3.904  1.7597  1.2630  2.2015
  666MOL0     H87897  10.599   2.094   3.809 -1.0441  0.1524  0.2486
  666MOL0     H87898   9.801   2.530   3.990 -0.7786 -0.0594  1.5085
  666MOL0     H87899   9.856   2.436   4.199  0.6999  2.5008 -1.8224
  666MOL0     H87900  10.043   2.154   4.427 -0.3385 -1.3934 -1.5501
  666MOL0     H87901  10.119   2.084   4.649 -0.5263 -2.0761  1.5128
  666MOL0     H87902   9.857   1.926   4.896  1.2909 -0.2476 -3.5708
  666MOL0     H87903   9.921   1.991   5.045  1.8918  1.7850  0.0226
  666MOL0     H87904  10.021   1.783   4.987 -3.0091  1.2367 -0.0197
  666MOL0     H87905  10.099   1.848   4.843  1.0543  0.2203  0.5048
  666MOL0     H87906  10.142   1.927   5.131  2.0536 -1.1005  0.9431
  666MOL0     H87907  10.232   2.000   4.996  0.0364  0.6706 -0.3870
  666MOL0     H87908  10.249   1.707   5.077  0.1860  1.1705 -0.1811
  666MOL0     H87909  10.346   1.803   4.965  0.6514 -0.6374 -0.0773
  666MOL0     H87910  10.508   1.939   5.333 -0.3603 -1.3709  1.2987
  666MOL0     H87911   9.717   2.133   4.795 -0.7448  2.4024 -0.5151
  666MOL0     H87912   9.644   2.174   4.564  0.7697 -1.8368 -0.1755
  667MOL0     O87913   0.529   4.769   6.975 -0.2477  0.6268  0.5631
  667MOL0     C87914   0.547   4.881   6.931 -0.9254 -0.5278 -0.5888
  667MOL0     O87915   0.457   4.971   6.878  0.3864 -0.2512 -0.3673
  667MOL0     C87916   0.322   4.942   6.879  0.8430  0.4841  0.3229
  667MOL0     C87917   0.270   4.879   7.001  0.4747 -1.3023 -0.0542
  667MOL0     C87918   0.129   4.859   7.011  0.6333 -0.8578 -0.2300
  667MOL0     C87919   0.041   4.907   6.915  0.3811  0.1287  0.5154
  667MOL0     O87920  -0.092   4.902   6.923 -0.0178 -0.3674 -0.6361
  667MOL0     C87921  -0.147   4.943   7.052  0.2837  0.1102  0.1697
  667MOL0     C87922  -0.242   5.060   7.034 -0.5872  0.4583  0.8700
  667MOL0     C87923  -0.390   5.038   7.070  0.6483  0.3626  0.0764
  667MOL0     C87924  -0.453   4.930   6.986 -0.0645  0.3160  0.7636
  667MOL0     C87925  -0.606   4.925   6.993 -0.4398  0.3966  0.2640
  667MOL0     C87926  -0.665   4.819   6.901 -0.5689  0.1700  0.3111
  667MOL0     C87927  -0.815   4.822   6.893  0.1527 -0.3538 -0.5672
  667MOL0     C87928  -0.877   4.806   7.034  0.0900 -0.2802  0.6043
  667MOL0     N87929  -1.016   4.751   7.018 -1.3033 -0.0664  0.0880
  667MOL0     C87930  -1.133   4.810   7.039 -0.2005  0.0060  0.1816
  667MOL0     C87931  -1.224   4.712   7.014 -0.3490  0.0711  0.3923
  667MOL0     C87932  -1.371   4.725   7.063 -0.7005  0.3227  0.6000
  667MOL0     C87933  -1.386   4.663   7.199  0.3520  0.5039  0.2127
  667MOL0     C87934  -1.524   4.647   7.237  0.0860  0.2355 -0.7061
  667MOL0     C87935  -1.590   4.534   7.154 -0.3055 -0.1467  0.1876
  667MOL0     O87936  -1.720   4.569   7.113 -0.2974 -0.4106 -0.1257
  667MOL0     C87937  -1.834   4.579   7.199  0.8406 -0.7612 -0.7296
  667MOL0     C87938  -1.956   4.587   7.127 -0.9070  0.2267  0.6252
  667MOL0     C87939  -2.079   4.581   7.190  0.6717 -0.3840 -0.4552
  667MOL0     C87940  -2.088   4.563   7.329 -0.3802  0.6278  0.0644
  667MOL0     C87941  -2.224   4.565   7.395  0.1136 -0.2551 -0.5090
  667MOL0     O87942  -2.328   4.535   7.316 -0.1301 -0.2420  0.2234
  667MOL0     C87943  -2.465   4.558   7.343 -0.1819  0.4379  0.1666
  667MOL0     C87944  -2.515   4.626   7.459  0.5246 -0.6178  0.5906
  667MOL0     C87945  -2.652   4.628   7.480 -0.0720  0.3578 -0.4893
  667MOL0     C87946  -2.742   4.565   7.394  0.2405  0.0370  0.3876
  667MOL0     O87947  -2.875   4.566   7.444  0.4531  0.4715  0.7403
  667MOL0     C87948  -2.968   4.485   7.370  0.6122 -0.8903 -0.3006
  667MOL0     C87949  -3.110   4.504   7.433 -0.2572  0.3638 -0.9731
  667MOL0     C87950  -3.211   4.416   7.360 -0.5242 -0.4713 -0.7171
  667MOL0     C87951  -3.351   4.427   7.414  0.4034 -0.7993 -0.2691
  667MOL0     C87952  -3.441   4.308   7.360 -1.1016  0.4288  0.5950
  667MOL0     C87953  -3.589   4.324   7.380 -0.6363  0.3670 -0.9860
  667MOL0     C87954  -3.629   4.322   7.522  0.3375 -0.8852 -0.9214
  667MOL0     C87955  -3.776   4.287   7.543  0.9485  0.5069  0.2264
  667MOL0    Cl87956  -3.810   4.118   7.499  0.0502 -0.1709 -0.0780
  667MOL0     C87957  -2.692   4.506   7.276  0.7908 -0.2376  0.7609
  667MOL0     C87958  -2.558   4.502   7.252 -0.3643 -0.0276  0.1409
  667MOL0     O87959  -2.228   4.557   7.515  0.4185 -0.4503  0.5614
  667MOL0     C87960  -1.964   4.561   7.405  0.4896 -0.0791  0.5323
  667MOL0     C87961  -1.839   4.569   7.336  0.4818 -0.4805 -0.5932
  667MOL0     N87962  -1.158   4.598   6.971 -0.3482  0.2443 -0.3685
  667MOL0     N87963  -1.027   4.630   6.969 -0.8086  0.3288  0.6759
  667MOL0     C87964   0.100   4.964   6.804  0.4749 -0.2485  0.2736
  667MOL0     C87965   0.231   4.990   6.791  0.3863 -0.1773 -0.0308
  667MOL0     C87966   0.693   4.906   6.923  0.2358 -0.6268  0.4042
  667MOL0     C87967   0.722   5.037   6.906 -0.9209  0.4117 -0.0165
  667MOL0     C87968   0.851   5.085   6.894 -0.1332 -0.9886  0.2407
  667MOL0     C87969   0.961   4.998   6.910  0.5503  0.8606  0.4616
  667MOL0     O87970   1.084   5.057   6.910  0.2009  0.0745 -0.2051
  667MOL0     C87971   1.174   4.974   6.984 -0.2021  0.7314  0.6783
  667MOL0     C87972   1.278   5.065   7.049  0.1071 -0.4026 -0.0717
  667MOL0     C87973   1.324   5.190   6.968 -0.0635 -0.2649  0.3701
  667MOL0     C87974   1.400   5.293   7.051  0.3791 -0.3652  0.0681
  667MOL0     C87975   1.519   5.336   6.979 -0.9156 -0.5883 -0.0793
  667MOL0     C87976   1.630   5.337   6.921 -0.3325  0.0891 -1.1054
  667MOL0     C87977   0.934   4.858   6.917  0.2782  0.7916 -0.0018
  667MOL0     C87978   0.803   4.806   6.924  0.0264 -0.4312 -0.5187
  667MOL0     H87979   0.341   4.859   7.081  0.1202  0.3591  0.7110
  667MOL0     H87980   0.087   4.819   7.103 -1.3370 -0.3674 -0.8848
  667MOL0     H87981  -0.067   4.980   7.116  0.5110 -0.9614  0.5196
  667MOL0     H87982  -0.197   4.861   7.104 -1.2061  0.2373 -0.9517
  667MOL0     H87983  -0.236   5.089   6.928 -1.6640 -2.0828  0.0174
  667MOL0     H87984  -0.207   5.145   7.092 -0.8204  0.5861  0.8265
  667MOL0     H87985  -0.443   5.133   7.060  0.8722  0.3397 -1.6838
  667MOL0     H87986  -0.405   5.023   7.177  0.2102  2.3186  0.3220
  667MOL0     H87987  -0.423   4.930   6.881  2.5754 -3.2989  1.3187
  667MOL0     H87988  -0.420   4.836   7.031  1.5363  1.0128  1.1243
  667MOL0     H87989  -0.643   5.023   6.962  0.2968  0.7525  0.4990
  667MOL0     H87990  -0.623   4.893   7.096 -0.8432 -2.4138 -0.5935
  667MOL0     H87991  -0.636   4.726   6.950  0.7061  0.0903 -0.5556
  667MOL0     H87992  -0.623   4.826   6.800  2.7868  2.2426  1.7007
  667MOL0     H87993  -0.853   4.914   6.849  0.5266  1.3264  2.3635
  667MOL0     H87994  -0.846   4.741   6.825 -0.4456 -1.5880  1.1078
  667MOL0     H87995  -0.879   4.901   7.089 -0.1828  0.3752 -0.5085
  667MOL0     H87996  -0.827   4.736   7.101 -0.0224 -0.8098  0.1378
  667MOL0     H87997  -1.154   4.910   7.077 -1.9351 -1.3160  3.0174
  667MOL0     H87998  -1.434   4.680   6.985  0.4523 -0.5550  0.1210
  667MOL0     H87999  -1.403   4.829   7.057  1.9882  1.1781 -0.2861
  667MOL0     H88000  -1.340   4.738   7.264 -1.8969  0.5084  1.8849
  667MOL0     H88001  -1.333   4.567   7.210  2.6239  1.5966 -0.4398
  667MOL0     H88002  -1.536   4.608   7.338 -3.1704 -2.6968 -2.0261
  667MOL0     H88003  -1.585   4.738   7.229 -1.3623 -0.6937 -0.7439
  667MOL0     H88004  -1.589   4.448   7.221  1.3859 -1.9292 -1.9680
  667MOL0     H88005  -1.533   4.514   7.063 -1.9080 -0.2756 -0.8269
  667MOL0     H88006  -1.944   4.595   7.020  0.3442  1.3907  0.8148
  667MOL0     H88007  -2.167   4.600   7.129  1.9692 -0.9626 -2.6350
  667MOL0     H88008  -2.443   4.682   7.518 -0.7358  0.0964  1.5030
  667MOL0     H88009  -2.698   4.671   7.569 -1.8352 -4.3883  1.2816
  667MOL0     H88010  -2.937   4.381   7.376  1.1378 -0.6906  0.7244
  667MOL0     H88011  -2.963   4.504   7.262  1.5570 -0.8981 -0.2637
  667MOL0     H88012  -3.145   4.607   7.425  0.4359  0.7967  1.0740
  667MOL0     H88013  -3.111   4.470   7.537 -1.8589  0.7362 -0.8546
  667MOL0     H88014  -3.188   4.309   7.367  0.0236 -0.3842 -1.1137
  667MOL0     H88015  -3.200   4.430   7.253  4.3497 -3.9238 -1.0215
  667MOL0     H88016  -3.355   4.431   7.523 -0.3734 -0.8931 -0.2862
  667MOL0     H88017  -3.391   4.523   7.380  3.6702  0.3251 -1.2944
  667MOL0     H88018  -3.396   4.213   7.392 -1.0064 -0.9511 -3.1386
  667MOL0     H88019  -3.433   4.309   7.251  0.3611  2.9143  0.6499
  667MOL0     H88020  -3.641   4.245   7.326 -2.6088  0.3425  0.7930
  667MOL0     H88021  -3.616   4.423   7.343 -0.4428  1.5390  1.7596
  667MOL0     H88022  -3.575   4.249   7.583 -1.9432  0.4578  3.1302
  667MOL0     H88023  -3.603   4.420   7.565  1.7423 -1.2461 -0.9146
  667MOL0     H88024  -3.843   4.351   7.485 -1.4586 -2.1050 -0.0729
  667MOL0     H88025  -3.819   4.303   7.642 -3.8143 -1.4401 -1.2176
  667MOL0     H88026  -2.757   4.460   7.203 -1.5215  0.3416  2.3535
  667MOL0     H88027  -2.536   4.448   7.160 -0.3640  0.2895 -0.0450
  667MOL0     H88028  -1.973   4.549   7.512  0.8322  4.6447  1.3110
  667MOL0     H88029  -1.747   4.562   7.392 -0.9369  0.7498  2.0888
  667MOL0     H88030   0.034   5.007   6.729  2.0509  0.9259 -0.5169
  667MOL0     H88031   0.261   5.052   6.707 -0.3593 -2.2816 -1.9688
  667MOL0     H88032   0.652   5.120   6.914  1.5639  2.5509  1.0378
  667MOL0     H88033   0.872   5.191   6.881 -0.7601 -0.9763 -0.7746
  667MOL0     H88034   1.228   4.908   6.915  2.4198  2.1957  1.1760
  667MOL0     H88035   1.136   4.902   7.057  1.2064 -2.1506 -1.2696
  667MOL0     H88036   1.257   5.098   7.151 -1.2713  0.2720 -0.5532
  667MOL0     H88037   1.372   5.010   7.063 -0.0124 -0.2398  1.5191
  667MOL0     H88038   1.249   5.249   6.915  0.8821 -0.1621 -0.8975
  667MOL0     H88039   1.392   5.153   6.891  0.0830  3.1154 -1.3001
  667MOL0     H88040   1.330   5.376   7.066  0.3738  0.1257 -2.2880
  667MOL0     H88041   1.432   5.248   7.145  2.2622 -2.8999 -1.6737
  667MOL0     H88042   1.725   5.328   6.873  0.2304  1.1702 -0.2456
  667MOL0     H88043   1.017   4.791   6.898  0.6191  0.4392  2.4259
  667MOL0     H88044   0.792   4.698   6.935 -0.7741 -0.2499  0.7444
  668MOL0     O88045   4.009   1.012   7.638  0.1350  0.4691 -0.1559
  668MOL0     C88046   3.901   0.971   7.597  0.0035 -0.2197  0.1628
  668MOL0     O88047   3.777   1.026   7.626 -0.4544  0.0913 -0.7296
  668MOL0     C88048   3.773   1.135   7.704  0.0990 -0.1695 -0.1155
  668MOL0     C88049   3.758   1.260   7.638  0.0419  0.0088  0.2504
  668MOL0     C88050   3.758   1.383   7.715 -0.5151 -0.7269  1.1999
  668MOL0     C88051   3.775   1.378   7.853 -0.4632 -0.1147 -0.0696
  668MOL0     O88052   3.770   1.495   7.918 -0.1862  0.0268 -0.1155
  668MOL0     C88053   3.886   1.542   7.978 -0.9945  0.0490 -0.3757
  668MOL0     C88054   3.873   1.526   8.129 -0.8244 -0.1095 -0.2761
  668MOL0     C88055   4.008   1.534   8.210  0.4898  0.3084 -0.2815
  668MOL0     C88056   3.983   1.540   8.360  0.0684  0.1903  0.4030
  668MOL0     C88057   3.946   1.675   8.428 -0.6118  0.8857 -0.0895
  668MOL0     C88058   4.060   1.778   8.397  1.1562  0.5884  0.0973
  668MOL0     C88059   4.038   1.901   8.477  0.1438  0.6866  0.1733
  668MOL0     C88060   4.062   1.875   8.624 -0.0078  0.5561  0.5338
  668MOL0     N88061   4.103   1.990   8.696  0.1457  1.5041  0.0282
  668MOL0     C88062   4.029   2.101   8.742 -0.1359 -0.0985 -0.1380
  668MOL0     C88063   4.121   2.194   8.764  0.5172  0.7960 -0.0292
  668MOL0     C88064   4.101   2.333   8.828  0.0829  0.2375  0.6306
  668MOL0     C88065   4.133   2.335   8.981  0.8891  0.6142  0.2717
  668MOL0     C88066   4.263   2.398   9.021  0.6533 -0.5057  0.7898
  668MOL0     C88067   4.390   2.343   8.963 -0.5833 -0.2261  0.3138
  668MOL0     O88068   4.508   2.406   9.010 -0.5644 -0.3822 -0.3776
  668MOL0     C88069   4.581   2.359   9.118  0.6011  0.5928  0.3167
  668MOL0     C88070   4.695   2.432   9.144  0.0165 -0.2951  0.7114
  668MOL0     C88071   4.792   2.388   9.239 -0.0226  0.0710 -0.2838
  668MOL0     C88072   4.765   2.280   9.328 -0.5621 -0.1584  0.1363
  668MOL0     C88073   4.850   2.248   9.447 -0.5680  0.7728  1.8316
  668MOL0     O88074   4.793   2.177   9.550 -0.4955 -0.3191 -0.3644
  668MOL0     C88075   4.875   2.160   9.663 -0.6418 -1.1172 -1.0675
  668MOL0     C88076   4.958   2.056   9.691 -1.2861 -0.4186 -0.6007
  668MOL0     C88077   5.020   2.045   9.823 -1.0311 -0.7188  0.3996
  668MOL0     C88078   5.000   2.135   9.931  0.0974 -0.1704  0.1369
  668MOL0     O88079   5.063   2.127  10.051 -0.4508 -0.1263 -0.1508
  668MOL0     C88080   4.968   2.151  10.168  1.1693  0.6271  1.5728
  668MOL0     C88081   5.025   2.074  10.283 -0.6125  0.2756  0.5186
  668MOL0     C88082   4.934   2.026  10.390 -1.2559 -0.6105 -0.1484
  668MOL0     C88083   4.886   2.143  10.483  0.2096 -0.0194 -0.1467
  668MOL0     C88084   5.000   2.163  10.585 -0.1347 -0.2624  0.4746
  668MOL0     C88085   4.952   2.253  10.704  0.4178  0.4867 -0.2412
  668MOL0     C88086   5.046   2.242  10.827  0.2914 -0.6375  0.3400
  668MOL0     C88087   4.999   2.334  10.948 -0.1406 -1.0239 -0.6671
  668MOL0    Cl88088   4.869   2.278  11.061 -0.3884 -0.0763  0.1031
  668MOL0     C88089   4.921   2.240   9.900 -0.0841  0.7914  0.2768
  668MOL0     C88090   4.851   2.249   9.778  0.5429  0.0981  0.2262
  668MOL0     O88091   4.970   2.283   9.440  0.1570  0.1067  0.0466
  668MOL0     C88092   4.641   2.212   9.306 -0.5874 -0.5844  0.2705
  668MOL0     C88093   4.557   2.242   9.193 -0.1940 -0.7782  0.7934
  668MOL0     N88094   4.242   2.144   8.735 -0.2982  0.0215  0.7547
  668MOL0     N88095   4.235   2.022   8.690 -0.3843 -0.2726 -0.5763
  668MOL0     C88096   3.795   1.256   7.920  0.5395  0.3945 -0.6483
  668MOL0     C88097   3.792   1.136   7.844 -0.8842 -0.4738 -0.1599
  668MOL0     C88098   3.913   0.859   7.502 -1.0176  0.5788 -0.6445
  668MOL0     C88099   3.791   0.795   7.458 -0.0290 -0.3932  0.2222
  668MOL0     C88100   3.795   0.673   7.383  0.8683  0.2935  0.0030
  668MOL0     C88101   3.919   0.602   7.355 -0.5040 -0.4499 -0.6513
  668MOL0     O88102   3.910   0.483   7.297  0.3392  0.6024  0.0380
  668MOL0     C88103   4.033   0.403   7.313 -0.2065 -0.5764  0.1738
  668MOL0     C88104   4.014   0.264   7.256 -0.4768  0.0683  0.1203
  668MOL0     C88105   3.907   0.188   7.343  0.1934 -0.4971  0.7187
  668MOL0     C88106   3.872   0.067   7.255 -0.9685  0.0728 -0.3688
  668MOL0     C88107   3.791  -0.034   7.333  0.1009 -0.3128 -0.2280
  668MOL0     C88108   3.718  -0.114   7.389  0.0524 -0.1934 -0.4525
  668MOL0     C88109   4.037   0.664   7.402 -0.8599 -0.2164 -0.3227
  668MOL0     C88110   4.036   0.781   7.477 -0.1106 -0.3112 -0.7746
  668MOL0     H88111   3.749   1.260   7.529  3.1657  1.1903 -0.1280
  668MOL0     H88112   3.728   1.477   7.670 -1.8904 -1.8520 -0.3812
  668MOL0     H88113   3.898   1.647   7.952 -0.2302 -0.5463 -2.6347
  668MOL0     H88114   3.968   1.485   7.933 -1.1492  0.6536 -1.4633
  668MOL0     H88115   3.830   1.430   8.159  0.0111  0.0254  1.4418
  668MOL0     H88116   3.808   1.600   8.176 -1.3950  1.7657 -3.6671
  668MOL0     H88117   4.063   1.619   8.169  0.4377 -1.0996 -3.5648
  668MOL0     H88118   4.071   1.447   8.192  1.8036  0.4725  2.9076
  668MOL0     H88119   3.897   1.475   8.378 -0.6860  0.3694 -2.1394
  668MOL0     H88120   4.075   1.502   8.405  2.0711  1.1733 -2.5831
  668MOL0     H88121   3.947   1.649   8.534  0.9001  1.7975  0.1511
  668MOL0     H88122   3.851   1.727   8.408 -1.2745  0.0926  0.8962
  668MOL0     H88123   4.048   1.812   8.294 -1.3426  2.5526  0.9261
  668MOL0     H88124   4.154   1.734   8.432  1.4018 -0.5657 -1.8493
  668MOL0     H88125   4.128   1.953   8.444  0.9548  0.1711  1.4972
  668MOL0     H88126   3.940   1.946   8.459 -1.1770 -2.2041 -0.5066
  668MOL0     H88127   4.153   1.815   8.632  0.9432  1.9164  0.3188
  668MOL0     H88128   3.978   1.819   8.666  1.8283 -2.8618  0.0109
  668MOL0     H88129   3.922   2.095   8.760 -0.4905  1.3920 -1.5825
  668MOL0     H88130   3.995   2.352   8.810 -0.2062 -2.1733 -0.7282
  668MOL0     H88131   4.175   2.395   8.776  1.9433 -1.9236  0.4952
  668MOL0     H88132   4.120   2.236   9.025  1.1536  1.4820  2.4210
  668MOL0     H88133   4.057   2.400   9.025  2.2356  3.6543 -1.5034
  668MOL0     H88134   4.272   2.507   9.007  2.2720 -0.8728 -1.6087
  668MOL0     H88135   4.278   2.392   9.129  0.8391 -0.4830  0.7668
  668MOL0     H88136   4.381   2.355   8.855  0.6737  1.1461  0.3323
  668MOL0     H88137   4.400   2.235   8.982  0.7482 -0.3436 -0.9236
  668MOL0     H88138   4.723   2.510   9.074  2.1722 -0.4699  1.2810
  668MOL0     H88139   4.882   2.448   9.253 -0.4253  0.3834  1.1255
  668MOL0     H88140   4.978   1.987   9.610 -1.8903 -1.3403  0.0183
  668MOL0     H88141   5.092   1.968   9.851  0.6073  1.7608  3.6366
  668MOL0     H88142   4.871   2.108  10.140  0.8356  2.4293 -0.3005
  668MOL0     H88143   4.949   2.252  10.204 -0.5001 -0.9040  5.4904
  668MOL0     H88144   5.104   2.140  10.319  0.3857  2.0338 -4.1908
  668MOL0     H88145   5.071   1.983  10.243  0.3683  1.0833 -0.2310
  668MOL0     H88146   4.978   1.947  10.452 -0.9531 -1.1349 -1.0115
  668MOL0     H88147   4.844   1.987  10.340 -0.4575 -0.8908 -1.4198
  668MOL0     H88148   4.869   2.237  10.429 -0.6085 -1.5299 -2.6948
  668MOL0     H88149   4.797   2.120  10.541  0.3033  4.1837  2.0727
  668MOL0     H88150   5.099   2.199  10.554 -0.1517 -0.9891 -0.4610
  668MOL0     H88151   5.012   2.066  10.633  1.1801 -1.0403 -1.3059
  668MOL0     H88152   4.850   2.219  10.724  1.2859 -4.5323 -2.5722
  668MOL0     H88153   4.940   2.356  10.670  0.8489 -0.0338 -2.1136
  668MOL0     H88154   5.051   2.140  10.866  2.7354 -0.6289  0.2175
  668MOL0     H88155   5.141   2.284  10.792 -0.9930  1.3479 -0.9400
  668MOL0     H88156   4.959   2.431  10.917 -0.1730 -0.4903  0.9845
  668MOL0     H88157   5.090   2.356  11.004  0.2622 -2.7426 -0.5613
  668MOL0     H88158   4.902   2.315   9.977 -1.0137  2.0844 -1.1580
  668MOL0     H88159   4.777   2.327   9.765 -1.1248 -1.1349  1.8760
  668MOL0     H88160   4.605   2.135   9.374  1.5644 -2.6267 -0.7741
  668MOL0     H88161   4.464   2.186   9.192 -1.1297  0.7053  1.4982
  668MOL0     H88162   3.800   1.255   8.028 -0.9735  2.0070 -0.5056
  668MOL0     H88163   3.823   1.044   7.891  2.2283 -1.7310 -4.0828
  668MOL0     H88164   3.693   0.832   7.484  0.7510  0.6570  1.8415
  668MOL0     H88165   3.700   0.625   7.361  1.3284  0.7231 -3.4985
  668MOL0     H88166   4.063   0.395   7.417  1.1386  1.5819  0.0305
  668MOL0     H88167   4.104   0.455   7.247 -2.9026  0.6493 -2.0197
  668MOL0     H88168   3.993   0.275   7.149 -3.2068 -0.3334  0.5615
  668MOL0     H88169   4.109   0.214   7.275  0.2706  1.5188  0.3852
  668MOL0     H88170   3.809   0.236   7.337 -0.2375 -1.5610 -2.3682
  668MOL0     H88171   3.948   0.173   7.444 -0.0098  1.2060  1.0912
  668MOL0     H88172   3.814   0.097   7.168  0.3023  0.6352 -1.0413
  668MOL0     H88173   3.964   0.016   7.226 -1.4653 -1.9232  1.3022
  668MOL0     H88174   3.642  -0.179   7.427  0.9295  0.3338  2.4259
  668MOL0     H88175   4.134   0.625   7.376 -0.4896 -0.1192  0.8761
  668MOL0     H88176   4.126   0.819   7.525 -1.9060 -0.3626  3.0675
  669MOL0     O88177   5.991  10.890   3.050  0.0821  0.4571  0.3456
  669MOL0     C88178   5.958  10.892   2.933 -0.0726  0.1467 -0.8175
  669MOL0     O88179   6.002  10.815   2.829  0.0134  0.1217 -0.5227
  669MOL0     C88180   6.068  10.689   2.851  0.8314 -0.2870 -0.0963
  669MOL0     C88181   6.166  10.629   2.765 -0.4574 -0.5393  0.7448
  669MOL0     C88182   6.222  10.505   2.782  0.7678  0.1820  0.3628
  669MOL0     C88183   6.174  10.421   2.882  0.4809 -0.3453  0.2691
  669MOL0     O88184   6.232  10.299   2.893  0.0763  0.5657 -0.0397
  669MOL0     C88185   6.203  10.230   3.025 -0.2477  0.5164 -0.9750
  669MOL0     C88186   6.289  10.108   3.041  0.0381  0.2308 -0.2047
  669MOL0     C88187   6.233   9.993   2.951  0.1540 -0.2442  0.2404
  669MOL0     C88188   6.329   9.880   2.914  0.2552  0.2844 -0.3261
  669MOL0     C88189   6.249   9.748   2.860 -0.0479 -0.3848 -0.4086
  669MOL0     C88190   6.207   9.776   2.711 -0.0464 -1.1967  0.1824
  669MOL0     C88191   6.142   9.644   2.649 -0.1995 -0.5359 -0.6459
  669MOL0     C88192   6.007   9.621   2.706 -0.3758 -0.3683  0.7103
  669MOL0     N88193   5.933   9.511   2.641 -0.2491 -0.6211  0.4726
  669MOL0     C88194   5.913   9.379   2.694 -0.6841 -0.4337  0.8195
  669MOL0     C88195   5.834   9.323   2.610  0.6505  0.8572 -0.0453
  669MOL0     C88196   5.800   9.185   2.637  0.5180 -0.2618 -0.3822
  669MOL0     C88197   5.655   9.158   2.677  0.9282  0.1124  0.0932
  669MOL0     C88198   5.617   9.214   2.817  0.3823  0.1147 -0.6739
  669MOL0     C88199   5.474   9.212   2.877 -0.6658 -0.1432  0.1557
  669MOL0     O88200   5.414   9.085   2.857  0.2331  0.0623 -0.7144
  669MOL0     C88201   5.384   9.003   2.957 -0.1934  0.1085  0.4369
  669MOL0     C88202   5.261   8.936   2.955 -0.1159 -1.0199  0.5965
  669MOL0     C88203   5.227   8.844   3.062  0.6178 -0.1238 -0.7032
  669MOL0     C88204   5.318   8.817   3.164  1.5335  0.9034  0.6355
  669MOL0     C88205   5.289   8.720   3.267 -0.7504 -0.2228 -0.1417
  669MOL0     O88206   5.406   8.681   3.332 -0.0637  0.4313 -0.4559
  669MOL0     C88207   5.401   8.603   3.448  0.2563  1.2013  0.1566
  669MOL0     C88208   5.288   8.536   3.508  1.0169 -0.6863  0.0500
  669MOL0     C88209   5.305   8.488   3.646  0.6306  0.1818  0.6782
  669MOL0     C88210   5.423   8.490   3.711  0.2868 -0.3437 -0.9918
  669MOL0     O88211   5.439   8.448   3.843 -0.1747 -0.7488 -1.1583
  669MOL0     C88212   5.330   8.471   3.935  0.7590 -0.0326 -0.1674
  669MOL0     C88213   5.370   8.436   4.077  0.7830 -0.0316  0.8120
  669MOL0     C88214   5.453   8.542   4.140  0.2384 -0.0772 -1.2081
  669MOL0     C88215   5.550   8.491   4.254 -0.5478  0.0270  0.5792
  669MOL0     C88216   5.630   8.611   4.302  0.3730 -0.7230  0.6573
  669MOL0     C88217   5.551   8.709   4.375  0.7093 -0.3169  0.0628
  669MOL0     C88218   5.655   8.811   4.434  0.4616 -0.2810  0.6436
  669MOL0     C88219   5.600   8.952   4.431  0.2794 -0.1900 -0.2031
  669MOL0    Cl88220   5.450   8.967   4.521 -0.1490  0.2303 -0.4424
  669MOL0     C88221   5.534   8.527   3.644 -0.7025  0.0211  0.3768
  669MOL0     C88222   5.525   8.595   3.523 -0.3889 -0.4916  0.2608
  669MOL0     O88223   5.176   8.680   3.289 -0.7078 -0.4129  0.2259
  669MOL0     C88224   5.434   8.882   3.163 -0.5105 -0.0204 -0.4021
  669MOL0     C88225   5.478   8.965   3.060 -0.0132  0.7523  0.8795
  669MOL0     N88226   5.790   9.413   2.512  0.3800 -0.1997 -0.0927
  669MOL0     N88227   5.849   9.528   2.532 -0.2340  0.6414 -0.4034
  669MOL0     C88228   6.074  10.473   2.971 -0.0245 -0.0158  0.0549
  669MOL0     C88229   6.038  10.605   2.954  0.5553 -0.5189 -1.0963
  669MOL0     C88230   5.863  11.000   2.890  0.1483 -0.4086  0.1592
  669MOL0     C88231   5.807  10.986   2.764  0.5743 -0.3886 -0.7794
  669MOL0     C88232   5.703  11.074   2.726 -0.7010  0.1762  0.0520
  669MOL0     C88233   5.675  11.178   2.818 -0.1566  0.4270  0.1816
  669MOL0     O88234   5.558  11.249   2.782 -0.3118 -0.2062 -0.1475
  669MOL0     C88235   5.502  11.348   2.876 -0.2165  0.7358  0.6158
  669MOL0     C88236   5.395  11.411   2.802  0.0411 -0.9593  0.5246
  669MOL0     C88237   5.456  11.531   2.719  0.7468 -0.1412  0.2920
  669MOL0     C88238   5.347  11.612   2.646 -0.1530  0.0333 -0.5698
  669MOL0     C88239   5.269  11.680   2.755  0.5295  0.7430 -0.4901
  669MOL0     C88240   5.205  11.743   2.841 -0.1630  0.6194  0.0012
  669MOL0     C88241   5.742  11.198   2.941  0.3122  0.0068 -0.0540
  669MOL0     C88242   5.836  11.108   2.969  0.3297  0.3483 -1.1950
  669MOL0     H88243   6.217  10.677   2.682 -0.3422  0.6144  1.4749
  669MOL0     H88244   6.293  10.465   2.711  1.2363  0.4771  0.6575
  669MOL0     H88245   6.101  10.193   3.038 -0.7424  2.7803  3.4120
  669MOL0     H88246   6.228  10.295   3.109  1.2768 -0.0078 -0.9981
  669MOL0     H88247   6.307  10.070   3.142  0.3398  0.7242 -0.0690
  669MOL0     H88248   6.384  10.127   2.990  0.0005 -1.4070 -0.9375
  669MOL0     H88249   6.193  10.035   2.858 -0.4103 -1.1173  0.0748
  669MOL0     H88250   6.153   9.939   3.003 -0.6332  0.9731  0.3266
  669MOL0     H88251   6.402   9.916   2.841  3.4982 -0.5218  2.2710
  669MOL0     H88252   6.394   9.858   2.999 -1.6113  2.4781  1.8147
  669MOL0     H88253   6.155   9.741   2.915 -0.6406  2.9479 -0.8317
  669MOL0     H88254   6.319   9.664   2.873  0.8274  0.0475 -2.1209
  669MOL0     H88255   6.286   9.816   2.648 -0.2179 -1.1299  0.0073
  669MOL0     H88256   6.125   9.848   2.705 -1.4149 -2.7807 -1.6330
  669MOL0     H88257   6.131   9.657   2.541 -0.2640 -0.0067 -0.5786
  669MOL0     H88258   6.205   9.557   2.670  4.1497  1.9536 -2.1680
  669MOL0     H88259   5.949   9.713   2.696  0.5984  0.2086  0.2418
  669MOL0     H88260   6.016   9.589   2.810 -0.3982 -2.3207  0.1565
  669MOL0     H88261   5.950   9.336   2.787 -1.2940 -2.1815  0.2846
  669MOL0     H88262   5.859   9.147   2.721  1.2432  2.0121  0.2142
  669MOL0     H88263   5.841   9.128   2.553  1.5758 -0.9805  0.5905
  669MOL0     H88264   5.643   9.050   2.665 -0.5393  0.0361  1.7589
  669MOL0     H88265   5.592   9.213   2.606  0.7830 -0.2759 -0.0836
  669MOL0     H88266   5.673   9.166   2.898  0.7496  3.5785  1.3144
  669MOL0     H88267   5.640   9.321   2.810  2.0848 -0.3269 -3.4553
  669MOL0     H88268   5.421   9.293   2.826 -0.5342  0.1414  0.4664
  669MOL0     H88269   5.478   9.240   2.982  1.1733  2.4651 -0.5088
  669MOL0     H88270   5.189   8.954   2.876  1.3970 -1.0002 -0.8315
  669MOL0     H88271   5.138   8.782   3.065 -0.4916  1.3623 -1.6426
  669MOL0     H88272   5.185   8.544   3.472  1.6011 -3.7221 -2.7101
  669MOL0     H88273   5.224   8.457   3.712 -0.9756  3.9910  0.7960
  669MOL0     H88274   5.239   8.420   3.903 -0.4678  1.6405  0.5025
  669MOL0     H88275   5.295   8.575   3.940 -0.8527 -0.5897  1.5873
  669MOL0     H88276   5.434   8.348   4.086 -1.6953 -1.7164  3.4542
  669MOL0     H88277   5.289   8.423   4.149  2.2777  0.5863  2.7111
  669MOL0     H88278   5.378   8.611   4.181 -0.7837  0.0496 -3.1520
  669MOL0     H88279   5.511   8.591   4.062 -1.0129 -0.6651 -2.5564
  669MOL0     H88280   5.489   8.440   4.329 -0.5937 -1.3892 -0.3981
  669MOL0     H88281   5.613   8.409   4.219 -3.4792 -1.6303 -1.1614
  669MOL0     H88282   5.677   8.662   4.218 -1.0626 -2.4824 -1.3425
  669MOL0     H88283   5.712   8.570   4.361  1.9054  1.7985  0.4008
  669MOL0     H88284   5.477   8.673   4.447 -0.9552  4.3647  1.0651
  669MOL0     H88285   5.492   8.757   4.296 -1.4642  0.8419  2.2562
  669MOL0     H88286   5.674   8.793   4.540  3.4974 -0.0708  0.2199
  669MOL0     H88287   5.752   8.801   4.385 -0.5268 -3.0081 -0.9799
  669MOL0     H88288   5.586   8.977   4.326 -2.8743 -3.3057 -0.7353
  669MOL0     H88289   5.677   9.021   4.467 -2.8341  3.6721 -0.1841
  669MOL0     H88290   5.628   8.522   3.697  0.6825  1.5556 -1.7689
  669MOL0     H88291   5.616   8.634   3.480  0.4546 -1.3433  1.2058
  669MOL0     H88292   5.508   8.854   3.238 -1.5344 -0.0891  0.5991
  669MOL0     H88293   5.576   9.010   3.046  1.0306 -1.2670  1.2935
  669MOL0     H88294   6.049  10.418   3.060  1.6660 -0.8477  0.0419
  669MOL0     H88295   5.965  10.648   3.021 -1.2861  0.1585 -3.4240
  669MOL0     H88296   5.832  10.905   2.697 -0.3753 -1.2077 -0.1746
  669MOL0     H88297   5.642  11.073   2.636 -3.4678  4.0375  1.5729
  669MOL0     H88298   5.573  11.424   2.910  0.1210  1.4438 -1.5597
  669MOL0     H88299   5.457  11.298   2.962  1.4702 -1.1189  0.4887
  669MOL0     H88300   5.342  11.341   2.737  0.8423  0.5292 -1.8476
  669MOL0     H88301   5.332  11.453   2.880  0.1594 -0.3206  0.2787
  669MOL0     H88302   5.538  11.507   2.649  0.2853 -0.2369 -0.2210
  669MOL0     H88303   5.508  11.595   2.791  1.0124  1.3541 -1.1486
  669MOL0     H88304   5.400  11.669   2.569  1.1520  1.4321  1.2545
  669MOL0     H88305   5.272  11.548   2.600 -2.2782 -1.1394  3.9409
  669MOL0     H88306   5.165  11.798   2.923 -0.7231  0.4525 -0.1616
  669MOL0     H88307   5.709  11.272   3.013  0.9120  0.0071  0.2260
  669MOL0     H88308   5.876  11.112   3.070  0.4584  1.2894 -1.2760
  670MOL0     O88309   9.131   7.955   6.891  0.6338 -0.3990  0.5210
  670MOL0     C88310   9.118   7.849   6.827 -0.4017  0.4036 -0.2125
  670MOL0     O88311   9.218   7.765   6.794  0.4599 -0.8324 -0.0417
  670MOL0     C88312   9.346   7.800   6.831 -1.2837 -0.4243  0.1640
  670MOL0     C88313   9.390   7.788   6.960 -0.2965 -0.3507 -0.3142
  670MOL0     C88314   9.523   7.832   6.996  0.6271 -0.6342  0.5605
  670MOL0     C88315   9.605   7.900   6.908 -0.4060  0.5777  0.2848
  670MOL0     O88316   9.731   7.948   6.926 -0.2437 -0.0152 -0.1184
  670MOL0     C88317   9.818   7.858   6.995 -0.2975 -0.0090 -0.1359
  670MOL0     C88318   9.929   7.794   6.913 -0.6967 -0.0872  0.2157
  670MOL0     C88319  10.024   7.909   6.871  1.2726  0.1872 -0.5361
  670MOL0     C88320  10.154   7.857   6.814 -0.5153  0.4503  0.3279
  670MOL0     C88321  10.242   7.968   6.770  0.4514 -0.3019  0.4530
  670MOL0     C88322  10.308   7.966   6.627 -0.3006 -0.4067  1.3165
  670MOL0     C88323  10.395   7.846   6.602 -0.3899  0.5126  0.4643
  670MOL0     C88324  10.475   7.846   6.476  0.9287 -0.4796 -0.3886
  670MOL0     N88325  10.582   7.953   6.478  0.8547 -0.1568  0.3718
  670MOL0     C88326  10.704   7.940   6.538 -0.3240  0.2388  0.3213
  670MOL0     C88327  10.762   8.058   6.530 -0.1749  1.1786  0.0438
  670MOL0     C88328  10.905   8.072   6.587  0.5328 -0.5616  0.6820
  670MOL0     C88329  11.015   7.991   6.510  0.4398 -0.8588 -1.2305
  670MOL0     C88330  11.048   8.031   6.363 -0.0761  0.0561 -0.4134
  670MOL0     C88331  11.135   7.924   6.297  1.6099 -0.0496 -0.0895
  670MOL0     O88332  11.083   7.784   6.285  0.4775  0.1099 -0.3376
  670MOL0     C88333  10.957   7.768   6.244  0.2213 -0.1735  0.2367
  670MOL0     C88334  10.886   7.662   6.297  1.3023  0.0620 -0.3962
  670MOL0     C88335  10.752   7.645   6.262 -0.0897 -0.7432  1.0668
  670MOL0     C88336  10.692   7.733   6.169  0.5809  0.3113 -0.1976
  670MOL0     C88337  10.546   7.720   6.142  0.2348 -0.0368  0.0944
  670MOL0     O88338  10.489   7.594   6.172 -0.4766 -0.3214 -0.2154
  670MOL0     C88339  10.346   7.591   6.182 -0.2709  0.2074 -0.4401
  670MOL0     C88340  10.261   7.635   6.087 -0.5245 -0.2514 -0.4176
  670MOL0     C88341  10.123   7.652   6.103 -0.3094 -0.3178 -0.3728
  670MOL0     C88342  10.074   7.603   6.225  0.1638  0.4095  0.0487
  670MOL0     O88343   9.945   7.585   6.241  0.8076 -0.2136 -1.1736
  670MOL0     C88344   9.853   7.563   6.131  0.3561 -0.3962 -0.4629
  670MOL0     C88345   9.724   7.515   6.188 -0.0577 -0.1958 -0.3332
  670MOL0     C88346   9.602   7.528   6.093 -0.9184 -0.2040  0.8099
  670MOL0     C88347   9.485   7.467   6.158 -0.2419  0.1091 -0.6334
  670MOL0     C88348   9.362   7.495   6.073 -0.2544  0.0359  0.1325
  670MOL0     C88349   9.258   7.388   6.131 -0.7848 -0.1940  0.1124
  670MOL0     C88350   9.117   7.400   6.074  0.2606  0.0287 -0.5912
  670MOL0     C88351   9.013   7.291   6.124  1.0011 -0.4150  0.1712
  670MOL0    Cl88352   8.856   7.352   6.058 -0.0405  0.0002 -0.0866
  670MOL0     C88353  10.158   7.544   6.326  0.1329 -0.1849  0.3984
  670MOL0     C88354  10.294   7.539   6.297 -0.7302 -0.0266 -0.1141
  670MOL0     O88355  10.482   7.813   6.103 -0.5336  0.1471 -1.0966
  670MOL0     C88356  10.777   7.825   6.104 -0.2752 -0.8675 -0.6988
  670MOL0     C88357  10.905   7.852   6.147  0.0281  0.4364  0.2006
  670MOL0     N88358  10.691   8.143   6.447  0.6735 -0.5258 -0.5630
  670MOL0     N88359  10.588   8.080   6.410 -0.1153  0.4374 -0.0676
  670MOL0     C88360   9.570   7.901   6.774  0.5252  0.3879 -0.5632
  670MOL0     C88361   9.438   7.859   6.744  0.7752  0.4100  0.1038
  670MOL0     C88362   8.980   7.815   6.774  0.6488  0.3055  0.4306
  670MOL0     C88363   8.863   7.868   6.836 -0.3205  0.5755 -0.0860
  670MOL0     C88364   8.729   7.831   6.803 -0.5637 -0.6148  0.8623
  670MOL0     C88365   8.712   7.762   6.684 -0.3864  0.9471 -1.2108
  670MOL0     O88366   8.585   7.741   6.648  0.0918  0.0686  0.1879
  670MOL0     C88367   8.557   7.624   6.572 -1.2457 -0.3652 -0.3691
  670MOL0     C88368   8.413   7.603   6.591 -0.4399  0.7553 -0.2810
  670MOL0     C88369   8.386   7.559   6.731  1.2736 -0.2492 -0.1034
  670MOL0     C88370   8.240   7.522   6.763 -0.4302  0.3842  0.0914
  670MOL0     C88371   8.197   7.399   6.699  0.1131  0.4901 -0.9418
  670MOL0     C88372   8.137   7.301   6.650 -0.2119  0.0472  0.0830
  670MOL0     C88373   8.827   7.707   6.622  0.0771 -0.4591 -0.9718
  670MOL0     C88374   8.955   7.732   6.666  0.1765 -0.7645  0.6807
  670MOL0     H88375   9.322   7.746   7.033 -0.8139  0.4422 -0.3382
  670MOL0     H88376   9.562   7.832   7.098  0.4802  1.8657  0.6634
  670MOL0     H88377   9.772   7.772   7.044  1.3689 -0.9596 -0.1481
  670MOL0     H88378   9.865   7.920   7.072  2.8272 -2.7934  0.4403
  670MOL0     H88379   9.899   7.741   6.822  0.8969  1.6776 -1.4205
  670MOL0     H88380   9.971   7.719   6.980 -1.8483 -1.4031 -0.4758
  670MOL0     H88381  10.057   7.963   6.960  1.6173 -0.1234 -0.4758
  670MOL0     H88382   9.974   7.970   6.795 -0.0953 -0.8768 -0.5244
  670MOL0     H88383  10.207   7.790   6.883  1.4356 -0.8428 -2.2475
  670MOL0     H88384  10.126   7.793   6.730  0.0922  1.0778 -0.3580
  670MOL0     H88385  10.326   7.980   6.839  1.5672  0.2737 -0.9360
  670MOL0     H88386  10.179   8.057   6.774  0.0128 -0.4464 -1.8671
  670MOL0     H88387  10.368   8.058   6.619  1.6450 -1.7585 -0.8761
  670MOL0     H88388  10.224   7.967   6.557 -1.3326 -0.6006  2.5254
  670MOL0     H88389  10.459   7.849   6.691 -0.3821 -1.4404  0.5542
  670MOL0     H88390  10.339   7.753   6.594  1.5001 -0.7048  0.7697
  670MOL0     H88391  10.404   7.859   6.395 -0.3053 -2.8238  0.2116
  670MOL0     H88392  10.514   7.745   6.457  2.4583  0.3271 -1.8593
  670MOL0     H88393  10.744   7.856   6.594 -1.8990 -0.0684  1.0567
  670MOL0     H88394  10.906   8.023   6.685  0.2835 -0.8215  0.5555
  670MOL0     H88395  10.922   8.177   6.610 -2.8722  1.3120 -3.8389
  670MOL0     H88396  10.955   7.902   6.490 -1.7982  0.5796 -1.3152
  670MOL0     H88397  11.113   7.981   6.558 -0.0488  0.5011  0.1359
  670MOL0     H88398  10.947   8.048   6.324 -1.4006 -0.8801  2.3560
  670MOL0     H88399  11.107   8.122   6.348  2.0119 -1.5905 -3.0216
  670MOL0     H88400  11.238   7.920   6.334  0.8837  0.2438  2.1397
  670MOL0     H88401  11.150   7.958   6.194 -0.7207  1.4928  0.0056
  670MOL0     H88402  10.933   7.588   6.362  1.4622  0.8584  0.4158
  670MOL0     H88403  10.705   7.555   6.299  0.4418 -0.3797  2.7178
  670MOL0     H88404  10.311   7.666   5.995 -0.3854  0.8877  0.0287
  670MOL0     H88405  10.059   7.685   6.021 -0.3959 -3.6988 -1.8497
  670MOL0     H88406   9.902   7.494   6.061 -0.0777 -2.3457  1.0523
  670MOL0     H88407   9.828   7.657   6.081  2.8075 -0.0815 -1.2453
  670MOL0     H88408   9.701   7.578   6.275 -0.1975 -2.9155  1.7233
  670MOL0     H88409   9.740   7.416   6.231 -0.5188 -0.1562 -0.0583
  670MOL0     H88410   9.634   7.471   6.005 -2.1922  0.4765 -0.1210
  670MOL0     H88411   9.574   7.632   6.077 -0.5011 -0.3698 -1.2684
  670MOL0     H88412   9.519   7.363   6.159  0.4263  0.3210 -0.9007
  670MOL0     H88413   9.465   7.494   6.263  1.5088  2.6394 -0.8764
  670MOL0     H88414   9.381   7.488   5.966  2.7898  2.6990  0.3391
  670MOL0     H88415   9.338   7.601   6.086 -4.0478 -0.8908  2.0882
  670MOL0     H88416   9.255   7.393   6.240  2.7824 -1.4568  0.3938
  670MOL0     H88417   9.294   7.291   6.094  1.2547 -0.1792  1.8545
  670MOL0     H88418   9.078   7.499   6.101  2.2223  0.4003  1.1182
  670MOL0     H88419   9.129   7.399   5.965  0.4440 -0.5569 -0.5663
  670MOL0     H88420   9.019   7.288   6.233 -1.9071  2.2934  0.5225
  670MOL0     H88421   9.028   7.190   6.084 -1.7459 -0.3699 -1.2090
  670MOL0     H88422  10.125   7.496   6.417  0.1183  1.9882  1.6201
  670MOL0     H88423  10.369   7.496   6.362  2.1240  1.6866 -2.0936
  670MOL0     H88424  10.753   7.880   6.013 -2.2239  0.0498  0.3273
  670MOL0     H88425  10.956   7.926   6.086  1.3244  0.0978  0.8367
  670MOL0     H88426   9.642   7.943   6.704  3.5900 -0.1159  2.0451
  670MOL0     H88427   9.394   7.886   6.649 -2.2323  1.2411  1.6245
  670MOL0     H88428   8.875   7.914   6.934  0.0807 -1.3731  0.8145
  670MOL0     H88429   8.646   7.859   6.867  0.9668 -1.4405  3.3694
  670MOL0     H88430   8.619   7.542   6.610 -1.6537  0.3014  1.8894
  670MOL0     H88431   8.582   7.647   6.468  0.7286  1.9111  0.5337
  670MOL0     H88432   8.355   7.694   6.575 -2.5978  0.0615  2.7358
  670MOL0     H88433   8.377   7.515   6.537  1.8726 -1.0849  0.9747
  670MOL0     H88434   8.408   7.642   6.798  1.4228 -1.5656  1.5476
  670MOL0     H88435   8.447   7.472   6.759  2.1927  0.6687  0.8321
  670MOL0     H88436   8.223   7.511   6.870 -1.2670 -0.0387 -0.0739
  670MOL0     H88437   8.186   7.607   6.720  3.1806  2.8085 -0.0254
  670MOL0     H88438   8.089   7.223   6.596  1.1191  1.8905 -4.2012
  670MOL0     H88439   8.820   7.637   6.539 -0.8474  1.9756 -3.0769
  670MOL0     H88440   9.046   7.686   6.629 -0.1995  0.0678 -1.4151
  671MOL0     O88441   1.003   3.658   4.420  0.4497 -0.7428 -0.3973
  671MOL0     C88442   1.069   3.700   4.318 -0.1250  1.0890 -0.7865
  671MOL0     O88443   1.023   3.757   4.208  0.4903 -0.7315 -0.5587
  671MOL0     C88444   0.887   3.797   4.205  0.4894  0.6115 -0.1601
  671MOL0     C88445   0.787   3.705   4.228 -0.5019  1.0387  0.1774
  671MOL0     C88446   0.656   3.745   4.208  0.0207 -0.2003 -0.2441
  671MOL0     C88447   0.621   3.878   4.185 -0.5464  0.1368  0.3001
  671MOL0     O88448   0.497   3.924   4.178  0.5638 -0.7659  0.5567
  671MOL0     C88449   0.391   3.850   4.242 -0.3816  0.8327 -0.5130
  671MOL0     C88450   0.282   3.948   4.278  0.6420 -1.4140 -0.0870
  671MOL0     C88451   0.234   4.042   4.167 -0.5374 -0.6842 -0.0532
  671MOL0     C88452   0.145   3.977   4.065 -0.7657  0.7440  0.6210
  671MOL0     C88453   0.219   3.977   3.926 -0.3029  0.3946 -0.7477
  671MOL0     C88454   0.145   3.894   3.814 -0.4265 -0.1188 -0.8941
  671MOL0     C88455   0.208   3.919   3.675  0.3205  0.1024 -0.4950
  671MOL0     C88456   0.153   3.813   3.577 -0.3745 -0.9070  0.1694
  671MOL0     N88457   0.243   3.801   3.462  0.8193 -0.2274 -0.3590
  671MOL0     C88458   0.332   3.700   3.449  0.1969 -0.3803  0.2196
  671MOL0     C88459   0.396   3.723   3.338 -0.7375 -0.9585  0.5575
  671MOL0     C88460   0.501   3.633   3.276 -0.2270  0.0882  0.7726
  671MOL0     C88461   0.635   3.596   3.343  0.1073  0.2776  0.7362
  671MOL0     C88462   0.724   3.716   3.316 -0.6220  0.6376  0.6311
  671MOL0     C88463   0.859   3.694   3.384 -0.1981  0.0742  0.1905
  671MOL0     O88464   0.960   3.784   3.337  0.4040  0.0432 -0.0954
  671MOL0     C88465   1.077   3.796   3.398  0.2995 -0.2893 -0.5683
  671MOL0     C88466   1.132   3.918   3.387  0.0962  0.1615  0.4134
  671MOL0     C88467   1.260   3.947   3.435 -0.5099 -0.0871 -0.7280
  671MOL0     C88468   1.326   3.860   3.520 -0.5109  0.2263  1.1551
  671MOL0     C88469   1.459   3.899   3.579  0.9135 -0.0500 -0.4563
  671MOL0     O88470   1.541   3.781   3.589  0.2581  0.3139  0.3762
  671MOL0     C88471   1.679   3.792   3.590 -0.2546 -0.1079 -0.2854
  671MOL0     C88472   1.749   3.890   3.527  0.1922  0.6541  0.8658
  671MOL0     C88473   1.884   3.897   3.525 -0.0411 -0.0471  0.2150
  671MOL0     C88474   1.950   3.797   3.587  0.3201  0.1817  0.7128
  671MOL0     O88475   2.084   3.812   3.602  0.1648 -0.1601  0.6804
  671MOL0     C88476   2.172   3.722   3.529 -0.0151  0.2191  0.1188
  671MOL0     C88477   2.321   3.749   3.564  0.6272 -0.0096  0.2812
  671MOL0     C88478   2.414   3.666   3.475 -0.2824 -0.4212  0.1858
  671MOL0     C88479   2.559   3.673   3.533 -0.3474 -0.9533 -0.2871
  671MOL0     C88480   2.586   3.569   3.648 -0.3781 -0.9687 -0.1965
  671MOL0     C88481   2.719   3.577   3.720 -0.7607  0.1487  0.3468
  671MOL0     C88482   2.725   3.476   3.840  0.0175 -0.2921 -0.0542
  671MOL0     C88483   2.854   3.486   3.916 -0.9678  0.0773 -0.2520
  671MOL0    Cl88484   2.994   3.456   3.816 -0.2781  0.0074 -0.3211
  671MOL0     C88485   1.886   3.692   3.656  0.4466 -0.8821  0.2013
  671MOL0     C88486   1.746   3.688   3.652  0.4443  1.1446 -0.3928
  671MOL0     O88487   1.495   4.014   3.590  0.2565 -0.1314  0.0681
  671MOL0     C88488   1.268   3.732   3.527 -0.1219  0.0015 -0.2427
  671MOL0     C88489   1.142   3.701   3.486  0.7896 -0.1241 -0.3168
  671MOL0     N88490   0.353   3.844   3.288 -0.4035 -0.0209  0.3361
  671MOL0     N88491   0.255   3.888   3.361 -0.3275  0.1693 -0.7554
  671MOL0     C88492   0.727   3.966   4.166  0.0770 -0.8802 -0.2835
  671MOL0     C88493   0.863   3.929   4.170 -0.1450  0.7659 -0.3722
  671MOL0     C88494   1.211   3.678   4.322 -0.8407 -0.1653  0.2087
  671MOL0     C88495   1.303   3.758   4.254 -0.6071 -0.3222  0.1004
  671MOL0     C88496   1.442   3.747   4.289 -0.0928  1.1687  0.1193
  671MOL0     C88497   1.491   3.662   4.389 -0.4682 -0.1057  1.1542
  671MOL0     O88498   1.631   3.662   4.400  1.4272  0.6105 -0.2296
  671MOL0     C88499   1.680   3.631   4.525  0.2843  0.4877  0.0226
  671MOL0     C88500   1.822   3.682   4.532  0.5749  0.0172  0.2956
  671MOL0     C88501   1.885   3.644   4.670 -0.1305  0.8163  0.2409
  671MOL0     C88502   2.020   3.699   4.683 -0.9869  0.5312 -0.1648
  671MOL0     C88503   2.108   3.631   4.584  0.5358  0.1204  0.0864
  671MOL0     C88504   2.155   3.569   4.489 -0.6183 -1.0945  0.3134
  671MOL0     C88505   1.398   3.585   4.457  1.2568  0.2306 -0.4781
  671MOL0     C88506   1.262   3.597   4.421  0.1887  0.0206  0.7953
  671MOL0     H88507   0.812   3.600   4.238 -1.4104  0.5490 -2.1332
  671MOL0     H88508   0.585   3.662   4.203  0.1741 -0.8883  4.3814
  671MOL0     H88509   0.426   3.802   4.334 -1.1895  0.2945 -0.4782
  671MOL0     H88510   0.349   3.768   4.183 -2.4745 -0.1195  2.1027
  671MOL0     H88511   0.307   4.012   4.362 -0.3723  2.0235 -2.2087
  671MOL0     H88512   0.188   3.902   4.309 -0.1903  0.4487  0.2823
  671MOL0     H88513   0.321   4.082   4.114  0.7709 -1.9839  1.0103
  671MOL0     H88514   0.178   4.122   4.216  1.0232 -0.4886  1.5225
  671MOL0     H88515   0.116   3.875   4.091 -0.1619  0.3559 -0.1806
  671MOL0     H88516   0.054   4.037   4.052 -1.1761 -0.0283 -0.1635
  671MOL0     H88517   0.314   3.926   3.943 -1.4236 -1.0821  1.7159
  671MOL0     H88518   0.227   4.082   3.898  0.2100 -0.3511 -3.7580
  671MOL0     H88519   0.041   3.928   3.810 -1.0195 -1.7091  0.3518
  671MOL0     H88520   0.138   3.787   3.834  0.5670  0.3418  2.5110
  671MOL0     H88521   0.190   4.020   3.638 -0.0525  0.1160 -0.2800
  671MOL0     H88522   0.317   3.903   3.673  0.5026  0.3235 -5.9734
  671MOL0     H88523   0.057   3.842   3.533  0.2016 -1.1359 -1.2882
  671MOL0     H88524   0.131   3.714   3.619  1.6716 -2.8734 -2.9721
  671MOL0     H88525   0.344   3.611   3.509 -3.5681 -0.5482  0.9461
  671MOL0     H88526   0.510   3.678   3.177 -1.6398 -0.6870  0.2652
  671MOL0     H88527   0.462   3.534   3.251  0.1950 -1.0361  4.0716
  671MOL0     H88528   0.676   3.498   3.314  4.3678  2.0776 -0.1073
  671MOL0     H88529   0.618   3.576   3.449 -1.2368  1.5559  0.7957
  671MOL0     H88530   0.753   3.717   3.211 -0.9388 -1.5635  0.4743
  671MOL0     H88531   0.670   3.806   3.349 -2.9066 -1.5789  3.5857
  671MOL0     H88532   0.882   3.592   3.354 -0.5749  0.2678 -0.8155
  671MOL0     H88533   0.850   3.699   3.493  1.5221  0.5651  0.3506
  671MOL0     H88534   1.082   3.994   3.328  0.9886  1.4683  1.2835
  671MOL0     H88535   1.295   4.049   3.436  2.3842 -0.9824 -0.1967
  671MOL0     H88536   1.700   3.965   3.467  3.8147  1.0983 -1.8400
  671MOL0     H88537   1.943   3.968   3.467  0.3221  1.1485  1.9893
  671MOL0     H88538   2.166   3.750   3.423 -0.4360  1.5250  0.4715
  671MOL0     H88539   2.142   3.617   3.532  0.2401  0.1051 -0.7868
  671MOL0     H88540   2.336   3.710   3.665  0.8911 -0.4056  0.0943
  671MOL0     H88541   2.348   3.855   3.564  1.8268 -0.3006  1.5071
  671MOL0     H88542   2.419   3.711   3.376  0.8510 -1.5328 -0.2875
  671MOL0     H88543   2.382   3.563   3.456 -2.6698  0.9551 -4.9138
  671MOL0     H88544   2.635   3.661   3.456  1.3301  0.9682  0.9718
  671MOL0     H88545   2.578   3.774   3.567 -0.5765  0.2029 -3.2645
  671MOL0     H88546   2.571   3.466   3.615 -1.6286 -0.3580 -1.7322
  671MOL0     H88547   2.511   3.585   3.726 -0.9402  1.0914 -1.0825
  671MOL0     H88548   2.723   3.681   3.755 -2.8116  0.7897 -1.1528
  671MOL0     H88549   2.798   3.557   3.647 -0.5127 -1.2717  0.9787
  671MOL0     H88550   2.643   3.503   3.907  0.7188  2.4964 -0.1629
  671MOL0     H88551   2.719   3.374   3.804  1.3792 -0.0767 -0.9510
  671MOL0     H88552   2.857   3.411   3.996 -0.4640  0.8590  0.4808
  671MOL0     H88553   2.866   3.576   3.976 -1.7045 -0.7557  1.2051
  671MOL0     H88554   1.940   3.614   3.709  2.1053  1.7208  2.6403
  671MOL0     H88555   1.682   3.613   3.697 -0.6072  2.6438  0.7370
  671MOL0     H88556   1.314   3.659   3.594  1.0586  0.3684 -0.6347
  671MOL0     H88557   1.086   3.613   3.516  1.2587  0.6766  3.3822
  671MOL0     H88558   0.703   4.067   4.132  0.5541 -0.2418  1.2166
  671MOL0     H88559   0.946   3.997   4.156 -0.1852  0.5238 -1.9856
  671MOL0     H88560   1.278   3.825   4.172 -1.6929 -2.1477 -1.1189
  671MOL0     H88561   1.521   3.798   4.235 -0.8411  0.1727 -2.0529
  671MOL0     H88562   1.673   3.525   4.550  1.8562  0.2210 -0.5959
  671MOL0     H88563   1.621   3.692   4.595 -0.2355 -0.0326  0.0437
  671MOL0     H88564   1.879   3.634   4.452  2.6443  1.7807  0.6130
  671MOL0     H88565   1.821   3.789   4.511 -1.4378  0.0458  0.3967
  671MOL0     H88566   1.893   3.536   4.681  1.4008  0.7645 -1.0681
  671MOL0     H88567   1.823   3.687   4.750 -2.0303  1.5303 -1.5150
  671MOL0     H88568   2.012   3.803   4.651  0.6864  0.3336 -1.3466
  671MOL0     H88569   2.073   3.681   4.777 -1.2890 -0.3520 -0.1525
  671MOL0     H88570   2.168   3.499   4.409  1.3697  0.3183 -0.6683
  671MOL0     H88571   1.437   3.522   4.536 -0.6423 -0.3358  0.0325
  671MOL0     H88572   1.202   3.519   4.468  0.8970 -1.2492 -0.3548
  672MOL0     O88573   6.065   5.198   4.128 -0.1201 -0.5281 -0.1526
  672MOL0     C88574   6.014   5.108   4.066  0.7487  1.0261  0.3416
  672MOL0     O88575   5.893   5.115   3.995 -0.1723 -0.5431  0.3814
  672MOL0     C88576   5.821   5.232   3.966 -1.1360  0.8897 -0.0608
  672MOL0     C88577   5.742   5.222   3.855  0.0075 -0.2328 -0.2407
  672MOL0     C88578   5.683   5.340   3.806 -0.5655 -0.1028 -1.0547
  672MOL0     C88579   5.709   5.466   3.868  0.1177  0.8574  0.7137
  672MOL0     O88580   5.676   5.586   3.812 -0.4829  0.0764 -0.6733
  672MOL0     C88581   5.541   5.627   3.823 -0.1618  0.4542 -0.1146
  672MOL0     C88582   5.534   5.769   3.849  1.0894  0.6034 -0.0724
  672MOL0     C88583   5.593   5.805   3.989 -0.4559  0.4004 -0.1748
  672MOL0     C88584   5.581   5.954   4.036 -0.0117 -0.0036  0.4392
  672MOL0     C88585   5.656   5.980   4.177 -0.2601 -0.4082  0.3996
  672MOL0     C88586   5.809   5.950   4.199  0.5770 -0.6850 -0.6647
  672MOL0     C88587   5.900   6.052   4.135  1.1717  0.7007  0.4495
  672MOL0     C88588   5.919   6.024   3.979 -0.7148  0.1294 -0.2045
  672MOL0     N88589   6.036   6.094   3.926  0.4356 -0.5519  0.3845
  672MOL0     C88590   6.080   6.102   3.795 -0.8740  0.4385  0.3444
  672MOL0     C88591   6.176   6.199   3.796  0.3200  0.6093  0.0820
  672MOL0     C88592   6.256   6.242   3.686 -0.6103  0.6055  0.2092
  672MOL0     C88593   6.286   6.395   3.684  0.5941  0.2119  1.0510
  672MOL0     C88594   6.166   6.486   3.716  0.5722 -0.3993  0.0397
  672MOL0     C88595   6.029   6.472   3.642  1.0845  0.3727 -0.1079
  672MOL0     O88596   6.031   6.493   3.502  0.2971 -0.4791  0.3359
  672MOL0     C88597   5.979   6.606   3.450  0.2920 -0.5103  0.2793
  672MOL0     C88598   5.972   6.720   3.522 -0.7868 -0.2429  0.1224
  672MOL0     C88599   5.903   6.830   3.470  0.1322 -0.7213  0.3491
  672MOL0     C88600   5.839   6.833   3.342  0.0618  1.2030 -0.0324
  672MOL0     C88601   5.764   6.948   3.297 -0.8209  0.1955 -0.9939
  672MOL0     O88602   5.746   7.052   3.391  0.5155  0.1644 -0.0353
  672MOL0     C88603   5.673   7.166   3.356  0.3535 -0.6705  0.5041
  672MOL0     C88604   5.537   7.174   3.382 -0.1113 -0.5092 -0.1993
  672MOL0     C88605   5.485   7.302   3.386  0.7767 -0.1745  0.3429
  672MOL0     C88606   5.549   7.420   3.345  0.2972  0.2907  1.1434
  672MOL0     O88607   5.467   7.543   3.351 -0.2200 -0.0484 -0.5880
  672MOL0     C88608   5.522   7.669   3.318  0.8018  0.7218  0.3813
  672MOL0     C88609   5.539   7.706   3.161 -0.3885 -1.0071 -0.2611
  672MOL0     C88610   5.580   7.850   3.132  0.5841  0.0141 -0.8931
  672MOL0     C88611   5.729   7.881   3.165  0.6159  1.3096  0.5399
  672MOL0     C88612   5.754   8.029   3.204  0.5102  0.3968  0.5039
  672MOL0     C88613   5.718   8.113   3.086 -0.2475 -0.1971  0.5542
  672MOL0     C88614   5.807   8.244   3.093 -0.2675  0.6777  0.2144
  672MOL0     C88615   5.803   8.330   2.965  0.1164  0.4562  0.8136
  672MOL0    Cl88616   5.867   8.494   3.001  0.0202  0.3841  0.0164
  672MOL0     C88617   5.680   7.406   3.300 -0.8533 -0.7117  0.6269
  672MOL0     C88618   5.743   7.282   3.302 -0.3807  0.3443 -0.7255
  672MOL0     O88619   5.728   6.953   3.179  0.7502  0.7367  0.0287
  672MOL0     C88620   5.856   6.720   3.264  0.8573 -0.0874 -0.2558
  672MOL0     C88621   5.918   6.610   3.324 -0.2722  1.3885 -0.1186
  672MOL0     N88622   6.188   6.248   3.922 -0.2291  0.1169 -0.6691
  672MOL0     N88623   6.104   6.187   3.995 -0.6706 -0.2346  0.6803
  672MOL0     C88624   5.766   5.470   3.994  0.2734  0.6686  0.5250
  672MOL0     C88625   5.820   5.349   4.039  0.4783  0.0901  0.4670
  672MOL0     C88626   6.079   4.979   4.038  0.5145  0.5753  0.0784
  672MOL0     C88627   6.175   4.935   4.126 -1.1245  0.1607  0.7389
  672MOL0     C88628   6.246   4.821   4.099  0.3667  0.2286  0.9955
  672MOL0     C88629   6.213   4.724   4.006  1.0378 -0.5256 -0.0579
  672MOL0     O88630   6.296   4.624   3.983  0.3177 -0.3749 -0.4238
  672MOL0     C88631   6.268   4.526   3.883  0.2747 -0.2113  0.4804
  672MOL0     C88632   6.347   4.403   3.920 -1.0181  0.5123  0.0134
  672MOL0     C88633   6.493   4.422   3.925 -0.6838 -0.5515 -0.4784
  672MOL0     C88634   6.574   4.311   3.997 -0.7196 -0.3685  0.4527
  672MOL0     C88635   6.719   4.327   3.967 -0.2155 -0.2594 -0.5670
  672MOL0     C88636   6.839   4.348   3.952  0.3136 -0.7184  0.8206
  672MOL0     C88637   6.098   4.755   3.931 -0.8061 -0.5429 -0.0230
  672MOL0     C88638   6.035   4.885   3.941 -0.1185  0.3747 -0.3324
  672MOL0     H88639   5.735   5.123   3.813 -0.6796  0.4476 -1.8200
  672MOL0     H88640   5.624   5.340   3.714  3.1268 -0.3023 -3.6720
  672MOL0     H88641   5.475   5.580   3.897 -1.1299  0.0670 -1.1941
  672MOL0     H88642   5.499   5.618   3.722 -0.0423  2.9592 -0.4385
  672MOL0     H88643   5.430   5.803   3.852  1.3981  1.5744  2.2118
  672MOL0     H88644   5.594   5.815   3.770  3.3933 -0.7904  0.7540
  672MOL0     H88645   5.696   5.767   3.991 -0.3402  0.6361 -1.1181
  672MOL0     H88646   5.544   5.751   4.070  1.3152 -1.0222 -0.0020
  672MOL0     H88647   5.624   6.031   3.971  0.2871 -0.6828 -0.1854
  672MOL0     H88648   5.474   5.973   4.043  0.1194  0.4633  1.3222
  672MOL0     H88649   5.601   5.930   4.257 -2.5413  1.4301  0.1310
  672MOL0     H88650   5.636   6.086   4.197 -2.5081  0.3563 -4.4423
  672MOL0     H88651   5.835   5.854   4.155  0.3584 -1.7101  1.3206
  672MOL0     H88652   5.834   5.956   4.305  3.3128  1.2326 -1.3198
  672MOL0     H88653   5.861   6.153   4.149 -1.0509  0.1538 -1.2886
  672MOL0     H88654   5.992   6.044   4.194  2.5009 -0.4340 -1.6481
  672MOL0     H88655   5.827   6.031   3.920 -1.7145 -0.7139  1.1903
  672MOL0     H88656   5.947   5.918   3.975  0.3987  0.4405 -2.1885
  672MOL0     H88657   6.043   6.045   3.710  2.8926 -0.5421 -0.8141
  672MOL0     H88658   6.208   6.207   3.594 -0.9861  2.7985 -0.4771
  672MOL0     H88659   6.356   6.196   3.687 -0.5078  0.6628 -2.2817
  672MOL0     H88660   6.334   6.402   3.586 -1.7543 -0.7705 -0.2613
  672MOL0     H88661   6.366   6.419   3.754  1.3420  1.2796 -0.1385
  672MOL0     H88662   6.157   6.463   3.822  2.6935  0.9204  0.5782
  672MOL0     H88663   6.196   6.591   3.725  0.5610 -0.1988 -1.8290
  672MOL0     H88664   5.946   6.528   3.686  0.5626 -0.9541  0.6434
  672MOL0     H88665   5.988   6.372   3.653  2.6852 -0.0689  3.1749
  672MOL0     H88666   6.021   6.735   3.618 -0.5716  1.7805 -0.2560
  672MOL0     H88667   5.897   6.919   3.532  1.6323  0.1319 -0.6871
  672MOL0     H88668   5.472   7.093   3.415 -1.0419 -0.2414 -1.3046
  672MOL0     H88669   5.383   7.324   3.417  0.8171 -1.5977  1.5819
  672MOL0     H88670   5.613   7.683   3.378 -0.0829 -0.2479  2.0259
  672MOL0     H88671   5.455   7.749   3.350  0.9508  0.0093  2.6465
  672MOL0     H88672   5.448   7.692   3.102 -1.7194  1.6836  0.9830
  672MOL0     H88673   5.618   7.643   3.120  0.4902 -0.3550  0.3961
  672MOL0     H88674   5.506   7.910   3.186  3.1036  1.5222  1.0739
  672MOL0     H88675   5.562   7.870   3.025 -0.9546  0.5662 -0.5561
  672MOL0     H88676   5.757   7.831   3.258 -1.3856  2.0653  1.5989
  672MOL0     H88677   5.790   7.847   3.080 -2.4137  3.7282 -2.9553
  672MOL0     H88678   5.862   8.035   3.222  1.2244  0.7363 -3.0768
  672MOL0     H88679   5.709   8.053   3.300  1.1578 -2.7294  1.7076
  672MOL0     H88680   5.611   8.133   3.091 -0.1495  0.4531  0.1822
  672MOL0     H88681   5.733   8.066   2.988  1.7365  2.5361 -0.5646
  672MOL0     H88682   5.773   8.308   3.175 -2.8649  0.0577 -0.3183
  672MOL0     H88683   5.907   8.207   3.117 -0.7482  0.9238  2.9368
  672MOL0     H88684   5.705   8.345   2.919  2.0228 -0.8885 -4.3797
  672MOL0     H88685   5.868   8.278   2.894  1.1963  2.5525  0.1977
  672MOL0     H88686   5.737   7.493   3.267 -3.1014  0.7850  0.5109
  672MOL0     H88687   5.850   7.271   3.287  0.0264  0.2891  1.6926
  672MOL0     H88688   5.817   6.709   3.164  3.2696  0.2670 -1.3103
  672MOL0     H88689   5.919   6.523   3.259 -2.0828  4.1760 -4.3143
  672MOL0     H88690   5.766   5.563   4.050  1.9672  1.3754 -0.5741
  672MOL0     H88691   5.870   5.343   4.135  0.0324 -1.5537  0.6281
  672MOL0     H88692   6.210   5.001   4.205  2.5107 -1.6393  0.8344
  672MOL0     H88693   6.333   4.801   4.160  0.9050 -5.1766 -0.9617
  672MOL0     H88694   6.304   4.564   3.787 -0.2316  1.3500  0.8910
  672MOL0     H88695   6.161   4.505   3.878 -0.0525  1.1425  1.3476
  672MOL0     H88696   6.325   4.372   4.023  3.2832  2.1222  1.6319
  672MOL0     H88697   6.320   4.327   3.846  2.2219  0.8718 -1.7205
  672MOL0     H88698   6.513   4.511   3.985  0.6633 -1.1112 -0.0711
  672MOL0     H88699   6.538   4.433   3.826  4.9242 -2.2808  1.4633
  672MOL0     H88700   6.554   4.321   4.104  2.0369  0.9884  0.9173
  672MOL0     H88701   6.531   4.218   3.957 -0.0976 -0.9054  0.9973
  672MOL0     H88702   6.938   4.386   3.943  0.4568 -1.3310 -0.5327
  672MOL0     H88703   6.057   4.672   3.874  1.1336 -0.4009 -1.7474
  672MOL0     H88704   5.945   4.905   3.884 -0.9933  0.4172  1.0123
  673MOL0     O88705   4.010   0.848   0.918  0.1635  0.9992  0.0901
  673MOL0     C88706   4.064   0.825   0.811 -0.3125 -0.3798 -0.1871
  673MOL0     O88707   4.036   0.867   0.681  0.3260 -0.4232 -0.4800
  673MOL0     C88708   3.938   0.967   0.671 -0.4605  0.2707 -0.0456
  673MOL0     C88709   3.846   0.957   0.560 -0.3572  0.9160  0.6488
  673MOL0     C88710   3.739   1.042   0.551  0.4547  0.1012 -0.7068
  673MOL0     C88711   3.734   1.151   0.643  1.5134 -0.1997  0.1576
  673MOL0     O88712   3.644   1.249   0.610 -0.4049  0.4515  0.1693
  673MOL0     C88713   3.542   1.268   0.712 -0.6264 -0.4623 -0.0620
  673MOL0     C88714   3.430   1.362   0.669 -0.0474  0.8413  0.0238
  673MOL0     C88715   3.334   1.300   0.567  0.4262  0.4073  0.1233
  673MOL0     C88716   3.214   1.404   0.539  0.3306 -0.0391  0.0713
  673MOL0     C88717   3.095   1.325   0.471 -0.1450  0.5964  0.0636
  673MOL0     C88718   2.966   1.406   0.486 -0.2992 -0.4779  0.4375
  673MOL0     C88719   2.845   1.329   0.421  0.9178  0.2091 -0.2862
  673MOL0     C88720   2.732   1.430   0.409  0.1421 -0.3722  0.5853
  673MOL0     N88721   2.741   1.529   0.299  0.3121 -1.1431 -0.3886
  673MOL0     C88722   2.631   1.611   0.282  0.5169 -0.3395  0.0344
  673MOL0     C88723   2.652   1.674   0.164 -0.1641  0.3505  0.9321
  673MOL0     C88724   2.562   1.784   0.101  0.0723  0.0821  1.1227
  673MOL0     C88725   2.520   1.888   0.198 -0.2510 -0.5400 -0.2613
  673MOL0     C88726   2.445   1.986   0.117 -0.0183  0.4174 -0.3414
  673MOL0     C88727   2.383   2.086   0.221 -0.0230  0.9457 -0.4829
  673MOL0     O88728   2.305   2.181   0.146  1.1897  0.4173 -0.2558
  673MOL0     C88729   2.194   2.223   0.228 -0.5177  0.0224  0.6603
  673MOL0     C88730   2.216   2.325   0.320  0.2864  0.3531 -1.0930
  673MOL0     C88731   2.116   2.372   0.408 -1.4335  0.8701 -0.9074
  673MOL0     C88732   1.984   2.328   0.387 -0.0898 -0.3572  0.8468
  673MOL0     C88733   1.866   2.375   0.463 -0.9854 -0.7917  0.1524
  673MOL0     O88734   1.769   2.276   0.485 -0.5814 -0.2408 -0.2590
  673MOL0     C88735   1.651   2.301   0.551 -0.3860  0.3717  1.0868
  673MOL0     C88736   1.644   2.385   0.659  0.2276  0.6722 -0.3616
  673MOL0     C88737   1.527   2.404   0.739  0.2384  0.1751 -0.6698
  673MOL0     C88738   1.409   2.336   0.690 -0.1393  1.1574 -0.0846
  673MOL0     O88739   1.283   2.357   0.724  0.4069  0.7889 -0.0250
  673MOL0     C88740   1.248   2.456   0.817  0.4700  0.5347 -0.3390
  673MOL0     C88741   1.106   2.436   0.877  0.8058  0.1944  0.0744
  673MOL0     C88742   0.999   2.441   0.781 -0.0580  0.9641  0.4618
  673MOL0     C88743   0.862   2.403   0.829  0.0010 -0.1903 -0.5809
  673MOL0     C88744   0.813   2.513   0.929  0.6460 -0.2701  0.6138
  673MOL0     C88745   0.669   2.477   0.966 -0.8749  1.0293  0.4713
  673MOL0     C88746   0.618   2.580   1.068 -0.5030 -0.2194  0.4465
  673MOL0     C88747   0.498   2.507   1.128  0.4241 -0.2714 -0.3262
  673MOL0    Cl88748   0.380   2.631   1.193 -0.5418  0.4767  0.2073
  673MOL0     C88749   1.418   2.257   0.573  0.5300  0.3311  0.0584
  673MOL0     C88750   1.533   2.233   0.508  0.0150 -0.1460  0.3762
  673MOL0     O88751   1.856   2.495   0.490  0.0972  0.2572 -0.0807
  673MOL0     C88752   1.963   2.233   0.281  0.4213  0.7238  0.4217
  673MOL0     C88753   2.067   2.178   0.206 -0.4401 -0.5638  0.5411
  673MOL0     N88754   2.773   1.640   0.121  0.3092  0.6624 -0.0000
  673MOL0     N88755   2.822   1.557   0.201  0.1399 -0.1372  0.2779
  673MOL0     C88756   3.818   1.156   0.755 -0.1424 -0.0704 -0.3923
  673MOL0     C88757   3.919   1.068   0.767  0.1126  0.2150  0.2432
  673MOL0     C88758   4.174   0.736   0.815 -0.1206 -1.1492  0.4659
  673MOL0     C88759   4.245   0.703   0.932  0.5247 -0.9568  0.2875
  673MOL0     C88760   4.333   0.599   0.936  0.7481 -0.5109 -0.0349
  673MOL0     C88761   4.367   0.520   0.826  0.6010  0.1033 -0.9503
  673MOL0     O88762   4.467   0.425   0.851 -0.1263 -0.1886  0.6241
  673MOL0     C88763   4.541   0.368   0.740  0.3661  0.3396  0.9023
  673MOL0     C88764   4.664   0.305   0.809  0.3096 -0.0310  0.7239
  673MOL0     C88765   4.662   0.148   0.814 -0.8541  0.7444 -0.2807
  673MOL0     C88766   4.548   0.112   0.908 -0.3140 -0.0053  0.2169
  673MOL0     C88767   4.568  -0.023   0.947  0.3870  0.9856  0.6194
  673MOL0     C88768   4.589  -0.149   0.951 -0.0002 -0.5900 -0.1286
  673MOL0     C88769   4.304   0.551   0.710 -0.7478 -0.2724  0.4388
  673MOL0     C88770   4.215   0.654   0.706  0.4171 -0.7692  1.2782
  673MOL0     H88771   3.861   0.877   0.488 -0.9072  1.0172  0.4179
  673MOL0     H88772   3.667   1.039   0.470 -0.6116  0.5409  0.1800
  673MOL0     H88773   3.586   1.319   0.798  0.1254 -1.3091  0.0649
  673MOL0     H88774   3.500   1.171   0.739 -1.8410 -0.3356 -1.3531
  673MOL0     H88775   3.478   1.446   0.619 -0.8084 -0.2208 -2.6838
  673MOL0     H88776   3.382   1.400   0.760  0.5330  0.0363  0.6806
  673MOL0     H88777   3.306   1.199   0.599  0.8774  0.0502 -0.5664
  673MOL0     H88778   3.398   1.296   0.478  0.2207 -1.3672  0.0176
  673MOL0     H88779   3.188   1.454   0.632  1.7354 -0.5397  0.7571
  673MOL0     H88780   3.236   1.485   0.468 -3.3907  1.4609  0.4286
  673MOL0     H88781   3.089   1.239   0.539 -1.3074  2.4228  2.4307
  673MOL0     H88782   3.121   1.277   0.377  0.4169 -0.3285  0.6763
  673MOL0     H88783   2.975   1.500   0.430 -0.6946 -1.0096 -0.5375
  673MOL0     H88784   2.950   1.419   0.594  2.7108  0.1444  0.9026
  673MOL0     H88785   2.865   1.291   0.320 -1.0868 -0.6283 -0.4226
  673MOL0     H88786   2.806   1.252   0.489 -0.9326 -0.0282 -1.5319
  673MOL0     H88787   2.735   1.482   0.505 -0.6708 -1.0192  0.9672
  673MOL0     H88788   2.638   1.375   0.410  1.0922 -2.0469  0.5227
  673MOL0     H88789   2.552   1.635   0.353  3.3779  0.7651  3.1243
  673MOL0     H88790   2.475   1.732   0.060  0.6898 -0.7096  0.7764
  673MOL0     H88791   2.621   1.828   0.020 -3.0887  1.9281 -0.3278
  673MOL0     H88792   2.603   1.929   0.257  0.5413  0.1485 -1.7934
  673MOL0     H88793   2.450   1.846   0.270  1.1015 -0.7063  1.0111
  673MOL0     H88794   2.516   2.026   0.044  1.2699  2.4855  1.9160
  673MOL0     H88795   2.362   1.938   0.063 -1.5132  0.0430  2.1239
  673MOL0     H88796   2.475   2.134   0.256  1.0231  0.7596 -2.7671
  673MOL0     H88797   2.332   2.036   0.304  4.7446 -1.3776  1.4434
  673MOL0     H88798   2.314   2.372   0.322 -0.7498  2.7418  2.3926
  673MOL0     H88799   2.153   2.443   0.481  3.0605  0.6731 -2.6563
  673MOL0     H88800   1.721   2.454   0.694 -0.7291 -0.2570  4.2971
  673MOL0     H88801   1.518   2.488   0.806 -1.4631 -0.9322  0.5703
  673MOL0     H88802   1.261   2.547   0.758 -0.3200  0.7566 -0.1872
  673MOL0     H88803   1.320   2.449   0.899  1.4526  1.7749 -1.0571
  673MOL0     H88804   1.092   2.520   0.946  2.1323  0.3111  0.2293
  673MOL0     H88805   1.100   2.348   0.941 -0.5247 -1.1886 -1.8435
  673MOL0     H88806   1.016   2.365   0.705  0.0655 -0.1216  1.5451
  673MOL0     H88807   1.000   2.543   0.740  1.7551  0.9064  0.2973
  673MOL0     H88808   0.790   2.395   0.747 -0.2383 -0.7579 -0.3184
  673MOL0     H88809   0.876   2.306   0.878  3.3146  1.4738  2.2404
  673MOL0     H88810   0.807   2.613   0.885 -0.7652 -0.9758 -0.9132
  673MOL0     H88811   0.872   2.521   1.021  0.3690  3.0752  0.6271
  673MOL0     H88812   0.685   2.382   1.017  1.1640  0.7538 -0.5422
  673MOL0     H88813   0.598   2.472   0.883 -2.1557 -0.7404  1.6169
  673MOL0     H88814   0.689   2.584   1.151 -2.4528 -0.9855  2.2468
  673MOL0     H88815   0.600   2.676   1.019 -2.7750  0.0818  1.6890
  673MOL0     H88816   0.523   2.437   1.208  1.9511 -2.9092 -2.8917
  673MOL0     H88817   0.442   2.451   1.052 -0.0145 -0.3744  0.0691
  673MOL0     H88818   1.329   2.202   0.544  0.5633  0.9164 -1.2452
  673MOL0     H88819   1.532   2.173   0.418 -0.6238  0.0926  0.2135
  673MOL0     H88820   1.865   2.197   0.255  1.0506 -0.1864 -0.7509
  673MOL0     H88821   2.059   2.102   0.129 -0.4900 -0.1265  0.1082
  673MOL0     H88822   3.809   1.234   0.830  5.1506  0.0507  0.4932
  673MOL0     H88823   3.981   1.080   0.855 -2.7049  1.3893  2.2136
  673MOL0     H88824   4.228   0.749   1.029  1.8430  0.2934 -0.0377
  673MOL0     H88825   4.359   0.583   1.040  0.1483 -0.7342  0.0831
  673MOL0     H88826   4.575   0.441   0.666  0.4499 -1.9537 -1.4390
  673MOL0     H88827   4.492   0.293   0.677  1.4785  2.4389 -2.7671
  673MOL0     H88828   4.755   0.332   0.756  1.0323 -3.0335  0.2225
  673MOL0     H88829   4.671   0.351   0.908 -2.3129 -1.7459  1.8279
  673MOL0     H88830   4.756   0.116   0.859 -2.7161 -5.2749  0.2110
  673MOL0     H88831   4.668   0.105   0.714  2.2500 -1.5746  0.7371
  673MOL0     H88832   4.547   0.183   0.991 -0.6012  0.3054 -0.0504
  673MOL0     H88833   4.455   0.121   0.851 -0.8245 -2.0839  0.6394
  673MOL0     H88834   4.596  -0.256   0.947  1.5764 -0.4697 -2.2242
  673MOL0     H88835   4.332   0.494   0.623  3.6085  2.0174  0.0652
  673MOL0     H88836   4.175   0.672   0.606 -0.0874  0.9470  1.7521
  674MOL0     O88837  10.989   5.315   8.588 -0.2190  0.7498 -0.5461
  674MOL0     C88838  11.067   5.307   8.681 -0.5750 -0.9414  0.5348
  674MOL0     O88839  11.050   5.236   8.795 -0.0133 -0.0675 -0.1096
  674MOL0     C88840  10.944   5.162   8.828  0.6369 -0.8371  0.1691
  674MOL0     C88841  10.838   5.120   8.748 -0.0051 -0.2479  0.0902
  674MOL0     C88842  10.730   5.043   8.799  0.4887 -0.7974 -0.0663
  674MOL0     C88843  10.740   4.994   8.925  0.2081  0.2497  0.7400
  674MOL0     O88844  10.648   4.913   8.989 -0.1656  0.2649  0.2445
  674MOL0     C88845  10.613   4.794   8.919 -0.4101  0.1086  0.6588
  674MOL0     C88846  10.464   4.771   8.870 -0.6820  0.1677 -0.0816
  674MOL0     C88847  10.365   4.752   8.977  0.1944 -0.2651 -0.2417
  674MOL0     C88848  10.217   4.725   8.928  0.2074  1.0376  0.0988
  674MOL0     C88849  10.116   4.696   9.041  0.5468  0.2735 -0.9637
  674MOL0     C88850   9.978   4.671   8.972 -0.2865 -0.7980  0.1891
  674MOL0     C88851   9.883   4.602   9.058  0.0603 -0.5274 -0.2609
  674MOL0     C88852   9.781   4.526   8.972  1.0922  0.1198 -0.4457
  674MOL0     N88853   9.845   4.416   8.891  0.0798 -0.3142  0.0468
  674MOL0     C88854   9.898   4.292   8.924  0.0728  0.0982 -0.5328
  674MOL0     C88855   9.946   4.243   8.811  0.3081  0.1829 -0.0848
  674MOL0     C88856  10.009   4.106   8.803  0.4970  0.9264 -0.2443
  674MOL0     C88857   9.904   3.999   8.836  0.3049 -0.3520  0.2879
  674MOL0     C88858   9.976   3.864   8.829 -0.0525 -0.0366  0.7479
  674MOL0     C88859   9.878   3.755   8.879  0.5999  0.4591 -0.1906
  674MOL0     O88860   9.766   3.774   8.793 -0.1916  0.5068 -0.5379
  674MOL0     C88861   9.700   3.655   8.751 -0.1489 -0.7010  0.0739
  674MOL0     C88862   9.758   3.560   8.661 -0.5090 -0.0909 -0.2691
  674MOL0     C88863   9.689   3.441   8.626  0.2102  0.0747  0.6897
  674MOL0     C88864   9.556   3.423   8.675 -0.1232  0.0171 -0.5823
  674MOL0     C88865   9.475   3.292   8.650 -0.1379  0.3447  1.4104
  674MOL0     O88866   9.346   3.281   8.691  0.2602 -0.1020 -0.5392
  674MOL0     C88867   9.280   3.161   8.667 -0.1107  0.8483 -0.5170
  674MOL0     C88868   9.340   3.038   8.693 -0.6362  0.7520 -0.0546
  674MOL0     C88869   9.279   2.916   8.674 -0.1756  0.1279  0.0468
  674MOL0     C88870   9.149   2.914   8.625 -1.1295 -0.8760  0.1183
  674MOL0     O88871   9.087   2.793   8.630  0.1412  0.1944 -0.5076
  674MOL0     C88872   8.987   2.779   8.529  0.6898  0.4028 -1.3060
  674MOL0     C88873   8.960   2.632   8.488 -0.2353  0.2184  1.0358
  674MOL0     C88874   8.901   2.563   8.608 -0.2881 -0.2034 -0.3418
  674MOL0     C88875   8.906   2.420   8.583  0.9784  0.3665  0.7103
  674MOL0     C88876   8.888   2.337   8.705 -0.5890  0.3029  0.5786
  674MOL0     C88877   8.743   2.361   8.773 -0.8452 -0.1616 -0.0111
  674MOL0     C88878   8.728   2.265   8.891  0.4600  0.0037  0.4232
  674MOL0     C88879   8.778   2.321   9.021  0.0916  0.8343 -0.7609
  674MOL0    Cl88880   8.950   2.315   9.041  0.1558  0.2077 -0.0346
  674MOL0     C88881   9.088   3.038   8.600 -0.3087  1.0326 -0.1082
  674MOL0     C88882   9.151   3.161   8.621 -0.6884 -0.0054  0.2170
  674MOL0     O88883   9.535   3.217   8.569 -0.3126  0.4328 -0.7748
  674MOL0     C88884   9.493   3.519   8.760  0.1999 -0.2539  0.5503
  674MOL0     C88885   9.569   3.635   8.791  0.0494 -1.0472 -0.4965
  674MOL0     N88886   9.923   4.325   8.704 -0.5325  0.5700 -0.1995
  674MOL0     N88887   9.840   4.414   8.753 -0.1126 -0.7364  0.4247
  674MOL0     C88888  10.837   5.036   9.019 -0.1165 -0.9772  0.3268
  674MOL0     C88889  10.938   5.124   8.968  0.1658 -0.5669 -0.4202
  674MOL0     C88890  11.205   5.379   8.668  0.8705 -0.3091  0.0114
  674MOL0     C88891  11.236   5.464   8.564  0.2983  0.2045 -0.3523
  674MOL0     C88892  11.355   5.543   8.565 -0.0349  1.7984 -0.3048
  674MOL0     C88893  11.446   5.519   8.664  0.5719 -0.1593  0.7476
  674MOL0     O88894  11.554   5.601   8.651 -0.5239  0.3965  0.0484
  674MOL0     C88895  11.669   5.573   8.731  0.3260 -0.8024  0.0643
  674MOL0     C88896  11.790   5.624   8.668  0.3766 -0.0470 -0.1669
  674MOL0     C88897  11.895   5.656   8.780 -0.0176  0.0850  0.6001
  674MOL0     C88898  12.032   5.692   8.720  1.1002 -1.1737  0.6072
  674MOL0     C88899  12.087   5.809   8.789  1.0144  0.3880  0.7610
  674MOL0     C88900  12.107   5.919   8.840  0.8566  0.4481  0.1909
  674MOL0     C88901  11.419   5.424   8.764 -0.0536  0.0551 -0.3487
  674MOL0     C88902  11.299   5.369   8.770  0.2385  0.0589  0.1464
  674MOL0     H88903  10.827   5.160   8.647 -0.2001  0.1564  0.2715
  674MOL0     H88904  10.647   5.028   8.731  1.4916  0.7469 -1.7162
  674MOL0     H88905  10.638   4.712   8.986 -3.2563 -0.3214  1.3352
  674MOL0     H88906  10.672   4.787   8.827 -1.0891 -0.3074  0.2458
  674MOL0     H88907  10.467   4.684   8.803  2.9805  1.5383 -2.0028
  674MOL0     H88908  10.443   4.858   8.807  1.5293  2.3142  1.9312
  674MOL0     H88909  10.369   4.845   9.034 -0.5321  1.2818 -2.5759
  674MOL0     H88910  10.387   4.661   9.034 -0.6644  0.2089  0.8936
  674MOL0     H88911  10.179   4.815   8.879  0.1943  0.8277 -0.2836
  674MOL0     H88912  10.227   4.645   8.854  2.3600 -0.1982  1.6182
  674MOL0     H88913  10.127   4.780   9.111 -1.3070  0.9511 -1.4195
  674MOL0     H88914  10.139   4.604   9.095  3.4035 -0.0834 -2.5639
  674MOL0     H88915  10.000   4.607   8.887  0.3686  0.8575 -0.9409
  674MOL0     H88916   9.937   4.763   8.929 -0.1334  0.0334  1.7423
  674MOL0     H88917   9.938   4.531   9.121  0.6956  0.5431  0.4221
  674MOL0     H88918   9.840   4.680   9.121 -1.9341 -1.5740 -0.2588
  674MOL0     H88919   9.723   4.597   8.912 -1.3756 -1.1930  0.3008
  674MOL0     H88920   9.703   4.475   9.028  0.0977 -0.6181 -2.3822
  674MOL0     H88921   9.890   4.251   9.024  1.1188  0.3520 -0.3283
  674MOL0     H88922  10.082   4.088   8.882 -1.8682 -0.7986  1.6676
  674MOL0     H88923  10.060   4.079   8.709 -1.1018 -2.2511 -0.3348
  674MOL0     H88924   9.818   4.007   8.768 -1.3754 -1.8482  2.1205
  674MOL0     H88925   9.869   4.030   8.935 -2.2196  2.0501 -1.2033
  674MOL0     H88926  10.012   3.838   8.729  4.5560 -1.4622  2.5490
  674MOL0     H88927  10.069   3.866   8.885 -0.0276 -0.7932  0.7414
  674MOL0     H88928   9.846   3.779   8.981 -0.4846  0.4630 -0.5242
  674MOL0     H88929   9.929   3.659   8.888  4.0295  2.2570  2.1384
  674MOL0     H88930   9.856   3.578   8.618 -0.5174  1.9218  0.4591
  674MOL0     H88931   9.740   3.373   8.559  2.1100  1.3131  0.8031
  674MOL0     H88932   9.436   3.027   8.742 -1.3518  0.1687  1.2920
  674MOL0     H88933   9.344   2.831   8.692  0.8236  0.1153 -2.9708
  674MOL0     H88934   9.031   2.829   8.443 -0.0962  2.0619 -0.7889
  674MOL0     H88935   8.892   2.826   8.557 -0.1431 -3.0565  2.6999
  674MOL0     H88936   9.055   2.589   8.457 -0.1953 -1.4110  3.2038
  674MOL0     H88937   8.895   2.629   8.400  2.9085  0.5648 -1.4704
  674MOL0     H88938   8.800   2.602   8.618 -0.7089 -1.0020 -1.3863
  674MOL0     H88939   8.957   2.588   8.699 -0.2190  0.1254 -0.4761
  674MOL0     H88940   8.827   2.403   8.509  3.4988 -3.2952 -1.5131
  674MOL0     H88941   9.000   2.392   8.533 -0.4057  0.8158 -2.3816
  674MOL0     H88942   8.970   2.358   8.775  0.4204  0.4667 -0.6211
  674MOL0     H88943   8.903   2.235   8.670 -0.8191  0.7997 -1.0529
  674MOL0     H88944   8.661   2.370   8.701 -2.5330 -3.4107  1.3173
  674MOL0     H88945   8.757   2.463   8.811  3.3905 -0.0686 -1.3895
  674MOL0     H88946   8.619   2.264   8.902 -0.0753 -1.7013 -3.5834
  674MOL0     H88947   8.754   2.160   8.881 -0.6632 -0.0469 -5.1307
  674MOL0     H88948   8.742   2.262   9.105 -0.5179 -0.4735 -1.8974
  674MOL0     H88949   8.754   2.428   9.028  4.0656  1.8335  0.1552
  674MOL0     H88950   8.992   3.027   8.552 -0.4069 -3.6860  0.6913
  674MOL0     H88951   9.100   3.255   8.604  0.4369  0.8156  1.2073
  674MOL0     H88952   9.391   3.514   8.796 -1.5902  1.3392 -3.6591
  674MOL0     H88953   9.514   3.699   8.860 -1.0245 -2.9652  0.5254
  674MOL0     H88954  10.839   4.998   9.121  2.2778 -0.8822  0.3862
  674MOL0     H88955  11.016   5.156   9.035 -0.7979  1.3713 -0.1335
  674MOL0     H88956  11.158   5.481   8.490  0.6106  1.3837 -0.4340
  674MOL0     H88957  11.371   5.613   8.484 -1.6430  1.8137 -0.6442
  674MOL0     H88958  11.676   5.464   8.743 -3.3965 -1.3782 -1.5620
  674MOL0     H88959  11.658   5.596   8.838 -1.2657 -0.4909 -0.1423
  674MOL0     H88960  11.819   5.560   8.584 -0.9038 -2.2748  0.9952
  674MOL0     H88961  11.761   5.721   8.626  2.5595 -0.0567 -1.8186
  674MOL0     H88962  11.910   5.565   8.839  1.4124  1.7575  2.9981
  674MOL0     H88963  11.842   5.729   8.842 -0.8360  0.7762 -0.8696
  674MOL0     H88964  12.097   5.605   8.728  0.1391 -2.0817 -1.0033
  674MOL0     H88965  12.019   5.713   8.613  0.8354 -2.7825  0.3006
  674MOL0     H88966  12.131   6.000   8.906 -1.9232  0.9159  0.7644
  674MOL0     H88967  11.485   5.407   8.847 -0.8613  1.9035  0.7344
  674MOL0     H88968  11.284   5.323   8.867  1.5310  1.0554  0.8407
  675MOL0     O88969   0.389   5.916   4.303  0.1435 -0.5058 -0.2017
  675MOL0     C88970   0.412   5.841   4.398 -0.3437  0.7027  1.2254
  675MOL0     O88971   0.325   5.754   4.455 -0.7735 -0.5848  0.6196
  675MOL0     C88972   0.198   5.752   4.403 -0.9198 -0.3395 -0.2476
  675MOL0     C88973   0.168   5.647   4.322  0.1092  0.8748  0.0819
  675MOL0     C88974   0.040   5.622   4.280  0.4148 -1.1908 -0.0159
  675MOL0     C88975  -0.072   5.710   4.308 -0.3686  0.1014  0.1700
  675MOL0     O88976  -0.199   5.706   4.267  0.2175  0.1658 -0.2233
  675MOL0     C88977  -0.227   5.643   4.147  1.6726  0.2154 -0.0558
  675MOL0     C88978  -0.356   5.688   4.072 -0.4041 -1.3265 -1.0902
  675MOL0     C88979  -0.362   5.618   3.931  0.1313 -0.7910 -0.2401
  675MOL0     C88980  -0.469   5.691   3.850 -0.3136  0.7898  0.4170
  675MOL0     C88981  -0.440   5.673   3.693 -0.3986 -0.3293 -0.2432
  675MOL0     C88982  -0.554   5.751   3.616  0.7336 -0.1767  0.7628
  675MOL0     C88983  -0.559   5.712   3.471  0.0164 -0.5389  0.7483
  675MOL0     C88984  -0.661   5.788   3.384 -0.1492  0.3764  0.5651
  675MOL0     N88985  -0.792   5.755   3.405  0.8358 -0.2038  0.5043
  675MOL0     C88986  -0.867   5.793   3.509  0.9972 -0.0726 -0.3751
  675MOL0     C88987  -0.997   5.752   3.473  0.6016 -0.1755 -0.2850
  675MOL0     C88988  -1.121   5.771   3.557 -0.3301 -0.2550 -0.2365
  675MOL0     C88989  -1.237   5.674   3.505 -0.4033  0.2150 -0.5731
  675MOL0     C88990  -1.213   5.534   3.560  0.7129 -0.8567 -0.5643
  675MOL0     C88991  -1.310   5.421   3.507 -0.4257  0.0172 -0.5882
  675MOL0     O88992  -1.449   5.459   3.519 -0.7934 -0.1132  0.1213
  675MOL0     C88993  -1.546   5.378   3.457 -0.5525  0.0153  0.1238
  675MOL0     C88994  -1.516   5.271   3.370 -0.0857 -0.4623 -0.5496
  675MOL0     C88995  -1.615   5.214   3.286 -0.1759 -0.1484 -0.1331
  675MOL0     C88996  -1.745   5.249   3.319  0.1910 -0.1143 -0.3233
  675MOL0     C88997  -1.865   5.184   3.252  0.7473 -0.3665  1.0401
  675MOL0     O88998  -1.989   5.228   3.285 -0.0801  0.2267 -0.0525
  675MOL0     C88999  -2.100   5.157   3.238 -0.5487 -0.0048 -1.0887
  675MOL0     C89000  -2.118   5.096   3.111  0.4709  0.1100  0.6608
  675MOL0     C89001  -2.245   5.063   3.070  0.2171  0.6637  0.9715
  675MOL0     C89002  -2.354   5.083   3.152 -0.1905 -0.2935 -0.3762
  675MOL0     O89003  -2.487   5.077   3.115 -1.2203  0.4724  0.5394
  675MOL0     C89004  -2.524   4.982   3.007 -0.4883  0.6022 -0.5966
  675MOL0     C89005  -2.676   4.986   2.977 -0.8177 -0.0778  0.0836
  675MOL0     C89006  -2.699   5.087   2.864  0.6796 -0.3538  0.5505
  675MOL0     C89007  -2.849   5.088   2.824  0.0225 -0.1476 -0.4591
  675MOL0     C89008  -2.888   5.200   2.725 -0.5614 -0.4995  0.2052
  675MOL0     C89009  -2.830   5.189   2.584 -0.3734 -0.3768  0.1419
  675MOL0     C89010  -2.886   5.304   2.492 -0.1371 -0.1664  0.7229
  675MOL0     C89011  -2.803   5.307   2.358 -0.7613 -0.0211 -0.8966
  675MOL0    Cl89012  -2.863   5.165   2.270 -0.3093  0.2585 -0.3365
  675MOL0     C89013  -2.333   5.134   3.280 -0.9439 -0.1189  0.3703
  675MOL0     C89014  -2.206   5.173   3.323  0.6376  0.0827 -0.1698
  675MOL0     O89015  -1.840   5.095   3.173  0.2611 -0.1531 -0.2763
  675MOL0     C89016  -1.772   5.345   3.421  0.2816  0.0473  0.9770
  675MOL0     C89017  -1.674   5.423   3.481 -1.2375  0.7053  0.2493
  675MOL0     N89018  -0.986   5.682   3.350  0.6762 -0.2616 -0.3691
  675MOL0     N89019  -0.865   5.689   3.310  0.2225  1.0367 -0.4612
  675MOL0     C89020  -0.041   5.809   4.404  0.8048  0.2489  1.0234
  675MOL0     C89021   0.088   5.828   4.458 -0.6988 -0.2265 -0.3104
  675MOL0     C89022   0.543   5.874   4.462 -0.1451 -0.4764  0.8133
  675MOL0     C89023   0.584   5.830   4.588 -0.2390  0.2479  0.5458
  675MOL0     C89024   0.708   5.873   4.637 -0.6085  0.2032 -0.0096
  675MOL0     C89025   0.798   5.958   4.573 -0.2410  0.2374 -0.4999
  675MOL0     O89026   0.921   6.007   4.622  0.2641  0.4910 -0.1126
  675MOL0     C89027   0.963   5.975   4.756 -0.5985  0.2146  0.1741
  675MOL0     C89028   1.079   6.055   4.820 -0.1968  0.0368 -0.0439
  675MOL0     C89029   1.217   5.993   4.777 -0.1560 -0.0841 -0.4235
  675MOL0     C89030   1.248   6.037   4.626  0.6516  0.4616 -0.4346
  675MOL0     C89031   1.338   5.933   4.570  0.0801  0.4423 -0.2302
  675MOL0     C89032   1.425   5.850   4.529 -1.0714 -0.6747 -0.3508
  675MOL0     C89033   0.751   6.005   4.450 -0.0023  0.4056  0.6543
  675MOL0     C89034   0.629   5.964   4.397  0.7107  0.3607  0.3611
  675MOL0     H89035   0.253   5.584   4.301 -1.0130 -1.1518  1.2374
  675MOL0     H89036   0.028   5.549   4.201  2.2669  0.2737 -1.7811
  675MOL0     H89037  -0.228   5.535   4.165  1.6845  0.2672  0.2492
  675MOL0     H89038  -0.136   5.662   4.089  3.7536  0.1616  2.9537
  675MOL0     H89039  -0.352   5.797   4.076  1.7162 -1.3796  1.8736
  675MOL0     H89040  -0.447   5.661   4.126  0.9981 -0.3460  2.0018
  675MOL0     H89041  -0.388   5.513   3.943  5.5492 -2.3510  0.4923
  675MOL0     H89042  -0.263   5.617   3.884 -0.6387  1.5041 -2.1088
  675MOL0     H89043  -0.567   5.653   3.881  0.2016 -3.4519 -2.2823
  675MOL0     H89044  -0.462   5.800   3.860 -0.2214  0.9156 -0.9069
  675MOL0     H89045  -0.438   5.566   3.668  1.4437 -0.4280  0.1746
  675MOL0     H89046  -0.341   5.715   3.674 -0.5721  0.4026  0.4285
  675MOL0     H89047  -0.532   5.858   3.619 -0.3972  0.1382 -1.0320
  675MOL0     H89048  -0.649   5.727   3.665  0.9803 -3.4124 -0.1714
  675MOL0     H89049  -0.458   5.733   3.435 -0.4684 -0.4902 -0.6378
  675MOL0     H89050  -0.575   5.604   3.465 -0.8157 -0.3837 -0.0674
  675MOL0     H89051  -0.639   5.780   3.277  2.9491 -0.6302  1.1634
  675MOL0     H89052  -0.657   5.896   3.398 -1.0566  1.0808 -3.4169
  675MOL0     H89053  -0.835   5.833   3.604 -0.0291  1.5736 -0.6790
  675MOL0     H89054  -1.148   5.875   3.577 -1.7900 -1.1139  2.9148
  675MOL0     H89055  -1.086   5.731   3.652  0.9902 -0.7960 -0.9208
  675MOL0     H89056  -1.232   5.673   3.396 -2.6524 -0.6575 -0.7224
  675MOL0     H89057  -1.337   5.707   3.534  0.9698  2.0878  2.5852
  675MOL0     H89058  -1.116   5.509   3.517 -0.5496 -2.6645 -2.5727
  675MOL0     H89059  -1.209   5.530   3.669 -1.9681 -1.0158 -0.4001
  675MOL0     H89060  -1.288   5.324   3.554 -1.3338  0.4403  0.7485
  675MOL0     H89061  -1.297   5.414   3.399  1.4141 -4.1951 -0.2876
  675MOL0     H89062  -1.415   5.243   3.343 -0.7856 -2.0741 -1.6709
  675MOL0     H89063  -1.607   5.131   3.216 -2.2759 -1.7938  1.4655
  675MOL0     H89064  -2.034   5.073   3.047 -0.1416  0.2487 -0.2130
  675MOL0     H89065  -2.254   5.007   2.977 -2.2340  1.3147  0.7281
  675MOL0     H89066  -2.490   4.880   3.029 -0.2638  1.1403  1.9140
  675MOL0     H89067  -2.468   5.024   2.923  4.4006  2.2354  2.9592
  675MOL0     H89068  -2.743   5.003   3.062  0.5410 -3.7143  2.1269
  675MOL0     H89069  -2.696   4.887   2.934  2.1491 -0.3454 -0.8776
  675MOL0     H89070  -2.633   5.071   2.778 -0.3558  0.9787 -0.5543
  675MOL0     H89071  -2.674   5.188   2.898  1.3674  0.0187 -0.9680
  675MOL0     H89072  -2.878   4.992   2.779 -0.0416  0.6345 -2.1784
  675MOL0     H89073  -2.902   5.092   2.919 -0.1561 -0.8213 -0.5224
  675MOL0     H89074  -2.870   5.296   2.775 -3.1689 -1.4143  3.2561
  675MOL0     H89075  -2.996   5.191   2.707 -0.2332 -0.1987 -2.2186
  675MOL0     H89076  -2.846   5.094   2.532 -2.1055  0.5604 -1.1266
  675MOL0     H89077  -2.721   5.198   2.594 -0.0204 -2.4502 -1.1587
  675MOL0     H89078  -2.989   5.290   2.457 -0.1407  2.1756 -0.4144
  675MOL0     H89079  -2.883   5.402   2.541 -2.1516 -0.1612  0.9090
  675MOL0     H89080  -2.695   5.298   2.366 -0.7225 -0.9896 -2.1865
  675MOL0     H89081  -2.823   5.401   2.306 -1.2467  1.3377  1.5941
  675MOL0     H89082  -2.411   5.139   3.355  1.5362  0.5777  3.0654
  675MOL0     H89083  -2.177   5.208   3.422  2.4210  1.4342 -1.1110
  675MOL0     H89084  -1.876   5.367   3.442 -0.5374 -1.5153 -1.0849
  675MOL0     H89085  -1.701   5.511   3.540  2.5535  1.5489  1.0089
  675MOL0     H89086  -0.125   5.870   4.436 -0.2575 -0.8183  0.3701
  675MOL0     H89087   0.088   5.906   4.533  3.7933 -0.2852  0.0460
  675MOL0     H89088   0.527   5.754   4.640 -2.4376 -0.1877 -2.2173
  675MOL0     H89089   0.743   5.836   4.733  1.9046  1.6567 -0.2669
  675MOL0     H89090   0.987   5.868   4.763 -0.9594 -0.1245 -2.5757
  675MOL0     H89091   0.882   5.991   4.828  0.7394  1.4978  1.4526
  675MOL0     H89092   1.072   6.161   4.795 -0.4330 -0.0947 -0.5496
  675MOL0     H89093   1.078   6.039   4.928 -0.0398 -1.0449 -0.1869
  675MOL0     H89094   1.220   5.885   4.793  0.1368 -0.0629 -0.3328
  675MOL0     H89095   1.294   6.038   4.840 -1.2224  1.8570 -0.4344
  675MOL0     H89096   1.158   6.057   4.567  0.3559  2.4830  0.6148
  675MOL0     H89097   1.286   6.139   4.631 -0.7398  0.9570  2.1773
  675MOL0     H89098   1.506   5.794   4.489 -1.4861 -1.4008 -0.1871
  675MOL0     H89099   0.803   6.087   4.402  1.9068 -0.4697  1.1200
  675MOL0     H89100   0.603   6.013   4.304  3.8470 -0.0332 -0.8543
  676MOL0     O89101   3.443   6.796   9.995  0.2585  0.3593 -0.1390
  676MOL0     C89102   3.337   6.843  10.030 -0.0816  0.5383 -0.2265
  676MOL0     O89103   3.218   6.817   9.975 -0.0722  1.0027  0.0181
  676MOL0     C89104   3.223   6.750   9.857 -0.4307  0.1908 -0.7350
  676MOL0     C89105   3.274   6.617   9.854 -0.2609 -0.7675  0.8663
  676MOL0     C89106   3.282   6.556   9.721  1.2776 -0.1853 -0.6894
  676MOL0     C89107   3.238   6.632   9.609 -0.9034 -0.0872 -0.7047
  676MOL0     O89108   3.248   6.581   9.485 -0.5740 -0.2602  0.7422
  676MOL0     C89109   3.216   6.440   9.468 -0.2500  0.0978  0.0162
  676MOL0     C89110   3.207   6.412   9.317  0.5553 -0.8619  0.6139
  676MOL0     C89111   3.185   6.266   9.282 -0.0215  0.6970 -0.0674
  676MOL0     C89112   3.198   6.226   9.136 -0.4811 -0.2145  0.6254
  676MOL0     C89113   3.097   6.130   9.072 -0.0343  0.6711 -0.9919
  676MOL0     C89114   3.085   5.981   9.113 -0.0252 -0.0218 -0.4185
  676MOL0     C89115   2.983   5.905   9.031  1.0966  0.1017 -0.9949
  676MOL0     C89116   2.838   5.963   9.043 -0.5501 -0.0342  0.3664
  676MOL0     N89117   2.747   5.896   8.956 -0.8607  0.2630 -0.4267
  676MOL0     C89118   2.611   5.909   8.969  0.5812  0.0943  0.7623
  676MOL0     C89119   2.568   5.805   8.892  0.5813 -0.0720  0.0503
  676MOL0     C89120   2.418   5.759   8.888  1.3048 -0.6446  0.5738
  676MOL0     C89121   2.338   5.803   8.763 -0.9573 -0.4855  0.7071
  676MOL0     C89122   2.196   5.766   8.768  0.1843 -0.3476  0.3893
  676MOL0     C89123   2.151   5.766   8.620  0.2068 -0.2552  0.6995
  676MOL0     O89124   2.009   5.781   8.625  1.0895 -0.1448  0.4628
  676MOL0     C89125   1.938   5.662   8.656  0.5491  0.0974 -0.1929
  676MOL0     C89126   1.925   5.563   8.565  0.0365  1.0553  1.2090
  676MOL0     C89127   1.853   5.446   8.595 -0.2361 -0.9005 -0.8623
  676MOL0     C89128   1.804   5.428   8.726 -0.4635 -0.7938  0.7156
  676MOL0     C89129   1.746   5.297   8.769  0.1981  0.8105  0.2068
  676MOL0     O89130   1.629   5.302   8.843 -0.0389  0.2027 -0.1604
  676MOL0     C89131   1.589   5.171   8.875  0.2106  0.5253  0.1092
  676MOL0     C89132   1.624   5.103   8.999  0.3981 -0.5323  0.2275
  676MOL0     C89133   1.566   4.982   9.021  0.3299 -0.6999  0.0686
  676MOL0     C89134   1.482   4.909   8.928 -0.1576  0.1347 -0.6497
  676MOL0     O89135   1.427   4.790   8.948  0.6500  0.3247  0.3376
  676MOL0     C89136   1.437   4.732   9.077 -0.2838  0.2821  0.2060
  676MOL0     C89137   1.391   4.581   9.063  0.1331  0.0949  0.6332
  676MOL0     C89138   1.236   4.561   9.047  0.1477  0.0195 -0.2884
  676MOL0     C89139   1.203   4.412   9.058  0.0151 -1.3628 -0.5881
  676MOL0     C89140   1.053   4.416   9.039  0.1994 -0.1915  0.0623
  676MOL0     C89141   1.013   4.273   9.035  0.0743 -0.0401  0.1282
  676MOL0     C89142   0.866   4.256   9.049  0.4985 -0.0493 -0.7128
  676MOL0     C89143   0.813   4.114   9.035 -0.0298 -0.6194 -0.3677
  676MOL0    Cl89144   0.784   4.042   8.864 -0.5687 -0.6090  0.0454
  676MOL0     C89145   1.432   4.980   8.820  0.8544 -0.3786  0.5434
  676MOL0     C89146   1.488   5.106   8.792 -0.9231  0.2457  0.8467
  676MOL0     O89147   1.810   5.194   8.738 -0.3861  0.3730  0.1228
  676MOL0     C89148   1.824   5.534   8.821  0.9222 -0.2856 -0.1803
  676MOL0     C89149   1.887   5.657   8.787  0.1525 -0.0489 -0.6639
  676MOL0     N89150   2.674   5.737   8.834  0.0203  0.0517  0.2275
  676MOL0     N89151   2.778   5.785   8.884  0.9216 -0.0241  0.2720
  676MOL0     C89152   3.197   6.767   9.623  0.4029 -0.0517 -0.5461
  676MOL0     C89153   3.192   6.822   9.746  0.2571 -0.0208 -0.8976
  676MOL0     C89154   3.332   6.944  10.135  0.4284  0.4384  0.6379
  676MOL0     C89155   3.444   7.002  10.197 -0.6308  1.4268 -0.2491
  676MOL0     C89156   3.431   7.078  10.314  0.0836 -0.1454 -0.7183
  676MOL0     C89157   3.307   7.105  10.372 -0.4414 -0.1047 -0.7129
  676MOL0     O89158   3.297   7.177  10.490  1.0284  0.1900  0.4403
  676MOL0     C89159   3.235   7.304  10.479  0.6585  0.0128  0.9217
  676MOL0     C89160   3.267   7.401  10.590  0.1781  0.1635  1.0123
  676MOL0     C89161   3.200   7.359  10.717  0.1589  0.2398 -0.0972
  676MOL0     C89162   3.194   7.478  10.820 -0.4654  0.2112 -0.9817
  676MOL0     C89163   3.067   7.469  10.907 -0.1908  0.8210  0.9421
  676MOL0     C89164   2.967   7.461  10.977  0.3775  0.3692 -0.4039
  676MOL0     C89165   3.203   7.046  10.311  0.0479 -0.3466 -0.0076
  676MOL0     C89166   3.210   6.967  10.197 -0.1313 -0.1027 -0.2399
  676MOL0     H89167   3.316   6.572   9.943  2.0663  0.2624  0.3558
  676MOL0     H89168   3.331   6.459   9.715  0.5879 -0.6121  0.3955
  676MOL0     H89169   3.125   6.421   9.525 -0.0883 -0.4579  0.1014
  676MOL0     H89170   3.300   6.390   9.518 -2.3721 -4.2108 -0.2334
  676MOL0     H89171   3.295   6.456   9.269 -0.3230  2.7364  1.9649
  676MOL0     H89172   3.121   6.471   9.283  2.1722  1.0193 -0.3977
  676MOL0     H89173   3.085   6.241   9.319 -0.4440 -0.2244 -1.7350
  676MOL0     H89174   3.267   6.215   9.334  1.4958  1.8753 -1.2275
  676MOL0     H89175   3.225   6.314   9.076  1.5108 -1.0691  0.1705
  676MOL0     H89176   3.297   6.181   9.127  0.6832  2.1108  0.8225
  676MOL0     H89177   3.133   6.127   8.969  1.6303 -4.8668 -0.6070
  676MOL0     H89178   2.998   6.174   9.060 -0.1442  0.9108  0.5537
  676MOL0     H89179   3.072   5.961   9.220  0.7784  0.5593 -0.1954
  676MOL0     H89180   3.186   5.942   9.094  0.1800  0.1051  0.3732
  676MOL0     H89181   3.016   5.910   8.926 -1.7316  3.6242 -1.8996
  676MOL0     H89182   2.983   5.799   9.058 -1.2557  0.5074  0.9488
  676MOL0     H89183   2.842   6.065   9.003  2.1279 -0.8720 -1.7802
  676MOL0     H89184   2.799   5.968   9.146 -0.8550 -1.2761  0.3194
  676MOL0     H89185   2.547   5.960   9.040 -2.0028 -0.6904 -0.8676
  676MOL0     H89186   2.358   5.805   8.968  1.2287  0.3351 -0.0380
  676MOL0     H89187   2.417   5.650   8.886 -0.2913 -0.6666  0.8050
  676MOL0     H89188   2.389   5.762   8.675 -1.0929  2.1059 -0.6734
  676MOL0     H89189   2.358   5.910   8.756  2.9790 -1.1393 -0.5765
  676MOL0     H89190   2.186   5.667   8.813  3.6721 -1.3629 -0.6873
  676MOL0     H89191   2.141   5.838   8.828 -0.4541 -1.2207  0.8771
  676MOL0     H89192   2.186   5.669   8.583 -0.9508  0.8646 -3.9641
  676MOL0     H89193   2.188   5.853   8.566 -0.4996  0.4915  1.3852
  676MOL0     H89194   1.989   5.570   8.478 -0.8332 -0.1156  0.4426
  676MOL0     H89195   1.854   5.352   8.540  1.1371 -1.1026 -0.5323
  676MOL0     H89196   1.686   5.163   9.064  0.2489 -0.6327  0.4666
  676MOL0     H89197   1.587   4.935   9.117  2.8690 -0.8538 -0.4865
  676MOL0     H89198   1.383   4.785   9.155  0.4694 -0.7986  1.4917
  676MOL0     H89199   1.540   4.716   9.112  1.1670 -0.8911 -3.9525
  676MOL0     H89200   1.412   4.528   9.156  1.1238 -4.1174 -1.7047
  676MOL0     H89201   1.453   4.532   8.986  0.8564  0.5453  0.9177
  676MOL0     H89202   1.201   4.601   8.951 -0.0592  1.3880  0.3365
  676MOL0     H89203   1.189   4.611   9.132  1.5229 -1.5190  1.4769
  676MOL0     H89204   1.256   4.352   8.983  0.6724 -3.5825  1.5157
  676MOL0     H89205   1.245   4.379   9.154  0.7868  3.8619  1.1570
  676MOL0     H89206   1.023   4.467   8.947 -0.8628  3.3591  2.1995
  676MOL0     H89207   1.002   4.474   9.117  1.4982  1.7403 -0.4718
  676MOL0     H89208   1.059   4.217   9.116  0.3488  1.1878  0.8428
  676MOL0     H89209   1.047   4.232   8.939  0.8451  1.8647 -0.4629
  676MOL0     H89210   0.840   4.288   9.151 -1.0467 -0.0182 -1.1004
  676MOL0     H89211   0.816   4.323   8.979 -0.5469  0.6332  0.6493
  676MOL0     H89212   0.708   4.107   9.066 -0.4550  1.7977 -1.0433
  676MOL0     H89213   0.876   4.046   9.093  3.4897  1.8502 -0.9678
  676MOL0     H89214   1.352   4.945   8.756  0.8511 -1.2782  1.0262
  676MOL0     H89215   1.453   5.155   8.702  2.8941 -0.4612 -1.2702
  676MOL0     H89216   1.795   5.526   8.925  1.5134 -0.7647 -0.0428
  676MOL0     H89217   1.902   5.729   8.866 -0.5791 -2.0707  1.4551
  676MOL0     H89218   3.178   6.822   9.531  3.8274 -1.9885 -2.6287
  676MOL0     H89219   3.158   6.925   9.746  0.1011 -0.0673 -0.0627
  676MOL0     H89220   3.545   6.991  10.159 -1.5365  1.7001 -2.9534
  676MOL0     H89221   3.523   7.113  10.359 -1.0695  0.9635  0.9100
  676MOL0     H89222   3.127   7.288  10.470  1.0398 -1.5020 -2.1892
  676MOL0     H89223   3.270   7.351  10.387 -3.4664  1.3489 -0.1908
  676MOL0     H89224   3.372   7.419  10.613 -0.3181  3.6153  1.1268
  676MOL0     H89225   3.211   7.492  10.564 -0.7575 -0.4642  0.7648
  676MOL0     H89226   3.246   7.275  10.769 -1.3012 -0.1116  0.6679
  676MOL0     H89227   3.093   7.344  10.699  0.4316 -1.4207 -0.4714
  676MOL0     H89228   3.284   7.488  10.880  1.7480  0.2224 -4.0801
  676MOL0     H89229   3.181   7.566  10.756 -0.3166 -0.2881 -1.7029
  676MOL0     H89230   2.872   7.467  11.025 -0.6937 -2.3912 -1.9634
  676MOL0     H89231   3.101   7.059  10.346  0.3823 -0.9021  1.1996
  676MOL0     H89232   3.121   6.914  10.165  0.4092 -0.5112 -1.1237
  677MOL0     O89233   9.880   4.688   5.644 -0.4758  0.5975 -0.3291
  677MOL0     C89234   9.941   4.795   5.648  1.2806 -0.2876  0.0964
  677MOL0     O89235   9.900   4.904   5.724  1.0420 -0.6369  0.1492
  677MOL0     C89236   9.782   4.900   5.794 -0.0645  1.3581  0.9138
  677MOL0     C89237   9.786   4.934   5.926  1.2418  0.2649  0.2509
  677MOL0     C89238   9.665   4.918   5.993 -0.7436  0.1009 -0.5153
  677MOL0     C89239   9.542   4.877   5.941 -0.2353  0.1697  0.8663
  677MOL0     O89240   9.435   4.881   6.019  0.0365 -0.4385 -0.5970
  677MOL0     C89241   9.311   4.918   5.966  0.4528  0.1355 -0.8657
  677MOL0     C89242   9.214   4.897   6.092 -0.4877  0.5781  1.1854
  677MOL0     C89243   9.177   4.749   6.135  0.1311  0.4986 -0.1708
  677MOL0     C89244   9.106   4.750   6.275  0.1544 -0.6192  0.3088
  677MOL0     C89245   9.064   4.621   6.344  0.0542  0.6439 -0.4921
  677MOL0     C89246   9.000   4.511   6.260  0.7922  0.4757 -0.1682
  677MOL0     C89247   8.869   4.450   6.312  0.3106 -0.3715  0.1401
  677MOL0     C89248   8.763   4.563   6.321 -0.7751  0.0830 -0.7659
  677MOL0     N89249   8.624   4.508   6.311  0.8061 -0.1420 -0.4620
  677MOL0     C89250   8.576   4.448   6.198 -0.1820  0.1738  0.1296
  677MOL0     C89251   8.444   4.443   6.214  0.0180 -0.1250  0.3500
  677MOL0     C89252   8.348   4.397   6.112  0.5308  0.2082  0.7626
  677MOL0     C89253   8.330   4.243   6.135  0.1520 -0.2673  0.3736
  677MOL0     C89254   8.252   4.156   6.033 -0.2581  0.0335 -0.2080
  677MOL0     C89255   8.107   4.223   5.995 -0.6205 -0.3089  0.0445
  677MOL0     O89256   8.034   4.252   6.112  0.2366 -0.2381 -0.9543
  677MOL0     C89257   7.896   4.235   6.102  0.2985 -0.0058  0.0840
  677MOL0     C89258   7.825   4.211   5.985 -0.8168  0.2434 -0.5990
  677MOL0     C89259   7.682   4.226   5.984  0.9613 -1.2427 -0.2776
  677MOL0     C89260   7.614   4.260   6.104  0.1582 -0.9456 -0.8684
  677MOL0     C89261   7.459   4.287   6.112 -0.2777  0.4853 -0.2747
  677MOL0     O89262   7.408   4.340   6.220  0.0744 -0.8022  0.4562
  677MOL0     C89263   7.269   4.344   6.229 -0.0979 -0.3693 -0.9438
  677MOL0     C89264   7.194   4.455   6.203 -0.7767 -0.6959  0.5489
  677MOL0     C89265   7.056   4.466   6.239 -0.2251 -0.4713  0.4468
  677MOL0     C89266   6.989   4.364   6.307  0.8710  0.3403 -0.1093
  677MOL0     O89267   6.854   4.370   6.336 -0.1556  0.2340 -0.1162
  677MOL0     C89268   6.793   4.495   6.349 -0.2987 -0.0856  1.2110
  677MOL0     C89269   6.652   4.485   6.416 -0.1681  0.6119 -1.2310
  677MOL0     C89270   6.600   4.602   6.487 -0.1004  0.2780  0.6038
  677MOL0     C89271   6.610   4.738   6.410 -0.8732 -1.1369 -0.6593
  677MOL0     C89272   6.568   4.844   6.506 -0.6175 -0.2311 -0.2350
  677MOL0     C89273   6.562   4.980   6.442 -0.8290 -0.1925  0.6492
  677MOL0     C89274   6.489   5.081   6.530 -0.0066 -0.5576 -0.6793
  677MOL0     C89275   6.447   5.214   6.459 -0.2011 -0.0132 -0.0205
  677MOL0    Cl89276   6.388   5.350   6.564  0.1150 -0.4227  0.0715
  677MOL0     C89277   7.071   4.255   6.336  0.3526  0.3193 -0.4670
  677MOL0     C89278   7.203   4.237   6.291 -0.3626 -1.2331 -0.1311
  677MOL0     O89279   7.397   4.240   6.018  0.8283  0.2403  0.0337
  677MOL0     C89280   7.687   4.274   6.230 -0.0185 -0.2149  0.0041
  677MOL0     C89281   7.825   4.258   6.223 -0.4192 -0.5395 -0.0543
  677MOL0     N89282   8.407   4.492   6.335 -0.2830  0.1787 -0.0495
  677MOL0     N89283   8.515   4.539   6.394 -0.1613  0.5835 -0.0649
  677MOL0     C89284   9.540   4.844   5.806 -0.2224  0.7599  0.2892
  677MOL0     C89285   9.659   4.849   5.740 -0.3796  0.1144  0.5240
  677MOL0     C89286  10.064   4.825   5.579  0.1073 -0.1698 -0.5949
  677MOL0     C89287  10.108   4.738   5.476 -0.0699 -0.3951  0.4800
  677MOL0     C89288  10.231   4.754   5.418  0.0175 -0.0634  0.2245
  677MOL0     C89289  10.321   4.861   5.468  0.8029 -0.5231  0.4106
  677MOL0     O89290  10.441   4.861   5.398 -0.4164 -0.1668 -0.1735
  677MOL0     C89291  10.565   4.918   5.456  0.0545 -1.1754 -0.3903
  677MOL0     C89292  10.661   4.951   5.348 -0.5249 -0.4592  0.0482
  677MOL0     C89293  10.709   4.818   5.298  0.4662 -0.7200  0.5374
  677MOL0     C89294  10.844   4.828   5.214 -0.0375  0.2613 -1.0702
  677MOL0     C89295  10.834   4.906   5.087 -0.0789 -0.4558 -0.1043
  677MOL0     C89296  10.814   4.963   4.981 -0.1200 -0.3492 -0.2859
  677MOL0     C89297  10.274   4.952   5.562  0.1493  0.0356  0.8042
  677MOL0     C89298  10.151   4.928   5.615  0.5134  0.0387  0.2370
  677MOL0     H89299   9.883   4.960   5.966  1.1271  0.6796  0.2675
  677MOL0     H89300   9.680   4.945   6.097  0.0579  1.4035 -0.9461
  677MOL0     H89301   9.287   4.846   5.887  1.8136 -0.2162 -0.9810
  677MOL0     H89302   9.304   5.019   5.924 -0.1372  1.2200  1.6804
  677MOL0     H89303   9.119   4.946   6.070  0.3782  1.2680 -1.3412
  677MOL0     H89304   9.253   4.963   6.170  1.6122  2.0326 -0.9287
  677MOL0     H89305   9.264   4.682   6.141 -0.0810  0.2441  0.0990
  677MOL0     H89306   9.127   4.708   6.046 -0.6736  0.9006  0.0888
  677MOL0     H89307   9.172   4.800   6.346  2.3317 -0.7113 -1.5367
  677MOL0     H89308   9.015   4.811   6.267 -0.3751 -1.3854  0.4040
  677MOL0     H89309   8.998   4.647   6.427  1.2867 -1.1334  1.1422
  677MOL0     H89310   9.151   4.579   6.397 -1.8811 -1.4037  1.2687
  677MOL0     H89311   9.070   4.426   6.267  0.6040  0.4542  2.6215
  677MOL0     H89312   8.989   4.543   6.156  0.2135 -0.8597 -0.5412
  677MOL0     H89313   8.834   4.376   6.240 -0.1865  0.3406 -0.3667
  677MOL0     H89314   8.878   4.401   6.410  2.0203  1.7008  1.1029
  677MOL0     H89315   8.770   4.623   6.229  1.7698 -1.7572 -1.8869
  677MOL0     H89316   8.782   4.630   6.405  1.0293  0.4511 -1.4210
  677MOL0     H89317   8.632   4.425   6.109 -0.4398  5.7273 -1.8688
  677MOL0     H89318   8.378   4.429   6.012  2.0966 -3.7911 -0.2089
  677MOL0     H89319   8.249   4.439   6.132 -1.0426 -0.1942 -4.5748
  677MOL0     H89320   8.300   4.231   6.240  1.9332  0.0336  0.9519
  677MOL0     H89321   8.425   4.194   6.113  0.6121  0.4456  0.7501
  677MOL0     H89322   8.318   4.130   5.949  2.5976 -3.9123  2.8466
  677MOL0     H89323   8.227   4.061   6.081  0.8137 -0.7807 -1.1936
  677MOL0     H89324   8.063   4.150   5.927  0.4324  0.7211 -1.8156
  677MOL0     H89325   8.134   4.309   5.933  1.2040 -1.3564 -0.7128
  677MOL0     H89326   7.862   4.207   5.883 -2.5511  0.5698 -1.2738
  677MOL0     H89327   7.624   4.229   5.893 -0.4490  3.1883  0.5192
  677MOL0     H89328   7.243   4.538   6.154 -1.3427  0.0122  1.1649
  677MOL0     H89329   7.014   4.561   6.209  0.8805  0.2384  1.1042
  677MOL0     H89330   6.788   4.532   6.247  0.3028 -0.7369  0.9406
  677MOL0     H89331   6.851   4.560   6.416 -0.8761  1.9334 -0.1546
  677MOL0     H89332   6.668   4.414   6.498  3.0725  2.0807 -0.4536
  677MOL0     H89333   6.579   4.441   6.347 -1.1157 -2.0486  1.2587
  677MOL0     H89334   6.667   4.613   6.573  0.2288 -1.3505  0.5933
  677MOL0     H89335   6.496   4.579   6.509 -0.4017 -1.3156 -1.9977
  677MOL0     H89336   6.714   4.762   6.383 -1.2689  0.5304 -0.8138
  677MOL0     H89337   6.544   4.747   6.323  1.4048  1.8649 -2.2862
  677MOL0     H89338   6.632   4.832   6.594 -2.4575 -1.6270  0.9990
  677MOL0     H89339   6.462   4.825   6.528 -0.8237  0.4904 -0.5935
  677MOL0     H89340   6.519   4.981   6.342  1.7795 -0.2922 -0.5522
  677MOL0     H89341   6.666   5.004   6.418 -0.7852 -2.1499 -1.3679
  677MOL0     H89342   6.399   5.040   6.578 -1.5084  0.2613 -2.6725
  677MOL0     H89343   6.549   5.118   6.614 -4.3515  1.7819  1.7385
  677MOL0     H89344   6.362   5.191   6.394 -0.1441 -0.1107 -0.0593
  677MOL0     H89345   6.527   5.255   6.397 -0.4501  1.9930  0.8955
  677MOL0     H89346   7.023   4.173   6.389  1.7436  1.6603  3.1520
  677MOL0     H89347   7.253   4.141   6.295  1.6895 -0.1978  1.1723
  677MOL0     H89348   7.640   4.297   6.325 -1.7300 -0.2265 -0.8105
  677MOL0     H89349   7.889   4.267   6.310 -0.0935  1.0284 -0.4251
  677MOL0     H89350   9.458   4.792   5.757  1.1915  0.5914 -2.0803
  677MOL0     H89351   9.661   4.813   5.637 -1.6794 -2.0792  1.2114
  677MOL0     H89352  10.033   4.664   5.452  0.3704 -1.6800  2.7177
  677MOL0     H89353  10.276   4.687   5.345  1.1973 -0.3522  1.1756
  677MOL0     H89354  10.604   4.842   5.524  3.0072 -0.2172 -0.8862
  677MOL0     H89355  10.551   5.007   5.519 -1.4777 -0.7559 -1.2610
  677MOL0     H89356  10.617   5.013   5.270  0.3252  0.7199  0.4948
  677MOL0     H89357  10.743   5.006   5.393 -0.2880  1.8207 -2.8930
  677MOL0     H89358  10.632   4.771   5.236  1.3557  1.1698 -2.2101
  677MOL0     H89359  10.726   4.755   5.386  1.3124 -2.3124 -0.6998
  677MOL0     H89360  10.922   4.875   5.274  0.2318  0.2803 -1.4324
  677MOL0     H89361  10.881   4.726   5.202  0.3815  0.0684  1.4188
  677MOL0     H89362  10.782   5.013   4.892 -0.8933  0.3282  0.3556
  677MOL0     H89363  10.324   5.035   5.610 -3.4333  1.8599  1.7341
  677MOL0     H89364  10.126   5.001   5.691  1.7273  1.5963 -0.8206
  678MOL0     O89365   9.179  10.892   2.403 -0.3719  0.7197  0.2507
  678MOL0     C89366   9.058  10.865   2.394  0.6439 -0.4818 -0.7238
  678MOL0     O89367   8.958  10.917   2.486 -0.4047  0.0113 -0.5964
  678MOL0     C89368   8.995  11.017   2.579 -0.4574 -0.2220 -0.0318
  678MOL0     C89369   9.099  11.114   2.574  0.4268  0.2105  0.2046
  678MOL0     C89370   9.104  11.210   2.679 -0.5315  0.6006  0.3598
  678MOL0     C89371   9.025  11.198   2.793  0.2595  0.0556 -0.6487
  678MOL0     O89372   9.044  11.291   2.888 -0.5837  0.4150  0.1746
  678MOL0     C89373   8.926  11.323   2.964 -0.1079  0.3168 -0.9596
  678MOL0     C89374   8.971  11.413   3.080 -0.2028 -0.5432  0.8452
  678MOL0     C89375   8.974  11.564   3.053  0.3757  0.5848  0.1168
  678MOL0     C89376   9.057  11.629   3.162 -0.2299  0.8596  0.1976
  678MOL0     C89377   9.060  11.783   3.168  0.0821  0.4520 -0.7003
  678MOL0     C89378   9.146  11.839   3.287 -0.9123  0.9900 -0.3397
  678MOL0     C89379   9.292  11.784   3.282  0.5075 -0.6016 -0.8396
  678MOL0     C89380   9.367  11.870   3.385 -0.2575  0.7512 -0.6525
  678MOL0     N89381   9.352  11.842   3.526  0.0946  0.2622  0.1571
  678MOL0     C89382   9.360  11.714   3.582  0.8153 -0.6739  1.2877
  678MOL0     C89383   9.356  11.735   3.707 -0.3950  0.0445 -0.1765
  678MOL0     C89384   9.367  11.622   3.798 -0.2311  0.1706 -0.2557
  678MOL0     C89385   9.241  11.539   3.789  0.5878 -0.6145 -0.1551
  678MOL0     C89386   9.118  11.587   3.869 -0.0932 -0.2004 -0.2419
  678MOL0     C89387   9.015  11.664   3.787 -0.4001 -0.3836 -0.1213
  678MOL0     O89388   8.971  11.599   3.663  0.0832 -0.0602  0.5800
  678MOL0     C89389   8.886  11.666   3.579 -0.1276 -0.4721 -0.0358
  678MOL0     C89390   8.843  11.796   3.592 -0.2155  0.0606 -0.1741
  678MOL0     C89391   8.769  11.865   3.488  0.0762 -0.7270 -0.4728
  678MOL0     C89392   8.733  11.798   3.371 -0.0315  0.7346 -0.4351
  678MOL0     C89393   8.677  11.874   3.261  0.4049 -0.2145 -0.3814
  678MOL0     O89394   8.627  11.998   3.292  0.1471 -0.3664  0.1119
  678MOL0     C89395   8.619  12.088   3.187  0.4239  0.2061 -0.1676
  678MOL0     C89396   8.733  12.113   3.103 -0.0130  0.3551 -0.5037
  678MOL0     C89397   8.717  12.202   2.999  0.0757 -0.6384  0.2302
  678MOL0     C89398   8.600  12.275   2.975 -0.2173  0.2965  0.8970
  678MOL0     O89399   8.585  12.376   2.884  0.1524 -0.5191  0.3260
  678MOL0     C89400   8.679  12.388   2.783 -0.3019  0.1932  0.3934
  678MOL0     C89401   8.606  12.482   2.683 -0.1690 -0.2476 -0.1748
  678MOL0     C89402   8.669  12.499   2.545 -0.2159  0.2973  0.7282
  678MOL0     C89403   8.609  12.399   2.438  0.1530 -0.7173 -0.8837
  678MOL0     C89404   8.691  12.401   2.317  0.2374 -0.3226 -0.2574
  678MOL0     C89405   8.650  12.309   2.201  0.5714  0.8417  0.2791
  678MOL0     C89406   8.673  12.375   2.073  0.1315 -0.8661  0.3207
  678MOL0     C89407   8.648  12.277   1.953 -0.4080  0.1879 -0.3998
  678MOL0    Cl89408   8.504  12.190   1.952  0.0379  0.1310 -0.2688
  678MOL0     C89409   8.497  12.262   3.069  0.0392  0.2259  0.3058
  678MOL0     C89410   8.506  12.159   3.160  0.2366  0.2694 -0.3741
  678MOL0     O89411   8.692  11.822   3.151  0.1222 -0.0343  0.7946
  678MOL0     C89412   8.750  11.657   3.371  0.2780 -0.5272  0.7569
  678MOL0     C89413   8.830  11.599   3.466 -0.2733  0.3086 -0.1264
  678MOL0     N89414   9.354  11.872   3.736  0.1143 -0.0611  0.0337
  678MOL0     N89415   9.352  11.932   3.622  1.0386 -0.4750  0.1206
  678MOL0     C89416   8.941  11.083   2.805  0.1410 -0.0645  0.6754
  678MOL0     C89417   8.919  10.998   2.695  0.7881 -0.1684 -0.4580
  678MOL0     C89418   9.004  10.772   2.289  0.6758  0.2802  0.3261
  678MOL0     C89419   8.871  10.765   2.256 -0.3818 -0.3127  0.5991
  678MOL0     C89420   8.829  10.676   2.158  0.1871  0.1201  0.5719
  678MOL0     C89421   8.917  10.604   2.084 -0.6378 -0.2445 -0.7133
  678MOL0     O89422   8.884  10.528   1.976  0.4216  0.1841  0.0502
  678MOL0     C89423   8.962  10.557   1.853  0.8561 -0.5978 -0.6449
  678MOL0     C89424   8.905  10.684   1.784 -0.5103 -0.5260  0.4726
  678MOL0     C89425   8.960  10.814   1.841 -0.1303  0.3170 -0.2831
  678MOL0     C89426   8.873  10.935   1.805  0.6178 -1.4092 -0.4192
  678MOL0     C89427   8.783  10.965   1.915 -0.0712  0.4263 -1.3361
  678MOL0     C89428   8.697  10.998   1.995 -0.2515  0.8591 -0.4269
  678MOL0     C89429   9.055  10.604   2.121  0.4479  0.1886  0.3053
  678MOL0     C89430   9.092  10.689   2.228 -0.6860  0.4453 -0.0031
  678MOL0     H89431   9.143  11.138   2.478 -0.8404  0.3333 -0.3598
  678MOL0     H89432   9.171  11.295   2.688  2.7137 -1.4787 -1.8709
  678MOL0     H89433   8.877  11.241   3.018  0.2920  0.6581 -0.0554
  678MOL0     H89434   8.846  11.373   2.909 -0.5591  1.2994  0.5188
  678MOL0     H89435   9.074  11.381   3.094 -0.0196 -0.0305  0.6835
  678MOL0     H89436   8.910  11.396   3.169 -5.1122  1.4312 -1.7259
  678MOL0     H89437   8.869  11.596   3.056  0.2489  0.1512  0.3041
  678MOL0     H89438   9.020  11.585   2.956  1.9312  0.8322  0.8780
  678MOL0     H89439   9.036  11.581   3.258 -2.2113 -0.3163 -0.7641
  678MOL0     H89440   9.160  11.600   3.136 -0.4906  1.2985 -1.4323
  678MOL0     H89441   8.954  11.808   3.165 -0.6517 -2.3475 -2.1520
  678MOL0     H89442   9.107  11.804   3.071 -3.1408 -1.1983 -2.7957
  678MOL0     H89443   9.107  11.817   3.387  0.7004  1.2669  0.3724
  678MOL0     H89444   9.138  11.948   3.285 -3.2481  1.0591  3.4963
  678MOL0     H89445   9.304  11.677   3.301 -0.2145 -0.6798 -0.7797
  678MOL0     H89446   9.332  11.803   3.182 -0.0429  2.8499 -0.5105
  678MOL0     H89447   9.341  11.976   3.376 -2.3381  0.4197  0.6044
  678MOL0     H89448   9.472  11.864   3.354 -0.2069  0.0680 -0.3594
  678MOL0     H89449   9.370  11.614   3.539  1.8374  0.5893 -1.6673
  678MOL0     H89450   9.392  11.657   3.899  2.3112  2.4674 -1.5447
  678MOL0     H89451   9.460  11.575   3.766 -0.0270  1.4765 -1.6953
  678MOL0     H89452   9.270  11.438   3.820  1.1656 -0.0087  1.3692
  678MOL0     H89453   9.214  11.516   3.685 -1.4743  0.6090  0.0645
  678MOL0     H89454   9.055  11.513   3.919  0.5086  1.0170  2.5334
  678MOL0     H89455   9.162  11.652   3.946 -0.9386 -1.7255  1.6362
  678MOL0     H89456   9.061  11.756   3.749 -1.4109  0.1613 -0.0617
  678MOL0     H89457   8.929  11.678   3.853  2.4145  1.9875  3.4161
  678MOL0     H89458   8.868  11.850   3.683 -0.5568  0.0630 -0.0780
  678MOL0     H89459   8.755  11.972   3.505  0.8820 -0.5789 -0.7218
  678MOL0     H89460   8.823  12.054   3.121 -1.2556 -0.7247  3.0896
  678MOL0     H89461   8.802  12.221   2.934  0.7665 -1.8475  0.7524
  678MOL0     H89462   8.712  12.296   2.733  0.1567 -0.7491  2.3075
  678MOL0     H89463   8.774  12.429   2.820  0.4493 -0.4930 -0.7039
  678MOL0     H89464   8.612  12.579   2.733  2.6754 -1.4612  2.1580
  678MOL0     H89465   8.504  12.444   2.685  0.0570 -0.8501  0.6765
  678MOL0     H89466   8.776  12.477   2.552 -0.6930 -2.6062  0.3591
  678MOL0     H89467   8.652  12.600   2.509  1.4544  0.4185  0.1789
  678MOL0     H89468   8.608  12.301   2.486  0.4362 -1.1253 -1.6883
  678MOL0     H89469   8.507  12.430   2.415  0.2034 -1.4029 -2.1154
  678MOL0     H89470   8.799  12.384   2.328  0.6174  0.7803 -1.9282
  678MOL0     H89471   8.677  12.505   2.286  0.8073 -0.2252 -0.2071
  678MOL0     H89472   8.557  12.256   2.222  1.6490 -0.0912  3.1874
  678MOL0     H89473   8.720  12.224   2.205 -0.4985 -0.0911 -0.3105
  678MOL0     H89474   8.617  12.469   2.064 -0.2785 -1.1991 -0.7693
  678MOL0     H89475   8.778  12.403   2.060 -0.8937  2.2209 -3.1816
  678MOL0     H89476   8.727  12.202   1.953 -0.1689  0.3989  1.0426
  678MOL0     H89477   8.665  12.334   1.861 -0.2572  1.3393  0.3093
  678MOL0     H89478   8.402  12.312   3.057  0.9316  2.2517  1.1336
  678MOL0     H89479   8.417  12.141   3.220  1.7083 -2.3610  1.2047
  678MOL0     H89480   8.703  11.599   3.292  1.3116 -0.3389 -0.0145
  678MOL0     H89481   8.871  11.499   3.455  3.0418  1.8350 -4.6262
  678MOL0     H89482   8.875  11.056   2.887 -1.1339  0.8626 -0.0192
  678MOL0     H89483   8.842  10.921   2.705  3.2477 -2.6537  0.5512
  678MOL0     H89484   8.797  10.819   2.314 -1.5792  1.1150 -2.0622
  678MOL0     H89485   8.722  10.672   2.137  0.3939  2.1681 -1.3166
  678MOL0     H89486   8.952  10.475   1.782 -0.1641  0.2782 -1.5501
  678MOL0     H89487   9.070  10.573   1.866  0.8531 -0.2512 -1.0262
  678MOL0     H89488   8.944  10.668   1.683 -1.0399 -0.3954  0.2455
  678MOL0     H89489   8.796  10.686   1.778 -0.5751  0.5631  1.5975
  678MOL0     H89490   9.061  10.825   1.800 -0.6536  1.4671 -1.3562
  678MOL0     H89491   8.987  10.801   1.946 -0.3819  0.4667 -0.1989
  678MOL0     H89492   8.948  11.011   1.780  0.2559 -1.4760 -1.7780
  678MOL0     H89493   8.817  10.918   1.713 -2.2069  1.3143  0.6364
  678MOL0     H89494   8.615  11.035   2.053 -0.9349 -2.0148  0.6190
  678MOL0     H89495   9.121  10.537   2.067 -0.9141  0.5132 -1.8752
  678MOL0     H89496   9.197  10.691   2.255 -0.0558  0.3174 -2.2089
  679MOL0     O89497   0.794  10.229   9.159 -0.7005  0.4492  0.2945
  679MOL0     C89498   0.751  10.200   9.048 -0.1730 -0.2463 -0.2508
  679MOL0     O89499   0.669  10.095   9.029 -0.1691  0.2179  0.0427
  679MOL0     C89500   0.592  10.074   9.140  1.5768  0.2496  0.3422
  679MOL0     C89501   0.603   9.955   9.208  0.1417  0.1536 -0.5013
  679MOL0     C89502   0.512   9.908   9.302  0.1765 -0.0929 -0.5318
  679MOL0     C89503   0.393   9.981   9.339 -0.2146 -0.1982  0.0435
  679MOL0     O89504   0.287   9.940   9.422 -0.6900  0.2218 -0.0320
  679MOL0     C89505   0.271   9.798   9.426  0.4513 -0.5905  0.1318
  679MOL0     C89506   0.213   9.747   9.291 -0.8493  0.8176  0.2260
  679MOL0     C89507   0.068   9.749   9.264  0.2505 -0.5809 -0.1158
  679MOL0     C89508   0.041   9.691   9.125 -0.2280  0.4194 -0.2450
  679MOL0     C89509  -0.107   9.700   9.092  0.1297 -0.3281  0.6491
  679MOL0     C89510  -0.190   9.598   9.177 -0.7168  0.0938 -0.1819
  679MOL0     C89511  -0.346   9.623   9.155 -0.1757  0.1906  0.1101
  679MOL0     C89512  -0.446   9.524   9.219  0.5281  0.4216 -0.2139
  679MOL0     N89513  -0.414   9.384   9.176 -1.3223 -0.0686  0.4411
  679MOL0     C89514  -0.478   9.299   9.091 -0.8031 -0.2710 -0.1309
  679MOL0     C89515  -0.425   9.178   9.116 -0.0874 -0.0743 -0.3606
  679MOL0     C89516  -0.444   9.052   9.032  0.0377 -0.2941 -0.6112
  679MOL0     C89517  -0.593   9.041   8.988  0.3399 -0.3294 -1.3376
  679MOL0     C89518  -0.638   8.904   8.940 -0.6433  0.3519  1.1405
  679MOL0     C89519  -0.785   8.891   8.923  0.7303  0.1570  0.0891
  679MOL0     O89520  -0.840   8.927   8.793  0.5443 -0.5513  0.0026
  679MOL0     C89521  -0.970   8.940   8.753 -0.6175  0.8475 -0.3777
  679MOL0     C89522  -1.008   8.995   8.629  0.1953  0.1115  0.1118
  679MOL0     C89523  -1.142   8.999   8.587 -0.7039 -0.1337 -0.0040
  679MOL0     C89524  -1.240   8.953   8.672  0.4834  0.9389  0.0325
  679MOL0     C89525  -1.385   8.948   8.640  0.0535 -0.4417  0.7442
  679MOL0     O89526  -1.419   8.998   8.518  0.1939 -0.7995 -0.3144
  679MOL0     C89527  -1.547   9.000   8.471 -0.5570  0.9340 -0.8063
  679MOL0     C89528  -1.652   9.053   8.544 -0.1143 -0.4484 -0.7017
  679MOL0     C89529  -1.778   9.052   8.489 -0.3570 -0.2752 -0.1964
  679MOL0     C89530  -1.801   8.983   8.372 -0.1499 -0.3987  0.7040
  679MOL0     O89531  -1.927   8.988   8.324 -0.1594 -0.0468  0.1969
  679MOL0     C89532  -1.976   8.865   8.274 -0.8240  0.1086  0.2016
  679MOL0     C89533  -2.130   8.845   8.312  0.2968  0.0707  0.0024
  679MOL0     C89534  -2.211   8.952   8.237 -0.2207  0.2231  0.2394
  679MOL0     C89535  -2.357   8.913   8.246  0.4582 -0.7214  0.1481
  679MOL0     C89536  -2.439   9.037   8.201 -0.2216  0.1336 -0.0435
  679MOL0     C89537  -2.591   9.035   8.224 -0.5785  0.0698 -0.2810
  679MOL0     C89538  -2.641   9.047   8.369  0.4401  0.1266 -0.4372
  679MOL0     C89539  -2.780   9.100   8.366  0.4003  0.0800 -0.1413
  679MOL0    Cl89540  -2.853   9.096   8.530 -0.9305 -0.4490 -0.3150
  679MOL0     C89541  -1.702   8.919   8.302 -0.2937  0.4629  0.4276
  679MOL0     C89542  -1.577   8.934   8.355  0.0891 -0.1706 -1.0411
  679MOL0     O89543  -1.460   8.891   8.716  0.1551  0.6333 -0.4977
  679MOL0     C89544  -1.209   8.908   8.801  1.0866  0.0184 -0.6356
  679MOL0     C89545  -1.070   8.900   8.836  0.0761  0.0666  0.4314
  679MOL0     N89546  -0.337   9.190   9.218 -0.9529 -0.2145  0.4038
  679MOL0     N89547  -0.329   9.317   9.255 -0.5254 -0.7155  0.4232
  679MOL0     C89548   0.388  10.103   9.266  0.0727 -0.1406  0.4434
  679MOL0     C89549   0.480  10.149   9.174  0.5213  0.0213 -0.7729
  679MOL0     C89550   0.779  10.294   8.942 -0.6943  0.6105 -0.3333
  679MOL0     C89551   0.804  10.432   8.965  0.9263  0.5387  0.2571
  679MOL0     C89552   0.810  10.520   8.855 -0.0614 -0.3021 -0.7033
  679MOL0     C89553   0.797  10.470   8.723 -0.5635 -0.1833 -0.7416
  679MOL0     O89554   0.818  10.540   8.607  0.4801 -0.3265  0.0944
  679MOL0     C89555   0.909  10.653   8.604 -0.6357 -0.3144 -0.3900
  679MOL0     C89556   0.936  10.689   8.462 -0.9644  0.5521 -0.6971
  679MOL0     C89557   0.813  10.722   8.384  0.0955 -0.1337 -0.0442
  679MOL0     C89558   0.840  10.718   8.237 -0.5936  0.8686  0.5348
  679MOL0     C89559   0.905  10.836   8.173  0.3785  0.0881 -0.0210
  679MOL0     C89560   0.948  10.939   8.128 -0.0660 -0.4408  0.6077
  679MOL0     C89561   0.773  10.341   8.709  0.4067  0.8058  0.7893
  679MOL0     C89562   0.757  10.249   8.813  0.0710 -0.7636 -0.1550
  679MOL0     H89563   0.681   9.892   9.166  1.2004  0.8614  0.3463
  679MOL0     H89564   0.533   9.809   9.342  2.6228  1.5760  2.7661
  679MOL0     H89565   0.199   9.780   9.506  0.2094 -0.5456 -0.0748
  679MOL0     H89566   0.362   9.743   9.453  0.7817 -0.3254 -0.4128
  679MOL0     H89567   0.244   9.642   9.283  0.8118  1.2532  0.6343
  679MOL0     H89568   0.263   9.799   9.208  0.5819 -1.3960 -0.3962
  679MOL0     H89569   0.030   9.852   9.264 -1.2133 -0.9667 -3.6565
  679MOL0     H89570   0.000   9.709   9.340 -1.4756 -0.1209 -1.3559
  679MOL0     H89571   0.102   9.747   9.054 -1.0661 -1.6309 -2.7178
  679MOL0     H89572   0.074   9.588   9.114 -0.6602 -0.0682  2.3463
  679MOL0     H89573  -0.111   9.668   8.987  1.5083  1.2550  0.0721
  679MOL0     H89574  -0.157   9.796   9.107 -0.5057 -0.4912 -0.3339
  679MOL0     H89575  -0.169   9.592   9.284  1.1968 -1.5205 -0.5930
  679MOL0     H89576  -0.156   9.503   9.136  0.6925  0.3519  0.3229
  679MOL0     H89577  -0.364   9.724   9.194 -1.6815  0.5755 -1.4620
  679MOL0     H89578  -0.350   9.618   9.046  2.2818 -2.3435  0.0148
  679MOL0     H89579  -0.541   9.540   9.168  2.1545  0.4180 -3.5394
  679MOL0     H89580  -0.448   9.532   9.328 -0.8987  4.2146 -0.3671
  679MOL0     H89581  -0.548   9.321   9.012  0.0349  3.3553 -0.0100
  679MOL0     H89582  -0.426   8.961   9.090 -1.8920 -1.3563 -1.5760
  679MOL0     H89583  -0.377   9.053   8.946  0.9793  2.4805  0.0525
  679MOL0     H89584  -0.605   9.118   8.911 -2.2282  0.5942 -0.1211
  679MOL0     H89585  -0.655   9.081   9.068  1.8621  1.2086 -0.8533
  679MOL0     H89586  -0.597   8.890   8.840 -3.0846 -2.1002  0.3430
  679MOL0     H89587  -0.610   8.818   9.002  1.0574 -0.4669 -0.6392
  679MOL0     H89588  -0.847   8.946   8.995 -0.2409  1.1833 -1.4566
  679MOL0     H89589  -0.805   8.785   8.940  1.0468  0.4322  2.4573
  679MOL0     H89590  -0.932   9.024   8.556  1.1235 -2.0833  0.1326
  679MOL0     H89591  -1.163   9.025   8.483  0.1365  1.6077  0.2459
  679MOL0     H89592  -1.640   9.085   8.647 -2.0202  3.4902 -1.5125
  679MOL0     H89593  -1.874   9.074   8.534 -0.8451  0.9089 -1.7423
  679MOL0     H89594  -1.922   8.784   8.324 -0.9606 -0.5163 -0.6371
  679MOL0     H89595  -1.953   8.848   8.169  1.8063 -3.4709  1.1654
  679MOL0     H89596  -2.162   8.833   8.416  0.0109 -1.0986 -0.2069
  679MOL0     H89597  -2.154   8.745   8.273 -2.9280  1.7934 -2.9313
  679MOL0     H89598  -2.187   8.952   8.130 -2.1296  2.3733 -0.2843
  679MOL0     H89599  -2.198   9.056   8.266  0.3694  0.1696  0.1829
  679MOL0     H89600  -2.378   8.831   8.176 -2.8310 -0.1462  0.2658
  679MOL0     H89601  -2.390   8.894   8.348 -1.6369  0.3680 -0.2668
  679MOL0     H89602  -2.427   9.037   8.093 -0.6072  0.3838 -0.0899
  679MOL0     H89603  -2.414   9.134   8.245  0.4793 -0.2941  0.5118
  679MOL0     H89604  -2.626   8.935   8.196  1.5520 -0.9421  0.4675
  679MOL0     H89605  -2.614   9.125   8.165  0.2450  0.6045  0.2049
  679MOL0     H89606  -2.631   8.948   8.414  3.9656  0.7661  0.5456
  679MOL0     H89607  -2.571   9.108   8.428  0.1409  1.3419 -1.3044
  679MOL0     H89608  -2.838   9.039   8.295 -0.3518  1.9115 -1.1743
  679MOL0     H89609  -2.781   9.205   8.335  1.7779  0.3210  0.5703
  679MOL0     H89610  -1.712   8.863   8.210 -2.8069 -0.3998  1.1606
  679MOL0     H89611  -1.504   8.883   8.293 -1.1844 -1.9109 -1.2132
  679MOL0     H89612  -1.282   8.870   8.872 -2.4184  1.4692 -3.1703
  679MOL0     H89613  -1.046   8.865   8.936 -1.4083 -0.6469  0.5549
  679MOL0     H89614   0.307  10.170   9.295 -0.4903 -0.4018 -0.5036
  679MOL0     H89615   0.461  10.245   9.126  0.6345  1.3906  1.7189
  679MOL0     H89616   0.816  10.475   9.063 -1.2633  1.1121  0.3263
  679MOL0     H89617   0.843  10.621   8.873 -0.4377 -0.5898  2.0575
  679MOL0     H89618   0.997  10.625   8.663 -1.0562  1.0285  0.9301
  679MOL0     H89619   0.864  10.744   8.645 -1.5129  1.0268 -3.9167
  679MOL0     H89620   1.003  10.775   8.474  0.0300 -0.4466  1.3355
  679MOL0     H89621   0.994  10.605   8.423 -2.5353 -0.3343 -1.1870
  679MOL0     H89622   0.768  10.816   8.418  1.3361 -0.0636  1.5862
  679MOL0     H89623   0.734  10.646   8.394  0.6526 -1.5043 -4.3455
  679MOL0     H89624   0.893  10.625   8.215  1.2993  2.5692 -2.8599
  679MOL0     H89625   0.741  10.710   8.189 -0.8155  1.6446  0.8420
  679MOL0     H89626   0.982  11.030   8.084  0.7314 -1.1736 -0.3426
  679MOL0     H89627   0.754  10.303   8.609  2.3857  0.7977  0.3710
  679MOL0     H89628   0.719  10.149   8.793  0.4179 -1.2230  1.3782
  680MOL0     O89629   9.736   6.392  11.263 -0.2083 -0.0518 -0.4767
  680MOL0     C89630   9.770   6.417  11.154 -0.5142 -0.5502  0.3425
  680MOL0     O89631   9.790   6.324  11.059  0.5215 -0.0170  0.2357
  680MOL0     C89632   9.751   6.203  11.079  0.3428  0.8892 -0.8869
  680MOL0     C89633   9.838   6.114  11.130 -0.3884 -0.0147 -0.3586
  680MOL0     C89634   9.798   5.983  11.164 -0.3270 -0.4048  0.5338
  680MOL0     C89635   9.661   5.940  11.151 -0.7560  0.4698 -0.4795
  680MOL0     O89636   9.621   5.815  11.180 -0.0222 -0.0161 -0.1893
  680MOL0     C89637   9.547   5.749  11.075  0.5317  0.6315  0.2427
  680MOL0     C89638   9.407   5.713  11.132  0.0493  0.0401 -0.2787
  680MOL0     C89639   9.305   5.714  11.017 -0.3916 -0.3516 -0.7101
  680MOL0     C89640   9.170   5.661  11.064  0.2149  0.0861  0.2238
  680MOL0     C89641   9.056   5.660  10.956 -0.7364 -0.1581  0.6699
  680MOL0     C89642   8.924   5.628  11.017 -0.0479 -0.4783  0.3017
  680MOL0     C89643   8.804   5.688  10.922 -0.0689  1.5287 -0.0981
  680MOL0     C89644   8.688   5.704  11.004  0.7089  0.2621  0.1182
  680MOL0     N89645   8.576   5.765  10.926 -0.6649 -0.1691  0.4874
  680MOL0     C89646   8.517   5.704  10.815  0.3115 -0.6576 -1.4306
  680MOL0     C89647   8.407   5.782  10.788 -0.9229  1.0363 -1.0287
  680MOL0     C89648   8.311   5.778  10.677 -0.5657 -0.4487 -0.1790
  680MOL0     C89649   8.168   5.740  10.695 -1.1160 -0.1115 -0.3817
  680MOL0     C89650   8.067   5.848  10.642  0.7671 -0.0822  0.0946
  680MOL0     C89651   7.923   5.808  10.693 -0.2638 -0.4256  0.4065
  680MOL0     O89652   7.845   5.923  10.681 -0.3021  0.4873  0.4384
  680MOL0     C89653   7.709   5.913  10.686 -0.8935  0.3583 -0.3611
  680MOL0     C89654   7.645   6.005  10.608  0.5501  0.0355  0.5790
  680MOL0     C89655   7.511   6.017  10.606 -0.2522 -0.9510 -0.3283
  680MOL0     C89656   7.424   5.931  10.681 -0.1913 -0.8713 -1.4047
  680MOL0     C89657   7.279   5.950  10.677 -0.3286  0.0475  0.4380
  680MOL0     O89658   7.201   5.884  10.771  0.2447 -0.5944  0.3778
  680MOL0     C89659   7.063   5.905  10.762 -0.1432  0.6232 -0.1608
  680MOL0     C89660   6.991   5.789  10.751 -0.0713 -0.4230  0.3019
  680MOL0     C89661   6.851   5.792  10.739 -0.1007 -0.0926 -0.9172
  680MOL0     C89662   6.785   5.921  10.756 -0.0944  0.2515  0.7142
  680MOL0     O89663   6.645   5.915  10.740 -0.4488 -0.5512  0.5042
  680MOL0     C89664   6.558   6.035  10.751 -0.1249  1.1544 -0.8630
  680MOL0     C89665   6.560   6.120  10.627  0.2086  0.5073  0.7140
  680MOL0     C89666   6.464   6.245  10.635 -0.4077 -0.5147 -0.3132
  680MOL0     C89667   6.473   6.319  10.500 -0.0501  0.9159 -0.0745
  680MOL0     C89668   6.390   6.452  10.485 -0.0680  1.1678 -0.4038
  680MOL0     C89669   6.256   6.436  10.424 -0.2453 -0.7764 -1.1804
  680MOL0     C89670   6.216   6.550  10.330 -0.9119 -0.5440  0.4255
  680MOL0     C89671   6.074   6.519  10.271  0.3162 -0.2855  0.5961
  680MOL0    Cl89672   6.018   6.655  10.174  0.0338 -0.8604  0.3286
  680MOL0     C89673   6.865   6.037  10.760  0.1285 -0.1106 -0.2929
  680MOL0     C89674   7.004   6.030  10.757 -0.0288  0.5776  0.3705
  680MOL0     O89675   7.241   6.017  10.580  0.7464 -0.3677 -0.2939
  680MOL0     C89676   7.490   5.841  10.761  0.0516  0.6605 -0.3125
  680MOL0     C89677   7.637   5.824  10.760  0.3285  0.1008  0.1699
  680MOL0     N89678   8.393   5.873  10.892 -0.2020 -0.2840  0.4660
  680MOL0     N89679   8.495   5.862  10.975 -0.3436 -0.1452  0.4174
  680MOL0     C89680   9.583   6.034  11.086  0.3302 -0.1388 -0.2559
  680MOL0     C89681   9.623   6.162  11.068  0.6575 -0.0985 -0.1798
  680MOL0     C89682   9.792   6.566  11.127  0.8918  0.0101 -0.0070
  680MOL0     C89683   9.809   6.608  10.992 -0.1410 -0.7611 -1.0719
  680MOL0     C89684   9.834   6.743  10.963  0.1213 -0.3295  1.0155
  680MOL0     C89685   9.818   6.843  11.052  0.0553 -0.4959 -0.1764
  680MOL0     O89686   9.834   6.966  10.998  0.9684  0.0112  0.0430
  680MOL0     C89687   9.777   7.080  11.065  0.2237 -0.2310 -0.8132
  680MOL0     C89688   9.766   7.209  10.988  1.2969 -0.4959 -0.1695
  680MOL0     C89689   9.895   7.283  10.979  0.2424 -0.2991 -0.0830
  680MOL0     C89690   9.896   7.410  10.899 -0.7421 -0.2855 -0.2533
  680MOL0     C89691   9.940   7.406  10.756  0.6142  0.3394 -0.0114
  680MOL0     C89692   9.956   7.392  10.640  0.1071 -0.3669 -0.0575
  680MOL0     C89693   9.796   6.804  11.179  0.8471 -0.4088 -0.3315
  680MOL0     C89694   9.781   6.667  11.228 -0.0164 -1.0083  0.1235
  680MOL0     H89695   9.943   6.134  11.150 -0.3574 -0.8186  0.3405
  680MOL0     H89696   9.864   5.907  11.206  0.6158  1.3851  2.4700
  680MOL0     H89697   9.594   5.663  11.027 -1.6535 -0.4659 -0.0895
  680MOL0     H89698   9.527   5.814  10.989 -3.2106 -1.2739 -0.5463
  680MOL0     H89699   9.378   5.788  11.206  0.4118 -0.4686  0.4005
  680MOL0     H89700   9.413   5.613  11.178  1.7095 -0.7193 -2.0034
  680MOL0     H89701   9.331   5.664  10.923 -1.3644  0.1598 -1.2665
  680MOL0     H89702   9.292   5.820  10.991 -1.8012 -0.2320  0.3502
  680MOL0     H89703   9.187   5.559  11.098 -1.1898  0.3904  2.0356
  680MOL0     H89704   9.138   5.717  11.153 -2.3878  1.8681 -1.6752
  680MOL0     H89705   9.087   5.577  10.893  1.3408  0.5908  0.6124
  680MOL0     H89706   9.054   5.756  10.904  0.0031  1.5488  3.5188
  680MOL0     H89707   8.928   5.692  11.106  1.0388  0.4315 -0.3694
  680MOL0     H89708   8.910   5.522  11.037 -2.6158 -0.2172  0.1284
  680MOL0     H89709   8.835   5.788  10.891  1.7401  1.2662  0.7107
  680MOL0     H89710   8.778   5.616  10.845  0.9571 -1.1833  1.9157
  680MOL0     H89711   8.701   5.781  11.080  0.1499  0.6611 -0.1811
  680MOL0     H89712   8.657   5.606  11.041 -1.1451  0.2206 -1.3308
  680MOL0     H89713   8.540   5.608  10.768  0.9242 -0.0637 -2.3955
  680MOL0     H89714   8.357   5.718  10.597 -1.3160 -1.5541  0.1880
  680MOL0     H89715   8.304   5.880  10.638  3.3327  1.1918  2.7199
  680MOL0     H89716   8.147   5.734  10.802 -0.7984 -1.5210 -0.3773
  680MOL0     H89717   8.152   5.648  10.639 -0.9808  1.3357 -2.9563
  680MOL0     H89718   8.084   5.952  10.672 -4.2182  1.0688 -0.1539
  680MOL0     H89719   8.063   5.848  10.533  0.5168  1.7376  0.0698
  680MOL0     H89720   7.926   5.765  10.793  0.2902  0.6540  0.8746
  680MOL0     H89721   7.889   5.734  10.619 -0.0283 -1.1992  1.0633
  680MOL0     H89722   7.699   6.068  10.537 -2.0284 -2.2275 -3.8381
  680MOL0     H89723   7.469   6.092  10.540  1.6514 -1.2550 -1.9619
  680MOL0     H89724   7.054   5.701  10.752  0.2298 -0.3568 -2.7914
  680MOL0     H89725   6.795   5.699  10.734  0.0344 -0.6867  4.0052
  680MOL0     H89726   6.603   6.089  10.835  2.3215  0.2557 -1.5081
  680MOL0     H89727   6.460   5.996  10.779  0.0388  0.2179 -1.5501
  680MOL0     H89728   6.524   6.050  10.551 -0.3009  0.2182  1.2068
  680MOL0     H89729   6.661   6.151  10.600 -0.1800 -0.0539 -1.5664
  680MOL0     H89730   6.497   6.310  10.717 -1.3236 -2.2134  1.4784
  680MOL0     H89731   6.364   6.202  10.645 -0.6178  0.0257 -0.0671
  680MOL0     H89732   6.579   6.338  10.479  0.6886 -3.8940 -2.1675
  680MOL0     H89733   6.430   6.262  10.417 -1.2951  4.5497 -2.1548
  680MOL0     H89734   6.463   6.519  10.438  2.8300 -1.3701  0.1296
  680MOL0     H89735   6.370   6.493  10.584 -1.1986  0.3857 -0.2889
  680MOL0     H89736   6.179   6.441  10.502 -1.2139  1.8149 -2.1914
  680MOL0     H89737   6.234   6.342  10.372 -0.3174 -0.0921 -2.4349
  680MOL0     H89738   6.224   6.640  10.393 -0.1625 -1.0276  1.0392
  680MOL0     H89739   6.284   6.582  10.251 -2.0840 -0.3613 -0.5347
  680MOL0     H89740   6.006   6.501  10.354  0.5466  1.3005  1.1583
  680MOL0     H89741   6.068   6.434  10.202 -1.2482  0.1943  0.0886
  680MOL0     H89742   6.814   6.132  10.757 -0.5317 -0.3988  1.2002
  680MOL0     H89743   7.049   6.128  10.759 -2.1770  1.7643  5.1109
  680MOL0     H89744   7.441   5.765  10.821  1.7453  0.3025  0.6865
  680MOL0     H89745   7.682   5.753  10.828  0.5748 -0.5479 -0.6545
  680MOL0     H89746   9.479   6.012  11.065 -0.1100  2.4348 -1.1614
  680MOL0     H89747   9.551   6.228  11.021 -3.1164 -3.5055  0.3278
  680MOL0     H89748   9.784   6.540  10.910 -1.2643 -0.0878 -1.3127
  680MOL0     H89749   9.853   6.779  10.862 -0.0231 -2.1164  0.3074
  680MOL0     H89750   9.819   7.096  11.165  0.2439 -0.9001 -0.7108
  680MOL0     H89751   9.674   7.051  11.085  1.2456 -2.3155  2.1797
  680MOL0     H89752   9.750   7.182  10.883 -0.4042 -0.6246  0.0875
  680MOL0     H89753   9.689   7.273  11.032 -0.8966 -2.8821 -0.2716
  680MOL0     H89754   9.962   7.216  10.926 -0.8698 -0.8101 -0.8900
  680MOL0     H89755   9.934   7.303  11.079  1.8335 -1.5945 -0.4033
  680MOL0     H89756   9.798   7.458  10.903 -0.3752  0.3745  2.2389
  680MOL0     H89757   9.948   7.492  10.949 -1.7028 -1.5101  2.9998
  680MOL0     H89758   9.986   7.388  10.537 -0.3123  0.3762 -0.2142
  680MOL0     H89759   9.785   6.883  11.252  0.9081  1.0689 -1.8672
  680MOL0     H89760   9.788   6.643  11.333 -1.2708 -0.7231  0.2862
  681MOL0     O89761   6.738   1.462   5.829  0.1508  1.1256 -0.3824
  681MOL0     C89762   6.667   1.443   5.731  0.3257 -0.5693  0.0667
  681MOL0     O89763   6.552   1.518   5.707 -0.5447 -0.0143  0.6282
  681MOL0     C89764   6.475   1.576   5.808  0.1979 -0.3330 -0.7470
  681MOL0     C89765   6.397   1.692   5.776 -0.1289 -1.3248  0.0026
  681MOL0     C89766   6.306   1.740   5.864  0.6791 -0.4119  0.6390
  681MOL0     C89767   6.281   1.682   5.988 -0.0567  0.1615 -0.7399
  681MOL0     O89768   6.187   1.738   6.068  0.5463  0.5246 -0.6726
  681MOL0     C89769   6.151   1.675   6.191  0.1860  0.3312  0.1767
  681MOL0     C89770   6.034   1.752   6.252 -0.0695 -0.0649 -0.7211
  681MOL0     C89771   6.025   1.711   6.396  0.3005  0.2698 -0.2449
  681MOL0     C89772   5.940   1.806   6.470 -0.5687 -0.4868 -0.3511
  681MOL0     C89773   5.865   1.752   6.587  0.3221  0.8276  0.4517
  681MOL0     C89774   5.755   1.847   6.635 -0.2576  0.3027 -0.9971
  681MOL0     C89775   5.691   1.821   6.770 -0.7089  0.6517  0.3702
  681MOL0     C89776   5.617   1.691   6.755  0.0940  0.5847 -0.1048
  681MOL0     N89777   5.529   1.663   6.875 -1.0014  0.5989  0.1799
  681MOL0     C89778   5.408   1.730   6.884 -1.3330  0.4886 -0.8835
  681MOL0     C89779   5.333   1.650   6.964 -0.2607 -0.3987 -0.0488
  681MOL0     C89780   5.193   1.671   6.999 -0.8977 -0.6239  0.3702
  681MOL0     C89781   5.112   1.582   6.913  0.4715  1.3132 -0.6886
  681MOL0     C89782   5.086   1.645   6.775  0.2849  0.1207 -0.2083
  681MOL0     C89783   5.000   1.768   6.779  0.1643 -0.8070  0.1037
  681MOL0     O89784   4.998   1.811   6.641  0.1706  0.2212 -0.3408
  681MOL0     C89785   5.104   1.884   6.583 -0.0245 -0.5760  0.7874
  681MOL0     C89786   5.199   1.961   6.651 -0.6982  0.2772 -0.7498
  681MOL0     C89787   5.308   2.012   6.572  0.1791 -0.4837  0.0387
  681MOL0     C89788   5.303   2.021   6.429  0.7595  0.1331  0.2572
  681MOL0     C89789   5.412   2.078   6.348  0.4698  0.4513 -0.4074
  681MOL0     O89790   5.508   2.137   6.408  0.8071 -0.1034  0.2443
  681MOL0     C89791   5.609   2.199   6.338  1.1435 -0.3070  0.0512
  681MOL0     C89792   5.594   2.322   6.276  0.4674  0.7079  0.6430
  681MOL0     C89793   5.705   2.378   6.214 -0.1736  0.4467 -0.3569
  681MOL0     C89794   5.836   2.320   6.218  0.9146  0.3463 -0.0030
  681MOL0     O89795   5.954   2.384   6.184 -0.2165 -0.2556 -0.1901
  681MOL0     C89796   5.939   2.512   6.115  0.2899  0.4026 -0.4948
  681MOL0     C89797   6.068   2.558   6.041  0.1785 -0.6551  1.2344
  681MOL0     C89798   6.058   2.700   5.985  0.4894 -0.1211 -0.7204
  681MOL0     C89799   5.955   2.715   5.877 -0.2275  0.1792 -0.2217
  681MOL0     C89800   5.924   2.867   5.843 -0.6226  0.3997 -0.1550
  681MOL0     C89801   5.796   2.902   5.750 -0.5781 -0.4715  0.6144
  681MOL0     C89802   5.673   2.848   5.831 -1.4832 -0.7286  0.1581
  681MOL0     C89803   5.546   2.894   5.749 -1.0376  0.0538 -0.5285
  681MOL0    Cl89804   5.541   3.066   5.809 -0.3674 -0.3091 -0.2201
  681MOL0     C89805   5.849   2.203   6.288 -0.7553  0.8264  0.0809
  681MOL0     C89806   5.730   2.147   6.347 -0.0419 -0.1851 -0.6202
  681MOL0     O89807   5.400   2.064   6.228 -1.0280 -0.0346 -0.6451
  681MOL0     C89808   5.207   1.944   6.368  0.9569  0.1003 -0.0155
  681MOL0     C89809   5.112   1.878   6.445 -1.3797 -0.3035 -0.6743
  681MOL0     N89810   5.409   1.534   6.980  0.2106  0.1419  0.1926
  681MOL0     N89811   5.526   1.541   6.935 -0.8382  0.1793 -0.2293
  681MOL0     C89812   6.356   1.570   6.022  0.2780  0.0638  0.0082
  681MOL0     C89813   6.450   1.516   5.935 -0.6663  0.5572  0.3693
  681MOL0     C89814   6.701   1.340   5.639  0.0470 -0.0766  0.0796
  681MOL0     C89815   6.601   1.293   5.548  0.7726  0.1008  0.3248
  681MOL0     C89816   6.624   1.187   5.457 -0.6651  0.1978  0.1945
  681MOL0     C89817   6.749   1.129   5.444 -0.3429 -0.6390 -0.3789
  681MOL0     O89818   6.766   1.023   5.361 -0.2649  0.1451 -0.8007
  681MOL0     C89819   6.903   0.993   5.312  0.3863 -0.1468  0.5494
  681MOL0     C89820   6.870   0.866   5.231  0.3911  0.3326  0.3163
  681MOL0     C89821   6.846   0.745   5.329 -0.3392 -0.2820  0.2301
  681MOL0     C89822   6.876   0.608   5.254  0.9013 -0.4445 -0.4201
  681MOL0     C89823   6.754   0.526   5.277 -0.7857 -0.2607  0.7727
  681MOL0     C89824   6.654   0.465   5.283  0.2006 -0.9253 -0.1766
  681MOL0     C89825   6.857   1.182   5.522 -0.7638 -1.3707 -0.4113
  681MOL0     C89826   6.830   1.288   5.616  0.5814  0.6732 -0.2967
  681MOL0     H89827   6.400   1.742   5.680  2.7180 -0.6671  0.3588
  681MOL0     H89828   6.226   1.809   5.840 -0.9754 -0.4059  5.2377
  681MOL0     H89829   6.237   1.643   6.251 -0.6373 -2.6104 -0.0440
  681MOL0     H89830   6.117   1.573   6.171  0.5089  0.0553  0.9985
  681MOL0     H89831   5.940   1.730   6.200 -0.4030 -1.6052  0.4672
  681MOL0     H89832   6.057   1.859   6.252  1.2476 -0.3285 -0.3790
  681MOL0     H89833   6.127   1.701   6.433  0.1179  0.6008  0.3558
  681MOL0     H89834   5.974   1.614   6.395 -1.6198  1.1778  1.9936
  681MOL0     H89835   6.001   1.897   6.479  1.9658 -1.5696 -4.1542
  681MOL0     H89836   5.861   1.829   6.398 -0.5095 -0.1922 -0.3239
  681MOL0     H89837   5.940   1.737   6.665  1.2187  0.5742 -0.4305
  681MOL0     H89838   5.821   1.658   6.552  0.5646  0.6510  0.6194
  681MOL0     H89839   5.686   1.859   6.550 -1.4900  1.1152  0.0767
  681MOL0     H89840   5.806   1.944   6.640 -2.4645  1.5441 -1.1296
  681MOL0     H89841   5.757   1.804   6.855  3.6396  1.3067 -2.5505
  681MOL0     H89842   5.618   1.902   6.783  1.2407  2.4116  0.9387
  681MOL0     H89843   5.691   1.612   6.738  1.0586  1.0932  1.5607
  681MOL0     H89844   5.555   1.692   6.665  1.1951 -1.8922 -0.9776
  681MOL0     H89845   5.368   1.825   6.849 -0.3623  0.8517 -1.0439
  681MOL0     H89846   5.155   1.773   6.996 -0.3288 -0.4168 -0.1879
  681MOL0     H89847   5.187   1.635   7.102 -1.4637 -0.4102  0.4150
  681MOL0     H89848   5.029   1.548   6.977  0.7252 -0.4958 -1.2522
  681MOL0     H89849   5.163   1.485   6.903 -2.2908 -0.0895 -2.6751
  681MOL0     H89850   5.182   1.659   6.724  1.2402  1.0178  1.7387
  681MOL0     H89851   5.033   1.563   6.725 -2.9585  1.0495  1.4018
  681MOL0     H89852   5.037   1.850   6.841  1.0173 -0.9019 -0.2621
  681MOL0     H89853   4.900   1.753   6.818 -0.7118  2.6553 -0.4835
  681MOL0     H89854   5.186   1.972   6.758  1.2942  0.2062 -0.4614
  681MOL0     H89855   5.392   2.061   6.619 -1.4592  1.1247  1.4594
  681MOL0     H89856   5.496   2.363   6.251  0.7290  0.0397 -1.8023
  681MOL0     H89857   5.678   2.462   6.151  0.9679  0.5253 -0.7584
  681MOL0     H89858   5.903   2.588   6.185  1.6603 -0.9683  1.8313
  681MOL0     H89859   5.861   2.500   6.039 -0.2771  0.3382  0.0912
  681MOL0     H89860   6.098   2.496   5.956 -0.0755 -0.3035  0.8813
  681MOL0     H89861   6.148   2.571   6.114  2.1822 -0.3501 -0.9085
  681MOL0     H89862   6.152   2.732   5.939  0.8801  1.5992  1.1659
  681MOL0     H89863   6.043   2.773   6.064 -0.9031 -1.0299 -0.1066
  681MOL0     H89864   5.985   2.658   5.789  0.7619 -0.4228  0.4773
  681MOL0     H89865   5.874   2.661   5.926  1.8488 -2.7359  0.2416
  681MOL0     H89866   6.009   2.915   5.795  0.0132 -1.8862 -1.4791
  681MOL0     H89867   5.914   2.910   5.943 -0.2131  0.9936 -0.3632
  681MOL0     H89868   5.812   2.857   5.651 -0.0209 -0.1299  0.5415
  681MOL0     H89869   5.788   3.008   5.724  0.5954 -0.6575 -0.6589
  681MOL0     H89870   5.675   2.739   5.838 -1.3432 -0.9097 -2.0440
  681MOL0     H89871   5.671   2.882   5.935  0.0621 -0.1684  0.0368
  681MOL0     H89872   5.464   2.825   5.769 -1.2588  0.5749  0.4463
  681MOL0     H89873   5.566   2.881   5.642  0.7039 -0.1365 -0.2036
  681MOL0     H89874   5.947   2.159   6.302 -0.8127  0.4089 -0.7623
  681MOL0     H89875   5.734   2.056   6.406  0.9816  1.6306  2.3086
  681MOL0     H89876   5.199   1.928   6.261 -0.7938 -1.9155  0.3319
  681MOL0     H89877   5.049   1.811   6.387  2.9830 -0.9435 -5.3691
  681MOL0     H89878   6.332   1.503   6.103 -0.2394 -1.2069 -1.1490
  681MOL0     H89879   6.504   1.423   5.948 -0.6540  0.4105 -0.6226
  681MOL0     H89880   6.500   1.331   5.536  0.6158 -0.4913 -0.2949
  681MOL0     H89881   6.548   1.157   5.386  0.2575  0.0095 -0.7263
  681MOL0     H89882   6.962   0.977   5.403 -0.7125 -0.2337  1.2664
  681MOL0     H89883   6.936   1.074   5.247 -1.8865 -3.1643 -5.0089
  681MOL0     H89884   6.788   0.880   5.160 -0.4968 -2.0673  0.7679
  681MOL0     H89885   6.949   0.841   5.160  0.5711  0.3962  0.4932
  681MOL0     H89886   6.742   0.763   5.357  0.0515 -0.4304  1.8544
  681MOL0     H89887   6.916   0.766   5.410  2.6200  3.0580 -2.8150
  681MOL0     H89888   6.899   0.623   5.148 -0.0381 -0.1785 -0.5972
  681MOL0     H89889   6.962   0.551   5.290  2.1473 -0.4220 -3.1032
  681MOL0     H89890   6.557   0.421   5.291 -0.4994  0.5880  0.1778
  681MOL0     H89891   6.962   1.157   5.513  0.7563  3.0362  2.3929
  681MOL0     H89892   6.906   1.323   5.685 -0.2228 -0.9390  1.5104
  682MOL0     O89893   0.556   8.796   3.793 -0.2746  0.1607  0.0979
  682MOL0     C89894   0.534   8.734   3.691  0.1325  0.1903  0.5950
  682MOL0     O89895   0.419   8.733   3.608  0.4709 -0.4217 -0.3893
  682MOL0     C89896   0.306   8.804   3.631 -0.0843  0.2732 -0.3136
  682MOL0     C89897   0.268   8.866   3.759  0.4263  0.0681  0.8979
  682MOL0     C89898   0.150   8.932   3.778  1.0553  1.5574  0.5484
  682MOL0     C89899   0.054   8.944   3.682  0.7751  0.9769  0.2260
  682MOL0     O89900  -0.068   9.004   3.711  0.2984 -0.1523 -0.1796
  682MOL0     C89901  -0.176   8.980   3.612 -0.3747  0.9911  0.3759
  682MOL0     C89902  -0.309   9.044   3.660 -1.2697  0.4244  0.1819
  682MOL0     C89903  -0.436   8.950   3.654 -0.3975  0.1333 -0.8480
  682MOL0     C89904  -0.496   8.900   3.525  0.4135  0.2108 -0.4002
  682MOL0     C89905  -0.618   8.815   3.564 -0.1311 -0.6651 -0.4673
  682MOL0     C89906  -0.636   8.697   3.472 -0.6248 -0.8361  0.4988
  682MOL0     C89907  -0.745   8.609   3.540 -0.3376 -0.1836 -0.2655
  682MOL0     C89908  -0.798   8.482   3.458 -0.3575 -1.2817  0.1144
  682MOL0     N89909  -0.694   8.411   3.397  1.0922 -0.1250  0.2921
  682MOL0     C89910  -0.669   8.286   3.433  0.4142  0.1042  0.0137
  682MOL0     C89911  -0.587   8.242   3.332 -0.3678  0.2444 -0.2429
  682MOL0     C89912  -0.505   8.120   3.314  0.1031 -0.4875  0.0908
  682MOL0     C89913  -0.425   8.121   3.180 -0.0219 -0.3240  0.3361
  682MOL0     C89914  -0.335   8.000   3.141 -0.1396  0.0820  0.3960
  682MOL0     C89915  -0.254   8.015   3.006  0.9357 -0.7283  0.3416
  682MOL0     O89916  -0.338   7.985   2.894 -0.2637  1.2210 -0.0725
  682MOL0     C89917  -0.401   7.866   2.886 -0.4340 -0.7950 -0.6129
  682MOL0     C89918  -0.321   7.752   2.868 -1.2736 -0.4212  0.3796
  682MOL0     C89919  -0.392   7.632   2.842 -0.1149  0.7609  0.5477
  682MOL0     C89920  -0.528   7.632   2.831 -0.3275  0.1569  0.0181
  682MOL0     C89921  -0.604   7.514   2.804  0.7065  0.9061 -0.1171
  682MOL0     O89922  -0.737   7.510   2.852  0.1336  0.0676 -0.6992
  682MOL0     C89923  -0.820   7.401   2.843  0.2416  0.1697 -0.6089
  682MOL0     C89924  -0.784   7.269   2.827  0.1146 -0.6764  0.4046
  682MOL0     C89925  -0.884   7.168   2.829  0.2002 -0.7902 -0.2607
  682MOL0     C89926  -1.012   7.197   2.865  0.1859  0.2491 -1.1503
  682MOL0     O89927  -1.114   7.097   2.873  0.1051 -0.3446 -0.0265
  682MOL0     C89928  -1.073   6.961   2.908 -0.8381 -0.0565 -0.1286
  682MOL0     C89929  -1.022   6.951   3.051 -0.3000 -0.4429 -0.2897
  682MOL0     C89930  -0.981   6.801   3.086 -0.0481 -0.3038  0.5697
  682MOL0     C89931  -0.902   6.786   3.210 -0.7273 -0.3552  0.0215
  682MOL0     C89932  -0.755   6.831   3.191 -0.2613 -0.7176  0.0652
  682MOL0     C89933  -0.686   6.856   3.325 -0.3789  0.2805 -0.2312
  682MOL0     C89934  -0.547   6.917   3.310  0.2254 -0.7559  1.1260
  682MOL0     C89935  -0.465   6.933   3.429 -0.7494  0.4745  0.7832
  682MOL0    Cl89936  -0.436   6.765   3.511  0.4552 -0.1618  0.0831
  682MOL0     C89937  -1.047   7.322   2.898 -0.4574 -0.5765  0.5037
  682MOL0     C89938  -0.949   7.423   2.894  0.1653 -0.1095 -0.2510
  682MOL0     O89939  -0.542   7.422   2.745  0.2473  0.3028  0.0201
  682MOL0     C89940  -0.600   7.752   2.865 -0.1664  0.2570 -0.1815
  682MOL0     C89941  -0.541   7.863   2.899  0.4521 -0.7912  0.3721
  682MOL0     N89942  -0.556   8.345   3.250 -0.0631 -0.8171 -0.6816
  682MOL0     N89943  -0.623   8.450   3.285  0.1879 -0.2513 -0.2684
  682MOL0     C89944   0.084   8.888   3.551 -1.1347  1.3218  0.8807
  682MOL0     C89945   0.209   8.824   3.526  1.1285  0.9368  0.3219
  682MOL0     C89946   0.656   8.649   3.652  0.6145 -0.3801 -0.0974
  682MOL0     C89947   0.658   8.585   3.528 -0.2220 -0.4145 -0.3199
  682MOL0     C89948   0.773   8.520   3.484 -0.2584 -0.1253 -0.1553
  682MOL0     C89949   0.887   8.508   3.565 -0.3025  0.8651 -0.6089
  682MOL0     O89950   0.990   8.427   3.532 -0.4521 -0.3173  0.3277
  682MOL0     C89951   0.978   8.282   3.531  0.3451  0.3733  0.7137
  682MOL0     C89952   1.063   8.209   3.640  0.6436  0.2679 -0.2464
  682MOL0     C89953   1.223   8.207   3.611 -0.4699  0.3273 -0.0484
  682MOL0     C89954   1.274   8.338   3.564 -0.0681  0.8060  0.6938
  682MOL0     C89955   1.290   8.436   3.667 -0.8268 -0.6865 -0.1789
  682MOL0     C89956   1.284   8.529   3.753 -0.4672  0.8389 -0.1595
  682MOL0     C89957   0.891   8.578   3.681 -0.2090 -1.2707  0.0005
  682MOL0     C89958   0.776   8.646   3.726  0.4924  0.3948  0.3804
  682MOL0     H89959   0.333   8.844   3.843  1.2232 -1.0243  0.0254
  682MOL0     H89960   0.111   8.947   3.879  0.5476 -1.6836  0.9558
  682MOL0     H89961  -0.193   8.873   3.597  0.8167  0.2766  3.4291
  682MOL0     H89962  -0.146   9.025   3.517 -0.9303 -0.6928 -0.6493
  682MOL0     H89963  -0.330   9.129   3.595  4.3218  1.2606 -1.0119
  682MOL0     H89964  -0.290   9.074   3.764 -0.9934  0.2592  0.1807
  682MOL0     H89965  -0.511   8.999   3.717 -1.9239 -2.7768 -0.2149
  682MOL0     H89966  -0.412   8.870   3.725  1.4981  2.4196  1.2683
  682MOL0     H89967  -0.515   8.984   3.456 -0.5346 -1.0670 -1.7697
  682MOL0     H89968  -0.419   8.839   3.477  1.7841  2.4821 -1.2679
  682MOL0     H89969  -0.708   8.877   3.566  1.1074  1.2317 -0.4643
  682MOL0     H89970  -0.603   8.753   3.653  0.1047 -2.7189 -1.8628
  682MOL0     H89971  -0.540   8.643   3.474  0.3095  0.7398 -0.0860
  682MOL0     H89972  -0.656   8.741   3.374 -1.9292  0.1622  1.1907
  682MOL0     H89973  -0.694   8.566   3.626  3.2184  0.7968 -1.6970
  682MOL0     H89974  -0.836   8.661   3.571 -0.6034 -0.8742  0.1536
  682MOL0     H89975  -0.849   8.521   3.369  2.9687  0.2025 -1.3240
  682MOL0     H89976  -0.869   8.422   3.515 -1.1733 -0.6407 -0.2065
  682MOL0     H89977  -0.713   8.232   3.517 -2.3322 -0.6555 -1.7768
  682MOL0     H89978  -0.564   8.028   3.308 -0.7781  0.0961 -0.3655
  682MOL0     H89979  -0.452   8.108   3.409 -2.1516  1.2259  1.6610
  682MOL0     H89980  -0.343   8.193   3.189  1.3035 -1.3977 -2.0567
  682MOL0     H89981  -0.482   8.140   3.088 -0.0618 -0.9861  0.2181
  682MOL0     H89982  -0.254   7.984   3.212  0.8545  2.0638 -0.2189
  682MOL0     H89983  -0.396   7.909   3.140  2.1383 -1.6586  3.4388
  682MOL0     H89984  -0.173   7.941   3.006  1.5769 -0.2113 -2.9381
  682MOL0     H89985  -0.214   8.116   2.996 -1.1291 -0.0432 -2.3571
  682MOL0     H89986  -0.212   7.747   2.869 -1.2010  0.9623  0.2538
  682MOL0     H89987  -0.329   7.547   2.817  0.4877  1.2198  0.4881
  682MOL0     H89988  -0.686   7.240   2.791  0.1178  1.1610 -1.2612
  682MOL0     H89989  -0.849   7.070   2.798 -1.5546 -1.5091 -0.0809
  682MOL0     H89990  -0.999   6.924   2.836  0.0176  2.0547 -0.4159
  682MOL0     H89991  -1.161   6.898   2.897 -1.4618  0.2396  2.4450
  682MOL0     H89992  -1.094   6.994   3.122 -0.1342 -0.7989  0.0991
  682MOL0     H89993  -0.931   7.011   3.057 -1.2739  1.0648  0.1017
  682MOL0     H89994  -0.933   6.747   3.005  2.5477  1.3173  0.8976
  682MOL0     H89995  -1.077   6.751   3.101 -0.9374  1.2113  0.1683
  682MOL0     H89996  -0.954   6.839   3.290  1.1024  1.0553  0.3375
  682MOL0     H89997  -0.898   6.680   3.238  3.0737 -0.2945  0.1790
  682MOL0     H89998  -0.760   6.919   3.126 -5.9575  0.3365  1.3925
  682MOL0     H89999  -0.708   6.763   3.119 -2.1991 -0.9909 -1.0240
  682MOL0     H90000  -0.680   6.755   3.367 -0.3389 -0.5855 -2.2537
  682MOL0     H90001  -0.744   6.922   3.391 -1.0602 -2.3677  1.9900
  682MOL0     H90002  -0.501   6.839   3.250 -1.3486 -1.1903  0.4174
  682MOL0     H90003  -0.550   7.012   3.256 -2.3866 -0.3146  1.8833
  682MOL0     H90004  -0.509   7.005   3.499  0.9698  0.8513  1.5343
  682MOL0     H90005  -0.373   6.978   3.391 -1.7499  2.6965  0.8051
  682MOL0     H90006  -1.130   7.361   2.956  1.3721  3.4227  0.7816
  682MOL0     H90007  -0.972   7.525   2.922  2.8583  0.6597 -0.5575
  682MOL0     H90008  -0.706   7.765   2.844 -0.6279 -0.9316  1.2266
  682MOL0     H90009  -0.600   7.954   2.895  0.1119 -1.0590 -1.1012
  682MOL0     H90010   0.020   8.902   3.465  1.6875 -0.8239 -1.7911
  682MOL0     H90011   0.227   8.794   3.423  2.1242 -1.2318  1.0696
  682MOL0     H90012   0.564   8.584   3.473 -0.1501 -0.4802 -0.4413
  682MOL0     H90013   0.757   8.465   3.392 -2.1455  1.0839 -0.6121
  682MOL0     H90014   0.999   8.253   3.428 -0.7726  0.5769  0.4180
  682MOL0     H90015   0.877   8.248   3.556  1.6612 -2.9984  2.1633
  682MOL0     H90016   1.042   8.243   3.742 -1.6529 -1.4208 -0.0633
  682MOL0     H90017   1.026   8.106   3.648 -1.9719  0.6458 -4.0777
  682MOL0     H90018   1.236   8.129   3.535 -0.3235  0.8261 -0.5346
  682MOL0     H90019   1.285   8.161   3.688  0.8040 -4.0410 -3.2470
  682MOL0     H90020   1.370   8.317   3.515 -0.1110  1.1945  0.4371
  682MOL0     H90021   1.220   8.378   3.478  1.0963 -2.0288 -1.4809
  682MOL0     H90022   1.282   8.619   3.811 -1.8329  0.5052  0.3537
  682MOL0     H90023   0.986   8.573   3.731 -2.1428  1.5332  4.5597
  682MOL0     H90024   0.793   8.681   3.827  0.9568  1.2528  0.0125
  683MOL0     O90025   9.702   3.064   1.619  0.6078  0.1682  0.1090
  683MOL0     C90026   9.707   3.182   1.658 -0.2636  0.0430  0.2302
  683MOL0     O90027   9.640   3.229   1.768  0.2575  0.1297 -0.1806
  683MOL0     C90028   9.568   3.133   1.823 -0.2643 -0.5257 -0.9014
  683MOL0     C90029   9.619   3.055   1.933  0.8759  0.5588  0.3948
  683MOL0     C90030   9.524   2.965   1.995  0.4146  0.6011 -0.0682
  683MOL0     C90031   9.386   2.962   1.959 -0.3669  0.1627  1.3089
  683MOL0     O90032   9.303   2.875   2.023  0.1924 -0.0698  0.2399
  683MOL0     C90033   9.185   2.934   2.071 -0.2135 -0.3914  0.2451
  683MOL0     C90034   9.059   2.876   2.005  1.4522  0.7925  0.8063
  683MOL0     C90035   8.939   2.937   2.070  0.3243  0.2534  0.8709
  683MOL0     C90036   8.811   2.884   2.003  0.3039  0.0613 -0.2294
  683MOL0     C90037   8.692   2.974   2.022  0.4949  0.4110  0.3449
  683MOL0     C90038   8.645   2.978   2.166  0.7711  0.5746 -0.3493
  683MOL0     C90039   8.492   3.029   2.176 -0.4275  0.0909 -0.7210
  683MOL0     C90040   8.473   3.098   2.316 -0.8093 -0.4686  0.8720
  683MOL0     N90041   8.529   3.236   2.316  0.2882  0.0254 -0.5098
  683MOL0     C90042   8.530   3.318   2.428 -0.0308  0.4453  0.1449
  683MOL0     C90043   8.579   3.435   2.392  0.0424  0.2365  0.4653
  683MOL0     C90044   8.628   3.544   2.474 -1.3084  0.4697 -0.1508
  683MOL0     C90045   8.784   3.521   2.489  0.9948  0.2402 -0.8396
  683MOL0     C90046   8.857   3.623   2.572  0.1231  0.4475  0.0344
  683MOL0     C90047   8.876   3.751   2.491 -0.3336 -0.2554  0.2733
  683MOL0     O90048   8.988   3.724   2.407 -0.5081 -0.6313  0.4365
  683MOL0     C90049   9.102   3.798   2.432 -0.8264 -0.0421  0.0527
  683MOL0     C90050   9.137   3.836   2.561  0.4682  0.0043 -0.4927
  683MOL0     C90051   9.252   3.906   2.586  0.3507 -0.3854 -0.1665
  683MOL0     C90052   9.336   3.941   2.480 -0.6330  0.3682  0.6503
  683MOL0     C90053   9.466   4.013   2.503  0.4887 -0.0353 -0.5754
  683MOL0     O90054   9.502   4.112   2.417 -0.1095 -0.2123 -0.1101
  683MOL0     C90055   9.612   4.192   2.437  0.5536 -0.0016  0.5453
  683MOL0     C90056   9.662   4.257   2.322  0.2658 -0.0710 -0.3743
  683MOL0     C90057   9.776   4.339   2.319  0.3673  0.9934 -0.1914
  683MOL0     C90058   9.869   4.340   2.426  0.3069  0.3288  0.3473
  683MOL0     O90059   9.986   4.415   2.428  0.3319 -0.5404 -0.3706
  683MOL0     C90060  10.012   4.521   2.343 -0.1753 -0.0051 -0.1882
  683MOL0     C90061  10.153   4.572   2.381 -0.0754 -0.4469  0.3591
  683MOL0     C90062  10.261   4.496   2.307  0.4298 -0.1622  0.1361
  683MOL0     C90063  10.398   4.539   2.339  0.8743 -0.9364  0.4897
  683MOL0     C90064  10.429   4.545   2.493 -0.0977 -0.0472 -0.3370
  683MOL0     C90065  10.577   4.585   2.533  0.6471 -0.6749  0.2455
  683MOL0     C90066  10.610   4.581   2.686 -0.2467 -0.5659  0.0438
  683MOL0     C90067  10.752   4.614   2.728  1.1516  0.0139 -0.3768
  683MOL0    Cl90068  10.779   4.668   2.897 -0.0696  0.7738  0.2105
  683MOL0     C90069   9.821   4.270   2.548  0.0604  0.4836  1.3002
  683MOL0     C90070   9.694   4.207   2.548  0.3805 -0.2797 -0.6522
  683MOL0     O90071   9.526   3.982   2.604 -0.2118 -0.0914 -0.0971
  683MOL0     C90072   9.304   3.901   2.351  0.2361  0.7480 -0.3057
  683MOL0     C90073   9.187   3.827   2.327 -0.0964 -0.1133 -0.4757
  683MOL0     N90074   8.609   3.432   2.257 -0.2391 -0.1859  0.5200
  683MOL0     N90075   8.588   3.310   2.214  0.1667  0.3488  0.0653
  683MOL0     C90076   9.343   3.041   1.852  0.3161  0.7632 -0.0241
  683MOL0     C90077   9.431   3.120   1.785 -0.2006  0.4455 -0.0049
  683MOL0     C90078   9.814   3.260   1.598 -0.0379 -0.7391  0.3791
  683MOL0     C90079   9.832   3.388   1.665  0.0583 -0.6879 -0.0005
  683MOL0     C90080   9.922   3.478   1.616  0.2440 -0.2048  0.6853
  683MOL0     C90081  10.003   3.450   1.507 -0.2412  0.3157  0.0339
  683MOL0     O90082  10.101   3.551   1.472 -0.1387 -0.5698 -0.1000
  683MOL0     C90083  10.211   3.520   1.400 -0.5183  0.0516 -0.1620
  683MOL0     C90084  10.238   3.648   1.306  0.4478  1.0211  0.3492
  683MOL0     C90085  10.314   3.750   1.386  0.4779  0.9671 -0.1032
  683MOL0     C90086  10.342   3.871   1.283  0.3465  0.3040  0.2078
  683MOL0     C90087  10.458   3.838   1.202  0.1215 -0.2294 -0.4376
  683MOL0     C90088  10.559   3.808   1.139 -0.2993  0.4011  0.4795
  683MOL0     C90089   9.985   3.333   1.442  0.0979 -0.4303 -0.3984
  683MOL0     C90090   9.898   3.231   1.489 -0.3943 -0.4048  0.7478
  683MOL0     H90091   9.726   3.052   1.951  0.7914 -0.8757  0.7307
  683MOL0     H90092   9.552   2.896   2.074 -1.3357 -0.9021 -0.6660
  683MOL0     H90093   9.191   3.043   2.075  0.4169 -0.4379  0.9260
  683MOL0     H90094   9.174   2.899   2.175 -0.9869 -2.1165 -0.3822
  683MOL0     H90095   9.059   2.767   2.004  0.8309  0.7891 -0.3224
  683MOL0     H90096   9.057   2.900   1.898  0.0917  1.1721  0.8981
  683MOL0     H90097   8.935   3.045   2.057  0.6650  0.3048  1.1682
  683MOL0     H90098   8.935   2.927   2.179  0.8180 -2.9585  0.6871
  683MOL0     H90099   8.838   2.867   1.898  1.5550 -0.1604  0.1119
  683MOL0     H90100   8.775   2.788   2.040 -0.7606  0.1550 -0.9650
  683MOL0     H90101   8.610   2.933   1.962  1.8466 -0.9465 -0.6660
  683MOL0     H90102   8.709   3.077   1.990  1.2318  0.7458  1.7378
  683MOL0     H90103   8.704   3.039   2.235 -2.0687  0.5485  2.2921
  683MOL0     H90104   8.647   2.877   2.208  1.9776  0.1072 -1.4573
  683MOL0     H90105   8.474   3.099   2.093  1.6970  3.2719  1.2788
  683MOL0     H90106   8.426   2.942   2.181  0.1407 -0.2899  0.4557
  683MOL0     H90107   8.527   3.041   2.392  4.3009 -1.3671 -2.8797
  683MOL0     H90108   8.367   3.106   2.340 -0.6750  1.1098  1.0016
  683MOL0     H90109   8.487   3.300   2.526  0.1317 -5.3202 -0.4497
  683MOL0     H90110   8.567   3.554   2.565 -1.7907  1.3291 -0.5608
  683MOL0     H90111   8.599   3.640   2.432 -3.5541 -1.9645 -4.9852
  683MOL0     H90112   8.830   3.514   2.390  1.1351  1.1817 -0.8522
  683MOL0     H90113   8.796   3.423   2.536 -0.5089 -0.7627 -2.4507
  683MOL0     H90114   8.794   3.641   2.660  0.8517  2.4756  0.1706
  683MOL0     H90115   8.959   3.603   2.606  0.7857  2.0064 -0.9214
  683MOL0     H90116   8.890   3.840   2.553  2.5314  1.5205 -2.6140
  683MOL0     H90117   8.788   3.778   2.431  0.4547  0.9409 -0.4004
  683MOL0     H90118   9.083   3.789   2.643  1.2655  2.2574  1.4260
  683MOL0     H90119   9.300   3.927   2.681  1.3791 -2.1054 -0.2634
  683MOL0     H90120   9.600   4.275   2.234 -1.0397 -1.9190  0.1218
  683MOL0     H90121   9.789   4.381   2.219 -1.2974  1.3870 -0.2702
  683MOL0     H90122   9.936   4.599   2.342 -0.2998 -0.0647 -3.0453
  683MOL0     H90123  10.028   4.492   2.239  3.5055  5.4441 -1.6120
  683MOL0     H90124  10.154   4.559   2.490 -0.5647 -0.5438  0.3558
  683MOL0     H90125  10.159   4.680   2.362  2.5428 -0.2857  1.6552
  683MOL0     H90126  10.244   4.510   2.200 -1.2615 -0.0902  0.3836
  683MOL0     H90127  10.255   4.388   2.325 -2.2468  0.1026  1.2304
  683MOL0     H90128  10.458   4.473   2.275  0.8004 -1.2368  0.7283
  683MOL0     H90129  10.416   4.644   2.312 -1.6508 -1.1116 -2.3309
  683MOL0     H90130  10.406   4.443   2.526 -0.5193 -0.2361 -1.1775
  683MOL0     H90131  10.372   4.625   2.541 -1.1879 -0.7454 -0.4124
  683MOL0     H90132  10.599   4.679   2.483 -1.6390  0.2309  0.8225
  683MOL0     H90133  10.644   4.516   2.480  1.0053  0.7884 -1.3003
  683MOL0     H90134  10.559   4.661   2.741 -1.8363 -1.1933 -0.4637
  683MOL0     H90135  10.596   4.481   2.728  1.5273 -1.6055 -1.6507
  683MOL0     H90136  10.782   4.705   2.675 -0.6727  0.7360 -0.2391
  683MOL0     H90137  10.818   4.530   2.704  0.2261 -0.4715 -1.2747
  683MOL0     H90138   9.886   4.251   2.632  1.4030  2.0590  0.6661
  683MOL0     H90139   9.666   4.166   2.644 -1.1968  2.0355 -0.0278
  683MOL0     H90140   9.374   3.909   2.269  3.4757 -3.1134  1.7166
  683MOL0     H90141   9.165   3.794   2.226 -2.6063  0.2085 -0.0790
  683MOL0     H90142   9.243   3.019   1.817  1.0302 -2.1363 -0.4910
  683MOL0     H90143   9.416   3.172   1.691  4.0816  3.2789  0.5612
  683MOL0     H90144   9.768   3.415   1.748  1.8352  1.2173  0.8371
  683MOL0     H90145   9.936   3.570   1.672  0.3598 -0.5396  1.2188
  683MOL0     H90146  10.218   3.434   1.333  2.4825  0.9092 -1.1313
  683MOL0     H90147  10.289   3.503   1.474 -2.1538  0.4640  1.7224
  683MOL0     H90148  10.293   3.615   1.218  2.2261  1.0795  1.3870
  683MOL0     H90149  10.143   3.688   1.271  0.9864 -0.3205 -3.0154
  683MOL0     H90150  10.409   3.712   1.423  0.0959 -0.2762 -0.3404
  683MOL0     H90151  10.258   3.770   1.477  3.9399 -0.1055  2.4495
  683MOL0     H90152  10.258   3.891   1.215  0.2076  0.4750  0.4283
  683MOL0     H90153  10.359   3.956   1.350  0.6884 -1.3714  2.3372
  683MOL0     H90154  10.639   3.777   1.074 -0.2632  0.3435  0.5502
  683MOL0     H90155  10.036   3.315   1.348  1.1186  0.6388 -0.0722
  683MOL0     H90156   9.890   3.134   1.440  0.3289  1.5146 -3.6029
  684MOL0     O90157   9.845  10.517   7.247 -0.3527  0.0470 -0.2404
  684MOL0     C90158   9.787  10.624   7.277 -0.7261  0.9664  0.2464
  684MOL0     O90159   9.824  10.743   7.235  0.2251 -0.3209 -0.8366
  684MOL0     C90160   9.921  10.740   7.144 -0.8052  0.0762 -0.6622
  684MOL0     C90161  10.048  10.696   7.182 -0.6621 -0.8677  0.0602
  684MOL0     C90162  10.150  10.707   7.100 -1.1852 -0.0777  1.5044
  684MOL0     C90163  10.136  10.759   6.971  0.4915  0.0634 -0.0338
  684MOL0     O90164  10.240  10.774   6.883  0.0574  0.7918  0.1987
  684MOL0     C90165  10.308  10.652   6.843 -0.4524  0.7660  0.7018
  684MOL0     C90166  10.432  10.699   6.758  0.9862 -0.4459 -0.2438
  684MOL0     C90167  10.512  10.571   6.703  0.9804  0.4860  0.8837
  684MOL0     C90168  10.610  10.622   6.593  0.1221  0.2823  0.0042
  684MOL0     C90169  10.727  10.527   6.563 -0.0932  0.0591 -0.2780
  684MOL0     C90170  10.836  10.588   6.481  0.8341  0.8089  0.2006
  684MOL0     C90171  10.912  10.491   6.390  0.3846 -0.3542  0.6986
  684MOL0     C90172  11.009  10.554   6.274 -0.7844 -0.1747 -0.4159
  684MOL0     N90173  10.960  10.537   6.139  0.3429  0.0246  0.3624
  684MOL0     C90174  10.844  10.605   6.089 -0.5007  0.8814 -0.8148
  684MOL0     C90175  10.856  10.579   5.955 -0.4619 -0.2597 -0.0959
  684MOL0     C90176  10.751  10.645   5.866 -0.8114  0.0159  0.8843
  684MOL0     C90177  10.816  10.771   5.792 -0.0595  0.5990 -0.0733
  684MOL0     C90178  10.721  10.812   5.668  0.4038 -0.0661  0.0172
  684MOL0     C90179  10.577  10.838   5.710  1.0050  0.7528  0.3255
  684MOL0     O90180  10.567  10.963   5.785  0.2881  0.3008  0.5133
  684MOL0     C90181  10.448  11.024   5.820 -0.2967  0.6826 -0.3658
  684MOL0     C90182  10.320  10.964   5.790  0.2238 -0.9715 -0.2334
  684MOL0     C90183  10.206  11.033   5.820 -0.5690  0.1974 -0.9857
  684MOL0     C90184  10.215  11.159   5.868 -1.7542  0.5104  0.2780
  684MOL0     C90185  10.097  11.237   5.890  0.0835 -0.3138  0.5675
  684MOL0     O90186  10.106  11.366   5.931 -0.1812 -0.7752 -1.3278
  684MOL0     C90187   9.991  11.434   5.911  0.4218 -0.3951  0.6772
  684MOL0     C90188   9.905  11.484   6.007 -0.3628 -1.2475 -0.8008
  684MOL0     C90189   9.787  11.556   5.990  0.6923 -0.0860 -0.4813
  684MOL0     C90190   9.744  11.577   5.858 -0.1930 -0.4801  0.3965
  684MOL0     O90191   9.634  11.647   5.827  0.5391  0.0743 -0.8855
  684MOL0     C90192   9.537  11.547   5.784  0.7723  0.2165 -0.0441
  684MOL0     C90193   9.428  11.612   5.697 -0.0135  0.4692 -0.6878
  684MOL0     C90194   9.313  11.513   5.661 -0.7091 -0.1862  0.1452
  684MOL0     C90195   9.198  11.594   5.599 -0.2597  0.7876  0.0725
  684MOL0     C90196   9.070  11.505   5.571 -0.8212  0.3465 -0.0374
  684MOL0     C90197   8.974  11.589   5.485  0.3677  0.2501  0.5887
  684MOL0     C90198   8.847  11.512   5.451 -0.7053  1.1867  0.4006
  684MOL0     C90199   8.718  11.556   5.504  1.2107 -0.0768 -0.1452
  684MOL0    Cl90200   8.623  11.414   5.543 -0.1135  0.3446  0.3664
  684MOL0     C90201   9.833  11.523   5.755  0.5850  0.1773  0.0604
  684MOL0     C90202   9.950  11.457   5.785  0.4561  0.1367  1.0958
  684MOL0     O90203   9.992  11.180   5.853 -0.4675 -0.3123 -0.1051
  684MOL0     C90204  10.340  11.214   5.899 -0.6038  0.1360 -0.1148
  684MOL0     C90205  10.452  11.147   5.875  0.0155 -0.4764  0.0633
  684MOL0     N90206  10.955  10.483   5.927 -0.0705 -0.5636 -0.3724
  684MOL0     N90207  11.009  10.460   6.042 -1.0189  0.1201 -0.1780
  684MOL0     C90208  10.009  10.807   6.932 -0.0307 -0.3105  0.3559
  684MOL0     C90209   9.895  10.795   7.018 -1.0281  0.1326 -0.2067
  684MOL0     C90210   9.679  10.606   7.370 -0.3619  0.2628  0.0744
  684MOL0     C90211   9.576  10.697   7.370 -0.6968 -0.3609  0.7805
  684MOL0     C90212   9.471  10.692   7.461 -0.6361  0.2702 -0.6500
  684MOL0     C90213   9.455  10.582   7.547  0.7851 -0.8737  0.2489
  684MOL0     O90214   9.353  10.584   7.644 -0.5498  0.3160  0.5817
  684MOL0     C90215   9.312  10.468   7.720 -0.3829 -0.8173  0.0716
  684MOL0     C90216   9.197  10.509   7.820  0.2380 -0.0718 -0.3372
  684MOL0     C90217   9.132  10.376   7.893  0.6684  0.6241 -0.2467
  684MOL0     C90218   9.023  10.411   7.993  1.1487 -0.4470  0.3235
  684MOL0     C90219   8.888  10.391   7.935  0.3906 -0.1740  0.2165
  684MOL0     C90220   8.785  10.397   7.868 -0.7092 -0.9784 -0.1170
  684MOL0     C90221   9.547  10.478   7.535 -0.1342 -0.4912  0.8483
  684MOL0     C90222   9.659  10.491   7.452 -1.0549 -0.0959 -0.1831
  684MOL0     H90223  10.051  10.657   7.283 -1.9516 -0.5943  0.2235
  684MOL0     H90224  10.253  10.675   7.117 -0.8553 -0.5293 -1.0054
  684MOL0     H90225  10.240  10.587   6.787  1.4452 -0.7984  0.1253
  684MOL0     H90226  10.342  10.595   6.929 -4.5760 -1.6962  0.9856
  684MOL0     H90227  10.513  10.760   6.798  2.2850 -0.1664 -3.0611
  684MOL0     H90228  10.381  10.744   6.672 -0.8403 -0.9009  0.5707
  684MOL0     H90229  10.432  10.509   6.662  0.3504  2.1038 -0.4426
  684MOL0     H90230  10.556  10.506   6.779  4.0649  0.7685 -0.5237
  684MOL0     H90231  10.567  10.651   6.496  0.9306 -1.6982 -1.0193
  684MOL0     H90232  10.668  10.712   6.612  3.8693 -1.6874 -0.9386
  684MOL0     H90233  10.686  10.436   6.519 -0.9660  0.6201 -0.6535
  684MOL0     H90234  10.777  10.502   6.657  0.2862 -0.2029 -0.5473
  684MOL0     H90235  10.906  10.634   6.552 -2.4214  3.8324  1.7686
  684MOL0     H90236  10.792  10.664   6.415 -0.0405 -2.8165 -3.8155
  684MOL0     H90237  10.976  10.424   6.448 -1.5717 -2.6717  0.3621
  684MOL0     H90238  10.836  10.437   6.333  0.1861  0.8917 -0.2683
  684MOL0     H90239  11.108  10.510   6.288 -0.5019  0.0650 -1.5742
  684MOL0     H90240  11.023  10.657   6.310  1.1578 -0.8198  0.8139
  684MOL0     H90241  10.794  10.682   6.147 -1.7584  0.2475 -1.0141
  684MOL0     H90242  10.662  10.676   5.921 -0.7470 -0.1288  1.0681
  684MOL0     H90243  10.722  10.576   5.786  0.0440 -1.1821  1.5837
  684MOL0     H90244  10.910  10.728   5.755 -0.9202 -0.8030 -0.7053
  684MOL0     H90245  10.829  10.852   5.864  5.2597  0.4370 -0.4354
  684MOL0     H90246  10.764  10.897   5.615  1.1618  1.1125  2.4104
  684MOL0     H90247  10.716  10.730   5.595 -2.0672  1.1111 -1.2368
  684MOL0     H90248  10.523  10.755   5.758 -1.5545  2.0336 -0.1990
  684MOL0     H90249  10.514  10.839   5.621 -1.6903  1.5857  2.1173
  684MOL0     H90250  10.308  10.864   5.750  0.7617 -1.5311  0.9458
  684MOL0     H90251  10.119  10.970   5.799  1.1714 -2.9105  0.4000
  684MOL0     H90252   9.941  11.464   6.107  1.4687  0.6497 -1.0278
  684MOL0     H90253   9.727  11.593   6.072  2.8443  0.7875  0.7923
  684MOL0     H90254   9.485  11.516   5.875  2.5618  1.7844  1.5837
  684MOL0     H90255   9.577  11.463   5.728  5.0839  0.6974  1.9316
  684MOL0     H90256   9.484  11.634   5.605  1.3228 -3.3723 -0.9831
  684MOL0     H90257   9.389  11.696   5.755 -1.0220 -0.2935 -0.2429
  684MOL0     H90258   9.279  11.465   5.754  1.8630 -3.3041 -0.3797
  684MOL0     H90259   9.347  11.430   5.599 -1.0046 -0.3905  0.2577
  684MOL0     H90260   9.178  11.677   5.668 -1.8287  0.1137  0.4700
  684MOL0     H90261   9.236  11.627   5.501 -0.0139  0.3444  0.0166
  684MOL0     H90262   9.027  11.473   5.666  1.1910 -2.2230  0.1149
  684MOL0     H90263   9.117  11.416   5.529 -0.9541 -0.1096  0.7555
  684MOL0     H90264   9.021  11.638   5.399  1.8040 -0.3594  1.0050
  684MOL0     H90265   8.935  11.671   5.547 -3.4284 -1.2185  0.4452
  684MOL0     H90266   8.827  11.512   5.343 -3.8432  2.9675  0.8464
  684MOL0     H90267   8.855  11.412   5.495  2.9174  0.9377 -0.4732
  684MOL0     H90268   8.659  11.616   5.434  0.6336 -0.1849  0.2461
  684MOL0     H90269   8.722  11.604   5.602 -2.4363  0.0220  0.0719
  684MOL0     H90270   9.817  11.535   5.648 -0.3108  2.9352  0.4072
  684MOL0     H90271  10.009  11.425   5.700  0.7546  1.8661  0.6112
  684MOL0     H90272  10.351  11.313   5.943  0.8943 -0.1363  0.1777
  684MOL0     H90273  10.551  11.186   5.900  0.5741 -1.2525 -0.8529
  684MOL0     H90274  10.002  10.857   6.836  0.5259  0.9094  0.9383
  684MOL0     H90275   9.797  10.827   6.982 -1.6079 -2.9276 -1.7552
  684MOL0     H90276   9.570  10.784   7.305 -1.3733 -0.6157  0.4938
  684MOL0     H90277   9.410  10.781   7.474 -1.7246 -0.5881  0.4040
  684MOL0     H90278   9.407  10.450   7.771  0.3487  1.8774 -0.2140
  684MOL0     H90279   9.284  10.382   7.658 -0.5840 -1.2638  0.7632
  684MOL0     H90280   9.240  10.576   7.895 -1.0741  0.5802 -0.1487
  684MOL0     H90281   9.117  10.565   7.771 -1.5492 -2.5628 -0.4837
  684MOL0     H90282   9.212  10.332   7.954  2.7228  3.1571 -0.9463
  684MOL0     H90283   9.097  10.301   7.821 -0.0023 -1.1381  1.8092
  684MOL0     H90284   9.020  10.348   8.082  1.1876  0.7679  1.2162
  684MOL0     H90285   9.025  10.517   8.019  0.1048  0.3294 -2.4233
  684MOL0     H90286   8.695  10.402   7.811 -0.9982 -2.8348  0.1217
  684MOL0     H90287   9.533  10.382   7.583 -2.5961 -0.8424 -0.4106
  684MOL0     H90288   9.728  10.407   7.457  0.0386  0.7989  0.4870
  685MOL0     O90289   1.765   1.332   0.425 -0.2682  0.0555 -0.0884
  685MOL0     C90290   1.765   1.263   0.530 -0.5576  0.2049  0.6070
  685MOL0     O90291   1.658   1.236   0.617 -0.1575 -0.1841 -0.2611
  685MOL0     C90292   1.544   1.321   0.639  0.0468 -0.7991 -0.2911
  685MOL0     C90293   1.475   1.316   0.757  0.5168  0.7802 -0.4016
  685MOL0     C90294   1.364   1.395   0.792  0.4212  0.4874 -1.0610
  685MOL0     C90295   1.305   1.476   0.698 -0.7687  0.6293 -0.1588
  685MOL0     O90296   1.184   1.545   0.713  0.4607 -0.0933  0.3363
  685MOL0     C90297   1.106   1.518   0.832 -0.2155  0.0344  0.1479
  685MOL0     C90298   0.969   1.599   0.812 -0.3395  0.3421  0.2042
  685MOL0     C90299   0.997   1.743   0.785 -0.5363 -0.5156 -0.4324
  685MOL0     C90300   1.056   1.804   0.918  0.1849  0.1059 -0.6122
  685MOL0     C90301   1.093   1.946   0.912 -0.0395  0.1432 -0.1169
  685MOL0     C90302   1.196   1.993   0.811 -0.9168  0.0032 -0.2445
  685MOL0     C90303   1.322   1.898   0.803  0.3178  0.3765 -0.4612
  685MOL0     C90304   1.438   1.959   0.713  0.7873  0.1907 -0.0068
  685MOL0     N90305   1.571   1.887   0.719  0.2848 -0.1385  1.0402
  685MOL0     C90306   1.611   1.774   0.651  0.3919  0.5042  0.4735
  685MOL0     C90307   1.754   1.773   0.656 -0.9362  0.7148  0.0894
  685MOL0     C90308   1.839   1.650   0.598 -0.4345 -0.9830 -0.3830
  685MOL0     C90309   1.932   1.579   0.695  0.2363  0.2725 -0.0338
  685MOL0     C90310   1.855   1.499   0.790 -0.2262  0.8131 -0.0227
  685MOL0     C90311   1.948   1.397   0.862  0.4128  0.5079  1.3906
  685MOL0     O90312   1.860   1.293   0.918 -0.1865  0.4685 -0.3226
  685MOL0     C90313   1.914   1.190   0.997 -0.3658 -0.1199  0.1253
  685MOL0     C90314   2.053   1.170   1.011 -0.3163 -0.2006 -0.0122
  685MOL0     C90315   2.095   1.059   1.073  0.1585 -0.0953  0.3967
  685MOL0     C90316   2.019   0.965   1.132  0.7277 -0.3146 -0.0743
  685MOL0     C90317   2.073   0.850   1.209 -0.9442  1.3044  0.0280
  685MOL0     O90318   2.217   0.841   1.228 -0.1113  0.3433  0.0484
  685MOL0     C90319   2.291   0.734   1.277  0.1339  0.0401 -0.2678
  685MOL0     C90320   2.247   0.601   1.299 -0.2954  0.3266 -0.4817
  685MOL0     C90321   2.348   0.504   1.332 -0.1735 -0.8259  0.1403
  685MOL0     C90322   2.485   0.549   1.351  0.3464  0.1668  0.2570
  685MOL0     O90323   2.592   0.467   1.379 -0.1904 -0.2657  0.6811
  685MOL0     C90324   2.592   0.331   1.330 -0.1668  1.0112 -0.2512
  685MOL0     C90325   2.731   0.263   1.363 -0.1677  0.2239 -0.0210
  685MOL0     C90326   2.760   0.276   1.516 -1.2418 -1.0247 -0.2666
  685MOL0     C90327   2.893   0.214   1.547  0.3829 -0.2030  0.3066
  685MOL0     C90328   2.946   0.248   1.686  0.0576 -0.5825  0.5699
  685MOL0     C90329   3.088   0.183   1.701 -0.4373  0.3288  0.3663
  685MOL0     C90330   3.195   0.266   1.648 -0.5509 -0.1839  0.5396
  685MOL0     C90331   3.332   0.213   1.661 -0.8787  0.3999 -0.0985
  685MOL0    Cl90332   3.365   0.116   1.525  0.1091 -0.4466  0.1771
  685MOL0     C90333   2.518   0.679   1.334 -0.2035  0.1930  0.1116
  685MOL0     C90334   2.423   0.769   1.297 -0.3779 -0.4477 -0.5657
  685MOL0     O90335   1.992   0.766   1.249  0.7577  0.0739  0.5814
  685MOL0     C90336   1.880   0.977   1.112 -0.0182  0.2593  0.2346
  685MOL0     C90337   1.826   1.092   1.044  0.6439  0.4982  0.7002
  685MOL0     N90338   1.793   1.867   0.747  0.6792  0.3536  0.1295
  685MOL0     N90339   1.683   1.939   0.780 -0.4416 -0.1753  1.1154
  685MOL0     C90340   1.375   1.488   0.588 -0.2153 -0.9294  0.5936
  685MOL0     C90341   1.495   1.418   0.550 -0.1200 -0.4560  0.1442
  685MOL0     C90342   1.896   1.192   0.542  0.2924  0.2291 -0.2988
  685MOL0     C90343   2.002   1.204   0.452  0.4005 -0.0122  0.1344
  685MOL0     C90344   2.127   1.132   0.461  0.0576  0.5120 -0.6894
  685MOL0     C90345   2.146   1.039   0.568  0.3776  0.2283 -0.5658
  685MOL0     O90346   2.256   0.960   0.578 -0.2145  0.3296  0.0440
  685MOL0     C90347   2.342   0.947   0.459 -0.4764  0.3278 -0.2642
  685MOL0     C90348   2.432   0.828   0.479  0.4376 -0.3554 -0.3991
  685MOL0     C90349   2.523   0.785   0.365  0.3614  0.1876  0.3718
  685MOL0     C90350   2.639   0.694   0.416  0.7377 -0.7166 -0.6297
  685MOL0     C90351   2.597   0.595   0.511  0.5989  0.0109 -0.3449
  685MOL0     C90352   2.561   0.507   0.586  0.1985 -0.3483 -1.0496
  685MOL0     C90353   2.039   1.035   0.663  0.3870 -0.3255  0.1145
  685MOL0     C90354   1.919   1.109   0.655 -1.1164  0.1627  0.4678
  685MOL0     H90355   1.512   1.254   0.839 -0.3331  0.0544 -0.5556
  685MOL0     H90356   1.315   1.391   0.889 -1.6390  2.1627 -1.9363
  685MOL0     H90357   1.152   1.564   0.920 -0.7136 -1.0103  0.9765
  685MOL0     H90358   1.087   1.410   0.832 -2.3819  0.3722  1.5598
  685MOL0     H90359   0.917   1.589   0.908  0.3181  2.5861  0.8823
  685MOL0     H90360   0.908   1.561   0.730  1.4942  1.1715 -1.6625
  685MOL0     H90361   0.909   1.805   0.766  0.1892  1.5216  2.2387
  685MOL0     H90362   1.066   1.757   0.702 -0.0829  0.9067  0.1664
  685MOL0     H90363   0.978   1.797   0.995 -1.6343 -1.0106 -2.4405
  685MOL0     H90364   1.140   1.748   0.958  0.0344 -0.2465 -0.7912
  685MOL0     H90365   1.138   1.978   1.007  0.3669 -0.8080  0.0162
  685MOL0     H90366   0.996   1.995   0.905  0.5979  1.5085  0.2803
  685MOL0     H90367   1.243   2.084   0.851 -1.0199 -0.9197  2.1846
  685MOL0     H90368   1.146   2.003   0.715 -3.2242 -2.9578  0.5078
  685MOL0     H90369   1.356   1.878   0.905  0.2282 -2.1699 -0.8652
  685MOL0     H90370   1.295   1.804   0.753  2.5712 -0.0507 -0.9702
  685MOL0     H90371   1.451   2.059   0.755 -2.3890  0.2171  1.1429
  685MOL0     H90372   1.403   1.968   0.610  1.6391 -1.4926 -0.4839
  685MOL0     H90373   1.546   1.703   0.601  1.9688 -0.1759 -0.7008
  685MOL0     H90374   1.898   1.688   0.514 -2.3220  2.2203 -0.4398
  685MOL0     H90375   1.766   1.583   0.551 -1.4596  0.2334 -0.5695
  685MOL0     H90376   1.991   1.656   0.746  0.4865 -0.4275  0.7413
  685MOL0     H90377   1.995   1.522   0.625  1.0261 -1.3443  1.9053
  685MOL0     H90378   1.822   1.557   0.876  4.5937  0.8532  2.0918
  685MOL0     H90379   1.768   1.443   0.753  1.5130 -1.5046 -0.8818
  685MOL0     H90380   2.001   1.444   0.946 -2.0711  0.7872  2.9095
  685MOL0     H90381   2.008   1.350   0.784  0.7288  2.2562  0.5123
  685MOL0     H90382   2.139   1.231   0.987  0.3541 -0.6656  1.0958
  685MOL0     H90383   2.203   1.050   1.083  0.6740  1.6642 -2.4348
  685MOL0     H90384   2.147   0.578   1.265  0.3150  3.6343 -5.7780
  685MOL0     H90385   2.325   0.399   1.345  2.6437 -1.4274  1.0207
  685MOL0     H90386   2.580   0.325   1.221  0.0488  0.0796 -0.2318
  685MOL0     H90387   2.510   0.276   1.378 -4.1712  2.0124 -5.0968
  685MOL0     H90388   2.814   0.300   1.303  1.8424 -3.8860 -0.1638
  685MOL0     H90389   2.716   0.156   1.342  1.8635 -0.4151  1.4556
  685MOL0     H90390   2.688   0.237   1.590  0.1145 -0.8396  1.2097
  685MOL0     H90391   2.775   0.383   1.535  1.7940 -1.8011  2.6071
  685MOL0     H90392   2.877   0.105   1.543 -0.3112 -0.1333  1.0921
  685MOL0     H90393   2.970   0.237   1.472 -1.5235  0.2704 -1.6020
  685MOL0     H90394   2.881   0.206   1.763 -0.2828  0.8254  1.0783
  685MOL0     H90395   2.963   0.355   1.700  2.7458 -0.9923  0.9200
  685MOL0     H90396   3.088   0.093   1.639 -1.9402  0.8047 -0.3736
  685MOL0     H90397   3.098   0.154   1.806  2.4643  0.9842  0.3693
  685MOL0     H90398   3.180   0.307   1.547  0.2048  2.6914  1.5110
  685MOL0     H90399   3.190   0.357   1.708 -2.9754 -1.1716  2.0035
  685MOL0     H90400   3.355   0.173   1.760  1.3375  1.3827 -0.1515
  685MOL0     H90401   3.406   0.293   1.654  0.2951 -0.3471  2.4395
  685MOL0     H90402   2.622   0.707   1.345  0.6935 -2.3656 -0.9939
  685MOL0     H90403   2.461   0.870   1.285  0.9676 -0.9009 -0.3893
  685MOL0     H90404   1.819   0.900   1.157 -2.8035  1.0086 -1.9973
  685MOL0     H90405   1.719   1.100   1.031  0.5053 -2.0409 -0.5253
  685MOL0     H90406   1.349   1.564   0.515  0.2925  0.1158  1.4806
  685MOL0     H90407   1.555   1.431   0.461 -0.1779 -0.1164  0.1534
  685MOL0     H90408   1.976   1.265   0.366 -1.6578  0.1917  0.8397
  685MOL0     H90409   2.201   1.138   0.382 -0.8577  0.8867 -1.5537
  685MOL0     H90410   2.396   1.041   0.453  3.2108 -1.5185  1.0349
  685MOL0     H90411   2.276   0.926   0.374  1.7300 -4.6772 -1.1348
  685MOL0     H90412   2.497   0.846   0.565  2.2830 -1.4148 -1.5333
  685MOL0     H90413   2.368   0.743   0.504  1.3377 -1.3417 -1.3706
  685MOL0     H90414   2.573   0.873   0.322  1.1451 -0.6144 -0.4201
  685MOL0     H90415   2.466   0.739   0.284  0.3987  0.5449  0.1363
  685MOL0     H90416   2.701   0.663   0.331  2.8565 -1.7910  1.2147
  685MOL0     H90417   2.716   0.751   0.468  0.5208 -0.1652 -0.9044
  685MOL0     H90418   2.523   0.432   0.653  1.0074  1.2794  1.3494
  685MOL0     H90419   2.033   0.963   0.743 -2.0424 -3.1630 -2.3534
  685MOL0     H90420   1.834   1.094   0.720 -1.6061 -1.1178 -0.4303
  686MOL0     O90421   0.498   7.384   3.731  0.9015  0.3297 -0.4211
  686MOL0     C90422   0.429   7.446   3.818  0.7178 -0.2003  0.7151
  686MOL0     O90423   0.458   7.476   3.942 -0.7120  0.2024 -0.1710
  686MOL0     C90424   0.586   7.450   3.988 -0.5237 -1.3595 -0.5902
  686MOL0     C90425   0.600   7.388   4.115 -0.0377  0.9729  1.5203
  686MOL0     C90426   0.722   7.375   4.175  0.1090 -0.7284 -0.8937
  686MOL0     C90427   0.835   7.427   4.115 -1.0224 -0.4584 -0.4795
  686MOL0     O90428   0.964   7.419   4.163  0.2990  0.1498  0.2167
  686MOL0     C90429   0.973   7.333   4.273  0.4215 -0.5922 -0.5168
  686MOL0     C90430   1.121   7.292   4.286 -1.1189  0.0921 -0.7652
  686MOL0     C90431   1.155   7.247   4.432  1.0795  1.0326 -0.2827
  686MOL0     C90432   1.295   7.192   4.435 -0.3307 -0.0532  0.9804
  686MOL0     C90433   1.327   7.142   4.573  1.0081 -0.3486 -0.5383
  686MOL0     C90434   1.368   7.255   4.672 -0.1363 -0.4307  1.0274
  686MOL0     C90435   1.413   7.190   4.803  0.5959 -0.9596  0.2388
  686MOL0     C90436   1.440   7.290   4.930  0.3583  0.2188 -0.8156
  686MOL0     N90437   1.459   7.210   5.040 -0.3481  0.4003 -0.2858
  686MOL0     C90438   1.580   7.180   5.090  0.6824 -0.4175  0.4776
  686MOL0     C90439   1.551   7.106   5.204  0.0667 -0.4153  0.3007
  686MOL0     C90440   1.663   7.050   5.286  0.2619  0.3879  0.0858
  686MOL0     C90441   1.735   7.159   5.375 -0.3523 -0.0981  0.4037
  686MOL0     C90442   1.637   7.267   5.427 -0.7039  0.3840 -0.0161
  686MOL0     C90443   1.722   7.375   5.494  0.4403  0.6692  1.1613
  686MOL0     O90444   1.843   7.349   5.564 -0.8780  0.1532  0.2207
  686MOL0     C90445   1.843   7.279   5.683 -1.0407  0.1854 -0.1234
  686MOL0     C90446   1.723   7.230   5.745 -0.0238  0.0920  0.1337
  686MOL0     C90447   1.729   7.161   5.867 -0.4509 -0.3505  0.6331
  686MOL0     C90448   1.854   7.156   5.939  1.3925  0.1441  0.5652
  686MOL0     C90449   1.855   7.102   6.075  0.7440 -0.3312  0.0277
  686MOL0     O90450   1.743   7.057   6.140  0.0417 -0.4914 -0.0133
  686MOL0     C90451   1.769   6.952   6.221  0.2987  0.5874 -0.2357
  686MOL0     C90452   1.725   6.964   6.350 -0.3382 -0.4297 -1.8534
  686MOL0     C90453   1.737   6.850   6.437 -0.2843  0.0279  0.8078
  686MOL0     C90454   1.817   6.746   6.396 -0.0932 -0.7904 -0.2341
  686MOL0     O90455   1.829   6.632   6.482  0.0866 -0.5250  1.4264
  686MOL0     C90456   1.950   6.561   6.490  0.5359  0.3190  0.1081
  686MOL0     C90457   1.960   6.462   6.614  0.1042 -0.5240 -0.8343
  686MOL0     C90458   2.097   6.386   6.626  0.4343 -0.1527  0.6971
  686MOL0     C90459   2.115   6.293   6.744  1.0551 -0.3885  0.4877
  686MOL0     C90460   2.115   6.366   6.868 -0.0865  0.9220 -1.0411
  686MOL0     C90461   1.979   6.345   6.936 -0.5047  0.0390 -0.5705
  686MOL0     C90462   1.948   6.210   7.003  0.1282  0.1022  0.0928
  686MOL0     C90463   1.809   6.219   7.083 -0.5598 -0.1598  0.3534
  686MOL0    Cl90464   1.862   6.308   7.238  0.4913  0.3363 -0.2585
  686MOL0     C90465   1.883   6.743   6.274  0.2353 -0.7646 -0.8485
  686MOL0     C90466   1.848   6.842   6.177  0.2900  1.1918 -0.3194
  686MOL0     O90467   1.968   7.099   6.127  0.6059  0.2359 -0.4602
  686MOL0     C90468   1.973   7.201   5.879 -0.0845 -0.1830 -0.6995
  686MOL0     C90469   1.968   7.254   5.746 -0.0145  0.6559 -0.3129
  686MOL0     N90470   1.414   7.097   5.222  0.3102 -0.8614  0.3283
  686MOL0     N90471   1.368   7.170   5.133 -0.1374 -0.6329 -0.2513
  686MOL0     C90472   0.825   7.490   3.989  0.6678 -0.2225  0.4901
  686MOL0     C90473   0.700   7.508   3.927 -0.1009  0.7141 -0.3527
  686MOL0     C90474   0.294   7.486   3.760  1.0410 -0.8578  0.9051
  686MOL0     C90475   0.275   7.522   3.626  0.0035 -0.1207  0.1032
  686MOL0     C90476   0.158   7.590   3.588  0.5859  0.6289 -0.4540
  686MOL0     C90477   0.047   7.605   3.688 -1.3702 -1.0356  0.2813
  686MOL0     O90478  -0.065   7.670   3.631  0.5052  0.1991  0.9957
  686MOL0     C90479  -0.190   7.619   3.676  0.6290  1.0924 -0.4602
  686MOL0     C90480  -0.302   7.615   3.570  0.0087 -0.9938 -0.6419
  686MOL0     C90481  -0.307   7.753   3.496  0.3154 -0.5040  0.7062
  686MOL0     C90482  -0.400   7.773   3.380  0.2934  0.1077  0.1736
  686MOL0     C90483  -0.537   7.746   3.430  0.3111 -0.3923 -0.6329
  686MOL0     C90484  -0.651   7.723   3.473 -0.6422 -0.8246  0.3918
  686MOL0     C90485   0.066   7.569   3.810  0.4063 -0.3630  0.7385
  686MOL0     C90486   0.181   7.511   3.851 -0.2314 -0.2559  0.2566
  686MOL0     H90487   0.512   7.367   4.174 -0.6259 -1.1903 -0.0148
  686MOL0     H90488   0.719   7.315   4.265 -1.4366  2.4643  1.4038
  686MOL0     H90489   0.923   7.236   4.266  2.1063 -1.4708 -1.1372
  686MOL0     H90490   0.951   7.389   4.364  2.3929 -2.7087  1.3883
  686MOL0     H90491   1.184   7.378   4.262 -2.5599  0.6917 -2.6640
  686MOL0     H90492   1.133   7.214   4.211 -2.3662  1.2973 -2.2914
  686MOL0     H90493   1.095   7.159   4.457  2.7414  0.3077  1.3951
  686MOL0     H90494   1.130   7.323   4.507  3.5494  0.6625  1.0236
  686MOL0     H90495   1.308   7.110   4.363 -1.7732  2.4655 -2.4073
  686MOL0     H90496   1.365   7.269   4.401  1.4335 -2.3906 -1.0907
  686MOL0     H90497   1.410   7.072   4.562 -0.7687 -2.3591 -2.1028
  686MOL0     H90498   1.251   7.077   4.617  2.2475 -2.8603 -1.8767
  686MOL0     H90499   1.288   7.327   4.692 -0.5758 -0.5647 -0.1411
  686MOL0     H90500   1.457   7.307   4.634  1.2459 -2.5135  1.2591
  686MOL0     H90501   1.335   7.116   4.825 -0.8812  0.4845  0.1075
  686MOL0     H90502   1.510   7.142   4.791 -0.5783 -2.6905 -3.9990
  686MOL0     H90503   1.364   7.366   4.950 -1.7400 -1.3755 -2.1965
  686MOL0     H90504   1.537   7.339   4.925 -0.4879  2.0275 -0.2989
  686MOL0     H90505   1.681   7.219   5.081  0.8511 -1.3897 -3.3094
  686MOL0     H90506   1.741   7.007   5.223 -1.2371 -0.2067 -1.4538
  686MOL0     H90507   1.606   6.982   5.349 -0.6835  1.4531  0.4127
  686MOL0     H90508   1.814   7.207   5.317  1.1512 -2.5646  0.2381
  686MOL0     H90509   1.786   7.102   5.453  0.7268 -2.1059 -1.6391
  686MOL0     H90510   1.590   7.320   5.344 -0.4280  2.5190  1.1076
  686MOL0     H90511   1.555   7.227   5.488 -0.8889  0.9829  0.1301
  686MOL0     H90512   1.653   7.429   5.559  1.0163  0.5840  1.8527
  686MOL0     H90513   1.744   7.450   5.417 -2.8658  1.4410  0.7938
  686MOL0     H90514   1.631   7.250   5.692  0.3650 -2.0224 -1.4847
  686MOL0     H90515   1.636   7.138   5.918  0.4638  0.8991  3.0023
  686MOL0     H90516   1.666   7.048   6.384  2.1257  0.9013 -0.5806
  686MOL0     H90517   1.684   6.824   6.528 -0.9286 -3.2909 -0.3859
  686MOL0     H90518   2.024   6.640   6.506  0.4938  0.2714  0.5694
  686MOL0     H90519   1.967   6.520   6.390 -0.8678  0.1833 -0.0949
  686MOL0     H90520   1.880   6.387   6.620  0.2876 -0.6737 -0.1136
  686MOL0     H90521   1.953   6.531   6.698  1.5243  1.3739 -2.2132
  686MOL0     H90522   2.175   6.462   6.617 -0.6573  0.7958 -1.8667
  686MOL0     H90523   2.106   6.323   6.536  0.6077 -1.3771  1.5503
  686MOL0     H90524   2.035   6.220   6.753 -3.1512  3.6828  0.1001
  686MOL0     H90525   2.205   6.234   6.730  0.3563 -1.1427 -1.1095
  686MOL0     H90526   2.128   6.475   6.866 -0.7847  1.1300  2.0212
  686MOL0     H90527   2.200   6.332   6.926  3.4442  4.0187 -3.8501
  686MOL0     H90528   1.898   6.368   6.867 -1.7964  1.1186  1.2268
  686MOL0     H90529   1.977   6.409   7.025 -1.3624 -2.5962  1.4221
  686MOL0     H90530   1.942   6.130   6.928 -3.4800  2.5186 -2.5320
  686MOL0     H90531   2.031   6.206   7.073 -0.7855 -0.6765  1.1713
  686MOL0     H90532   1.767   6.121   7.107 -1.1199  0.7286  3.4698
  686MOL0     H90533   1.732   6.280   7.036  0.4554  0.4824 -0.5348
  686MOL0     H90534   1.950   6.665   6.239  2.0353  1.2074 -2.0312
  686MOL0     H90535   1.903   6.835   6.084  1.1658 -2.6999  0.2907
  686MOL0     H90536   2.062   7.214   5.941 -2.0387  1.4003  2.0023
  686MOL0     H90537   2.067   7.280   5.709  1.4765 -2.1656  1.3055
  686MOL0     H90538   0.917   7.526   3.944  1.2375  0.4092  2.0665
  686MOL0     H90539   0.685   7.562   3.834 -2.4276 -3.5329 -2.7736
  686MOL0     H90540   0.350   7.512   3.548  2.5752  0.6117  2.3137
  686MOL0     H90541   0.142   7.635   3.491 -2.1549  2.9196  0.9067
  686MOL0     H90542  -0.233   7.661   3.767  0.2801  1.1229 -0.6354
  686MOL0     H90543  -0.187   7.514   3.707 -1.3695  0.8855 -0.8352
  686MOL0     H90544  -0.291   7.534   3.497  1.0302 -0.7590 -0.7524
  686MOL0     H90545  -0.395   7.592   3.624  2.1041 -3.8521  2.1050
  686MOL0     H90546  -0.208   7.770   3.452 -0.7434  2.1258 -0.8066
  686MOL0     H90547  -0.327   7.835   3.565  3.0652  0.6148  0.3299
  686MOL0     H90548  -0.391   7.873   3.338 -1.2845 -0.5357 -1.8785
  686MOL0     H90549  -0.391   7.695   3.304 -3.0555 -1.0359  0.8074
  686MOL0     H90550  -0.748   7.728   3.518 -0.9512  0.4998 -0.3644
  686MOL0     H90551  -0.019   7.607   3.865 -0.0956 -0.6001  0.1442
  686MOL0     H90552   0.203   7.496   3.956  0.5709 -0.3524  0.0827
  687MOL0     O90553  10.081  10.773   9.550 -0.4221  0.3295 -0.2119
  687MOL0     C90554  10.009  10.759   9.459  0.4961  0.5987 -0.0474
  687MOL0     O90555  10.038  10.708   9.338  0.2156  0.5067 -0.4406
  687MOL0     C90556  10.160  10.673   9.288 -0.0499 -0.2118  0.4688
  687MOL0     C90557  10.166  10.663   9.153  0.9163  0.7638  0.0540
  687MOL0     C90558  10.271  10.609   9.087 -0.8934  0.5075 -0.6355
  687MOL0     C90559  10.387  10.581   9.157 -0.3259  0.5288  0.1582
  687MOL0     O90560  10.485  10.515   9.084 -0.3849 -0.5452  0.4023
  687MOL0     C90561  10.613  10.480   9.138 -0.0519 -0.3449  0.5451
  687MOL0     C90562  10.707  10.427   9.027 -0.8064 -0.6077  0.0008
  687MOL0     C90563  10.723  10.534   8.911 -0.0052 -0.0051 -0.1288
  687MOL0     C90564  10.816  10.476   8.812  0.2248  0.0593  0.2827
  687MOL0     C90565  10.846  10.602   8.711 -0.0503 -0.4384  0.5508
  687MOL0     C90566  10.941  10.575   8.596 -0.5721 -1.0528 -0.1821
  687MOL0     C90567  10.954  10.709   8.519  0.7946 -0.1688 -0.8847
  687MOL0     C90568  11.037  10.676   8.400  0.2283 -0.4869 -0.0210
  687MOL0     N90569  11.007  10.775   8.294  0.0216  0.0209  0.4870
  687MOL0     C90570  11.021  10.914   8.307  1.0423  0.6516 -0.2925
  687MOL0     C90571  10.945  10.965   8.203  1.0420  0.1466  0.5990
  687MOL0     C90572  10.910  11.111   8.191 -0.5744 -0.1876 -0.4927
  687MOL0     C90573  10.880  11.158   8.045 -0.0867 -0.2194  0.4345
  687MOL0     C90574  10.896  11.314   8.036 -0.9807  0.1525  0.1649
  687MOL0     C90575  10.833  11.393   8.148  0.7046 -0.3423 -0.9724
  687MOL0     O90576  10.800  11.525   8.104  0.6583 -0.0870 -0.7252
  687MOL0     C90577  10.677  11.556   8.057  1.1563 -0.2790  0.0280
  687MOL0     C90578  10.633  11.687   8.051 -1.4629 -0.4420 -1.0615
  687MOL0     C90579  10.498  11.717   8.019 -1.0866  0.4144  0.5514
  687MOL0     C90580  10.408  11.617   7.998  0.4636 -0.2522  0.7774
  687MOL0     C90581  10.264  11.645   7.975 -0.0182  0.7468  0.2668
  687MOL0     O90582  10.183  11.537   7.934 -0.0065 -0.0799  0.1975
  687MOL0     C90583  10.046  11.544   7.952 -0.3263 -0.1322  0.0884
  687MOL0     C90584   9.974  11.634   8.035 -0.6056 -0.5250  0.1051
  687MOL0     C90585   9.837  11.623   8.050 -0.5118  0.3539 -0.6460
  687MOL0     C90586   9.758  11.546   7.957 -0.3514  0.0286 -1.2225
  687MOL0     O90587   9.625  11.546   7.950 -0.5472  0.4613  0.7336
  687MOL0     C90588   9.550  11.613   8.048  0.3371  1.0403 -0.7882
  687MOL0     C90589   9.541  11.543   8.181  0.3409  0.3125 -0.4638
  687MOL0     C90590   9.502  11.396   8.160  0.4890  0.2610 -0.5464
  687MOL0     C90591   9.358  11.382   8.105 -0.7832  0.7754 -1.2237
  687MOL0     C90592   9.306  11.239   8.118  0.6507 -1.1012 -0.0583
  687MOL0     C90593   9.166  11.194   8.080  0.3730 -0.9904 -0.4171
  687MOL0     C90594   9.053  11.300   8.104 -0.3603  0.1374 -0.0150
  687MOL0     C90595   8.921  11.248   8.059  0.4649 -0.7339  0.5687
  687MOL0    Cl90596   8.798  11.383   8.037 -0.4716  0.0479 -0.0359
  687MOL0     C90597   9.830  11.466   7.869  0.3850  0.1203  0.1269
  687MOL0     C90598   9.973  11.459   7.876  0.2047  0.0045  0.5568
  687MOL0     O90599  10.226  11.764   7.981  0.0233  0.6195 -0.1365
  687MOL0     C90600  10.449  11.486   8.005  0.1046  0.2165 -0.5631
  687MOL0     C90601  10.583  11.455   8.035 -0.0676  0.6771  0.5062
  687MOL0     N90602  10.889  10.866   8.128  0.1499 -0.1433  0.0637
  687MOL0     N90603  10.928  10.752   8.184  0.5978  0.0554 -0.4963
  687MOL0     C90604  10.390  10.594   9.294 -0.0109 -0.1408 -0.2081
  687MOL0     C90605  10.279  10.648   9.360  0.4214  0.5637 -0.3425
  687MOL0     C90606   9.872  10.806   9.477 -0.1764 -1.0055 -0.9642
  687MOL0     C90607   9.782  10.782   9.588 -0.4994 -0.2843  0.2271
  687MOL0     C90608   9.650  10.824   9.590 -0.7338 -0.6784 -0.2772
  687MOL0     C90609   9.608  10.890   9.476  0.3157 -0.4165  0.2159
  687MOL0     O90610   9.482  10.943   9.497  0.4583  0.0312  0.0960
  687MOL0     C90611   9.402  10.946   9.380 -0.5780 -0.3355 -0.4640
  687MOL0     C90612   9.254  10.931   9.406  0.0721  0.1409 -0.3882
  687MOL0     C90613   9.176  11.005   9.296  0.4837 -1.6230  0.2522
  687MOL0     C90614   9.032  11.018   9.349 -0.0332 -0.7957 -0.8852
  687MOL0     C90615   9.025  11.110   9.466 -1.1362  0.2194 -0.2118
  687MOL0     C90616   9.011  11.197   9.550 -0.4880  0.7436 -0.1961
  687MOL0     C90617   9.681  10.902   9.358 -1.0054  0.2976 -0.0866
  687MOL0     C90618   9.819  10.867   9.362 -0.2696  0.7659  0.2577
  687MOL0     H90619  10.086  10.694   9.087 -2.7872  1.6022  4.4083
  687MOL0     H90620  10.244  10.581   8.986  1.8811  0.4822 -1.4419
  687MOL0     H90621  10.594  10.399   9.209 -1.8349 -0.6618 -0.2451
  687MOL0     H90622  10.658  10.567   9.186  1.3262 -1.0224  0.5480
  687MOL0     H90623  10.677  10.331   8.984 -0.6573 -0.1304 -1.2126
  687MOL0     H90624  10.803  10.412   9.078  0.0893 -0.1277 -1.4844
  687MOL0     H90625  10.757  10.632   8.945 -0.1900  0.0833 -0.1962
  687MOL0     H90626  10.628  10.544   8.858 -0.3008 -1.7500  0.0155
  687MOL0     H90627  10.916  10.444   8.844  1.4672  1.1240 -2.2366
  687MOL0     H90628  10.768  10.395   8.756  1.5189 -1.0636  0.7300
  687MOL0     H90629  10.890  10.682   8.772 -0.8246  0.8942 -0.5604
  687MOL0     H90630  10.754  10.639   8.665 -0.4144 -0.5009  1.2171
  687MOL0     H90631  10.905  10.489   8.539 -0.4281 -0.6662 -0.8692
  687MOL0     H90632  11.042  10.558   8.633  0.1296  1.0099 -0.9605
  687MOL0     H90633  10.852  10.735   8.488  2.5292  1.5193 -6.2941
  687MOL0     H90634  11.004  10.790   8.573 -1.7538  1.1509 -0.3204
  687MOL0     H90635  11.004  10.581   8.356 -0.5768  0.2318 -1.0255
  687MOL0     H90636  11.142  10.668   8.429 -0.4321 -1.0945  2.4108
  687MOL0     H90637  11.054  10.973   8.393  0.0612  0.5662  0.1529
  687MOL0     H90638  10.993  11.171   8.228  0.1972 -1.0948 -0.7237
  687MOL0     H90639  10.819  11.138   8.245 -2.5195 -2.4011 -2.4048
  687MOL0     H90640  10.786  11.122   8.004 -0.6481  0.7917  0.7875
  687MOL0     H90641  10.964  11.117   7.988 -1.7247 -1.2314 -1.3525
  687MOL0     H90642  11.001  11.345   8.036 -0.4820 -1.3460  1.8576
  687MOL0     H90643  10.849  11.346   7.942  1.5177  0.7515 -0.9612
  687MOL0     H90644  10.902  11.403   8.232 -1.4394 -2.5791  1.2634
  687MOL0     H90645  10.745  11.339   8.184  1.3220 -4.0061 -4.1887
  687MOL0     H90646  10.709  11.763   8.062 -0.9151 -1.0549 -0.5466
  687MOL0     H90647  10.481  11.824   8.020  1.4900  0.8935  1.0214
  687MOL0     H90648  10.027  11.708   8.093  0.7071  1.2799 -3.1058
  687MOL0     H90649   9.784  11.678   8.127  1.8888  0.7919  0.7874
  687MOL0     H90650   9.449  11.611   8.006 -0.0090  2.3461 -0.0628
  687MOL0     H90651   9.589  11.714   8.061 -0.0366  1.8876 -4.9808
  687MOL0     H90652   9.458  11.588   8.237 -0.0232  1.1788 -1.6588
  687MOL0     H90653   9.639  11.540   8.229  0.9592 -3.3833 -1.6433
  687MOL0     H90654   9.516  11.334   8.248  3.2564 -0.9159 -1.6995
  687MOL0     H90655   9.574  11.365   8.084  1.3093  0.6810  0.0534
  687MOL0     H90656   9.295  11.450   8.163  1.5906  0.3192  2.1278
  687MOL0     H90657   9.354  11.417   8.001  0.5613 -0.4198 -1.7052
  687MOL0     H90658   9.302  11.204   8.222  2.2398 -0.6481  0.1885
  687MOL0     H90659   9.383  11.173   8.074 -0.2889 -1.5922 -1.0123
  687MOL0     H90660   9.146  11.104   8.140  0.2810  0.1283  1.3074
  687MOL0     H90661   9.160  11.168   7.974 -2.8743 -0.8979 -0.3484
  687MOL0     H90662   9.062  11.325   8.211  1.9205  0.8262 -0.3223
  687MOL0     H90663   9.072  11.391   8.046  2.2446 -0.5335 -0.3481
  687MOL0     H90664   8.873  11.165   8.112 -2.1012  0.9911  1.1521
  687MOL0     H90665   8.942  11.216   7.957  3.0352  2.5211 -0.1108
  687MOL0     H90666   9.788  11.404   7.790  1.6500 -0.0673 -0.4163
  687MOL0     H90667  10.018  11.378   7.819 -1.3309 -2.2320  2.3052
  687MOL0     H90668  10.373  11.409   7.991 -0.6254  1.0172 -1.1125
  687MOL0     H90669  10.593  11.347   8.045 -1.7708  0.4309 -0.0266
  687MOL0     H90670  10.478  10.568   9.351  0.5462  0.5749 -0.7287
  687MOL0     H90671  10.282  10.657   9.468  1.6932 -1.0969 -0.1977
  687MOL0     H90672   9.827  10.731   9.672 -0.4469 -1.7205 -0.6279
  687MOL0     H90673   9.590  10.812   9.679 -1.3456  0.4094 -0.5238
  687MOL0     H90674   9.429  10.870   9.306 -1.1596  0.3807 -1.4134
  687MOL0     H90675   9.430  11.045   9.344 -3.5235  2.2109  3.4494
  687MOL0     H90676   9.224  10.826   9.404  2.3226 -0.5613 -1.2387
  687MOL0     H90677   9.244  10.981   9.503 -0.1740 -1.9239  0.7169
  687MOL0     H90678   9.172  10.949   9.202 -2.5672 -1.3854  0.1397
  687MOL0     H90679   9.222  11.102   9.277  2.6213 -2.7154 -0.5781
  687MOL0     H90680   8.969  11.052   9.267 -1.9690 -4.2878 -1.0240
  687MOL0     H90681   8.997  10.919   9.378  0.9197 -1.1494 -0.8873
  687MOL0     H90682   8.993  11.272   9.625 -2.1844 -0.9573  1.2094
  687MOL0     H90683   9.640  10.952   9.271  3.6188  0.1058 -2.7252
  687MOL0     H90684   9.873  10.900   9.274 -0.4220  0.0688 -0.1067
  688MOL0     O90685   0.236   7.158   1.746 -0.3948 -0.7367 -0.4064
  688MOL0     C90686   0.259   7.187   1.865 -0.7054 -0.4071  0.2530
  688MOL0     O90687   0.164   7.254   1.934 -0.3025 -0.6757 -0.0944
  688MOL0     C90688   0.047   7.297   1.868 -0.8259  0.4950  0.2795
  688MOL0     C90689   0.066   7.392   1.764 -0.6775 -0.1669 -0.1701
  688MOL0     C90690  -0.050   7.453   1.702 -0.5593 -0.3150  0.2912
  688MOL0     C90691  -0.176   7.402   1.732  0.2885  0.1740  0.8756
  688MOL0     O90692  -0.278   7.443   1.656  0.9819  0.7721  0.2264
  688MOL0     C90693  -0.312   7.579   1.663  0.2735  0.1890  0.6365
  688MOL0     C90694  -0.388   7.627   1.794 -0.0124 -0.3222 -0.6736
  688MOL0     C90695  -0.518   7.542   1.816 -0.1543 -0.0796 -0.2674
  688MOL0     C90696  -0.595   7.599   1.936 -0.0287  0.2329  0.1050
  688MOL0     C90697  -0.712   7.518   1.988 -1.3933 -0.3524 -0.0590
  688MOL0     C90698  -0.827   7.515   1.888  0.0751 -0.4589 -0.5931
  688MOL0     C90699  -0.940   7.417   1.914 -0.2633 -0.6074  0.2064
  688MOL0     C90700  -0.890   7.283   1.895  0.3054 -0.0593 -1.1441
  688MOL0     N90701  -0.855   7.271   1.756  0.0300  0.1020 -1.0810
  688MOL0     C90702  -0.729   7.262   1.695 -0.3536 -0.4446 -0.8006
  688MOL0     C90703  -0.737   7.221   1.575  0.9935 -0.6384 -0.4033
  688MOL0     C90704  -0.629   7.167   1.484 -0.1565  0.7425 -0.2477
  688MOL0     C90705  -0.565   7.043   1.526  0.2097  0.0316 -0.3510
  688MOL0     C90706  -0.651   6.910   1.520  0.4014 -0.1374 -0.0103
  688MOL0     C90707  -0.567   6.783   1.495 -0.3456  1.1341  0.6859
  688MOL0     O90708  -0.527   6.706   1.613 -0.2896 -0.6997 -0.2048
  688MOL0     C90709  -0.399   6.687   1.636  0.2559 -0.8062  0.1648
  688MOL0     C90710  -0.299   6.783   1.630 -0.3112 -0.3941 -0.1275
  688MOL0     C90711  -0.170   6.756   1.657 -0.4689  0.0559  0.2170
  688MOL0     C90712  -0.127   6.622   1.691  1.2108 -0.3987 -0.1221
  688MOL0     C90713   0.011   6.587   1.707 -0.4848 -0.0165 -0.3370
  688MOL0     O90714   0.101   6.685   1.656  0.4052  0.2847 -0.7036
  688MOL0     C90715   0.236   6.674   1.687 -0.7004 -0.4426  0.3301
  688MOL0     C90716   0.279   6.689   1.819 -0.7520 -0.1111  0.3029
  688MOL0     C90717   0.424   6.696   1.836 -0.6778  0.1066  0.0381
  688MOL0     C90718   0.513   6.673   1.730 -0.3814 -0.0416 -0.4890
  688MOL0     O90719   0.646   6.672   1.766 -0.6291  0.0064 -0.4482
  688MOL0     C90720   0.739   6.629   1.662 -0.6751  0.2068 -0.2411
  688MOL0     C90721   0.881   6.622   1.726 -0.1846 -0.4092 -0.2017
  688MOL0     C90722   0.903   6.499   1.815 -0.3747  0.1944 -0.0365
  688MOL0     C90723   0.931   6.375   1.726 -0.1475 -0.5549  0.2137
  688MOL0     C90724   0.973   6.251   1.804 -0.4584 -0.3060 -0.5422
  688MOL0     C90725   1.007   6.137   1.705 -0.2795 -0.4020 -0.9297
  688MOL0     C90726   1.072   6.025   1.797  0.0116 -0.0350 -0.1678
  688MOL0     C90727   1.142   5.918   1.716  0.7517 -0.3675 -0.3100
  688MOL0    Cl90728   1.248   5.823   1.820 -0.4011 -0.0295 -0.4960
  688MOL0     C90729   0.462   6.654   1.599 -0.3500  0.3496 -0.9712
  688MOL0     C90730   0.325   6.657   1.580  0.5695 -0.4901  0.1317
  688MOL0     O90731   0.046   6.486   1.761  0.5063 -0.6902  0.1310
  688MOL0     C90732  -0.226   6.524   1.696  0.3154 -0.0931 -0.1258
  688MOL0     C90733  -0.356   6.556   1.668 -0.2047  0.0452 -0.1553
  688MOL0     N90734  -0.876   7.225   1.548  0.3802 -0.1411 -0.2308
  688MOL0     N90735  -0.943   7.259   1.658  0.1214 -0.5672  0.0411
  688MOL0     C90736  -0.186   7.283   1.809  1.7450  0.7023  0.3078
  688MOL0     C90737  -0.074   7.243   1.884 -0.3824  0.4091 -0.7809
  688MOL0     C90738   0.391   7.147   1.929  0.5279 -0.1831 -0.4653
  688MOL0     C90739   0.391   7.089   2.059 -0.4388  0.3919 -0.0421
  688MOL0     C90740   0.513   7.048   2.119 -0.7758 -0.4252  0.4976
  688MOL0     C90741   0.635   7.054   2.050  0.0884 -0.6214 -0.6108
  688MOL0     O90742   0.753   7.019   2.112 -0.3667  0.2933 -0.8080
  688MOL0     C90743   0.811   6.896   2.051  0.3047 -0.9672 -0.0836
  688MOL0     C90744   0.951   6.870   2.106 -0.0081  0.5292  0.0137
  688MOL0     C90745   1.043   6.988   2.087 -0.1285 -0.3568 -0.0457
  688MOL0     C90746   1.188   6.971   2.067 -0.0147  0.3576 -0.6619
  688MOL0     C90747   1.241   6.867   2.154 -0.7404  0.5544 -0.4560
  688MOL0     C90748   1.302   6.782   2.213  0.1240  0.2331  0.2783
  688MOL0     C90749   0.634   7.116   1.923 -0.4128  0.0316 -0.2691
  688MOL0     C90750   0.515   7.159   1.862 -0.6720  0.5674 -0.4307
  688MOL0     H90751   0.157   7.450   1.751 -0.9721  0.5572  0.8715
  688MOL0     H90752  -0.041   7.532   1.629 -4.3486  3.0908  3.0532
  688MOL0     H90753  -0.382   7.599   1.582 -0.2078 -3.0497  0.1225
  688MOL0     H90754  -0.225   7.642   1.642 -0.1592  0.2964 -0.9933
  688MOL0     H90755  -0.413   7.732   1.775 -2.2533 -1.0212 -1.8615
  688MOL0     H90756  -0.320   7.632   1.880 -1.2639 -0.6920  0.3733
  688MOL0     H90757  -0.483   7.445   1.852  0.4023  0.1092 -0.2940
  688MOL0     H90758  -0.584   7.530   1.729 -2.2578 -0.1496  1.2712
  688MOL0     H90759  -0.515   7.607   2.012  1.1055 -1.5620 -0.8139
  688MOL0     H90760  -0.614   7.702   1.905  0.2720 -0.7827 -3.9791
  688MOL0     H90761  -0.745   7.552   2.086  2.2159 -1.8852  1.8819
  688MOL0     H90762  -0.673   7.420   2.017 -0.0932  0.9508  3.0698
  688MOL0     H90763  -0.783   7.510   1.788  2.8957 -1.1899  0.5681
  688MOL0     H90764  -0.885   7.605   1.907 -0.6833 -1.7062  4.3523
  688MOL0     H90765  -0.988   7.427   2.012 -2.1464 -1.1366 -0.5978
  688MOL0     H90766  -1.018   7.445   1.843 -1.1558 -1.6214  0.7503
  688MOL0     H90767  -0.975   7.216   1.914 -2.3124  3.6584  1.8033
  688MOL0     H90768  -0.804   7.267   1.960 -1.0477  3.8998  2.0091
  688MOL0     H90769  -0.633   7.266   1.745  0.1439 -2.0385 -1.5564
  688MOL0     H90770  -0.553   7.245   1.473  1.7368 -0.9537  0.2092
  688MOL0     H90771  -0.680   7.147   1.389  0.0840 -1.2169  0.0103
  688MOL0     H90772  -0.533   7.047   1.630  1.3713  5.2486 -0.6594
  688MOL0     H90773  -0.476   7.035   1.462  0.2278  0.5081 -0.3905
  688MOL0     H90774  -0.704   6.894   1.615 -1.0972 -1.0039 -0.9607
  688MOL0     H90775  -0.729   6.928   1.446  0.7787  0.6205 -0.2347
  688MOL0     H90776  -0.478   6.814   1.441 -0.9636  2.3657  0.3474
  688MOL0     H90777  -0.627   6.713   1.435 -1.6122  0.2909  2.8175
  688MOL0     H90778  -0.329   6.881   1.597 -2.4248 -0.8008  0.4344
  688MOL0     H90779  -0.095   6.834   1.663 -0.1191 -0.3474  1.4329
  688MOL0     H90780   0.215   6.704   1.906  0.4035 -1.1713  1.3785
  688MOL0     H90781   0.479   6.687   1.929 -1.9059  0.6741  0.8447
  688MOL0     H90782   0.758   6.702   1.583  0.3636 -1.7307 -1.8877
  688MOL0     H90783   0.710   6.527   1.633  2.2141 -0.1205 -2.3978
  688MOL0     H90784   0.888   6.707   1.795 -0.0008  0.1460 -0.8893
  688MOL0     H90785   0.957   6.640   1.649 -0.8458 -0.8828 -0.9763
  688MOL0     H90786   0.818   6.495   1.884  2.1524  0.8076  3.3804
  688MOL0     H90787   0.986   6.510   1.886 -1.7841 -3.3337  2.4468
  688MOL0     H90788   0.840   6.342   1.675 -1.2777  2.6110 -0.0672
  688MOL0     H90789   1.006   6.396   1.650 -4.2629  3.1416 -3.3923
  688MOL0     H90790   0.903   6.208   1.876 -0.7508  0.7758 -0.1604
  688MOL0     H90791   1.056   6.291   1.862  0.0762 -1.6248 -0.3671
  688MOL0     H90792   1.088   6.168   1.639 -0.3468  0.1853 -0.7423
  688MOL0     H90793   0.915   6.112   1.652 -2.8645  0.9719  2.5068
  688MOL0     H90794   1.135   6.076   1.870  0.3354  1.2146 -1.2939
  688MOL0     H90795   1.001   5.960   1.850  3.3597 -1.0246  3.6914
  688MOL0     H90796   1.195   5.965   1.633  0.1099 -1.3208 -1.2759
  688MOL0     H90797   1.061   5.855   1.680  3.0859 -1.9350 -3.3067
  688MOL0     H90798   0.530   6.637   1.517 -2.8082 -1.4449 -2.7893
  688MOL0     H90799   0.271   6.658   1.485 -1.0674  0.5277  1.0172
  688MOL0     H90800  -0.201   6.421   1.719 -2.9708 -1.0603 -0.3729
  688MOL0     H90801  -0.438   6.484   1.665 -0.7362  0.5998  0.6862
  688MOL0     H90802  -0.283   7.236   1.818  1.9335  0.3815  0.6797
  688MOL0     H90803  -0.078   7.157   1.951 -2.8079  2.3203  1.7407
  688MOL0     H90804   0.296   7.069   2.108 -0.1743  1.2016  0.8139
  688MOL0     H90805   0.511   7.003   2.217  1.9128  2.2295  1.9119
  688MOL0     H90806   0.816   6.910   1.943  0.8030  1.2618  0.1791
  688MOL0     H90807   0.740   6.816   2.070 -0.3290 -1.1063 -2.6858
  688MOL0     H90808   0.943   6.851   2.213  3.4980  0.0836  0.3275
  688MOL0     H90809   0.995   6.774   2.076 -1.2196 -0.7064  2.0315
  688MOL0     H90810   1.011   7.059   2.164  0.0622  0.8212 -1.0231
  688MOL0     H90811   1.010   7.045   1.999 -2.5289  0.2497  1.1625
  688MOL0     H90812   1.204   6.947   1.961  2.4382  0.3892 -0.3615
  688MOL0     H90813   1.236   7.068   2.080  1.4149 -0.2908 -0.8681
  688MOL0     H90814   1.349   6.702   2.266  0.9450  0.5072 -0.0308
  688MOL0     H90815   0.726   7.137   1.870 -0.0194 -0.7593  0.0952
  688MOL0     H90816   0.528   7.201   1.764  3.1383 -0.6333 -0.6002
  689MOL0     O90817   5.187   6.941  11.024  0.0850 -0.0780 -0.0363
  689MOL0     C90818   5.282   6.978  10.955 -0.8456  0.8740 -0.8436
  689MOL0     O90819   5.404   6.920  10.952  0.2492 -0.4833 -0.4824
  689MOL0     C90820   5.418   6.804  11.031  0.2850 -0.8669  0.5099
  689MOL0     C90821   5.443   6.800  11.170  0.7378  0.7272 -0.4172
  689MOL0     C90822   5.481   6.675  11.222  0.0684 -0.4584  0.1749
  689MOL0     C90823   5.496   6.558  11.141 -0.5302 -0.6230  0.4116
  689MOL0     O90824   5.547   6.442  11.193  0.2994  0.0699 -0.0735
  689MOL0     C90825   5.495   6.322  11.129  0.4437  0.5264 -0.5663
  689MOL0     C90826   5.469   6.207  11.230  0.1864 -0.7964 -0.5418
  689MOL0     C90827   5.330   6.194  11.298 -0.6497 -0.9140 -0.5730
  689MOL0     C90828   5.321   6.062  11.382  0.2823  0.7478 -0.1339
  689MOL0     C90829   5.190   6.034  11.443 -0.6243 -0.1100  0.1641
  689MOL0     C90830   5.068   6.018  11.347 -0.4858 -0.2626  0.0839
  689MOL0     C90831   5.095   5.916  11.233  0.5589  0.5318 -0.7332
  689MOL0     C90832   5.093   5.762  11.284  1.0000 -0.1636 -1.2383
  689MOL0     N90833   4.954   5.712  11.308  0.2603 -0.1166  0.3662
  689MOL0     C90834   4.892   5.599  11.260  0.2781 -0.7830  0.6973
  689MOL0     C90835   4.763   5.600  11.307  0.0317  0.4226  0.7167
  689MOL0     C90836   4.657   5.502  11.265  0.2323 -0.2861 -0.2830
  689MOL0     C90837   4.698   5.374  11.189 -0.1834  0.1219 -0.0503
  689MOL0     C90838   4.763   5.268  11.283 -0.1935  0.2283 -0.2919
  689MOL0     C90839   4.843   5.170  11.199  0.2438  0.7306 -0.5276
  689MOL0     O90840   4.747   5.094  11.110  0.9781 -0.7901  0.1371
  689MOL0     C90841   4.802   5.063  10.992 -0.3104  0.0381  0.8184
  689MOL0     C90842   4.771   5.108  10.860  0.8641  1.1990 -0.5987
  689MOL0     C90843   4.830   5.041  10.746 -0.4910 -0.6444  0.0854
  689MOL0     C90844   4.893   4.921  10.758 -0.1350  0.8816 -0.5400
  689MOL0     C90845   4.913   4.832  10.638 -0.0396  0.1293  0.0210
  689MOL0     O90846   4.950   4.705  10.663  0.3337 -0.7322  0.2141
  689MOL0     C90847   4.928   4.618  10.557 -0.0992  0.0688 -0.8590
  689MOL0     C90848   5.021   4.507  10.556  0.0632 -0.0963 -0.2809
  689MOL0     C90849   5.005   4.399  10.464  0.0892  1.0544  0.5870
  689MOL0     C90850   4.899   4.397  10.376  0.1360 -1.1504  0.2325
  689MOL0     O90851   4.893   4.292  10.283  0.3712  0.9773  0.5867
  689MOL0     C90852   4.802   4.313  10.167  0.0477 -0.2021 -0.8575
  689MOL0     C90853   4.840   4.248  10.040  0.5924 -0.6790  0.5530
  689MOL0     C90854   4.983   4.283   9.984 -0.1296 -1.0995  0.2073
  689MOL0     C90855   4.984   4.272   9.836  0.7171  0.2817 -0.2279
  689MOL0     C90856   5.123   4.302   9.777 -0.3764 -0.1039  0.2598
  689MOL0     C90857   5.104   4.357   9.636  0.0579  0.0731  0.3557
  689MOL0     C90858   5.242   4.429   9.595 -0.0919 -0.1553  0.1662
  689MOL0     C90859   5.262   4.450   9.446  0.5373 -0.5371 -0.1702
  689MOL0    Cl90860   5.125   4.541   9.371 -0.3155  0.5165 -0.0996
  689MOL0     C90861   4.806   4.492  10.395  0.1281  0.6262 -0.4708
  689MOL0     C90862   4.815   4.604  10.480  0.2304  0.7805  1.2576
  689MOL0     O90863   4.890   4.881  10.529  0.5156  0.4081 -0.9781
  689MOL0     C90864   4.920   4.872  10.891  0.0599 -0.5348 -0.1069
  689MOL0     C90865   4.883   4.952  11.000  0.3400  1.6276  1.0495
  689MOL0     N90866   4.753   5.701  11.403 -0.0350  0.0086  0.2245
  689MOL0     N90867   4.865   5.758  11.406  0.9327 -0.0556  0.4938
  689MOL0     C90868   5.476   6.569  11.010 -0.1127 -1.0916  1.0009
  689MOL0     C90869   5.430   6.684  10.958 -0.1315 -0.8801 -0.4911
  689MOL0     C90870   5.260   7.090  10.868 -0.4342 -0.1464  0.2063
  689MOL0     C90871   5.140   7.158  10.865  0.2110 -0.4953  0.9159
  689MOL0     C90872   5.124   7.267  10.786  0.2040 -0.4752  0.1563
  689MOL0     C90873   5.233   7.328  10.712 -0.1066  0.1195 -0.3739
  689MOL0     O90874   5.225   7.438  10.636  0.4236 -0.4111  0.0801
  689MOL0     C90875   5.096   7.468  10.574 -0.0150 -0.0482 -0.8312
  689MOL0     C90876   5.103   7.569  10.453 -0.7445  1.9172 -0.3739
  689MOL0     C90877   5.191   7.510  10.345 -0.3496 -0.3850  0.8362
  689MOL0     C90878   5.110   7.433  10.244  0.0056 -0.5053 -0.4474
  689MOL0     C90879   5.207   7.358  10.167 -0.3133  0.1940  0.0080
  689MOL0     C90880   5.286   7.306  10.094 -0.1430  0.6172 -0.3203
  689MOL0     C90881   5.355   7.265  10.731  0.2963 -0.0580 -0.2069
  689MOL0     C90882   5.373   7.149  10.809  0.0325 -0.7360  0.6650
  689MOL0     H90883   5.451   6.873  11.250 -1.3969  2.4554 -1.6658
  689MOL0     H90884   5.500   6.663  11.328 -2.6286 -0.9356  0.6610
  689MOL0     H90885   5.561   6.283  11.051 -2.1393  0.1130 -2.6709
  689MOL0     H90886   5.399   6.339  11.081  0.8626  1.9207 -0.9589
  689MOL0     H90887   5.549   6.219  11.304 -0.9708 -3.1025  1.2019
  689MOL0     H90888   5.494   6.120  11.168 -1.3849 -0.2036 -2.1058
  689MOL0     H90889   5.253   6.185  11.221 -1.0552 -1.4769 -0.1083
  689MOL0     H90890   5.302   6.279  11.359 -2.1847 -2.4041  0.9201
  689MOL0     H90891   5.356   5.978  11.321 -1.8360  0.4314 -0.9647
  689MOL0     H90892   5.401   6.067  11.457 -0.8063  1.1162  1.0467
  689MOL0     H90893   5.174   6.109  11.520 -1.1495  0.1565 -0.1999
  689MOL0     H90894   5.205   5.941  11.500  1.2839 -0.2247 -0.4671
  689MOL0     H90895   5.059   6.117  11.300  4.3962  0.7999  0.8438
  689MOL0     H90896   4.975   6.002  11.401  0.0662 -0.5945  0.9471
  689MOL0     H90897   5.025   5.949  11.156  0.8036 -0.3375 -1.3391
  689MOL0     H90898   5.196   5.938  11.199  2.0450 -1.5101  2.0077
  689MOL0     H90899   5.153   5.753  11.375  1.8301 -2.1057 -1.8959
  689MOL0     H90900   5.145   5.691  11.217  0.6684 -2.7566  1.0768
  689MOL0     H90901   4.940   5.534  11.188  0.8182 -1.2745  1.4815
  689MOL0     H90902   4.588   5.558  11.202 -0.4578 -0.5763  0.1957
  689MOL0     H90903   4.594   5.470  11.350 -0.1480  1.0437 -0.0477
  689MOL0     H90904   4.773   5.400  11.113 -1.0693 -3.8184 -2.5865
  689MOL0     H90905   4.614   5.330  11.134 -0.0999 -1.9785  1.3790
  689MOL0     H90906   4.829   5.323  11.351 -0.9045  2.6679 -1.4646
  689MOL0     H90907   4.683   5.214  11.333 -0.9015  2.0814  0.6718
  689MOL0     H90908   4.896   5.094  11.258 -1.8161  1.0963  1.9457
  689MOL0     H90909   4.924   5.219  11.144  1.1245 -0.0189  0.0682
  689MOL0     H90910   4.698   5.185  10.838 -0.5743  0.0031 -0.1795
  689MOL0     H90911   4.813   5.082  10.647 -0.0464  3.0863  1.3915
  689MOL0     H90912   5.106   4.505  10.624  1.6211 -0.5799 -2.1476
  689MOL0     H90913   5.080   4.322  10.458 -0.6037  0.4255 -0.2789
  689MOL0     H90914   4.814   4.421  10.152  0.8861 -0.1836 -0.1357
  689MOL0     H90915   4.702   4.301  10.209  0.1774  1.3262 -0.0357
  689MOL0     H90916   4.770   4.297   9.972 -2.9075 -3.3836  1.8914
  689MOL0     H90917   4.816   4.141  10.037 -0.9006 -0.4111  1.7776
  689MOL0     H90918   5.056   4.213  10.026  2.0794 -0.2958 -2.0482
  689MOL0     H90919   5.019   4.385  10.002 -0.9082 -0.9803  1.1661
  689MOL0     H90920   4.953   4.171   9.806  2.2458 -0.8151  1.6470
  689MOL0     H90921   4.910   4.342   9.799  1.1430  0.5762 -0.5270
  689MOL0     H90922   5.192   4.217   9.777  2.3204  1.9280  2.0363
  689MOL0     H90923   5.161   4.386   9.836 -2.0019  2.3459 -1.9205
  689MOL0     H90924   5.025   4.432   9.637 -1.6958 -1.6782 -0.4515
  689MOL0     H90925   5.072   4.276   9.569  1.0606 -0.3324  0.3468
  689MOL0     H90926   5.247   4.527   9.643  3.5255 -0.1129 -0.0367
  689MOL0     H90927   5.326   4.369   9.631 -2.2823 -2.6439  1.4424
  689MOL0     H90928   5.262   4.350   9.402  0.3411 -0.0384 -1.3504
  689MOL0     H90929   5.351   4.513   9.429  0.8694 -1.7012 -3.4522
  689MOL0     H90930   4.709   4.479  10.347  1.5105  0.0855 -3.2952
  689MOL0     H90931   4.726   4.662  10.501 -0.5976 -0.0650  0.1957
  689MOL0     H90932   4.967   4.777  10.912 -1.2192 -0.6660  2.6463
  689MOL0     H90933   4.905   4.905  11.096  0.6855 -1.8403 -0.5956
  689MOL0     H90934   5.474   6.482  10.945 -1.4256 -2.3039  2.5653
  689MOL0     H90935   5.414   6.689  10.851  0.1510  2.1717 -0.4793
  689MOL0     H90936   5.057   7.118  10.922  2.0112  0.5244  4.5636
  689MOL0     H90937   5.028   7.316  10.773  0.6194 -0.0360 -1.6110
  689MOL0     H90938   5.023   7.504  10.649  0.8279  0.3341 -0.1729
  689MOL0     H90939   5.056   7.374  10.537  0.0279 -0.4696  0.1691
  689MOL0     H90940   5.003   7.600  10.420 -1.1999  1.0331  0.1286
  689MOL0     H90941   5.154   7.656  10.496 -0.5682  0.5352  2.5095
  689MOL0     H90942   5.259   7.443  10.399 -1.2763 -1.4335  0.7171
  689MOL0     H90943   5.246   7.589  10.292 -1.1506 -0.8367 -0.7211
  689MOL0     H90944   5.043   7.367  10.301  1.2965  0.3780  2.2904
  689MOL0     H90945   5.043   7.504  10.195  0.6478  0.3433 -0.1092
  689MOL0     H90946   5.353   7.252  10.030 -0.0654 -1.0408  1.0832
  689MOL0     H90947   5.436   7.328  10.698 -1.7106  2.8087 -0.0470
  689MOL0     H90948   5.474   7.122  10.837  0.1434 -1.8726 -0.7205
  690MOL0     O90949   3.650   1.675   1.743  0.8030 -0.2542  0.1988
  690MOL0     C90950   3.635   1.792   1.722  0.7232 -0.2424 -0.2437
  690MOL0     O90951   3.551   1.855   1.620 -0.2682  0.0224 -0.5062
  690MOL0     C90952   3.473   1.791   1.531  0.3645  0.2028  0.2845
  690MOL0     C90953   3.441   1.860   1.408  0.5095  0.1843  0.0997
  690MOL0     C90954   3.358   1.809   1.311 -0.1245  0.5535 -0.4212
  690MOL0     C90955   3.290   1.686   1.337 -0.4175  0.8824 -0.3694
  690MOL0     O90956   3.213   1.647   1.234  0.1380  0.6511 -0.3447
  690MOL0     C90957   3.152   1.506   1.237  0.7273 -0.3759  0.7868
  690MOL0     C90958   3.063   1.502   1.110  0.5476  0.4342  0.3791
  690MOL0     C90959   2.938   1.596   1.106 -0.3600 -0.0899 -0.0702
  690MOL0     C90960   2.843   1.571   0.986  0.1335 -0.5979  0.9956
  690MOL0     C90961   2.883   1.620   0.846 -0.7639  0.2490  0.2518
  690MOL0     C90962   2.908   1.772   0.848 -0.7573  0.6334  0.9712
  690MOL0     C90963   2.969   1.823   0.718 -0.3008  0.1614  0.3821
  690MOL0     C90964   2.879   1.820   0.592 -0.6641 -0.0188  0.3284
  690MOL0     N90965   2.737   1.850   0.616  0.5174  0.0086  0.2989
  690MOL0     C90966   2.680   1.964   0.677  0.3340  0.0371 -0.3478
  690MOL0     C90967   2.549   1.930   0.702 -0.3659 -0.5428 -0.5728
  690MOL0     C90968   2.444   2.018   0.758 -0.1166 -0.0078 -0.8594
  690MOL0     C90969   2.298   1.983   0.728  0.2304  0.1215 -0.6240
  690MOL0     C90970   2.267   1.989   0.574 -0.3892  0.4106 -0.3140
  690MOL0     C90971   2.135   1.921   0.540 -0.2729 -0.5012  0.6803
  690MOL0     O90972   2.127   1.867   0.406  0.3482  0.0755 -0.5141
  690MOL0     C90973   2.193   1.749   0.370 -0.6989 -0.0317 -0.0672
  690MOL0     C90974   2.264   1.665   0.447  0.8497 -0.3127 -0.3299
  690MOL0     C90975   2.326   1.549   0.408 -0.6055  0.2396  0.1631
  690MOL0     C90976   2.317   1.516   0.273  1.3336 -0.0232  0.2474
  690MOL0     C90977   2.378   1.390   0.227 -0.2915  0.6520 -0.3547
  690MOL0     O90978   2.407   1.383   0.095 -0.3930 -0.9586 -0.5816
  690MOL0     C90979   2.499   1.298   0.051 -0.7238  0.0448 -0.0318
  690MOL0     C90980   2.481   1.156   0.023  0.4680  0.7558 -0.4987
  690MOL0     C90981   2.565   1.079  -0.048 -0.7909  0.3679 -0.1326
  690MOL0     C90982   2.684   1.132  -0.093 -0.0622 -1.2820  1.2184
  690MOL0     O90983   2.760   1.050  -0.172 -0.8031 -0.3562  0.0314
  690MOL0     C90984   2.840   1.125  -0.268  0.3019 -0.0581  1.0318
  690MOL0     C90985   2.911   1.031  -0.369  1.0832 -0.1672  0.3988
  690MOL0     C90986   3.048   1.072  -0.403 -1.3897 -0.3408  0.5334
  690MOL0     C90987   3.133   0.986  -0.497 -0.7628  0.4699  0.4497
  690MOL0     C90988   3.274   1.045  -0.515  0.1189  0.1742 -0.5017
  690MOL0     C90989   3.372   1.007  -0.397  0.9947 -0.5670 -0.3831
  690MOL0     C90990   3.514   1.013  -0.430  0.1502 -0.4341 -0.2809
  690MOL0     C90991   3.601   0.932  -0.326 -0.7764 -0.2538  0.6567
  690MOL0    Cl90992   3.570   0.982  -0.157  0.1156 -0.2311 -0.2339
  690MOL0     C90993   2.724   1.271  -0.054  0.2199  0.8393 -0.9253
  690MOL0     C90994   2.624   1.350   0.013 -0.9664  1.0606  0.1542
  690MOL0     O90995   2.394   1.296   0.304  0.5064  0.0864 -0.3772
  690MOL0     C90996   2.232   1.601   0.189  0.5273  0.6674 -0.8158
  690MOL0     C90997   2.180   1.723   0.239 -0.3430  0.0077 -0.2059
  690MOL0     N90998   2.524   1.799   0.663 -0.1558 -0.0178 -0.8146
  690MOL0     N90999   2.631   1.759   0.603 -0.9429  0.2214  0.3367
  690MOL0     C91000   3.303   1.632   1.466  0.1377  0.9759  0.5741
  690MOL0     C91001   3.394   1.675   1.558  0.1206 -0.6717 -0.1848
  690MOL0     C91002   3.713   1.874   1.798 -0.0898  0.1480 -0.4633
  690MOL0     C91003   3.845   1.838   1.819 -0.2950  0.4969  0.1166
  690MOL0     C91004   3.920   1.927   1.891  0.5099  0.1894 -0.6308
  690MOL0     C91005   3.874   2.044   1.941  1.2234  0.4642 -0.0893
  690MOL0     O91006   3.961   2.130   1.990 -0.1725 -0.0155 -0.4546
  690MOL0     C91007   4.004   2.096   2.125  1.0509  0.4790  0.1914
  690MOL0     C91008   4.077   2.210   2.205 -0.5106  0.3722 -0.0773
  690MOL0     C91009   3.978   2.315   2.260  0.8537 -0.3244  0.2093
  690MOL0     C91010   4.031   2.456   2.237  0.3457 -0.6593  0.6646
  690MOL0     C91011   4.155   2.469   2.317 -0.2345  0.0185  0.5914
  690MOL0     C91012   4.258   2.469   2.380 -0.0521  0.0088 -0.5149
  690MOL0     C91013   3.746   2.075   1.913  0.3942 -0.7036 -0.0868
  690MOL0     C91014   3.652   1.985   1.855 -0.9989 -0.2546  0.0720
  690MOL0     H91015   3.484   1.957   1.384  0.3741  0.0747 -0.6185
  690MOL0     H91016   3.334   1.869   1.225  0.4906  2.7395  0.8628
  690MOL0     H91017   3.084   1.477   1.318 -0.0794 -0.2022  0.1783
  690MOL0     H91018   3.232   1.432   1.231  0.9120 -0.5240  3.5428
  690MOL0     H91019   3.013   1.405   1.122 -3.8998  2.5084  0.9944
  690MOL0     H91020   3.124   1.507   1.020 -0.2288 -1.0920 -0.2749
  690MOL0     H91021   2.977   1.698   1.103 -1.5903  0.4141  0.3668
  690MOL0     H91022   2.875   1.580   1.194 -0.7808 -0.1206 -0.3763
  690MOL0     H91023   2.848   1.462   0.987 -0.0996 -0.6149  0.6207
  690MOL0     H91024   2.745   1.605   1.020  0.7925 -0.3214  2.7238
  690MOL0     H91025   2.811   1.599   0.766  0.4312 -1.0929 -0.5027
  690MOL0     H91026   2.973   1.566   0.815 -0.7162  0.4226  0.0762
  690MOL0     H91027   2.982   1.791   0.927 -1.4382 -0.4144  1.8807
  690MOL0     H91028   2.818   1.832   0.864 -2.5371 -1.4303 -0.6907
  690MOL0     H91029   2.984   1.930   0.732  1.2474 -0.2854  2.9697
  690MOL0     H91030   3.062   1.765   0.706 -1.4304 -1.8423  0.9076
  690MOL0     H91031   2.885   1.716   0.558  2.8217  1.0152 -2.8057
  690MOL0     H91032   2.935   1.870   0.514  3.5877 -3.6364  0.6708
  690MOL0     H91033   2.744   2.051   0.689  1.6123 -0.5050 -2.5649
  690MOL0     H91034   2.471   2.119   0.726  4.4124 -1.1366 -1.2474
  690MOL0     H91035   2.454   2.018   0.867  3.3118  0.0945 -1.0670
  690MOL0     H91036   2.228   2.053   0.774 -0.8588 -1.5221  0.3104
  690MOL0     H91037   2.279   1.883   0.768  2.3059 -0.7497 -1.6259
  690MOL0     H91038   2.271   2.094   0.544  1.4751 -0.0258 -1.7256
  690MOL0     H91039   2.343   1.939   0.514  0.6481  0.8942  0.5482
  690MOL0     H91040   2.055   1.993   0.561 -2.6215 -2.6851 -0.2525
  690MOL0     H91041   2.102   1.840   0.605 -0.0947  1.4830  3.4226
  690MOL0     H91042   2.282   1.689   0.551  1.4193 -1.7566 -0.0845
  690MOL0     H91043   2.391   1.491   0.474 -0.8406  0.4752  0.6084
  690MOL0     H91044   2.386   1.109   0.049  1.8624 -1.5769  0.7370
  690MOL0     H91045   2.545   0.975  -0.071  0.5945 -0.8765  3.5497
  690MOL0     H91046   2.909   1.195  -0.218  0.2090  0.5934  0.2675
  690MOL0     H91047   2.772   1.186  -0.327 -1.7036 -0.2678  3.0043
  690MOL0     H91048   2.867   1.021  -0.468 -1.1227  0.1046  1.2877
  690MOL0     H91049   2.911   0.926  -0.338 -2.2604 -0.8539 -1.4838
  690MOL0     H91050   3.110   1.082  -0.313 -1.9821  0.6835  0.8412
  690MOL0     H91051   3.036   1.173  -0.444  0.3543 -0.2514  0.1650
  690MOL0     H91052   3.137   0.885  -0.456 -0.7321  0.5463  0.6361
  690MOL0     H91053   3.083   0.993  -0.594  0.1425 -2.1245 -0.2830
  690MOL0     H91054   3.279   1.153  -0.535  2.1657  0.4973  1.4578
  690MOL0     H91055   3.306   1.001  -0.610  0.3037  0.2164 -0.4578
  690MOL0     H91056   3.351   0.906  -0.362  1.6579 -1.2212 -1.8019
  690MOL0     H91057   3.357   1.070  -0.309 -2.0999 -1.0915 -0.4254
  690MOL0     H91058   3.528   0.976  -0.532 -0.9148  1.1420 -1.0357
  690MOL0     H91059   3.527   1.121  -0.423  1.2478 -0.5732 -0.0042
  690MOL0     H91060   3.705   0.949  -0.356 -0.5483  0.3044  1.7056
  690MOL0     H91061   3.580   0.825  -0.319 -0.8591 -0.5853 -2.9238
  690MOL0     H91062   2.817   1.308  -0.097 -0.0716  0.6393 -1.7563
  690MOL0     H91063   2.650   1.449   0.050  1.2194 -0.3965  2.9243
  690MOL0     H91064   2.221   1.574   0.084 -0.6671 -0.7226 -0.3644
  690MOL0     H91065   2.134   1.799   0.175 -0.9652  0.9424  1.2921
  690MOL0     H91066   3.250   1.547   1.506 -0.8365 -0.6801 -3.6606
  690MOL0     H91067   3.396   1.630   1.657 -2.2127  0.9039  0.6538
  690MOL0     H91068   3.897   1.749   1.787  3.1165  1.0610  3.3167
  690MOL0     H91069   4.022   1.894   1.911  0.1623 -0.4601  0.1133
  690MOL0     H91070   4.077   2.015   2.113  2.3185  1.5280  0.6225
  690MOL0     H91071   3.913   2.063   2.176  0.7967 -3.4633 -2.3974
  690MOL0     H91072   4.127   2.163   2.290 -1.2493 -1.6789 -0.7136
  690MOL0     H91073   4.154   2.253   2.140 -1.5752 -0.4856 -1.9961
  690MOL0     H91074   3.967   2.304   2.368  0.7636 -2.7488 -0.0052
  690MOL0     H91075   3.884   2.302   2.206  1.3811 -0.5290 -0.6823
  690MOL0     H91076   4.058   2.480   2.134 -1.8350 -1.8762 -0.2611
  690MOL0     H91077   3.952   2.527   2.266  0.5247 -0.0069 -0.4074
  690MOL0     H91078   4.345   2.485   2.440 -2.0323  3.1642  1.8680
  690MOL0     H91079   3.711   2.176   1.932  1.2138 -0.1252 -1.4982
  690MOL0     H91080   3.547   2.001   1.837 -1.1743 -1.3697  0.0321
  691MOL0     O91081  10.293   2.542   2.769  0.1319  0.6298  0.1106
  691MOL0     C91082  10.270   2.451   2.692  0.6513  0.5767 -0.6266
  691MOL0     O91083  10.223   2.467   2.566 -0.3003  0.0610  0.2097
  691MOL0     C91084  10.165   2.588   2.542 -0.2149  0.8505  0.3560
  691MOL0     C91085  10.029   2.598   2.555  0.3806  0.7576 -0.2682
  691MOL0     C91086   9.964   2.722   2.523  0.1717  0.3716 -0.9497
  691MOL0     C91087  10.036   2.835   2.474  0.5968 -0.0738 -0.0803
  691MOL0     O91088   9.993   2.967   2.442 -0.1939 -0.1818 -0.0092
  691MOL0     C91089   9.856   3.001   2.456  0.1903  0.1453 -0.7319
  691MOL0     C91090   9.826   3.130   2.382 -0.1444 -0.0721 -0.7180
  691MOL0     C91091   9.911   3.252   2.427  0.8275 -0.3859 -0.0956
  691MOL0     C91092   9.871   3.379   2.348  0.3548  0.1374 -0.7124
  691MOL0     C91093   9.962   3.494   2.393 -0.5250  1.2126  0.1701
  691MOL0     C91094   9.900   3.622   2.315 -0.4184  0.9657 -0.0226
  691MOL0     C91095   9.988   3.741   2.350 -0.1579  0.6300 -0.1370
  691MOL0     C91096   9.934   3.882   2.306 -0.8685  0.6716  0.5121
  691MOL0     N91097  10.034   3.985   2.333 -0.6486  0.1678  0.2871
  691MOL0     C91098  10.089   4.030   2.451 -0.2294 -0.2445  0.5045
  691MOL0     C91099  10.186   4.114   2.414 -0.3599 -0.0351  0.2455
  691MOL0     C91100  10.292   4.168   2.508 -0.3068 -0.1351 -0.4550
  691MOL0     C91101  10.431   4.174   2.434  0.0700  0.3592 -0.4603
  691MOL0     C91102  10.558   4.167   2.513 -0.2383 -0.1367 -0.1523
  691MOL0     C91103  10.666   4.124   2.424  0.4384 -0.0024  0.4899
  691MOL0     O91104  10.792   4.130   2.485 -0.1453  0.0177  0.4980
  691MOL0     C91105  10.835   4.035   2.579 -0.0975  0.1950  0.1557
  691MOL0     C91106  10.795   3.902   2.572  0.1363 -0.7373  0.1896
  691MOL0     C91107  10.825   3.812   2.676  0.5658 -0.2185 -0.3430
  691MOL0     C91108  10.908   3.848   2.782  0.9759 -0.1173 -0.2758
  691MOL0     C91109  10.950   3.749   2.883  0.3108 -0.5609 -0.6198
  691MOL0     O91110  10.879   3.630   2.907 -0.5801 -0.1433  0.1719
  691MOL0     C91111  10.936   3.547   2.999  0.0042 -0.7567 -0.8588
  691MOL0     C91112  10.899   3.552   3.131  0.6746  0.6850 -0.2481
  691MOL0     C91113  10.943   3.461   3.234 -0.2709 -1.2753  0.3890
  691MOL0     C91114  11.045   3.374   3.206  0.0395 -0.9264 -0.4010
  691MOL0     O91115  11.094   3.305   3.314 -0.4048  0.6595  0.1321
  691MOL0     C91116  11.147   3.174   3.281 -0.1847 -0.1228  0.5649
  691MOL0     C91117  11.115   3.079   3.389  0.2925  0.1625 -0.6560
  691MOL0     C91118  11.188   2.947   3.351  0.1456  0.7828  0.8779
  691MOL0     C91119  11.183   2.842   3.459  0.1571 -0.2015  0.4087
  691MOL0     C91120  11.249   2.718   3.400 -0.1551  0.0203  0.1029
  691MOL0     C91121  11.234   2.599   3.505  0.0534 -0.2154  1.0632
  691MOL0     C91122  11.310   2.483   3.447 -0.0109  0.3247  0.1274
  691MOL0     C91123  11.266   2.351   3.506 -0.9029 -0.3983  0.3929
  691MOL0    Cl91124  11.279   2.361   3.683  0.0322 -0.0400 -0.2950
  691MOL0     C91125  11.092   3.382   3.076 -1.0643  0.6025  0.3032
  691MOL0     C91126  11.048   3.465   2.975  0.4326 -0.5254  1.2494
  691MOL0     O91127  11.058   3.776   2.937  0.2522  0.3089  0.7773
  691MOL0     C91128  10.955   3.982   2.784 -0.1690  0.0979  0.6659
  691MOL0     C91129  10.917   4.072   2.683 -0.4496 -0.3592  0.0660
  691MOL0     N91130  10.178   4.142   2.278 -0.3312 -0.2422 -0.1630
  691MOL0     N91131  10.092   4.060   2.242  0.9900 -0.3360  0.6020
  691MOL0     C91132  10.171   2.818   2.466  0.0551 -1.0063  0.4098
  691MOL0     C91133  10.236   2.696   2.501 -0.5062 -0.1661 -0.5687
  691MOL0     C91134  10.309   2.309   2.734  0.7134 -0.0307  0.0966
  691MOL0     C91135  10.257   2.193   2.670 -0.7963 -0.5197  0.2955
  691MOL0     C91136  10.285   2.062   2.711  0.0910 -0.1404  0.1318
  691MOL0     C91137  10.368   2.049   2.826  0.3708  0.6272  0.0052
  691MOL0     O91138  10.396   1.916   2.876 -0.3873  0.4192  0.0959
  691MOL0     C91139  10.506   1.898   2.971 -0.0635 -0.6984 -0.3348
  691MOL0     C91140  10.522   1.748   2.991  0.0513 -0.1417  1.1897
  691MOL0     C91141  10.406   1.694   3.063  0.3207 -0.6128 -0.2710
  691MOL0     C91142  10.437   1.547   3.071  0.8719 -0.0753 -0.1354
  691MOL0     C91143  10.337   1.463   3.132  0.6782  0.1318 -0.7029
  691MOL0     C91144  10.257   1.391   3.190  0.0063 -0.1232  0.0945
  691MOL0     C91145  10.415   2.169   2.897  0.1431 -0.1787 -0.2368
  691MOL0     C91146  10.399   2.285   2.836  0.4425 -0.8422 -0.4196
  691MOL0     H91147   9.986   2.505   2.592 -1.4147  1.3515 -0.7352
  691MOL0     H91148   9.858   2.739   2.539  0.1732  1.3484 -1.8324
  691MOL0     H91149   9.836   3.021   2.562  0.8617  0.3084 -0.6314
  691MOL0     H91150   9.783   2.929   2.417  0.4865 -0.0651 -0.9022
  691MOL0     H91151   9.722   3.163   2.387  0.1150  1.0762 -2.2186
  691MOL0     H91152   9.853   3.116   2.277 -0.7825  1.2074 -1.0711
  691MOL0     H91153  10.018   3.240   2.409  1.3202  2.8942 -0.0230
  691MOL0     H91154   9.888   3.273   2.531 -1.3925  1.5833 -0.8839
  691MOL0     H91155   9.874   3.365   2.240 -0.8157  2.5191 -1.1258
  691MOL0     H91156   9.771   3.407   2.382 -0.0577 -0.9987 -0.9247
  691MOL0     H91157  10.068   3.474   2.376 -0.0140  0.3822  3.5531
  691MOL0     H91158   9.950   3.502   2.501 -1.7175 -1.7404  0.3450
  691MOL0     H91159   9.794   3.633   2.340 -0.7998 -2.6228  0.5009
  691MOL0     H91160   9.919   3.604   2.209  2.4826 -2.6640  0.9149
  691MOL0     H91161  10.002   3.753   2.458  0.0500  0.3284 -0.1292
  691MOL0     H91162  10.089   3.733   2.308  0.1256 -3.4740  0.8540
  691MOL0     H91163   9.836   3.892   2.354 -0.6697 -1.8439  1.5648
  691MOL0     H91164   9.911   3.884   2.199 -2.1264 -0.1453  0.7558
  691MOL0     H91165  10.060   3.998   2.550  1.1394 -2.6857  0.2017
  691MOL0     H91166  10.302   4.110   2.600  2.9619  0.2791 -0.4241
  691MOL0     H91167  10.276   4.269   2.549 -0.8811 -0.7933  0.9986
  691MOL0     H91168  10.428   4.265   2.374  0.6797  1.2604  0.8340
  691MOL0     H91169  10.424   4.102   2.352 -0.7158 -2.1719  1.6891
  691MOL0     H91170  10.584   4.254   2.575 -2.3898 -0.5082  1.3820
  691MOL0     H91171  10.541   4.078   2.576 -0.2375 -0.4051 -0.5274
  691MOL0     H91172  10.654   4.185   2.334 -0.6738 -0.1554  0.5246
  691MOL0     H91173  10.649   4.024   2.382  1.3994 -1.2296  2.8147
  691MOL0     H91174  10.725   3.874   2.494  0.1765 -0.1320 -0.0654
  691MOL0     H91175  10.795   3.708   2.670  1.9184 -1.0033  3.5127
  691MOL0     H91176  10.825   3.628   3.157  1.3596  1.0695  0.6136
  691MOL0     H91177  10.885   3.476   3.324  0.4399  0.2350  0.6379
  691MOL0     H91178  11.250   3.194   3.250  0.5836  2.2500  4.0660
  691MOL0     H91179  11.082   3.141   3.200 -3.2412  2.7284  1.6375
  691MOL0     H91180  11.007   3.062   3.401  0.5864 -3.3988 -1.8653
  691MOL0     H91181  11.151   3.109   3.487 -1.7957  2.5912 -0.5250
  691MOL0     H91182  11.292   2.975   3.333 -0.0352  2.1160  1.7626
  691MOL0     H91183  11.162   2.902   3.255  0.4795 -1.9252  1.9530
  691MOL0     H91184  11.248   2.874   3.540  2.5152 -0.6598 -1.2027
  691MOL0     H91185  11.079   2.821   3.486 -0.4662 -0.5743 -2.0093
  691MOL0     H91186  11.356   2.744   3.396 -0.6969  2.6374  0.5102
  691MOL0     H91187  11.207   2.699   3.301 -1.2905 -1.2088  0.8009
  691MOL0     H91188  11.132   2.568   3.529  0.3558 -0.7904  1.6595
  691MOL0     H91189  11.279   2.628   3.601  0.5311  1.3778  0.3953
  691MOL0     H91190  11.295   2.474   3.339 -1.3573 -1.2773  0.4048
  691MOL0     H91191  11.417   2.499   3.459  0.7320 -3.8134  0.1957
  691MOL0     H91192  11.320   2.266   3.464 -0.9982  0.9637 -2.7714
  691MOL0     H91193  11.164   2.337   3.471 -0.4147  0.1154 -1.3649
  691MOL0     H91194  11.174   3.322   3.037 -0.5944  1.5822 -0.2473
  691MOL0     H91195  11.090   3.465   2.875  0.0529 -0.4222  1.0862
  691MOL0     H91196  11.030   4.012   2.857 -1.2861 -1.2836  2.4489
  691MOL0     H91197  10.945   4.176   2.693  0.0412 -0.4748 -0.0567
  691MOL0     H91198  10.239   2.900   2.444  1.9124 -1.8006  2.7232
  691MOL0     H91199  10.344   2.686   2.510 -0.3561  0.7110 -1.2750
  691MOL0     H91200  10.189   2.202   2.586 -0.0951 -3.2865 -0.6781
  691MOL0     H91201  10.250   1.974   2.658 -0.2389 -0.5763  1.0505
  691MOL0     H91202  10.497   1.937   3.073 -3.6797 -3.1760  0.4924
  691MOL0     H91203  10.600   1.931   2.926 -0.6550 -0.0376 -1.1211
  691MOL0     H91204  10.538   1.706   2.892  0.6054  2.5609  0.0633
  691MOL0     H91205  10.618   1.735   3.044  0.2393  2.0944  1.5085
  691MOL0     H91206  10.319   1.725   3.004 -0.1209  4.5681  2.4586
  691MOL0     H91207  10.394   1.750   3.156 -2.0978  1.9437 -1.9608
  691MOL0     H91208  10.461   1.485   2.984  0.9560 -2.7979  1.7165
  691MOL0     H91209  10.527   1.547   3.133  1.5052 -0.1117 -1.0352
  691MOL0     H91210  10.184   1.324   3.231  1.8945 -2.8146 -0.5983
  691MOL0     H91211  10.477   2.162   2.985 -0.2814 -1.8394 -0.0397
  691MOL0     H91212  10.430   2.366   2.901  1.8731 -2.7432  1.3996
  692MOL0     O91213   1.152   9.202   8.490  0.0678  0.6691 -0.4232
  692MOL0     C91214   1.175   9.311   8.451 -0.7670  0.3922 -0.4925
  692MOL0     O91215   1.210   9.421   8.534 -0.3410  0.0845  0.2557
  692MOL0     C91216   1.259   9.404   8.657  0.6778  0.8757  0.0664
  692MOL0     C91217   1.217   9.316   8.748 -0.0866  0.2419  0.1352
  692MOL0     C91218   1.264   9.315   8.883  1.1261 -0.2857 -0.7161
  692MOL0     C91219   1.363   9.397   8.923 -0.4341 -0.2403 -0.5656
  692MOL0     O91220   1.415   9.396   9.047 -0.2465  1.0541 -0.9860
  692MOL0     C91221   1.322   9.377   9.163 -1.0129 -0.0889  0.2342
  692MOL0     C91222   1.373   9.439   9.290 -0.7398  1.2493 -0.0730
  692MOL0     C91223   1.349   9.592   9.312  0.4733  0.3553 -0.2557
  692MOL0     C91224   1.400   9.624   9.454 -0.2781 -0.4261  0.0846
  692MOL0     C91225   1.355   9.765   9.504  0.8238  0.2817  0.2092
  692MOL0     C91226   1.247   9.757   9.614 -0.7224 -0.6697  0.7956
  692MOL0     C91227   1.126   9.700   9.542  0.0887  1.1168  0.5589
  692MOL0     C91228   1.000   9.708   9.635 -0.3800 -0.3538 -0.0875
  692MOL0     N91229   0.887   9.647   9.560 -0.5805  0.0298  0.1894
  692MOL0     C91230   0.876   9.513   9.529 -1.2100 -0.0185 -0.1921
  692MOL0     C91231   0.757   9.498   9.460 -0.0971 -1.3049 -1.4574
  692MOL0     C91232   0.679   9.370   9.428 -0.8425 -0.1436 -0.5550
  692MOL0     C91233   0.538   9.368   9.461  0.3391  0.2692 -0.4238
  692MOL0     C91234   0.468   9.238   9.469  0.1811  0.0009  0.8819
  692MOL0     C91235   0.523   9.143   9.578 -0.0804 -0.7921 -0.0557
  692MOL0     O91236   0.499   9.214   9.705  0.0642  0.4990  0.0620
  692MOL0     C91237   0.384   9.201   9.773 -0.2296 -0.7613  0.3328
  692MOL0     C91238   0.283   9.117   9.726 -0.3031 -0.1145  0.5324
  692MOL0     C91239   0.159   9.103   9.796 -0.2848 -0.1764 -0.1036
  692MOL0     C91240   0.127   9.175   9.912  0.6730  0.0269  0.2800
  692MOL0     C91241  -0.013   9.162   9.967  0.1381  0.4478  0.0488
  692MOL0     O91242  -0.032   9.222  10.085  0.0195  1.0407  0.4133
  692MOL0     C91243  -0.160   9.261  10.120  0.6439  0.4566  0.0176
  692MOL0     C91244  -0.231   9.207  10.229  0.7846 -0.5622  0.1668
  692MOL0     C91245  -0.369   9.237  10.255  0.3256  0.9941 -0.0357
  692MOL0     C91246  -0.440   9.325  10.171 -0.2930 -0.3944  0.2418
  692MOL0     O91247  -0.575   9.365  10.194 -0.5815 -0.1514  0.5069
  692MOL0     C91248  -0.604   9.482  10.125 -0.4798 -1.4740  0.4231
  692MOL0     C91249  -0.742   9.546  10.181  0.3553 -0.4046 -0.1900
  692MOL0     C91250  -0.856   9.457  10.163  0.2533  0.2195 -0.3424
  692MOL0     C91251  -0.990   9.521  10.201  1.1530  0.1968  1.3469
  692MOL0     C91252  -1.054   9.564  10.059 -0.2520 -0.3006  0.0036
  692MOL0     C91253  -1.205   9.567  10.053  0.5368  0.6698 -0.2199
  692MOL0     C91254  -1.275   9.630  10.168 -0.2722  0.6947 -1.1792
  692MOL0     C91255  -1.216   9.767  10.188  0.0125 -0.1034 -0.5418
  692MOL0    Cl91256  -1.306   9.869  10.302  0.0881 -0.1200 -0.2226
  692MOL0     C91257  -0.367   9.379  10.063  0.5377  0.7708 -0.4080
  692MOL0     C91258  -0.230   9.347  10.036  0.2427 -0.0543 -0.3786
  692MOL0     O91259  -0.104   9.116   9.895  0.7428 -0.8790 -0.4494
  692MOL0     C91260   0.227   9.258   9.960 -0.1652 -0.7334  0.1972
  692MOL0     C91261   0.353   9.266   9.899  0.2672 -0.3801  0.6562
  692MOL0     N91262   0.693   9.625   9.465  0.3336  0.0805  0.5683
  692MOL0     N91263   0.778   9.707   9.523  1.1685  0.6847  0.4375
  692MOL0     C91264   1.414   9.492   8.828  0.0818 -0.3832  1.2056
  692MOL0     C91265   1.368   9.490   8.692  0.9202  0.1974 -0.1095
  692MOL0     C91266   1.179   9.340   8.308  0.2883 -0.0900 -0.1573
  692MOL0     C91267   1.081   9.282   8.226  0.4690  0.0381 -0.0534
  692MOL0     C91268   1.061   9.318   8.092 -0.5839 -0.5580 -0.1949
  692MOL0     C91269   1.153   9.409   8.030 -0.3031  1.2281  0.0008
  692MOL0     O91270   1.130   9.425   7.901 -0.1186 -0.4054  0.2955
  692MOL0     C91271   1.222   9.521   7.837 -0.4287  1.0273  0.4781
  692MOL0     C91272   1.211   9.502   7.687  0.8021  0.3782  0.2883
  692MOL0     C91273   1.317   9.577   7.608 -0.4568 -0.7109  0.7468
  692MOL0     C91274   1.465   9.528   7.626  0.1214 -0.2415 -0.8308
  692MOL0     C91275   1.543   9.577   7.515 -0.1635 -0.9176  1.5824
  692MOL0     C91276   1.613   9.608   7.418 -0.5865  0.0536 -0.3507
  692MOL0     C91277   1.246   9.474   8.106 -0.7873  0.5147 -0.3385
  692MOL0     C91278   1.263   9.435   8.243  0.4701 -0.1135 -0.3043
  692MOL0     H91279   1.148   9.237   8.719 -0.3177  0.7901 -0.8639
  692MOL0     H91280   1.227   9.241   8.953  1.0355  1.9711  1.7758
  692MOL0     H91281   1.313   9.271   9.186  2.5726 -0.3251  1.2501
  692MOL0     H91282   1.227   9.425   9.139 -2.3339 -2.3313  0.6907
  692MOL0     H91283   1.476   9.401   9.299 -1.5500 -0.5874  4.2126
  692MOL0     H91284   1.320   9.385   9.369 -0.0999 -2.1590 -1.7779
  692MOL0     H91285   1.246   9.622   9.290 -0.2485 -0.5016  1.7978
  692MOL0     H91286   1.402   9.651   9.236  1.4484  0.0199  0.1513
  692MOL0     H91287   1.357   9.549   9.520 -0.7762 -1.4716 -1.3686
  692MOL0     H91288   1.508   9.609   9.462 -0.2647 -1.0399 -1.0251
  692MOL0     H91289   1.304   9.805   9.416 -1.0848 -4.8240 -1.3368
  692MOL0     H91290   1.436   9.824   9.548 -1.0443  2.3342  1.1463
  692MOL0     H91291   1.228   9.859   9.647 -1.3689  0.7190 -3.2976
  692MOL0     H91292   1.287   9.691   9.692 -2.4798 -2.6080  0.1283
  692MOL0     H91293   1.105   9.755   9.450 -1.5965 -0.3939 -0.0186
  692MOL0     H91294   1.122   9.592   9.525  1.2090  0.2736  4.5577
  692MOL0     H91295   0.982   9.807   9.678 -0.0406  0.1875 -1.1434
  692MOL0     H91296   1.027   9.645   9.720  1.6246 -1.1417 -1.2432
  692MOL0     H91297   0.935   9.424   9.546 -1.6815 -0.6823 -1.8018
  692MOL0     H91298   0.720   9.288   9.488 -1.5986  0.1134  0.3368
  692MOL0     H91299   0.697   9.355   9.321 -1.9075  1.8514 -1.0587
  692MOL0     H91300   0.494   9.415   9.372  0.5908 -1.5072 -1.5488
  692MOL0     H91301   0.535   9.422   9.556 -0.0960 -3.2201  1.7030
  692MOL0     H91302   0.367   9.261   9.506  1.3970  2.6854  2.8755
  692MOL0     H91303   0.463   9.193   9.369 -1.5482  1.2747  0.3401
  692MOL0     H91304   0.628   9.120   9.560  0.0614 -1.1186  1.1258
  692MOL0     H91305   0.471   9.047   9.570 -2.6391  0.3309  1.5672
  692MOL0     H91306   0.298   9.056   9.638 -0.3152  1.5395 -0.6631
  692MOL0     H91307   0.082   9.043   9.748 -0.0947 -0.2032 -0.3793
  692MOL0     H91308  -0.182   9.140  10.299 -1.1795 -4.4153 -1.8154
  692MOL0     H91309  -0.426   9.199  10.339  0.7927 -0.6866 -0.4304
  692MOL0     H91310  -0.606   9.476  10.015 -0.5860 -0.7145  0.3800
  692MOL0     H91311  -0.531   9.559  10.151 -1.2809 -0.3515 -0.5323
  692MOL0     H91312  -0.779   9.637  10.133 -0.1644 -0.7817 -0.5081
  692MOL0     H91313  -0.722   9.567  10.287  0.8937  1.6786 -0.6552
  692MOL0     H91314  -0.849   9.361  10.215 -1.0344 -0.9265 -2.1729
  692MOL0     H91315  -0.853   9.426  10.058 -1.8179 -0.3175 -0.2954
  692MOL0     H91316  -1.061   9.457  10.254 -2.6551  0.1823 -3.1112
  692MOL0     H91317  -0.968   9.607  10.266 -1.9074  1.4339  0.9375
  692MOL0     H91318  -1.029   9.498   9.976 -2.6586 -0.2408 -0.8529
  692MOL0     H91319  -1.019   9.664  10.034  0.6553  0.1019  2.5674
  692MOL0     H91320  -1.228   9.460  10.050 -2.5492  1.2043  0.8490
  692MOL0     H91321  -1.219   9.621   9.959  1.8134  1.9324  0.2826
  692MOL0     H91322  -1.381   9.620  10.146 -0.4919 -0.8990  0.3805
  692MOL0     H91323  -1.253   9.574  10.259 -0.9291 -0.0973 -1.5068
  692MOL0     H91324  -1.211   9.816  10.091  0.4674  1.4078  0.2206
  692MOL0     H91325  -1.119   9.750  10.235  0.5197  0.7595 -1.2552
  692MOL0     H91326  -0.406   9.464  10.007 -2.5176  0.6966  1.4151
  692MOL0     H91327  -0.184   9.398   9.951  0.9666 -1.4404 -0.8464
  692MOL0     H91328   0.196   9.317  10.045  0.7327  0.8956 -0.5531
  692MOL0     H91329   0.430   9.327   9.945  1.2217  0.3485 -1.7355
  692MOL0     H91330   1.501   9.551   8.855 -0.1101  1.0563 -1.0941
  692MOL0     H91331   1.407   9.564   8.623 -1.4872  0.5029 -1.2649
  692MOL0     H91332   1.023   9.199   8.264  0.1709 -0.8895 -2.3696
  692MOL0     H91333   0.992   9.271   8.023  1.3004 -1.5377 -1.5296
  692MOL0     H91334   1.327   9.501   7.862 -0.4458  0.8448  0.4078
  692MOL0     H91335   1.196   9.625   7.856 -2.2982  1.4900 -3.4904
  692MOL0     H91336   1.208   9.394   7.671  1.7420 -0.1319  3.0058
  692MOL0     H91337   1.112   9.541   7.660  0.7551  0.3226  0.3801
  692MOL0     H91338   1.316   9.683   7.637  2.2114 -0.8600  1.6358
  692MOL0     H91339   1.295   9.577   7.501  1.4621  3.4579  0.1416
  692MOL0     H91340   1.494   9.594   7.708  0.4617 -2.0840  0.5852
  692MOL0     H91341   1.478   9.420   7.638  1.0655  0.1000  1.7509
  692MOL0     H91342   1.684   9.618   7.338  2.7738 -3.0369  1.9099
  692MOL0     H91343   1.323   9.547   8.085  1.4649 -0.0921  4.4087
  692MOL0     H91344   1.329   9.497   8.302 -2.3493  1.5468  1.3411
  693MOL0     O91345   1.876   9.170  11.233 -1.0106  0.0107 -0.3201
  693MOL0     C91346   1.955   9.127  11.147  0.4594  0.0242 -0.0021
  693MOL0     O91347   1.920   9.121  11.011  0.1637 -0.6843  0.1817
  693MOL0     C91348   1.817   9.198  10.961  0.1317 -0.1589  0.4671
  693MOL0     C91349   1.747   9.307  11.019  0.2884  0.6245 -0.1191
  693MOL0     C91350   1.642   9.366  10.953  0.2575 -0.6624  0.1027
  693MOL0     C91351   1.610   9.335  10.820 -1.2801  0.4474  0.4536
  693MOL0     O91352   1.531   9.419  10.753  0.0020  0.5972  0.1193
  693MOL0     C91353   1.473   9.373  10.630 -0.4171 -0.1309 -0.2540
  693MOL0     C91354   1.366   9.470  10.589 -0.4494 -0.2339  0.4499
  693MOL0     C91355   1.238   9.448  10.666  0.0830  0.0479  0.0077
  693MOL0     C91356   1.131   9.548  10.624  0.2775  0.7531  0.3802
  693MOL0     C91357   1.038   9.587  10.746  1.4603 -1.5085 -0.1651
  693MOL0     C91358   0.969   9.731  10.731  0.3646  0.4260 -0.1782
  693MOL0     C91359   0.825   9.736  10.784  0.7482  0.1187  0.3987
  693MOL0     C91360   0.808   9.678  10.925  0.7241  0.7874 -0.0817
  693MOL0     N91361   0.666   9.699  10.966  0.0489 -0.0199  0.7992
  693MOL0     C91362   0.569   9.612  10.952  0.5239  0.0431 -0.3229
  693MOL0     C91363   0.471   9.674  11.024  0.8244  1.2639  0.7845
  693MOL0     C91364   0.333   9.603  11.035 -0.5310  0.2275  0.5827
  693MOL0     C91365   0.222   9.667  10.969 -0.1473  0.1663  0.7124
  693MOL0     C91366   0.158   9.787  11.036  0.0260 -0.3896  0.1079
  693MOL0     C91367   0.019   9.833  10.981 -0.5904 -0.0969 -0.0335
  693MOL0     O91368   0.041   9.835  10.841  0.1231  0.6731  0.9480
  693MOL0     C91369   0.093   9.956  10.793  0.1090 -0.4829  0.2837
  693MOL0     C91370   0.024  10.080  10.808 -0.6305 -0.4513 -0.2415
  693MOL0     C91371   0.072  10.197  10.740  0.9841  0.0384  1.0951
  693MOL0     C91372   0.189  10.191  10.659 -0.1351 -0.9019 -0.1147
  693MOL0     C91373   0.230  10.314  10.592 -0.7833 -0.0208  0.1849
  693MOL0     O91374   0.307  10.298  10.476 -0.6678 -0.0525 -0.3230
  693MOL0     C91375   0.352  10.421  10.429  0.1404  0.0259  0.6268
  693MOL0     C91376   0.282  10.481  10.327 -0.0369 -0.3394 -0.2777
  693MOL0     C91377   0.335  10.602  10.270 -0.0805  0.1386  0.2786
  693MOL0     C91378   0.442  10.664  10.324  0.4177 -0.4995  0.6256
  693MOL0     O91379   0.491  10.788  10.288  0.4478 -0.2497 -0.3073
  693MOL0     C91380   0.476  10.825  10.151  0.2123 -0.0802  0.9673
  693MOL0     C91381   0.608  10.795  10.078 -0.0645 -0.3501 -0.3346
  693MOL0     C91382   0.724  10.856  10.165  0.4193 -0.3911 -0.0504
  693MOL0     C91383   0.860  10.824  10.119 -0.1985  0.3500 -1.2508
  693MOL0     C91384   0.876  10.853   9.969 -0.2123 -0.4960  1.4486
  693MOL0     C91385   1.027  10.854   9.935 -0.6840  0.2197  0.2503
  693MOL0     C91386   1.071  10.883   9.794  0.3786 -0.2334  0.6567
  693MOL0     C91387   1.034  11.024   9.750 -0.6992 -0.2179  0.3941
  693MOL0    Cl91388   1.119  11.042   9.580  0.4999  0.4929  0.0112
  693MOL0     C91389   0.517  10.593  10.415 -0.6482  0.3737 -0.0448
  693MOL0     C91390   0.474  10.472  10.462 -1.5105 -0.1474 -0.0129
  693MOL0     O91391   0.201  10.420  10.653  0.8952 -0.6084  0.3599
  693MOL0     C91392   0.256  10.071  10.646  0.3948 -0.3028  0.0417
  693MOL0     C91393   0.211   9.961  10.719  0.5743  0.1426  0.1463
  693MOL0     N91394   0.516   9.785  11.088 -0.0665 -0.0919  0.9858
  693MOL0     N91395   0.633   9.809  11.040  0.3330 -0.5176 -0.0314
  693MOL0     C91396   1.673   9.228  10.765 -0.6288 -0.6486  0.7158
  693MOL0     C91397   1.774   9.166  10.836  0.3790  0.2673 -0.5616
  693MOL0     C91398   2.095   9.100  11.193 -0.3640  0.2273 -0.7664
  693MOL0     C91399   2.199   9.076  11.109  0.4849 -0.3296  0.0906
  693MOL0     C91400   2.326   9.050  11.153  0.1494 -1.2338 -0.2199
  693MOL0     C91401   2.358   9.071  11.287  0.1121  0.1444  0.2049
  693MOL0     O91402   2.490   9.048  11.327  0.1705 -0.1851  0.9228
  693MOL0     C91403   2.526   9.076  11.464 -0.7232  0.5641  0.0517
  693MOL0     C91404   2.669   9.042  11.491  1.0551  0.7977 -0.3879
  693MOL0     C91405   2.774   9.114  11.414 -0.0880 -1.0443 -0.1655
  693MOL0     C91406   2.902   9.038  11.366 -0.1264 -0.3584 -0.2904
  693MOL0     C91407   3.004   9.015  11.470  0.4825 -0.6467  0.3561
  693MOL0     C91408   3.062   9.001  11.573  0.0524  1.2913  0.1664
  693MOL0     C91409   2.258   9.097  11.383 -0.5649  0.1846 -0.1508
  693MOL0     C91410   2.127   9.107  11.338 -1.0147 -0.1127 -0.1091
  693MOL0     H91411   1.771   9.362  11.110 -1.3411  0.7976  0.2249
  693MOL0     H91412   1.581   9.442  11.000  0.3929 -0.2068 -0.4408
  693MOL0     H91413   1.424   9.276  10.644 -0.5990  0.2409  1.9930
  693MOL0     H91414   1.551   9.358  10.555  0.6723 -2.5603  1.2562
  693MOL0     H91415   1.342   9.430  10.490  2.4038  0.3175 -0.5397
  693MOL0     H91416   1.392   9.576  10.577 -2.3475  0.1150 -1.2144
  693MOL0     H91417   1.256   9.465  10.773 -1.4411  2.0953 -0.0005
  693MOL0     H91418   1.190   9.352  10.642 -0.9058  1.2334 -3.1853
  693MOL0     H91419   1.181   9.634  10.580 -2.3790  2.0417 -0.3184
  693MOL0     H91420   1.073   9.499  10.545 -0.4418 -0.3686  1.5559
  693MOL0     H91421   1.104   9.582  10.834 -0.4548 -0.7710  1.3772
  693MOL0     H91422   0.965   9.506  10.759  1.7013 -1.5739  0.9023
  693MOL0     H91423   0.971   9.762  10.626 -2.6053 -0.4550 -0.5948
  693MOL0     H91424   1.046   9.789  10.782  0.9438 -1.1560  0.8199
  693MOL0     H91425   0.795   9.840  10.768 -0.2669 -0.5253 -2.3810
  693MOL0     H91426   0.763   9.671  10.722 -1.2424 -0.2330  2.6007
  693MOL0     H91427   0.877   9.728  10.993  3.5497 -2.5093 -0.2042
  693MOL0     H91428   0.831   9.571  10.935 -0.9992  0.6010  3.2720
  693MOL0     H91429   0.554   9.520  10.896  2.4096  1.1251 -2.8428
  693MOL0     H91430   0.316   9.582  11.141 -0.8135 -0.2330  0.4491
  693MOL0     H91431   0.345   9.499  11.003  3.1790  0.7283 -0.1149
  693MOL0     H91432   0.148   9.587  10.964  0.6938 -0.5362 -2.0478
  693MOL0     H91433   0.239   9.694  10.864 -0.2476  3.3185  1.3868
  693MOL0     H91434   0.147   9.768  11.143  2.9963  0.7530  0.7084
  693MOL0     H91435   0.211   9.882  11.024 -3.1403  1.5254  0.1433
  693MOL0     H91436  -0.014   9.932  11.017  0.4121  1.0184 -2.0119
  693MOL0     H91437  -0.066   9.768  11.006 -2.4824  1.6313 -1.5959
  693MOL0     H91438  -0.072  10.081  10.859  0.0365  3.2225  1.2740
  693MOL0     H91439   0.022  10.291  10.762  0.4758 -0.4472  2.0990
  693MOL0     H91440   0.192  10.431  10.294 -1.9016  1.4080  1.8683
  693MOL0     H91441   0.276  10.655  10.196 -2.0720  0.9002  2.2840
  693MOL0     H91442   0.459  10.933  10.155 -0.6136 -0.2382  2.0754
  693MOL0     H91443   0.383  10.788  10.106  0.9086 -1.7892  0.8415
  693MOL0     H91444   0.610  10.857   9.987 -1.5259  0.1713 -0.0346
  693MOL0     H91445   0.624  10.687  10.066  0.6156 -0.2287 -0.5611
  693MOL0     H91446   0.718  10.823  10.269  0.4694  0.9590  0.3999
  693MOL0     H91447   0.703  10.963  10.162  0.2114 -0.1938  3.9201
  693MOL0     H91448   0.935  10.860  10.189 -1.4255  1.4288 -0.4285
  693MOL0     H91449   0.867  10.716  10.131  1.9593  0.7190  2.4411
  693MOL0     H91450   0.843  10.954   9.941 -0.7054 -1.0675 -0.1186
  693MOL0     H91451   0.818  10.786   9.905 -1.6912  0.0018  2.2015
  693MOL0     H91452   1.047  10.751   9.966 -1.1810 -0.1126 -0.5061
  693MOL0     H91453   1.089  10.917  10.000  2.1507  0.1389 -2.1720
  693MOL0     H91454   1.179  10.870   9.787  0.9072  3.4253 -0.0148
  693MOL0     H91455   1.008  10.816   9.734 -2.5399  0.6685  2.5133
  693MOL0     H91456   1.072  11.095   9.824 -0.0642 -1.1647  1.0004
  693MOL0     H91457   0.927  11.036   9.734 -0.4882  0.6536 -0.4549
  693MOL0     H91458   0.604  10.644  10.455 -0.2467 -0.5678  0.3023
  693MOL0     H91459   0.535  10.419  10.534 -0.4794  2.7870  1.4121
  693MOL0     H91460   0.335  10.053  10.575  1.2224 -1.7477  1.2666
  693MOL0     H91461   0.240   9.857  10.704 -2.0811 -1.0249  2.2191
  693MOL0     H91462   1.672   9.190  10.664  3.1447  0.3446  0.1477
  693MOL0     H91463   1.826   9.088  10.782  1.2896 -0.3239  1.1087
  693MOL0     H91464   2.182   9.073  11.002  1.7002  2.7389 -0.2970
  693MOL0     H91465   2.389   9.019  11.070 -1.3952 -0.2894 -1.8150
  693MOL0     H91466   2.474   9.004  11.528  0.3165  1.2543  1.7295
  693MOL0     H91467   2.509   9.178  11.499  0.5686  0.5895  0.6642
  693MOL0     H91468   2.683   9.052  11.599  0.0142  1.5344 -0.3066
  693MOL0     H91469   2.682   8.935  11.470  1.7896  1.1454 -1.8881
  693MOL0     H91470   2.799   9.206  11.468 -2.2192 -1.7824  2.2754
  693MOL0     H91471   2.715   9.144  11.327 -1.4843 -3.0486  0.0112
  693MOL0     H91472   2.895   8.937  11.323 -0.2518 -0.3995 -0.1738
  693MOL0     H91473   2.946   9.103  11.289  0.8693 -1.1220 -0.3862
  693MOL0     H91474   3.114   8.986  11.666  1.5170  0.8588 -0.6903
  693MOL0     H91475   2.279   9.090  11.490  2.1543  1.9608 -0.4567
  693MOL0     H91476   2.053   9.133  11.413  1.6170 -1.7450  3.3599
  694MOL0     O91477   3.541   9.387   7.434  0.3407  0.7153 -0.1060
  694MOL0     C91478   3.540   9.290   7.366  0.0868 -0.5495  1.2406
  694MOL0     O91479   3.607   9.276   7.248 -1.0224 -0.0844 -0.1295
  694MOL0     C91480   3.661   9.386   7.189 -0.9544  0.6008 -0.1637
  694MOL0     C91481   3.802   9.411   7.198  0.2888  0.0874 -0.7760
  694MOL0     C91482   3.842   9.532   7.145 -0.9863 -0.0226  0.2508
  694MOL0     C91483   3.764   9.626   7.089 -0.2277  0.3467 -0.1286
  694MOL0     O91484   3.827   9.738   7.040 -0.1670 -0.4945  0.0712
  694MOL0     C91485   3.753   9.863   7.027 -0.4746 -0.3341 -0.0881
  694MOL0     C91486   3.853   9.981   7.018 -0.5838  0.8468 -0.1499
  694MOL0     C91487   3.905  10.028   7.152  0.0477  0.9260 -0.4312
  694MOL0     C91488   4.034   9.959   7.196  0.7230  0.1609  0.7920
  694MOL0     C91489   4.055   9.978   7.348 -0.4133  0.1027 -0.3403
  694MOL0     C91490   3.967   9.908   7.452  0.4492 -0.1120  0.9175
  694MOL0     C91491   3.947   9.755   7.410  0.1655  0.3680 -0.0736
  694MOL0     C91492   3.875   9.678   7.521 -0.0155 -0.6775 -0.4435
  694MOL0     N91493   3.727   9.706   7.538  0.7287  0.4664  1.3484
  694MOL0     C91494   3.638   9.676   7.437 -0.9518 -0.4689  0.2565
  694MOL0     C91495   3.526   9.734   7.467 -0.1694  0.3296 -1.0216
  694MOL0     C91496   3.407   9.718   7.384 -0.6484  0.2604 -0.3031
  694MOL0     C91497   3.298   9.653   7.460  1.0187  0.5717  0.4027
  694MOL0     C91498   3.188   9.619   7.356  0.2769 -0.0242  0.1750
  694MOL0     C91499   3.060   9.592   7.429 -0.0205 -0.2017 -1.0966
  694MOL0     O91500   2.966   9.538   7.334 -0.2714  0.2532  0.8943
  694MOL0     C91501   2.856   9.477   7.387  0.5264  0.8880  0.0533
  694MOL0     C91502   2.782   9.398   7.304 -0.1129 -0.2303  0.4343
  694MOL0     C91503   2.684   9.314   7.350 -1.3895  0.6002 -0.2308
  694MOL0     C91504   2.647   9.306   7.482 -0.8628  0.2285 -0.8617
  694MOL0     C91505   2.536   9.214   7.537  0.0271  0.5928  0.2205
  694MOL0     O91506   2.489   9.248   7.662  0.3646 -0.5205  0.5248
  694MOL0     C91507   2.371   9.205   7.719  1.0451 -0.4904  1.1105
  694MOL0     C91508   2.337   9.278   7.834  0.6048  0.3412  0.0475
  694MOL0     C91509   2.223   9.231   7.908 -0.2979 -0.4872 -1.1825
  694MOL0     C91510   2.143   9.130   7.862 -0.0647 -0.0963  0.4769
  694MOL0     O91511   2.058   9.070   7.948  0.6116  0.0419 -0.2582
  694MOL0     C91512   1.970   9.147   8.041  0.3580 -0.2748 -0.2569
  694MOL0     C91513   1.895   9.057   8.151  0.5147 -0.2627  0.6800
  694MOL0     C91514   1.990   8.977   8.240 -0.5573  0.9873  0.1371
  694MOL0     C91515   2.037   9.063   8.362  0.6688  0.5863 -0.8408
  694MOL0     C91516   2.122   8.996   8.473  0.3695 -0.8336  0.4325
  694MOL0     C91517   2.135   9.086   8.597 -0.3219  0.8275 -0.2153
  694MOL0     C91518   2.257   9.059   8.691  0.0061 -1.1256 -0.5146
  694MOL0     C91519   2.220   8.978   8.810 -0.3887  0.8128 -0.2854
  694MOL0    Cl91520   2.143   9.088   8.935  0.2942  0.4874  0.6029
  694MOL0     C91521   2.178   9.066   7.741 -0.1753 -1.2972  0.1695
  694MOL0     C91522   2.283   9.100   7.670  0.4701 -1.1420  0.6648
  694MOL0     O91523   2.486   9.128   7.470  0.1669  0.2591 -0.6464
  694MOL0     C91524   2.710   9.394   7.574 -0.8832 -0.0362  0.2416
  694MOL0     C91525   2.811   9.487   7.522  0.2178  0.0968 -0.4991
  694MOL0     N91526   3.544   9.804   7.591 -0.6371  0.5732  0.0157
  694MOL0     N91527   3.669   9.785   7.630 -0.3292  0.1391 -0.2089
  694MOL0     C91528   3.628   9.603   7.088 -0.1476 -0.0060 -0.4134
  694MOL0     C91529   3.573   9.485   7.138 -0.3643  0.2867  0.1140
  694MOL0     C91530   3.454   9.168   7.405 -0.1461  0.5091  0.7135
  694MOL0     C91531   3.418   9.137   7.540 -0.3576 -0.0932 -0.7735
  694MOL0     C91532   3.340   9.029   7.577  0.0999  1.1599 -0.0537
  694MOL0     C91533   3.308   8.928   7.481 -0.5039 -0.3352 -0.0594
  694MOL0     O91534   3.242   8.820   7.525  0.1061  0.3100  0.6868
  694MOL0     C91535   3.209   8.705   7.444 -0.2689  0.5706 -0.0402
  694MOL0     C91536   3.174   8.580   7.532  0.9289 -0.5870  0.0468
  694MOL0     C91537   3.159   8.456   7.450  0.2683 -0.1844 -0.2575
  694MOL0     C91538   3.066   8.452   7.329 -0.1164  1.0082  0.6008
  694MOL0     C91539   2.928   8.490   7.369  0.2888 -0.4172 -0.6145
  694MOL0     C91540   2.829   8.541   7.403  0.8149 -0.2214 -0.7047
  694MOL0     C91541   3.348   8.953   7.343  0.4817  0.1381 -0.2923
  694MOL0     C91542   3.432   9.068   7.319 -0.1453  0.3801  0.7993
  694MOL0     H91543   3.863   9.332   7.238  0.3500  0.8812  0.7726
  694MOL0     H91544   3.946   9.561   7.143 -1.1959  0.9102 -2.5489
  694MOL0     H91545   3.687   9.879   7.113  0.5275  1.6050  0.3697
  694MOL0     H91546   3.702   9.855   6.930  0.9017 -1.6592 -0.7364
  694MOL0     H91547   3.810  10.063   6.958 -1.1101 -0.4322 -1.5988
  694MOL0     H91548   3.924   9.938   6.947 -0.3163  2.9488 -1.2433
  694MOL0     H91549   3.825  10.008   7.225  1.7773 -1.5972  0.9315
  694MOL0     H91550   3.928  10.135   7.145  0.6410  0.6757 -3.0398
  694MOL0     H91551   4.032   9.850   7.184 -3.1250  0.1791 -0.0584
  694MOL0     H91552   4.120   9.995   7.140  0.3303  0.8120  0.5926
  694MOL0     H91553   4.064  10.084   7.376  2.8442 -0.1811  0.0853
  694MOL0     H91554   4.157   9.942   7.362 -0.1116  0.3167 -1.8679
  694MOL0     H91555   3.875   9.964   7.470  0.2513 -0.1571  0.0521
  694MOL0     H91556   4.024   9.913   7.546  0.8076  1.4407  0.6454
  694MOL0     H91557   3.873   9.742   7.330  2.2376 -2.9691 -1.6739
  694MOL0     H91558   4.041   9.710   7.379 -0.7896 -2.1306  0.4352
  694MOL0     H91559   3.925   9.695   7.617  0.5317  2.0645 -1.1195
  694MOL0     H91560   3.898   9.573   7.501  2.4580 -0.1610 -0.6707
  694MOL0     H91561   3.651   9.611   7.351 -0.2313  0.1295 -0.0891
  694MOL0     H91562   3.427   9.657   7.296  0.4095 -0.9964  0.7758
  694MOL0     H91563   3.375   9.816   7.347 -1.9782  0.1542  0.4980
  694MOL0     H91564   3.274   9.736   7.527  1.8139  0.2653  1.0872
  694MOL0     H91565   3.329   9.562   7.512  0.8895  1.5289  2.2508
  694MOL0     H91566   3.170   9.695   7.279  0.5347 -1.4511 -1.3617
  694MOL0     H91567   3.209   9.526   7.301 -3.5522 -0.3537 -1.0161
  694MOL0     H91568   3.028   9.686   7.475 -0.6271 -0.3094 -1.2931
  694MOL0     H91569   3.086   9.515   7.502  2.2912 -2.5221 -4.0917
  694MOL0     H91570   2.802   9.392   7.197 -1.4934 -1.4578  0.2075
  694MOL0     H91571   2.626   9.243   7.291 -1.1470 -1.0087  1.3798
  694MOL0     H91572   2.408   9.355   7.864 -2.0236  1.8556  2.8977
  694MOL0     H91573   2.204   9.289   7.998 -0.9040 -1.6332 -0.5595
  694MOL0     H91574   1.895   9.203   7.985 -1.2070 -1.4392  0.5899
  694MOL0     H91575   2.022   9.219   8.104 -0.4209  0.0855 -0.0136
  694MOL0     H91576   1.848   8.987   8.082  4.2912 -2.1258 -0.2823
  694MOL0     H91577   1.814   9.102   8.209 -0.2644 -0.3907 -0.2941
  694MOL0     H91578   2.079   8.945   8.186 -2.0278 -2.5099 -0.5204
  694MOL0     H91579   1.951   8.879   8.271  0.5319 -0.1030 -1.7347
  694MOL0     H91580   2.092   9.146   8.317  0.9489  0.5424 -0.5805
  694MOL0     H91581   1.953   9.106   8.417 -1.6290 -3.7356 -0.4729
  694MOL0     H91582   2.221   8.975   8.433  0.7913 -0.3516  1.2020
  694MOL0     H91583   2.083   8.899   8.507  3.5268 -1.7965  1.6378
  694MOL0     H91584   2.040   9.071   8.650 -0.9910 -1.1774 -1.8562
  694MOL0     H91585   2.140   9.188   8.557 -0.7048 -0.0611 -2.6460
  694MOL0     H91586   2.337   9.004   8.640  1.5380  1.4611 -1.0711
  694MOL0     H91587   2.297   9.154   8.728 -0.2270 -0.6195 -1.5217
  694MOL0     H91588   2.308   8.939   8.862 -1.5110  0.3077  1.2990
  694MOL0     H91589   2.155   8.894   8.783 -0.4580  1.0047 -0.7305
  694MOL0     H91590   2.120   8.975   7.732 -3.8819  0.9174  0.0358
  694MOL0     H91591   2.301   9.041   7.581  0.3528 -2.3653  1.4332
  694MOL0     H91592   2.691   9.393   7.681  2.9070 -0.5870  1.0491
  694MOL0     H91593   2.865   9.551   7.591 -0.1626 -0.7327  0.5891
  694MOL0     H91594   3.565   9.685   7.055  0.0518 -0.1123 -1.0921
  694MOL0     H91595   3.465   9.476   7.133 -0.5629  2.5937 -1.2414
  694MOL0     H91596   3.435   9.215   7.613  0.1809  0.5161 -1.5221
  694MOL0     H91597   3.303   9.015   7.679  0.0258  1.6301 -0.0140
  694MOL0     H91598   3.297   8.675   7.387  0.4918  0.3792  1.1866
  694MOL0     H91599   3.136   8.738   7.370  0.9644  0.5118 -1.3330
  694MOL0     H91600   3.249   8.574   7.611  0.2133  1.8931  1.0013
  694MOL0     H91601   3.079   8.600   7.582  0.1265 -0.7368 -1.3478
  694MOL0     H91602   3.122   8.384   7.524 -0.7181  0.3325 -0.2437
  694MOL0     H91603   3.259   8.413   7.433  0.9956 -0.1096  3.1300
  694MOL0     H91604   3.113   8.520   7.257 -0.2187 -0.5216 -0.9375
  694MOL0     H91605   3.050   8.352   7.289  0.7459  0.6990  0.9961
  694MOL0     H91606   2.731   8.584   7.407  0.7241 -0.3749 -1.1358
  694MOL0     H91607   3.328   8.874   7.272  3.4040 -2.8589  1.9191
  694MOL0     H91608   3.454   9.083   7.214  1.7139 -0.0918  1.0928
  695MOL0     O91609  10.034   2.089   8.984  0.2287 -0.3905  0.3119
  695MOL0     C91610  10.087   2.159   9.064  0.0138  0.9098 -0.2643
  695MOL0     O91611  10.218   2.173   9.082  0.2192  0.7035  0.1280
  695MOL0     C91612  10.302   2.095   9.006 -0.1515  0.8942 -0.4616
  695MOL0     C91613  10.342   1.971   9.058  0.4089  0.6472 -0.0863
  695MOL0     C91614  10.425   1.891   8.977 -0.6383  0.5172 -0.8392
  695MOL0     C91615  10.485   1.932   8.856  1.1377 -0.2180  0.1459
  695MOL0     O91616  10.575   1.872   8.775 -0.7527 -0.4427 -0.2644
  695MOL0     C91617  10.612   1.741   8.787 -0.2884 -0.3306 -0.0266
  695MOL0     C91618  10.558   1.642   8.679  0.2081  0.6915  0.9645
  695MOL0     C91619  10.623   1.496   8.706  0.0397 -0.5477 -0.0014
  695MOL0     C91620  10.545   1.389   8.632  0.2411 -0.3275 -0.1926
  695MOL0     C91621  10.600   1.246   8.640  0.4430 -0.6731  0.9291
  695MOL0     C91622  10.739   1.229   8.578 -0.3095 -0.3140  0.0082
  695MOL0     C91623  10.755   1.271   8.427 -0.0811 -0.1960 -0.3606
  695MOL0     C91624  10.677   1.189   8.328  0.7792 -0.4532 -0.9663
  695MOL0     N91625  10.553   1.261   8.279 -0.4105  0.3351  0.3070
  695MOL0     C91626  10.423   1.240   8.324 -0.8103  0.6090 -1.0297
  695MOL0     C91627  10.348   1.319   8.248 -0.5447 -0.5825  0.1360
  695MOL0     C91628  10.203   1.328   8.257  0.7277 -0.3732  0.9520
  695MOL0     C91629  10.139   1.395   8.373  0.4984 -0.6347  0.0318
  695MOL0     C91630   9.988   1.374   8.358 -0.1538  0.4927  0.2785
  695MOL0     C91631   9.917   1.498   8.377  0.0899  0.0990  0.1506
  695MOL0     O91632   9.774   1.487   8.366  0.7421  0.3420  0.3284
  695MOL0     C91633   9.686   1.589   8.395  0.5738 -0.4923  0.3266
  695MOL0     C91634   9.713   1.724   8.425  0.2891 -0.2000 -0.2946
  695MOL0     C91635   9.603   1.815   8.437 -0.2759  1.1060 -0.7125
  695MOL0     C91636   9.469   1.781   8.404  0.1006 -0.1350 -0.1340
  695MOL0     C91637   9.360   1.881   8.409 -0.3226  0.2405  0.2673
  695MOL0     O91638   9.234   1.826   8.396 -0.2126 -0.0032 -0.0659
  695MOL0     C91639   9.137   1.914   8.364  0.9847  0.0074  0.4265
  695MOL0     C91640   9.095   2.025   8.440 -0.6116 -0.3707 -0.3558
  695MOL0     C91641   8.985   2.098   8.409 -0.1193  0.0845  1.7472
  695MOL0     C91642   8.916   2.063   8.290  0.2205 -1.0524 -0.0113
  695MOL0     O91643   8.803   2.143   8.262  0.4789  0.0379  0.0417
  695MOL0     C91644   8.668   2.099   8.294  0.0338  0.6518  0.0764
  695MOL0     C91645   8.613   2.229   8.368  0.7854  0.6920 -0.6392
  695MOL0     C91646   8.468   2.217   8.416 -0.2385  0.2299  0.4954
  695MOL0     C91647   8.369   2.223   8.296  0.4595  0.3797 -0.2131
  695MOL0     C91648   8.226   2.213   8.331  0.2883 -0.0642 -0.2480
  695MOL0     C91649   8.181   2.075   8.383  0.2990 -0.3638 -0.7094
  695MOL0     C91650   8.063   2.014   8.312  0.4196  1.0178  1.0323
  695MOL0     C91651   8.006   1.875   8.357 -0.3053  0.5217  0.3827
  695MOL0    Cl91652   7.936   1.872   8.522 -0.3906 -0.2628  0.1693
  695MOL0     C91653   8.955   1.958   8.210  0.2403 -0.4240  0.5492
  695MOL0     C91654   9.066   1.875   8.243  0.3774 -0.3951 -0.2564
  695MOL0     O91655   9.396   2.001   8.407  0.6289  0.6932 -0.3861
  695MOL0     C91656   9.452   1.653   8.352  0.6231  0.5155  0.0370
  695MOL0     C91657   9.558   1.557   8.356  0.3093  0.2488 -0.5416
  695MOL0     N91658  10.426   1.375   8.151 -0.2418  0.6507 -0.5352
  695MOL0     N91659  10.547   1.339   8.171 -0.4538 -0.1673 -0.0111
  695MOL0     C91660  10.447   2.054   8.806  0.5544 -0.1970  0.2187
  695MOL0     C91661  10.341   2.117   8.877  0.2048 -0.5276  1.0029
  695MOL0     C91662   9.995   2.230   9.152  0.1286  0.4500 -0.6020
  695MOL0     C91663  10.041   2.291   9.272  0.7924 -0.4522  0.3921
  695MOL0     C91664   9.956   2.369   9.355  0.0127 -0.1795 -1.2625
  695MOL0     C91665   9.819   2.381   9.330 -0.2730  0.8529  0.0876
  695MOL0     O91666   9.747   2.432   9.432 -0.8761 -0.4688 -0.2045
  695MOL0     C91667   9.614   2.460   9.412  0.4034  0.0228 -0.0006
  695MOL0     C91668   9.550   2.571   9.494  0.0585  0.1619 -0.1911
  695MOL0     C91669   9.638   2.698   9.510 -0.9722 -0.4788  0.3920
  695MOL0     C91670   9.582   2.801   9.609  0.4527  0.2883  0.7287
  695MOL0     C91671   9.543   2.751   9.736 -0.3670  0.2984 -1.0631
  695MOL0     C91672   9.515   2.728   9.849 -0.6404  0.5918  0.7458
  695MOL0     C91673   9.771   2.310   9.213  0.3769  1.0199  0.1193
  695MOL0     C91674   9.858   2.247   9.121 -0.5224  0.4285 -0.3153
  695MOL0     H91675  10.287   1.937   9.145 -0.8913 -1.2399 -1.5593
  695MOL0     H91676  10.440   1.789   9.012  0.5248  1.2249  0.8443
  695MOL0     H91677  10.582   1.694   8.882 -1.2529  0.3934  0.0475
  695MOL0     H91678  10.720   1.752   8.777 -0.6812  2.7146 -2.0363
  695MOL0     H91679  10.580   1.669   8.575  1.1351  0.1998  1.0176
  695MOL0     H91680  10.450   1.627   8.683  0.7259 -4.6491  2.2727
  695MOL0     H91681  10.627   1.474   8.813  0.2627 -1.7411 -0.2360
  695MOL0     H91682  10.719   1.495   8.653 -0.4404 -0.1655 -0.9030
  695MOL0     H91683  10.439   1.392   8.662 -0.5730 -1.6159 -2.6777
  695MOL0     H91684  10.540   1.418   8.527 -0.3147  1.2258  0.2387
  695MOL0     H91685  10.532   1.172   8.596 -1.1596  1.1378  0.2297
  695MOL0     H91686  10.625   1.220   8.744  1.6088  2.9157  1.6977
  695MOL0     H91687  10.768   1.124   8.589  0.3374  0.0234  1.8679
  695MOL0     H91688  10.819   1.271   8.640  0.6453  0.2578 -1.5620
  695MOL0     H91689  10.729   1.376   8.411  1.1559  0.5790  2.2197
  695MOL0     H91690  10.861   1.269   8.402 -0.0648 -1.5142 -0.2573
  695MOL0     H91691  10.639   1.099   8.378 -2.0074  1.2246  0.1644
  695MOL0     H91692  10.739   1.166   8.241 -0.4923  1.7340 -2.5470
  695MOL0     H91693  10.389   1.162   8.392  0.5810  0.0134 -0.9833
  695MOL0     H91694  10.171   1.223   8.253 -0.4383  0.0112 -1.3542
  695MOL0     H91695  10.154   1.378   8.173 -0.9527 -1.8219  1.0190
  695MOL0     H91696  10.169   1.500   8.376 -4.3422  1.0121  0.8039
  695MOL0     H91697  10.167   1.349   8.468 -2.1886 -2.0768  0.2464
  695MOL0     H91698   9.958   1.325   8.265 -2.5624 -0.5791  1.5374
  695MOL0     H91699   9.974   1.302   8.440 -0.1093  1.0699  0.7979
  695MOL0     H91700   9.947   1.569   8.300  0.8057  0.3507  0.6474
  695MOL0     H91701   9.944   1.540   8.475  1.5650 -1.6965  0.5635
  695MOL0     H91702   9.817   1.755   8.437 -0.1264  2.1090 -1.9900
  695MOL0     H91703   9.622   1.919   8.460  0.6942  0.4881  1.6528
  695MOL0     H91704   9.149   2.068   8.524 -0.6489 -1.0670  0.0312
  695MOL0     H91705   8.948   2.177   8.473  0.9966 -0.6480  3.3664
  695MOL0     H91706   8.667   2.001   8.343 -1.0093 -0.4095 -1.9273
  695MOL0     H91707   8.604   2.078   8.207  1.0146 -1.2816 -0.2277
  695MOL0     H91708   8.624   2.314   8.301 -1.1472  0.9341 -0.6902
  695MOL0     H91709   8.673   2.238   8.459  2.3476 -4.5744 -0.7698
  695MOL0     H91710   8.445   2.303   8.481  0.8023  0.4960  0.5297
  695MOL0     H91711   8.451   2.127   8.476  1.4409 -0.4345  0.0173
  695MOL0     H91712   8.391   2.312   8.237 -0.6813  0.0680 -1.1470
  695MOL0     H91713   8.385   2.134   8.233 -3.2606 -0.4309 -0.2332
  695MOL0     H91714   8.177   2.228   8.235 -1.4470  0.9555  0.7414
  695MOL0     H91715   8.182   2.290   8.396 -0.4138 -0.5637 -0.1168
  695MOL0     H91716   8.153   2.084   8.488  0.4829 -0.3499 -0.6608
  695MOL0     H91717   8.258   1.998   8.371 -0.7693 -1.1699 -3.2177
  695MOL0     H91718   7.978   2.080   8.332 -0.4435 -0.4817  2.5097
  695MOL0     H91719   8.083   2.019   8.205 -3.2056  0.9559  0.2404
  695MOL0     H91720   8.071   1.788   8.350 -2.1330 -0.7756 -3.4942
  695MOL0     H91721   7.932   1.852   8.280  1.1874 -2.0540 -0.3949
  695MOL0     H91722   8.908   1.935   8.115  0.1716  1.4717  0.0841
  695MOL0     H91723   9.097   1.789   8.185  0.6024 -0.1801 -0.4532
  695MOL0     H91724   9.357   1.619   8.312  1.3245  0.9990 -2.1602
  695MOL0     H91725   9.552   1.457   8.317 -0.1475 -0.6105  1.5831
  695MOL0     H91726  10.478   2.099   8.712  3.6882 -0.9213  0.8038
  695MOL0     H91727  10.317   2.218   8.844  0.1003 -0.1236  2.2343
  695MOL0     H91728  10.142   2.289   9.310  0.6190  1.4312  1.0218
  695MOL0     H91729   9.981   2.398   9.457 -1.0063  1.6286 -1.4978
  695MOL0     H91730   9.548   2.373   9.421 -0.2583  0.5806  0.6648
  695MOL0     H91731   9.611   2.498   9.310  3.2434  2.6411  0.7242
  695MOL0     H91732   9.455   2.605   9.450 -1.6984 -1.6396  1.9458
  695MOL0     H91733   9.518   2.527   9.589 -0.0184  2.3701  0.8661
  695MOL0     H91734   9.672   2.744   9.417  0.0291 -0.4927  0.7323
  695MOL0     H91735   9.723   2.655   9.565 -2.0407 -0.6111  2.0278
  695MOL0     H91736   9.647   2.889   9.615  1.9220 -0.6777 -0.4085
  695MOL0     H91737   9.486   2.832   9.565  0.4144  1.7034  1.7401
  695MOL0     H91738   9.499   2.724   9.955 -0.9315  1.5564  0.7527
  695MOL0     H91739   9.667   2.319   9.184  0.8187  0.6763 -1.6866
  695MOL0     H91740   9.814   2.217   9.027 -0.6094 -0.2194 -0.0753
  696MOL0     O91741   0.507  10.795   8.281  0.4824 -0.1744  0.5420
  696MOL0     C91742   0.482  10.792   8.401 -0.6684 -0.1412  0.3584
  696MOL0     O91743   0.470  10.678   8.479  0.3622 -0.3057  0.4410
  696MOL0     C91744   0.448  10.552   8.429 -0.1949 -0.5280  1.1052
  696MOL0     C91745   0.495  10.456   8.527  0.6217 -0.0001  0.0147
  696MOL0     C91746   0.481  10.318   8.499 -0.1546  0.3559  0.7282
  696MOL0     C91747   0.439  10.279   8.372  0.3217 -0.2151  1.1663
  696MOL0     O91748   0.437  10.147   8.333  0.0643  0.4939  0.8530
  696MOL0     C91749   0.448  10.033   8.423  0.1152 -0.4332 -0.2589
  696MOL0     C91750   0.409   9.912   8.339  0.1481  0.0508  0.3229
  696MOL0     C91751   0.403   9.780   8.419 -0.1715  0.3766 -0.3751
  696MOL0     C91752   0.544   9.721   8.439 -0.8759  0.0672  0.0870
  696MOL0     C91753   0.544   9.589   8.514  0.4714  0.5133  0.2195
  696MOL0     C91754   0.670   9.512   8.492  0.6910  1.2867  0.4470
  696MOL0     C91755   0.663   9.362   8.532 -0.0856 -0.3697 -0.3724
  696MOL0     C91756   0.800   9.307   8.527 -0.1064  0.7725  0.2606
  696MOL0     N91757   0.813   9.203   8.636  0.2598  0.0447 -0.2912
  696MOL0     C91758   0.778   9.074   8.628 -0.2683  0.4006  0.3286
  696MOL0     C91759   0.812   9.035   8.751 -1.6020 -0.6726  0.3126
  696MOL0     C91760   0.840   8.891   8.783  0.1614  0.1031  1.0425
  696MOL0     C91761   0.992   8.865   8.818  0.2993  0.1066 -0.3285
  696MOL0     C91762   1.027   8.713   8.799 -0.5992 -0.2358  0.5308
  696MOL0     C91763   1.143   8.668   8.891  0.0090 -0.3428  0.0191
  696MOL0     O91764   1.086   8.675   9.027 -0.4718  0.9866  0.6619
  696MOL0     C91765   1.106   8.565   9.112 -0.0876 -1.0881  0.0060
  696MOL0     C91766   1.222   8.502   9.118 -0.6167  0.7649  0.1395
  696MOL0     C91767   1.242   8.404   9.222 -0.9266  0.5753 -0.4235
  696MOL0     C91768   1.137   8.360   9.311 -0.8419  0.9729  0.5936
  696MOL0     C91769   1.159   8.240   9.395 -1.3521  0.0741 -0.3998
  696MOL0     O91770   1.044   8.188   9.441  0.5447  0.1825  0.1386
  696MOL0     C91771   1.055   8.063   9.506 -0.5940 -0.5362  0.1334
  696MOL0     C91772   1.038   8.055   9.644  0.4775  1.3444 -0.2678
  696MOL0     C91773   1.068   7.941   9.716 -0.7233 -0.4758 -0.0309
  696MOL0     C91774   1.117   7.824   9.646 -0.2889  0.0053 -0.9616
  696MOL0     O91775   1.133   7.702   9.713 -1.1216 -0.6743  0.3567
  696MOL0     C91776   1.147   7.703   9.851  0.3353  1.0206  0.3719
  696MOL0     C91777   1.192   7.555   9.887 -0.0830  0.2030 -0.7313
  696MOL0     C91778   1.343   7.537   9.865 -0.0924 -0.5443  0.0903
  696MOL0     C91779   1.395   7.406   9.893  0.9920  0.3787  0.0059
  696MOL0     C91780   1.415   7.382  10.042  0.3352 -0.1300  0.1047
  696MOL0     C91781   1.451   7.232  10.087  0.0316 -1.4611  0.6743
  696MOL0     C91782   1.479   7.219  10.239 -0.5036 -0.0202 -0.6624
  696MOL0     C91783   1.507   7.078  10.297 -0.7758  0.4820  0.2886
  696MOL0    Cl91784   1.348   7.015  10.341  0.4689 -0.7628  0.1136
  696MOL0     C91785   1.135   7.835   9.509  0.0049  0.1991 -0.1402
  696MOL0     C91786   1.102   7.954   9.443  0.4785  0.3788  0.2516
  696MOL0     O91787   1.268   8.196   9.424  0.0763 -0.1181  0.2004
  696MOL0     C91788   1.017   8.429   9.299 -1.0907  1.3010  0.2902
  696MOL0     C91789   1.005   8.531   9.204  0.8099 -0.3004 -0.4042
  696MOL0     N91790   0.828   9.143   8.833 -0.4572 -0.2018 -0.2045
  696MOL0     N91791   0.827   9.253   8.758 -0.1108  0.0018  0.0689
  696MOL0     C91792   0.400  10.379   8.272 -0.2492  1.1392  0.0892
  696MOL0     C91793   0.407  10.511   8.302  0.2746  0.0755  0.7653
  696MOL0     C91794   0.474  10.929   8.461 -0.8902 -0.1840 -0.0714
  696MOL0     C91795   0.503  11.049   8.389 -0.7020  0.5437 -0.8506
  696MOL0     C91796   0.496  11.175   8.451  0.9376  0.2188  0.9128
  696MOL0     C91797   0.451  11.185   8.584  0.2245  0.0759 -0.6152
  696MOL0     O91798   0.447  11.305   8.654  0.6751 -0.3202 -0.0486
  696MOL0     C91799   0.317  11.348   8.689 -0.1192 -0.8875  0.3937
  696MOL0     C91800   0.307  11.502   8.720  0.7162  0.2101 -0.6292
  696MOL0     C91801   0.364  11.585   8.619 -0.3045  0.5050  1.1954
  696MOL0     C91802   0.271  11.708   8.611 -0.8023 -0.2166  0.2123
  696MOL0     C91803   0.131  11.690   8.574  0.3938  0.3394 -0.8186
  696MOL0     C91804   0.021  11.686   8.530 -0.5461  0.0879 -0.3547
  696MOL0     C91805   0.424  11.070   8.656 -0.2061  0.6276  0.0624
  696MOL0     C91806   0.421  10.943   8.591 -0.3524 -0.1962 -0.3648
  696MOL0     H91807   0.534  10.495   8.621  0.6162 -2.4776  1.1305
  696MOL0     H91808   0.522  10.241   8.563  1.4953 -0.0685 -0.7625
  696MOL0     H91809   0.373  10.034   8.502  0.0788  0.2212 -0.2999
  696MOL0     H91810   0.543  10.007   8.470 -0.3552  0.2335  1.0884
  696MOL0     H91811   0.470   9.892   8.250 -0.4260 -2.3522  0.3983
  696MOL0     H91812   0.308   9.924   8.300  0.9763 -0.3215 -2.1430
  696MOL0     H91813   0.340   9.717   8.356 -2.8542  1.3092  1.1905
  696MOL0     H91814   0.359   9.790   8.519 -1.6739 -1.0033 -0.8475
  696MOL0     H91815   0.563   9.701   8.334 -1.0022 -0.9667  0.2518
  696MOL0     H91816   0.626   9.783   8.476  0.9151 -1.1124 -1.7466
  696MOL0     H91817   0.455   9.538   8.477 -0.4759  1.9458  0.4489
  696MOL0     H91818   0.537   9.612   8.621  0.5595  0.1098  0.3175
  696MOL0     H91819   0.749   9.571   8.539  2.3949 -2.5430  2.9054
  696MOL0     H91820   0.700   9.509   8.387  0.8959  1.0296  0.5091
  696MOL0     H91821   0.622   9.366   8.633 -2.5638  0.5424 -1.3324
  696MOL0     H91822   0.592   9.301   8.475 -1.0247 -1.3215  1.7385
  696MOL0     H91823   0.879   9.383   8.534 -0.2205  0.7582  2.7730
  696MOL0     H91824   0.792   9.262   8.428 -2.5168 -0.8317  1.0801
  696MOL0     H91825   0.751   9.015   8.540 -0.2845 -1.6689  1.6494
  696MOL0     H91826   0.823   8.833   8.692 -1.7327 -0.3296  1.6395
  696MOL0     H91827   0.770   8.842   8.851  0.0099 -1.4208 -0.1594
  696MOL0     H91828   1.011   8.891   8.922 -0.3265 -0.3014 -0.1018
  696MOL0     H91829   1.055   8.932   8.759 -0.5082 -0.1923 -1.5613
  696MOL0     H91830   0.932   8.660   8.812 -0.4468 -1.5992 -2.8304
  696MOL0     H91831   1.049   8.701   8.692 -1.3246 -2.1270  0.5481
  696MOL0     H91832   1.220   8.745   8.883  1.1424 -1.1349  2.5083
  696MOL0     H91833   1.173   8.565   8.872  5.1229  0.5776  1.6119
  696MOL0     H91834   1.313   8.519   9.061  1.7853 -0.3593  3.3605
  696MOL0     H91835   1.336   8.350   9.228 -1.8535 -1.2107 -1.3067
  696MOL0     H91836   0.999   8.137   9.703  1.3209 -0.2638  2.7336
  696MOL0     H91837   1.031   7.949   9.818  0.1392  0.7427  0.2103
  696MOL0     H91838   1.052   7.716   9.903  0.4172 -0.5238  0.9700
  696MOL0     H91839   1.216   7.777   9.894 -1.1581  1.1925  2.6618
  696MOL0     H91840   1.142   7.480   9.825  0.9940 -1.3717  0.2263
  696MOL0     H91841   1.169   7.532   9.991  0.6859  2.4310 -0.0170
  696MOL0     H91842   1.401   7.613   9.918 -1.0451  1.4416 -1.5564
  696MOL0     H91843   1.361   7.545   9.757 -0.0421 -0.7733  0.0808
  696MOL0     H91844   1.333   7.327   9.851  2.3193  0.3103 -2.0211
  696MOL0     H91845   1.493   7.394   9.846  1.1096  2.9650 -0.5797
  696MOL0     H91846   1.322   7.409  10.093  0.5445  0.9755 -0.0822
  696MOL0     H91847   1.485   7.454  10.086  0.1250  0.8788 -1.1613
  696MOL0     H91848   1.533   7.199  10.022 -0.5419  2.0622 -2.1027
  696MOL0     H91849   1.367   7.166  10.065 -0.1899 -0.8371 -0.4053
  696MOL0     H91850   1.571   7.272  10.263  1.0875 -2.5652 -0.7584
  696MOL0     H91851   1.411   7.268  10.310  2.0949  0.9608  1.2849
  696MOL0     H91852   1.565   7.093  10.388 -2.8711  0.7997  1.6307
  696MOL0     H91853   1.556   7.009  10.227 -4.6673 -2.2812 -0.0255
  696MOL0     H91854   1.168   7.749   9.451 -2.2575 -0.1562 -0.9709
  696MOL0     H91855   1.117   7.954   9.335 -0.3215 -0.7220  0.1165
  696MOL0     H91856   0.930   8.414   9.361 -2.1414 -2.0294 -1.7390
  696MOL0     H91857   0.901   8.562   9.193 -0.2190 -2.0838  2.9646
  696MOL0     H91858   0.365  10.348   8.175 -1.0027  1.8992  0.0964
  696MOL0     H91859   0.395  10.578   8.217  0.0237  0.1254  0.8375
  696MOL0     H91860   0.540  11.033   8.289 -0.3562 -1.5479 -0.4362
  696MOL0     H91861   0.534  11.271   8.418  1.3424  0.9056  3.2148
  696MOL0     H91862   0.286  11.289   8.776 -4.2800 -0.9819 -0.9401
  696MOL0     H91863   0.252  11.325   8.604  0.8272  1.1888 -0.9632
  696MOL0     H91864   0.206  11.521   8.756  0.1206 -1.0600 -1.5533
  696MOL0     H91865   0.360  11.521   8.814  1.3368  1.2341 -1.1704
  696MOL0     H91866   0.365  11.525   8.527  0.0912  0.5222  1.1873
  696MOL0     H91867   0.470  11.607   8.637 -0.7245  1.4631  2.5890
  696MOL0     H91868   0.268  11.751   8.712 -1.2550 -1.3779  0.7092
  696MOL0     H91869   0.309  11.781   8.539 -0.2092 -0.5578  0.1724
  696MOL0     H91870  -0.080  11.696   8.496 -0.5609 -1.3193 -0.7549
  696MOL0     H91871   0.391  11.079   8.760 -1.1550 -0.4397 -0.1250
  696MOL0     H91872   0.389  10.852   8.641  1.0819 -1.5003 -1.7217
  697MOL0     O91873   1.288   5.361   3.931 -0.1861  0.1550 -0.0415
  697MOL0     C91874   1.226   5.427   3.846  0.1918 -0.2077 -0.1255
  697MOL0     O91875   1.268   5.453   3.723 -0.0359 -0.3983 -0.0793
  697MOL0     C91876   1.362   5.364   3.676  0.0777 -0.2947  0.6093
  697MOL0     C91877   1.496   5.376   3.699 -0.3170 -1.1404 -0.0701
  697MOL0     C91878   1.581   5.268   3.665  0.3216 -0.5086 -0.2507
  697MOL0     C91879   1.536   5.163   3.589 -0.2395 -0.6400  0.0560
  697MOL0     O91880   1.613   5.055   3.555 -0.0012 -0.2551 -0.5051
  697MOL0     C91881   1.758   5.060   3.542 -0.2523  0.1567  0.7068
  697MOL0     C91882   1.803   4.930   3.465 -0.4691  0.4438 -0.1494
  697MOL0     C91883   1.931   4.964   3.395 -0.2103 -0.4118  0.2871
  697MOL0     C91884   2.005   4.847   3.325  0.7777  0.3900 -1.2502
  697MOL0     C91885   2.034   4.729   3.430 -0.6619  0.0416 -1.1703
  697MOL0     C91886   2.155   4.631   3.399  0.0079 -0.3143  0.5805
  697MOL0     C91887   2.178   4.568   3.250 -0.5764 -1.0546  1.3562
  697MOL0     C91888   2.332   4.529   3.245  0.7938  0.4908 -0.2550
  697MOL0     N91889   2.350   4.499   3.102  0.2204  0.5272 -0.8808
  697MOL0     C91890   2.398   4.385   3.050  1.0177 -0.3123 -0.0672
  697MOL0     C91891   2.395   4.408   2.915 -0.4506 -0.0173  0.4741
  697MOL0     C91892   2.430   4.298   2.822 -0.8395 -0.5564 -0.7525
  697MOL0     C91893   2.538   4.205   2.877 -0.2765 -0.7500 -0.3972
  697MOL0     C91894   2.672   4.287   2.894 -0.5614 -0.6059  0.2738
  697MOL0     C91895   2.746   4.300   2.755 -0.1015 -0.0345 -0.8327
  697MOL0     O91896   2.891   4.305   2.770 -0.2432 -0.1057 -0.5421
  697MOL0     C91897   2.945   4.436   2.808 -0.3291  0.2148  0.0616
  697MOL0     C91898   2.864   4.557   2.826  0.6641  0.3237 -0.0629
  697MOL0     C91899   2.924   4.681   2.843  0.0910  1.1583 -0.7819
  697MOL0     C91900   3.066   4.694   2.861 -0.8994  0.2061 -0.2096
  697MOL0     C91901   3.123   4.824   2.875 -0.1654 -0.1703 -1.3160
  697MOL0     O91902   3.251   4.842   2.840  0.2426 -0.0507 -0.1395
  697MOL0     C91903   3.308   4.972   2.820 -0.1639 -0.6547  0.3193
  697MOL0     C91904   3.436   4.986   2.867 -0.8820 -0.4943 -0.3957
  697MOL0     C91905   3.503   5.112   2.862  0.1908  0.4949  0.0104
  697MOL0     C91906   3.439   5.229   2.806  0.5952  0.2703 -0.0485
  697MOL0     O91907   3.526   5.338   2.808  0.3014  0.0774 -0.2133
  697MOL0     C91908   3.479   5.460   2.744 -0.3085  0.4335 -0.4630
  697MOL0     C91909   3.588   5.573   2.745 -0.1732  0.0345 -0.2124
  697MOL0     C91910   3.689   5.573   2.628 -0.2101  0.3634 -0.4320
  697MOL0     C91911   3.742   5.426   2.623  0.3227 -0.1733  0.5346
  697MOL0     C91912   3.869   5.425   2.533  0.0717 -0.2011 -0.3019
  697MOL0     C91913   3.845   5.386   2.389 -0.0386 -0.0945 -0.2745
  697MOL0     C91914   3.939   5.469   2.290  0.2125  0.0608 -0.2982
  697MOL0     C91915   4.085   5.449   2.322 -0.0247 -0.5465 -0.1201
  697MOL0    Cl91916   4.190   5.533   2.209  0.1465  0.2333 -0.1659
  697MOL0     C91917   3.307   5.211   2.762 -0.1987  0.8988 -0.0826
  697MOL0     C91918   3.238   5.086   2.777  0.2603  0.2668 -0.9385
  697MOL0     O91919   3.043   4.911   2.910  0.0977 -0.2379 -0.3878
  697MOL0     C91920   3.147   4.578   2.854  0.2969 -0.0083  0.4524
  697MOL0     C91921   3.086   4.456   2.825  0.8595  0.4626  1.0164
  697MOL0     N91922   2.370   4.543   2.900  0.2337  0.1429  0.3470
  697MOL0     N91923   2.335   4.597   3.007 -0.5144  0.6980 -0.2045
  697MOL0     C91924   1.408   5.166   3.548 -1.0252 -0.4718  1.1016
  697MOL0     C91925   1.322   5.261   3.592  0.3318  0.9335 -0.0974
  697MOL0     C91926   1.112   5.500   3.892 -0.1388  0.2950  0.1548
  697MOL0     C91927   1.031   5.571   3.798  0.3026  0.3110  0.2980
  697MOL0     C91928   0.916   5.641   3.841 -0.0305 -0.5011  0.0500
  697MOL0     C91929   0.874   5.631   3.974  1.0090 -0.4522 -0.6545
  697MOL0     O91930   0.757   5.694   4.018 -0.0048  0.6694 -0.5918
  697MOL0     C91931   0.681   5.639   4.128 -0.0345  0.3929  0.4850
  697MOL0     C91932   0.538   5.686   4.128 -0.6909  1.2422 -0.2640
  697MOL0     C91933   0.465   5.614   4.017  0.4136  0.2210  0.4316
  697MOL0     C91934   0.320   5.580   4.029  0.8323  0.0718  0.6687
  697MOL0     C91935   0.258   5.557   3.897 -0.1898  0.2259 -0.2562
  697MOL0     C91936   0.213   5.554   3.784  0.6280 -0.4151 -0.1181
  697MOL0     C91937   0.948   5.553   4.065 -0.0072  0.5980 -1.0325
  697MOL0     C91938   1.063   5.483   4.026  0.8410 -0.2919  0.5279
  697MOL0     H91939   1.517   5.470   3.749  0.4748 -0.2574 -1.9226
  697MOL0     H91940   1.683   5.278   3.701  0.0949 -5.1346  2.5800
  697MOL0     H91941   1.799   5.051   3.643  0.2653 -0.9188  0.4152
  697MOL0     H91942   1.776   5.157   3.495 -0.0091  0.5301  1.5453
  697MOL0     H91943   1.719   4.894   3.405 -0.6546  0.5425  0.0513
  697MOL0     H91944   1.828   4.864   3.548  0.6631 -0.6229 -1.3072
  697MOL0     H91945   2.005   5.015   3.457 -0.3633  0.9005 -0.5647
  697MOL0     H91946   1.901   5.030   3.313 -0.9011 -0.3586  0.5829
  697MOL0     H91947   1.948   4.811   3.239 -0.4884  0.8989 -0.6449
  697MOL0     H91948   2.101   4.891   3.295  0.5208  0.2860 -2.2503
  697MOL0     H91949   1.945   4.669   3.449  0.4895 -0.8878  1.8866
  697MOL0     H91950   2.060   4.768   3.529  0.7313 -4.2578  0.3559
  697MOL0     H91951   2.148   4.545   3.467 -1.1937 -2.4554 -2.0826
  697MOL0     H91952   2.251   4.680   3.418  0.6030 -1.5299  0.8204
  697MOL0     H91953   2.119   4.479   3.230 -1.4273 -0.2449  0.1512
  697MOL0     H91954   2.148   4.646   3.179 -1.3090 -2.8161 -0.3561
  697MOL0     H91955   2.352   4.449   3.317 -1.2115  0.4798  0.3428
  697MOL0     H91956   2.393   4.616   3.270  2.8853 -1.1486  0.6663
  697MOL0     H91957   2.408   4.286   3.093  2.8350  0.8075  2.2827
  697MOL0     H91958   2.462   4.340   2.726 -1.6631 -0.8727 -1.1754
  697MOL0     H91959   2.348   4.234   2.792 -1.4559  0.3488 -1.0406
  697MOL0     H91960   2.554   4.120   2.810 -2.5749 -1.9899  0.5302
  697MOL0     H91961   2.508   4.160   2.972 -0.2940  1.1862  0.5794
  697MOL0     H91962   2.648   4.387   2.930 -1.4978  0.7585 -3.5993
  697MOL0     H91963   2.746   4.243   2.961  0.3990 -1.5729 -1.3358
  697MOL0     H91964   2.705   4.375   2.686 -0.5031 -0.6963 -1.3332
  697MOL0     H91965   2.735   4.206   2.700 -0.3888  1.0493 -2.7358
  697MOL0     H91966   2.757   4.572   2.815  0.4362  3.8602  4.3057
  697MOL0     H91967   2.861   4.769   2.845 -0.6311  0.7094  2.6502
  697MOL0     H91968   3.486   4.897   2.904 -0.8199 -0.2989 -0.0084
  697MOL0     H91969   3.606   5.115   2.899  0.6991 -1.7973 -1.0622
  697MOL0     H91970   3.399   5.501   2.805  1.4511  0.8484  1.7042
  697MOL0     H91971   3.462   5.440   2.638  2.7334 -1.4866 -0.7263
  697MOL0     H91972   3.649   5.573   2.836 -1.2506  2.2951  0.5844
  697MOL0     H91973   3.539   5.669   2.727 -0.1344 -0.1796 -1.5531
  697MOL0     H91974   3.765   5.648   2.652 -1.0426  0.9660  0.4189
  697MOL0     H91975   3.655   5.611   2.531 -0.0459  1.2669 -0.1387
  697MOL0     H91976   3.779   5.399   2.722  0.4155  4.2032  1.9041
  697MOL0     H91977   3.673   5.350   2.585  1.1944 -0.9410  0.4470
  697MOL0     H91978   3.940   5.348   2.565 -0.4379 -1.4212 -1.9480
  697MOL0     H91979   3.923   5.520   2.544 -2.4291  1.2931 -0.1938
  697MOL0     H91980   3.738   5.398   2.368 -0.2853  2.0299  1.7204
  697MOL0     H91981   3.865   5.279   2.383 -2.6997 -0.7287  0.6343
  697MOL0     H91982   3.925   5.423   2.191 -4.8351 -0.5469  0.4218
  697MOL0     H91983   3.905   5.573   2.280 -1.4206 -0.2420  1.4797
  697MOL0     H91984   4.098   5.341   2.308 -1.4395 -0.4057 -3.6844
  697MOL0     H91985   4.100   5.474   2.427 -0.9697 -0.8510  0.1003
  697MOL0     H91986   3.247   5.285   2.711  0.7271 -0.2391 -3.0414
  697MOL0     H91987   3.133   5.095   2.753  0.3822  0.9055 -1.2663
  697MOL0     H91988   3.255   4.571   2.848  0.4039  2.3388 -3.1361
  697MOL0     H91989   3.149   4.369   2.812  0.8128  0.8688 -4.5403
  697MOL0     H91990   1.379   5.088   3.479  0.3316  0.6295 -0.8113
  697MOL0     H91991   1.220   5.263   3.555  0.0551  0.2241  0.5995
  697MOL0     H91992   1.059   5.582   3.693  0.9959 -1.3730  0.2809
  697MOL0     H91993   0.846   5.693   3.776  1.4944  1.1502 -0.3800
  697MOL0     H91994   0.734   5.666   4.220  0.2570  0.0926  0.4046
  697MOL0     H91995   0.687   5.530   4.125  0.9942  0.2589  3.8511
  697MOL0     H91996   0.500   5.651   4.224 -0.9331 -2.6027 -1.6032
  697MOL0     H91997   0.524   5.795   4.122 -0.6019  1.1905 -1.7591
  697MOL0     H91998   0.523   5.522   4.004  5.1962  2.1820  4.4081
  697MOL0     H91999   0.473   5.674   3.927 -1.0776  0.6065  0.5277
  697MOL0     H92000   0.315   5.493   4.095  2.0688 -2.4039 -2.2830
  697MOL0     H92001   0.267   5.660   4.082  0.3898 -0.0316  0.3834
  697MOL0     H92002   0.176   5.552   3.684 -0.5733  0.8156  0.2767
  697MOL0     H92003   0.924   5.557   4.170 -2.0774  2.9205 -1.4983
  697MOL0     H92004   1.117   5.433   4.106  0.1660  0.6866  1.6449
  698MOL0     O92005  10.527   8.157   1.666  0.3993 -0.2271 -0.4001
  698MOL0     C92006  10.462   8.212   1.579  0.1266 -0.2716  0.2957
  698MOL0     O92007  10.519   8.267   1.474  0.1951  0.1671  0.8434
  698MOL0     C92008  10.653   8.254   1.465 -0.0171 -0.3706  0.3454
  698MOL0     C92009  10.727   8.370   1.436  1.1891  0.1018  0.2017
  698MOL0     C92010  10.861   8.372   1.413 -0.6456  0.2719  0.7690
  698MOL0     C92011  10.926   8.248   1.396  0.2341 -0.3387  0.0506
  698MOL0     O92012  11.056   8.259   1.343  0.6492  0.7681 -0.3155
  698MOL0     C92013  11.096   8.153   1.254  0.4935  0.6381 -0.3434
  698MOL0     C92014  11.207   8.209   1.181  0.4258 -0.4685  1.7008
  698MOL0     C92015  11.174   8.305   1.066 -0.0121  0.3080 -0.5233
  698MOL0     C92016  11.289   8.308   0.968  0.0956  0.2432 -1.5292
  698MOL0     C92017  11.264   8.401   0.854 -0.2202 -0.3365  0.3352
  698MOL0     C92018  11.385   8.390   0.769  0.4839 -0.4043  0.1554
  698MOL0     C92019  11.376   8.505   0.659  0.7300 -0.1359  0.1089
  698MOL0     C92020  11.522   8.551   0.616  0.3147 -0.1131  0.1909
  698MOL0     N92021  11.587   8.445   0.551  0.0026  0.9302 -0.0662
  698MOL0     C92022  11.708   8.389   0.585 -0.6308 -0.3814  0.1991
  698MOL0     C92023  11.734   8.306   0.479  0.3060 -0.2255 -0.2122
  698MOL0     C92024  11.866   8.236   0.464 -0.9882 -0.4162 -0.5886
  698MOL0     C92025  11.954   8.286   0.346  0.1193 -0.1768 -0.3676
  698MOL0     C92026  11.919   8.215   0.214  0.2041 -0.0389 -0.3132
  698MOL0     C92027  11.962   8.278   0.081  0.5421  0.1030  0.0699
  698MOL0     O92028  12.101   8.252   0.042  0.4070  0.3281  0.0260
  698MOL0     C92029  12.196   8.328   0.105 -1.0869  0.0003 -0.9708
  698MOL0     C92030  12.171   8.455   0.156  0.4054  0.5034  1.0650
  698MOL0     C92031  12.279   8.535   0.200  0.2584 -0.3507 -0.0377
  698MOL0     C92032  12.411   8.486   0.212  0.5076 -0.3206 -0.1870
  698MOL0     C92033  12.517   8.562   0.275  0.1419  0.1716  0.6636
  698MOL0     O92034  12.626   8.489   0.307 -0.4606 -1.2934 -0.4357
  698MOL0     C92035  12.746   8.547   0.360  0.4544 -0.8722  0.7259
  698MOL0     C92036  12.816   8.465   0.458 -0.3217  0.1673  0.2013
  698MOL0     C92037  12.937   8.507   0.510  0.0949  0.4080  0.9315
  698MOL0     C92038  12.991   8.634   0.461  0.2309 -0.2431 -0.4006
  698MOL0     O92039  13.109   8.686   0.505 -0.1590  0.1187  0.3010
  698MOL0     C92040  13.226   8.630   0.458 -0.2597  0.3000  0.6547
  698MOL0     C92041  13.338   8.726   0.478 -0.8018  0.3076 -0.0823
  698MOL0     C92042  13.376   8.745   0.630  0.7351  1.0600  0.5283
  698MOL0     C92043  13.510   8.799   0.647 -0.3687 -0.2877 -0.0918
  698MOL0     C92044  13.539   8.781   0.802 -0.5173  0.3008 -0.3485
  698MOL0     C92045  13.643   8.876   0.866 -0.3883  0.3004 -0.1573
  698MOL0     C92046  13.781   8.861   0.800  0.7133  0.1260 -0.5046
  698MOL0     C92047  13.868   8.992   0.838 -0.1229  0.0816  0.0143
  698MOL0    Cl92048  14.025   9.004   0.765 -0.0152 -0.2978  0.6148
  698MOL0     C92049  12.927   8.708   0.356 -0.0772  0.5856  0.3201
  698MOL0     C92050  12.806   8.666   0.303  0.0798 -0.2600 -0.4533
  698MOL0     O92051  12.494   8.674   0.317  0.3493  0.4009  0.2382
  698MOL0     C92052  12.430   8.356   0.168 -0.1377 -0.1135  0.5445
  698MOL0     C92053  12.323   8.284   0.112 -0.4157 -0.1765  0.3015
  698MOL0     N92054  11.646   8.336   0.381 -0.3524  0.4187  0.1986
  698MOL0     N92055  11.555   8.416   0.426 -0.3788 -0.1401 -0.0271
  698MOL0     C92056  10.856   8.127   1.420 -0.6965 -0.4047  0.5948
  698MOL0     C92057  10.718   8.130   1.451 -0.7259 -0.2107 -0.4257
  698MOL0     C92058  10.316   8.221   1.591  0.3599  0.4305  0.0504
  698MOL0     C92059  10.238   8.282   1.492  0.1736 -0.1561 -0.3393
  698MOL0     C92060  10.103   8.277   1.501 -0.0849 -0.3978 -0.6375
  698MOL0     C92061  10.034   8.214   1.612  0.0491 -0.2282 -0.4194
  698MOL0     O92062   9.899   8.220   1.627 -0.5247 -0.9695 -0.7181
  698MOL0     C92063   9.823   8.134   1.540 -0.3360 -0.2432  0.1641
  698MOL0     C92064   9.672   8.154   1.568  1.2468  0.8747 -0.5696
  698MOL0     C92065   9.627   8.091   1.705  0.0746 -0.4089  0.8147
  698MOL0     C92066   9.482   8.091   1.738 -0.0327 -0.4094  0.2169
  698MOL0     C92067   9.409   8.001   1.650  0.6820  0.4711 -0.5453
  698MOL0     C92068   9.350   7.928   1.577 -0.6141  1.1918  0.0200
  698MOL0     C92069  10.113   8.155   1.705  0.0088  0.1899 -1.1654
  698MOL0     C92070  10.254   8.146   1.697 -0.9139  0.3536 -0.3610
  698MOL0     H92071  10.665   8.457   1.419  1.1067 -0.2260 -1.3255
  698MOL0     H92072  10.917   8.460   1.382  0.8437 -0.8041  0.2770
  698MOL0     H92073  11.016   8.127   1.184  1.7732  0.7003 -1.8779
  698MOL0     H92074  11.121   8.058   1.303 -0.2548  1.5204  1.8434
  698MOL0     H92075  11.256   8.120   1.141  1.8010 -1.4731  5.1700
  698MOL0     H92076  11.280   8.255   1.248  3.2585 -2.3048  0.0766
  698MOL0     H92077  11.147   8.404   1.103  0.3880  0.6661 -1.1737
  698MOL0     H92078  11.086   8.266   1.013 -0.6287 -0.4803  1.0137
  698MOL0     H92079  11.375   8.343   1.027 -0.9458  0.1771  0.0878
  698MOL0     H92080  11.298   8.206   0.932  0.4318 -0.7796  1.2133
  698MOL0     H92081  11.248   8.504   0.889 -1.2288  0.0002 -1.0279
  698MOL0     H92082  11.175   8.376   0.795  0.4856 -0.5682 -0.6518
  698MOL0     H92083  11.408   8.294   0.723 -0.1870 -0.2484 -0.5204
  698MOL0     H92084  11.476   8.405   0.829  0.6689  1.7806 -0.6024
  698MOL0     H92085  11.323   8.465   0.572  0.8973 -0.2988  0.0827
  698MOL0     H92086  11.320   8.591   0.698 -0.3380 -0.5756 -0.4239
  698MOL0     H92087  11.566   8.581   0.711  1.5702  2.6156 -1.1518
  698MOL0     H92088  11.516   8.631   0.542  0.3868 -0.3711 -0.0920
  698MOL0     H92089  11.773   8.408   0.670  2.2178  1.0957 -2.1313
  698MOL0     H92090  11.845   8.129   0.456  0.5013 -0.7124 -0.9758
  698MOL0     H92091  11.924   8.251   0.556 -4.3907  2.2303  1.3908
  698MOL0     H92092  12.059   8.283   0.377  0.4884 -0.5154 -1.5910
  698MOL0     H92093  11.951   8.393   0.324  4.0588  0.4788  1.3503
  698MOL0     H92094  11.962   8.115   0.215  1.5329  0.5133  0.0938
  698MOL0     H92095  11.810   8.211   0.205 -0.6166  5.4920  2.3732
  698MOL0     H92096  11.930   8.381   0.065 -0.6269 -0.1817  0.4651
  698MOL0     H92097  11.900   8.227   0.006 -1.0449  0.1636  1.3024
  698MOL0     H92098  12.071   8.498   0.159  1.5149  4.1111 -3.0903
  698MOL0     H92099  12.247   8.632   0.236  0.1696  0.2895 -1.7131
  698MOL0     H92100  12.774   8.366   0.469  2.1028 -1.3200 -2.6698
  698MOL0     H92101  13.003   8.455   0.579  0.2207  1.0041  1.2581
  698MOL0     H92102  13.215   8.610   0.351  2.7413 -2.0538  0.6633
  698MOL0     H92103  13.250   8.540   0.515  1.2240  1.0732  1.2913
  698MOL0     H92104  13.305   8.818   0.429 -1.8284 -0.7209 -1.4093
  698MOL0     H92105  13.426   8.686   0.427 -1.1165 -1.6595  0.8253
  698MOL0     H92106  13.361   8.655   0.692  2.3626 -0.4336 -1.1262
  698MOL0     H92107  13.303   8.820   0.660 -0.3303  0.6745 -1.0078
  698MOL0     H92108  13.582   8.753   0.579  1.4547 -1.1811  2.3158
  698MOL0     H92109  13.517   8.907   0.627  0.1053  0.3662  3.0344
  698MOL0     H92110  13.570   8.678   0.822 -0.9975  0.3783  0.9357
  698MOL0     H92111  13.440   8.796   0.848 -0.1424 -2.6002  1.7623
  698MOL0     H92112  13.654   8.863   0.974 -1.2158 -2.9285 -0.3674
  698MOL0     H92113  13.608   8.979   0.853 -2.6690 -0.4352 -0.2661
  698MOL0     H92114  13.836   8.776   0.841 -0.2321 -0.9444 -1.3970
  698MOL0     H92115  13.767   8.841   0.693 -2.2419 -2.4536  0.2142
  698MOL0     H92116  13.870   9.016   0.945 -1.2646  0.4093 -0.0173
  698MOL0     H92117  13.820   9.081   0.797  0.2038  1.3106  2.1140
  698MOL0     H92118  12.972   8.800   0.322  1.6758  1.0344  3.4415
  698MOL0     H92119  12.741   8.720   0.235 -0.5288  1.1013  1.1321
  698MOL0     H92120  12.529   8.311   0.172  0.1334  0.4275  0.0164
  698MOL0     H92121  12.338   8.186   0.070 -0.3964  0.4301 -1.1871
  698MOL0     H92122  10.900   8.032   1.392  0.3686  0.5920 -1.4155
  698MOL0     H92123  10.670   8.033   1.462  1.7818 -1.2600  5.1528
  698MOL0     H92124  10.276   8.344   1.412 -0.4354 -0.0405 -0.5450
  698MOL0     H92125  10.053   8.337   1.426  0.2435  1.7909  0.8180
  698MOL0     H92126   9.854   8.031   1.557  2.6201  0.3906 -0.7997
  698MOL0     H92127   9.838   8.163   1.436  1.0278  1.2265  0.7199
  698MOL0     H92128   9.641   8.259   1.564  2.3765  1.4217  2.3397
  698MOL0     H92129   9.621   8.099   1.488 -0.0546 -2.1619  2.1109
  698MOL0     H92130   9.677   8.156   1.777 -1.1142  1.3803  0.1063
  698MOL0     H92131   9.675   7.993   1.714 -1.7924 -1.4878 -0.3147
  698MOL0     H92132   9.465   8.064   1.843  0.2687 -0.1018  0.3518
  698MOL0     H92133   9.442   8.193   1.729 -1.0831 -0.8723 -0.4449
  698MOL0     H92134   9.316   7.849   1.513  0.5348  1.1966 -0.6064
  698MOL0     H92135  10.063   8.107   1.789  1.7370 -0.7934 -0.6491
  698MOL0     H92136  10.302   8.083   1.770 -3.1194  0.2377  1.0988
  699MOL0     O92137   1.683   6.829  10.364  0.9327 -0.0778 -0.5298
  699MOL0     C92138   1.790   6.784  10.334 -1.0480  0.0940 -0.3385
  699MOL0     O92139   1.895   6.858  10.283 -0.2222 -0.6637 -0.1291
  699MOL0     C92140   1.875   6.994  10.242 -0.2010  0.3105  0.6516
  699MOL0     C92141   1.885   7.023  10.116  0.2617  0.4347  0.3679
  699MOL0     C92142   1.864   7.143  10.046  0.2450 -0.2723 -1.0694
  699MOL0     C92143   1.840   7.254  10.139 -0.2517  0.9997 -0.6187
  699MOL0     O92144   1.812   7.382  10.107 -0.2619  0.0889  0.1255
  699MOL0     C92145   1.810   7.421   9.967  0.1099 -0.4366  0.4130
  699MOL0     C92146   1.775   7.562   9.956 -0.8101  0.5843 -0.3514
  699MOL0     C92147   1.874   7.666   9.976  0.2691 -0.3968 -0.2881
  699MOL0     C92148   1.802   7.801   9.950  0.0512 -0.0138  0.4726
  699MOL0     C92149   1.899   7.923   9.930 -0.1289  0.1649 -0.3742
  699MOL0     C92150   1.818   8.053   9.909 -0.3911  0.3455 -0.9305
  699MOL0     C92151   1.892   8.147   9.813 -0.2028  0.8388 -0.6102
  699MOL0     C92152   1.896   8.107   9.667  0.1336 -0.5108  0.4266
  699MOL0     N92153   1.945   8.212   9.572 -0.4617 -0.1836  0.2129
  699MOL0     C92154   2.066   8.276   9.596  0.0838 -0.1658 -0.5836
  699MOL0     C92155   2.067   8.370   9.505 -0.5600 -0.3630 -0.1124
  699MOL0     C92156   2.175   8.477   9.519  0.7288 -0.1108  0.4354
  699MOL0     C92157   2.303   8.454   9.447  0.1391 -0.4138 -0.3175
  699MOL0     C92158   2.296   8.490   9.289  0.0673 -0.2249  0.4724
  699MOL0     C92159   2.431   8.440   9.232  0.7296 -0.0588  0.5492
  699MOL0     O92160   2.554   8.510   9.267 -0.6554  0.4905 -0.8024
  699MOL0     C92161   2.566   8.643   9.227  0.2595 -0.0465 -0.3075
  699MOL0     C92162   2.540   8.749   9.318 -0.0274 -0.6800  0.3266
  699MOL0     C92163   2.569   8.882   9.281  0.4260 -0.3211  0.4500
  699MOL0     C92164   2.620   8.913   9.156 -0.1079  0.5044  1.1117
  699MOL0     C92165   2.661   9.056   9.115  0.4143 -0.4965 -0.8054
  699MOL0     O92166   2.677   9.152   9.215  0.6342 -0.4865 -0.4540
  699MOL0     C92167   2.724   9.272   9.182  1.6518  0.0322  0.2114
  699MOL0     C92168   2.654   9.393   9.177 -1.0231 -0.0686  0.1457
  699MOL0     C92169   2.723   9.518   9.151  0.1080  1.2168  0.3284
  699MOL0     C92170   2.859   9.519   9.113 -0.4528 -0.0014  0.3768
  699MOL0     O92171   2.946   9.626   9.083  0.2152  0.2867  0.0828
  699MOL0     C92172   2.879   9.753   9.051  0.0600 -0.5552  0.7118
  699MOL0     C92173   2.971   9.876   9.077 -0.6015 -0.2256 -0.6152
  699MOL0     C92174   2.914  10.007   9.028 -0.7890  0.6430  0.4225
  699MOL0     C92175   2.998  10.139   9.055 -0.0567  0.5102 -0.2483
  699MOL0     C92176   2.932  10.267   9.008  0.3335  0.8701 -0.0531
  699MOL0     C92177   3.037  10.375   9.032 -0.5044 -0.1196 -0.1836
  699MOL0     C92178   3.057  10.470   8.916  0.2069 -0.0617 -0.2847
  699MOL0     C92179   3.181  10.546   8.928 -0.6175 -0.3705  0.5699
  699MOL0    Cl92180   3.221  10.595   9.095  0.3496  0.2471 -0.0627
  699MOL0     C92181   2.922   9.400   9.104 -0.7210 -0.2852  0.1852
  699MOL0     C92182   2.852   9.276   9.142 -0.9908  0.2121  0.7081
  699MOL0     O92183   2.684   9.072   8.997  0.3115 -0.1250 -0.1675
  699MOL0     C92184   2.645   8.812   9.067 -0.1809  0.7588  0.6358
  699MOL0     C92185   2.629   8.683   9.114 -0.8814  0.2450 -0.0804
  699MOL0     N92186   1.960   8.349   9.419  0.5437  0.5580 -0.8199
  699MOL0     N92187   1.891   8.244   9.453 -0.1907  0.5211  0.3229
  699MOL0     C92188   1.833   7.224  10.282  0.3236 -0.9468 -0.2363
  699MOL0     C92189   1.852   7.093  10.331  0.9189 -0.8405 -0.5743
  699MOL0     C92190   1.805   6.643  10.369 -0.4726 -0.3990  0.2883
  699MOL0     C92191   1.702   6.578  10.437 -0.4467  0.4085  0.4375
  699MOL0     C92192   1.707   6.445  10.486 -0.4231 -0.3623 -0.2904
  699MOL0     C92193   1.832   6.378  10.482  0.2351 -0.6547 -0.9256
  699MOL0     O92194   1.836   6.260  10.548 -0.2896  0.2376 -0.0831
  699MOL0     C92195   1.947   6.167  10.517  0.1527  0.3766  0.2889
  699MOL0     C92196   1.923   6.049  10.610 -0.4318  0.8123  0.0329
  699MOL0     C92197   1.815   5.940  10.563 -0.6448  0.0033 -0.5480
  699MOL0     C92198   1.872   5.853  10.457 -0.0418  0.3360  0.3697
  699MOL0     C92199   1.772   5.743  10.426  0.2381  0.2906 -0.4980
  699MOL0     C92200   1.683   5.665  10.391  0.8096 -0.8784  0.2531
  699MOL0     C92201   1.947   6.444  10.426  0.8886  0.7598  0.1243
  699MOL0     C92202   1.928   6.570  10.353 -0.8315  0.8333  0.0485
  699MOL0     H92203   1.905   6.935  10.056  0.0653 -0.0668  1.0257
  699MOL0     H92204   1.866   7.146   9.937 -2.9059  1.7428 -1.1693
  699MOL0     H92205   1.730   7.364   9.919 -0.9376  0.0864  1.4631
  699MOL0     H92206   1.899   7.407   9.906  0.4557 -1.1680  1.0669
  699MOL0     H92207   1.695   7.587  10.027 -1.5724 -0.2747 -0.8933
  699MOL0     H92208   1.728   7.579   9.860  1.9657  1.8711 -1.6020
  699MOL0     H92209   1.967   7.659   9.920 -1.1843 -0.2713 -2.8425
  699MOL0     H92210   1.916   7.663  10.077 -0.2483  1.0797  0.0105
  699MOL0     H92211   1.736   7.791   9.863 -1.2711  0.8677  1.3370
  699MOL0     H92212   1.729   7.823  10.028  1.0690  1.0587  1.1524
  699MOL0     H92213   1.966   7.918   9.845  0.3983  3.3990 -0.2695
  699MOL0     H92214   1.960   7.942  10.019 -1.3351  1.2897  0.2619
  699MOL0     H92215   1.798   8.112   9.999  1.2057  2.7372 -2.0343
  699MOL0     H92216   1.722   8.024   9.864 -0.9617 -0.1125  0.5179
  699MOL0     H92217   1.853   8.249   9.816  0.3134  1.0156  0.3113
  699MOL0     H92218   1.996   8.153   9.846  0.6610 -2.1263 -2.4014
  699MOL0     H92219   1.792   8.106   9.632  0.4383  1.9936 -0.7773
  699MOL0     H92220   1.941   8.010   9.641 -1.0034 -0.3546 -2.6084
  699MOL0     H92221   2.120   8.255   9.687 -2.9549  0.2680  1.4870
  699MOL0     H92222   2.202   8.471   9.625  1.3100 -3.7377  0.2266
  699MOL0     H92223   2.130   8.573   9.494 -0.1246 -0.7317 -0.5495
  699MOL0     H92224   2.317   8.346   9.454 -1.9412 -0.8155 -1.5908
  699MOL0     H92225   2.386   8.505   9.496 -1.3214  0.1578  1.7187
  699MOL0     H92226   2.210   8.444   9.239 -1.9538  1.3339  2.2674
  699MOL0     H92227   2.298   8.597   9.267 -0.2180 -0.5886 -1.4990
  699MOL0     H92228   2.420   8.446   9.123 -0.1573  0.4608  0.6627
  699MOL0     H92229   2.438   8.334   9.260 -2.7667 -0.5035  0.1399
  699MOL0     H92230   2.498   8.726   9.415 -1.6660  2.8821  0.6147
  699MOL0     H92231   2.546   8.964   9.347 -0.0783  1.3187 -1.6616
  699MOL0     H92232   2.552   9.389   9.215 -1.4412  0.2929 -0.8935
  699MOL0     H92233   2.667   9.610   9.165 -2.0452 -0.1995  1.7356
  699MOL0     H92234   2.787   9.770   9.107 -1.0381 -1.0028 -0.8886
  699MOL0     H92235   2.853   9.752   8.945  2.7985 -0.0914 -0.0526
  699MOL0     H92236   3.070   9.857   9.035 -1.1436 -0.2261 -1.9288
  699MOL0     H92237   2.990   9.887   9.185  1.0843  0.4456 -0.9439
  699MOL0     H92238   2.814  10.014   9.071 -3.0485 -3.3563 -3.3407
  699MOL0     H92239   2.906  10.006   8.919  1.2563  0.1623  0.2391
  699MOL0     H92240   3.020  10.139   9.162  1.7372 -1.9561 -0.5197
  699MOL0     H92241   3.097  10.134   9.009  0.4433  2.4812  0.5386
  699MOL0     H92242   2.841  10.294   9.064  0.2081 -0.5219  0.4513
  699MOL0     H92243   2.908  10.258   8.902  2.3739 -1.6381 -0.3798
  699MOL0     H92244   3.132  10.343   9.075 -0.6524  1.8142  1.7746
  699MOL0     H92245   3.002  10.431   9.119  1.2699 -0.7433  0.9825
  699MOL0     H92246   3.043  10.425   8.818  0.9292 -0.1376 -0.3586
  699MOL0     H92247   2.972  10.539   8.922 -2.6237 -3.3779  1.1102
  699MOL0     H92248   3.175  10.627   8.855 -1.2662 -1.1284 -0.2368
  699MOL0     H92249   3.260  10.485   8.884 -1.8059  1.4584 -4.9191
  699MOL0     H92250   3.028   9.403   9.080 -0.6464  2.3813  0.6112
  699MOL0     H92251   2.897   9.178   9.131 -0.2892  0.6676 -0.7118
  699MOL0     H92252   2.689   8.829   8.969 -2.0758 -2.6434 -0.9918
  699MOL0     H92253   2.651   8.595   9.054 -0.9138 -2.1586  3.1600
  699MOL0     H92254   1.823   7.312  10.344  0.5470  1.0390 -2.8407
  699MOL0     H92255   1.840   7.081  10.439 -2.1798  2.0453 -0.4284
  699MOL0     H92256   1.611   6.634  10.456 -1.6090 -1.3388  0.2707
  699MOL0     H92257   1.630   6.389  10.539 -1.9139  0.6983 -1.2661
  699MOL0     H92258   2.039   6.222  10.540 -1.7563  4.5772 -1.1659
  699MOL0     H92259   1.950   6.142  10.411  2.2773  3.4034 -0.4920
  699MOL0     H92260   2.018   5.996  10.617  0.1298  1.8912  0.8931
  699MOL0     H92261   1.891   6.079  10.710  1.8878 -2.1270  1.8421
  699MOL0     H92262   1.733   6.003  10.530 -0.2295  0.8503 -0.0177
  699MOL0     H92263   1.788   5.887  10.655 -0.8284  0.5961 -0.2565
  699MOL0     H92264   1.904   5.905  10.366 -0.1277 -3.2167 -1.8798
  699MOL0     H92265   1.958   5.812  10.510 -0.3167 -0.8133 -0.0533
  699MOL0     H92266   1.598   5.604  10.364  1.7634 -1.6681 -1.1202
  699MOL0     H92267   2.047   6.403  10.424  1.2927  1.6462  1.2119
  699MOL0     H92268   2.018   6.602  10.303 -1.0451  1.8958  0.3350
  700MOL0     O92269   5.296   8.312   2.142 -0.2441  0.0157 -0.5707
  700MOL0     C92270   5.311   8.428   2.183 -0.3591  0.1341  0.3741
  700MOL0     O92271   5.210   8.506   2.232 -0.0425  0.4502  0.4580
  700MOL0     C92272   5.072   8.479   2.228 -0.0820 -0.5864  0.4847
  700MOL0     C92273   4.991   8.514   2.341 -0.0997  0.1006  0.4637
  700MOL0     C92274   4.850   8.506   2.331  0.3864 -0.4013 -0.0059
  700MOL0     C92275   4.790   8.449   2.218  0.4220  0.1267 -0.7388
  700MOL0     O92276   4.654   8.408   2.215  0.5963 -0.6166 -0.2222
  700MOL0     C92277   4.568   8.473   2.311  0.1496 -0.5633 -0.2808
  700MOL0     C92278   4.425   8.440   2.269  0.9045 -0.1606 -0.7593
  700MOL0     C92279   4.318   8.462   2.380 -0.3594  0.3114 -0.1391
  700MOL0     C92280   4.185   8.411   2.344 -0.0700  0.7914 -0.4471
  700MOL0     C92281   4.117   8.466   2.213 -0.3740 -0.0889  0.1055
  700MOL0     C92282   3.968   8.411   2.204 -0.0158  0.4185  0.5857
  700MOL0     C92283   3.863   8.447   2.316  0.3606  0.0934 -0.7980
  700MOL0     C92284   3.722   8.407   2.263 -0.1177 -0.5067  0.0939
  700MOL0     N92285   3.639   8.398   2.375 -0.4159 -0.3067  0.2674
  700MOL0     C92286   3.634   8.288   2.465  0.4789 -0.0626  0.3329
  700MOL0     C92287   3.536   8.323   2.555  0.3679 -0.3204  0.2732
  700MOL0     C92288   3.491   8.244   2.668  0.9716 -0.1161 -0.0213
  700MOL0     C92289   3.585   8.141   2.741  0.1551 -1.1543  0.4274
  700MOL0     C92290   3.664   8.193   2.863 -0.4337 -0.9992 -0.5950
  700MOL0     C92291   3.765   8.309   2.830  0.6318  0.8783 -1.3460
  700MOL0     O92292   3.854   8.260   2.720  0.1793 -0.1732 -0.1793
  700MOL0     C92293   3.975   8.209   2.741  1.1033 -0.1632  0.4128
  700MOL0     C92294   4.027   8.173   2.864  0.6623 -0.3519 -1.1496
  700MOL0     C92295   4.151   8.128   2.882 -0.0048 -0.1717  0.5577
  700MOL0     C92296   4.234   8.110   2.770 -0.2932 -0.3218 -0.4095
  700MOL0     C92297   4.369   8.051   2.794  0.9164  0.5011 -0.8904
  700MOL0     O92298   4.444   7.989   2.696  0.8317  0.1353  0.7579
  700MOL0     C92299   4.565   7.942   2.734 -0.0977  1.0459  0.5989
  700MOL0     C92300   4.680   7.978   2.670 -0.5602 -0.3432  0.2806
  700MOL0     C92301   4.809   7.913   2.694  0.6662 -0.1294 -0.7775
  700MOL0     C92302   4.814   7.814   2.793  0.2031 -0.2936  0.3485
  700MOL0     O92303   4.929   7.749   2.822  0.3512  0.3920 -0.0396
  700MOL0     C92304   5.039   7.829   2.850  0.5357 -0.0396  0.0281
  700MOL0     C92305   5.155   7.739   2.918  0.1890  0.4244  0.1437
  700MOL0     C92306   5.191   7.628   2.822  0.0255 -0.3834 -0.6765
  700MOL0     C92307   5.281   7.523   2.890  1.0889  0.2666 -0.3295
  700MOL0     C92308   5.285   7.385   2.813  0.5581 -0.0558  0.0905
  700MOL0     C92309   5.407   7.305   2.849  0.2775 -0.1825  0.1036
  700MOL0     C92310   5.395   7.257   2.984  0.7996 -0.1387 -0.4541
  700MOL0     C92311   5.505   7.152   3.011  0.1389 -0.0348  0.8693
  700MOL0    Cl92312   5.668   7.201   3.000 -0.0467 -0.0633 -0.0133
  700MOL0     C92313   4.697   7.772   2.864 -0.2634 -0.0423  0.1662
  700MOL0     C92314   4.577   7.837   2.828 -0.5459 -0.1882 -0.4769
  700MOL0     O92315   4.409   8.067   2.906  0.1284  0.8086 -0.2514
  700MOL0     C92316   4.186   8.153   2.642  0.5320  0.8080 -0.1239
  700MOL0     C92317   4.056   8.187   2.626  0.6721  0.7257 -0.3697
  700MOL0     N92318   3.483   8.445   2.508 -1.3390  0.0504 -0.1317
  700MOL0     N92319   3.540   8.495   2.407  0.1030  0.2054 -0.6743
  700MOL0     C92320   4.869   8.414   2.110 -0.1192 -0.1486 -0.3945
  700MOL0     C92321   5.008   8.434   2.108 -0.9696  0.5409  0.2364
  700MOL0     C92322   5.447   8.474   2.196  0.1888 -1.0209 -0.1130
  700MOL0     C92323   5.553   8.393   2.248 -0.1251  0.8195  0.7557
  700MOL0     C92324   5.688   8.435   2.246  0.3123  0.2682  0.2695
  700MOL0     C92325   5.717   8.565   2.222  0.3595 -0.1984  0.2535
  700MOL0     O92326   5.846   8.618   2.203  0.0838  0.0380 -0.9885
  700MOL0     C92327   5.944   8.519   2.189  0.3023  0.8469 -0.0452
  700MOL0     C92328   6.079   8.587   2.133  0.2453  0.6551  0.1328
  700MOL0     C92329   6.192   8.487   2.140  0.3909 -0.2519 -1.3644
  700MOL0     C92330   6.319   8.558   2.097  0.4530  0.7964  0.1121
  700MOL0     C92331   6.423   8.460   2.052  0.5221  0.4750 -0.3055
  700MOL0     C92332   6.519   8.394   2.017 -0.7062  0.2747 -0.7065
  700MOL0     C92333   5.616   8.656   2.178  0.3946 -0.4939  0.5442
  700MOL0     C92334   5.474   8.615   2.169 -0.2801  0.1733  0.1621
  700MOL0     H92335   5.026   8.567   2.429 -1.4384  3.8888 -1.0957
  700MOL0     H92336   4.786   8.551   2.406  2.2935  2.7767 -0.0915
  700MOL0     H92337   4.581   8.582   2.314  0.1541 -0.5596 -0.3946
  700MOL0     H92338   4.594   8.441   2.412 -1.3269 -3.6130 -0.7591
  700MOL0     H92339   4.430   8.332   2.253 -0.3226 -0.1511 -1.3313
  700MOL0     H92340   4.394   8.500   2.182  0.8738 -0.1876 -0.7674
  700MOL0     H92341   4.326   8.568   2.406  0.4734  0.2281 -0.0062
  700MOL0     H92342   4.361   8.411   2.467  1.0723 -2.3851 -2.2589
  700MOL0     H92343   4.190   8.302   2.349  0.1584  0.8239  0.0569
  700MOL0     H92344   4.120   8.448   2.425 -0.5049 -3.3973  1.3728
  700MOL0     H92345   4.170   8.419   2.129 -1.3924 -2.3299  0.6520
  700MOL0     H92346   4.113   8.575   2.221  2.2193 -0.0635  4.1157
  700MOL0     H92347   3.963   8.302   2.195 -1.5703  0.3464  1.7891
  700MOL0     H92348   3.931   8.445   2.106 -0.6936 -0.8334  0.3915
  700MOL0     H92349   3.884   8.401   2.414  3.0320 -0.8121 -1.7139
  700MOL0     H92350   3.863   8.553   2.341  1.9725 -0.3097  1.1554
  700MOL0     H92351   3.729   8.312   2.209  1.7994  0.1366 -0.8827
  700MOL0     H92352   3.686   8.479   2.188 -0.2015 -2.7365 -2.1587
  700MOL0     H92353   3.684   8.192   2.464 -1.1421 -1.0659  2.8166
  700MOL0     H92354   3.409   8.184   2.629  0.1241  1.2058 -0.3325
  700MOL0     H92355   3.453   8.314   2.743  0.2356 -1.9957  1.4135
  700MOL0     H92356   3.652   8.090   2.671 -0.3281 -1.8274  0.4423
  700MOL0     H92357   3.519   8.059   2.770  1.0115 -1.5127  1.3871
  700MOL0     H92358   3.596   8.217   2.945 -1.6436 -1.2393 -1.4846
  700MOL0     H92359   3.722   8.103   2.887  2.8649  0.6458 -1.8260
  700MOL0     H92360   3.819   8.336   2.922 -1.5452 -0.9524  0.6075
  700MOL0     H92361   3.702   8.393   2.802 -1.8728 -0.5556 -0.3415
  700MOL0     H92362   3.965   8.177   2.954  0.8142 -0.6496 -1.0301
  700MOL0     H92363   4.178   8.088   2.979  2.3694  1.0867  0.5034
  700MOL0     H92364   4.671   8.051   2.590  3.2257  0.6307  0.5820
  700MOL0     H92365   4.901   7.946   2.646  0.5216  3.3993  1.0871
  700MOL0     H92366   5.002   7.910   2.913 -2.7713 -1.2998 -0.1189
  700MOL0     H92367   5.075   7.877   2.759 -2.0927 -0.0976 -1.1128
  700MOL0     H92368   5.114   7.710   3.016 -2.3344  0.6828 -0.7474
  700MOL0     H92369   5.235   7.809   2.942 -0.5284  0.9494  1.1212
  700MOL0     H92370   5.227   7.659   2.724  0.8677  0.2714 -0.1787
  700MOL0     H92371   5.098   7.572   2.811 -1.2758  1.4363  0.4807
  700MOL0     H92372   5.381   7.568   2.897  0.6831  1.0156  0.7478
  700MOL0     H92373   5.250   7.517   2.994 -1.3659  5.9983 -0.3484
  700MOL0     H92374   5.304   7.415   2.710  3.5849 -0.4624  0.4259
  700MOL0     H92375   5.193   7.326   2.815  0.8171 -0.4525  1.5145
  700MOL0     H92376   5.501   7.361   2.843  2.3912 -3.1852  2.1805
  700MOL0     H92377   5.412   7.221   2.779 -2.3803  0.3043 -0.7701
  700MOL0     H92378   5.390   7.326   3.068  0.5583 -0.3222 -0.3132
  700MOL0     H92379   5.297   7.209   2.991  1.6524 -1.7006  1.8823
  700MOL0     H92380   5.490   7.073   2.938 -0.2757 -1.4652  2.4451
  700MOL0     H92381   5.506   7.104   3.109  1.3810 -2.1295 -0.0934
  700MOL0     H92382   4.692   7.700   2.945 -1.7565  2.7509  2.7664
  700MOL0     H92383   4.499   7.797   2.893  0.0605  0.5717  0.7660
  700MOL0     H92384   4.255   8.150   2.558  2.0150  0.1097  1.0715
  700MOL0     H92385   4.028   8.202   2.522 -0.8892 -2.0913 -0.4352
  700MOL0     H92386   4.829   8.362   2.023  2.6553 -0.7944 -1.3927
  700MOL0     H92387   5.068   8.395   2.026  0.9097 -0.0045  1.7623
  700MOL0     H92388   5.542   8.292   2.287  2.6463  0.8254  1.7070
  700MOL0     H92389   5.765   8.361   2.266  0.4835 -0.1755 -1.7994
  700MOL0     H92390   5.920   8.434   2.126 -3.1577  0.8269  1.0789
  700MOL0     H92391   5.958   8.481   2.291  0.8296  2.8625  0.6995
  700MOL0     H92392   6.050   8.608   2.030 -0.0303 -0.8281 -0.1160
  700MOL0     H92393   6.092   8.674   2.198  1.8608 -2.8841  5.2040
  700MOL0     H92394   6.181   8.394   2.084 -0.9520 -1.3852  0.6632
  700MOL0     H92395   6.212   8.448   2.240  3.0350 -0.2631 -1.8042
  700MOL0     H92396   6.297   8.617   2.007  3.1686  0.4096 -0.8825
  700MOL0     H92397   6.360   8.615   2.181 -2.6200 -0.3698  2.6136
  700MOL0     H92398   6.612   8.352   1.986 -0.8040  0.2240 -0.9323
  700MOL0     H92399   5.640   8.757   2.147 -0.7058 -1.3932 -3.8905
  700MOL0     H92400   5.393   8.680   2.139  0.5929  1.9678  1.5200
  701MOL0     O92401   8.025   7.397   8.717  0.3111  0.1599  0.2267
  701MOL0     C92402   8.075   7.429   8.612  0.9097 -1.0281  0.4103
  701MOL0     O92403   8.010   7.480   8.505 -0.0445  0.8438  0.5615
  701MOL0     C92404   7.872   7.501   8.519 -0.6219  0.1023  0.4165
  701MOL0     C92405   7.789   7.439   8.431 -0.3244  1.2455 -0.0078
  701MOL0     C92406   7.658   7.473   8.412 -0.7064 -0.7318  0.2694
  701MOL0     C92407   7.604   7.577   8.484 -0.2731  1.1014 -0.3970
  701MOL0     O92408   7.474   7.614   8.478 -0.4476  0.9090  0.0813
  701MOL0     C92409   7.372   7.513   8.462 -0.2319  0.1633  0.1338
  701MOL0     C92410   7.246   7.546   8.553 -0.3071 -0.2105  1.2498
  701MOL0     C92411   7.119   7.478   8.498  0.9672  0.0589 -0.5403
  701MOL0     C92412   7.060   7.518   8.362 -0.2597 -0.7333 -0.9332
  701MOL0     C92413   7.022   7.671   8.359  0.1311  0.1391 -0.6069
  701MOL0     C92414   6.948   7.721   8.233  0.3183 -0.4048 -0.5561
  701MOL0     C92415   7.020   7.721   8.100 -0.3909  0.0771  0.1089
  701MOL0     C92416   6.922   7.765   7.973 -0.5633 -0.5865 -0.1907
  701MOL0     N92417   6.801   7.690   7.939  0.6024 -0.1667  0.0436
  701MOL0     C92418   6.792   7.570   7.874  0.8050 -0.1709 -0.1279
  701MOL0     C92419   6.659   7.539   7.878  0.1342 -0.5135  0.2824
  701MOL0     C92420   6.613   7.412   7.822  0.0395  0.3440  0.0270
  701MOL0     C92421   6.557   7.300   7.915  0.4295  0.5778  0.4602
  701MOL0     C92422   6.605   7.297   8.062  0.3141 -0.8588  0.2331
  701MOL0     C92423   6.759   7.305   8.080  0.0336  0.2326 -0.0957
  701MOL0     O92424   6.838   7.217   7.994  0.4226 -0.0728 -0.6581
  701MOL0     C92425   6.966   7.210   8.017  0.1121 -0.4670  0.6536
  701MOL0     C92426   7.053   7.308   7.978  0.1533 -0.0802 -0.1444
  701MOL0     C92427   7.193   7.289   8.011 -0.1159  0.3278  0.4361
  701MOL0     C92428   7.242   7.182   8.076 -0.5654  0.4747 -0.3124
  701MOL0     C92429   7.389   7.159   8.099 -0.0812 -0.3799 -0.0670
  701MOL0     O92430   7.470   7.275   8.074  1.9240 -0.0672 -0.0723
  701MOL0     C92431   7.604   7.266   8.059 -1.1749 -0.4238 -0.8363
  701MOL0     C92432   7.671   7.151   8.020 -1.7621  0.1558 -0.1645
  701MOL0     C92433   7.820   7.158   8.004  0.4723  0.4821 -0.2081
  701MOL0     C92434   7.888   7.267   8.046 -0.6611 -0.5926  0.0383
  701MOL0     O92435   8.025   7.277   8.053  0.1453  0.1223 -0.5200
  701MOL0     C92436   8.094   7.173   8.121  0.1235  0.8304 -0.9561
  701MOL0     C92437   8.237   7.217   8.131 -0.6907 -0.3411  0.2879
  701MOL0     C92438   8.333   7.120   8.196  0.8748 -0.6959 -0.4293
  701MOL0     C92439   8.477   7.184   8.226  1.0940  0.7092 -0.0661
  701MOL0     C92440   8.542   7.107   8.346  0.3460 -0.1473 -0.2865
  701MOL0     C92441   8.487   7.129   8.484 -0.6752 -0.4136 -0.3962
  701MOL0     C92442   8.554   7.042   8.583 -0.8390 -0.1881  0.6483
  701MOL0     C92443   8.513   6.892   8.563 -0.5670 -0.7172 -0.1749
  701MOL0    Cl92444   8.517   6.799   8.716  0.8821 -0.0196 -0.4872
  701MOL0     C92445   7.816   7.380   8.071 -0.9258  0.7250 -0.2236
  701MOL0     C92446   7.679   7.381   8.067  0.1745 -0.6067  0.7124
  701MOL0     O92447   7.425   7.051   8.136 -0.3033  0.4552 -0.0911
  701MOL0     C92448   7.143   7.080   8.114 -0.3816  0.0992  0.1819
  701MOL0     C92449   7.006   7.102   8.098 -0.1340 -0.2528 -0.8214
  701MOL0     N92450   6.593   7.632   7.957  0.7105 -0.2000  0.6705
  701MOL0     N92451   6.673   7.721   7.985 -0.5349  0.2021  0.5925
  701MOL0     C92452   7.682   7.651   8.575 -0.6669  0.1991  0.3535
  701MOL0     C92453   7.822   7.611   8.587  0.6049 -0.6501 -0.2281
  701MOL0     C92454   8.225   7.446   8.608 -0.2547  0.4747 -0.4718
  701MOL0     C92455   8.302   7.402   8.717 -0.6645 -0.3988  0.3043
  701MOL0     C92456   8.438   7.425   8.719  0.0739  1.0648  0.2287
  701MOL0     C92457   8.504   7.491   8.618 -0.3914 -0.5469  0.6874
  701MOL0     O92458   8.639   7.531   8.622  0.1015 -0.1231  0.2271
  701MOL0     C92459   8.725   7.419   8.582 -0.1494  0.1182 -0.1771
  701MOL0     C92460   8.870   7.459   8.553 -0.3780 -0.0347  0.6046
  701MOL0     C92461   8.923   7.563   8.647  0.7835  0.0825  0.7366
  701MOL0     C92462   9.059   7.624   8.593 -0.0044  0.2592 -0.0532
  701MOL0     C92463   9.180   7.566   8.653 -0.6666  0.2970 -0.2514
  701MOL0     C92464   9.284   7.520   8.692 -0.5403  0.2271  0.1034
  701MOL0     C92465   8.430   7.531   8.503 -0.2618 -0.3199  0.2892
  701MOL0     C92466   8.298   7.505   8.498  0.2120  0.3363 -0.5562
  701MOL0     H92467   7.823   7.361   8.363  0.2416  1.9379 -0.5389
  701MOL0     H92468   7.594   7.427   8.337 -3.7432  4.0890 -0.5031
  701MOL0     H92469   7.419   7.418   8.488 -1.9727 -0.6984  0.2600
  701MOL0     H92470   7.342   7.495   8.359  0.6490 -0.1643 -0.0765
  701MOL0     H92471   7.227   7.653   8.536  0.9292 -0.3517 -1.3685
  701MOL0     H92472   7.275   7.524   8.657  0.6634  1.5380  1.3909
  701MOL0     H92473   7.041   7.495   8.573  1.4790  0.8259 -0.1589
  701MOL0     H92474   7.128   7.369   8.495  0.7740  0.0586 -1.2105
  701MOL0     H92475   7.138   7.508   8.286 -2.5098 -1.1643 -3.3158
  701MOL0     H92476   6.982   7.448   8.331 -1.3136  0.5168 -1.1330
  701MOL0     H92477   7.100   7.744   8.382  0.0856  0.4974 -1.5131
  701MOL0     H92478   6.954   7.686   8.443  0.6839  0.1097 -0.1543
  701MOL0     H92479   6.900   7.817   8.256  2.9954  0.8024  0.3824
  701MOL0     H92480   6.870   7.644   8.233  0.1962 -0.3609  1.6441
  701MOL0     H92481   7.112   7.781   8.103  1.1186 -2.1544  0.8729
  701MOL0     H92482   7.045   7.616   8.085 -2.2006 -0.0079 -3.2597
  701MOL0     H92483   6.996   7.783   7.894  0.0539 -1.4289  0.1768
  701MOL0     H92484   6.881   7.859   8.009 -0.0670 -1.2543  2.3589
  701MOL0     H92485   6.873   7.510   7.837 -0.7263 -1.7602 -1.0222
  701MOL0     H92486   6.695   7.373   7.762 -0.3901  0.7725 -0.8568
  701MOL0     H92487   6.530   7.415   7.751 -0.2986 -1.5792  0.2680
  701MOL0     H92488   6.562   7.202   7.868 -1.5944  0.4862  0.3683
  701MOL0     H92489   6.450   7.321   7.911  0.0999 -0.8568 -4.0411
  701MOL0     H92490   6.554   7.379   8.113 -2.3792  0.7533 -4.4615
  701MOL0     H92491   6.563   7.206   8.107  0.4457 -0.5601  0.9803
  701MOL0     H92492   6.775   7.252   8.175  0.6619 -0.4642 -0.5812
  701MOL0     H92493   6.789   7.409   8.098 -1.2980  0.6485 -0.1826
  701MOL0     H92494   7.012   7.391   7.922 -0.3074  0.0343  0.3470
  701MOL0     H92495   7.251   7.375   7.979 -2.6262  1.7768 -0.5530
  701MOL0     H92496   7.620   7.056   8.015 -1.2929 -0.0624 -0.9549
  701MOL0     H92497   7.874   7.066   7.984  0.4024  0.3048  0.4026
  701MOL0     H92498   8.078   7.078   8.068 -4.5784  0.8844 -0.0786
  701MOL0     H92499   8.050   7.177   8.221  1.2856  0.0909 -0.3875
  701MOL0     H92500   8.234   7.314   8.181 -0.0081 -0.9185  1.4968
  701MOL0     H92501   8.263   7.234   8.026 -3.0106  1.7333 -0.0523
  701MOL0     H92502   8.344   7.030   8.135 -3.2967 -2.3343  0.8799
  701MOL0     H92503   8.284   7.099   8.291 -2.7621  1.6442 -1.5603
  701MOL0     H92504   8.544   7.153   8.145  1.9711 -3.1510  1.9333
  701MOL0     H92505   8.479   7.293   8.232  0.4222  0.7049  0.3078
  701MOL0     H92506   8.644   7.145   8.348 -0.1887  1.3386  0.6497
  701MOL0     H92507   8.541   6.999   8.328  1.6036 -0.1186 -0.5882
  701MOL0     H92508   8.381   7.109   8.503 -0.3734  0.5798  2.8752
  701MOL0     H92509   8.498   7.233   8.518  2.1211  0.5086 -3.5715
  701MOL0     H92510   8.662   7.057   8.584 -1.0753  2.1093  2.8082
  701MOL0     H92511   8.518   7.084   8.678 -1.9864 -1.4171  0.8025
  701MOL0     H92512   8.570   6.847   8.481  0.7724  1.4111 -0.4976
  701MOL0     H92513   8.410   6.899   8.528 -1.2118  0.4333  1.8329
  701MOL0     H92514   7.873   7.469   8.096  2.0513 -1.2239  0.4234
  701MOL0     H92515   7.620   7.468   8.095 -2.1421 -1.7864 -0.2078
  701MOL0     H92516   7.176   6.987   8.161  3.0967 -0.6156 -3.1777
  701MOL0     H92517   6.925   7.047   8.144  0.3328 -0.4308 -0.1963
  701MOL0     H92518   7.644   7.734   8.633 -0.4788  1.2778 -1.0050
  701MOL0     H92519   7.887   7.637   8.669  2.4971 -3.9587 -0.5271
  701MOL0     H92520   8.255   7.360   8.806  1.9124 -1.8096  1.1013
  701MOL0     H92521   8.499   7.396   8.804  3.6839 -0.9680 -2.7271
  701MOL0     H92522   8.691   7.351   8.503  0.1514  0.2097 -0.3814
  701MOL0     H92523   8.723   7.349   8.667  0.1366 -2.6415 -2.2893
  701MOL0     H92524   8.937   7.373   8.563 -0.9741 -0.7613 -1.1530
  701MOL0     H92525   8.874   7.511   8.456 -0.7709  0.2296  0.7289
  701MOL0     H92526   8.936   7.521   8.748 -0.3509 -1.4059  0.3013
  701MOL0     H92527   8.857   7.650   8.648 -0.3765 -0.4059 -4.7301
  701MOL0     H92528   9.068   7.595   8.487 -1.2223  0.4703 -0.2240
  701MOL0     H92529   9.051   7.731   8.612 -1.2936  0.4236 -1.3483
  701MOL0     H92530   9.371   7.488   8.745 -2.3078 -1.6496  2.1187
  701MOL0     H92531   8.474   7.584   8.419 -0.9287 -0.9097 -0.4445
  701MOL0     H92532   8.249   7.523   8.403 -2.7271 -0.1350  0.7505
  702MOL0     O92533   9.133   4.320   1.307  0.4170 -0.3532 -0.2682
  702MOL0     C92534   9.093   4.228   1.373 -0.3815 -0.1002  0.3373
  702MOL0     O92535   9.151   4.177   1.488 -0.0022 -0.2027 -0.3741
  702MOL0     C92536   9.276   4.217   1.519 -0.9164  0.7249 -0.1216
  702MOL0     C92537   9.315   4.345   1.543 -0.0717 -0.4516  0.1366
  702MOL0     C92538   9.447   4.376   1.573 -0.0255 -0.5327  0.0794
  702MOL0     C92539   9.547   4.279   1.551 -0.0515 -0.0908 -1.1070
  702MOL0     O92540   9.679   4.319   1.556  1.0423  0.3372 -0.2577
  702MOL0     C92541   9.784   4.223   1.564 -0.3705  0.5106  1.0804
  702MOL0     C92542   9.903   4.301   1.595 -0.0484 -0.0612  0.6095
  702MOL0     C92543  10.017   4.198   1.614 -0.5864 -0.6466  0.0927
  702MOL0     C92544  10.158   4.261   1.655 -0.0082  0.0764  0.2498
  702MOL0     C92545  10.146   4.304   1.808  0.2263 -0.1895  0.1908
  702MOL0     C92546  10.278   4.361   1.865 -0.6954  0.0885  0.0721
  702MOL0     C92547  10.386   4.257   1.902  0.1489 -0.3470 -0.3716
  702MOL0     C92548  10.403   4.216   2.045 -0.0218  0.1292 -0.8207
  702MOL0     N92549  10.504   4.114   2.085 -0.7833  0.0911  0.1265
  702MOL0     C92550  10.485   3.987   2.136  0.1021 -0.6234  0.3271
  702MOL0     C92551  10.601   3.921   2.118  0.0245  0.1213 -0.0297
  702MOL0     C92552  10.653   3.785   2.159 -0.3618 -0.6951 -0.5220
  702MOL0     C92553  10.565   3.683   2.093  0.0500 -0.6614 -0.7646
  702MOL0     C92554  10.421   3.651   2.160  0.0527  0.2193 -0.6271
  702MOL0     C92555  10.418   3.600   2.304  0.8025  0.5213  0.2547
  702MOL0     O92556  10.458   3.704   2.396 -0.2850 -0.1185 -0.0484
  702MOL0     C92557  10.475   3.674   2.531  1.0290  0.0359 -0.9613
  702MOL0     C92558  10.446   3.777   2.620  0.2810 -0.5510  0.4307
  702MOL0     C92559  10.446   3.756   2.756  0.6619 -0.3696 -0.3367
  702MOL0     C92560  10.487   3.631   2.811  0.4414 -0.0272  0.3832
  702MOL0     C92561  10.463   3.598   2.950  0.2545 -0.6412  0.1981
  702MOL0     O92562  10.508   3.474   2.996 -0.4329  0.6942  0.2405
  702MOL0     C92563  10.457   3.442   3.116  0.5012 -0.1140 -0.6506
  702MOL0     C92564  10.527   3.477   3.230 -0.1053 -1.1704  0.9173
  702MOL0     C92565  10.473   3.436   3.355  0.1374 -0.5943 -0.3378
  702MOL0     C92566  10.348   3.375   3.368 -0.4778  0.6694 -0.1048
  702MOL0     O92567  10.286   3.344   3.481 -0.1049 -0.5278 -0.3386
  702MOL0     C92568  10.324   3.403   3.608  1.2970 -0.3319 -1.0051
  702MOL0     C92569  10.431   3.302   3.657  0.4179 -0.6915 -0.4212
  702MOL0     C92570  10.509   3.345   3.784 -0.3950  0.2938 -0.3383
  702MOL0     C92571  10.428   3.370   3.913  0.0596 -0.5378  0.1152
  702MOL0     C92572  10.527   3.422   4.022  0.7730  0.3256  0.7773
  702MOL0     C92573  10.462   3.395   4.160 -0.6653 -0.0472  1.2323
  702MOL0     C92574  10.535   3.454   4.275 -0.4732  0.3073 -0.7337
  702MOL0     C92575  10.471   3.413   4.414 -0.1179 -0.4323 -0.0685
  702MOL0    Cl92576  10.521   3.526   4.550  0.3684 -0.3202 -0.1258
  702MOL0     C92577  10.280   3.341   3.250 -0.4587 -0.1843  0.5512
  702MOL0     C92578  10.336   3.375   3.128 -0.1986 -0.8583 -0.0529
  702MOL0     O92579  10.390   3.678   3.011  0.3114 -0.0051 -0.3234
  702MOL0     C92580  10.529   3.531   2.721  1.5674  0.3657  0.8425
  702MOL0     C92581  10.516   3.542   2.579  0.0554 -0.3738  0.5636
  702MOL0     N92582  10.691   4.021   2.070  0.5098  0.1286  0.1537
  702MOL0     N92583  10.639   4.135   2.061  0.1234  0.1786  0.1368
  702MOL0     C92584   9.512   4.144   1.529  0.1002  0.2596 -1.1920
  702MOL0     C92585   9.376   4.113   1.514  0.6798  0.0534 -0.4953
  702MOL0     C92586   8.961   4.182   1.342 -0.2927 -0.1242 -0.2431
  702MOL0     C92587   8.932   4.145   1.206 -0.5309 -0.5035  1.1184
  702MOL0     C92588   8.808   4.075   1.179 -0.3800 -0.2247  0.6030
  702MOL0     C92589   8.713   4.055   1.273  0.1688 -0.4337 -0.5378
  702MOL0     O92590   8.590   4.008   1.248  0.3116  0.5327 -0.2863
  702MOL0     C92591   8.556   3.974   1.108 -0.4265  0.8117 -0.4355
  702MOL0     C92592   8.413   3.943   1.083 -0.4094  0.0240 -1.3359
  702MOL0     C92593   8.313   4.056   1.115  0.8546 -1.2607 -1.5659
  702MOL0     C92594   8.165   4.015   1.158  1.0585  0.3911  1.3657
  702MOL0     C92595   8.082   4.133   1.162  0.5824 -1.2184  0.3888
  702MOL0     C92596   8.015   4.229   1.141 -0.3320 -0.8181  0.0890
  702MOL0     C92597   8.743   4.092   1.403  0.7550  0.5171 -0.5845
  702MOL0     C92598   8.869   4.146   1.436 -0.2140  0.3852  0.0366
  702MOL0     H92599   9.237   4.417   1.565  0.7145  0.6741 -0.6519
  702MOL0     H92600   9.483   4.466   1.623 -1.2760  1.0004 -1.6014
  702MOL0     H92601   9.777   4.164   1.472 -2.6315 -0.4689  1.8027
  702MOL0     H92602   9.762   4.156   1.647 -1.0971 -2.6001 -1.4074
  702MOL0     H92603   9.891   4.374   1.676 -0.1924 -0.0527  0.5813
  702MOL0     H92604   9.927   4.367   1.511  2.9212 -0.6241  0.9147
  702MOL0     H92605  10.031   4.150   1.517  0.6533 -0.7449  0.3022
  702MOL0     H92606   9.985   4.114   1.676 -1.5364 -1.2895 -1.2116
  702MOL0     H92607  10.230   4.182   1.632 -0.7415 -0.2457 -1.0548
  702MOL0     H92608  10.168   4.343   1.584 -0.7184 -0.1876 -0.1745
  702MOL0     H92609  10.121   4.213   1.864 -0.8274  0.4088  0.7192
  702MOL0     H92610  10.062   4.373   1.821 -1.0184 -2.1576  3.9475
  702MOL0     H92611  10.264   4.436   1.943  2.2350  0.1612  0.6295
  702MOL0     H92612  10.322   4.412   1.779 -0.8030 -0.1389 -0.1207
  702MOL0     H92613  10.376   4.167   1.840 -2.4272 -0.1393 -0.3828
  702MOL0     H92614  10.479   4.313   1.886 -0.9202  1.6430  0.0455
  702MOL0     H92615  10.306   4.180   2.080  0.5780 -0.6250  0.1566
  702MOL0     H92616  10.433   4.310   2.093 -1.7494  0.4278 -0.2671
  702MOL0     H92617  10.390   3.946   2.169 -0.6565  0.2915 -0.6511
  702MOL0     H92618  10.648   3.785   2.268 -0.2072 -1.5151 -0.5117
  702MOL0     H92619  10.756   3.766   2.126 -0.6725  0.8956 -2.7106
  702MOL0     H92620  10.617   3.587   2.094 -0.6576 -1.0793 -1.9522
  702MOL0     H92621  10.547   3.720   1.991  2.9101 -2.0175 -1.8845
  702MOL0     H92622  10.353   3.737   2.159  0.4033  0.5195  0.4092
  702MOL0     H92623  10.373   3.566   2.109 -0.8221 -1.1911  2.2877
  702MOL0     H92624  10.485   3.514   2.300  2.2927  1.7044 -1.4478
  702MOL0     H92625  10.314   3.568   2.321  0.4699 -0.0381 -2.4439
  702MOL0     H92626  10.392   3.861   2.577 -0.0072 -1.5053 -1.1762
  702MOL0     H92627  10.424   3.827   2.836  2.7004 -0.6292  0.5473
  702MOL0     H92628  10.616   3.532   3.201 -2.2473  3.0892  1.5482
  702MOL0     H92629  10.530   3.462   3.444 -1.4271 -0.7008  0.7366
  702MOL0     H92630  10.240   3.399   3.678  1.6045 -1.2420 -0.6691
  702MOL0     H92631  10.363   3.505   3.612  0.8417 -0.1858  0.2695
  702MOL0     H92632  10.505   3.282   3.579  1.8439  2.1525  0.0727
  702MOL0     H92633  10.380   3.209   3.685 -0.8768  0.7919  2.6586
  702MOL0     H92634  10.570   3.434   3.767  2.6454 -1.3774  0.9973
  702MOL0     H92635  10.575   3.265   3.817 -2.7571 -0.3728  3.4462
  702MOL0     H92636  10.346   3.442   3.898  2.1990  1.9147 -0.5808
  702MOL0     H92637  10.381   3.276   3.943  0.5242 -0.6265  0.5676
  702MOL0     H92638  10.537   3.530   4.009  0.0600  0.1307 -2.1623
  702MOL0     H92639  10.624   3.370   4.024  1.5818  1.0714 -4.2581
  702MOL0     H92640  10.465   3.287   4.178 -1.2928  0.3706  4.3512
  702MOL0     H92641  10.364   3.442   4.152  0.2506  1.6035 -2.9790
  702MOL0     H92642  10.638   3.416   4.279 -1.4926 -2.5552  1.3557
  702MOL0     H92643  10.535   3.563   4.268  0.9577  0.8933  4.4932
  702MOL0     H92644  10.508   3.314   4.444  0.7444 -0.1175 -0.0656
  702MOL0     H92645  10.362   3.418   4.412 -0.0822  0.4297 -0.4885
  702MOL0     H92646  10.186   3.286   3.249 -0.5555 -0.0396  1.2282
  702MOL0     H92647  10.276   3.341   3.045 -1.9133 -2.7402  1.8037
  702MOL0     H92648  10.560   3.433   2.757 -2.1735 -1.8086 -1.1409
  702MOL0     H92649  10.539   3.461   2.510 -1.6897  1.6740 -2.6474
  702MOL0     H92650   9.582   4.063   1.545 -0.5433  0.0013  0.3950
  702MOL0     H92651   9.350   4.008   1.509  1.5816 -0.2240  0.3211
  702MOL0     H92652   9.003   4.177   1.130 -2.5150  4.4396  0.9971
  702MOL0     H92653   8.795   4.069   1.072 -4.3030  0.1508  0.8967
  702MOL0     H92654   8.611   3.883   1.081  1.0111  1.0963  1.3456
  702MOL0     H92655   8.591   4.055   1.043  0.8424  0.0309 -0.7701
  702MOL0     H92656   8.401   3.925   0.976 -0.8265 -2.0149 -0.9842
  702MOL0     H92657   8.394   3.857   1.148  1.3248  1.6523  1.5979
  702MOL0     H92658   8.311   4.123   1.028  0.0605 -0.0235 -0.6171
  702MOL0     H92659   8.347   4.127   1.192 -2.5632  0.7653 -1.7423
  702MOL0     H92660   8.118   3.942   1.091  1.1527  1.1375  0.4608
  702MOL0     H92661   8.164   3.976   1.260  0.3217 -0.3132  1.1029
  702MOL0     H92662   7.945   4.310   1.145  2.8714  2.2231 -0.1367
  702MOL0     H92663   8.670   4.062   1.478 -0.4093  2.3664 -0.9141
  702MOL0     H92664   8.896   4.168   1.538 -0.4644  2.8144 -0.3751
  703MOL0     O92665   4.635   7.070   8.138 -0.1031 -0.3152  0.7076
  703MOL0     C92666   4.685   7.167   8.073 -0.3407  0.9310 -0.2971
  703MOL0     O92667   4.744   7.272   8.129  0.0200  0.3261 -0.3113
  703MOL0     C92668   4.777   7.296   8.257  0.6437 -0.2102  0.0723
  703MOL0     C92669   4.826   7.422   8.276  0.3048 -0.2466 -0.3722
  703MOL0     C92670   4.841   7.474   8.402  0.2961 -0.3328  0.4750
  703MOL0     C92671   4.800   7.407   8.512  0.4613 -1.0523  0.2326
  703MOL0     O92672   4.825   7.466   8.632  0.5911  0.2037 -0.4921
  703MOL0     C92673   4.766   7.422   8.761 -0.0522 -0.6924 -0.8060
  703MOL0     C92674   4.652   7.508   8.820  0.0103 -0.4120  0.0095
  703MOL0     C92675   4.523   7.522   8.730 -0.2473  0.0469  1.1926
  703MOL0     C92676   4.418   7.621   8.794  0.5512  0.8582  0.7529
  703MOL0     C92677   4.357   7.568   8.931 -0.0205  0.2333 -0.1008
  703MOL0     C92678   4.233   7.639   8.973 -0.2177 -0.8244 -0.4896
  703MOL0     C92679   4.148   7.562   9.069 -0.9148  1.0135 -1.1258
  703MOL0     C92680   4.074   7.650   9.172 -0.6358 -0.4074  0.3522
  703MOL0     N92681   3.999   7.755   9.099  0.7901 -0.1382  0.4961
  703MOL0     C92682   3.931   7.747   8.976 -0.0998  0.8759  0.0582
  703MOL0     C92683   3.862   7.865   8.971  0.5841 -0.1475 -0.7718
  703MOL0     C92684   3.765   7.896   8.857 -0.7740 -0.3507 -0.2344
  703MOL0     C92685   3.842   7.918   8.724 -0.3274  0.1043 -0.7954
  703MOL0     C92686   3.788   7.820   8.616 -0.4446 -0.2669  0.6394
  703MOL0     C92687   3.839   7.857   8.475  0.1276  0.3835  0.4146
  703MOL0     O92688   3.799   7.761   8.381  0.2327 -0.4808  0.8643
  703MOL0     C92689   3.692   7.789   8.308 -0.3446 -0.2413  0.5951
  703MOL0     C92690   3.693   7.752   8.174  0.5509  0.0651  1.6646
  703MOL0     C92691   3.593   7.774   8.095  0.5048  0.4142  0.5792
  703MOL0     C92692   3.484   7.848   8.139 -0.9281  1.1156  1.1465
  703MOL0     C92693   3.366   7.869   8.055 -0.1820 -0.9180 -0.0299
  703MOL0     O92694   3.381   7.874   7.928 -0.5114  0.6590  0.6149
  703MOL0     C92695   3.263   7.879   7.862  0.6920  0.2218  0.7815
  703MOL0     C92696   3.241   8.001   7.795 -0.4134 -0.4684  0.2952
  703MOL0     C92697   3.143   8.001   7.695  0.2264 -0.3610 -0.9738
  703MOL0     C92698   3.068   7.885   7.657 -0.2046 -1.4216 -0.2662
  703MOL0     O92699   2.974   7.882   7.558 -0.6841  0.4429  0.2830
  703MOL0     C92700   2.902   8.000   7.518 -0.1956  0.1550  0.2947
  703MOL0     C92701   2.780   7.962   7.432  0.0701 -0.0439  0.3324
  703MOL0     C92702   2.733   8.107   7.370  0.8244 -0.8259  0.8998
  703MOL0     C92703   2.612   8.067   7.278 -0.1268 -0.2467  1.2016
  703MOL0     C92704   2.494   8.004   7.355  0.0797  0.2702 -0.2429
  703MOL0     C92705   2.350   8.057   7.312 -0.1853  0.3418 -0.2165
  703MOL0     C92706   2.248   7.960   7.378 -1.0787  0.4561  0.6970
  703MOL0     C92707   2.265   7.932   7.525 -0.6914 -0.6169 -0.1724
  703MOL0    Cl92708   2.291   8.089   7.610  0.3075 -0.0908  0.1990
  703MOL0     C92709   3.080   7.770   7.725  0.2059 -0.2454  0.0120
  703MOL0     C92710   3.177   7.765   7.834  0.2127 -1.5666  0.1404
  703MOL0     O92711   3.264   7.891   8.116  0.2828 -0.6804 -0.8306
  703MOL0     C92712   3.482   7.885   8.274  0.7113  0.3940  0.1669
  703MOL0     C92713   3.579   7.850   8.355  1.0788  0.2408  0.0056
  703MOL0     N92714   3.891   7.944   9.079 -0.2427  0.2413 -0.5227
  703MOL0     N92715   3.972   7.877   9.157  0.3157  0.0215 -0.6800
  703MOL0     C92716   4.751   7.277   8.498 -0.4226  0.4895 -1.0265
  703MOL0     C92717   4.744   7.220   8.367  0.3459 -0.1758  0.0296
  703MOL0     C92718   4.666   7.165   7.926  0.1243 -0.1578 -0.7255
  703MOL0     C92719   4.635   7.045   7.856  0.4537 -0.6090 -0.4643
  703MOL0     C92720   4.596   7.039   7.725 -0.3910 -0.5176  0.2876
  703MOL0     C92721   4.613   7.151   7.647  0.1827 -0.4837 -0.2000
  703MOL0     O92722   4.612   7.148   7.511 -0.0675  0.1899  0.8802
  703MOL0     C92723   4.511   7.058   7.448  0.2700  0.1371  0.4950
  703MOL0     C92724   4.565   6.917   7.398  0.6823 -0.2812 -0.1401
  703MOL0     C92725   4.488   6.870   7.268 -0.6474  0.1584 -0.1791
  703MOL0     C92726   4.540   6.958   7.141 -0.7737  0.6954 -0.3466
  703MOL0     C92727   4.467   6.918   7.025  0.0775 -0.8204  0.1661
  703MOL0     C92728   4.396   6.871   6.943  0.0401  0.3625 -0.6841
  703MOL0     C92729   4.641   7.269   7.712 -0.4075 -0.4583  0.6865
  703MOL0     C92730   4.661   7.273   7.844 -0.1754  0.2156  0.0047
  703MOL0     H92731   4.856   7.489   8.197  2.1349  2.0099  2.0556
  703MOL0     H92732   4.894   7.567   8.417  1.4450 -0.3761 -2.7028
  703MOL0     H92733   4.854   7.431   8.826 -1.2190 -1.0074  0.8750
  703MOL0     H92734   4.734   7.317   8.759 -0.6060 -0.5124 -2.0383
  703MOL0     H92735   4.686   7.612   8.820 -3.7052  0.9330 -0.4949
  703MOL0     H92736   4.630   7.475   8.921 -2.1632 -0.7223 -0.5239
  703MOL0     H92737   4.493   7.418   8.722 -0.1718 -0.4205  4.9717
  703MOL0     H92738   4.559   7.564   8.635 -2.4758 -2.3175 -0.8155
  703MOL0     H92739   4.467   7.713   8.826 -0.2678  1.2067  1.0402
  703MOL0     H92740   4.333   7.648   8.731  0.7330  1.5170  0.7865
  703MOL0     H92741   4.433   7.563   9.010 -1.5810 -2.3804  1.3623
  703MOL0     H92742   4.328   7.464   8.915  0.4853 -0.1913  1.5092
  703MOL0     H92743   4.174   7.662   8.884  2.4685  1.8173 -1.7125
  703MOL0     H92744   4.267   7.731   9.022 -0.8755 -1.4645  1.2756
  703MOL0     H92745   4.071   7.507   9.016 -0.9002  1.4396 -1.5971
  703MOL0     H92746   4.216   7.495   9.123 -2.0635 -1.9783 -3.1994
  703MOL0     H92747   4.140   7.708   9.237 -1.0959 -1.6090  1.9561
  703MOL0     H92748   4.004   7.594   9.235 -1.6768 -1.0586 -1.3003
  703MOL0     H92749   3.926   7.667   8.903  1.2090 -0.9109  1.8466
  703MOL0     H92750   3.706   7.984   8.884  0.0150 -0.6008  2.5329
  703MOL0     H92751   3.697   7.812   8.837 -0.1200 -0.7127 -0.9874
  703MOL0     H92752   3.951   7.919   8.730 -0.3879  0.6470  0.8603
  703MOL0     H92753   3.802   8.017   8.701  0.3910  0.9334  1.3081
  703MOL0     H92754   3.825   7.720   8.641 -2.9181 -1.2499  0.6536
  703MOL0     H92755   3.680   7.804   8.624 -0.9078 -0.2903 -3.6433
  703MOL0     H92756   3.948   7.866   8.479  0.0591  2.0171 -0.3586
  703MOL0     H92757   3.797   7.956   8.453  0.9617  0.0683 -3.1949
  703MOL0     H92758   3.780   7.701   8.134  1.2660  1.4072  1.4470
  703MOL0     H92759   3.593   7.722   8.000 -3.0094 -0.4204  0.9075
  703MOL0     H92760   3.309   8.084   7.811 -0.0814 -0.8300  0.8012
  703MOL0     H92761   3.129   8.088   7.631 -1.9381 -0.2078 -0.3716
  703MOL0     H92762   2.960   8.066   7.453 -2.1762  1.6346 -0.0664
  703MOL0     H92763   2.885   8.052   7.613  2.1923 -2.8302  2.5892
  703MOL0     H92764   2.706   7.900   7.483  0.4053 -2.4756 -1.8948
  703MOL0     H92765   2.815   7.896   7.351  0.5391  2.6353 -1.7787
  703MOL0     H92766   2.802   8.168   7.309 -2.1175  2.0150  0.1026
  703MOL0     H92767   2.704   8.180   7.447 -0.2007 -0.6897  0.4079
  703MOL0     H92768   2.582   8.163   7.234  0.4648 -0.7412 -0.3218
  703MOL0     H92769   2.643   8.002   7.196 -1.0602 -0.9310  1.3825
  703MOL0     H92770   2.504   8.024   7.462  0.7264 -3.6987  0.6158
  703MOL0     H92771   2.508   7.899   7.328  2.1196 -0.0237  1.6698
  703MOL0     H92772   2.320   8.052   7.207 -2.9964  0.7161  0.4990
  703MOL0     H92773   2.328   8.158   7.347  1.5057  0.7501 -0.2199
  703MOL0     H92774   2.149   8.006   7.368 -0.1635  2.4674  0.2834
  703MOL0     H92775   2.241   7.866   7.322 -3.8484  1.2616 -0.4698
  703MOL0     H92776   2.354   7.873   7.546  1.4048  2.2681 -0.4122
  703MOL0     H92777   2.179   7.869   7.551 -1.8172  1.2306  0.7672
  703MOL0     H92778   3.031   7.679   7.693  0.5574 -0.8333  1.0738
  703MOL0     H92779   3.202   7.668   7.875 -2.4647 -2.9757 -1.2775
  703MOL0     H92780   3.397   7.938   8.315  1.0452  1.8688 -0.9679
  703MOL0     H92781   3.577   7.875   8.461  0.2099  0.7818 -0.1320
  703MOL0     H92782   4.722   7.210   8.578 -1.0184  2.9276  0.9427
  703MOL0     H92783   4.695   7.125   8.355 -2.7474  1.5004 -2.0098
  703MOL0     H92784   4.634   6.958   7.921 -1.9824  0.1819  0.6665
  703MOL0     H92785   4.579   6.936   7.698 -0.4589 -0.8360  1.4826
  703MOL0     H92786   4.466   7.105   7.361  0.8924 -0.1272  0.0258
  703MOL0     H92787   4.435   7.041   7.525  1.7820  0.0922  2.0367
  703MOL0     H92788   4.673   6.924   7.385  0.5561  0.8139 -0.7514
  703MOL0     H92789   4.558   6.842   7.478 -1.2450  0.9607  0.9220
  703MOL0     H92790   4.379   6.863   7.277 -0.7538  1.8048  0.2169
  703MOL0     H92791   4.510   6.765   7.250 -0.8095  0.4209 -2.0715
  703MOL0     H92792   4.529   7.067   7.148  0.3453  0.9362 -1.8009
  703MOL0     H92793   4.642   6.922   7.124 -1.7951 -1.4372 -2.5210
  703MOL0     H92794   4.333   6.826   6.869 -0.7068 -1.5829  1.0111
  703MOL0     H92795   4.650   7.362   7.657  1.0055  0.6517  2.6590
  703MOL0     H92796   4.680   7.370   7.888  0.5825 -0.4092  1.1168
  704MOL0     O92797   1.570   2.185   3.266 -0.1678 -0.1113 -0.1299
  704MOL0     C92798   1.572   2.306   3.290  0.9514  0.2815  0.5062
  704MOL0     O92799   1.473   2.374   3.367 -0.1913  0.6470 -0.7208
  704MOL0     C92800   1.370   2.293   3.418  0.6078 -1.4945 -0.3794
  704MOL0     C92801   1.292   2.212   3.331 -0.6943  0.0538 -0.7758
  704MOL0     C92802   1.183   2.139   3.388 -0.0520  0.3287 -1.0243
  704MOL0     C92803   1.157   2.145   3.523 -0.9316  1.0352  0.6751
  704MOL0     O92804   1.074   2.056   3.587  0.0623 -0.5622  0.2256
  704MOL0     C92805   0.934   2.075   3.578  0.2417  1.1386 -0.9984
  704MOL0     C92806   0.874   1.952   3.644 -0.0822 -0.2029  0.3433
  704MOL0     C92807   0.732   1.931   3.603 -0.2764 -0.0758 -0.1642
  704MOL0     C92808   0.711   1.787   3.607 -0.5376  0.2589 -0.1645
  704MOL0     C92809   0.558   1.770   3.611  0.5698  1.0119 -0.5939
  704MOL0     C92810   0.523   1.618   3.628  0.2590 -0.7257 -0.4848
  704MOL0     C92811   0.387   1.595   3.682 -0.9620 -0.5608 -0.5630
  704MOL0     C92812   0.286   1.610   3.573 -0.1831 -0.4470  0.3394
  704MOL0     N92813   0.168   1.536   3.618 -0.2448 -0.5976 -0.3853
  704MOL0     C92814   0.116   1.435   3.552  1.0771 -0.1488 -0.0079
  704MOL0     C92815   0.007   1.395   3.616  0.1056 -0.4091 -0.7965
  704MOL0     C92816  -0.092   1.297   3.560 -0.3125  0.4189 -0.2838
  704MOL0     C92817  -0.231   1.340   3.537  0.5516  0.0346 -0.4744
  704MOL0     C92818  -0.236   1.478   3.462 -0.2030 -0.3090 -0.1381
  704MOL0     C92819  -0.379   1.542   3.475 -0.4736  0.0178 -0.1403
  704MOL0     O92820  -0.481   1.463   3.412 -0.0802  0.1516 -0.8605
  704MOL0     C92821  -0.615   1.499   3.428 -0.3219 -0.4917 -0.3261
  704MOL0     C92822  -0.710   1.394   3.434 -0.2622 -0.1990 -0.2216
  704MOL0     C92823  -0.841   1.424   3.443 -0.8005 -0.9279  0.0154
  704MOL0     C92824  -0.881   1.554   3.464 -1.2013 -0.0530  0.0677
  704MOL0     C92825  -1.024   1.575   3.480 -0.2302 -0.2162  0.5548
  704MOL0     O92826  -1.109   1.468   3.505  0.0252  0.1336  0.5365
  704MOL0     C92827  -1.247   1.483   3.522 -0.4426  0.6295 -0.3511
  704MOL0     C92828  -1.327   1.583   3.469 -0.0927  0.4613  0.5283
  704MOL0     C92829  -1.463   1.606   3.499 -0.3643  0.1158  0.2654
  704MOL0     C92830  -1.535   1.521   3.576 -0.8367  0.7044  0.2397
  704MOL0     O92831  -1.672   1.534   3.565 -0.0325  0.2756  0.2915
  704MOL0     C92832  -1.754   1.422   3.606  0.1483 -0.3172  0.1427
  704MOL0     C92833  -1.778   1.400   3.758 -0.7307  0.1223  0.7276
  704MOL0     C92834  -1.850   1.500   3.833 -0.5683  0.4369  0.9934
  704MOL0     C92835  -1.997   1.514   3.792 -0.3715 -0.9324  0.1660
  704MOL0     C92836  -2.051   1.618   3.880  0.1629  0.3916 -0.2055
  704MOL0     C92837  -2.196   1.675   3.855 -0.9099  0.5865 -0.0052
  704MOL0     C92838  -2.292   1.644   3.965  0.9281  0.2012 -0.3996
  704MOL0     C92839  -2.436   1.676   3.908  0.4381 -0.0831  0.6608
  704MOL0    Cl92840  -2.472   1.848   3.939 -0.0876  0.1653 -0.1365
  704MOL0     C92841  -1.461   1.406   3.624 -0.0337  0.3832  0.2081
  704MOL0     C92842  -1.321   1.396   3.603  0.7242  0.1390  0.6100
  704MOL0     O92843  -1.059   1.692   3.488 -0.1384  0.1154  0.0238
  704MOL0     C92844  -0.790   1.661   3.469 -0.1616 -0.1591 -0.0022
  704MOL0     C92845  -0.651   1.634   3.454 -0.0468  0.0767 -0.7493
  704MOL0     N92846  -0.009   1.469   3.734  0.1859 -0.6015 -0.6041
  704MOL0     N92847   0.085   1.556   3.733 -0.0005 -0.8772 -0.2047
  704MOL0     C92848   1.235   2.228   3.605  0.8363 -0.2416  0.0037
  704MOL0     C92849   1.341   2.306   3.554 -0.2051 -0.2970  0.8198
  704MOL0     C92850   1.668   2.385   3.204  0.4795  0.0206  0.3257
  704MOL0     C92851   1.742   2.332   3.095 -0.9484  0.1574 -0.2991
  704MOL0     C92852   1.831   2.419   3.029 -0.4491  0.2095  1.0045
  704MOL0     C92853   1.831   2.558   3.049 -0.2611  0.7366  0.7791
  704MOL0     O92854   1.903   2.642   2.970 -0.4980 -0.2199 -0.1747
  704MOL0     C92855   2.040   2.605   2.973 -0.4555 -0.9802 -0.2664
  704MOL0     C92856   2.132   2.730   2.965 -0.7971 -0.2162 -0.1432
  704MOL0     C92857   2.286   2.720   2.967  0.2073 -1.2339  0.4514
  704MOL0     C92858   2.326   2.614   3.068  0.1250 -0.0200 -0.0045
  704MOL0     C92859   2.467   2.598   3.095 -0.3962  0.5605  0.5621
  704MOL0     C92860   2.586   2.578   3.121 -0.9518  0.0573  0.1880
  704MOL0     C92861   1.748   2.610   3.150 -0.6578 -0.5478  0.3269
  704MOL0     C92862   1.670   2.521   3.226  0.1292 -0.7014 -0.3984
  704MOL0     H92863   1.330   2.201   3.230  2.7311  2.3297  0.0833
  704MOL0     H92864   1.137   2.054   3.338 -2.5654  0.8597  0.2367
  704MOL0     H92865   0.906   2.072   3.472  0.3836 -0.8111 -1.0237
  704MOL0     H92866   0.902   2.172   3.618 -1.7758 -0.2699  1.0976
  704MOL0     H92867   0.868   1.956   3.753  0.4996  0.6849  0.3465
  704MOL0     H92868   0.947   1.872   3.629  1.5784  1.1116  1.1254
  704MOL0     H92869   0.722   1.971   3.502  0.4086 -1.0031 -0.6157
  704MOL0     H92870   0.675   1.982   3.682  0.9877 -0.8842  1.3370
  704MOL0     H92871   0.760   1.737   3.522 -1.8704  0.3796 -1.0464
  704MOL0     H92872   0.755   1.737   3.694 -0.5438 -2.7028 -1.7184
  704MOL0     H92873   0.509   1.817   3.525  0.6782 -3.6918 -3.5692
  704MOL0     H92874   0.527   1.808   3.709 -3.6474 -4.2130  0.5596
  704MOL0     H92875   0.595   1.574   3.698 -0.7028 -2.0769 -0.3064
  704MOL0     H92876   0.542   1.549   3.546  3.6252  1.1516 -1.4605
  704MOL0     H92877   0.378   1.496   3.729 -0.8143  0.4600  1.7608
  704MOL0     H92878   0.351   1.657   3.765 -0.5325 -2.7322  1.3780
  704MOL0     H92879   0.311   1.564   3.477  2.9919  2.4493 -0.4508
  704MOL0     H92880   0.257   1.716   3.572  0.8885 -0.1015  1.9671
  704MOL0     H92881   0.153   1.407   3.454  0.7688  1.9715 -0.7701
  704MOL0     H92882  -0.090   1.198   3.607 -0.5022 -0.0160 -1.1711
  704MOL0     H92883  -0.056   1.283   3.457  1.0859  2.1403 -0.0597
  704MOL0     H92884  -0.290   1.342   3.628  0.0087 -1.0733 -0.7818
  704MOL0     H92885  -0.281   1.273   3.467  0.3652  1.6278 -1.9384
  704MOL0     H92886  -0.161   1.543   3.509  1.1676 -0.7649 -1.6093
  704MOL0     H92887  -0.202   1.467   3.359  1.6898 -0.3101  0.4317
  704MOL0     H92888  -0.365   1.638   3.425  0.1849  0.6030  1.1073
  704MOL0     H92889  -0.400   1.561   3.581  0.5202 -1.8353  0.4570
  704MOL0     H92890  -0.675   1.291   3.433 -0.1827 -0.1731 -0.9377
  704MOL0     H92891  -0.910   1.340   3.437  0.8279 -2.3181 -0.1334
  704MOL0     H92892  -1.268   1.643   3.400 -0.1318  0.7415  0.7356
  704MOL0     H92893  -1.516   1.682   3.442 -1.1158 -0.6751 -0.1207
  704MOL0     H92894  -1.725   1.324   3.567  0.9927 -0.3708  0.8805
  704MOL0     H92895  -1.858   1.427   3.574 -0.9120  2.1730  3.4217
  704MOL0     H92896  -1.683   1.396   3.812 -1.4120  0.8981  2.0574
  704MOL0     H92897  -1.818   1.301   3.782  4.4155 -2.1020  1.2656
  704MOL0     H92898  -1.795   1.593   3.812  1.0123 -1.0653 -2.3677
  704MOL0     H92899  -1.833   1.472   3.937  0.7786  1.6635  1.1402
  704MOL0     H92900  -2.006   1.534   3.685  0.8127 -1.4390 -0.0454
  704MOL0     H92901  -2.041   1.418   3.821  1.2741 -1.9984 -0.6680
  704MOL0     H92902  -2.004   1.717   3.884 -0.4345  0.7540 -1.6242
  704MOL0     H92903  -2.050   1.577   3.982  0.5314 -1.4033 -0.8965
  704MOL0     H92904  -2.235   1.634   3.761  0.3919 -0.5999 -0.0641
  704MOL0     H92905  -2.191   1.784   3.849  1.1809  0.5768  0.6812
  704MOL0     H92906  -2.281   1.537   3.983  1.9306  0.8106  3.7764
  704MOL0     H92907  -2.265   1.688   4.061  3.0283 -0.5708 -0.5931
  704MOL0     H92908  -2.497   1.622   3.982  1.5154 -0.7058  1.1108
  704MOL0     H92909  -2.447   1.635   3.807  5.0630 -3.7584  1.3106
  704MOL0     H92910  -1.505   1.323   3.678 -0.0690 -1.1393 -2.0243
  704MOL0     H92911  -1.267   1.310   3.641  1.9616 -0.8846 -3.0847
  704MOL0     H92912  -0.822   1.764   3.476  1.4368  0.3186  0.8082
  704MOL0     H92913  -0.592   1.725   3.448  1.6981 -0.8142  1.7359
  704MOL0     H92914   1.202   2.225   3.709  0.3761 -2.4548 -0.1551
  704MOL0     H92915   1.390   2.382   3.614 -2.4114  1.7704  0.1577
  704MOL0     H92916   1.766   2.230   3.066  3.7745  0.7233  0.8167
  704MOL0     H92917   1.894   2.394   2.944 -1.8848 -2.3112  0.5759
  704MOL0     H92918   2.070   2.542   2.888 -1.3221  0.1542 -1.4541
  704MOL0     H92919   2.053   2.556   3.070 -1.4401  2.2431  1.6504
  704MOL0     H92920   2.107   2.781   2.872  1.2382 -1.0197 -1.1992
  704MOL0     H92921   2.106   2.799   3.046 -0.4204 -1.5307  1.1525
  704MOL0     H92922   2.323   2.818   2.998 -2.4493  0.9544 -2.5830
  704MOL0     H92923   2.320   2.703   2.864 -3.6219  2.0903 -1.6627
  704MOL0     H92924   2.283   2.636   3.167  2.6914  1.2952  0.9076
  704MOL0     H92925   2.276   2.521   3.039 -0.0483  0.2163 -0.4552
  704MOL0     H92926   2.690   2.565   3.143 -1.3505 -1.4156  1.2990
  704MOL0     H92927   1.749   2.714   3.182  0.6732 -1.0941  2.2608
  704MOL0     H92928   1.618   2.573   3.307 -0.4792 -3.5147  1.1637
  705MOL0     O92929   9.863   0.805   2.391 -0.4981 -0.4042 -0.4581
  705MOL0     C92930   9.859   0.684   2.389  1.9821 -0.6579 -1.0772
  705MOL0     O92931   9.963   0.595   2.391 -0.4583  0.2030  0.5655
  705MOL0     C92932  10.086   0.647   2.425  1.0600  0.2135  0.4872
  705MOL0     C92933  10.101   0.718   2.546 -0.5130  0.7001 -0.2099
  705MOL0     C92934  10.210   0.795   2.581  0.5071  0.5973 -0.2792
  705MOL0     C92935  10.317   0.787   2.489 -0.7298 -0.3726  0.0193
  705MOL0     O92936  10.431   0.844   2.539 -0.4357  0.2479  0.2394
  705MOL0     C92937  10.543   0.870   2.462  0.0414  0.2848 -0.1373
  705MOL0     C92938  10.628   0.754   2.412 -0.5948  0.2168 -0.6135
  705MOL0     C92939  10.654   0.654   2.526  0.3492  0.0556  0.5121
  705MOL0     C92940  10.744   0.539   2.484 -0.1062 -0.0087  0.0415
  705MOL0     C92941  10.711   0.404   2.552  0.4447  0.7819 -0.1587
  705MOL0     C92942  10.767   0.412   2.694 -0.3756  0.5729  0.7578
  705MOL0     C92943  10.720   0.319   2.808  0.2524 -0.4454  0.2844
  705MOL0     C92944  10.758   0.378   2.948 -0.3799  0.0531 -0.2146
  705MOL0     N92945  10.776   0.287   3.056 -0.2320  0.0368 -0.4073
  705MOL0     C92946  10.881   0.273   3.140 -0.4225  0.3716 -0.0816
  705MOL0     C92947  10.846   0.168   3.231  0.2148 -0.0896  0.6450
  705MOL0     C92948  10.923   0.118   3.352 -0.1126  0.1648 -0.0650
  705MOL0     C92949  10.885  -0.030   3.376 -0.0475  0.1445 -0.5687
  705MOL0     C92950  10.774  -0.033   3.471  0.6222 -0.1000  0.8814
  705MOL0     C92951  10.647  -0.112   3.434 -0.7110  0.3178 -0.0570
  705MOL0     O92952  10.596  -0.144   3.567 -0.5013  0.1067 -0.0328
  705MOL0     C92953  10.465  -0.187   3.583  1.1487  0.2661  0.0544
  705MOL0     C92954  10.413  -0.200   3.709 -0.2292  0.2829 -0.7186
  705MOL0     C92955  10.278  -0.244   3.737 -0.2631  0.1384 -0.5615
  705MOL0     C92956  10.207  -0.304   3.627 -0.8977 -0.5272 -0.4170
  705MOL0     C92957  10.084  -0.387   3.656 -0.9978  1.0139  0.3532
  705MOL0     O92958  10.045  -0.464   3.545  0.4570  0.2208 -0.0739
  705MOL0     C92959   9.915  -0.522   3.557 -0.3096 -0.1799 -0.3463
  705MOL0     C92960   9.900  -0.653   3.603  0.2857 -0.3224  0.0437
  705MOL0     C92961   9.767  -0.699   3.606 -0.7230  0.2108  0.3386
  705MOL0     C92962   9.660  -0.641   3.547  0.0729 -1.0625 -0.3086
  705MOL0     O92963   9.541  -0.709   3.552 -0.2240 -0.0108  0.2910
  705MOL0     C92964   9.431  -0.667   3.472 -1.4235  0.0700  0.4200
  705MOL0     C92965   9.349  -0.551   3.546  0.1067  0.6380  0.2794
  705MOL0     C92966   9.297  -0.599   3.682 -0.0781  0.0282 -0.6930
  705MOL0     C92967   9.245  -0.469   3.753  0.0745  0.4977 -0.0652
  705MOL0     C92968   9.148  -0.515   3.869  0.3712  0.3077 -0.1294
  705MOL0     C92969   9.044  -0.406   3.907  0.4318  0.2352  0.6524
  705MOL0     C92970   9.111  -0.281   3.964  0.0831  0.3273 -1.4860
  705MOL0     C92971   9.015  -0.172   4.003  0.0087  0.3026  0.2145
  705MOL0    Cl92972   9.110  -0.042   4.082  0.1801 -0.4602  0.1865
  705MOL0     C92973   9.679  -0.519   3.482 -0.1782 -0.3782 -0.5976
  705MOL0     C92974   9.806  -0.464   3.482  0.2337  0.0034 -0.0865
  705MOL0     O92975  10.042  -0.391   3.772  0.1346  0.2412 -0.1461
  705MOL0     C92976  10.260  -0.292   3.495 -0.5653  0.3362 -0.0597
  705MOL0     C92977  10.384  -0.232   3.473 -0.6485 -0.0363 -0.1833
  705MOL0     N92978  10.721   0.122   3.187  0.0322 -0.0835  0.7862
  705MOL0     N92979  10.691   0.191   3.082  1.0649  0.1835 -0.2776
  705MOL0     C92980  10.309   0.722   2.363 -0.0807  0.3981  0.4340
  705MOL0     C92981  10.190   0.647   2.338 -0.4500 -0.7225  0.2466
  705MOL0     C92982   9.723   0.631   2.396  0.3929  0.3796  0.0491
  705MOL0     C92983   9.625   0.670   2.482 -0.5389 -1.3193  0.1456
  705MOL0     C92984   9.507   0.605   2.476 -0.5569 -0.6459  0.1863
  705MOL0     C92985   9.465   0.516   2.375 -0.3700 -0.1362  0.9066
  705MOL0     O92986   9.334   0.484   2.368 -0.0974  0.1523  0.5912
  705MOL0     C92987   9.311   0.338   2.328  0.2632  0.2966  0.1097
  705MOL0     C92988   9.182   0.295   2.399  0.9883 -0.4977  0.0565
  705MOL0     C92989   9.208   0.266   2.547  0.9844  0.5600  0.3135
  705MOL0     C92990   9.092   0.180   2.599  0.0139 -0.6992 -0.2414
  705MOL0     C92991   8.958   0.230   2.591  0.1263  0.8983 -0.0272
  705MOL0     C92992   8.853   0.282   2.550 -0.7231 -0.2899 -0.7567
  705MOL0     C92993   9.565   0.482   2.280 -0.8318  0.5602 -0.1352
  705MOL0     C92994   9.697   0.540   2.288  0.1573  0.3639 -0.6947
  705MOL0     H92995  10.020   0.716   2.619  0.1968 -0.9150  0.5740
  705MOL0     H92996  10.209   0.838   2.681  0.3770 -2.3038  1.0702
  705MOL0     H92997  10.601   0.934   2.530 -0.0955 -0.2559  0.4982
  705MOL0     H92998  10.520   0.936   2.378  3.5782  1.5968 -0.2851
  705MOL0     H92999  10.716   0.803   2.370 -1.1731  0.3656 -1.6741
  705MOL0     H93000  10.583   0.700   2.328  2.7480 -1.2263 -1.6459
  705MOL0     H93001  10.559   0.611   2.556 -0.8770  1.8032 -0.6816
  705MOL0     H93002  10.701   0.701   2.613  2.5262 -1.6205  0.3479
  705MOL0     H93003  10.736   0.531   2.375  1.0526  0.2493 -0.0750
  705MOL0     H93004  10.845   0.576   2.504 -1.7644  3.7111  2.8149
  705MOL0     H93005  10.761   0.324   2.496  1.6142  0.7436  0.8830
  705MOL0     H93006  10.605   0.379   2.560  0.4876  1.1517  3.5714
  705MOL0     H93007  10.762   0.516   2.727  0.6065  0.9527 -0.2300
  705MOL0     H93008  10.875   0.399   2.690 -0.3004 -1.0069  4.0345
  705MOL0     H93009  10.613   0.298   2.808 -0.0725  1.0351  1.2101
  705MOL0     H93010  10.772   0.223   2.806  0.8708 -0.1473 -2.6546
  705MOL0     H93011  10.686   0.456   2.974  0.0200 -0.4378  2.7015
  705MOL0     H93012  10.850   0.437   2.935  1.1739 -2.2172 -0.0753
  705MOL0     H93013  10.981   0.314   3.138  0.6214 -1.9651  0.8248
  705MOL0     H93014  10.896   0.172   3.442  1.4648 -1.9385  1.7866
  705MOL0     H93015  11.031   0.117   3.331  0.2435  1.3614  1.5385
  705MOL0     H93016  10.971  -0.085   3.415 -0.3113  0.9381  1.2592
  705MOL0     H93017  10.859  -0.080   3.282  2.7530 -1.8666 -0.4044
  705MOL0     H93018  10.806  -0.075   3.567  0.1710  1.1010  1.5826
  705MOL0     H93019  10.737   0.069   3.485  1.8689  0.3585  0.9723
  705MOL0     H93020  10.672  -0.211   3.394  2.7641  0.4238  1.4823
  705MOL0     H93021  10.572  -0.057   3.376 -1.2598 -0.3636 -0.0206
  705MOL0     H93022  10.479  -0.181   3.793 -0.1591 -2.0590 -0.1798
  705MOL0     H93023  10.250  -0.246   3.842  5.0264 -3.0313  1.2118
  705MOL0     H93024   9.978  -0.709   3.654 -2.6683 -4.1001  0.8542
  705MOL0     H93025   9.752  -0.794   3.655 -3.3619 -0.1571 -1.0139
  705MOL0     H93026   9.358  -0.748   3.462 -3.8681  1.9848  1.5867
  705MOL0     H93027   9.466  -0.643   3.371 -0.7196  1.1895  0.9149
  705MOL0     H93028   9.266  -0.524   3.480  0.2295 -1.1560 -0.6613
  705MOL0     H93029   9.418  -0.466   3.558  1.6580 -0.3354 -1.2044
  705MOL0     H93030   9.372  -0.645   3.747 -1.3963 -3.9523 -1.6560
  705MOL0     H93031   9.224  -0.679   3.666  1.2067 -1.6540  1.2521
  705MOL0     H93032   9.326  -0.404   3.787  2.1913 -0.5664 -2.6937
  705MOL0     H93033   9.184  -0.413   3.682  2.8229  0.9737 -2.1977
  705MOL0     H93034   9.215  -0.532   3.954  2.1460  3.6252 -0.7231
  705MOL0     H93035   9.105  -0.611   3.837  5.7278 -1.1124 -4.7110
  705MOL0     H93036   8.972  -0.448   3.978  2.3689 -0.9460  2.0174
  705MOL0     H93037   8.986  -0.379   3.818  1.6514 -0.8944 -0.5351
  705MOL0     H93038   9.153  -0.318   4.058 -3.7997  3.0614  1.6393
  705MOL0     H93039   9.191  -0.238   3.902  1.8017 -1.8985 -0.9700
  705MOL0     H93040   8.933  -0.211   4.064 -1.6628  2.0650 -0.7912
  705MOL0     H93041   8.957  -0.128   3.921  2.4409  1.4574 -1.0343
  705MOL0     H93042   9.604  -0.471   3.419 -0.3203 -1.0871 -0.9839
  705MOL0     H93043   9.825  -0.373   3.424  2.2217  0.2811  0.9134
  705MOL0     H93044  10.198  -0.319   3.411  0.7828 -0.7182 -0.7517
  705MOL0     H93045  10.424  -0.221   3.373  1.5188 -0.1172  0.6125
  705MOL0     H93046  10.391   0.731   2.293  0.0948 -2.6400  0.1074
  705MOL0     H93047  10.203   0.587   2.248  3.2671 -1.1394  0.8914
  705MOL0     H93048   9.653   0.735   2.565 -0.2029  0.1713 -1.0849
  705MOL0     H93049   9.438   0.625   2.558  0.5351  3.3551  0.3522
  705MOL0     H93050   9.390   0.266   2.353 -0.8656 -0.1718  2.7372
  705MOL0     H93051   9.286   0.353   2.223 -0.1205  1.9444  0.3968
  705MOL0     H93052   9.110   0.377   2.390  0.1870 -1.3920 -2.7500
  705MOL0     H93053   9.151   0.204   2.347 -0.4903 -0.1051  0.1829
  705MOL0     H93054   9.231   0.358   2.602  1.8148  0.2540  0.4965
  705MOL0     H93055   9.301   0.209   2.554  0.0394 -1.1916 -0.8392
  705MOL0     H93056   9.096   0.095   2.531  1.3858 -0.0246 -1.0562
  705MOL0     H93057   9.117   0.139   2.698 -1.5097  0.1601  0.5332
  705MOL0     H93058   8.764   0.337   2.530 -0.3804  0.9043  0.8149
  705MOL0     H93059   9.542   0.396   2.218 -1.7100 -0.5465  1.6394
  705MOL0     H93060   9.775   0.526   2.214 -2.0159 -2.1097 -2.7435
  706MOL0     O93061   5.822   6.829   1.970  0.4676  0.1456 -0.4422
  706MOL0     C93062   5.730   6.817   2.047  0.6439 -0.2664  0.8423
  706MOL0     O93063   5.711   6.720   2.146  0.0754  0.1920  0.1664
  706MOL0     C93064   5.809   6.622   2.172 -0.0785 -0.4358 -0.0059
  706MOL0     C93065   5.941   6.619   2.129 -0.2708  0.5862  0.6090
  706MOL0     C93066   6.033   6.523   2.166 -0.8391  0.4814  0.1409
  706MOL0     C93067   6.005   6.427   2.257  0.2367 -0.0821  0.4596
  706MOL0     O93068   6.094   6.339   2.299  0.0336  0.6482 -0.7281
  706MOL0     C93069   6.046   6.224   2.365  0.0710  0.4059 -0.0031
  706MOL0     C93070   6.173   6.136   2.372 -0.2868 -0.4487  0.0202
  706MOL0     C93071   6.162   6.052   2.492 -0.7385  0.1490  0.9206
  706MOL0     C93072   6.308   5.989   2.514 -0.0867 -0.2616 -0.4150
  706MOL0     C93073   6.325   5.858   2.435  0.2149 -0.1254  1.1785
  706MOL0     C93074   6.422   5.757   2.496 -0.0255 -0.6457  0.5720
  706MOL0     C93075   6.558   5.808   2.493  0.0771 -0.1741 -1.3903
  706MOL0     C93076   6.658   5.686   2.493  0.8118  0.2513  0.1411
  706MOL0     N93077   6.798   5.738   2.479  0.6011 -0.0074 -0.4908
  706MOL0     C93078   6.858   5.829   2.560  0.1547  0.5001 -1.0363
  706MOL0     C93079   6.983   5.833   2.512 -0.9903 -0.4096  0.4687
  706MOL0     C93080   7.088   5.912   2.586  0.3326 -0.1306  0.3381
  706MOL0     C93081   7.165   5.994   2.483 -0.3923 -0.0975  0.5465
  706MOL0     C93082   7.135   6.142   2.464  0.7748 -0.5763  0.3477
  706MOL0     C93083   6.982   6.179   2.440 -0.2543  0.7548  0.0673
  706MOL0     O93084   6.939   6.084   2.340  0.5746 -0.0952  0.2116
  706MOL0     C93085   6.819   6.099   2.276 -0.2798 -0.5216 -0.6194
  706MOL0     C93086   6.766   5.998   2.201 -0.0931  0.1548  1.5401
  706MOL0     C93087   6.640   6.006   2.141  0.9961  0.8835 -0.1928
  706MOL0     C93088   6.564   6.125   2.147 -0.4933 -0.1587  0.2376
  706MOL0     C93089   6.448   6.137   2.062 -0.3172  0.2585  0.4021
  706MOL0     O93090   6.390   6.262   2.051  0.6467 -0.3067 -0.5024
  706MOL0     C93091   6.299   6.292   1.956  0.8057 -0.5236 -0.0517
  706MOL0     C93092   6.178   6.216   1.940  0.6363 -0.6896  0.4489
  706MOL0     C93093   6.081   6.243   1.839  0.0944  0.2478 -1.0242
  706MOL0     C93094   6.104   6.348   1.757  0.1310 -0.5733  0.7660
  706MOL0     O93095   6.021   6.362   1.646  0.1313  0.9707 -0.0657
  706MOL0     C93096   5.983   6.498   1.605  0.3165 -0.4644 -0.9416
  706MOL0     C93097   5.914   6.577   1.722 -0.7643  0.2227 -0.3453
  706MOL0     C93098   5.789   6.507   1.779 -0.3204 -0.0374  0.7838
  706MOL0     C93099   5.667   6.499   1.687 -0.7543  0.2098 -0.2239
  706MOL0     C93100   5.600   6.632   1.672  0.9998 -0.1957 -0.2451
  706MOL0     C93101   5.454   6.610   1.605 -0.0655 -0.3849  0.0982
  706MOL0     C93102   5.396   6.753   1.563 -0.9873  1.6428  0.9207
  706MOL0     C93103   5.324   6.818   1.686  0.5767 -0.1575  0.0506
  706MOL0    Cl93104   5.284   6.987   1.657 -0.1430  0.1537 -0.0489
  706MOL0     C93105   6.220   6.421   1.772 -0.0494 -0.2208  0.4863
  706MOL0     C93106   6.315   6.403   1.873  0.1039 -0.7687  0.9182
  706MOL0     O93107   6.405   6.030   2.000 -0.3703 -0.5983  0.5057
  706MOL0     C93108   6.618   6.224   2.225 -0.4695  0.4385 -0.7573
  706MOL0     C93109   6.739   6.210   2.292 -0.6967 -0.1213  0.1405
  706MOL0     N93110   7.002   5.738   2.412 -0.1689 -0.3685  0.1113
  706MOL0     N93111   6.891   5.687   2.391  0.3377 -0.7304 -0.0341
  706MOL0     C93112   5.871   6.432   2.308  0.5568  0.1987 -0.9200
  706MOL0     C93113   5.771   6.515   2.254 -0.4954  0.5212  0.9265
  706MOL0     C93114   5.612   6.915   2.035  0.2852  0.7393  0.0893
  706MOL0     C93115   5.520   6.936   2.149  2.1634 -0.8905  0.9819
  706MOL0     C93116   5.415   7.039   2.137 -0.0982 -0.5138  0.8738
  706MOL0     C93117   5.406   7.124   2.031 -0.3051 -0.6732  0.1205
  706MOL0     O93118   5.300   7.221   2.023 -0.7585  0.1318  0.3693
  706MOL0     C93119   5.291   7.316   1.918 -0.3553 -0.3434 -0.2421
  706MOL0     C93120   5.381   7.440   1.946  0.0691  0.0578 -0.0430
  706MOL0     C93121   5.334   7.561   1.868  0.1104  0.6126 -0.0702
  706MOL0     C93122   5.446   7.653   1.814  0.2799 -0.2194 -0.8678
  706MOL0     C93123   5.389   7.780   1.773 -0.0472 -0.4232 -0.1276
  706MOL0     C93124   5.325   7.879   1.736  0.0390  0.6602  0.3959
  706MOL0     C93125   5.505   7.115   1.932 -0.1069  0.6376 -0.8288
  706MOL0     C93126   5.598   7.004   1.925  0.3489 -0.0713  0.0893
  706MOL0     H93127   5.984   6.693   2.062 -2.8952  0.9863 -0.7322
  706MOL0     H93128   6.135   6.535   2.131  0.6375  0.1824  3.8505
  706MOL0     H93129   5.961   6.172   2.320 -0.8986  0.4112  1.7210
  706MOL0     H93130   6.013   6.250   2.466  3.9853  1.1654  1.2564
  706MOL0     H93131   6.262   6.198   2.380  0.3355 -1.5772  5.1800
  706MOL0     H93132   6.184   6.074   2.283  1.8272  2.8576 -2.2295
  706MOL0     H93133   6.085   5.975   2.480  0.5881 -1.8149  3.9090
  706MOL0     H93134   6.141   6.114   2.580 -1.6001 -0.0495  0.8616
  706MOL0     H93135   6.390   6.052   2.480  0.1866 -0.5604 -0.3158
  706MOL0     H93136   6.321   5.966   2.620 -2.6301 -2.0942 -0.4077
  706MOL0     H93137   6.353   5.882   2.332 -0.1869  2.2537  1.5633
  706MOL0     H93138   6.225   5.812   2.435 -1.6803  3.5388  3.6997
  706MOL0     H93139   6.414   5.663   2.441 -1.6146  0.3821 -1.0742
  706MOL0     H93140   6.394   5.730   2.598  0.1440 -0.3236  0.7039
  706MOL0     H93141   6.569   5.866   2.401 -1.7426 -0.2023 -1.6632
  706MOL0     H93142   6.573   5.864   2.586  3.2400 -2.2141 -0.5223
  706MOL0     H93143   6.637   5.630   2.402 -0.5523 -0.2961  0.7556
  706MOL0     H93144   6.635   5.621   2.578 -2.5515 -0.8063 -1.4051
  706MOL0     H93145   6.815   5.874   2.649 -4.3040 -1.0528 -2.1904
  706MOL0     H93146   7.156   5.839   2.629  1.3258  1.9880  2.6039
  706MOL0     H93147   7.037   5.976   2.659 -3.5822  0.2468 -2.4209
  706MOL0     H93148   7.166   5.952   2.382  0.4484  1.9960 -0.3882
  706MOL0     H93149   7.270   5.989   2.513 -0.4688 -1.2909  0.6744
  706MOL0     H93150   7.168   6.206   2.546  2.5160 -0.2864 -0.5371
  706MOL0     H93151   7.187   6.168   2.372 -0.4474  1.9021  0.2966
  706MOL0     H93152   6.969   6.283   2.408 -5.5617  0.0567 -1.0156
  706MOL0     H93153   6.931   6.170   2.536  0.5783 -0.7124  0.3933
  706MOL0     H93154   6.831   5.914   2.179  0.7628  1.1039  0.3413
  706MOL0     H93155   6.604   5.926   2.077  0.3987  0.4862  0.6234
  706MOL0     H93156   6.157   6.133   2.007 -1.7888  0.2494  0.9507
  706MOL0     H93157   5.978   6.209   1.833 -0.1239  0.8117 -0.6004
  706MOL0     H93158   5.917   6.503   1.517 -1.3277 -0.0739  0.2641
  706MOL0     H93159   6.080   6.545   1.587  2.1606 -2.5703  2.3760
  706MOL0     H93160   5.883   6.672   1.678 -0.1580  1.5598  1.9635
  706MOL0     H93161   5.989   6.574   1.801  0.0282  0.5605 -1.0726
  706MOL0     H93162   5.754   6.568   1.863 -0.9519  2.6414 -1.2793
  706MOL0     H93163   5.827   6.411   1.813  1.2514  0.1698 -0.2725
  706MOL0     H93164   5.693   6.464   1.587 -1.0421 -0.6707 -0.0028
  706MOL0     H93165   5.594   6.424   1.720 -1.0638  0.3957 -0.4844
  706MOL0     H93166   5.658   6.706   1.617 -0.8749 -1.3637 -4.1799
  706MOL0     H93167   5.586   6.672   1.773 -2.7910 -2.4563  0.3248
  706MOL0     H93168   5.386   6.560   1.674  1.5681 -2.5034  0.2664
  706MOL0     H93169   5.447   6.542   1.520 -0.6123 -1.8740  1.2729
  706MOL0     H93170   5.480   6.809   1.520 -0.8962 -1.2973 -3.3515
  706MOL0     H93171   5.324   6.730   1.484 -0.4943 -2.3884  1.4133
  706MOL0     H93172   5.392   6.816   1.772  0.5006 -1.2873  0.1009
  706MOL0     H93173   5.233   6.759   1.701 -0.9514  1.2761 -2.8012
  706MOL0     H93174   6.222   6.490   1.688 -0.8218  0.3933  0.9639
  706MOL0     H93175   6.414   6.449   1.874  0.3057 -0.6551 -3.5119
  706MOL0     H93176   6.559   6.315   2.237 -0.7361  0.1955 -0.2005
  706MOL0     H93177   6.783   6.296   2.343  0.0722  0.0372 -0.7683
  706MOL0     H93178   5.838   6.364   2.386 -0.5705 -0.8769 -2.2752
  706MOL0     H93179   5.671   6.488   2.289  0.2194 -4.0153  0.0595
  706MOL0     H93180   5.526   6.881   2.242 -1.3960 -0.3115  1.6773
  706MOL0     H93181   5.337   7.051   2.212  1.2336 -1.8156  2.5369
  706MOL0     H93182   5.190   7.359   1.915 -1.1000 -1.9915 -3.0939
  706MOL0     H93183   5.309   7.268   1.821  0.6946 -3.8440  1.5151
  706MOL0     H93184   5.380   7.467   2.052 -0.6208 -0.5121  0.1069
  706MOL0     H93185   5.486   7.419   1.925  0.3197  0.9854  0.2151
  706MOL0     H93186   5.254   7.616   1.918  1.0211  2.8687 -0.9687
  706MOL0     H93187   5.278   7.520   1.784 -1.0802 -1.2420  1.5306
  706MOL0     H93188   5.532   7.667   1.880  0.6154 -5.2314  0.1506
  706MOL0     H93189   5.476   7.596   1.725 -2.0394  1.1917 -2.6643
  706MOL0     H93190   5.273   7.966   1.702  1.7261  1.7520  0.4884
  706MOL0     H93191   5.518   7.184   1.849  0.6034 -0.7222 -1.9014
  706MOL0     H93192   5.671   7.007   1.845 -0.1613  4.1065 -0.4190
  707MOL0     O93193   9.543   3.665  11.198  0.1042 -0.4529  0.0730
  707MOL0     C93194   9.616   3.607  11.277  0.4166 -0.3294 -0.5556
  707MOL0     O93195   9.578   3.491  11.344  0.5257 -0.5155 -0.9534
  707MOL0     C93196   9.451   3.455  11.334 -0.5666  1.3658 -0.0053
  707MOL0     C93197   9.401   3.385  11.221  0.3861 -0.1990  0.6641
  707MOL0     C93198   9.261   3.340  11.224 -1.3481  0.2392 -0.6635
  707MOL0     C93199   9.195   3.327  11.339 -0.1009 -0.6451 -0.6286
  707MOL0     O93200   9.071   3.261  11.331 -0.2634 -0.0278 -0.0574
  707MOL0     C93201   9.042   3.166  11.435  0.0001 -0.6001 -0.4205
  707MOL0     C93202   8.898   3.177  11.476  0.9364  0.0904  0.6066
  707MOL0     C93203   8.804   3.115  11.375  0.6195  0.2022  0.0846
  707MOL0     C93204   8.657   3.149  11.422 -0.1445  0.2913 -0.3199
  707MOL0     C93205   8.543   3.086  11.331 -0.1548 -0.3321 -0.3596
  707MOL0     C93206   8.550   2.931  11.348 -0.2282  0.5900  0.3393
  707MOL0     C93207   8.471   2.863  11.239 -0.2391 -0.3251  0.0469
  707MOL0     C93208   8.315   2.873  11.239  0.7738 -0.0673  0.6311
  707MOL0     N93209   8.271   2.853  11.096 -0.0287 -0.6256  0.1748
  707MOL0     C93210   8.231   2.730  11.048 -0.6432 -0.0870  0.5697
  707MOL0     C93211   8.207   2.740  10.918 -0.6397 -0.9276 -0.0053
  707MOL0     C93212   8.184   2.629  10.823  0.5295 -0.3796 -1.1248
  707MOL0     C93213   8.038   2.587  10.794 -0.7038  1.0534  0.4687
  707MOL0     C93214   8.049   2.496  10.666 -0.3244 -0.3360  0.3367
  707MOL0     C93215   7.900   2.457  10.626 -0.8354  0.4555  0.0579
  707MOL0     O93216   7.906   2.325  10.558  0.5335  0.1537 -1.3363
  707MOL0     C93217   7.787   2.254  10.557  0.2745  0.5364 -0.3117
  707MOL0     C93218   7.660   2.307  10.575 -0.5683  0.2343  0.1437
  707MOL0     C93219   7.546   2.220  10.576 -0.3303 -0.0412 -0.7001
  707MOL0     C93220   7.562   2.090  10.557 -0.1526 -0.6908 -0.7054
  707MOL0     C93221   7.443   2.003  10.527  0.7408 -0.2856  0.0357
  707MOL0     O93222   7.466   1.872  10.536 -0.1815 -0.4462  0.4282
  707MOL0     C93223   7.371   1.780  10.490  0.1616 -0.2104 -0.9408
  707MOL0     C93224   7.237   1.792  10.534 -0.6679 -0.3878 -0.5071
  707MOL0     C93225   7.137   1.708  10.490  0.9287  0.0531 -0.6251
  707MOL0     C93226   7.174   1.605  10.404 -0.2293 -0.5760 -0.2030
  707MOL0     O93227   7.084   1.520  10.343 -0.1057 -0.0554  1.2717
  707MOL0     C93228   6.944   1.537  10.382  0.1900 -0.9611  0.6022
  707MOL0     C93229   6.861   1.441  10.292  0.8210 -0.3091  0.2992
  707MOL0     C93230   6.898   1.449  10.137  0.1392 -0.5098 -0.8304
  707MOL0     C93231   6.791   1.369  10.074  0.4159  0.4234  0.4769
  707MOL0     C93232   6.757   1.420   9.930 -0.4109 -0.2501  0.2377
  707MOL0     C93233   6.868   1.434   9.828 -0.7949 -0.6773 -0.4730
  707MOL0     C93234   6.960   1.316   9.794  0.5145  0.4302 -0.2524
  707MOL0     C93235   7.108   1.349   9.763 -1.3008 -0.4705 -0.6973
  707MOL0    Cl93236   7.109   1.452   9.615  0.3189  0.4089  0.2394
  707MOL0     C93237   7.310   1.583  10.364  0.2881 -0.8200  0.3253
  707MOL0     C93238   7.410   1.674  10.409  0.0775  0.1979  0.3388
  707MOL0     O93239   7.333   2.057  10.501  0.2220  0.1702  0.3473
  707MOL0     C93240   7.691   2.034  10.547 -0.4337 -0.9231  0.0128
  707MOL0     C93241   7.798   2.113  10.537 -0.0968 -0.0554 -1.0812
  707MOL0     N93242   8.228   2.874  10.885 -0.1784  0.0005  0.1179
  707MOL0     N93243   8.276   2.942  10.990  0.0035  0.6358  0.7267
  707MOL0     C93244   9.243   3.396  11.451  0.0035  0.1639 -0.8172
  707MOL0     C93245   9.365   3.463  11.451  0.8149 -0.0099 -0.7854
  707MOL0     C93246   9.755   3.646  11.310  0.3421 -0.2875  0.4801
  707MOL0     C93247   9.823   3.601  11.419  0.4023 -0.7144 -0.7396
  707MOL0     C93248   9.947   3.648  11.448  0.3972  1.1430 -0.2831
  707MOL0     C93249  10.020   3.719  11.353  0.0079 -0.4311  0.0679
  707MOL0     O93250  10.158   3.730  11.369  0.1756 -0.4706 -0.4313
  707MOL0     C93251  10.233   3.761  11.248 -0.0439  0.4262  0.4796
  707MOL0     C93252  10.383   3.737  11.285 -0.5297  1.2205 -0.3788
  707MOL0     C93253  10.426   3.595  11.316 -0.1267 -0.6884 -0.5394
  707MOL0     C93254  10.584   3.586  11.338 -0.1616 -0.3708 -0.3862
  707MOL0     C93255  10.639   3.454  11.373  1.3170 -0.4004 -0.1549
  707MOL0     C93256  10.664   3.338  11.395  0.3041  0.4412 -0.8545
  707MOL0     C93257   9.951   3.763  11.240 -0.1123 -0.3104  0.4028
  707MOL0     C93258   9.818   3.730  11.221  0.3394  0.3928  1.1920
  707MOL0     H93259   9.449   3.383  11.124  0.5195  0.1926  0.7201
  707MOL0     H93260   9.216   3.296  11.135  1.6132 -2.4535 -1.0124
  707MOL0     H93261   9.088   3.196  11.530 -3.4528  3.9001  0.1908
  707MOL0     H93262   9.085   3.074  11.394  5.3095  1.0515  0.6750
  707MOL0     H93263   8.864   3.281  11.487 -2.0443 -0.9031  1.5937
  707MOL0     H93264   8.889   3.120  11.569  1.4245 -3.4145 -1.3235
  707MOL0     H93265   8.818   3.007  11.373 -1.6151 -0.1479  0.7441
  707MOL0     H93266   8.820   3.140  11.270 -0.1736 -1.0451 -0.3503
  707MOL0     H93267   8.645   3.117  11.525  1.6479 -0.3668 -0.2841
  707MOL0     H93268   8.655   3.259  11.418  3.8371  0.5478  0.2734
  707MOL0     H93269   8.572   3.116  11.229  1.6811 -1.4422 -0.2149
  707MOL0     H93270   8.440   3.115  11.352 -0.9668 -3.4547  0.4244
  707MOL0     H93271   8.518   2.898  11.447 -0.5661  1.2056  0.4378
  707MOL0     H93272   8.656   2.903  11.338 -0.5130 -0.6143  0.4911
  707MOL0     H93273   8.501   2.912  11.146 -2.4790  0.9291 -0.0843
  707MOL0     H93274   8.505   2.759  11.243 -1.7635 -0.7979  1.9206
  707MOL0     H93275   8.288   2.976  11.266  0.9964  0.5556 -1.3822
  707MOL0     H93276   8.270   2.803  11.311  5.3332 -1.8415  2.1104
  707MOL0     H93277   8.226   2.645  11.115  1.5405  0.6473  1.7757
  707MOL0     H93278   8.222   2.530  10.849 -4.3476 -1.7089  2.2508
  707MOL0     H93279   8.226   2.663  10.727  0.0833  1.7470 -0.6243
  707MOL0     H93280   7.980   2.678  10.773 -3.7567 -0.5011  1.5433
  707MOL0     H93281   7.999   2.537  10.883 -2.0129  2.8565  0.9837
  707MOL0     H93282   8.095   2.561  10.591  0.8687  2.7392  3.4255
  707MOL0     H93283   8.111   2.410  10.694  0.3879  0.3240  0.8240
  707MOL0     H93284   7.878   2.542  10.559  0.7446  3.2521  2.8166
  707MOL0     H93285   7.835   2.457  10.713 -1.9924  0.7430 -0.7780
  707MOL0     H93286   7.641   2.412  10.596  1.9530  0.8802 -0.4804
  707MOL0     H93287   7.447   2.265  10.581  0.0080  0.8144 -1.3414
  707MOL0     H93288   7.214   1.871  10.604  0.8850 -1.4509  1.3049
  707MOL0     H93289   7.033   1.723  10.518  1.2379 -3.0648  2.9596
  707MOL0     H93290   6.906   1.637  10.359 -1.4948 -1.8298 -0.6423
  707MOL0     H93291   6.942   1.520  10.490 -1.1790  2.0042  1.1548
  707MOL0     H93292   6.755   1.463  10.309  0.2122 -1.9305 -1.1302
  707MOL0     H93293   6.878   1.340  10.329 -1.4012 -0.4999  0.9441
  707MOL0     H93294   6.997   1.403  10.126 -0.7174 -2.1475 -2.0825
  707MOL0     H93295   6.901   1.555  10.111  2.5365 -0.2224  0.3219
  707MOL0     H93296   6.826   1.266  10.067 -0.3525  0.0433  1.7653
  707MOL0     H93297   6.707   1.356  10.143  1.4394 -3.6389  1.2219
  707MOL0     H93298   6.716   1.517   9.956  0.7361 -0.4237  3.1025
  707MOL0     H93299   6.666   1.371   9.893 -0.3880 -0.7105  0.7716
  707MOL0     H93300   6.943   1.506   9.862  0.0697 -2.5386  1.7600
  707MOL0     H93301   6.819   1.484   9.744 -0.0523  2.5979  0.8829
  707MOL0     H93302   6.963   1.245   9.877  3.6611 -0.6767 -1.1557
  707MOL0     H93303   6.918   1.278   9.700 -0.2436  4.4685 -1.7265
  707MOL0     H93304   7.183   1.270   9.750  0.3317 -0.0485  4.1776
  707MOL0     H93305   7.151   1.403   9.848 -0.1537 -3.4583  0.7661
  707MOL0     H93306   7.333   1.506  10.291  1.6686 -0.5505  0.4499
  707MOL0     H93307   7.515   1.668  10.381 -0.3040  1.5753 -1.6042
  707MOL0     H93308   7.695   1.928  10.525 -1.9050 -0.6524 -1.8516
  707MOL0     H93309   7.896   2.074  10.512 -1.5722 -2.8183 -2.9967
  707MOL0     H93310   9.171   3.383  11.531  1.2345 -0.3631  0.2522
  707MOL0     H93311   9.403   3.509  11.542 -1.6243 -1.8684  1.2871
  707MOL0     H93312   9.773   3.525  11.478  1.8592  0.2140  1.8302
  707MOL0     H93313   9.994   3.606  11.536 -0.6754  1.0540  0.2624
  707MOL0     H93314  10.215   3.866  11.223  1.2555  0.3235 -1.0798
  707MOL0     H93315  10.200   3.704  11.161  1.4380 -0.3233  0.3848
  707MOL0     H93316  10.445   3.781  11.207  0.8039  2.0581  1.0931
  707MOL0     H93317  10.401   3.791  11.379  1.3692  1.1783 -0.6728
  707MOL0     H93318  10.397   3.527  11.235 -0.3179 -4.0413  2.1139
  707MOL0     H93319  10.372   3.577  11.409  0.6835  1.9065  0.5216
  707MOL0     H93320  10.629   3.613  11.242 -0.1357 -1.9667 -0.8522
  707MOL0     H93321  10.603   3.666  11.410  0.8746 -0.6167 -0.3751
  707MOL0     H93322  10.681   3.234  11.415 -0.6933  0.7313  2.1321
  707MOL0     H93323   9.999   3.817  11.159  0.4126  1.1820  1.6600
  707MOL0     H93324   9.777   3.781  11.135 -3.0435  0.8595  2.9133
  708MOL0     O93325   3.983   7.315  10.589 -0.3896 -0.0379  0.3254
  708MOL0     C93326   3.944   7.264  10.695  0.9620 -0.0023 -0.2669
  708MOL0     O93327   3.882   7.141  10.711 -0.1198 -0.1630  0.0067
  708MOL0     C93328   3.849   7.061  10.607 -0.7983 -0.8178 -0.1267
  708MOL0     C93329   3.817   7.108  10.481  0.1656 -0.4096  0.8216
  708MOL0     C93330   3.807   7.021  10.373 -0.5965 -0.0112  0.4768
  708MOL0     C93331   3.807   6.881  10.388 -1.3347 -0.0680 -0.4780
  708MOL0     O93332   3.815   6.795  10.281 -1.0147 -0.0086 -0.1865
  708MOL0     C93333   3.947   6.747  10.257 -0.3934  0.1032 -0.3218
  708MOL0     C93334   4.022   6.811  10.133  0.6767 -0.0767 -0.0262
  708MOL0     C93335   3.934   6.848  10.012 -0.7041  0.0780 -0.2146
  708MOL0     C93336   3.841   6.741   9.963  0.1588 -0.2896  0.6726
  708MOL0     C93337   3.782   6.759   9.822  0.1876 -0.4451 -0.2163
  708MOL0     C93338   3.729   6.906   9.813 -0.1635 -0.1830  1.2417
  708MOL0     C93339   3.639   6.923   9.685 -0.0595 -0.3733 -0.8437
  708MOL0     C93340   3.528   7.033   9.695  0.0495  1.2122  0.3198
  708MOL0     N93341   3.435   7.062   9.574  0.0588 -0.0643 -0.2881
  708MOL0     C93342   3.310   7.114   9.586  0.7159 -0.4231 -1.0803
  708MOL0     C93343   3.286   7.166   9.463 -0.3047 -0.1967  0.2348
  708MOL0     C93344   3.153   7.217   9.412 -0.5011  0.9968 -0.0698
  708MOL0     C93345   3.188   7.353   9.363 -0.5120  0.0159 -0.6572
  708MOL0     C93346   3.065   7.407   9.299  0.0917  0.7668  1.0283
  708MOL0     C93347   3.093   7.541   9.226  0.2677  1.0196  0.5822
  708MOL0     O93348   3.099   7.654   9.302  0.1984  0.0912  0.1593
  708MOL0     C93349   3.112   7.773   9.232 -0.3835 -0.6902  0.7212
  708MOL0     C93350   3.206   7.872   9.276 -0.0276 -0.1092  0.0381
  708MOL0     C93351   3.211   8.004   9.225 -0.5891  0.3468 -0.2504
  708MOL0     C93352   3.117   8.046   9.136  1.0122  0.6248  0.1727
  708MOL0     C93353   3.119   8.187   9.087 -0.4424 -0.3603 -0.3183
  708MOL0     O93354   3.017   8.231   9.004 -0.2730  1.0525  0.1357
  708MOL0     C93355   2.999   8.365   8.969  0.3869 -0.0218  0.0401
  708MOL0     C93356   3.057   8.481   9.028  0.3205 -0.1403 -0.4725
  708MOL0     C93357   3.027   8.607   8.983  0.8996  0.4608 -0.0243
  708MOL0     C93358   2.970   8.626   8.858  1.2382  0.3749 -1.0593
  708MOL0     O93359   2.925   8.754   8.820  0.2560  0.0475 -0.0365
  708MOL0     C93360   3.012   8.867   8.859 -0.7106 -0.0443  0.1686
  708MOL0     C93361   3.124   8.844   8.749 -0.0857 -0.1130  0.9132
  708MOL0     C93362   3.189   8.971   8.705  0.6377  0.2936 -0.0613
  708MOL0     C93363   3.251   9.062   8.819  0.2180  0.5758 -0.1498
  708MOL0     C93364   3.313   9.198   8.786 -0.0105 -0.6680  0.5498
  708MOL0     C93365   3.451   9.195   8.710 -0.1102  0.7324  0.4059
  708MOL0     C93366   3.506   9.325   8.675 -0.5022  0.0286  0.6510
  708MOL0     C93367   3.531   9.421   8.794  0.3894 -0.1709 -0.9792
  708MOL0    Cl93368   3.590   9.587   8.726  0.1080 -0.2003 -0.0041
  708MOL0     C93369   2.907   8.514   8.802  0.7330 -2.0349 -0.4538
  708MOL0     C93370   2.920   8.385   8.859 -0.7813 -0.0614  0.9453
  708MOL0     O93371   3.204   8.264   9.141  0.1597 -0.6252  0.0119
  708MOL0     C93372   3.030   7.953   9.076 -0.2894 -0.4112 -0.1043
  708MOL0     C93373   3.025   7.819   9.123 -0.0939 -0.1455  0.0046
  708MOL0     N93374   3.402   7.142   9.383  0.0801  0.1439  0.3674
  708MOL0     N93375   3.479   7.082   9.449 -0.5033 -0.0003 -0.0336
  708MOL0     C93376   3.825   6.833  10.519  0.6374 -0.2741 -0.5146
  708MOL0     C93377   3.838   6.929  10.629 -0.0050 -0.6865  0.2899
  708MOL0     C93378   3.971   7.338  10.825 -0.1511  0.0983 -0.4188
  708MOL0     C93379   4.052   7.455  10.819  0.6984  0.2441  0.5614
  708MOL0     C93380   4.089   7.524  10.939 -0.3220  1.5951  1.0970
  708MOL0     C93381   4.055   7.474  11.060  0.1016  0.0430  0.1415
  708MOL0     O93382   4.117   7.525  11.169 -0.2858  0.0497 -0.0012
  708MOL0     C93383   4.034   7.625  11.227  0.1221  0.6375  0.2438
  708MOL0     C93384   3.955   7.577  11.355  0.2804 -0.4381 -0.1822
  708MOL0     C93385   4.033   7.512  11.471 -0.2455  0.7784  0.6112
  708MOL0     C93386   3.965   7.442  11.589  0.4755 -0.6537  1.1190
  708MOL0     C93387   3.971   7.517  11.707 -1.1108 -0.3118 -0.2295
  708MOL0     C93388   3.985   7.588  11.801  0.0786 -0.1566  0.2600
  708MOL0     C93389   3.992   7.353  11.068 -0.4559 -0.2160 -0.0774
  708MOL0     C93390   3.948   7.286  10.956  0.4079  0.1242 -0.1903
  708MOL0     H93391   3.796   7.212  10.456  0.5117 -0.3253  0.8802
  708MOL0     H93392   3.791   7.051  10.270 -0.8344 -1.7089 -0.0041
  708MOL0     H93393   3.932   6.644  10.225 -0.7702 -0.3096  1.0891
  708MOL0     H93394   4.009   6.751  10.347 -0.3828 -0.0329 -0.3231
  708MOL0     H93395   4.096   6.739  10.098  0.4710  0.3812 -1.4820
  708MOL0     H93396   4.072   6.903  10.162 -0.5650  1.1255 -1.5019
  708MOL0     H93397   4.002   6.881   9.933  0.5820 -1.3992  0.2247
  708MOL0     H93398   3.871   6.929  10.051 -2.4359 -0.1408 -2.3987
  708MOL0     H93399   3.881   6.640   9.974 -1.6061 -0.9661  1.2389
  708MOL0     H93400   3.753   6.730  10.027 -1.8590  0.7708 -1.7592
  708MOL0     H93401   3.706   6.683   9.802  0.2684 -0.3980 -0.7129
  708MOL0     H93402   3.860   6.744   9.747 -1.0330 -2.1989 -1.2097
  708MOL0     H93403   3.810   6.980   9.818  0.7582 -1.1399  0.8997
  708MOL0     H93404   3.668   6.928   9.901 -2.6077 -0.8243 -0.2046
  708MOL0     H93405   3.694   6.944   9.593  0.1748 -1.0241 -0.8610
  708MOL0     H93406   3.596   6.823   9.672  0.7925 -0.7335 -0.9804
  708MOL0     H93407   3.585   7.125   9.707 -0.5776  1.6332  0.1237
  708MOL0     H93408   3.475   7.026   9.791  0.6897  0.3411  0.6220
  708MOL0     H93409   3.249   7.126   9.675 -1.6936 -0.0708 -2.6954
  708MOL0     H93410   3.084   7.213   9.498  2.0613  2.2396  2.2022
  708MOL0     H93411   3.129   7.151   9.328  2.4217 -0.5146  0.1498
  708MOL0     H93412   3.281   7.355   9.306  0.0376  2.4441  0.2179
  708MOL0     H93413   3.214   7.413   9.450  0.2726 -1.8674  0.4620
  708MOL0     H93414   3.028   7.328   9.233  0.8146  1.3591 -0.1413
  708MOL0     H93415   2.985   7.406   9.373 -0.3823 -3.4097  0.6524
  708MOL0     H93416   3.015   7.544   9.149  1.7502  0.9333 -0.9829
  708MOL0     H93417   3.190   7.537   9.174  0.2592 -5.3478  0.2545
  708MOL0     H93418   3.270   7.836   9.356 -2.1805  1.0272  2.3974
  708MOL0     H93419   3.282   8.071   9.274 -3.7556  2.4104  1.8860
  708MOL0     H93420   3.129   8.480   9.108  1.3927  0.1007 -1.4132
  708MOL0     H93421   3.067   8.690   9.041  1.7237 -1.2507  1.9769
  708MOL0     H93422   3.058   8.858   8.958  2.9030 -0.4301 -1.3603
  708MOL0     H93423   2.971   8.967   8.849  2.4991  1.5370  1.3556
  708MOL0     H93424   3.083   8.792   8.662 -1.2882  1.2081  0.6477
  708MOL0     H93425   3.204   8.773   8.774 -0.9381 -0.8877  1.4893
  708MOL0     H93426   3.114   9.029   8.650  1.6171  0.9879 -0.6970
  708MOL0     H93427   3.268   8.946   8.634 -1.4572  2.8367 -3.6029
  708MOL0     H93428   3.177   9.076   8.898  1.5387  1.1513  1.0170
  708MOL0     H93429   3.323   9.001   8.873 -0.5847 -1.2483 -1.0436
  708MOL0     H93430   3.333   9.246   8.882  2.8054  2.9683 -1.6099
  708MOL0     H93431   3.237   9.260   8.737  3.4475  2.1293 -1.7883
  708MOL0     H93432   3.444   9.131   8.621 -1.2344  0.9363  0.3329
  708MOL0     H93433   3.528   9.153   8.775  0.7392  0.9963 -0.4143
  708MOL0     H93434   3.595   9.323   8.612 -2.3640 -3.0252 -2.1861
  708MOL0     H93435   3.421   9.370   8.624 -1.2650 -0.8132  1.1521
  708MOL0     H93436   3.606   9.385   8.866  0.3101  0.1551 -0.7305
  708MOL0     H93437   3.445   9.433   8.860  0.1964 -1.7019 -0.9144
  708MOL0     H93438   2.843   8.537   8.717  1.4228  2.1232 -0.0675
  708MOL0     H93439   2.880   8.293   8.817 -0.0344 -0.6168  1.4438
  708MOL0     H93440   2.968   7.989   8.995  1.4567  2.2951 -0.3821
  708MOL0     H93441   2.954   7.752   9.075  0.6310  0.5302 -2.1251
  708MOL0     H93442   3.832   6.728  10.542 -0.7066 -0.6466 -1.6549
  708MOL0     H93443   3.854   6.894  10.730  2.3056 -3.2947 -0.8159
  708MOL0     H93444   4.096   7.494  10.727  1.8185 -2.3650 -0.0835
  708MOL0     H93445   4.170   7.597  10.940 -0.5033  1.9099  4.7612
  708MOL0     H93446   3.967   7.661  11.148 -1.7466 -0.3780  1.2780
  708MOL0     H93447   4.102   7.703  11.262  3.1820 -1.5681 -0.4262
  708MOL0     H93448   3.884   7.653  11.390 -0.6815 -0.8261 -1.2471
  708MOL0     H93449   3.893   7.499  11.310 -0.7261  0.8307 -1.0825
  708MOL0     H93450   4.092   7.588  11.523 -0.3901 -1.2462  4.0626
  708MOL0     H93451   4.105   7.440  11.431 -1.0559  0.0601  0.3966
  708MOL0     H93452   3.863   7.420  11.556  0.1094 -0.8384  2.3250
  708MOL0     H93453   4.018   7.349  11.607 -0.2152 -1.3994 -0.4589
  708MOL0     H93454   3.985   7.647  11.891 -1.7303  0.7200 -0.2706
  708MOL0     H93455   3.983   7.314  11.169  0.8026 -1.4903 -0.4245
  708MOL0     H93456   3.898   7.190  10.959 -1.7953  1.2150  3.0607
  709MOL0     O93457   3.366   9.473   6.090 -0.1916 -0.3130  0.3497
  709MOL0     C93458   3.443   9.388   6.131  0.2312 -0.0868  0.3446
  709MOL0     O93459   3.402   9.287   6.213  0.6642  0.6539 -0.3254
  709MOL0     C93460   3.278   9.277   6.253 -0.6184 -0.1086  0.0460
  709MOL0     C93461   3.173   9.203   6.179 -0.0333 -0.0211 -0.3740
  709MOL0     C93462   3.043   9.187   6.232  0.2692 -0.1732  0.5244
  709MOL0     C93463   3.007   9.253   6.355 -0.3451  0.2512 -0.2966
  709MOL0     O93464   2.877   9.239   6.400  0.5766 -0.3418 -0.3548
  709MOL0     C93465   2.843   9.327   6.519  0.1838 -0.3881  0.2080
  709MOL0     C93466   2.697   9.333   6.546  0.3098 -0.1457  0.6510
  709MOL0     C93467   2.609   9.210   6.514  0.5584  0.5317 -1.0073
  709MOL0     C93468   2.468   9.234   6.546  0.1662  0.1745 -0.2890
  709MOL0     C93469   2.378   9.119   6.518  0.6962 -0.3311  0.5657
  709MOL0     C93470   2.382   9.015   6.625 -0.4713  0.6285 -0.3311
  709MOL0     C93471   2.285   8.901   6.598 -0.8394 -0.3364  0.5446
  709MOL0     C93472   2.139   8.942   6.567 -0.8435  1.0257  0.1576
  709MOL0     N93473   2.051   8.823   6.576 -0.9626  0.3293  0.3464
  709MOL0     C93474   1.984   8.783   6.693 -0.3185 -0.8653  0.3171
  709MOL0     C93475   1.898   8.681   6.652  0.0986 -0.2696  1.0686
  709MOL0     C93476   1.822   8.583   6.744 -0.7118 -0.5861  0.2940
  709MOL0     C93477   1.794   8.454   6.670 -0.0618  0.4908 -0.0649
  709MOL0     C93478   1.719   8.348   6.758  0.2860  0.0646  0.3022
  709MOL0     C93479   1.650   8.242   6.666 -0.4996 -0.0321  0.0254
  709MOL0     O93480   1.507   8.256   6.634 -0.4820  0.5210 -0.2170
  709MOL0     C93481   1.454   8.170   6.542 -0.1193  0.3373 -0.7779
  709MOL0     C93482   1.315   8.170   6.524 -0.2763 -0.7865  0.4685
  709MOL0     C93483   1.235   8.081   6.448  0.8192  0.2220 -0.6541
  709MOL0     C93484   1.301   7.989   6.373 -0.8187  0.9423  0.5848
  709MOL0     C93485   1.224   7.902   6.284 -0.8685  0.0777 -0.1655
  709MOL0     O93486   1.105   7.874   6.321 -0.4183  0.1797  0.6828
  709MOL0     C93487   1.016   7.822   6.228 -0.3191  0.7818 -0.0750
  709MOL0     C93488   0.980   7.883   6.103  0.0217  0.2387 -0.4153
  709MOL0     C93489   0.894   7.814   6.007 -0.2718 -0.5718 -0.8310
  709MOL0     C93490   0.838   7.687   6.044 -0.5671  0.0108  0.0825
  709MOL0     O93491   0.743   7.635   5.960  0.1548 -0.0228  0.4679
  709MOL0     C93492   0.691   7.501   5.986  0.4510  0.1854  1.1805
  709MOL0     C93493   0.572   7.495   6.076 -0.8258  0.5475  0.8029
  709MOL0     C93494   0.474   7.601   6.042  0.4359 -1.1071 -0.2751
  709MOL0     C93495   0.433   7.618   5.889  0.5874 -0.3954 -0.3746
  709MOL0     C93496   0.379   7.484   5.830 -0.6124  0.7359 -0.3191
  709MOL0     C93497   0.302   7.502   5.701  0.2412 -0.5081 -0.7939
  709MOL0     C93498   0.165   7.422   5.705  0.0632 -0.4502  0.3353
  709MOL0     C93499   0.114   7.420   5.567  0.0159 -0.6086 -0.5577
  709MOL0    Cl93500  -0.014   7.305   5.576  0.2672  0.4815  0.1598
  709MOL0     C93501   0.874   7.635   6.168 -0.2757  0.1102 -0.5414
  709MOL0     C93502   0.963   7.700   6.262 -0.9031  0.1297 -0.2354
  709MOL0     O93503   1.274   7.873   6.172  0.4337  0.1567 -0.5023
  709MOL0     C93504   1.442   7.991   6.369  0.3887 -0.1630 -0.4820
  709MOL0     C93505   1.517   8.080   6.452 -0.1624 -0.4491  0.5815
  709MOL0     N93506   1.925   8.656   6.515  0.3831 -0.1106 -0.2621
  709MOL0     N93507   2.010   8.746   6.474 -0.2513  0.0450 -0.3506
  709MOL0     C93508   3.105   9.326   6.419  0.1451 -0.0973 -1.2623
  709MOL0     C93509   3.239   9.330   6.372  0.8147  0.3850 -0.6793
  709MOL0     C93510   3.585   9.396   6.075  0.4821  0.7505  0.3496
  709MOL0     C93511   3.678   9.293   6.098 -0.0240 -0.6622  0.0383
  709MOL0     C93512   3.804   9.303   6.036 -0.4473 -0.1549  0.3198
  709MOL0     C93513   3.844   9.406   5.963 -0.0908 -0.5619  0.5670
  709MOL0     O93514   3.961   9.396   5.890 -0.1535  0.1589  0.2920
  709MOL0     C93515   3.987   9.470   5.770 -0.0388 -0.1950 -0.0420
  709MOL0     C93516   3.895   9.404   5.658  0.8001 -0.6652 -0.1897
  709MOL0     C93517   3.909   9.485   5.524 -0.9322  0.5244  0.0734
  709MOL0     C93518   3.890   9.641   5.535 -0.0066 -0.0283  0.7398
  709MOL0     C93519   3.754   9.674   5.574  0.0117  0.7228 -0.4179
  709MOL0     C93520   3.636   9.700   5.596 -0.4925  0.4460 -0.3045
  709MOL0     C93521   3.759   9.511   5.949  0.1279  0.0767  0.0851
  709MOL0     C93522   3.628   9.511   5.999 -0.6095  0.0163 -0.1662
  709MOL0     H93523   3.191   9.143   6.091 -2.5219 -1.2456 -0.1410
  709MOL0     H93524   2.975   9.125   6.174  1.6382  1.6040 -3.3583
  709MOL0     H93525   2.872   9.430   6.499  0.7055 -0.8329 -1.4237
  709MOL0     H93526   2.886   9.295   6.615 -1.9101 -0.2200  1.2698
  709MOL0     H93527   2.655   9.420   6.495 -2.3240 -1.1316  0.9504
  709MOL0     H93528   2.690   9.339   6.655 -0.8790 -2.2834  0.7544
  709MOL0     H93529   2.644   9.129   6.579  0.5180  2.4792  1.5934
  709MOL0     H93530   2.612   9.173   6.411 -0.3763 -0.0133 -0.8485
  709MOL0     H93531   2.455   9.244   6.654  0.8297 -3.8442  0.3433
  709MOL0     H93532   2.416   9.317   6.497 -2.2520  0.0539  1.8637
  709MOL0     H93533   2.388   9.095   6.412 -3.3603  5.3330 -1.5777
  709MOL0     H93534   2.278   9.165   6.521 -0.6765 -2.5245 -3.6561
  709MOL0     H93535   2.368   9.060   6.724  4.3416  2.0563 -0.0358
  709MOL0     H93536   2.486   8.982   6.635  1.2129  5.4822  1.0285
  709MOL0     H93537   2.319   8.848   6.508 -1.0737  2.0116 -1.0439
  709MOL0     H93538   2.293   8.828   6.678  2.5146  0.5233  1.1224
  709MOL0     H93539   2.129   8.972   6.462  1.2614 -4.8366 -2.1156
  709MOL0     H93540   2.105   9.018   6.638  0.8836  0.3243  1.8207
  709MOL0     H93541   1.995   8.820   6.794  3.3209 -2.6489  0.7379
  709MOL0     H93542   1.737   8.638   6.783  2.0338  2.1025  3.0305
  709MOL0     H93543   1.886   8.563   6.831  0.5595  0.8130 -0.2601
  709MOL0     H93544   1.888   8.416   6.630 -0.3262  0.3461 -0.5534
  709MOL0     H93545   1.741   8.472   6.576 -2.7670 -3.0990  0.5300
  709MOL0     H93546   1.793   8.307   6.827  0.3308  2.3060  1.6952
  709MOL0     H93547   1.646   8.404   6.816 -0.3306  1.7006 -1.8808
  709MOL0     H93548   1.664   8.143   6.711  0.6540 -0.2356 -0.7266
  709MOL0     H93549   1.717   8.235   6.579  0.6033  2.0429  0.6377
  709MOL0     H93550   1.267   8.239   6.593  2.6976 -0.4055  2.3403
  709MOL0     H93551   1.127   8.087   6.444  0.6170 -1.7555  0.5273
  709MOL0     H93552   1.035   7.974   6.084  2.7222 -0.0960  4.2700
  709MOL0     H93553   0.866   7.856   5.911 -1.0912  5.3565  1.5568
  709MOL0     H93554   0.768   7.435   6.026  0.5894  0.1938  0.9313
  709MOL0     H93555   0.660   7.455   5.892  0.3999 -0.9114  1.7217
  709MOL0     H93556   0.612   7.507   6.177  0.1950  3.9229  0.1292
  709MOL0     H93557   0.517   7.401   6.062 -1.6420  0.8299  2.0094
  709MOL0     H93558   0.524   7.694   6.071  0.5350 -1.5939  1.2069
  709MOL0     H93559   0.384   7.579   6.100  0.6600 -2.1536 -0.2930
  709MOL0     H93560   0.357   7.696   5.891  0.7239 -0.2623  1.6897
  709MOL0     H93561   0.520   7.658   5.836  0.6641  0.2014  0.1848
  709MOL0     H93562   0.319   7.432   5.906 -1.0950  1.2009 -0.3720
  709MOL0     H93563   0.458   7.413   5.804 -1.0188  0.0326  0.3277
  709MOL0     H93564   0.372   7.471   5.622 -1.0241 -1.6177 -1.5298
  709MOL0     H93565   0.284   7.609   5.695 -1.8560 -0.8382 -0.8378
  709MOL0     H93566   0.172   7.316   5.732 -1.4639  0.2765  4.2321
  709MOL0     H93567   0.091   7.463   5.774  0.3329  0.0943  0.3065
  709MOL0     H93568   0.178   7.371   5.493  1.3302  2.5062 -1.6745
  709MOL0     H93569   0.088   7.519   5.529  2.6200  1.2215  2.0422
  709MOL0     H93570   0.832   7.540   6.198 -1.4093  1.1067  1.1955
  709MOL0     H93571   0.982   7.647   6.355 -0.9777 -2.6970 -1.7099
  709MOL0     H93572   1.501   7.915   6.319 -0.2123 -2.2833  1.7933
  709MOL0     H93573   1.625   8.089   6.450 -0.2620  0.6963 -0.6879
  709MOL0     H93574   3.089   9.383   6.509  3.2832 -2.4246  0.9884
  709MOL0     H93575   3.312   9.382   6.433  0.7338 -1.9247  1.5444
  709MOL0     H93576   3.650   9.207   6.158 -5.9414  1.9579  1.7877
  709MOL0     H93577   3.866   9.213   6.040  0.6678  0.5892  0.2823
  709MOL0     H93578   4.093   9.449   5.755  0.9455  1.6787  3.2654
  709MOL0     H93579   3.978   9.577   5.792 -0.7400 -0.0296 -1.0571
  709MOL0     H93580   3.910   9.300   5.631 -2.4607 -0.9052 -1.5576
  709MOL0     H93581   3.791   9.407   5.694  1.5187 -3.0130  2.3254
  709MOL0     H93582   3.840   9.454   5.446 -1.6965  0.3489  0.8098
  709MOL0     H93583   4.007   9.465   5.481  1.1529  2.9772  3.1666
  709MOL0     H93584   3.967   9.691   5.594  2.2345 -1.2649 -0.9738
  709MOL0     H93585   3.900   9.683   5.434  0.6242  2.5673  1.7999
  709MOL0     H93586   3.534   9.724   5.617 -0.8060 -1.0923  0.0507
  709MOL0     H93587   3.799   9.592   5.889  0.8734 -1.3094 -1.3616
  709MOL0     H93588   3.560   9.595   5.984 -1.5679 -0.8866 -0.9967
  710MOL0     O93589   2.884   0.219   9.232  0.2242 -0.9067  0.6355
  710MOL0     C93590   2.970   0.129   9.213  0.4333  0.1710  0.2282
  710MOL0     O93591   3.014   0.038   9.304 -0.3039  0.2328 -0.3102
  710MOL0     C93592   2.976   0.042   9.441 -0.5377 -0.8298 -0.3645
  710MOL0     C93593   2.972  -0.087   9.508  0.2979  0.8774  0.3518
  710MOL0     C93594   2.965  -0.094   9.647  0.2145 -0.9260 -0.0719
  710MOL0     C93595   2.956   0.023   9.716  0.8393 -0.1726  0.2787
  710MOL0     O93596   2.954   0.027   9.846 -0.7830  0.1157 -0.6415
  710MOL0     C93597   2.994  -0.092   9.928  1.3626 -0.3964  0.1896
  710MOL0     C93598   3.030  -0.056  10.070 -1.0584  0.4228 -0.5362
  710MOL0     C93599   3.156   0.039  10.081  0.2663 -0.9402 -0.4566
  710MOL0     C93600   3.165   0.081  10.237  0.1572 -0.2303  0.3899
  710MOL0     C93601   3.286   0.162  10.255  0.3296  0.4988 -0.5037
  710MOL0     C93602   3.275   0.238  10.397 -1.0060  0.1358 -0.1708
  710MOL0     C93603   3.393   0.336  10.412  0.0732  0.1468 -0.0278
  710MOL0     C93604   3.398   0.439  10.290 -0.9765 -0.2320  0.6938
  710MOL0     N93605   3.485   0.553  10.306  0.3405 -0.3203  0.9373
  710MOL0     C93606   3.451   0.671  10.375 -0.3616  0.6155 -0.0234
  710MOL0     C93607   3.559   0.751  10.338 -0.0667  0.6206 -0.3202
  710MOL0     C93608   3.577   0.893  10.378 -0.6007 -0.2747 -0.4076
  710MOL0     C93609   3.436   0.968  10.410 -0.4704  0.3259  0.6492
  710MOL0     C93610   3.440   1.124  10.408  0.2510  0.4201 -0.4121
  710MOL0     C93611   3.318   1.185  10.462  0.8995 -0.1978  0.6993
  710MOL0     O93612   3.354   1.306  10.521  0.6102  0.2387  0.0202
  710MOL0     C93613   3.261   1.386  10.578 -0.1570 -0.6968 -0.7847
  710MOL0     C93614   3.144   1.339  10.643 -0.2620  0.6533 -0.1959
  710MOL0     C93615   3.051   1.428  10.697  0.1709 -0.7885 -0.2964
  710MOL0     C93616   3.072   1.568  10.690  0.6172 -0.1953 -0.5938
  710MOL0     C93617   2.964   1.667  10.725 -0.8243  0.6276 -0.3689
  710MOL0     O93618   2.843   1.642  10.677 -0.1488  0.2063 -0.3612
  710MOL0     C93619   2.728   1.713  10.709 -0.1604  0.0956 -0.2855
  710MOL0     C93620   2.606   1.645  10.702 -0.2667 -0.3046  0.7908
  710MOL0     C93621   2.491   1.707  10.749 -0.1226  0.3895 -0.2242
  710MOL0     C93622   2.484   1.833  10.792 -0.6591 -0.4532  0.7179
  710MOL0     O93623   2.365   1.898  10.816 -0.2407  0.7252  0.5014
  710MOL0     C93624   2.343   2.039  10.795  0.3574 -0.1723 -0.1418
  710MOL0     C93625   2.192   2.064  10.786  0.5904 -0.0401  1.3602
  710MOL0     C93626   2.159   2.217  10.784 -0.5949 -0.3271 -0.0531
  710MOL0     C93627   2.017   2.247  10.762  0.0150  0.3302 -0.1460
  710MOL0     C93628   2.005   2.404  10.759 -0.2141  0.7906  0.6400
  710MOL0     C93629   1.860   2.451  10.727  0.3151  0.5034 -0.0683
  710MOL0     C93630   1.846   2.607  10.718  0.2895  0.8381 -0.9189
  710MOL0     C93631   1.731   2.637  10.626  0.9970  0.0961  0.1954
  710MOL0    Cl93632   1.583   2.550  10.689 -0.0924 -0.2324 -0.3118
  710MOL0     C93633   2.596   1.909  10.773 -0.8837 -0.8018  0.1405
  710MOL0     C93634   2.717   1.847  10.746 -1.4130  0.5765 -0.4639
  710MOL0     O93635   2.997   1.751  10.807 -0.2584 -0.2392  0.2945
  710MOL0     C93636   3.187   1.613  10.626 -0.4076  0.3736 -0.6386
  710MOL0     C93637   3.287   1.530  10.579 -0.0570  1.0568 -0.2465
  710MOL0     N93638   3.651   0.682  10.258  0.4611 -0.3420  0.0794
  710MOL0     N93639   3.606   0.567  10.244  0.2850 -0.0446  0.3970
  710MOL0     C93640   2.962   0.150   9.650  0.4588 -0.0203  0.8983
  710MOL0     C93641   2.962   0.160   9.510  1.4029 -0.6306 -0.1034
  710MOL0     C93642   3.026   0.119   9.070 -0.5289  1.2180  0.3114
  710MOL0     C93643   3.158   0.058   9.057 -0.6929 -0.0879  0.5449
  710MOL0     C93644   3.225   0.047   8.942 -0.2855 -0.0188  0.1029
  710MOL0     C93645   3.167   0.098   8.823  1.0325 -1.1148 -0.6154
  710MOL0     O93646   3.241   0.086   8.707  0.3219 -0.4688 -0.6842
  710MOL0     C93647   3.201   0.156   8.595  0.9221 -1.4117  0.6839
  710MOL0     C93648   3.304   0.119   8.495  0.1124 -0.1088  0.9968
  710MOL0     C93649   3.282   0.184   8.360 -0.3044 -0.1458  0.1510
  710MOL0     C93650   3.392   0.146   8.250  0.6982  0.0942  0.3296
  710MOL0     C93651   3.498   0.255   8.257  0.2890  0.1001  0.0373
  710MOL0     C93652   3.587   0.337   8.271  0.0908 -0.3632 -0.1567
  710MOL0     C93653   3.038   0.167   8.836 -0.7139  0.2817  0.0190
  710MOL0     C93654   2.957   0.165   8.958 -0.9403 -0.4253 -0.3965
  710MOL0     H93655   2.991  -0.168   9.439 -0.6220  0.3075  0.7532
  710MOL0     H93656   2.975  -0.190   9.697  1.8436 -1.0247 -0.5262
  710MOL0     H93657   3.081  -0.141   9.884  1.1597 -1.0856  0.5392
  710MOL0     H93658   2.912  -0.163   9.941  1.5923 -0.8239 -0.5991
  710MOL0     H93659   3.056  -0.149  10.122 -0.3661  1.7890  1.7533
  710MOL0     H93660   2.950  -0.001  10.120 -4.2081 -5.3876  1.8365
  710MOL0     H93661   3.148   0.127  10.017 -0.7060  0.3108  1.3068
  710MOL0     H93662   3.254  -0.006  10.058  1.2514 -0.5302  2.4766
  710MOL0     H93663   3.080   0.143  10.265 -0.7377 -0.0387 -2.4252
  710MOL0     H93664   3.178  -0.008  10.299 -2.0622  0.6400  2.2456
  710MOL0     H93665   3.289   0.237  10.175  1.1778 -0.9880 -1.9297
  710MOL0     H93666   3.376   0.103  10.234 -0.3757 -1.1757  0.9865
  710MOL0     H93667   3.289   0.157  10.469  2.1064  0.5431 -0.2080
  710MOL0     H93668   3.178   0.281  10.425 -1.1577 -0.0400 -0.4215
  710MOL0     H93669   3.387   0.378  10.513  0.5348 -2.0821  0.9854
  710MOL0     H93670   3.491   0.287  10.410 -0.1585 -0.3255  0.0552
  710MOL0     H93671   3.302   0.487  10.267 -1.0425  0.1734  1.7351
  710MOL0     H93672   3.426   0.394  10.194 -1.3611 -2.5300  1.5828
  710MOL0     H93673   3.360   0.679  10.434 -0.6161  0.3289 -0.3666
  710MOL0     H93674   3.634   0.941  10.297 -1.0750  1.2933  0.1440
  710MOL0     H93675   3.637   0.906  10.469 -0.1656  2.3405 -0.9714
  710MOL0     H93676   3.401   0.934  10.508 -0.7687 -2.4870 -0.3565
  710MOL0     H93677   3.364   0.943  10.332  0.6496  1.4786 -0.8293
  710MOL0     H93678   3.517   1.151  10.481  0.5032 -0.7918 -0.1973
  710MOL0     H93679   3.454   1.160  10.306  1.4399 -3.8288 -1.9728
  710MOL0     H93680   3.262   1.123  10.533  0.2303 -0.6533 -0.1984
  710MOL0     H93681   3.246   1.192  10.380  1.2531 -1.6400  0.2326
  710MOL0     H93682   3.113   1.235  10.644  2.4306 -0.2553 -1.3095
  710MOL0     H93683   2.962   1.384  10.742 -0.8234  0.9786 -0.4519
  710MOL0     H93684   2.610   1.543  10.665  2.3552  0.6535 -1.9700
  710MOL0     H93685   2.402   1.645  10.748  0.6418 -0.7401  0.2050
  710MOL0     H93686   2.394   2.069  10.703  3.2667 -2.1626  0.6924
  710MOL0     H93687   2.378   2.103  10.876  1.2605 -0.0783 -0.5999
  710MOL0     H93688   2.138   2.013  10.865 -0.6144 -0.1647  0.4828
  710MOL0     H93689   2.166   2.023  10.687  0.0755  4.0271 -0.3978
  710MOL0     H93690   2.210   2.258  10.696 -0.2898  0.4826  0.4874
  710MOL0     H93691   2.207   2.254  10.875 -2.2361  2.5741 -0.2429
  710MOL0     H93692   1.988   2.202  10.667 -2.3584  1.4037 -0.0014
  710MOL0     H93693   1.947   2.217  10.840  2.5458 -1.8075  1.4816
  710MOL0     H93694   2.069   2.431  10.674  0.2430  3.1059  1.6407
  710MOL0     H93695   2.041   2.447  10.853  0.5534 -1.0336  1.2280
  710MOL0     H93696   1.793   2.410  10.803 -0.7399 -1.8241 -2.0979
  710MOL0     H93697   1.842   2.422  10.623  1.0107  1.2844 -0.4078
  710MOL0     H93698   1.835   2.647  10.819  0.2481  0.6466 -0.8470
  710MOL0     H93699   1.936   2.656  10.679  0.2752  0.4490 -1.4385
  710MOL0     H93700   1.750   2.605  10.523 -0.2358 -0.2054  0.0345
  710MOL0     H93701   1.730   2.744  10.643  0.1964  0.0501  0.4879
  710MOL0     H93702   2.595   2.012  10.807  0.1252 -1.6108  2.8414
  710MOL0     H93703   2.807   1.908  10.751 -0.6195 -0.6477  2.0191
  710MOL0     H93704   3.198   1.720  10.618 -0.2104  0.3150 -1.2167
  710MOL0     H93705   3.375   1.564  10.527 -0.7477 -0.5175 -2.6063
  710MOL0     H93706   2.967   0.240   9.710 -3.7045  2.0054 -1.3058
  710MOL0     H93707   2.962   0.260   9.469  2.8161 -0.0596  1.2177
  710MOL0     H93708   3.211   0.020   9.143 -0.0190 -3.1209 -1.1043
  710MOL0     H93709   3.327   0.010   8.939 -0.5846 -0.8349 -0.2705
  710MOL0     H93710   3.196   0.263   8.617  2.2394 -1.3330  0.6648
  710MOL0     H93711   3.109   0.114   8.551 -0.1816  0.2190  1.3524
  710MOL0     H93712   3.400   0.159   8.529 -0.1360  2.0052 -0.5844
  710MOL0     H93713   3.316   0.010   8.497  3.8700  0.1821  2.2080
  710MOL0     H93714   3.265   0.291   8.373 -1.1235 -0.0992 -1.1577
  710MOL0     H93715   3.186   0.144   8.326 -0.0933  0.7494 -1.5940
  710MOL0     H93716   3.438   0.051   8.278 -1.6756 -1.3633 -0.4152
  710MOL0     H93717   3.347   0.141   8.151  1.6596  2.0264 -0.2607
  710MOL0     H93718   3.673   0.400   8.274 -0.7474  0.9893 -2.0736
  710MOL0     H93719   3.009   0.233   8.755 -0.1076 -1.9927 -2.1586
  710MOL0     H93720   2.860   0.213   8.967 -2.2932 -2.7831 -1.5042
  711MOL0     O93721  11.081   9.973   8.028  0.7866  0.4580 -0.8954
  711MOL0     C93722  11.152   9.886   7.976  0.2279 -0.3417  0.3366
  711MOL0     O93723  11.106   9.765   7.932 -0.3525 -0.2059  0.1679
  711MOL0     C93724  10.976   9.736   7.903  0.2884  0.4822  0.7108
  711MOL0     C93725  10.964   9.600   7.867 -0.1546 -0.6269 -0.0488
  711MOL0     C93726  10.829   9.546   7.850 -0.0229 -0.1253 -0.2657
  711MOL0     C93727  10.714   9.630   7.867  0.2577  0.0955 -0.2000
  711MOL0     O93728  10.592   9.567   7.847 -0.3594  0.4322  0.7917
  711MOL0     C93729  10.472   9.640   7.819  0.3386  0.4905 -0.5060
  711MOL0     C93730  10.389   9.654   7.947  1.1077  0.5503 -0.4180
  711MOL0     C93731  10.234   9.626   7.922 -0.1493  0.6418 -0.4095
  711MOL0     C93732  10.196   9.491   7.898 -0.5073  1.0084 -0.0427
  711MOL0     C93733  10.041   9.485   7.874 -0.5517  0.6056  0.6465
  711MOL0     C93734   9.944   9.515   7.986  0.5294  0.2257 -0.4001
  711MOL0     C93735   9.962   9.446   8.125 -0.0055  0.0754  0.0181
  711MOL0     C93736   9.884   9.511   8.240 -0.6647 -0.1347  0.5132
  711MOL0     N93737   9.737   9.511   8.215 -0.3728  0.4140 -0.8393
  711MOL0     C93738   9.645   9.418   8.248 -0.7475  1.0949  0.3685
  711MOL0     C93739   9.533   9.458   8.197  1.7354  0.1977 -0.1956
  711MOL0     C93740   9.411   9.387   8.203  0.5391  0.0531  0.2036
  711MOL0     C93741   9.298   9.449   8.291 -0.2850  0.8394  0.3346
  711MOL0     C93742   9.183   9.342   8.321  0.4737 -0.0966  0.1293
  711MOL0     C93743   9.060   9.400   8.369  0.5318 -0.4463  0.3962
  711MOL0     O93744   8.996   9.453   8.257  0.3138  0.5589  0.5054
  711MOL0     C93745   8.885   9.534   8.263  0.2654  0.1877 -0.1708
  711MOL0     C93746   8.764   9.480   8.305 -0.2707 -0.5147  0.9791
  711MOL0     C93747   8.646   9.563   8.311  0.3310 -0.2597  0.4291
  711MOL0     C93748   8.650   9.706   8.276 -0.5080 -0.1000  0.5075
  711MOL0     C93749   8.537   9.796   8.273  0.2304  0.8922  0.2559
  711MOL0     O93750   8.548   9.926   8.293  0.2664 -1.3589  0.5829
  711MOL0     C93751   8.437  10.006   8.256  0.1661  0.1598 -0.4174
  711MOL0     C93752   8.436  10.064   8.128 -0.6484 -0.0366  0.1371
  711MOL0     C93753   8.331  10.142   8.094 -0.1367 -0.8161 -0.6527
  711MOL0     C93754   8.226  10.171   8.186 -0.7278  0.2206 -0.0984
  711MOL0     O93755   8.111  10.245   8.171 -0.2528 -0.4492 -0.0579
  711MOL0     C93756   8.107  10.340   8.064  0.4962 -0.1952  0.0378
  711MOL0     C93757   8.035  10.265   7.945 -0.1290  0.0171 -0.2225
  711MOL0     C93758   7.882  10.276   7.964 -0.6687  0.2415 -0.4764
  711MOL0     C93759   7.790  10.235   7.839 -0.9728 -0.2759 -0.9493
  711MOL0     C93760   7.653  10.212   7.894  0.2189  0.1583 -0.3033
  711MOL0     C93761   7.642  10.077   7.967 -0.2258  0.5207  0.1112
  711MOL0     C93762   7.496  10.035   7.999 -0.0623 -0.0805 -1.3123
  711MOL0     C93763   7.465   9.908   8.083 -1.5597  0.1841  0.3459
  711MOL0    Cl93764   7.505   9.752   7.992  0.0082 -0.1767  0.1218
  711MOL0     C93765   8.235  10.116   8.310 -0.7091  0.0916 -0.4377
  711MOL0     C93766   8.341  10.038   8.353  0.5817  0.1356  1.1066
  711MOL0     O93767   8.430   9.737   8.258 -0.0531 -0.5220  0.4883
  711MOL0     C93768   8.774   9.754   8.234  0.3142 -1.2483  0.2364
  711MOL0     C93769   8.891   9.672   8.238 -0.6099  0.2918  0.0049
  711MOL0     N93770   9.550   9.577   8.138 -0.2231  0.0355 -0.2229
  711MOL0     N93771   9.674   9.610   8.149 -0.5985 -0.5195 -0.0642
  711MOL0     C93772  10.733   9.764   7.888  0.3990 -0.2435 -0.3205
  711MOL0     C93773  10.856   9.821   7.903  0.3758  0.5099 -0.5220
  711MOL0     C93774  11.291   9.905   7.996  0.0308 -0.1798 -0.6805
  711MOL0     C93775  11.343  10.019   8.064  1.2051  0.2991  0.1793
  711MOL0     C93776  11.468  10.047   8.072 -0.9308 -0.1074  0.4750
  711MOL0     C93777  11.565   9.967   8.012 -0.0673 -0.5208  1.4622
  711MOL0     O93778  11.693  10.013   7.993 -0.2175  0.0641 -0.6172
  711MOL0     C93779  11.778   9.935   7.908 -0.5035  0.0180 -0.9451
  711MOL0     C93780  11.930   9.983   7.888  1.1100  0.6253  0.1791
  711MOL0     C93781  11.958  10.131   7.852  0.7170  0.4933  0.4722
  711MOL0     C93782  11.924  10.227   7.975  0.3391  0.5569  1.2107
  711MOL0     C93783  11.997  10.355   7.962  0.4846  0.3253 -0.2225
  711MOL0     C93784  12.046  10.466   7.934  0.1872  1.6346 -0.1531
  711MOL0     C93785  11.517   9.847   7.939  0.8534 -0.5396  0.8397
  711MOL0     C93786  11.380   9.818   7.933 -0.5886  1.4122 -0.3265
  711MOL0     H93787  11.055   9.541   7.871  0.8305  0.7353  4.9145
  711MOL0     H93788  10.804   9.441   7.838 -0.9292 -0.1147  1.2883
  711MOL0     H93789  10.408   9.586   7.749  2.3697 -0.3105 -1.8492
  711MOL0     H93790  10.506   9.740   7.791  1.7997 -0.4126 -2.2452
  711MOL0     H93791  10.398   9.758   7.981  0.8164  0.0309  1.3446
  711MOL0     H93792  10.425   9.585   8.023 -0.4785 -1.0279 -1.0301
  711MOL0     H93793  10.196   9.690   7.841  5.1493  1.8350 -2.4108
  711MOL0     H93794  10.187   9.653   8.017  2.1191 -1.6067  1.5016
  711MOL0     H93795  10.260   9.451   7.819  2.7854 -1.6290  3.5794
  711MOL0     H93796  10.236   9.436   7.984 -2.0001  1.0357  0.6958
  711MOL0     H93797  10.026   9.383   7.836  2.9424  0.2654 -0.1414
  711MOL0     H93798  10.016   9.547   7.787  0.1280 -1.2233 -0.9273
  711MOL0     H93799   9.841   9.493   7.956  0.4247  0.5183 -0.2597
  711MOL0     H93800   9.942   9.624   8.000 -0.8120  0.2390 -0.5680
  711MOL0     H93801   9.923   9.345   8.114  2.4078 -1.1123  1.5599
  711MOL0     H93802  10.066   9.439   8.156  0.5339  0.6285 -1.5456
  711MOL0     H93803   9.915   9.616   8.242  1.2429 -0.2147 -5.4948
  711MOL0     H93804   9.910   9.465   8.336 -2.9498  1.1055  1.8301
  711MOL0     H93805   9.658   9.319   8.291  0.7961  1.0076 -0.2541
  711MOL0     H93806   9.428   9.284   8.238 -1.7155  0.0006  1.3183
  711MOL0     H93807   9.392   9.375   8.096  1.9349 -1.0200  0.0412
  711MOL0     H93808   9.249   9.534   8.243 -1.8432 -0.7853 -1.1123
  711MOL0     H93809   9.342   9.490   8.382  2.1722  0.5346 -0.6316
  711MOL0     H93810   9.159   9.292   8.226  4.2153 -2.5234  0.2471
  711MOL0     H93811   9.219   9.263   8.387  0.6279 -1.8886 -1.9643
  711MOL0     H93812   9.061   9.480   8.444  2.4549  2.3626 -2.3557
  711MOL0     H93813   8.995   9.317   8.397 -1.9817  1.1710 -0.3672
  711MOL0     H93814   8.752   9.373   8.320 -1.6326 -0.8732 -1.9322
  711MOL0     H93815   8.558   9.511   8.348 -0.3918 -1.6913 -2.9654
  711MOL0     H93816   8.516  10.033   8.061 -1.7607  0.0283 -1.2961
  711MOL0     H93817   8.310  10.177   7.993 -4.0636 -0.8274 -0.0015
  711MOL0     H93818   8.201  10.378   8.025 -0.3849  1.5244 -0.4962
  711MOL0     H93819   8.043  10.416   8.109 -0.2278 -2.1193  2.5078
  711MOL0     H93820   8.074  10.164   7.934 -1.1079 -0.5174  0.9407
  711MOL0     H93821   8.065  10.325   7.859  1.2119  2.4141  1.7654
  711MOL0     H93822   7.862  10.382   7.987  0.5548 -0.2394  3.7295
  711MOL0     H93823   7.857  10.223   8.057 -0.2800 -0.0431 -0.5321
  711MOL0     H93824   7.788  10.315   7.765 -0.8551  3.3433  2.6044
  711MOL0     H93825   7.823  10.141   7.794  0.3430  0.1372 -0.9097
  711MOL0     H93826   7.581  10.208   7.812 -0.9742  2.2571  0.5682
  711MOL0     H93827   7.635  10.294   7.964  0.3317 -0.1225  0.0637
  711MOL0     H93828   7.696  10.078   8.062  2.5425  0.4396 -1.3498
  711MOL0     H93829   7.697  10.000   7.912  1.8808  2.1840 -0.2701
  711MOL0     H93830   7.453  10.113   8.062  1.9384 -2.7343  3.9916
  711MOL0     H93831   7.426  10.031   7.915  0.7495  0.3102 -2.0232
  711MOL0     H93832   7.360   9.893   8.106 -1.7668  0.1536 -0.5952
  711MOL0     H93833   7.502   9.932   8.184 -0.7026  1.1070 -0.1648
  711MOL0     H93834   8.167  10.154   8.386 -0.2586  0.3974 -0.1788
  711MOL0     H93835   8.335   9.997   8.453  1.4435 -2.1486  0.2891
  711MOL0     H93836   8.771   9.863   8.227 -0.2768 -1.1467  1.7124
  711MOL0     H93837   8.989   9.711   8.214 -0.0750 -0.7798  0.3721
  711MOL0     H93838  10.646   9.827   7.900  1.0358  0.6888 -0.4751
  711MOL0     H93839  10.853   9.929   7.912 -3.2944  0.5838 -1.1087
  711MOL0     H93840  11.273  10.080   8.120  3.4566  1.4934  1.8541
  711MOL0     H93841  11.506  10.128   8.134  6.1845 -2.2932 -0.1151
  711MOL0     H93842  11.735   9.923   7.808 -0.3843 -3.2610 -0.7181
  711MOL0     H93843  11.786   9.838   7.957  1.5838  0.3456 -0.5274
  711MOL0     H93844  11.975   9.972   7.987 -1.5599  1.6680  1.5961
  711MOL0     H93845  11.980   9.915   7.818  1.2800 -1.9642  2.6739
  711MOL0     H93846  11.886  10.161   7.776  1.3757  1.9157  0.3714
  711MOL0     H93847  12.059  10.143   7.811  0.2723 -0.2955 -0.9244
  711MOL0     H93848  11.817  10.243   7.987 -0.7542 -1.5406 -3.3942
  711MOL0     H93849  11.957  10.182   8.069 -1.7933  0.0886  1.7914
  711MOL0     H93850  12.090  10.563   7.923  2.1913  0.7144 -0.6563
  711MOL0     H93851  11.584   9.782   7.882  0.2525 -0.4581  0.0186
  711MOL0     H93852  11.356   9.740   7.862  4.3398 -0.6086 -0.2105
  712MOL0     O93853   4.462   4.471   5.953  0.2669  0.2818 -0.2238
  712MOL0     C93854   4.553   4.511   5.889  1.0160 -0.8410  0.4249
  712MOL0     O93855   4.593   4.454   5.770  0.0900 -0.2960  0.0000
  712MOL0     C93856   4.527   4.363   5.692 -0.1514  0.2568  0.4776
  712MOL0     C93857   4.506   4.374   5.551 -0.2244  0.5061 -0.5866
  712MOL0     C93858   4.447   4.264   5.477  0.6267 -0.2756 -0.9095
  712MOL0     C93859   4.384   4.162   5.542  0.2925  0.3245  1.4626
  712MOL0     O93860   4.307   4.076   5.453  0.0948  0.4410 -0.5024
  712MOL0     C93861   4.292   3.938   5.485  0.5349 -0.6918 -0.4340
  712MOL0     C93862   4.204   3.853   5.396 -0.5184  1.0145 -0.4369
  712MOL0     C93863   4.292   3.796   5.284  0.0526 -1.2283  0.3796
  712MOL0     C93864   4.208   3.764   5.162 -0.0842  0.5519 -0.3815
  712MOL0     C93865   4.289   3.728   5.037 -1.2000  0.1116 -0.2722
  712MOL0     C93866   4.378   3.597   5.061  0.6579  0.0018 -0.3679
  712MOL0     C93867   4.458   3.561   4.935 -0.0986 -0.2989 -1.3782
  712MOL0     C93868   4.516   3.425   4.938 -0.5042  0.3684 -0.5642
  712MOL0     N93869   4.548   3.385   4.801 -0.4996  0.8877  0.1091
  712MOL0     C93870   4.668   3.405   4.737 -0.9484  0.2020 -0.4054
  712MOL0     C93871   4.648   3.356   4.608  1.1518 -0.2827  0.0649
  712MOL0     C93872   4.755   3.365   4.495  0.3180  0.3925 -0.2793
  712MOL0     C93873   4.849   3.235   4.506  0.0468 -0.3518  1.0137
  712MOL0     C93874   4.774   3.101   4.488  0.2683  1.2287  0.8108
  712MOL0     C93875   4.862   2.969   4.491  0.2355  0.2083  0.1370
  712MOL0     O93876   4.938   2.952   4.369  0.7267  0.1771 -0.1933
  712MOL0     C93877   5.025   2.847   4.346  0.8350  0.2594  1.3380
  712MOL0     C93878   5.054   2.756   4.446 -0.1697  0.7734 -0.0032
  712MOL0     C93879   5.141   2.656   4.415 -0.2500 -0.4349  0.7278
  712MOL0     C93880   5.199   2.648   4.289 -0.1715  0.6089 -0.4716
  712MOL0     C93881   5.293   2.543   4.265  0.0149 -0.3816 -0.6119
  712MOL0     O93882   5.368   2.562   4.154  0.8687 -0.0734  0.0984
  712MOL0     C93883   5.497   2.513   4.160 -0.3118 -0.1916  0.3421
  712MOL0     C93884   5.559   2.485   4.034  0.3591  0.4797 -0.5628
  712MOL0     C93885   5.688   2.433   4.037  0.0740  0.4576 -0.1051
  712MOL0     C93886   5.759   2.406   4.154 -0.3063  0.6416  0.8823
  712MOL0     O93887   5.890   2.368   4.126  0.0510  0.4189  0.0849
  712MOL0     C93888   5.975   2.308   4.228 -0.1604  1.4208  0.1746
  712MOL0     C93889   6.080   2.412   4.266  0.2628 -0.1994  0.0296
  712MOL0     C93890   6.166   2.446   4.145 -0.2475  0.7425 -0.8471
  712MOL0     C93891   6.271   2.545   4.198  0.4134  0.5664 -0.0388
  712MOL0     C93892   6.293   2.653   4.094 -0.1544  0.1013 -0.1889
  712MOL0     C93893   6.384   2.760   4.163  0.5470 -0.7404  0.4250
  712MOL0     C93894   6.430   2.866   4.067  0.2759  0.2570  0.1009
  712MOL0     C93895   6.312   2.914   3.978  0.6268 -0.4366  0.3707
  712MOL0    Cl93896   6.151   2.951   4.054  0.1450 -0.2788  0.1254
  712MOL0     C93897   5.698   2.438   4.280  0.7265 -0.5075 -0.0238
  712MOL0     C93898   5.570   2.492   4.284  0.7597 -0.5838  0.0807
  712MOL0     O93899   5.297   2.438   4.329 -0.2925  0.0955  0.1902
  712MOL0     C93900   5.170   2.735   4.187  0.3821  0.4036 -0.7129
  712MOL0     C93901   5.079   2.836   4.217 -1.0060 -0.8279  0.1461
  712MOL0     N93902   4.518   3.310   4.605  0.0133 -0.8324  0.6533
  712MOL0     N93903   4.461   3.318   4.723  0.2809 -0.3861 -0.4476
  712MOL0     C93904   4.413   4.146   5.679  0.5989 -0.0958  1.0965
  712MOL0     C93905   4.488   4.242   5.753 -0.2226  0.3983  0.0414
  712MOL0     C93906   4.650   4.602   5.938  0.1152  0.0425  0.3354
  712MOL0     C93907   4.738   4.676   5.846  0.4389  0.6587  0.3504
  712MOL0     C93908   4.828   4.769   5.889 -0.7439  0.4700 -0.3354
  712MOL0     C93909   4.849   4.784   6.025  0.3424 -0.8042 -0.8737
  712MOL0     O93910   4.946   4.885   6.057 -0.2210  1.1911  0.1166
  712MOL0     C93911   4.960   4.929   6.194 -0.1689  0.3036 -0.9521
  712MOL0     C93912   4.835   5.015   6.252  0.2455 -0.4180  0.2887
  712MOL0     C93913   4.848   5.014   6.405 -0.2410  0.8551 -0.0140
  712MOL0     C93914   4.754   5.109   6.469  0.0252 -0.1571 -0.5618
  712MOL0     C93915   4.784   5.130   6.615 -0.0394  0.6070  0.8601
  712MOL0     C93916   4.802   5.132   6.730  0.3109 -0.1252 -1.2866
  712MOL0     C93917   4.773   4.709   6.117  0.0867 -0.4036 -0.3365
  712MOL0     C93918   4.671   4.626   6.073 -0.1924 -0.1971  0.5413
  712MOL0     H93919   4.526   4.463   5.493 -1.8883  0.9246 -0.5653
  712MOL0     H93920   4.451   4.274   5.369  1.3545  3.7413 -0.6568
  712MOL0     H93921   4.242   3.940   5.583  2.9402 -0.4755  0.8688
  712MOL0     H93922   4.388   3.888   5.500  0.6814  0.0052  1.2668
  712MOL0     H93923   4.117   3.912   5.366 -0.2697  1.2100 -0.7829
  712MOL0     H93924   4.173   3.764   5.450 -0.3379  0.1510 -1.7161
  712MOL0     H93925   4.352   3.713   5.321  0.9882  0.9153  4.2310
  712MOL0     H93926   4.364   3.870   5.248  0.9518 -0.2090  3.8517
  712MOL0     H93927   4.146   3.681   5.197 -1.3640  2.3280  1.8587
  712MOL0     H93928   4.138   3.846   5.144  0.2975  0.7628 -0.9373
  712MOL0     H93929   4.356   3.808   5.005  0.7034 -0.5607  1.8244
  712MOL0     H93930   4.218   3.698   4.959 -1.2724 -2.7127  0.7716
  712MOL0     H93931   4.315   3.512   5.088  0.3130 -0.6760 -2.9950
  712MOL0     H93932   4.452   3.619   5.138  2.2700 -0.0758 -1.8138
  712MOL0     H93933   4.400   3.583   4.845  1.0539 -0.8132 -2.2677
  712MOL0     H93934   4.545   3.625   4.920  1.4613 -2.4854 -2.2019
  712MOL0     H93935   4.456   3.348   4.987 -2.1583  0.8589 -1.7365
  712MOL0     H93936   4.612   3.438   4.989 -1.2712 -0.7497  1.2538
  712MOL0     H93937   4.750   3.465   4.774 -1.9446  2.4448 -1.6071
  712MOL0     H93938   4.826   3.446   4.513 -0.0493  0.2464  2.1747
  712MOL0     H93939   4.704   3.367   4.399 -1.8317  0.9216  0.8135
  712MOL0     H93940   4.882   3.237   4.610  0.7983  2.3723  0.7894
  712MOL0     H93941   4.932   3.251   4.436  0.0388  0.1217  1.1069
  712MOL0     H93942   4.691   3.093   4.559 -0.6552 -2.9681 -0.4521
  712MOL0     H93943   4.716   3.109   4.395 -2.0661  0.6436  2.1341
  712MOL0     H93944   4.787   2.889   4.498 -0.1954  0.5930 -0.0172
  712MOL0     H93945   4.921   2.962   4.582 -0.3380  1.8952  0.6792
  712MOL0     H93946   5.017   2.746   4.548  3.1691 -0.3884  1.2407
  712MOL0     H93947   5.168   2.590   4.497 -1.8604  1.0116  2.5232
  712MOL0     H93948   5.522   2.514   3.937  0.9820  1.0726 -0.6373
  712MOL0     H93949   5.732   2.425   3.938 -2.6423 -0.0176 -1.3482
  712MOL0     H93950   6.041   2.229   4.194  0.9885  0.3301  4.3287
  712MOL0     H93951   5.912   2.263   4.305  0.7490 -1.1624 -0.5034
  712MOL0     H93952   6.131   2.367   4.352 -0.9993  2.2500  2.1718
  712MOL0     H93953   6.043   2.507   4.305  0.5269 -1.0204  2.4314
  712MOL0     H93954   6.104   2.489   4.066 -3.4353  0.0838  1.1291
  712MOL0     H93955   6.233   2.364   4.117  0.9771  1.3879  0.0695
  712MOL0     H93956   6.229   2.595   4.286 -0.0650  0.8516 -0.4218
  712MOL0     H93957   6.358   2.487   4.229 -1.1835 -2.4858 -0.9088
  712MOL0     H93958   6.195   2.690   4.062  0.2898  1.9221  0.4082
  712MOL0     H93959   6.330   2.599   4.006 -0.1707  0.1943 -0.2532
  712MOL0     H93960   6.470   2.699   4.190  0.3926 -0.6316  1.1687
  712MOL0     H93961   6.334   2.803   4.250 -0.2896 -0.3236 -0.2328
  712MOL0     H93962   6.472   2.945   4.130  1.6966 -0.4688  0.1089
  712MOL0     H93963   6.528   2.836   4.030  1.8447  2.8982  1.8319
  712MOL0     H93964   6.281   2.831   3.914 -3.4744  3.0424 -2.7585
  712MOL0     H93965   6.347   2.994   3.913 -1.5637 -1.1123 -1.7426
  712MOL0     H93966   5.757   2.434   4.371  0.9759 -0.4925 -0.1859
  712MOL0     H93967   5.521   2.509   4.379 -0.4457 -1.3683 -0.3855
  712MOL0     H93968   5.214   2.726   4.088  2.1037 -0.3494  0.0846
  712MOL0     H93969   5.058   2.909   4.139 -3.3470 -0.6411  0.8706
  712MOL0     H93970   4.367   4.057   5.719 -0.0763 -0.2375  0.0352
  712MOL0     H93971   4.502   4.231   5.860  1.4370  1.4968 -0.0263
  712MOL0     H93972   4.732   4.666   5.738 -3.5700  4.7918 -0.1071
  712MOL0     H93973   4.894   4.822   5.821 -1.5989  1.7107 -0.2192
  712MOL0     H93974   5.042   5.001   6.201 -0.0311  0.1307 -0.7723
  712MOL0     H93975   4.975   4.847   6.266 -3.1425  1.2328  0.9068
  712MOL0     H93976   4.844   5.114   6.207 -0.3208 -1.3190 -1.9540
  712MOL0     H93977   4.741   4.964   6.229 -0.1898  0.6623 -0.3771
  712MOL0     H93978   4.948   5.044   6.437 -0.1764  1.8634 -1.1207
  712MOL0     H93979   4.830   4.911   6.437  4.1898 -0.7283 -1.8097
  712MOL0     H93980   4.742   5.208   6.425 -1.5349  1.5334  3.2856
  712MOL0     H93981   4.657   5.060   6.468  0.5604 -1.2789  0.3562
  712MOL0     H93982   4.813   5.158   6.833 -0.8312  0.8075 -1.3774
  712MOL0     H93983   4.782   4.719   6.225 -0.2369  0.0532 -0.3504
  712MOL0     H93984   4.604   4.589   6.150  1.4452  0.7303  2.5311
  713MOL0     O93985   3.749   5.047   8.849  1.0637  0.9246 -0.9636
  713MOL0     C93986   3.812   5.109   8.771 -0.2397 -0.2116  1.1762
  713MOL0     O93987   3.755   5.183   8.666 -0.2893 -0.0919 -0.1825
  713MOL0     C93988   3.623   5.235   8.672  0.0054 -0.4700  0.3832
  713MOL0     C93989   3.579   5.307   8.556  0.0255  0.0894  0.6135
  713MOL0     C93990   3.449   5.372   8.555 -0.2848 -0.6874  0.1011
  713MOL0     C93991   3.372   5.373   8.670 -0.3156 -0.5237  0.2657
  713MOL0     O93992   3.263   5.452   8.668  0.3336  0.2316  0.1497
  713MOL0     C93993   3.163   5.457   8.777 -0.9684  0.2498 -0.0867
  713MOL0     C93994   3.040   5.515   8.734  0.9186  0.0323 -0.5319
  713MOL0     C93995   2.981   5.471   8.598 -0.2402 -0.4387 -0.4629
  713MOL0     C93996   2.855   5.560   8.563  0.3957 -0.9789  0.1545
  713MOL0     C93997   2.711   5.514   8.600  0.6019 -0.0238 -0.1620
  713MOL0     C93998   2.677   5.381   8.527 -0.8521  0.5137 -0.2437
  713MOL0     C93999   2.667   5.384   8.373  0.5349  0.3341 -0.0135
  713MOL0     C94000   2.541   5.450   8.331  0.5720  0.4920  0.2194
  713MOL0     N94001   2.509   5.405   8.194 -0.2010  0.1881  0.2393
  713MOL0     C94002   2.570   5.448   8.073  0.0616 -0.3724 -1.6430
  713MOL0     C94003   2.489   5.398   7.979 -0.4375 -0.2858  0.7368
  713MOL0     C94004   2.521   5.382   7.833 -0.5930 -0.6684 -0.0216
  713MOL0     C94005   2.427   5.464   7.747 -0.1029 -0.4958 -0.6422
  713MOL0     C94006   2.471   5.607   7.707 -0.4976  0.0154  0.1231
  713MOL0     C94007   2.376   5.687   7.624 -0.2971 -0.1069 -0.2878
  713MOL0     O94008   2.278   5.748   7.711  0.4943  0.4487  0.0338
  713MOL0     C94009   2.156   5.684   7.723  0.6472  0.3511  0.3527
  713MOL0     C94010   2.116   5.562   7.662 -0.3121 -0.0139 -0.0947
  713MOL0     C94011   1.988   5.506   7.674 -0.6231 -0.5740 -0.1235
  713MOL0     C94012   1.891   5.570   7.747  0.5462  0.2282  1.0161
  713MOL0     C94013   1.759   5.510   7.766  0.5801  0.7943  0.4829
  713MOL0     O94014   1.675   5.595   7.836  0.4856 -0.1918  0.2535
  713MOL0     C94015   1.559   5.557   7.899 -0.0211 -0.0559 -0.2264
  713MOL0     C94016   1.476   5.670   7.928  0.3647 -0.7461 -0.2140
  713MOL0     C94017   1.342   5.650   7.995 -1.2204  0.6052 -0.9834
  713MOL0     C94018   1.301   5.519   8.034 -0.9126  0.0872 -0.1386
  713MOL0     O94019   1.183   5.493   8.096 -0.3129 -0.0094  0.7577
  713MOL0     C94020   1.186   5.459   8.239  0.2847  0.2470 -0.0372
  713MOL0     C94021   1.043   5.479   8.299 -0.2697  0.2333 -0.5566
  713MOL0     C94022   1.005   5.629   8.320  0.6503  0.2727 -0.6843
  713MOL0     C94023   1.075   5.690   8.453  0.5345  0.6619  0.4117
  713MOL0     C94024   1.008   5.828   8.486 -1.2367 -0.3695 -0.2959
  713MOL0     C94025   1.107   5.913   8.568 -0.5159 -0.2230  0.1454
  713MOL0     C94026   1.121   5.830   8.704  0.0854 -0.0847  0.1773
  713MOL0     C94027   1.165   5.941   8.809 -0.8606 -0.3269  0.5421
  713MOL0    Cl94028   1.327   6.002   8.767 -0.2175 -0.0735 -0.0842
  713MOL0     C94029   1.391   5.411   8.007  0.7345 -0.2719 -0.0018
  713MOL0     C94030   1.515   5.427   7.948  0.2578 -0.0848 -0.0264
  713MOL0     O94031   1.732   5.391   7.723 -0.1138 -0.0485 -0.3715
  713MOL0     C94032   1.922   5.697   7.799 -0.3813  0.3789  0.5183
  713MOL0     C94033   2.050   5.752   7.789 -0.9290  0.6934 -0.2018
  713MOL0     N94034   2.375   5.330   8.038 -1.2670 -0.7709 -0.0856
  713MOL0     N94035   2.394   5.348   8.158  0.4952  0.1689 -0.3366
  713MOL0     C94036   3.416   5.299   8.778  0.1827 -0.5946  0.1534
  713MOL0     C94037   3.542   5.239   8.781 -0.0997 -0.7225  0.4014
  713MOL0     C94038   3.958   5.081   8.764 -0.3618  0.3716 -0.1296
  713MOL0     C94039   4.035   5.077   8.642 -0.7447 -0.4948  0.6242
  713MOL0     C94040   4.173   5.068   8.652  0.1526  0.1031  1.1819
  713MOL0     C94041   4.242   5.056   8.770  0.2177 -0.1444  1.0403
  713MOL0     O94042   4.385   5.043   8.774  0.1737 -0.3366  0.6110
  713MOL0     C94043   4.447   5.175   8.761  0.1597  0.7704  0.5245
  713MOL0     C94044   4.603   5.164   8.747  0.3504  0.7379  0.3728
  713MOL0     C94045   4.662   5.129   8.607 -0.1924  0.3238  0.2606
  713MOL0     C94046   4.814   5.158   8.605  0.5453  0.5384  0.1022
  713MOL0     C94047   4.863   5.135   8.471 -0.0519 -0.0517 -0.4776
  713MOL0     C94048   4.902   5.119   8.360 -0.4970 -0.3611  1.0249
  713MOL0     C94049   4.169   5.055   8.887  0.1911  0.5291 -0.1125
  713MOL0     C94050   4.029   5.065   8.884  1.6105  0.8323 -0.5448
  713MOL0     H94051   3.644   5.311   8.469  0.4359 -1.2404  0.8223
  713MOL0     H94052   3.423   5.434   8.470  1.6114 -1.2428 -0.9437
  713MOL0     H94053   3.208   5.514   8.859  0.3709 -0.0304 -0.5865
  713MOL0     H94054   3.146   5.357   8.820 -0.2138 -0.6961 -1.8676
  713MOL0     H94055   3.059   5.623   8.739  0.3680  0.1108  0.1340
  713MOL0     H94056   2.967   5.481   8.809 -1.4571  1.7906 -1.8798
  713MOL0     H94057   2.969   5.364   8.577 -2.5694 -0.5120  0.8864
  713MOL0     H94058   3.059   5.500   8.527 -1.7395  0.4685 -1.7994
  713MOL0     H94059   2.883   5.652   8.616 -0.8708 -0.6762  0.3324
  713MOL0     H94060   2.838   5.596   8.461 -2.4154  2.2852  1.5766
  713MOL0     H94061   2.646   5.598   8.573  1.0227 -0.1998 -1.8627
  713MOL0     H94062   2.708   5.497   8.708 -0.5656 -0.0153 -0.1784
  713MOL0     H94063   2.587   5.332   8.567  1.1442 -3.8448 -0.4856
  713MOL0     H94064   2.764   5.317   8.547 -1.8290 -0.6530  0.4520
  713MOL0     H94065   2.755   5.428   8.324 -0.8388 -0.0029 -3.0044
  713MOL0     H94066   2.662   5.283   8.330  0.0117 -0.1317  1.1131
  713MOL0     H94067   2.560   5.558   8.332  1.8660  0.2960 -1.0009
  713MOL0     H94068   2.455   5.427   8.395  0.8953  3.6741  2.0120
  713MOL0     H94069   2.664   5.502   8.074 -1.0766  1.7414 -1.8638
  713MOL0     H94070   2.492   5.278   7.815  0.0014 -0.9541  0.6206
  713MOL0     H94071   2.626   5.392   7.802 -0.6918 -1.9449 -0.8234
  713MOL0     H94072   2.331   5.461   7.799  2.0995 -0.9382  3.9242
  713MOL0     H94073   2.415   5.402   7.658 -1.8505 -1.7547  0.4108
  713MOL0     H94074   2.466   5.637   7.813  2.3735 -0.0071  0.3620
  713MOL0     H94075   2.573   5.613   7.667 -0.1279  1.1650  1.1468
  713MOL0     H94076   2.344   5.626   7.539 -1.1870  0.6721 -0.5295
  713MOL0     H94077   2.428   5.777   7.590 -0.8685 -0.3487 -1.8988
  713MOL0     H94078   2.190   5.501   7.612 -0.5044 -1.0340  0.8364
  713MOL0     H94079   1.970   5.412   7.623 -0.6876 -0.0565 -1.0799
  713MOL0     H94080   1.512   5.766   7.894 -1.5885 -0.1762 -0.8557
  713MOL0     H94081   1.286   5.738   8.027  0.1429  1.1922 -0.1318
  713MOL0     H94082   1.264   5.516   8.290 -1.4430 -0.2603  3.4528
  713MOL0     H94083   1.221   5.356   8.256  0.0313  0.5224  2.5511
  713MOL0     H94084   1.045   5.433   8.398  0.5119  1.3974 -0.0102
  713MOL0     H94085   0.974   5.435   8.227  0.8552  0.0247 -1.5570
  713MOL0     H94086   0.897   5.641   8.326  0.3081 -1.0616 -2.9487
  713MOL0     H94087   1.037   5.679   8.228 -0.7098  0.2375 -1.1943
  713MOL0     H94088   1.053   5.615   8.529  2.1285 -1.1138 -0.7702
  713MOL0     H94089   1.183   5.696   8.434  0.3835 -0.6339 -1.0920
  713MOL0     H94090   0.920   5.815   8.550  0.9194  0.1622  2.9747
  713MOL0     H94091   0.983   5.874   8.390  2.0570 -2.2547 -2.2387
  713MOL0     H94092   1.053   6.007   8.585 -1.1304  0.1233 -3.1363
  713MOL0     H94093   1.203   5.936   8.522 -1.3106  2.4772 -0.3778
  713MOL0     H94094   1.032   5.780   8.742 -0.0450 -0.6769 -0.8703
  713MOL0     H94095   1.202   5.756   8.707 -1.5275 -1.8956  0.6875
  713MOL0     H94096   1.161   5.908   8.914 -3.0016 -1.6926  0.1021
  713MOL0     H94097   1.083   6.014   8.807  0.6107  1.4766  2.2988
  713MOL0     H94098   1.364   5.308   8.027 -0.1475 -0.6608 -2.6919
  713MOL0     H94099   1.579   5.342   7.931  0.4187  0.1898 -0.8729
  713MOL0     H94100   1.855   5.762   7.855 -2.2428  1.4383 -2.6816
  713MOL0     H94101   2.083   5.841   7.840 -0.3454  0.1116  0.4675
  713MOL0     H94102   3.363   5.277   8.870 -0.9712 -5.2827 -1.3138
  713MOL0     H94103   3.573   5.198   8.876  2.6677  0.8689  0.2975
  713MOL0     H94104   3.978   5.088   8.550 -0.5658 -1.3921  0.4009
  713MOL0     H94105   4.231   5.058   8.561  3.0047 -0.2918  2.9366
  713MOL0     H94106   4.407   5.238   8.840 -3.1636 -1.7914  1.0990
  713MOL0     H94107   4.404   5.208   8.666  1.5715 -0.9151 -0.7924
  713MOL0     H94108   4.632   5.269   8.759 -2.1613  1.7796 -1.6693
  713MOL0     H94109   4.643   5.101   8.826 -1.0870 -1.3646 -0.4838
  713MOL0     H94110   4.606   5.191   8.537  2.8726  2.9233 -0.0766
  713MOL0     H94111   4.642   5.024   8.582 -2.8043  0.9458 -0.5163
  713MOL0     H94112   4.825   5.262   8.637  0.9019  0.5190  0.0428
  713MOL0     H94113   4.865   5.084   8.667 -0.3115 -0.1849 -0.0357
  713MOL0     H94114   4.933   5.089   8.261  0.2849  0.6559  0.9446
  713MOL0     H94115   4.221   5.042   8.981 -0.3718 -1.4839 -0.0398
  713MOL0     H94116   3.976   5.061   8.979  1.2579  0.8269 -0.7443
  714MOL0     O94117   6.643   2.450  11.329  0.1747 -0.1340 -0.2619
  714MOL0     C94118   6.711   2.391  11.250  0.8748  0.2741 -1.0035
  714MOL0     O94119   6.666   2.301  11.165  0.5055 -0.2877  0.0898
  714MOL0     C94120   6.547   2.236  11.195 -0.8633  0.7796 -0.3960
  714MOL0     C94121   6.500   2.216  11.328 -0.2551 -0.7890 -0.4903
  714MOL0     C94122   6.379   2.146  11.348 -1.2178  0.6659  0.3384
  714MOL0     C94123   6.313   2.080  11.244 -0.7077  1.1207  0.4790
  714MOL0     O94124   6.204   2.006  11.267  0.1579  0.6325 -0.5405
  714MOL0     C94125   6.084   2.084  11.302 -0.3759  0.6823  0.1552
  714MOL0     C94126   6.033   2.129  11.168 -0.2035  0.0120 -0.6757
  714MOL0     C94127   5.978   2.020  11.076  0.1538  0.4158  0.2002
  714MOL0     C94128   5.875   1.917  11.137  0.1131  0.1998 -0.6392
  714MOL0     C94129   5.823   1.819  11.037 -0.3902  0.8543  0.1916
  714MOL0     C94130   5.679   1.785  11.062  0.6385 -0.3393  0.4324
  714MOL0     C94131   5.634   1.667  10.978  0.2009  0.0544 -0.3761
  714MOL0     C94132   5.703   1.537  11.015  0.7408 -0.4103  0.5534
  714MOL0     N94133   5.661   1.483  11.140 -0.8167 -0.0282 -0.0559
  714MOL0     C94134   5.559   1.399  11.159  0.0303 -0.8884  0.2831
  714MOL0     C94135   5.577   1.328  11.277 -0.1214 -0.2541 -0.4828
  714MOL0     C94136   5.499   1.224  11.344 -0.4541  0.3612 -0.0536
  714MOL0     C94137   5.352   1.251  11.321  0.5502 -0.2013 -0.0119
  714MOL0     C94138   5.268   1.169  11.420  0.2506  0.2934  0.2200
  714MOL0     C94139   5.117   1.184  11.385  0.6967  0.0851  0.7453
  714MOL0     O94140   5.080   1.095  11.277  0.3036  0.0467  0.2909
  714MOL0     C94141   4.954   1.088  11.229 -0.5659  1.6157 -0.3690
  714MOL0     C94142   4.938   0.996  11.119 -0.0165 -0.0730  0.2017
  714MOL0     C94143   4.827   0.992  11.029 -0.3110  0.2908 -0.7755
  714MOL0     C94144   4.712   1.075  11.065  0.2342  0.5676  0.5393
  714MOL0     C94145   4.588   1.067  10.992  0.3280  0.0067  0.2969
  714MOL0     O94146   4.493   1.159  11.021 -0.1543 -0.1454  0.1147
  714MOL0     C94147   4.364   1.158  10.983 -0.2544  0.5881  0.8210
  714MOL0     C94148   4.291   1.281  10.992 -0.1562  0.4943  0.4868
  714MOL0     C94149   4.167   1.295  10.932  0.1014 -0.0039 -1.3138
  714MOL0     C94150   4.087   1.184  10.895  0.5450  0.2189 -0.4526
  714MOL0     O94151   3.956   1.186  10.853  0.5423  0.4493 -0.1076
  714MOL0     C94152   3.913   1.122  10.729  0.7968 -0.9166 -0.1921
  714MOL0     C94153   3.773   1.164  10.692 -0.1871  0.5973  0.0768
  714MOL0     C94154   3.729   1.314  10.703  0.9224  0.6216 -0.0753
  714MOL0     C94155   3.795   1.402  10.597 -0.9400  0.0938 -0.7952
  714MOL0     C94156   3.761   1.543  10.581 -0.3955 -0.1307  0.6030
  714MOL0     C94157   3.786   1.631  10.713 -0.4307 -0.0553 -0.2626
  714MOL0     C94158   3.937   1.639  10.740 -0.3854  0.0326 -0.4285
  714MOL0     C94159   3.963   1.728  10.863 -0.4450  0.0303 -0.4279
  714MOL0    Cl94160   4.083   1.672  10.980  0.4143  0.0465  0.0488
  714MOL0     C94161   4.151   1.062  10.902 -0.7325 -0.5306  0.4209
  714MOL0     C94162   4.288   1.048  10.936  0.0896 -0.7453  0.1430
  714MOL0     O94163   4.587   0.987  10.892  0.1426 -0.6288 -0.1173
  714MOL0     C94164   4.730   1.154  11.178 -0.1063  0.1607  0.2563
  714MOL0     C94165   4.840   1.162  11.256  0.3025  0.1031  0.0814
  714MOL0     N94166   5.685   1.396  11.336 -0.2370  0.1862  0.4655
  714MOL0     N94167   5.742   1.473  11.250  0.1395 -0.6050  0.4682
  714MOL0     C94168   6.369   2.091  11.115  0.9435  0.3841 -1.1129
  714MOL0     C94169   6.477   2.176  11.092  0.0327 -0.5959  0.4723
  714MOL0     C94170   6.850   2.446  11.218  0.4599 -0.3375 -0.0528
  714MOL0     C94171   6.933   2.414  11.108  0.2599 -0.3833 -0.1291
  714MOL0     C94172   7.055   2.482  11.089 -0.1915 -0.6383 -0.1099
  714MOL0     C94173   7.097   2.586  11.177  0.9568 -0.4428  0.0793
  714MOL0     O94174   7.218   2.653  11.167  0.6611  0.0591 -0.0487
  714MOL0     C94175   7.335   2.583  11.130  0.6307 -0.1477 -0.0687
  714MOL0     C94176   7.446   2.672  11.143 -0.2482 -0.2757  0.1190
  714MOL0     C94177   7.421   2.812  11.069 -0.1952  0.4462  0.0269
  714MOL0     C94178   7.417   2.786  10.919  0.4249 -0.6828 -0.0080
  714MOL0     C94179   7.439   2.899  10.826  1.3597  0.2267 -0.8980
  714MOL0     C94180   7.462   2.981  10.742  0.2109  0.0965 -0.4300
  714MOL0     C94181   7.011   2.616  11.280 -0.0669 -0.2316 -0.4079
  714MOL0     C94182   6.894   2.541  11.304 -1.0484 -0.2771  0.3570
  714MOL0     H94183   6.542   2.254  11.420 -0.2554 -2.2068  0.1164
  714MOL0     H94184   6.345   2.130  11.449 -1.2999  0.8957  0.3463
  714MOL0     H94185   6.113   2.176  11.354 -1.4756  1.3618 -0.4145
  714MOL0     H94186   6.011   2.031  11.364  1.0024  1.7734  2.8884
  714MOL0     H94187   6.109   2.186  11.114 -0.3237 -0.3135 -1.2025
  714MOL0     H94188   5.953   2.201  11.186  0.4916  0.7263 -0.3922
  714MOL0     H94189   6.063   1.958  11.045 -1.2041 -0.5772 -1.7372
  714MOL0     H94190   5.929   2.066  10.989  0.6310  1.5785  0.5190
  714MOL0     H94191   5.920   1.847  11.207  1.4269 -0.1558 -1.7985
  714MOL0     H94192   5.798   1.969  11.194 -1.7334  2.6288 -4.8508
  714MOL0     H94193   5.889   1.732  11.039 -3.2233 -1.4597 -0.2727
  714MOL0     H94194   5.827   1.851  10.932  4.9471  0.2086 -0.0872
  714MOL0     H94195   5.622   1.872  11.028  0.7041 -0.3612  0.2631
  714MOL0     H94196   5.658   1.755  11.164  1.6833  0.1203  0.8015
  714MOL0     H94197   5.526   1.650  10.987  0.5474 -2.5833 -0.2853
  714MOL0     H94198   5.658   1.688  10.874 -0.6171 -0.1500 -0.6161
  714MOL0     H94199   5.812   1.548  11.014  0.5531  1.7819 -1.1253
  714MOL0     H94200   5.671   1.460  10.945  0.4238  0.1277  0.1018
  714MOL0     H94201   5.490   1.376  11.079  0.4575  1.8622 -0.9863
  714MOL0     H94202   5.528   1.220  11.449  1.8933  0.1232 -0.6368
  714MOL0     H94203   5.515   1.122  11.307  0.8888 -0.0914  1.6658
  714MOL0     H94204   5.321   1.231  11.218 -2.0249 -1.8630  0.9917
  714MOL0     H94205   5.322   1.356  11.335  1.9274  0.1585  0.4182
  714MOL0     H94206   5.299   1.065  11.411  1.8864  0.7107  0.8154
  714MOL0     H94207   5.285   1.205  11.522 -3.7665  0.2145  1.1044
  714MOL0     H94208   5.088   1.286  11.360 -4.9981 -1.2421  0.5333
  714MOL0     H94209   5.063   1.160  11.478 -2.6122  1.4850 -0.6355
  714MOL0     H94210   5.024   0.936  11.089 -0.8727  0.8610 -5.3836
  714MOL0     H94211   4.826   0.934  10.937 -0.3404 -0.6176 -0.2139
  714MOL0     H94212   4.350   1.366  11.026  0.6824  0.7232 -1.3978
  714MOL0     H94213   4.124   1.394  10.951  0.8770 -0.0132  0.8225
  714MOL0     H94214   3.903   1.013  10.741 -0.8939 -0.7486  0.2220
  714MOL0     H94215   3.975   1.134  10.640 -0.2933 -0.9373 -0.9859
  714MOL0     H94216   3.706   1.101  10.752 -0.0120  0.5189  0.1899
  714MOL0     H94217   3.755   1.132  10.589 -0.4058 -0.2546  0.3721
  714MOL0     H94218   3.747   1.354  10.803 -2.9768  0.2539  0.9345
  714MOL0     H94219   3.623   1.316  10.679  0.9478 -1.1005 -0.4637
  714MOL0     H94220   3.903   1.388  10.606 -1.2472 -1.5058  1.1413
  714MOL0     H94221   3.766   1.353  10.504  0.0797 -1.0709 -0.5143
  714MOL0     H94222   3.654   1.557  10.563 -0.6331 -1.7076  0.6835
  714MOL0     H94223   3.814   1.580  10.492  1.1836 -3.4887  0.0045
  714MOL0     H94224   3.738   1.586  10.801 -0.7379  0.3628 -0.2154
  714MOL0     H94225   3.755   1.735  10.719  1.3262  0.4598  0.4454
  714MOL0     H94226   3.983   1.541  10.754 -0.7864 -0.5598 -2.7764
  714MOL0     H94227   3.978   1.678  10.646  1.0039 -0.6935 -0.1360
  714MOL0     H94228   3.864   1.736  10.908 -0.9110  3.6119 -1.7964
  714MOL0     H94229   3.992   1.828  10.829 -2.9869  0.6089 -1.0920
  714MOL0     H94230   4.085   0.978  10.886 -1.9129  0.2750  0.9595
  714MOL0     H94231   4.335   0.952  10.915 -3.1617 -2.4883  0.2187
  714MOL0     H94232   4.641   1.201  11.218 -1.3756  0.0556 -2.2233
  714MOL0     H94233   4.837   1.230  11.341 -3.6759  3.2108 -2.1536
  714MOL0     H94234   6.306   2.047  11.039 -3.0380 -1.9250  2.9761
  714MOL0     H94235   6.524   2.175  10.995  0.0155 -0.5661  0.4641
  714MOL0     H94236   6.895   2.345  11.034  1.8785  0.5356 -1.8892
  714MOL0     H94237   7.125   2.463  11.009  3.4775  0.0504  2.6705
  714MOL0     H94238   7.316   2.545  11.029 -0.0214  0.9626 -0.3949
  714MOL0     H94239   7.356   2.496  11.192 -0.7376 -0.1483  0.4288
  714MOL0     H94240   7.475   2.689  11.247 -0.1859 -0.5471  0.1463
  714MOL0     H94241   7.529   2.612  11.103  0.5761  1.2578 -0.5575
  714MOL0     H94242   7.502   2.883  11.091  1.3923 -1.5065  0.7894
  714MOL0     H94243   7.328   2.858  11.101 -2.9003 -5.7218  2.6594
  714MOL0     H94244   7.493   2.712  10.889  0.1302 -1.3703  0.9121
  714MOL0     H94245   7.319   2.743  10.898 -0.4891  1.4729 -0.4170
  714MOL0     H94246   7.485   3.046  10.660  1.3790  0.1988 -0.0412
  714MOL0     H94247   7.020   2.707  11.338 -1.4684 -0.0865 -0.3862
  714MOL0     H94248   6.828   2.564  11.386 -1.5075 -0.8073  0.1346
  715MOL0     O94249   2.718   5.218   2.497 -0.3649  0.4903 -0.1213
  715MOL0     C94250   2.735   5.140   2.595  0.7966 -0.1121  0.8044
  715MOL0     O94251   2.850   5.083   2.632 -0.2991  0.2026 -0.0469
  715MOL0     C94252   2.963   5.083   2.553 -0.4207  0.0972  0.5699
  715MOL0     C94253   3.000   5.200   2.483 -1.0022 -0.7442 -0.6347
  715MOL0     C94254   3.109   5.190   2.393  0.7892 -0.2703 -0.0593
  715MOL0     C94255   3.170   5.070   2.373 -0.3079  0.3795  0.3780
  715MOL0     O94256   3.265   5.055   2.282  0.4682  0.1141 -0.2321
  715MOL0     C94257   3.387   5.142   2.274  1.0121 -0.5022 -0.7473
  715MOL0     C94258   3.457   5.149   2.406  0.3205 -0.2362 -0.1150
  715MOL0     C94259   3.504   5.017   2.460 -0.0969  0.2877  0.6650
  715MOL0     C94260   3.623   5.042   2.558 -0.2636 -0.3390 -0.8132
  715MOL0     C94261   3.757   5.047   2.491  0.4640 -0.4207  0.9470
  715MOL0     C94262   3.797   4.898   2.483  0.3174  0.0089  1.2460
  715MOL0     C94263   3.939   4.878   2.440 -0.3948  0.5852  0.3871
  715MOL0     C94264   3.988   4.731   2.438  0.2195  1.0523  0.6317
  715MOL0     N94265   3.932   4.651   2.330  0.1040  0.8599  0.4370
  715MOL0     C94266   3.936   4.687   2.194  0.4316  0.1377  0.8634
  715MOL0     C94267   3.874   4.585   2.130 -0.4635  1.2296  0.5377
  715MOL0     C94268   3.834   4.586   1.984  0.1165  0.1607 -0.8784
  715MOL0     C94269   3.936   4.512   1.893 -0.5244 -0.8637  0.4844
  715MOL0     C94270   3.874   4.485   1.757  0.7951  0.5056 -1.0279
  715MOL0     C94271   3.956   4.366   1.683  0.2777  0.0168  0.5960
  715MOL0     O94272   4.101   4.390   1.679  0.3873  0.6979  0.0328
  715MOL0     C94273   4.181   4.307   1.604  0.0684 -0.4337  0.1193
  715MOL0     C94274   4.311   4.350   1.600 -0.1429  0.3865  1.2506
  715MOL0     C94275   4.404   4.284   1.526 -0.1121  0.5074  0.3164
  715MOL0     C94276   4.378   4.168   1.444  0.2286  0.1863 -1.1726
  715MOL0     C94277   4.470   4.094   1.371  0.0622 -0.6708 -1.1480
  715MOL0     O94278   4.594   4.148   1.385 -0.5096  0.0539 -0.0617
  715MOL0     C94279   4.696   4.089   1.323 -0.1227 -0.2325 -0.3186
  715MOL0     C94280   4.729   3.954   1.318 -0.0793 -0.0555  0.0310
  715MOL0     C94281   4.845   3.907   1.251 -0.5222 -0.1177 -0.3861
  715MOL0     C94282   4.942   3.983   1.198 -0.2996 -0.3749 -0.5318
  715MOL0     O94283   5.053   3.934   1.137  0.2327 -0.4324 -0.4386
  715MOL0     C94284   5.112   3.832   1.213  0.2191  0.1796 -0.3904
  715MOL0     C94285   5.245   3.809   1.144 -0.2788  0.5137  0.2722
  715MOL0     C94286   5.237   3.741   1.009 -0.2050  0.2457  0.0116
  715MOL0     C94287   5.379   3.710   0.949  0.5230 -0.2496 -0.6077
  715MOL0     C94288   5.381   3.708   0.797  0.3431 -0.1206 -1.1764
  715MOL0     C94289   5.532   3.699   0.752  0.7946  0.2646  0.2411
  715MOL0     C94290   5.555   3.648   0.607  0.0405  0.2672 -0.2423
  715MOL0     C94291   5.486   3.735   0.508  0.3296 -0.3568  0.7044
  715MOL0    Cl94292   5.554   3.905   0.510  0.4959 -0.0477 -0.7361
  715MOL0     C94293   4.910   4.121   1.199 -0.1039 -0.6552 -0.2138
  715MOL0     C94294   4.795   4.173   1.263 -0.8342  0.3925  0.8167
  715MOL0     O94295   4.429   4.016   1.290  0.6648 -0.7899 -0.7280
  715MOL0     C94296   4.242   4.127   1.438  0.5047 -1.1601 -0.2140
  715MOL0     C94297   4.150   4.194   1.523  0.3067 -0.3714 -0.2980
  715MOL0     N94298   3.848   4.478   2.215 -0.7415  0.3679 -0.5560
  715MOL0     N94299   3.883   4.522   2.335  0.4411  0.5751  0.4055
  715MOL0     C94300   3.131   4.954   2.446  0.1574 -0.1201 -0.4527
  715MOL0     C94301   3.031   4.961   2.536  0.8123  0.0883  0.0911
  715MOL0     C94302   2.608   5.113   2.671  0.4133  0.6407 -1.0592
  715MOL0     C94303   2.497   5.196   2.669  0.6242 -0.9861  0.5122
  715MOL0     C94304   2.384   5.152   2.742 -1.0145  0.6440  0.2457
  715MOL0     C94305   2.383   5.047   2.829  0.0097 -0.4726  0.5730
  715MOL0     O94306   2.263   5.023   2.900  0.2506  0.2457  0.1809
  715MOL0     C94307   2.273   4.955   3.019  0.4060 -0.1532 -0.8542
  715MOL0     C94308   2.296   5.056   3.131  0.8855 -0.2981 -0.0064
  715MOL0     C94309   2.179   5.156   3.140 -0.2369  0.7703 -0.0664
  715MOL0     C94310   2.193   5.283   3.237  0.0675 -0.1249 -0.3505
  715MOL0     C94311   2.106   5.391   3.198 -0.5510 -0.6220 -0.0754
  715MOL0     C94312   2.029   5.479   3.172  0.1811 -0.2621  0.2874
  715MOL0     C94313   2.494   4.963   2.825 -0.4634 -0.4416  0.0804
  715MOL0     C94314   2.604   4.998   2.752  0.8558 -0.0633  0.7555
  715MOL0     H94315   2.944   5.292   2.500  2.8943  1.5931  1.0037
  715MOL0     H94316   3.152   5.270   2.334  1.2869 -0.8276 -0.4787
  715MOL0     H94317   3.348   5.239   2.239 -0.7174 -0.7720  0.3042
  715MOL0     H94318   3.437   5.090   2.192  0.0972  0.3414 -1.8856
  715MOL0     H94319   3.395   5.190   2.486 -1.5063 -2.7945 -0.1233
  715MOL0     H94320   3.546   5.210   2.385  0.0374 -0.0686 -0.8937
  715MOL0     H94321   3.527   4.941   2.385 -1.2685 -1.8210  2.3312
  715MOL0     H94322   3.409   4.981   2.501 -0.6026 -1.7330 -2.0297
  715MOL0     H94323   3.611   5.137   2.611  3.8647  1.6082 -2.8811
  715MOL0     H94324   3.618   4.963   2.633  1.5936  1.2927  1.1411
  715MOL0     H94325   3.824   5.104   2.555 -2.5916  0.9673  3.1384
  715MOL0     H94326   3.767   5.098   2.394  3.7558  5.2181  3.7290
  715MOL0     H94327   3.726   4.856   2.411  0.6992  3.2280 -1.2115
  715MOL0     H94328   3.794   4.841   2.576  1.9463 -1.7107  0.3255
  715MOL0     H94329   3.951   4.924   2.342 -0.6479  4.0413  1.8297
  715MOL0     H94330   4.009   4.924   2.511 -0.1880 -1.5874  1.6974
  715MOL0     H94331   3.965   4.679   2.531  0.3141  0.0921  0.1274
  715MOL0     H94332   4.097   4.723   2.448 -0.0216 -0.7325  2.4008
  715MOL0     H94333   3.969   4.784   2.157 -1.1149  0.4830  0.3187
  715MOL0     H94334   3.831   4.694   1.963 -0.5946  0.7491  1.8317
  715MOL0     H94335   3.734   4.548   1.963  0.6056 -1.1663 -0.8896
  715MOL0     H94336   3.961   4.417   1.941 -1.1466 -1.4299 -0.2702
  715MOL0     H94337   4.034   4.560   1.887 -0.1111 -1.7711 -0.4676
  715MOL0     H94338   3.769   4.455   1.768  1.3207 -0.9122  0.4633
  715MOL0     H94339   3.883   4.580   1.702 -0.1267  1.3007  0.1456
  715MOL0     H94340   3.926   4.352   1.578 -0.3330  1.5179  0.5398
  715MOL0     H94341   3.926   4.272   1.731 -1.4829 -1.3070 -2.7529
  715MOL0     H94342   4.338   4.444   1.648  0.6259  0.5227  0.5665
  715MOL0     H94343   4.504   4.324   1.539  0.9919 -1.9032 -0.2469
  715MOL0     H94344   4.669   3.890   1.383 -1.5409  0.0590 -1.1558
  715MOL0     H94345   4.855   3.800   1.239 -0.4460 -0.0357 -1.0659
  715MOL0     H94346   5.051   3.742   1.198  2.6541 -1.2586 -2.4409
  715MOL0     H94347   5.119   3.856   1.320  1.4168 -2.0276  0.0867
  715MOL0     H94348   5.302   3.733   1.199 -0.6808 -1.7602 -2.2255
  715MOL0     H94349   5.296   3.905   1.132 -1.0237  1.0331  1.1228
  715MOL0     H94350   5.178   3.803   0.942  1.5400  0.7246 -1.1476
  715MOL0     H94351   5.184   3.648   1.032 -2.1529  1.6844  1.6137
  715MOL0     H94352   5.440   3.793   0.986 -2.3910  1.2152  1.2459
  715MOL0     H94353   5.414   3.619   0.999  1.7673  1.4402  1.8138
  715MOL0     H94354   5.333   3.800   0.764  2.4035  1.5534  0.2339
  715MOL0     H94355   5.329   3.622   0.753 -1.5253  0.2436  0.2105
  715MOL0     H94356   5.581   3.626   0.819 -0.8581 -1.6924 -0.5834
  715MOL0     H94357   5.583   3.792   0.778  0.3562  0.2526  1.1865
  715MOL0     H94358   5.662   3.648   0.584 -0.3640 -1.2716 -2.4551
  715MOL0     H94359   5.524   3.543   0.605 -1.0847  0.5737  0.2209
  715MOL0     H94360   5.381   3.735   0.538  0.2383 -0.2946  0.3829
  715MOL0     H94361   5.506   3.681   0.415  1.4495  1.8718 -0.4193
  715MOL0     H94362   4.979   4.198   1.166 -3.5920  2.7752 -0.2123
  715MOL0     H94363   4.785   4.281   1.270  0.2660  0.4434  2.3110
  715MOL0     H94364   4.209   4.049   1.370  0.3903 -0.2416 -1.2465
  715MOL0     H94365   4.044   4.170   1.520  0.3120 -0.7746  1.5398
  715MOL0     H94366   3.200   4.875   2.418  0.8609  0.1707  0.3966
  715MOL0     H94367   3.004   4.868   2.585  1.2019 -0.9642 -1.6071
  715MOL0     H94368   2.492   5.285   2.606  1.3828  0.0303  1.8370
  715MOL0     H94369   2.304   5.225   2.746 -0.5340  1.3493 -1.9899
  715MOL0     H94370   2.342   4.872   3.034  1.4934  0.9529  0.5162
  715MOL0     H94371   2.172   4.916   3.038  1.4732 -3.3878 -1.2592
  715MOL0     H94372   2.325   4.999   3.220  2.1586  2.1516  1.2708
  715MOL0     H94373   2.393   5.099   3.104  1.7042 -2.4243 -0.7156
  715MOL0     H94374   2.092   5.097   3.170  0.0987 -0.8978 -2.1466
  715MOL0     H94375   2.152   5.198   3.042 -3.9219  2.9141  1.6391
  715MOL0     H94376   2.169   5.271   3.343 -1.6024  2.6371 -0.3182
  715MOL0     H94377   2.295   5.322   3.226 -0.5859  1.5300 -0.9713
  715MOL0     H94378   1.964   5.560   3.147  0.2712 -0.5069 -0.8173
  715MOL0     H94379   2.486   4.876   2.889 -0.7536 -0.3059  0.2317
  715MOL0     H94380   2.685   4.926   2.755  2.0191  0.8789 -2.7406
  716MOL0     O94381   1.747   6.956   9.671 -0.6769 -0.2299  0.1408
  716MOL0     C94382   1.829   6.938   9.583  0.2861 -0.3307 -0.9785
  716MOL0     O94383   1.902   7.027   9.520 -0.0626 -0.7286 -0.1878
  716MOL0     C94384   1.869   7.157   9.549  0.7480  0.2690  0.6969
  716MOL0     C94385   1.953   7.243   9.617  0.0669  0.1133 -0.1649
  716MOL0     C94386   1.932   7.381   9.619  0.7473  0.1208  0.7823
  716MOL0     C94387   1.817   7.436   9.561 -0.0514 -0.5991  0.4038
  716MOL0     O94388   1.806   7.571   9.585  0.7345 -0.5410 -0.4092
  716MOL0     C94389   1.678   7.624   9.576 -0.0101 -0.4512 -0.9000
  716MOL0     C94390   1.668   7.675   9.424  0.6277 -0.4949 -0.1126
  716MOL0     C94391   1.748   7.793   9.391  0.5113  0.4139  0.1761
  716MOL0     C94392   1.757   7.812   9.237  0.3916 -0.6366  0.5503
  716MOL0     C94393   1.802   7.945   9.183  0.6243 -1.0410 -1.0539
  716MOL0     C94394   1.715   8.073   9.186 -0.9868  0.0054  0.3778
  716MOL0     C94395   1.776   8.193   9.104  0.0473  0.9173  0.2371
  716MOL0     C94396   1.701   8.324   9.146  0.6017  0.6568 -0.0617
  716MOL0     N94397   1.709   8.443   9.069  0.5273  0.4569 -0.0731
  716MOL0     C94398   1.823   8.517   9.052 -0.9587  0.4576 -0.1410
  716MOL0     C94399   1.784   8.628   8.993  0.1821  0.3430 -0.6596
  716MOL0     C94400   1.877   8.740   8.967 -0.5958 -0.1326  0.7056
  716MOL0     C94401   1.912   8.827   9.096 -0.6564 -0.3760 -0.0301
  716MOL0     C94402   1.940   8.749   9.223 -0.0645  0.4012  0.4969
  716MOL0     C94403   2.006   8.820   9.338  1.1627 -0.2790  0.2039
  716MOL0     O94404   2.132   8.880   9.288  0.0480 -0.3017  0.2431
  716MOL0     C94405   2.168   9.002   9.335  0.0206 -0.1817  0.4085
  716MOL0     C94406   2.137   9.067   9.451  0.2521 -0.2782  0.0865
  716MOL0     C94407   2.182   9.195   9.478 -0.1695  1.1152 -0.1406
  716MOL0     C94408   2.266   9.265   9.395 -0.7596 -0.3547  0.4834
  716MOL0     C94409   2.311   9.404   9.415  0.5137  0.2870  0.2885
  716MOL0     O94410   2.342   9.474   9.300 -0.2819 -0.0722  0.2092
  716MOL0     C94411   2.411   9.594   9.314 -0.0971 -0.2505  0.2263
  716MOL0     C94412   2.377   9.687   9.212  0.0000  0.3025 -0.9465
  716MOL0     C94413   2.418   9.820   9.218 -0.2915  0.1896  0.1920
  716MOL0     C94414   2.502   9.863   9.325 -0.6641 -0.1229  0.3978
  716MOL0     O94415   2.568   9.988   9.339  0.3251  0.2406 -0.1514
  716MOL0     C94416   2.512  10.091   9.260 -0.3545  0.4580  0.1328
  716MOL0     C94417   2.585  10.216   9.304 -1.3095 -0.0163  0.1919
  716MOL0     C94418   2.563  10.316   9.194 -0.8480  0.6671 -0.0425
  716MOL0     C94419   2.620  10.454   9.235 -0.3546  0.8856  0.7600
  716MOL0     C94420   2.599  10.563   9.134  1.3459 -0.2763 -0.3984
  716MOL0     C94421   2.687  10.570   9.006  0.0042 -0.5961  0.5134
  716MOL0     C94422   2.659  10.695   8.939 -0.8112  0.5254  0.4250
  716MOL0     C94423   2.546  10.680   8.834 -0.7005 -0.2570 -0.4044
  716MOL0    Cl94424   2.527  10.841   8.736 -0.1017 -0.1835 -0.0154
  716MOL0     C94425   2.532   9.767   9.419  0.4519 -0.4471 -0.4341
  716MOL0     C94426   2.486   9.633   9.422 -0.3442 -1.0098 -0.1048
  716MOL0     O94427   2.310   9.449   9.528 -0.3363  0.4911  0.5851
  716MOL0     C94428   2.320   9.189   9.290 -0.0645 -1.1547  0.0767
  716MOL0     C94429   2.262   9.068   9.260 -0.9804  0.4693  0.2469
  716MOL0     N94430   1.650   8.615   8.966  0.5066 -0.2325  0.2706
  716MOL0     N94431   1.608   8.506   9.018 -0.4262 -0.3843 -0.1226
  716MOL0     C94432   1.738   7.354   9.485  0.2048 -0.6456  0.1224
  716MOL0     C94433   1.764   7.212   9.473  0.3441 -0.6282 -0.9373
  716MOL0     C94434   1.844   6.798   9.535 -0.9203 -0.3789 -0.3145
  716MOL0     C94435   1.906   6.776   9.408  0.7819  0.1885  0.3311
  716MOL0     C94436   1.908   6.644   9.354 -0.6087  0.0690  0.2445
  716MOL0     C94437   1.847   6.537   9.414 -0.0231  0.0262  0.1365
  716MOL0     O94438   1.859   6.423   9.346 -0.3733  0.1054  0.4219
  716MOL0     C94439   1.823   6.299   9.396  0.2546  0.5867 -0.6332
  716MOL0     C94440   1.938   6.243   9.479 -0.5258 -0.9498 -0.0239
  716MOL0     C94441   1.912   6.111   9.556  0.2016  0.1831  0.0752
  716MOL0     C94442   1.840   6.004   9.472  0.9517 -0.0184 -0.4145
  716MOL0     C94443   1.877   5.867   9.512 -0.3060 -0.1064  0.1090
  716MOL0     C94444   1.892   5.748   9.527 -0.5094 -0.5758  0.2662
  716MOL0     C94445   1.789   6.558   9.541 -0.3855 -0.1027  0.3779
  716MOL0     C94446   1.787   6.683   9.602  0.1928 -0.0268 -0.2625
  716MOL0     H94447   2.038   7.198   9.668 -0.9124 -0.2744  1.1739
  716MOL0     H94448   1.999   7.431   9.688  1.9854 -1.5930  0.8929
  716MOL0     H94449   1.671   7.707   9.647 -5.3435  1.8423 -3.4865
  716MOL0     H94450   1.590   7.562   9.598 -0.8878  1.9540  3.4846
  716MOL0     H94451   1.563   7.697   9.404  0.2916 -0.9506  1.0442
  716MOL0     H94452   1.712   7.593   9.366 -0.5938 -1.7036  0.6149
  716MOL0     H94453   1.849   7.785   9.431  0.6363  0.3458 -0.1555
  716MOL0     H94454   1.692   7.882   9.422  0.5719  1.3411 -2.2200
  716MOL0     H94455   1.826   7.733   9.205  1.4792  0.8754 -1.0339
  716MOL0     H94456   1.660   7.793   9.189  0.4748  1.2130 -0.4293
  716MOL0     H94457   1.816   7.933   9.075 -3.2647  3.2780 -2.3649
  716MOL0     H94458   1.897   7.969   9.231 -0.0985 -0.9761  0.3982
  716MOL0     H94459   1.701   8.105   9.290  1.6815  2.6283  0.0493
  716MOL0     H94460   1.617   8.044   9.145 -0.0362  1.1038 -2.9700
  716MOL0     H94461   1.881   8.205   9.129  0.7587 -0.7626 -1.6926
  716MOL0     H94462   1.771   8.170   8.997  0.2582  1.5927  0.0737
  716MOL0     H94463   1.725   8.347   9.250 -4.0371  3.1358  0.7046
  716MOL0     H94464   1.596   8.296   9.149  1.1165 -1.3760  0.6346
  716MOL0     H94465   1.915   8.471   9.086 -2.1702 -1.5991  0.6055
  716MOL0     H94466   1.832   8.809   8.895  4.3197  2.0327 -0.7050
  716MOL0     H94467   1.975   8.706   8.931 -2.0389 -2.9743 -0.8154
  716MOL0     H94468   1.814   8.875   9.104 -0.6329 -0.5555  1.7122
  716MOL0     H94469   1.994   8.895   9.070  0.7364 -1.5223  1.1980
  716MOL0     H94470   1.841   8.722   9.262 -2.2041  3.5641 -2.1246
  716MOL0     H94471   2.012   8.675   9.187  1.0293  1.9956 -0.7580
  716MOL0     H94472   2.033   8.746   9.414  0.8577 -1.3167 -0.6723
  716MOL0     H94473   1.941   8.900   9.376  0.8370 -0.0666 -0.7813
  716MOL0     H94474   2.075   9.015   9.523 -0.2334  0.1875  0.0176
  716MOL0     H94475   2.156   9.239   9.573  1.4950 -0.2009  0.9692
  716MOL0     H94476   2.328   9.640   9.127 -1.3380 -0.7660  0.3840
  716MOL0     H94477   2.381   9.881   9.136 -3.2702  0.6633  1.7174
  716MOL0     H94478   2.404  10.106   9.265 -0.0660  2.4574  1.2050
  716MOL0     H94479   2.528  10.062   9.156  2.5262 -1.3557  0.9692
  716MOL0     H94480   2.693  10.198   9.310 -0.9285  0.2742 -3.5101
  716MOL0     H94481   2.548  10.246   9.402  1.5625 -0.8442  1.6446
  716MOL0     H94482   2.456  10.316   9.173 -0.5074  2.2000 -2.0649
  716MOL0     H94483   2.604  10.277   9.100  0.7067 -2.3994  1.7384
  716MOL0     H94484   2.569  10.480   9.329 -0.8146 -1.5675  1.2677
  716MOL0     H94485   2.728  10.439   9.243 -0.5608 -0.6762  1.0090
  716MOL0     H94486   2.587  10.656   9.189 -1.3486 -1.3469  1.0166
  716MOL0     H94487   2.496  10.542   9.102  0.0348  2.2825  1.8217
  716MOL0     H94488   2.655  10.498   8.930  0.6843 -0.8297  0.4373
  716MOL0     H94489   2.791  10.566   9.042  0.4073 -0.1180 -0.5577
  716MOL0     H94490   2.649  10.780   9.007  1.4871  2.3453 -1.3514
  716MOL0     H94491   2.749  10.723   8.884 -1.2578  0.7180 -0.2197
  716MOL0     H94492   2.450  10.676   8.887 -1.0797  1.2241 -0.9358
  716MOL0     H94493   2.570  10.590   8.776  1.4330 -2.5058  3.5444
  716MOL0     H94494   2.594   9.805   9.500 -3.1921  0.6295  2.1241
  716MOL0     H94495   2.510   9.579   9.513  0.5717 -0.2773  0.1093
  716MOL0     H94496   2.407   9.223   9.235  0.6563  2.6676  3.1467
  716MOL0     H94497   2.298   9.018   9.170  0.5419  1.1445  0.4503
  716MOL0     H94498   1.650   7.390   9.432 -1.0876  0.9171  3.0739
  716MOL0     H94499   1.699   7.152   9.410 -1.5074 -1.2150  1.3608
  716MOL0     H94500   1.944   6.857   9.348 -0.7640 -0.6562 -1.9352
  716MOL0     H94501   1.952   6.625   9.257 -3.0776 -3.3784 -0.3989
  716MOL0     H94502   1.808   6.216   9.325 -2.2302  0.3074  0.1510
  716MOL0     H94503   1.740   6.304   9.466  2.2641  2.0734  1.8442
  716MOL0     H94504   2.020   6.226   9.409  0.4300  0.0649  0.7982
  716MOL0     H94505   1.973   6.313   9.556 -1.7672  0.1419 -0.4102
  716MOL0     H94506   1.847   6.128   9.642 -0.0063 -0.7330  0.1113
  716MOL0     H94507   2.005   6.073   9.598  1.6715  2.2250 -1.1017
  716MOL0     H94508   1.730   6.012   9.476  1.0601  1.7863  0.0617
  716MOL0     H94509   1.887   6.012   9.373  0.7049  0.4632 -0.4995
  716MOL0     H94510   1.916   5.648   9.558 -2.3016 -0.3357  2.7714
  716MOL0     H94511   1.746   6.469   9.584 -0.1273 -0.2482  0.3370
  716MOL0     H94512   1.744   6.694   9.701 -0.9241 -2.5549 -0.3888
  717MOL0     O94513   6.084   4.710   0.472  0.0749  0.5704  0.4610
  717MOL0     C94514   6.110   4.829   0.463 -1.2739 -0.4828 -0.4963
  717MOL0     O94515   6.235   4.885   0.429 -0.2734 -0.7794  0.0037
  717MOL0     C94516   6.335   4.806   0.395  0.7412  0.2250 -0.7652
  717MOL0     C94517   6.447   4.773   0.478  0.0556  0.5210  0.0524
  717MOL0     C94518   6.555   4.702   0.419 -0.9704  0.1305 -0.1007
  717MOL0     C94519   6.549   4.662   0.287  0.0426  0.6405 -0.8419
  717MOL0     O94520   6.663   4.604   0.234  0.2274 -0.0956  0.2142
  717MOL0     C94521   6.710   4.483   0.296 -0.0233 -0.4152 -0.5447
  717MOL0     C94522   6.786   4.401   0.195  0.1622 -0.6023 -0.4770
  717MOL0     C94523   6.709   4.343   0.080 -0.6061  0.1929 -0.0473
  717MOL0     C94524   6.622   4.223   0.113 -0.2373 -0.4595 -0.3845
  717MOL0     C94525   6.696   4.113   0.184  0.2782 -0.2449  0.8367
  717MOL0     C94526   6.614   3.987   0.199  0.1608  0.5313 -0.2657
  717MOL0     C94527   6.473   4.001   0.241  0.0725  0.5868 -0.3585
  717MOL0     C94528   6.409   3.860   0.280 -1.0653 -0.2813  1.1736
  717MOL0     N94529   6.285   3.880   0.356 -0.6711  0.0505 -0.2609
  717MOL0     C94530   6.181   3.948   0.307  0.2161  0.0453  0.3493
  717MOL0     C94531   6.073   3.919   0.399 -0.2351 -1.1942 -0.5515
  717MOL0     C94532   5.929   3.952   0.369  0.7156 -0.0101  0.4524
  717MOL0     C94533   5.870   3.852   0.270 -0.4465  0.7307  1.2710
  717MOL0     C94534   5.843   3.712   0.330  0.7918 -0.9101 -0.4350
  717MOL0     C94535   5.950   3.619   0.294  0.0893  0.0845 -0.1041
  717MOL0     O94536   5.917   3.490   0.341 -0.6235 -0.4419  0.1190
  717MOL0     C94537   5.998   3.379   0.322  0.2527 -0.9557 -0.1662
  717MOL0     C94538   6.127   3.384   0.287 -0.0736 -1.1225 -0.6081
  717MOL0     C94539   6.199   3.266   0.282  0.4290  1.2009  0.0310
  717MOL0     C94540   6.140   3.146   0.323 -0.2685 -0.2108 -0.4319
  717MOL0     C94541   6.218   3.022   0.338  0.0884  0.3003  0.7205
  717MOL0     O94542   6.341   3.038   0.281 -0.0513  0.1191  0.4267
  717MOL0     C94543   6.429   2.932   0.278  0.5073  0.2899 -0.6779
  717MOL0     C94544   6.427   2.821   0.199  0.0628 -0.4059 -0.3165
  717MOL0     C94545   6.537   2.729   0.208  0.1648  0.7576 -0.4400
  717MOL0     C94546   6.648   2.753   0.291 -0.6159  0.8025  0.6080
  717MOL0     O94547   6.754   2.665   0.280  0.9381 -0.2495  0.7803
  717MOL0     C94548   6.887   2.701   0.317  0.3542  0.7347  0.2165
  717MOL0     C94549   6.927   2.658   0.457 -0.1162  0.8273 -0.5559
  717MOL0     C94550   7.076   2.692   0.487  0.6825  0.4782  0.1555
  717MOL0     C94551   7.106   2.691   0.638  0.5542  0.3417  0.2338
  717MOL0     C94552   7.253   2.703   0.671  0.1211  0.3500 -0.4491
  717MOL0     C94553   7.292   2.660   0.814 -0.4932 -0.5769  0.8037
  717MOL0     C94554   7.242   2.515   0.850  0.0527 -0.2685 -0.5066
  717MOL0     C94555   7.331   2.431   0.946  0.5501 -0.5189 -0.6005
  717MOL0    Cl94556   7.477   2.372   0.870 -0.3681  0.1886  0.1820
  717MOL0     C94557   6.638   2.857   0.369  0.2406  0.0583  0.2511
  717MOL0     C94558   6.536   2.950   0.364 -0.3981 -0.1151 -0.0495
  717MOL0     O94559   6.173   2.916   0.389 -0.3267  0.0577 -0.2319
  717MOL0     C94560   5.999   3.144   0.341 -0.5321  0.3291 -0.2392
  717MOL0     C94561   5.934   3.263   0.341 -0.6389  0.2590 -1.5295
  717MOL0     N94562   6.130   3.840   0.502  0.0630  0.4088  0.5210
  717MOL0     N94563   6.256   3.817   0.466 -0.1462 -0.0241 -0.9922
  717MOL0     C94564   6.445   4.698   0.199 -1.5756  0.3687  0.4934
  717MOL0     C94565   6.336   4.763   0.258 -1.1140 -0.6347  0.1776
  717MOL0     C94566   6.002   4.911   0.536  0.7957  0.3738 -0.4290
  717MOL0     C94567   6.021   5.044   0.559  0.0740 -0.8145  0.5091
  717MOL0     C94568   5.925   5.114   0.635 -0.1677 -0.0865 -0.9965
  717MOL0     C94569   5.801   5.064   0.674 -0.6340 -0.2804 -0.2545
  717MOL0     O94570   5.713   5.137   0.748  0.2027  1.0902 -0.0650
  717MOL0     C94571   5.579   5.090   0.750 -0.8208 -0.5260 -0.5560
  717MOL0     C94572   5.500   5.119   0.628  0.6370  1.0263 -0.7667
  717MOL0     C94573   5.493   5.267   0.599  0.7082 -0.5385  0.4441
  717MOL0     C94574   5.606   5.314   0.507  0.0391 -0.5151  1.2565
  717MOL0     C94575   5.597   5.259   0.359  0.5378 -0.6959  0.7180
  717MOL0     C94576   5.603   5.192   0.249  0.1669  0.2508 -0.0135
  717MOL0     C94577   5.783   4.929   0.640  0.6218  0.2655  0.3806
  717MOL0     C94578   5.877   4.848   0.572  0.2683  0.1947  0.0546
  717MOL0     H94579   6.428   4.810   0.578 -2.0224  1.5468 -0.6589
  717MOL0     H94580   6.647   4.683   0.473  0.9570  5.6788 -0.7676
  717MOL0     H94581   6.623   4.437   0.344  0.4054  1.3761  2.1219
  717MOL0     H94582   6.773   4.510   0.381 -3.7216 -0.6848  2.5057
  717MOL0     H94583   6.836   4.318   0.245  1.2195 -0.5043 -1.3230
  717MOL0     H94584   6.873   4.459   0.160  0.9682 -2.8097 -2.4208
  717MOL0     H94585   6.779   4.316  -0.000 -1.7109 -0.7197 -0.7469
  717MOL0     H94586   6.641   4.418   0.038  1.6769  1.0187 -2.5820
  717MOL0     H94587   6.542   4.254   0.181 -0.3224 -1.2596 -0.1175
  717MOL0     H94588   6.573   4.185   0.023 -0.0908 -3.0266  0.5550
  717MOL0     H94589   6.716   4.142   0.287 -0.6858 -3.6485  2.1194
  717MOL0     H94590   6.785   4.077   0.132 -0.6792 -4.7431  1.8793
  717MOL0     H94591   6.672   3.914   0.256 -1.6503 -1.7989 -1.2480
  717MOL0     H94592   6.618   3.940   0.100  2.9965 -0.2512  0.1303
  717MOL0     H94593   6.458   4.069   0.326 -0.6310  0.2299 -0.1802
  717MOL0     H94594   6.422   4.035   0.151  0.2361 -3.2045 -2.0586
  717MOL0     H94595   6.478   3.808   0.348  3.4684  0.9544 -1.9527
  717MOL0     H94596   6.401   3.783   0.202  2.5223 -0.0236  0.3764
  717MOL0     H94597   6.169   4.000   0.213 -0.9317 -1.6248 -0.4731
  717MOL0     H94598   5.927   4.047   0.316  0.7341 -0.1166  0.2626
  717MOL0     H94599   5.866   3.956   0.459  1.9926 -2.7795  1.5949
  717MOL0     H94600   5.938   3.833   0.186  1.9191  2.2693  2.7243
  717MOL0     H94601   5.773   3.888   0.235 -0.4134 -0.4832 -0.1624
  717MOL0     H94602   5.833   3.710   0.439 -1.2589 -2.5186 -0.6042
  717MOL0     H94603   5.759   3.663   0.281  2.1867 -0.8400 -3.0780
  717MOL0     H94604   6.039   3.664   0.339 -0.1035 -0.7150  1.1000
  717MOL0     H94605   5.981   3.620   0.189 -3.4683  0.9225 -1.3107
  717MOL0     H94606   6.173   3.480   0.264  0.6375 -0.9544  1.2601
  717MOL0     H94607   6.303   3.284   0.257  0.7023  1.1471  1.0731
  717MOL0     H94608   6.339   2.800   0.138 -0.3390  0.0088  0.1071
  717MOL0     H94609   6.541   2.636   0.153  3.7435  1.9385 -2.4366
  717MOL0     H94610   6.887   2.810   0.306 -2.0859  0.6528 -1.5919
  717MOL0     H94611   6.952   2.657   0.240 -0.7230 -3.1468  1.3381
  717MOL0     H94612   6.905   2.551   0.460  1.9348  0.3916  1.1737
  717MOL0     H94613   6.870   2.710   0.535 -0.9212 -1.3799  0.4016
  717MOL0     H94614   7.112   2.789   0.452  2.2947  0.5656  1.9333
  717MOL0     H94615   7.141   2.624   0.431  0.8104  0.7064  0.0261
  717MOL0     H94616   7.049   2.771   0.687  1.8005  1.4778 -0.0985
  717MOL0     H94617   7.073   2.596   0.680 -0.8139  0.8257  0.3118
  717MOL0     H94618   7.281   2.808   0.662  1.6007 -0.1450 -2.1732
  717MOL0     H94619   7.297   2.634   0.599 -2.2188  0.3596 -2.0256
  717MOL0     H94620   7.257   2.734   0.887 -1.5549 -0.1348 -0.1192
  717MOL0     H94621   7.402   2.666   0.816 -0.4418  0.8633 -1.6435
  717MOL0     H94622   7.142   2.517   0.894  0.8307  2.0148  1.3473
  717MOL0     H94623   7.233   2.460   0.756  1.6177  0.5499 -1.1708
  717MOL0     H94624   7.272   2.343   0.976  0.2201 -0.7063 -1.7676
  717MOL0     H94625   7.358   2.490   1.034 -2.9309  1.6672 -0.8199
  717MOL0     H94626   6.718   2.878   0.439  3.0476  0.3411 -2.8323
  717MOL0     H94627   6.553   3.030   0.435 -0.8115  0.5921 -0.7225
  717MOL0     H94628   5.952   3.048   0.361 -1.0253  0.8416  1.1954
  717MOL0     H94629   5.827   3.265   0.360 -0.3383  1.2023  0.2875
  717MOL0     H94630   6.453   4.678   0.093  0.4870 -0.7991  0.8168
  717MOL0     H94631   6.265   4.798   0.183 -1.1247 -1.6983 -0.3342
  717MOL0     H94632   6.109   5.085   0.511  0.4741  0.0317  1.9088
  717MOL0     H94633   5.920   5.221   0.652 -0.0658 -0.1631 -0.4653
  717MOL0     H94634   5.525   5.141   0.831  1.3465 -0.3879  0.8929
  717MOL0     H94635   5.586   4.987   0.784  1.5480  0.1534  1.2432
  717MOL0     H94636   5.552   5.076   0.541 -1.3660  0.3436 -1.6999
  717MOL0     H94637   5.404   5.069   0.645  0.7113  0.8829 -0.7606
  717MOL0     H94638   5.492   5.323   0.693 -0.8724 -1.2607  0.8878
  717MOL0     H94639   5.398   5.301   0.557  0.9177  1.7148  1.6273
  717MOL0     H94640   5.594   5.422   0.504 -3.3879 -0.7763  1.7045
  717MOL0     H94641   5.705   5.287   0.544  1.4005 -0.8964 -2.2139
  717MOL0     H94642   5.603   5.142   0.154  0.1707  2.1708 -1.0847
  717MOL0     H94643   5.696   4.874   0.674  2.6840 -2.4850  1.6695
  717MOL0     H94644   5.865   4.740   0.571  2.3582 -0.0857 -0.6802
  718MOL0     O94645   3.834   4.961   0.295 -0.9805  0.0689 -0.1507
  718MOL0     C94646   3.775   4.876   0.240  0.3473  0.8781  0.1490
  718MOL0     O94647   3.636   4.861   0.244 -0.0523  0.2637  0.7391
  718MOL0     C94648   3.563   4.955   0.312 -1.2964 -0.1654 -0.4423
  718MOL0     C94649   3.533   5.079   0.254 -0.1784  0.2715  0.2845
  718MOL0     C94650   3.436   5.166   0.314 -0.8835 -0.4758  0.3500
  718MOL0     C94651   3.377   5.139   0.436 -1.4621 -0.3705 -0.6977
  718MOL0     O94652   3.287   5.231   0.491 -0.1804  0.0883 -0.1601
  718MOL0     C94653   3.229   5.214   0.618  0.1717  0.3873  0.4541
  718MOL0     C94654   3.154   5.344   0.650 -0.4206  0.9619 -0.8641
  718MOL0     C94655   3.105   5.362   0.791 -0.0812 -0.2665 -0.6762
  718MOL0     C94656   2.974   5.283   0.837 -1.2355 -0.5147 -0.2141
  718MOL0     C94657   2.921   5.317   0.976 -0.9748 -0.0037 -0.0990
  718MOL0     C94658   2.902   5.468   1.009 -0.8189  1.0896 -0.0437
  718MOL0     C94659   2.818   5.555   0.913  0.3641  1.2144 -0.2757
  718MOL0     C94660   2.787   5.688   0.979 -0.4676  1.0487 -0.1066
  718MOL0     N94661   2.704   5.762   0.890  0.4768  0.2824 -0.2206
  718MOL0     C94662   2.733   5.809   0.762 -0.0057  0.1689  0.2913
  718MOL0     C94663   2.612   5.853   0.713  0.3583 -0.4008  0.3094
  718MOL0     C94664   2.601   5.916   0.576 -0.0593  0.6524 -0.2362
  718MOL0     C94665   2.629   6.062   0.575 -0.3589 -0.4312  0.0132
  718MOL0     C94666   2.632   6.143   0.439  0.4063  0.4402  0.2428
  718MOL0     C94667   2.705   6.068   0.339 -0.0224  1.1207 -0.3024
  718MOL0     O94668   2.845   6.084   0.365  0.4871 -0.3494  0.0770
  718MOL0     C94669   2.920   6.004   0.290 -0.3386 -0.2987  0.1355
  718MOL0     C94670   3.051   6.049   0.261 -0.0376  0.1378 -0.0060
  718MOL0     C94671   3.135   5.980   0.180 -0.4544 -0.1977 -0.4927
  718MOL0     C94672   3.097   5.857   0.133 -1.0678  0.0312 -0.4922
  718MOL0     C94673   3.187   5.769   0.050 -0.0655  0.8161 -1.8240
  718MOL0     O94674   3.157   5.637   0.042  0.0605 -0.2018  0.0201
  718MOL0     C94675   3.234   5.545  -0.029 -0.7013 -0.9794 -0.0130
  718MOL0     C94676   3.292   5.576  -0.157 -0.8812 -0.0079  0.0426
  718MOL0     C94677   3.374   5.477  -0.226 -0.6869 -0.5394 -0.0285
  718MOL0     C94678   3.378   5.349  -0.175 -0.0104  0.4902  0.1766
  718MOL0     O94679   3.465   5.249  -0.222  0.2252  0.2291  0.2409
  718MOL0     C94680   3.515   5.267  -0.349 -0.2167 -0.6009 -0.3882
  718MOL0     C94681   3.610   5.151  -0.386 -0.2196 -0.6623 -0.9290
  718MOL0     C94682   3.626   5.117  -0.546  0.5672 -0.1790  0.0529
  718MOL0     C94683   3.736   5.016  -0.565  0.1608 -0.1698  0.0656
  718MOL0     C94684   3.814   5.024  -0.699  0.1903 -0.0375  0.4735
  718MOL0     C94685   3.717   4.996  -0.817 -0.5308 -0.3855 -0.4495
  718MOL0     C94686   3.802   4.980  -0.944 -1.0801 -0.8943  0.0847
  718MOL0     C94687   3.841   4.829  -0.966 -0.8057  0.0237  0.5451
  718MOL0    Cl94688   3.710   4.762  -1.072 -0.0187  0.0619 -0.7170
  718MOL0     C94689   3.326   5.329  -0.041 -0.0669  1.2231  0.5038
  718MOL0     C94690   3.245   5.423   0.026  0.4508 -0.0822  0.7513
  718MOL0     O94691   3.283   5.823   0.005 -0.3211  0.9711  0.6259
  718MOL0     C94692   2.970   5.804   0.168  0.5540 -0.2255  0.1971
  718MOL0     C94693   2.878   5.885   0.232 -1.1636 -0.5171 -0.5221
  718MOL0     N94694   2.522   5.852   0.812 -0.3762  0.4221  0.7525
  718MOL0     N94695   2.574   5.778   0.912 -0.7553 -0.4639  0.3033
  718MOL0     C94696   3.395   5.014   0.496  0.2663 -0.3261 -0.1707
  718MOL0     C94697   3.481   4.922   0.432 -0.5435 -0.4040  1.1420
  718MOL0     C94698   3.846   4.784   0.140  0.0608 -0.6007 -0.6662
  718MOL0     C94699   3.771   4.689   0.064 -0.3845  0.2705  0.3644
  718MOL0     C94700   3.830   4.606  -0.025  0.9945 -0.0993 -0.1084
  718MOL0     C94701   3.961   4.619  -0.058  0.3529  0.6378  0.8874
  718MOL0     O94702   4.027   4.546  -0.155  0.0326 -0.6069 -0.4892
  718MOL0     C94703   3.949   4.466  -0.240 -0.1165  0.1332  0.2458
  718MOL0     C94704   4.035   4.417  -0.363 -0.6298  0.8488 -0.7059
  718MOL0     C94705   4.114   4.528  -0.444 -0.4596 -0.4397  0.7701
  718MOL0     C94706   4.015   4.638  -0.491  0.4667 -0.1931  0.5675
  718MOL0     C94707   4.007   4.754  -0.413  0.1073 -0.9756 -1.3021
  718MOL0     C94708   4.017   4.837  -0.329  0.5824  0.7208 -0.0689
  718MOL0     C94709   4.032   4.717  -0.005 -0.5359 -0.3839  0.4204
  718MOL0     C94710   3.982   4.806   0.094  0.1946 -0.3733  0.0467
  718MOL0     H94711   3.588   5.095   0.162  1.6289 -3.1010  0.6132
  718MOL0     H94712   3.408   5.261   0.269 -0.4019 -1.3022 -1.8171
  718MOL0     H94713   3.306   5.182   0.689  1.0892  2.1917  0.3138
  718MOL0     H94714   3.161   5.128   0.608 -0.0769  0.7920 -2.0410
  718MOL0     H94715   3.060   5.351   0.593  0.5574  0.2207 -2.6672
  718MOL0     H94716   3.205   5.436   0.622 -1.0074  1.2842 -0.8826
  718MOL0     H94717   3.092   5.468   0.816 -2.1883 -1.1677  2.8513
  718MOL0     H94718   3.187   5.344   0.862 -0.7506  0.1283  0.2261
  718MOL0     H94719   2.895   5.301   0.763 -0.6689 -1.6643 -1.1341
  718MOL0     H94720   3.014   5.181   0.838  0.6876  0.1908 -0.9856
  718MOL0     H94721   2.992   5.275   1.048  0.1517  0.1965 -1.0662
  718MOL0     H94722   2.824   5.267   0.982 -1.7302  1.1554 -1.8960
  718MOL0     H94723   3.004   5.502   0.991  0.6324 -3.4803 -2.1280
  718MOL0     H94724   2.876   5.492   1.112 -4.5908 -0.2647 -0.5054
  718MOL0     H94725   2.866   5.574   0.817  3.7994 -0.1615  1.0223
  718MOL0     H94726   2.727   5.502   0.884  2.0711 -2.2358  0.1445
  718MOL0     H94727   2.887   5.733   0.988  0.2856 -0.3613 -1.1068
  718MOL0     H94728   2.738   5.673   1.076  2.2346 -3.0905  0.8992
  718MOL0     H94729   2.823   5.790   0.704 -0.8076  0.2740 -1.0374
  718MOL0     H94730   2.514   5.895   0.513  0.6352 -1.5893 -0.5387
  718MOL0     H94731   2.678   5.869   0.514  0.6806  4.4091 -2.4429
  718MOL0     H94732   2.730   6.068   0.616  0.5677  1.8090 -2.2974
  718MOL0     H94733   2.568   6.106   0.654  0.2618 -3.7343  2.5489
  718MOL0     H94734   2.528   6.141   0.403  1.0293 -1.8557 -1.6409
  718MOL0     H94735   2.666   6.246   0.452  0.8013 -0.0368  4.5586
  718MOL0     H94736   2.698   6.108   0.237 -0.1728  0.0937 -0.7031
  718MOL0     H94737   2.673   5.964   0.345  2.2034  0.4479  2.2288
  718MOL0     H94738   3.084   6.143   0.303  0.2517 -1.0347  2.5546
  718MOL0     H94739   3.237   6.011   0.163 -0.7875  0.6707 -0.9375
  718MOL0     H94740   3.278   5.674  -0.202 -3.7200  0.0054  0.7797
  718MOL0     H94741   3.432   5.528  -0.302 -1.8676  2.4142  0.8891
  718MOL0     H94742   3.559   5.365  -0.367  0.0127 -0.4434  0.9104
  718MOL0     H94743   3.422   5.267  -0.406  0.0404  2.0736 -0.9022
  718MOL0     H94744   3.565   5.059  -0.347  2.3227 -1.0440  1.4551
  718MOL0     H94745   3.709   5.159  -0.340 -0.8742  0.9880  0.2698
  718MOL0     H94746   3.672   5.203  -0.594  1.1489 -0.4798  0.0637
  718MOL0     H94747   3.530   5.082  -0.584  1.4677 -3.0950  0.1861
  718MOL0     H94748   3.801   5.009  -0.477 -2.2764 -2.0405  1.8636
  718MOL0     H94749   3.686   4.918  -0.563 -2.3870  1.0208 -0.8139
  718MOL0     H94750   3.890   4.946  -0.695 -0.4968 -0.6769  1.7814
  718MOL0     H94751   3.864   5.121  -0.706  0.2999 -0.0661  0.8565
  718MOL0     H94752   3.652   5.083  -0.829  2.0663  1.9197  1.0603
  718MOL0     H94753   3.660   4.906  -0.792 -2.6081  0.3401 -2.2551
  718MOL0     H94754   3.750   5.018  -1.032 -0.5555  1.6913  0.8121
  718MOL0     H94755   3.894   5.037  -0.929 -0.2547 -2.5337  1.6453
  718MOL0     H94756   3.842   4.768  -0.875  2.4577  0.5453  0.9734
  718MOL0     H94757   3.937   4.828  -1.019 -2.4808  1.8909 -2.8329
  718MOL0     H94758   3.327   5.230   0.004 -1.2884  0.5874 -0.7888
  718MOL0     H94759   3.187   5.398   0.114  0.2233  0.1652  0.6709
  718MOL0     H94760   2.936   5.704   0.142 -2.5611  1.4279 -2.9257
  718MOL0     H94761   2.782   5.836   0.251 -0.6148 -2.0857 -1.5547
  718MOL0     H94762   3.322   4.981   0.569 -0.7559  1.5564 -0.2791
  718MOL0     H94763   3.488   4.823   0.476 -2.1340 -1.8007 -1.4601
  718MOL0     H94764   3.666   4.690   0.091 -0.1310 -1.8914  1.7080
  718MOL0     H94765   3.764   4.530  -0.068  0.2929  0.6171 -0.3176
  718MOL0     H94766   3.870   4.529  -0.281  1.1322  0.2224 -2.1997
  718MOL0     H94767   3.910   4.378  -0.186 -2.4145  1.2045  0.4612
  718MOL0     H94768   4.104   4.346  -0.317 -3.9920  0.3195  4.3571
  718MOL0     H94769   3.968   4.359  -0.427 -1.8711  0.2707  1.0343
  718MOL0     H94770   4.163   4.479  -0.528 -2.2323 -0.7550 -0.1349
  718MOL0     H94771   4.190   4.573  -0.379 -1.2167  0.6261  0.9451
  718MOL0     H94772   4.049   4.667  -0.591 -0.0721  0.1932  0.4912
  718MOL0     H94773   3.915   4.593  -0.498  0.0527  0.8224 -0.4743
  718MOL0     H94774   4.033   4.907  -0.249  1.0633 -0.9876  1.4001
  718MOL0     H94775   4.131   4.743  -0.040  0.4231 -1.3345  2.2395
  718MOL0     H94776   4.033   4.900   0.112  2.9372 -1.8265  0.3210
  719MOL0     O94777   8.655   4.995   7.554 -0.7202  0.4850 -0.5717
  719MOL0     C94778   8.602   4.985   7.442 -0.0243  0.5549  0.1139
  719MOL0     O94779   8.674   4.965   7.323  0.8853 -0.1707 -0.4747
  719MOL0     C94780   8.807   4.989   7.311 -0.0700  0.3370  0.4363
  719MOL0     C94781   8.899   4.976   7.416 -0.0730 -0.1471  0.4464
  719MOL0     C94782   9.031   5.007   7.397  0.2434 -0.7513 -0.7972
  719MOL0     C94783   9.075   5.061   7.274  0.3260 -0.9019  0.2133
  719MOL0     O94784   9.208   5.097   7.249  0.3425 -0.1767 -0.4456
  719MOL0     C94785   9.310   5.017   7.313 -0.4824  0.4707 -1.1090
  719MOL0     C94786   9.410   4.972   7.215  0.4866  0.5344  0.4592
  719MOL0     C94787   9.541   4.932   7.284 -0.1207 -0.5270 -0.0616
  719MOL0     C94788   9.624   5.048   7.340 -1.3149  0.0712 -0.9507
  719MOL0     C94789   9.681   5.019   7.481 -0.3691  0.4249 -0.2687
  719MOL0     C94790   9.775   4.906   7.488 -1.1084  0.4024  0.2013
  719MOL0     C94791   9.861   4.910   7.617  0.0169  0.1047  0.8699
  719MOL0     C94792   9.921   4.764   7.641  0.4898  0.3376  0.3483
  719MOL0     N94793  10.057   4.747   7.600 -0.2936  0.3953 -0.3674
  719MOL0     C94794  10.102   4.642   7.529 -0.0396  1.3243 -0.2568
  719MOL0     C94795  10.230   4.677   7.495 -0.8541  1.0994 -0.3190
  719MOL0     C94796  10.330   4.615   7.396 -0.1470  0.0547 -0.1104
  719MOL0     C94797  10.393   4.493   7.468 -0.2537  0.0771  1.1802
  719MOL0     C94798  10.482   4.524   7.598  0.8829  1.1407 -0.6594
  719MOL0     C94799  10.608   4.610   7.580  0.7466  0.3228 -0.3290
  719MOL0     O94800  10.707   4.538   7.508  0.0633 -0.3241  0.0021
  719MOL0     C94801  10.832   4.592   7.493 -0.3497 -0.4377  0.0320
  719MOL0     C94802  10.856   4.713   7.436  0.1451 -0.2952  0.5369
  719MOL0     C94803  10.989   4.758   7.403  0.9627 -0.3565 -1.0982
  719MOL0     C94804  11.094   4.665   7.430 -1.0863 -0.2565  0.7544
  719MOL0     C94805  11.239   4.697   7.386 -0.3658 -0.4275 -0.0943
  719MOL0     O94806  11.339   4.612   7.423 -0.0875  0.2372  0.4922
  719MOL0     C94807  11.469   4.647   7.400  0.3187  0.5334  0.1278
  719MOL0     C94808  11.526   4.568   7.307  0.4245  0.9307  0.6249
  719MOL0     C94809  11.665   4.579   7.294 -0.7061  0.5714 -0.7061
  719MOL0     C94810  11.745   4.663   7.385 -0.1701  0.8489 -0.1923
  719MOL0     O94811  11.885   4.669   7.396 -0.1869  0.0297  0.3733
  719MOL0     C94812  11.959   4.598   7.295 -0.2596  0.1921 -0.0605
  719MOL0     C94813  12.100   4.656   7.289  0.0390  0.0534 -0.8565
  719MOL0     C94814  12.196   4.560   7.227  0.1605  0.1748  0.3195
  719MOL0     C94815  12.339   4.626   7.224 -0.1463 -0.2378  0.0716
  719MOL0     C94816  12.425   4.543   7.126 -0.0196 -0.5947  0.1701
  719MOL0     C94817  12.583   4.531   7.151 -0.0356  0.4316 -0.1632
  719MOL0     C94818  12.657   4.444   7.058  1.0065 -0.1992 -0.6158
  719MOL0     C94819  12.802   4.447   7.095  0.4427 -0.8049  0.3570
  719MOL0    Cl94820  12.905   4.364   6.975 -0.2244 -0.1424  0.1084
  719MOL0     C94821  11.673   4.749   7.454  0.7121 -0.2901  0.9936
  719MOL0     C94822  11.534   4.749   7.467 -0.3862 -0.0935 -0.1219
  719MOL0     O94823  11.248   4.807   7.335 -0.6321  0.3092  0.2798
  719MOL0     C94824  11.069   4.534   7.477 -0.7217  0.5098  0.7120
  719MOL0     C94825  10.940   4.499   7.505  0.3031  0.3838  0.2158
  719MOL0     N94826  10.270   4.796   7.549  0.7822 -1.0212 -0.3002
  719MOL0     N94827  10.161   4.835   7.609  1.0223  0.2658  0.0227
  719MOL0     C94828   8.983   5.071   7.173  0.2896 -1.0174  0.1298
  719MOL0     C94829   8.852   5.036   7.189  0.0729 -0.7637 -0.3915
  719MOL0     C94830   8.457   4.984   7.430  0.0835 -0.6850 -0.4874
  719MOL0     C94831   8.397   4.923   7.317  0.5405 -0.7669 -1.0328
  719MOL0     C94832   8.260   4.905   7.306 -0.3162 -0.5518 -0.2150
  719MOL0     C94833   8.179   4.948   7.416 -0.1659 -0.8697  0.8720
  719MOL0     O94834   8.046   4.935   7.417  0.5838  0.1048  0.8319
  719MOL0     C94835   7.993   4.838   7.332 -0.2358 -0.8608  1.0751
  719MOL0     C94836   7.862   4.794   7.387 -0.0118  0.8186  1.0422
  719MOL0     C94837   7.762   4.901   7.365  0.7167 -0.3490 -0.1465
  719MOL0     C94838   7.643   4.894   7.455 -0.3396  0.8132 -0.6278
  719MOL0     C94839   7.555   5.000   7.413 -0.1189 -0.0003 -0.2567
  719MOL0     C94840   7.476   5.092   7.375 -0.4249  0.3332  0.1715
  719MOL0     C94841   8.235   5.019   7.527  0.1766 -0.2130 -0.2093
  719MOL0     C94842   8.374   5.034   7.530 -0.1218 -0.4321 -0.6560
  719MOL0     H94843   8.867   4.939   7.513 -0.7766  0.5037  0.4819
  719MOL0     H94844   9.103   4.979   7.474 -1.1202  0.7543  1.1215
  719MOL0     H94845   9.280   4.923   7.360 -1.3516  0.5779 -1.4409
  719MOL0     H94846   9.358   5.067   7.398 -3.5974  1.8709 -0.0273
  719MOL0     H94847   9.442   5.053   7.149 -0.3025  0.0161 -0.5780
  719MOL0     H94848   9.375   4.886   7.158  3.2741  0.5303 -1.4063
  719MOL0     H94849   9.602   4.869   7.218 -0.6472 -2.7396  1.4658
  719MOL0     H94850   9.516   4.868   7.369 -2.7981 -0.3271 -0.6072
  719MOL0     H94851   9.711   5.070   7.278  1.0190  0.3985  2.2244
  719MOL0     H94852   9.562   5.135   7.361 -0.4990 -0.1454  3.0829
  719MOL0     H94853   9.601   4.999   7.552 -1.0976 -2.0155 -1.6575
  719MOL0     H94854   9.738   5.110   7.504 -1.3401  0.6474  1.3716
  719MOL0     H94855   9.834   4.899   7.396  0.8040  3.2706  1.0628
  719MOL0     H94856   9.717   4.815   7.501 -0.0541 -0.2110  0.7451
  719MOL0     H94857   9.942   4.983   7.606  0.2323 -0.1156  0.9659
  719MOL0     H94858   9.800   4.945   7.701  0.7579  2.5005  0.4881
  719MOL0     H94859   9.867   4.686   7.587  1.6075  0.5458 -1.1308
  719MOL0     H94860   9.919   4.758   7.751  2.5731  2.9653  0.6496
  719MOL0     H94861  10.046   4.555   7.494  0.1476  0.5257  1.3675
  719MOL0     H94862  10.407   4.683   7.359 -1.9644  2.3323  0.0381
  719MOL0     H94863  10.272   4.571   7.315 -2.7751 -1.8810  2.5915
  719MOL0     H94864  10.464   4.441   7.403  1.9273  1.9253  1.9333
  719MOL0     H94865  10.321   4.414   7.491  0.4533 -0.4358  1.6522
  719MOL0     H94866  10.419   4.574   7.672  1.5182  1.6055 -0.4253
  719MOL0     H94867  10.519   4.437   7.653 -3.6104  1.5535  3.7207
  719MOL0     H94868  10.642   4.643   7.678 -0.6595  0.5741  0.0959
  719MOL0     H94869  10.579   4.692   7.513  0.9952  0.8881  0.2429
  719MOL0     H94870  10.774   4.781   7.415  0.8032 -0.1972 -2.1523
  719MOL0     H94871  10.994   4.847   7.342  2.9285 -0.9130 -1.8172
  719MOL0     H94872  11.485   4.488   7.246  1.5740  1.2179 -0.5861
  719MOL0     H94873  11.720   4.514   7.228 -0.5452  0.3510 -0.3592
  719MOL0     H94874  11.917   4.596   7.195 -0.4485 -2.5125 -0.0060
  719MOL0     H94875  11.967   4.496   7.336  3.0460 -0.1861 -1.2795
  719MOL0     H94876  12.151   4.677   7.383  2.9356 -1.5565 -1.9363
  719MOL0     H94877  12.089   4.747   7.229  2.3101  0.8600 -0.1404
  719MOL0     H94878  12.167   4.538   7.124  0.5940  0.1499  0.2008
  719MOL0     H94879  12.196   4.463   7.276  1.4257  0.2023  0.4163
  719MOL0     H94880  12.335   4.730   7.189 -0.1303  0.8385  2.9815
  719MOL0     H94881  12.363   4.609   7.329 -2.2759 -3.9162  0.1303
  719MOL0     H94882  12.407   4.585   7.026 -0.5402  0.5099  0.7100
  719MOL0     H94883  12.389   4.440   7.136 -1.8089  0.0058  0.1740
  719MOL0     H94884  12.602   4.497   7.253  0.6336 -0.0244 -0.4305
  719MOL0     H94885  12.621   4.633   7.140  3.5017 -0.9179 -1.8732
  719MOL0     H94886  12.615   4.343   7.067 -0.3741  0.5335  2.5211
  719MOL0     H94887  12.645   4.489   6.959  1.5106 -0.6632 -0.8937
  719MOL0     H94888  12.821   4.414   7.197 -1.9115 -2.1699  0.4239
  719MOL0     H94889  12.814   4.555   7.081 -0.8724 -0.9688 -3.4784
  719MOL0     H94890  11.738   4.822   7.503 -0.1938  1.7312 -0.6638
  719MOL0     H94891  11.490   4.829   7.525  1.8853  0.9806  0.2033
  719MOL0     H94892  11.145   4.457   7.486 -0.2630  0.9140  0.3307
  719MOL0     H94893  10.937   4.396   7.541  4.6721  0.5071  1.4358
  719MOL0     H94894   9.025   5.105   7.079 -1.0713  2.7722  0.7119
  719MOL0     H94895   8.777   5.049   7.113 -1.9191 -1.1932  1.3944
  719MOL0     H94896   8.457   4.875   7.241  0.9037 -2.2489  0.1515
  719MOL0     H94897   8.219   4.854   7.219 -1.3137 -1.7929  0.9263
  719MOL0     H94898   8.057   4.749   7.331 -0.2210 -0.8659  1.8242
  719MOL0     H94899   7.978   4.878   7.231 -0.6447 -1.9426  0.6991
  719MOL0     H94900   7.839   4.711   7.320  0.9732  2.2335 -1.1728
  719MOL0     H94901   7.880   4.743   7.482  0.7460 -1.7826 -0.3886
  719MOL0     H94902   7.731   4.894   7.260 -5.0561 -4.0020  1.3338
  719MOL0     H94903   7.813   4.997   7.376 -1.2606  0.6254  1.0502
  719MOL0     H94904   7.594   4.797   7.465  0.3051  0.6723  1.9232
  719MOL0     H94905   7.685   4.927   7.551  3.4116  0.2701 -1.9037
  719MOL0     H94906   7.427   5.186   7.359  0.0511  0.1329 -3.1677
  719MOL0     H94907   8.183   5.069   7.607  2.0766  0.6811  0.5180
  719MOL0     H94908   8.415   5.103   7.603 -0.0685  1.0606 -2.0279
  720MOL0     O94909   3.257   3.207   6.895 -0.2137  1.2713  0.0539
  720MOL0     C94910   3.301   3.106   6.951  0.6585 -0.8249  0.1682
  720MOL0     O94911   3.310   3.095   7.086 -0.2641  0.3684  0.3587
  720MOL0     C94912   3.275   3.215   7.150  0.0191  0.2749 -0.1786
  720MOL0     C94913   3.378   3.308   7.171 -0.1060 -0.6430  0.1621
  720MOL0     C94914   3.363   3.433   7.239  0.5883  0.6948  0.3416
  720MOL0     C94915   3.228   3.462   7.283 -0.9338  0.1759 -1.0572
  720MOL0     O94916   3.201   3.587   7.338 -0.1745  0.1098 -0.5893
  720MOL0     C94917   3.287   3.624   7.456 -0.2680 -0.3386 -0.0943
  720MOL0     C94918   3.222   3.749   7.519  0.1584  0.0227  0.0804
  720MOL0     C94919   3.295   3.874   7.487  0.2118 -0.1774 -0.1132
  720MOL0     C94920   3.256   3.908   7.337 -0.2322  0.2959 -0.4285
  720MOL0     C94921   3.333   4.036   7.294  0.3114 -0.0017  0.5219
  720MOL0     C94922   3.287   4.164   7.364  0.7276 -0.0381 -0.0913
  720MOL0     C94923   3.144   4.205   7.319  0.4328  0.4156  0.4019
  720MOL0     C94924   3.136   4.332   7.233 -0.7837 -0.2435 -0.1344
  720MOL0     N94925   3.195   4.304   7.103 -0.0029 -0.2432  0.0309
  720MOL0     C94926   3.145   4.238   6.994  0.0485 -1.1557 -0.3036
  720MOL0     C94927   3.231   4.255   6.887 -0.2435  0.6161 -0.5495
  720MOL0     C94928   3.264   4.176   6.763  0.8383  0.4900 -0.9302
  720MOL0     C94929   3.331   4.042   6.807 -0.5682  0.1181 -0.2163
  720MOL0     C94930   3.369   3.963   6.688  0.6252  0.3901  0.5853
  720MOL0     C94931   3.507   3.886   6.713 -0.1073 -0.0503 -0.7257
  720MOL0     O94932   3.471   3.761   6.780  0.4685  0.7599 -0.0012
  720MOL0     C94933   3.521   3.643   6.735 -0.2524 -0.2961 -0.3217
  720MOL0     C94934   3.496   3.528   6.811  0.0191 -0.2452 -0.1248
  720MOL0     C94935   3.551   3.406   6.781 -0.4689 -0.2907  0.4175
  720MOL0     C94936   3.645   3.396   6.671  0.0305  0.7682  0.0402
  720MOL0     C94937   3.718   3.270   6.649  0.3549 -0.4599 -0.4572
  720MOL0     O94938   3.743   3.197   6.762  0.1019 -0.9354  0.4942
  720MOL0     C94939   3.811   3.079   6.751  0.5203  0.5534 -0.3982
  720MOL0     C94940   3.775   2.985   6.846  0.0144  0.7001  0.3709
  720MOL0     C94941   3.856   2.869   6.861  0.7651 -0.5689  0.4383
  720MOL0     C94942   3.956   2.842   6.777  0.5241  0.0719 -0.1495
  720MOL0     O94943   4.021   2.726   6.794  0.4939  0.1140 -0.0353
  720MOL0     C94944   4.112   2.676   6.695  0.3474 -0.5699 -0.7039
  720MOL0     C94945   4.170   2.541   6.734  0.0715  0.3428  0.2570
  720MOL0     C94946   4.188   2.465   6.599  0.6822 -0.8366 -0.4991
  720MOL0     C94947   4.244   2.332   6.619 -0.1983  0.3865 -0.4537
  720MOL0     C94948   4.227   2.235   6.503 -0.0442 -0.1740 -0.0846
  720MOL0     C94949   4.328   2.265   6.390 -0.0213 -0.6727 -0.1682
  720MOL0     C94950   4.310   2.173   6.270 -0.0021  0.1474  0.2180
  720MOL0     C94951   4.356   2.249   6.155  0.2045  0.2371  1.3984
  720MOL0    Cl94952   4.231   2.373   6.126  0.6800 -0.0000 -0.4851
  720MOL0     C94953   3.991   2.937   6.681 -0.7289 -0.4791 -0.5006
  720MOL0     C94954   3.924   3.060   6.675 -0.5272  0.3588  0.2568
  720MOL0     O94955   3.753   3.246   6.531  0.8136  0.8037  0.5469
  720MOL0     C94956   3.670   3.503   6.588 -0.4471 -1.1093 -0.5152
  720MOL0     C94957   3.612   3.623   6.624  0.2338 -0.9481  0.5900
  720MOL0     N94958   3.336   4.323   6.943 -0.2012  0.2652 -0.1114
  720MOL0     N94959   3.321   4.356   7.065  0.2471 -0.0699 -0.1425
  720MOL0     C94960   3.126   3.369   7.271 -0.3402  0.4795 -0.6420
  720MOL0     C94961   3.150   3.240   7.211 -0.1212 -0.9733 -0.1354
  720MOL0     C94962   3.330   2.991   6.858 -0.7016 -0.2468  0.1834
  720MOL0     C94963   3.363   2.868   6.909  0.0884  0.6519 -0.0514
  720MOL0     C94964   3.390   2.762   6.815 -0.3238  0.2120 -0.4497
  720MOL0     C94965   3.364   2.772   6.681 -0.4529 -0.0720 -0.2463
  720MOL0     O94966   3.386   2.659   6.608  0.4019 -0.0699  0.1500
  720MOL0     C94967   3.483   2.670   6.500 -1.1849 -1.0439 -0.4065
  720MOL0     C94968   3.612   2.612   6.559  0.8898 -0.7316  0.1403
  720MOL0     C94969   3.730   2.594   6.468  0.2576  0.1440 -0.8224
  720MOL0     C94970   3.770   2.718   6.385 -0.6701 -0.0216 -0.2906
  720MOL0     C94971   3.919   2.724   6.361 -0.7002 -0.4951 -0.5081
  720MOL0     C94972   4.031   2.715   6.317 -0.0334  0.4031  0.4316
  720MOL0     C94973   3.342   2.893   6.628 -0.5620  0.2798  0.1223
  720MOL0     C94974   3.327   3.001   6.718 -0.3999  0.3364  0.5751
  720MOL0     H94975   3.482   3.292   7.144  0.3102  0.8021  0.8042
  720MOL0     H94976   3.435   3.514   7.240  0.6088  0.6790  0.2080
  720MOL0     H94977   3.389   3.638   7.420 -0.1544 -0.1993  0.2750
  720MOL0     H94978   3.291   3.539   7.526 -1.8140  1.3270  2.1734
  720MOL0     H94979   3.236   3.729   7.626 -0.0710 -1.8302 -0.1968
  720MOL0     H94980   3.113   3.747   7.506 -0.4092  0.5088  3.6750
  720MOL0     H94981   3.403   3.856   7.489 -0.0716 -2.1884  3.0686
  720MOL0     H94982   3.270   3.957   7.554  1.3411  0.7236 -0.7596
  720MOL0     H94983   3.300   3.823   7.283  3.6204 -0.6176  3.5311
  720MOL0     H94984   3.147   3.910   7.331 -0.3937 -0.6324  1.4634
  720MOL0     H94985   3.306   4.040   7.188 -0.2069  0.0973  0.6554
  720MOL0     H94986   3.437   4.009   7.314  0.5224  1.4421  1.5535
  720MOL0     H94987   3.359   4.239   7.329  0.4571 -0.0868 -0.7521
  720MOL0     H94988   3.303   4.179   7.471  1.2679  0.4988 -0.2369
  720MOL0     H94989   3.093   4.126   7.263 -2.4887  0.0800  3.2940
  720MOL0     H94990   3.077   4.212   7.405 -0.6088 -2.8951 -0.0128
  720MOL0     H94991   3.192   4.413   7.281 -1.1771 -0.9450  1.5474
  720MOL0     H94992   3.038   4.378   7.218 -0.7608 -0.6038 -1.5667
  720MOL0     H94993   3.069   4.161   6.996 -2.1781  0.9480  0.9011
  720MOL0     H94994   3.335   4.229   6.699  2.2636 -0.4934 -0.2159
  720MOL0     H94995   3.172   4.155   6.706 -0.1837  0.4999  0.6658
  720MOL0     H94996   3.255   3.989   6.865  2.4844 -2.6740  1.6166
  720MOL0     H94997   3.414   4.056   6.877 -0.3888  2.0757 -0.7701
  720MOL0     H94998   3.296   3.890   6.651  2.2273 -0.7041 -0.5711
  720MOL0     H94999   3.385   4.026   6.600  0.5405 -1.7939 -1.0872
  720MOL0     H95000   3.579   3.920   6.788 -1.4161  0.7424  0.2398
  720MOL0     H95001   3.557   3.879   6.617  0.8562 -0.4180 -0.2046
  720MOL0     H95002   3.434   3.536   6.900 -0.0507  0.1959 -0.2090
  720MOL0     H95003   3.526   3.317   6.839 -0.7465 -1.5444 -1.5338
  720MOL0     H95004   3.693   3.009   6.913  1.0165  3.3724  0.7668
  720MOL0     H95005   3.818   2.802   6.938 -0.8569  0.7260  0.8193
  720MOL0     H95006   4.189   2.747   6.667 -0.0436  0.8136  1.4466
  720MOL0     H95007   4.051   2.663   6.605  1.4269 -3.8650 -1.0875
  720MOL0     H95008   4.113   2.480   6.804 -2.5330 -0.7431 -2.6035
  720MOL0     H95009   4.268   2.555   6.782  0.6266 -0.0222 -0.7509
  720MOL0     H95010   4.253   2.524   6.533  1.3444  1.0320  1.7049
  720MOL0     H95011   4.089   2.471   6.551  0.5262 -0.0675 -0.1012
  720MOL0     H95012   4.350   2.336   6.649 -0.0653  3.1724 -1.0815
  720MOL0     H95013   4.181   2.297   6.701 -1.1866 -0.1316 -1.4158
  720MOL0     H95014   4.124   2.235   6.465  0.2777  1.4660 -1.0636
  720MOL0     H95015   4.253   2.134   6.537  1.9943 -0.0356 -1.0692
  720MOL0     H95016   4.429   2.237   6.421  0.1757  0.7297  0.5178
  720MOL0     H95017   4.326   2.369   6.355  1.6449 -0.9516 -1.1942
  720MOL0     H95018   4.372   2.085   6.288 -1.3771 -0.4217  2.7452
  720MOL0     H95019   4.209   2.134   6.251 -0.8339  2.1555  0.2211
  720MOL0     H95020   4.353   2.190   6.063 -0.6009  2.5251 -0.1547
  720MOL0     H95021   4.457   2.286   6.173 -0.6912  2.5652  2.0153
  720MOL0     H95022   4.076   2.923   6.615  0.4163 -1.5381  1.1068
  720MOL0     H95023   3.950   3.139   6.606  0.5933 -0.5033 -0.3451
  720MOL0     H95024   3.743   3.495   6.508 -0.3996 -0.7621 -0.5107
  720MOL0     H95025   3.633   3.708   6.558 -1.2355 -3.3784 -3.3781
  720MOL0     H95026   3.032   3.404   7.313  0.8143 -0.9972  3.6754
  720MOL0     H95027   3.065   3.175   7.193 -1.6459  0.9946 -0.4859
  720MOL0     H95028   3.393   2.858   7.014 -0.5553  1.9374  0.2730
  720MOL0     H95029   3.429   2.672   6.862  0.4032  0.2614 -0.9579
  720MOL0     H95030   3.494   2.770   6.457 -1.2568 -0.2261  1.4194
  720MOL0     H95031   3.451   2.611   6.413 -0.8515 -3.1536  0.8507
  720MOL0     H95032   3.642   2.675   6.643 -0.1326 -1.1247  0.8123
  720MOL0     H95033   3.583   2.514   6.599 -1.3743  0.2761  1.1442
  720MOL0     H95034   3.713   2.513   6.396  4.8387  0.7189 -2.8818
  720MOL0     H95035   3.818   2.550   6.517  1.1310 -0.8364 -3.1193
  720MOL0     H95036   3.706   2.722   6.297  0.2166  1.6066 -0.9254
  720MOL0     H95037   3.737   2.811   6.433  0.7962  0.2477  0.2658
  720MOL0     H95038   4.129   2.705   6.274  0.3459  2.4881  0.6852
  720MOL0     H95039   3.336   2.917   6.523 -1.2889 -0.1588  0.0548
  720MOL0     H95040   3.309   3.099   6.673 -1.5406  0.6306  1.6236
  721MOL0     O95041   7.789   1.448   5.041 -0.2072  0.5061 -0.1713
  721MOL0     C95042   7.824   1.553   5.103  0.4980  0.4957  0.7889
  721MOL0     O95043   7.737   1.652   5.150  0.2263 -0.5710  0.1866
  721MOL0     C95044   7.600   1.639   5.143 -0.1792  0.2763 -0.7063
  721MOL0     C95045   7.524   1.533   5.093  0.3614 -0.2756  0.0843
  721MOL0     C95046   7.393   1.520   5.121  0.6911 -0.4507 -0.0907
  721MOL0     C95047   7.317   1.624   5.185 -0.4094 -0.3908  0.0590
  721MOL0     O95048   7.187   1.600   5.192 -0.1123  0.4994 -0.1941
  721MOL0     C95049   7.110   1.713   5.231  0.9391 -0.1777  0.1029
  721MOL0     C95050   6.970   1.664   5.278 -0.0334  0.2835  0.1062
  721MOL0     C95051   6.887   1.564   5.188  1.0084 -0.0940  0.4940
  721MOL0     C95052   6.796   1.650   5.097 -0.9490  0.3177 -0.3711
  721MOL0     C95053   6.735   1.556   4.995  0.1682  0.1718 -1.0232
  721MOL0     C95054   6.837   1.517   4.886  1.0431  0.2169  0.6362
  721MOL0     C95055   6.803   1.383   4.822 -0.2319  0.1345 -0.5665
  721MOL0     C95056   6.907   1.348   4.710  0.0072 -0.2052  0.1405
  721MOL0     N95057   6.942   1.464   4.616  0.2708  0.6700 -0.8461
  721MOL0     C95058   6.842   1.519   4.541 -0.4556 -0.2392  1.0745
  721MOL0     C95059   6.907   1.626   4.492 -0.0994  0.1021 -0.1714
  721MOL0     C95060   6.852   1.720   4.395 -0.1934 -0.2747  1.4938
  721MOL0     C95061   6.783   1.658   4.267 -0.7250 -0.7572 -0.8138
  721MOL0     C95062   6.746   1.761   4.160 -0.4997 -0.4802  0.5565
  721MOL0     C95063   6.616   1.838   4.200  0.4681 -0.1411  0.1296
  721MOL0     O95064   6.502   1.754   4.216 -0.4794  0.2931  0.5059
  721MOL0     C95065   6.398   1.804   4.289  0.6988  0.2942 -0.1482
  721MOL0     C95066   6.381   1.940   4.320 -0.9784  1.0031 -0.3494
  721MOL0     C95067   6.262   1.977   4.379  0.6317 -0.7149 -0.0325
  721MOL0     C95068   6.164   1.891   4.417  0.3269 -0.1729  0.0480
  721MOL0     C95069   6.047   1.938   4.485 -0.3596 -0.5864 -0.2394
  721MOL0     O95070   5.966   1.847   4.547 -0.2678  0.5282  0.3685
  721MOL0     C95071   5.902   1.895   4.657 -0.0536 -0.8123 -0.1995
  721MOL0     C95072   5.772   1.845   4.660 -0.6815  0.3096 -0.5103
  721MOL0     C95073   5.695   1.875   4.775  0.3539  1.3271  1.1757
  721MOL0     C95074   5.741   1.946   4.885  1.1103 -0.2347 -0.0115
  721MOL0     O95075   5.666   1.952   5.011  0.8375 -0.7258 -0.5984
  721MOL0     C95076   5.698   2.071   5.084  0.3637  0.0014 -0.2463
  721MOL0     C95077   5.578   2.090   5.185 -0.4951 -0.4904 -0.2100
  721MOL0     C95078   5.570   2.214   5.274 -0.2993  0.8745  0.3381
  721MOL0     C95079   5.448   2.200   5.370 -0.1684 -0.2255  0.6795
  721MOL0     C95080   5.442   2.331   5.445 -0.5238  0.6250  0.6150
  721MOL0     C95081   5.369   2.314   5.575 -0.3754 -0.5495  0.6273
  721MOL0     C95082   5.351   2.452   5.650 -0.8264 -0.0669  0.7117
  721MOL0     C95083   5.269   2.445   5.778 -0.8963  0.8296  0.4535
  721MOL0    Cl95084   5.358   2.342   5.891 -0.2004 -0.3287 -1.0536
  721MOL0     C95085   5.878   1.996   4.873 -0.1997  0.5744  0.4111
  721MOL0     C95086   5.953   1.973   4.767 -0.9689 -0.5735  0.9042
  721MOL0     O95087   6.022   2.057   4.476  0.0276  0.7694  0.5466
  721MOL0     C95088   6.179   1.750   4.377 -0.3990  0.4520 -0.0887
  721MOL0     C95089   6.297   1.712   4.302  0.0690  0.4694 -0.7488
  721MOL0     N95090   7.038   1.628   4.535 -0.5106 -0.9609 -0.7919
  721MOL0     N95091   7.059   1.531   4.611  0.5418  0.6954 -0.0261
  721MOL0     C95092   7.391   1.741   5.224 -0.2008  0.7779 -0.1571
  721MOL0     C95093   7.537   1.746   5.211 -0.3269  0.7837  0.6023
  721MOL0     C95094   7.964   1.591   5.112  0.5419  0.1688  0.0295
  721MOL0     C95095   7.995   1.719   5.163  0.4327 -0.0190  0.8066
  721MOL0     C95096   8.123   1.767   5.161  0.4611 -0.4311  0.5596
  721MOL0     C95097   8.225   1.685   5.108  0.2137 -0.4704  0.0378
  721MOL0     O95098   8.353   1.718   5.084  0.0112 -0.9959 -0.9228
  721MOL0     C95099   8.420   1.832   5.146  0.3391  0.2947  0.4815
  721MOL0     C95100   8.564   1.850   5.103 -0.6158  0.4409 -0.7604
  721MOL0     C95101   8.642   1.726   5.154  0.3848 -0.5455 -0.2336
  721MOL0     C95102   8.789   1.752   5.150  0.6989  0.0852  0.7421
  721MOL0     C95103   8.859   1.625   5.119 -0.8293  0.3452  0.0322
  721MOL0     C95104   8.921   1.520   5.090  0.0889  0.2801  0.2139
  721MOL0     C95105   8.191   1.563   5.056 -0.2454 -0.7491  0.1014
  721MOL0     C95106   8.063   1.507   5.053 -0.1905 -0.3699 -0.2516
  721MOL0     H95107   7.566   1.443   5.048  2.4623 -0.3090  1.9398
  721MOL0     H95108   7.331   1.438   5.087 -0.8311  1.4107 -2.0779
  721MOL0     H95109   7.103   1.783   5.147  0.7545  1.1343  1.1808
  721MOL0     H95110   7.138   1.768   5.321 -0.5631 -1.1360  1.2029
  721MOL0     H95111   6.909   1.747   5.312 -1.9006 -0.5568 -1.0251
  721MOL0     H95112   6.989   1.600   5.365 -1.4494 -1.2765 -0.6703
  721MOL0     H95113   6.826   1.490   5.242  0.8217 -0.3621 -0.0808
  721MOL0     H95114   6.958   1.502   5.132  1.3611 -0.9345  1.8020
  721MOL0     H95115   6.732   1.712   5.160  0.3588  1.4686 -0.1223
  721MOL0     H95116   6.860   1.723   5.047  1.5966 -0.0978  2.0236
  721MOL0     H95117   6.656   1.609   4.941  0.1493  0.5616 -0.6156
  721MOL0     H95118   6.689   1.474   5.051 -1.7465  1.4783 -0.5597
  721MOL0     H95119   6.937   1.499   4.925 -0.3103 -2.1008  3.4610
  721MOL0     H95120   6.835   1.602   4.817 -2.4179  0.0670  0.3764
  721MOL0     H95121   6.773   1.308   4.896 -3.0345  0.7060 -0.9938
  721MOL0     H95122   6.712   1.391   4.763 -0.1163 -1.2918 -0.9801
  721MOL0     H95123   6.855   1.283   4.639  2.4457  0.7171 -2.6540
  721MOL0     H95124   6.992   1.295   4.755  0.0996 -0.1646  0.0143
  721MOL0     H95125   6.745   1.489   4.502 -0.1195 -1.8035  1.3863
  721MOL0     H95126   6.938   1.775   4.355 -0.7741 -0.9967 -0.9541
  721MOL0     H95127   6.773   1.780   4.441 -2.0615 -2.6072  1.5102
  721MOL0     H95128   6.692   1.606   4.299 -1.3008 -1.2284 -3.0011
  721MOL0     H95129   6.853   1.585   4.224  1.1300  0.7763 -0.4977
  721MOL0     H95130   6.834   1.826   4.157  0.1359 -1.2491  1.9100
  721MOL0     H95131   6.730   1.715   4.062 -0.9679  2.1888 -0.7075
  721MOL0     H95132   6.595   1.919   4.131  3.7421  0.6823 -0.0458
  721MOL0     H95133   6.633   1.894   4.292 -1.0118  0.2611  0.1741
  721MOL0     H95134   6.436   2.018   4.269  1.3370 -1.3840 -1.7754
  721MOL0     H95135   6.248   2.085   4.386  0.5875 -0.7039 -0.2712
  721MOL0     H95136   5.709   1.782   4.598 -1.5287  0.6180  0.0160
  721MOL0     H95137   5.593   1.837   4.778  0.4688  1.0505  2.8962
  721MOL0     H95138   5.692   2.156   5.016 -0.2122  1.1330  1.1480
  721MOL0     H95139   5.795   2.079   5.135  0.6639 -0.6311 -0.7068
  721MOL0     H95140   5.573   2.004   5.253 -0.7130 -1.9620 -2.0039
  721MOL0     H95141   5.483   2.083   5.131  1.0253 -1.4387 -2.9400
  721MOL0     H95142   5.555   2.302   5.210 -0.3912 -0.8082 -2.1150
  721MOL0     H95143   5.665   2.201   5.326 -0.0719 -4.8388 -0.8818
  721MOL0     H95144   5.358   2.171   5.316 -0.6501  0.6865  0.9793
  721MOL0     H95145   5.459   2.116   5.439 -0.4944 -2.4906 -1.8814
  721MOL0     H95146   5.388   2.403   5.381  0.2396  1.3302  0.7515
  721MOL0     H95147   5.547   2.358   5.459 -0.2541 -0.2329  0.3058
  721MOL0     H95148   5.424   2.247   5.641  1.7350 -0.5381 -1.0076
  721MOL0     H95149   5.273   2.263   5.559 -0.1038  0.0982 -5.1641
  721MOL0     H95150   5.452   2.487   5.675 -1.4621  0.5680  2.5646
  721MOL0     H95151   5.307   2.531   5.590 -0.9354  0.0813  0.9829
  721MOL0     H95152   5.173   2.397   5.757 -0.1669 -1.2196  1.5099
  721MOL0     H95153   5.256   2.544   5.821 -2.2033  0.7701  0.2407
  721MOL0     H95154   5.930   2.049   4.952  1.9729  5.3087 -3.7020
  721MOL0     H95155   6.057   1.998   4.756 -0.7433 -2.4071 -2.5120
  721MOL0     H95156   6.098   1.683   4.406 -1.3109  1.1226 -1.0542
  721MOL0     H95157   6.305   1.609   4.268  1.3288  0.8816 -1.7661
  721MOL0     H95158   7.338   1.823   5.272  0.6620  1.3840 -0.2202
  721MOL0     H95159   7.600   1.828   5.244  1.7798  0.5245 -2.3713
  721MOL0     H95160   7.919   1.786   5.203 -2.2112 -2.2341 -0.2068
  721MOL0     H95161   8.151   1.867   5.194  1.3649  0.0962 -1.6191
  721MOL0     H95162   8.412   1.823   5.255  1.8910 -1.0799  0.5186
  721MOL0     H95163   8.359   1.918   5.115  3.9555  2.9007 -0.1182
  721MOL0     H95164   8.567   1.847   4.993  0.9597  0.1200 -0.7441
  721MOL0     H95165   8.604   1.947   5.131 -1.2246  0.5688 -0.3212
  721MOL0     H95166   8.617   1.638   5.094  0.1823  1.3502 -3.1227
  721MOL0     H95167   8.620   1.711   5.261  0.5614  1.2543  0.0765
  721MOL0     H95168   8.811   1.835   5.082  0.5352 -1.7169 -1.6530
  721MOL0     H95169   8.822   1.794   5.245 -0.0821  0.7074  0.7515
  721MOL0     H95170   8.972   1.428   5.071 -2.1001 -1.1630  0.9375
  721MOL0     H95171   8.267   1.503   5.006 -0.6241  1.6498 -3.7360
  721MOL0     H95172   8.048   1.407   5.012  0.8782 -0.7634  0.2921
  722MOL0     O95173   3.636   8.069   6.907  0.2437 -0.2313 -0.1613
  722MOL0     C95174   3.642   8.036   6.787  0.3930  0.6275 -0.3579
  722MOL0     O95175   3.543   7.983   6.713  0.4299  0.3217  0.1785
  722MOL0     C95176   3.425   7.968   6.774 -0.4167 -0.4739  0.3029
  722MOL0     C95177   3.386   7.848   6.830  0.0361 -0.3596  0.1023
  722MOL0     C95178   3.257   7.824   6.877  0.1620 -0.0881 -0.4089
  722MOL0     C95179   3.169   7.932   6.877 -0.3848 -0.0866 -0.0326
  722MOL0     O95180   3.034   7.918   6.915 -0.5742  0.0946 -0.5145
  722MOL0     C95181   2.989   7.798   6.990 -0.2334  0.2719 -0.3265
  722MOL0     C95182   2.839   7.813   6.999 -1.5519 -0.1112  0.0895
  722MOL0     C95183   2.769   7.830   6.858 -0.4907  0.3936  0.0041
  722MOL0     C95184   2.612   7.806   6.862 -0.0595 -0.0968  1.0978
  722MOL0     C95185   2.534   7.940   6.870 -0.0528 -0.3157 -0.2812
  722MOL0     C95186   2.383   7.915   6.834 -0.8659 -0.5967 -0.2061
  722MOL0     C95187   2.312   7.801   6.899 -0.6769  0.4026 -0.9333
  722MOL0     C95188   2.163   7.794   6.846 -0.4206  0.0781 -0.3052
  722MOL0     N95189   2.064   7.830   6.951  0.4450 -0.2205  0.2977
  722MOL0     C95190   2.038   7.772   7.077  0.4595 -0.6014  0.1054
  722MOL0     C95191   1.939   7.851   7.133  0.2898  0.4012 -0.6615
  722MOL0     C95192   1.863   7.829   7.269 -0.2763 -0.3063  0.7191
  722MOL0     C95193   1.736   7.764   7.243  1.8658  0.8020  0.8112
  722MOL0     C95194   1.758   7.627   7.192 -0.0227 -0.8604  0.3158
  722MOL0     C95195   1.625   7.568   7.129 -0.6278 -1.0363 -0.8979
  722MOL0     O95196   1.519   7.550   7.222 -0.5509 -0.1695 -0.5697
  722MOL0     C95197   1.490   7.427   7.245 -0.3091  0.1287 -0.2839
  722MOL0     C95198   1.356   7.392   7.253 -0.4647  0.0009 -0.6141
  722MOL0     C95199   1.300   7.260   7.277 -0.0021  0.0856 -0.7372
  722MOL0     C95200   1.388   7.160   7.305  0.0325 -0.2630 -0.2791
  722MOL0     C95201   1.337   7.026   7.347  0.8366  0.3747 -0.3980
  722MOL0     O95202   1.210   7.012   7.380  0.1524 -0.3794 -0.1829
  722MOL0     C95203   1.166   6.897   7.442 -0.2120  0.6097  0.1880
  722MOL0     C95204   1.005   6.790   7.349 -0.0341  0.1262 -1.4278
  722MOL0     C95205   0.931   6.609   7.439 -0.1100  0.0529  0.3046
  722MOL0     C95206   1.036   6.530   7.612 -0.5018 -0.3217 -0.7622
  722MOL0     O95207   0.988   6.409   7.666  0.1050 -0.3330  0.0509
  722MOL0     C95208   1.066   6.364   7.770  0.4018  0.4893 -0.7451
  722MOL0     C95209   1.017   6.220   7.791 -0.0089 -0.5658 -0.4610
  722MOL0     C95210   0.907   6.198   7.898  0.5969 -0.8916  0.4972
  722MOL0     C95211   0.873   6.043   7.896  0.2413 -1.0732  1.1126
  722MOL0     C95212   0.846   5.987   8.032  0.3929  0.1509 -0.2627
  722MOL0     C95213   0.849   5.836   8.046 -0.3184  1.0466 -0.0215
  722MOL0     C95214   0.742   5.772   7.938 -0.0675 -0.7256 -0.4785
  722MOL0     C95215   0.731   5.621   7.952 -0.7929  0.4188  0.3756
  722MOL0    Cl95216   0.618   5.603   8.095 -0.0606 -0.2396 -0.2521
  722MOL0     C95217   1.197   6.638   7.695  0.8876 -0.3961  0.3674
  722MOL0     C95218   1.262   6.822   7.610  1.5089  0.4378 -0.1156
  722MOL0     O95219   1.407   6.931   7.325 -0.2481  0.4091  0.5952
  722MOL0     C95220   1.525   7.190   7.313 -0.5042  0.7817 -1.1718
  722MOL0     C95221   1.577   7.322   7.286  0.3401  0.4422  0.7455
  722MOL0     N95222   1.901   7.947   7.042  0.4887  0.0635  0.6861
  722MOL0     N95223   1.971   7.929   6.932 -0.9456  0.0601  0.2500
  722MOL0     C95224   3.199   8.050   6.814  0.1440 -0.0188 -0.5542
  722MOL0     C95225   3.327   8.064   6.755  0.5973 -0.1794 -0.1124
  722MOL0     C95226   3.764   8.089   6.709 -0.4090  0.4542 -0.0374
  722MOL0     C95227   3.775   8.053   6.569 -0.2676 -0.3609  0.5750
  722MOL0     C95228   3.892   8.088   6.504  0.7452 -0.3710 -0.0299
  722MOL0     C95229   3.989   8.160   6.566 -0.2016  0.6362  0.2186
  722MOL0     O95230   4.104   8.210   6.508  0.7039  0.1319  0.2419
  722MOL0     C95231   4.135   8.170   6.372 -0.1903  0.3284 -0.0587
  722MOL0     C95232   4.286   8.210   6.342  1.7665  1.0993  0.4944
  722MOL0     C95233   4.292   8.366   6.332 -0.3135 -0.9776  0.5855
  722MOL0     C95234   4.423   8.415   6.272 -0.2283 -0.0311 -0.7538
  722MOL0     C95235   4.460   8.362   6.136  0.2216 -0.0755 -0.6537
  722MOL0     C95236   4.516   8.328   6.033 -0.1365 -0.3217  0.1246
  722MOL0     C95237   3.977   8.195   6.698  0.2802 -0.3464 -0.0637
  722MOL0     C95238   3.865   8.166   6.771 -0.7647  0.8123  0.0564
  722MOL0     H95239   3.455   7.764   6.840 -0.1959 -0.4311  1.3043
  722MOL0     H95240   3.235   7.729   6.923  0.9178 -0.3666 -0.6069
  722MOL0     H95241   3.026   7.800   7.093 -0.8572  2.0043 -0.1105
  722MOL0     H95242   3.006   7.704   6.936 -2.4749 -0.7838  0.6451
  722MOL0     H95243   2.807   7.902   7.055 -0.2229  0.3984  0.0761
  722MOL0     H95244   2.799   7.731   7.058 -1.0248  0.4005  1.1878
  722MOL0     H95245   2.816   7.748   6.802  1.1824 -0.4385  2.4256
  722MOL0     H95246   2.793   7.919   6.800  1.3919  0.3721  0.6510
  722MOL0     H95247   2.592   7.753   6.768  1.6595  0.7186  0.2286
  722MOL0     H95248   2.585   7.733   6.938  1.0423  0.8710  2.4668
  722MOL0     H95249   2.574   8.017   6.805  0.5940  0.6082  1.1611
  722MOL0     H95250   2.550   7.978   6.972 -0.7873  0.7745 -0.5559
  722MOL0     H95251   2.381   7.913   6.724  2.4450 -1.7671 -0.3643
  722MOL0     H95252   2.329   8.001   6.874 -1.7773 -0.7789 -0.9955
  722MOL0     H95253   2.358   7.702   6.890 -0.9654  0.2212 -0.4648
  722MOL0     H95254   2.314   7.817   7.007  0.6329  1.7355 -1.1269
  722MOL0     H95255   2.148   7.689   6.820 -1.1368 -0.1023  0.7602
  722MOL0     H95256   2.152   7.869   6.767  1.3727 -0.8229 -1.4777
  722MOL0     H95257   2.083   7.681   7.116 -1.0971 -2.1565 -1.4939
  722MOL0     H95258   1.847   7.918   7.331  2.7825 -0.4335  1.8540
  722MOL0     H95259   1.924   7.762   7.331 -0.5156 -0.0109  1.2872
  722MOL0     H95260   1.678   7.817   7.168  0.2884  0.9637  2.0795
  722MOL0     H95261   1.663   7.765   7.325 -0.3502 -0.0506 -1.0477
  722MOL0     H95262   1.824   7.623   7.106 -1.7416 -1.7358 -1.0259
  722MOL0     H95263   1.776   7.554   7.272 -1.9718  1.0266  2.6223
  722MOL0     H95264   1.650   7.478   7.074  0.0189 -0.6786 -1.2002
  722MOL0     H95265   1.604   7.650   7.059  2.4449  1.6965  1.0715
  722MOL0     H95266   1.304   7.486   7.235  1.3143  1.3967  1.0968
  722MOL0     H95267   1.193   7.245   7.272  0.3321 -2.7076 -1.1532
  722MOL0     H95268   0.957   6.844   7.268 -0.4386  0.6970 -0.8141
  722MOL0     H95269   0.852   6.542   7.408  1.9330 -2.1533 -0.5148
  722MOL0     H95270   1.058   6.441   7.848  4.3703  2.2805 -1.8501
  722MOL0     H95271   1.173   6.354   7.750  0.2331 -0.6329 -1.1355
  722MOL0     H95272   1.099   6.159   7.831 -0.0327  0.7098  1.6818
  722MOL0     H95273   0.988   6.183   7.692 -1.3608  0.1181 -0.3401
  722MOL0     H95274   0.821   6.265   7.888  0.3911 -1.1055  0.8061
  722MOL0     H95275   0.944   6.231   7.995  0.7792  4.1430 -1.0087
  722MOL0     H95276   0.790   6.025   7.828  2.6523 -0.6364 -2.1679
  722MOL0     H95277   0.956   5.997   7.842  1.7355  1.1196  1.4401
  722MOL0     H95278   0.745   6.026   8.049 -0.1350 -1.3849  0.2754
  722MOL0     H95279   0.913   6.029   8.106 -2.7229  0.0902  2.8605
  722MOL0     H95280   0.821   5.823   8.151 -0.7648 -2.0912 -0.4295
  722MOL0     H95281   0.953   5.811   8.027 -0.6021 -0.6995  0.5372
  722MOL0     H95282   0.651   5.833   7.945  0.1908 -0.5330  1.9966
  722MOL0     H95283   0.790   5.786   7.840  1.4487  2.1201  0.5613
  722MOL0     H95284   0.831   5.579   7.967 -0.3197  1.5181  0.4214
  722MOL0     H95285   0.683   5.576   7.865  0.2816 -0.6028  0.2925
  722MOL0     H95286   1.257   6.581   7.765 -0.4410 -2.5085 -0.1159
  722MOL0     H95287   1.342   6.876   7.659 -0.5829  3.1256  0.5357
  722MOL0     H95288   1.598   7.115   7.342 -0.8938  0.7564 -0.2120
  722MOL0     H95289   1.683   7.346   7.277  1.2347 -3.3091 -0.9099
  722MOL0     H95290   3.126   8.130   6.807  0.1597  0.4815  2.8828
  722MOL0     H95291   3.349   8.156   6.702  3.4121 -0.9265 -0.3543
  722MOL0     H95292   3.694   8.006   6.514 -0.6645 -1.5573  2.1305
  722MOL0     H95293   3.906   8.060   6.400  0.9840 -0.1831 -0.0505
  722MOL0     H95294   4.072   8.229   6.305 -0.7906  1.2003  1.2231
  722MOL0     H95295   4.106   8.065   6.356 -0.8211  0.3610  0.7719
  722MOL0     H95296   4.340   8.168   6.428  0.7376 -0.0835  0.5907
  722MOL0     H95297   4.332   8.166   6.253 -1.8679 -0.3224 -0.8763
  722MOL0     H95298   4.276   8.411   6.430 -2.7625 -0.3569 -0.0243
  722MOL0     H95299   4.207   8.407   6.276  1.5773  1.0472 -0.9958
  722MOL0     H95300   4.422   8.523   6.256  0.8109 -0.1213 -1.5312
  722MOL0     H95301   4.506   8.400   6.342  1.4651  3.8628 -1.6742
  722MOL0     H95302   4.574   8.300   5.948  0.5345 -0.9500  0.7817
  722MOL0     H95303   4.053   8.259   6.742  0.4694 -0.7438  0.1907
  722MOL0     H95304   3.843   8.201   6.871 -3.8998  4.6266 -1.6595
  723MOL0     O95305  10.929   5.882  11.328  0.6067  0.0254 -1.2420
  723MOL0     C95306  10.868   5.771  11.334  0.5051 -0.3135  0.8580
  723MOL0     O95307  10.733   5.748  11.350 -0.2134 -0.4733 -0.7505
  723MOL0     C95308  10.645   5.858  11.347 -0.9417 -0.5187  0.4205
  723MOL0     C95309  10.661   5.985  11.293  0.6655  0.2576 -0.4055
  723MOL0     C95310  10.565   6.083  11.293  0.7021  1.3169  0.3831
  723MOL0     C95311  10.434   6.055  11.350 -0.0234  0.3687  0.2650
  723MOL0     O95312  10.320   6.134  11.345  0.0869  0.6546 -0.4815
  723MOL0     C95313  10.340   6.272  11.308  0.0491 -0.1979 -0.0824
  723MOL0     C95314  10.408   6.355  11.420  0.3211  0.0189  0.1753
  723MOL0     C95315  10.422   6.512  11.399 -1.1091 -0.1910  1.2117
  723MOL0     C95316  10.523   6.561  11.509  0.3354 -1.1613 -0.7739
  723MOL0     C95317  10.481   6.698  11.551 -0.0602 -0.1372 -0.3373
  723MOL0     C95318  10.586   6.784  11.624  0.4757 -0.0639 -0.0365
  723MOL0     C95319  10.625   6.725  11.766  0.1705 -0.5390 -0.4750
  723MOL0     C95320  10.584   6.809  11.891 -0.1222 -0.9560  0.3999
  723MOL0     N95321  10.655   6.937  11.887  0.2645  0.5259 -0.1767
  723MOL0     C95322  10.621   7.049  11.816  0.1505  0.2028 -0.9896
  723MOL0     C95323  10.722   7.141  11.843  0.7484  1.0933  0.3899
  723MOL0     C95324  10.751   7.282  11.788  0.1273 -0.3705 -0.1011
  723MOL0     C95325  10.730   7.286  11.636 -0.0188 -0.3579  0.1134
  723MOL0     C95326  10.662   7.421  11.596 -1.1009  0.5574  0.3425
  723MOL0     C95327  10.760   7.539  11.564  0.1523  0.1979 -0.1762
  723MOL0     O95328  10.678   7.635  11.493  0.2827 -0.4269  0.3559
  723MOL0     C95329  10.568   7.689  11.571 -0.7278 -0.3844  0.3264
  723MOL0     C95330  10.550   7.698  11.707  0.3394 -0.1196  0.6977
  723MOL0     C95331  10.452   7.766  11.770 -0.1194 -1.0033  0.0822
  723MOL0     C95332  10.356   7.833  11.690  0.5788 -0.2257 -0.6144
  723MOL0     C95333  10.251   7.920  11.734 -0.4348  0.2691  0.5489
  723MOL0     O95334  10.195   7.891  11.855  0.4840  0.8621 -0.0076
  723MOL0     C95335  10.093   7.954  11.921  0.2992 -0.0170  0.4915
  723MOL0     C95336   9.994   8.046  11.875 -1.1632  0.4275  0.3795
  723MOL0     C95337   9.895   8.092  11.954 -0.9057 -0.2158  0.7989
  723MOL0     C95338   9.889   8.053  12.082 -0.4310  0.5121 -1.2007
  723MOL0     O95339   9.791   8.095  12.170 -0.6972 -1.1167  0.5138
  723MOL0     C95340   9.660   8.125  12.119 -0.3275 -0.5442 -0.5733
  723MOL0     C95341   9.581   7.995  12.105 -0.3662  0.9455 -0.3113
  723MOL0     C95342   9.452   8.009  12.042 -0.3542  0.1211  0.2179
  723MOL0     C95343   9.362   8.106  12.109  0.7185 -0.8554 -0.1275
  723MOL0     C95344   9.225   8.113  12.031  0.3254 -0.1013  0.8463
  723MOL0     C95345   9.244   8.137  11.878  0.4833 -0.2769 -0.2830
  723MOL0     C95346   9.120   8.215  11.829 -0.1420  1.1180 -0.3174
  723MOL0     C95347   8.990   8.126  11.836  0.5891  0.7350 -0.1450
  723MOL0    Cl95348   8.867   8.142  11.703 -0.2136 -0.2778  0.1224
  723MOL0     C95349   9.992   7.967  12.138  0.5832  0.0902 -0.3234
  723MOL0     C95350  10.101   7.930  12.057 -0.3417 -0.0947  0.4453
  723MOL0     O95351  10.207   8.006  11.660  0.6957 -0.0048 -0.3739
  723MOL0     C95352  10.350   7.799  11.555  0.4745  0.5359 -0.0575
  723MOL0     C95353  10.463   7.737  11.493  0.3503  0.0935  0.0530
  723MOL0     N95354  10.806   7.085  11.935 -0.0893 -0.1601 -0.5577
  723MOL0     N95355  10.761   6.964  11.961 -0.0445 -0.0017  0.3414
  723MOL0     C95356  10.413   5.920  11.390  0.2839  0.1496 -0.4267
  723MOL0     C95357  10.513   5.823  11.382  0.1459 -0.0068 -0.0211
  723MOL0     C95358  10.956   5.647  11.342 -0.1367 -0.3030  0.2425
  723MOL0     C95359  11.091   5.664  11.343 -0.0344  1.7286 -0.1403
  723MOL0     C95360  11.179   5.551  11.347  0.5028 -0.2777  0.7778
  723MOL0     C95361  11.135   5.420  11.341  0.4330 -0.0121 -0.0463
  723MOL0     O95362  11.218   5.314  11.376  0.9033 -0.8939 -0.3254
  723MOL0     C95363  11.192   5.186  11.317 -0.2864 -0.4660  0.3842
  723MOL0     C95364  11.319   5.101  11.340 -0.0824  0.2415 -0.0843
  723MOL0     C95365  11.430   5.145  11.261 -0.0971  1.1318  0.7236
  723MOL0     C95366  11.558   5.054  11.282  0.9876 -0.8379 -0.9012
  723MOL0     C95367  11.653   5.095  11.177 -0.3733  0.6388  0.1140
  723MOL0     C95368  11.735   5.125  11.090  0.3447 -0.0055 -0.4651
  723MOL0     C95369  10.992   5.406  11.335  0.7828 -0.6223  0.4637
  723MOL0     C95370  10.903   5.513  11.344 -0.6667  0.4661  0.1373
  723MOL0     H95371  10.758   6.011  11.252  1.6334 -1.6166  0.6025
  723MOL0     H95372  10.588   6.175  11.241  2.3512  1.6633  1.6440
  723MOL0     H95373  10.236   6.304  11.299  0.3562  1.1718  0.8978
  723MOL0     H95374  10.392   6.292  11.214  0.3725  0.0116  0.1395
  723MOL0     H95375  10.504   6.304  11.425 -1.2648 -3.3598 -1.0371
  723MOL0     H95376  10.350   6.339  11.511 -0.3567  0.2811 -0.2015
  723MOL0     H95377  10.323   6.559  11.401 -2.5816 -2.9021 -0.4981
  723MOL0     H95378  10.472   6.524  11.303  2.1208 -2.6232  2.4013
  723MOL0     H95379  10.527   6.493  11.595 -0.7743 -3.6874 -2.6028
  723MOL0     H95380  10.623   6.572  11.467  2.2267 -0.9540  3.2850
  723MOL0     H95381  10.392   6.698  11.614  0.6657 -2.4180  0.7885
  723MOL0     H95382  10.453   6.762  11.466  0.4116  0.3639 -0.1232
  723MOL0     H95383  10.558   6.888  11.643  0.8518  0.1737 -0.7620
  723MOL0     H95384  10.675   6.793  11.560 -0.0814 -2.3916 -1.2188
  723MOL0     H95385  10.568   6.633  11.785 -4.7390  2.3089  0.2677
  723MOL0     H95386  10.731   6.701  11.772  0.9052  2.5344  0.9935
  723MOL0     H95387  10.601   6.758  11.986 -2.5337  1.1772  2.1172
  723MOL0     H95388  10.476   6.826  11.880 -0.4317 -1.9473  1.7126
  723MOL0     H95389  10.532   7.055  11.754 -1.4677 -1.4323  1.0305
  723MOL0     H95390  10.860   7.294  11.788  0.3609 -2.0355 -1.7467
  723MOL0     H95391  10.698   7.354  11.851  2.4881  2.6550 -1.2889
  723MOL0     H95392  10.655   7.212  11.608  0.9171 -1.3216  0.0800
  723MOL0     H95393  10.817   7.269  11.571 -0.4394  2.0157 -1.1867
  723MOL0     H95394  10.598   7.404  11.509  2.0539  0.4890 -2.1514
  723MOL0     H95395  10.593   7.447  11.677 -1.9634 -1.0963  0.1681
  723MOL0     H95396  10.835   7.488  11.504 -1.9717 -0.7240 -2.2064
  723MOL0     H95397  10.801   7.576  11.658  2.2043  2.7888 -1.9355
  723MOL0     H95398  10.632   7.663  11.770 -0.8819 -1.7948  1.4266
  723MOL0     H95399  10.443   7.780  11.877 -0.7786  1.2326 -0.2137
  723MOL0     H95400   9.997   8.078  11.771  2.1811 -1.1653 -0.1202
  723MOL0     H95401   9.842   8.177  11.911  2.1696  1.7043  0.4819
  723MOL0     H95402   9.656   8.179  12.024  0.9440 -0.1795 -0.4380
  723MOL0     H95403   9.622   8.192  12.197  1.9818 -0.4868  0.5998
  723MOL0     H95404   9.571   7.949  12.204 -1.9433 -0.0098 -0.8876
  723MOL0     H95405   9.643   7.941  12.032  1.7392  2.9610 -0.1420
  723MOL0     H95406   9.411   7.908  12.046  0.0035  0.0070  1.3992
  723MOL0     H95407   9.465   8.034  11.937 -1.2790  2.1111  0.5324
  723MOL0     H95408   9.349   8.096  12.217 -0.5085  1.0928 -0.0362
  723MOL0     H95409   9.400   8.208  12.094 -0.3822 -0.0749  1.9299
  723MOL0     H95410   9.165   8.195  12.070 -3.6348 -1.7680 -1.2408
  723MOL0     H95411   9.164   8.024  12.050 -0.6951  0.7290  1.5336
  723MOL0     H95412   9.251   8.040  11.829 -1.7959 -2.2571  2.9153
  723MOL0     H95413   9.335   8.196  11.862  1.7039 -0.9151  3.3246
  723MOL0     H95414   9.106   8.303  11.892  0.1813 -0.0132  1.4275
  723MOL0     H95415   9.135   8.241  11.724 -0.9019 -0.1507 -0.7650
  723MOL0     H95416   8.934   8.128  11.930  0.1775 -0.8286 -0.3149
  723MOL0     H95417   9.025   8.023  11.824  2.0176  1.3878 -2.1275
  723MOL0     H95418  10.002   7.954  12.246 -0.4671  0.1860 -0.2052
  723MOL0     H95419  10.173   7.871  12.112 -0.9373 -2.3177 -1.0247
  723MOL0     H95420  10.274   7.828  11.484  1.8160 -2.1075 -2.7717
  723MOL0     H95421  10.463   7.733  11.384 -0.0031  0.0420  0.0559
  723MOL0     H95422  10.311   5.899  11.421  0.5758 -0.3725  0.2281
  723MOL0     H95423  10.505   5.717  11.400  3.4262 -0.6768 -1.6269
  723MOL0     H95424  11.140   5.761  11.346 -1.2241  2.3458  0.1523
  723MOL0     H95425  11.284   5.577  11.352  0.4656  1.4665 -3.4143
  723MOL0     H95426  11.169   5.197  11.211 -2.1378 -2.0093  0.5720
  723MOL0     H95427  11.104   5.136  11.359 -2.1834 -2.1993 -4.7912
  723MOL0     H95428  11.351   5.121  11.443 -1.6830  0.0977  0.4672
  723MOL0     H95429  11.286   4.997  11.335  0.5739 -0.1568  2.3962
  723MOL0     H95430  11.467   5.245  11.285 -1.4980  1.5495  1.2249
  723MOL0     H95431  11.397   5.145  11.157 -0.5051  1.7645  0.8491
  723MOL0     H95432  11.588   5.073  11.385  0.8633 -0.7593 -0.8792
  723MOL0     H95433  11.530   4.948  11.279 -0.0181 -0.6713  1.0026
  723MOL0     H95434  11.803   5.160  11.014  0.0969  3.9997  0.8910
  723MOL0     H95435  10.966   5.301  11.332  4.5158 -1.7509  1.8306
  723MOL0     H95436  10.797   5.491  11.334 -0.7839 -0.1546  2.2205
  724MOL0     O95437   7.259  10.315  10.392  0.2301 -0.1154  0.2783
  724MOL0     C95438   7.313  10.342  10.287  0.3694 -0.1530  0.5596
  724MOL0     O95439   7.257  10.406  10.183 -0.5304 -0.0706  0.4330
  724MOL0     C95440   7.124  10.423  10.178 -0.4239  0.1260 -1.4025
  724MOL0     C95441   7.033  10.317  10.206  0.0798 -0.1292 -0.2134
  724MOL0     C95442   6.896  10.348  10.201  0.4311 -0.0966 -0.6075
  724MOL0     C95443   6.855  10.482  10.162  0.0144 -1.1376  0.3493
  724MOL0     O95444   6.720  10.514  10.168 -0.0775 -0.3178 -0.5459
  724MOL0     C95445   6.671  10.592  10.059 -0.1117  0.3438  1.5218
  724MOL0     C95446   6.622  10.727  10.102  0.4715  0.8946 -0.1646
  724MOL0     C95447   6.480  10.712  10.164  0.2689 -0.1147 -0.3290
  724MOL0     C95448   6.403  10.846  10.185  0.5951  0.4782  0.2708
  724MOL0     C95449   6.275  10.842  10.269  0.0924  0.8498  0.9328
  724MOL0     C95450   6.245  10.987  10.298 -0.8529  0.1134  0.9236
  724MOL0     C95451   6.121  11.009  10.382 -0.2146 -0.9192  0.2525
  724MOL0     C95452   6.067  11.161  10.389  0.0672 -0.7360 -0.8082
  724MOL0     N95453   6.166  11.248  10.457 -1.3692  0.2070  0.9298
  724MOL0     C95454   6.241  11.224  10.561  0.0624 -0.7910 -0.1622
  724MOL0     C95455   6.340  11.316  10.566  0.9535 -0.1143 -0.5478
  724MOL0     C95456   6.449  11.341  10.654 -0.2820  1.0246  0.3889
  724MOL0     C95457   6.555  11.230  10.661 -0.8900 -0.6594 -0.6852
  724MOL0     C95458   6.644  11.254  10.794  0.6212 -0.2669  0.1719
  724MOL0     C95459   6.765  11.153  10.794  0.3329 -0.4159  0.3039
  724MOL0     O95460   6.861  11.185  10.904  0.2848 -0.3416 -0.3064
  724MOL0     C95461   6.843  11.161  11.038 -0.3802 -0.7243 -1.2037
  724MOL0     C95462   6.723  11.115  11.090  0.1317  0.2627 -0.7246
  724MOL0     C95463   6.702  11.098  11.223  0.4794 -0.1321  0.9363
  724MOL0     C95464   6.800  11.116  11.319 -1.6553 -0.5916 -0.2777
  724MOL0     C95465   6.784  11.098  11.468 -0.3235 -0.4370 -0.2680
  724MOL0     O95466   6.901  11.077  11.537  0.6984  0.0689  0.7338
  724MOL0     C95467   6.895  11.059  11.671  0.6861  0.4518  0.0268
  724MOL0     C95468   6.944  11.153  11.754 -0.4310  0.0245 -0.0701
  724MOL0     C95469   6.942  11.140  11.897 -0.1334  0.0520  0.5061
  724MOL0     C95470   6.894  11.020  11.954  0.0656  0.1137 -0.5672
  724MOL0     O95471   6.896  11.004  12.088  0.1706  0.8879  0.1139
  724MOL0     C95472   6.904  11.118  12.169  1.2379  0.2287 -0.3229
  724MOL0     C95473   6.892  11.073  12.312 -0.5262  0.0240  0.8353
  724MOL0     C95474   6.930  11.181  12.415  0.0219 -1.6699  0.5222
  724MOL0     C95475   6.922  11.127  12.557 -0.9082  1.1247 -0.5102
  724MOL0     C95476   7.039  11.028  12.590  0.8866  0.6675  0.4774
  724MOL0     C95477   7.077  11.006  12.737 -0.8162  0.0844 -0.2027
  724MOL0     C95478   6.965  10.935  12.805  0.3858 -0.0248 -0.4650
  724MOL0     C95479   6.956  10.990  12.946  0.1920  0.2966  0.3717
  724MOL0    Cl95480   6.873  10.886  13.054  0.6937 -0.0269 -0.0268
  724MOL0     C95481   6.847  10.922  11.864 -0.6782 -0.4070 -0.8138
  724MOL0     C95482   6.846  10.938  11.728 -0.4193  0.1528 -0.6629
  724MOL0     O95483   6.672  11.097  11.518 -0.3500  0.9671 -0.4880
  724MOL0     C95484   6.919  11.167  11.270 -0.5281  0.2831 -0.4922
  724MOL0     C95485   6.942  11.179  11.137  0.3840 -0.1807  0.0499
  724MOL0     N95486   6.315  11.405  10.461  0.8435 -0.9519  0.5295
  724MOL0     N95487   6.211  11.356  10.394 -0.1774  0.4622 -0.9608
  724MOL0     C95488   6.947  10.581  10.134  0.0526  0.4217 -0.0465
  724MOL0     C95489   7.082  10.547  10.128 -0.6047 -0.5190 -0.1889
  724MOL0     C95490   7.465  10.319  10.268 -0.2123  0.4126  0.2593
  724MOL0     C95491   7.532  10.359  10.153 -0.2231 -1.3729  0.6652
  724MOL0     C95492   7.664  10.326  10.124 -1.0878 -0.1456  0.5075
  724MOL0     C95493   7.734  10.247  10.214 -0.6078  0.3844  0.0844
  724MOL0     O95494   7.865  10.221  10.187 -0.3232  0.4428 -0.3366
  724MOL0     C95495   7.878  10.094  10.122 -0.0268  0.0413  0.1950
  724MOL0     C95496   8.023  10.057  10.081 -0.2763 -0.0437 -0.6259
  724MOL0     C95497   8.119  10.049  10.205  0.8042  0.3329  0.8556
  724MOL0     C95498   8.271  10.025  10.172 -0.3242  0.0951 -0.0975
  724MOL0     C95499   8.352  10.042  10.285 -1.0204  0.3332  0.6411
  724MOL0     C95500   8.410  10.083  10.380 -0.1170  0.3063 -0.3375
  724MOL0     C95501   7.674  10.222  10.342  0.7026  0.5264 -0.2116
  724MOL0     C95502   7.538  10.247  10.363  0.3050  0.3103 -0.5296
  724MOL0     H95503   7.053  10.216  10.240 -1.1527 -0.7319 -1.2355
  724MOL0     H95504   6.816  10.275  10.207 -0.6663  1.2116  1.9736
  724MOL0     H95505   6.587  10.545  10.005  0.0974  0.5440  1.0135
  724MOL0     H95506   6.739  10.617   9.977 -3.4948  0.7800 -1.3944
  724MOL0     H95507   6.624  10.802  10.022 -0.4092  3.2506  1.9026
  724MOL0     H95508   6.696  10.768  10.171  3.2938 -0.6586 -2.0608
  724MOL0     H95509   6.491  10.678  10.268 -2.6473 -0.8227 -0.1633
  724MOL0     H95510   6.413  10.642  10.113 -0.3630  0.6491 -0.5638
  724MOL0     H95511   6.471  10.919  10.229 -1.1519  0.6703  2.8070
  724MOL0     H95512   6.383  10.861  10.078  1.6561  3.2464  0.3865
  724MOL0     H95513   6.300  10.781  10.356  2.7130 -0.0634 -0.3266
  724MOL0     H95514   6.192  10.797  10.215  1.3235  1.7814 -1.9534
  724MOL0     H95515   6.238  11.037  10.201  1.4913 -0.6558  0.2917
  724MOL0     H95516   6.331  11.030  10.350 -2.5457  1.4851  2.7156
  724MOL0     H95517   6.041  10.952  10.335 -0.9654  1.6210 -1.7713
  724MOL0     H95518   6.138  10.950  10.473 -3.1332 -2.6157 -0.1675
  724MOL0     H95519   5.969  11.175  10.436  0.0177  2.0891 -1.5683
  724MOL0     H95520   6.044  11.196  10.288 -2.3032 -1.5494 -0.6044
  724MOL0     H95521   6.219  11.145  10.633  0.8180  1.0890  2.2636
  724MOL0     H95522   6.398  11.352  10.750 -0.6696 -0.3459  0.3617
  724MOL0     H95523   6.492  11.437  10.622  1.8722  0.9780  2.8372
  724MOL0     H95524   6.632  11.241  10.583  3.3626  5.0155  3.4895
  724MOL0     H95525   6.511  11.133  10.684  1.2796 -1.5974 -0.2435
  724MOL0     H95526   6.693  11.352  10.790  2.6709 -1.2663 -0.8586
  724MOL0     H95527   6.580  11.254  10.883  0.4270  0.1983  0.0399
  724MOL0     H95528   6.815  11.176  10.699  0.2276 -1.2953  0.0192
  724MOL0     H95529   6.729  11.050  10.790 -0.5663 -0.0818 -1.0290
  724MOL0     H95530   6.636  11.077  11.037  0.1891 -1.2013  0.1622
  724MOL0     H95531   6.607  11.056  11.254 -0.4385 -1.1064 -2.7296
  724MOL0     H95532   6.993  11.242  11.715 -1.3743  1.8715  2.6088
  724MOL0     H95533   6.986  11.220  11.955  2.5125  0.7355 -2.1901
  724MOL0     H95534   6.821  11.187  12.156  1.7400  1.8872  3.6170
  724MOL0     H95535   6.998  11.173  12.155  1.1953  0.3329 -0.2107
  724MOL0     H95536   6.964  10.992  12.321 -0.5161  0.1384  1.9449
  724MOL0     H95537   6.793  11.031  12.334 -1.1099 -0.1879 -1.9117
  724MOL0     H95538   6.865  11.268  12.403  1.6285 -0.5316 -0.2644
  724MOL0     H95539   7.028  11.226  12.397 -1.6462  1.8094 -0.8118
  724MOL0     H95540   6.929  11.209  12.629  0.4685 -0.4089  1.2137
  724MOL0     H95541   6.819  11.092  12.573 -1.5182  1.7050 -2.7522
  724MOL0     H95542   7.131  11.042  12.533  1.6217  1.1763  1.7538
  724MOL0     H95543   7.008  10.935  12.541 -0.5937  2.2019 -1.7415
  724MOL0     H95544   7.111  11.099  12.783 -2.3283  0.0644  1.0442
  724MOL0     H95545   7.170  10.950  12.745  0.2814  2.0949  2.3163
  724MOL0     H95546   6.877  10.943  12.740  2.5297  3.8851 -3.2969
  724MOL0     H95547   7.004  10.834  12.823  1.4988  0.2520 -1.2070
  724MOL0     H95548   6.912  11.091  12.944  1.1250  0.7877  2.4053
  724MOL0     H95549   7.058  11.005  12.985  0.7081 -0.5306 -0.6121
  724MOL0     H95550   6.817  10.825  11.901  1.8250 -2.0038 -2.6144
  724MOL0     H95551   6.830  10.856  11.657  0.8667 -0.9049  0.2227
  724MOL0     H95552   6.995  11.199  11.342  0.9757 -1.7338 -1.1129
  724MOL0     H95553   7.041  11.209  11.103  0.5433 -2.6162 -1.9480
  724MOL0     H95554   6.915  10.684  10.119 -1.1937  0.1432  0.4997
  724MOL0     H95555   7.146  10.633  10.108 -0.9304  0.0204  1.0082
  724MOL0     H95556   7.479  10.419  10.080  3.6894  1.1528 -0.4047
  724MOL0     H95557   7.723  10.343  10.035  4.1267 -1.9816  3.1868
  724MOL0     H95558   7.815  10.090  10.033 -0.7794  0.0401  0.7215
  724MOL0     H95559   7.858  10.011  10.190  0.4349 -0.2311  0.0065
  724MOL0     H95560   8.023   9.968  10.018 -0.6738 -0.9342  0.5930
  724MOL0     H95561   8.059  10.137  10.015  2.6026  0.8359  1.7285
  724MOL0     H95562   8.090   9.958  10.259 -0.6450  1.2341  1.6323
  724MOL0     H95563   8.106  10.134  10.271 -1.2067  2.4224 -1.9797
  724MOL0     H95564   8.292   9.924  10.134  1.9880  0.2564  0.5893
  724MOL0     H95565   8.287  10.096  10.090 -1.2223 -2.6204 -2.8081
  724MOL0     H95566   8.463  10.136  10.456 -0.0192  0.1818 -0.3176
  724MOL0     H95567   7.731  10.179  10.423  0.4319 -0.6600 -0.6279
  724MOL0     H95568   7.496  10.221  10.459  0.7959 -2.7443 -1.0670
  725MOL0     O95569  11.134   1.041   9.133  0.0549  0.0965 -0.1926
  725MOL0     C95570  11.218   1.095   9.203 -0.4385  0.5239  0.6062
  725MOL0     O95571  11.198   1.164   9.317 -0.0221 -0.1386 -0.2262
  725MOL0     C95572  11.068   1.178   9.357 -0.8954 -0.4560  0.2700
  725MOL0     C95573  11.016   1.092   9.452 -0.1998 -0.6158 -0.4111
  725MOL0     C95574  10.885   1.126   9.494 -0.2284  0.2606 -0.1545
  725MOL0     C95575  10.816   1.240   9.455 -0.1759 -0.1600 -0.8591
  725MOL0     O95576  10.686   1.242   9.499  0.3862 -0.8720 -0.2721
  725MOL0     C95577  10.635   1.375   9.533  0.2449  0.6206 -0.8708
  725MOL0     C95578  10.490   1.360   9.571 -0.2716 -0.5060 -0.1869
  725MOL0     C95579  10.458   1.359   9.717  0.1480 -0.1172  0.3573
  725MOL0     C95580  10.297   1.350   9.733  0.0646 -0.2620  0.9931
  725MOL0     C95581  10.244   1.297   9.871 -0.2825 -0.9802  0.1108
  725MOL0     C95582  10.088   1.293   9.855  0.0650  0.1602 -0.5193
  725MOL0     C95583  10.016   1.278   9.993 -0.2300  0.2662 -0.0376
  725MOL0     C95584  10.007   1.405  10.073  0.8236 -0.1457  0.1536
  725MOL0     N95585   9.930   1.508  10.006  0.0910  0.3859  0.4338
  725MOL0     C95586   9.798   1.510  10.004  0.3266 -0.5000  1.0818
  725MOL0     C95587   9.761   1.614   9.927 -0.4171 -0.7125 -0.5718
  725MOL0     C95588   9.613   1.647   9.908 -0.4225  0.1600  0.5544
  725MOL0     C95589   9.541   1.684  10.038 -0.2166  0.4038  1.0121
  725MOL0     C95590   9.392   1.651  10.024  0.0961  0.7614 -0.1432
  725MOL0     C95591   9.286   1.741  10.101  0.5151  0.5540  0.0847
  725MOL0     O95592   9.336   1.758  10.235  0.0905  0.3108 -0.0204
  725MOL0     C95593   9.241   1.779  10.325 -0.3563 -0.6306  0.8067
  725MOL0     C95594   9.168   1.676  10.375  0.2954  0.7386 -0.6028
  725MOL0     C95595   9.076   1.710  10.475 -0.4814  0.6436 -0.0411
  725MOL0     C95596   9.053   1.840  10.523 -0.1296 -0.0705 -0.1839
  725MOL0     C95597   8.929   1.872  10.600  0.0335 -0.1518  0.4681
  725MOL0     O95598   8.855   1.764  10.657  0.1005  0.1344  0.6751
  725MOL0     C95599   8.764   1.788  10.752 -0.9607 -0.4723  0.0088
  725MOL0     C95600   8.633   1.773  10.704 -0.0959 -0.6562 -0.4708
  725MOL0     C95601   8.525   1.797  10.784  0.0312 -0.5770 -0.5398
  725MOL0     C95602   8.545   1.819  10.917 -0.8520  0.3668  0.3143
  725MOL0     O95603   8.434   1.818  11.002  0.3184  0.1638  0.4621
  725MOL0     C95604   8.454   1.857  11.144  0.3547  0.2126 -0.2348
  725MOL0     C95605   8.322   1.856  11.218  0.5321 -0.6485 -0.0288
  725MOL0     C95606   8.343   1.858  11.366  0.5331  0.5303  0.1307
  725MOL0     C95607   8.215   1.795  11.441  0.1643 -0.4636 -0.0370
  725MOL0     C95608   8.074   1.862  11.419 -0.1816 -0.8755  0.8961
  725MOL0     C95609   8.054   2.006  11.445  0.5680  0.4693 -0.9966
  725MOL0     C95610   7.909   2.049  11.417 -0.5224 -0.3489  0.1659
  725MOL0     C95611   7.878   2.033  11.265 -0.2955 -0.9192 -0.5575
  725MOL0    Cl95612   7.756   2.135  11.195  0.2834  0.0517  0.0131
  725MOL0     C95613   8.681   1.842  10.961  0.6988  0.4284  0.2881
  725MOL0     C95614   8.794   1.819  10.883 -0.3420 -0.4721  0.3980
  725MOL0     O95615   8.898   1.992  10.619 -0.0009  0.1614 -0.1619
  725MOL0     C95616   9.129   1.937  10.458  0.5905  0.1754  0.0705
  725MOL0     C95617   9.223   1.906  10.367 -0.2122  0.5613 -0.8738
  725MOL0     N95618   9.873   1.689   9.899  0.2056  0.5485 -0.1143
  725MOL0     N95619   9.976   1.624   9.949  0.8880 -0.3737  0.7346
  725MOL0     C95620  10.884   1.340   9.378 -0.3589  0.1390 -0.5728
  725MOL0     C95621  11.008   1.301   9.327 -0.7340 -0.6498 -0.5797
  725MOL0     C95622  11.352   1.065   9.158  0.2022 -0.5104  0.0604
  725MOL0     C95623  11.386   0.994   9.038 -0.6520  0.2764 -0.0499
  725MOL0     C95624  11.518   0.949   9.012  0.6435 -0.1910 -0.2031
  725MOL0     C95625  11.621   0.971   9.106 -0.0526  0.8071  0.2692
  725MOL0     O95626  11.751   0.932   9.097 -0.5728  0.1076  0.5200
  725MOL0     C95627  11.778   0.790   9.096  0.1445  0.1165 -0.4866
  725MOL0     C95628  11.801   0.747   9.241 -0.4136  0.5498  0.9033
  725MOL0     C95629  11.801   0.596   9.257 -0.7379  0.8852  0.0752
  725MOL0     C95630  11.892   0.519   9.163  0.2385 -0.7218  0.0432
  725MOL0     C95631  11.879   0.378   9.202 -0.0713  0.7173  0.0001
  725MOL0     C95632  11.868   0.261   9.217 -0.1798 -0.3474 -0.1417
  725MOL0     C95633  11.589   1.046   9.219 -0.5792 -0.5233 -0.9745
  725MOL0     C95634  11.460   1.100   9.243  0.4160 -0.7642  1.2818
  725MOL0     H95635  11.081   1.011   9.482  3.2326  2.4516  1.2289
  725MOL0     H95636  10.843   1.048   9.556  1.2142 -0.2582  0.1926
  725MOL0     H95637  10.652   1.443   9.449  0.0192 -0.5847 -1.9151
  725MOL0     H95638  10.698   1.404   9.618  0.3976 -1.7769 -0.0929
  725MOL0     H95639  10.446   1.277   9.515 -0.5997 -1.8208  1.9535
  725MOL0     H95640  10.439   1.448   9.530  0.7634 -0.5727 -1.6983
  725MOL0     H95641  10.502   1.446   9.765  3.1379 -0.5412 -1.3992
  725MOL0     H95642  10.511   1.271   9.753 -0.4258  0.1427  1.9017
  725MOL0     H95643  10.272   1.453   9.707  1.9235 -0.2292 -0.9467
  725MOL0     H95644  10.250   1.289   9.656 -1.4049  2.3727 -0.3650
  725MOL0     H95645  10.277   1.372   9.944 -1.6484  0.7608 -0.9570
  725MOL0     H95646  10.294   1.204   9.899  2.0634 -0.1503 -0.9777
  725MOL0     H95647  10.054   1.213   9.788 -2.1394  0.4239  0.1936
  725MOL0     H95648  10.055   1.386   9.807  5.1622  2.1029 -0.8673
  725MOL0     H95649   9.913   1.253   9.965  0.3156  0.7866 -2.8356
  725MOL0     H95650  10.063   1.194  10.046  1.7450  1.0128 -0.5231
  725MOL0     H95651  10.109   1.441  10.090  1.7558 -1.2788 -2.5481
  725MOL0     H95652   9.951   1.373  10.161 -4.1816  0.4821 -2.3868
  725MOL0     H95653   9.734   1.434  10.048 -1.6006  1.7829  2.5360
  725MOL0     H95654   9.567   1.558   9.863  0.9538 -0.8204  0.9920
  725MOL0     H95655   9.590   1.719   9.830  0.1725  0.1267  0.3415
  725MOL0     H95656   9.568   1.788  10.056  0.6700  0.6564 -1.3918
  725MOL0     H95657   9.580   1.614  10.113  2.4108 -1.6927 -2.0330
  725MOL0     H95658   9.365   1.659   9.918 -1.0159  2.2010  0.2226
  725MOL0     H95659   9.358   1.550  10.047  0.0754  0.4651 -1.4177
  725MOL0     H95660   9.187   1.697  10.091  0.1246  1.8661 -2.7952
  725MOL0     H95661   9.275   1.843  10.062 -3.7596  0.0607 -0.3855
  725MOL0     H95662   9.177   1.573  10.342 -0.4993 -0.4919  2.6271
  725MOL0     H95663   9.015   1.631  10.519  2.4806 -2.3608 -0.9145
  725MOL0     H95664   8.614   1.765  10.598  0.5745  1.8554 -0.8314
  725MOL0     H95665   8.425   1.781  10.745 -1.7716  2.9375  2.1306
  725MOL0     H95666   8.489   1.960  11.148 -0.5583  0.5073  0.7796
  725MOL0     H95667   8.518   1.783  11.193  1.2006  2.3359  2.0368
  725MOL0     H95668   8.264   1.768  11.189  0.3820 -0.6777  0.3471
  725MOL0     H95669   8.257   1.937  11.183 -0.2856 -1.3622 -0.2012
  725MOL0     H95670   8.381   1.956  11.398 -0.0172 -0.5358  4.6913
  725MOL0     H95671   8.430   1.797  11.390  1.2260  0.4953 -2.1938
  725MOL0     H95672   8.197   1.689  11.421  1.1933 -0.4449 -1.1877
  725MOL0     H95673   8.242   1.797  11.547  2.3020  0.9108 -0.5314
  725MOL0     H95674   8.015   1.807  11.493  0.2187 -2.3174  0.1772
  725MOL0     H95675   8.045   1.816  11.324  1.1891 -1.9622  0.9618
  725MOL0     H95676   8.133   2.060  11.392  1.4043  1.2561  0.9719
  725MOL0     H95677   8.073   2.027  11.550 -0.3608  0.2668 -0.7764
  725MOL0     H95678   7.836   1.997  11.480  0.0833  1.1809  2.2699
  725MOL0     H95679   7.897   2.151  11.456  0.5512 -0.2646  0.2961
  725MOL0     H95680   7.863   1.925  11.254  2.6520 -1.3268 -1.5485
  725MOL0     H95681   7.976   2.051  11.221 -0.4593 -0.8795 -0.9086
  725MOL0     H95682   8.686   1.859  11.068 -2.0523  3.8487  0.0363
  725MOL0     H95683   8.897   1.827  10.914  1.1793  0.9174 -4.1820
  725MOL0     H95684   9.087   2.036  10.472  0.9190  0.4123 -0.5862
  725MOL0     H95685   9.268   1.986  10.307 -0.9163 -0.5682 -3.0340
  725MOL0     H95686  10.836   1.434   9.352  0.5806  0.1918 -2.2487
  725MOL0     H95687  11.055   1.363   9.251 -0.1359 -1.0401 -0.5322
  725MOL0     H95688  11.301   0.963   8.978 -0.8492 -2.5347  1.5288
  725MOL0     H95689  11.543   0.892   8.923  4.0510  0.6130  0.0726
  725MOL0     H95690  11.857   0.773   9.022  1.1308  1.6074  0.1782
  725MOL0     H95691  11.689   0.743   9.055  0.5929  0.8840 -2.4688
  725MOL0     H95692  11.894   0.795   9.271  0.0164  0.1953  0.1606
  725MOL0     H95693  11.726   0.791   9.308 -0.5615 -0.1523  1.2096
  725MOL0     H95694  11.698   0.561   9.244 -0.1295 -1.1757  0.4222
  725MOL0     H95695  11.822   0.587   9.364 -2.4278  3.3331  0.6989
  725MOL0     H95696  11.871   0.541   9.058  0.2076 -1.8713 -0.1995
  725MOL0     H95697  11.993   0.555   9.181  0.6242 -2.7771  2.5304
  725MOL0     H95698  11.848   0.157   9.232  1.8183 -0.3542  3.8778
  725MOL0     H95699  11.667   1.085   9.284 -1.9245  1.8726 -0.6564
  725MOL0     H95700  11.448   1.165   9.329  1.7869 -2.0158  2.4850
  726MOL0     O95701   5.971   2.650   8.033  0.5085 -0.0663 -0.2474
  726MOL0     C95702   5.914   2.685   8.135  0.5026  0.0175  0.8137
  726MOL0     O95703   5.972   2.708   8.259 -0.1838  0.5495  0.1775
  726MOL0     C95704   6.105   2.715   8.274 -0.5897  0.0338  0.3959
  726MOL0     C95705   6.167   2.612   8.344 -0.3714 -0.0754  0.0151
  726MOL0     C95706   6.304   2.627   8.361  0.2079 -0.3651 -0.7060
  726MOL0     C95707   6.378   2.734   8.311  0.4319 -0.3578 -0.6995
  726MOL0     O95708   6.512   2.740   8.337  0.3873  0.6494 -0.5610
  726MOL0     C95709   6.587   2.611   8.346  0.5984 -0.0617  0.6788
  726MOL0     C95710   6.741   2.650   8.347  0.7167  0.6513 -0.8177
  726MOL0     C95711   6.809   2.645   8.212  0.0624 -0.0724 -0.2035
  726MOL0     C95712   6.851   2.510   8.151 -0.1705  0.6629 -0.0624
  726MOL0     C95713   6.956   2.528   8.041  0.6068 -0.0757 -1.4239
  726MOL0     C95714   6.916   2.433   7.923 -0.1305 -0.0747  0.6460
  726MOL0     C95715   7.010   2.466   7.808 -0.0973  0.8163 -0.6519
  726MOL0     C95716   7.021   2.367   7.696 -0.8485  0.8688  0.2747
  726MOL0     N95717   6.891   2.324   7.637 -0.7183  0.6793  0.6077
  726MOL0     C95718   6.849   2.355   7.513  0.6585 -0.7719 -0.4458
  726MOL0     C95719   6.719   2.313   7.514  0.7511 -0.0262  0.3850
  726MOL0     C95720   6.620   2.349   7.406  0.4428 -0.3709 -0.2318
  726MOL0     C95721   6.630   2.254   7.285  0.0994 -0.3001 -0.1490
  726MOL0     C95722   6.624   2.105   7.312 -0.7306  0.1419  0.6594
  726MOL0     C95723   6.494   2.053   7.381  0.6231  0.7891 -0.3568
  726MOL0     O95724   6.390   2.086   7.287  0.5475  0.4540  0.4815
  726MOL0     C95725   6.260   2.055   7.317  1.3789 -0.7808 -0.2554
  726MOL0     C95726   6.157   2.109   7.226 -0.2398 -0.3387  0.2256
  726MOL0     C95727   6.022   2.093   7.260  0.7250 -0.2525  0.2170
  726MOL0     C95728   5.974   2.032   7.374  0.3312 -0.5551  0.5527
  726MOL0     C95729   5.827   2.024   7.400  0.8687 -0.4736  0.4653
  726MOL0     O95730   5.737   2.060   7.297 -0.0413  0.2103  0.2305
  726MOL0     C95731   5.597   2.063   7.313 -0.0352  0.0510 -0.2512
  726MOL0     C95732   5.530   1.991   7.208 -0.4813 -0.0402 -0.5185
  726MOL0     C95733   5.390   1.970   7.229 -0.5797  0.7712  0.9876
  726MOL0     C95734   5.318   2.024   7.332  1.3003  0.2678  0.0943
  726MOL0     O95735   5.182   1.997   7.345 -0.5185 -0.3658 -0.2532
  726MOL0     C95736   5.132   1.878   7.281  0.7025  0.1635  0.3472
  726MOL0     C95737   4.990   1.874   7.317 -0.7217 -0.0826  0.2547
  726MOL0     C95738   4.918   1.743   7.270  0.3042  0.0450  0.4143
  726MOL0     C95739   4.770   1.753   7.334  0.1349  0.3945 -0.8484
  726MOL0     C95740   4.693   1.639   7.266 -0.4922 -0.7632 -0.1627
  726MOL0     C95741   4.734   1.495   7.307 -0.0018  0.2680 -0.1722
  726MOL0     C95742   4.683   1.390   7.210 -0.6419 -0.8416 -0.1439
  726MOL0     C95743   4.773   1.265   7.210  0.2094  0.3166  0.3275
  726MOL0    Cl95744   4.925   1.291   7.122 -0.6630  0.4792  0.1218
  726MOL0     C95745   5.388   2.117   7.409 -0.0514 -0.5969 -0.2820
  726MOL0     C95746   5.527   2.142   7.410 -0.0732 -0.3605 -1.2371
  726MOL0     O95747   5.792   1.980   7.509  0.5387 -0.3946  0.7830
  726MOL0     C95748   6.065   1.995   7.470  0.0544 -0.3809  1.2645
  726MOL0     C95749   6.206   2.012   7.443 -0.0277  0.5295  0.2425
  726MOL0     N95750   6.696   2.240   7.626  0.6249 -0.0837  0.9822
  726MOL0     N95751   6.801   2.245   7.702 -0.9149  0.1993 -0.8353
  726MOL0     C95752   6.304   2.842   8.251 -1.1981  0.4105  0.1751
  726MOL0     C95753   6.172   2.830   8.220 -1.2151  0.0575  0.5030
  726MOL0     C95754   5.764   2.700   8.122  0.8836 -0.7063 -0.3259
  726MOL0     C95755   5.695   2.690   8.003  0.1717  0.8471  1.3305
  726MOL0     C95756   5.562   2.741   7.996 -0.1907  0.1425 -0.1762
  726MOL0     C95757   5.496   2.788   8.113  0.8368  0.0880  0.5544
  726MOL0     O95758   5.362   2.836   8.105  0.1379 -0.4163 -0.4245
  726MOL0     C95759   5.289   2.813   7.979 -0.0793  0.1973  0.3018
  726MOL0     C95760   5.138   2.822   7.990  0.5982 -0.6530  0.4043
  726MOL0     C95761   5.087   2.728   8.100  0.3280  0.0610  0.1380
  726MOL0     C95762   4.946   2.766   8.154 -0.6821 -0.4109  0.6813
  726MOL0     C95763   4.845   2.751   8.039 -0.7996 -1.1545  0.2835
  726MOL0     C95764   4.761   2.754   7.958  0.2090 -0.6331 -1.0278
  726MOL0     C95765   5.561   2.801   8.229  0.6906 -0.5750 -0.6945
  726MOL0     C95766   5.690   2.755   8.232  1.6180 -0.8138 -1.3706
  726MOL0     H95767   6.119   2.524   8.387  0.1870  0.6821  2.3083
  726MOL0     H95768   6.355   2.540   8.402 -0.1067 -1.0762 -1.7633
  726MOL0     H95769   6.562   2.548   8.260  1.5771  0.0073  0.3330
  726MOL0     H95770   6.557   2.551   8.433 -1.5529 -2.0806 -1.3224
  726MOL0     H95771   6.800   2.585   8.413  0.2158  1.3836  0.3911
  726MOL0     H95772   6.744   2.749   8.393 -3.4403  0.3337  0.5239
  726MOL0     H95773   6.899   2.704   8.232 -0.5806  0.9943 -0.3522
  726MOL0     H95774   6.747   2.693   8.136 -0.6957  1.2834  1.2071
  726MOL0     H95775   6.892   2.441   8.226 -0.1655 -0.5752 -1.1648
  726MOL0     H95776   6.767   2.451   8.115  2.4426 -4.5867  1.3555
  726MOL0     H95777   7.057   2.503   8.075  0.2945  0.7497  0.1868
  726MOL0     H95778   6.947   2.633   8.010  0.1634 -0.5283 -2.9297
  726MOL0     H95779   6.809   2.451   7.906  0.2173  4.5573  2.1003
  726MOL0     H95780   6.931   2.331   7.960 -0.5976 -0.6624 -0.6946
  726MOL0     H95781   6.986   2.565   7.767  2.1343  2.7608  2.3237
  726MOL0     H95782   7.106   2.477   7.859 -1.4908 -0.8270  2.5898
  726MOL0     H95783   7.081   2.282   7.731 -2.3043 -0.5049 -0.4377
  726MOL0     H95784   7.077   2.417   7.616  3.1329 -1.6737  1.1738
  726MOL0     H95785   6.905   2.408   7.437 -0.7674  0.8600 -0.4180
  726MOL0     H95786   6.640   2.454   7.382 -0.0435  0.5968  3.0699
  726MOL0     H95787   6.518   2.344   7.444  0.3589 -0.4272 -0.4641
  726MOL0     H95788   6.725   2.273   7.234 -0.7436  1.5119 -1.1463
  726MOL0     H95789   6.544   2.272   7.220 -1.1286 -0.2322  1.4284
  726MOL0     H95790   6.645   2.048   7.222 -4.2419 -1.3096  0.5928
  726MOL0     H95791   6.711   2.090   7.377 -1.4848  1.3665  2.0194
  726MOL0     H95792   6.477   2.110   7.472 -5.9152 -0.4261 -0.3691
  726MOL0     H95793   6.502   1.948   7.409 -2.7124  0.5841  0.1633
  726MOL0     H95794   6.184   2.182   7.150 -0.8485  1.9488  2.0589
  726MOL0     H95795   5.943   2.121   7.190 -0.3665 -1.5412  0.9053
  726MOL0     H95796   5.583   1.964   7.118  0.6971  1.3139 -0.2713
  726MOL0     H95797   5.348   1.899   7.158 -2.2933 -1.0702  3.6365
  726MOL0     H95798   5.174   1.782   7.312 -1.8314  0.5305  6.0546
  726MOL0     H95799   5.130   1.889   7.172 -1.3387 -0.5510  0.2800
  726MOL0     H95800   4.940   1.966   7.283  3.9598  2.4008 -0.7541
  726MOL0     H95801   4.990   1.884   7.426  1.0729 -0.1303  0.2895
  726MOL0     H95802   4.970   1.648   7.287 -0.9452 -0.3822  2.2103
  726MOL0     H95803   4.911   1.749   7.161  0.7142 -0.0366  0.3827
  726MOL0     H95804   4.757   1.735   7.441  4.4807 -1.4177 -0.4309
  726MOL0     H95805   4.725   1.849   7.305 -2.4266 -0.2079  0.8394
  726MOL0     H95806   4.711   1.645   7.158  0.1843 -1.8470 -0.1232
  726MOL0     H95807   4.584   1.644   7.279 -0.9085  0.9397 -3.2289
  726MOL0     H95808   4.709   1.484   7.413  2.2017  1.3714  0.5283
  726MOL0     H95809   4.843   1.485   7.310 -0.0703 -0.2037  2.4579
  726MOL0     H95810   4.578   1.372   7.233 -1.3532  0.2546 -2.2666
  726MOL0     H95811   4.694   1.424   7.106  1.0784 -3.3540 -0.8691
  726MOL0     H95812   4.727   1.181   7.158  1.1583 -0.6846  1.0399
  726MOL0     H95813   4.796   1.232   7.312 -0.9004 -0.5042  0.3339
  726MOL0     H95814   5.325   2.161   7.485  0.8490 -0.0730  0.1798
  726MOL0     H95815   5.573   2.214   7.476  1.8661 -0.9298 -1.9022
  726MOL0     H95816   6.035   1.955   7.566 -1.8618 -1.0429  0.4564
  726MOL0     H95817   6.264   1.978   7.528 -2.1241 -0.3458  1.3778
  726MOL0     H95818   6.362   2.924   8.209 -0.7592 -1.1693 -2.5206
  726MOL0     H95819   6.113   2.908   8.173  0.1113 -1.2440 -3.8197
  726MOL0     H95820   5.754   2.667   7.915  0.6557  2.1922  1.2942
  726MOL0     H95821   5.523   2.740   7.895  1.0366  4.2539 -0.8512
  726MOL0     H95822   5.294   2.708   7.949 -0.0904 -1.4856  5.2902
  726MOL0     H95823   5.339   2.884   7.912  1.9766 -1.0528  0.4189
  726MOL0     H95824   5.099   2.921   8.016 -2.8303 -1.5178 -0.8324
  726MOL0     H95825   5.100   2.801   7.890 -0.2247 -0.1974  0.6110
  726MOL0     H95826   5.151   2.716   8.188 -0.7249 -0.7357  0.8261
  726MOL0     H95827   5.076   2.626   8.063 -4.8417  0.3371  0.1587
  726MOL0     H95828   4.907   2.703   8.235 -2.2344 -0.2081  0.1192
  726MOL0     H95829   4.940   2.869   8.188  1.6946 -0.2643  0.7852
  726MOL0     H95830   4.677   2.752   7.893  0.5678 -1.6362 -1.4794
  726MOL0     H95831   5.507   2.843   8.313 -1.8918 -3.1936 -0.8535
  726MOL0     H95832   5.732   2.757   8.332 -1.3573  0.9865 -0.0309
  727MOL0     O95833   0.726   2.804  10.120 -0.2232 -0.1732 -0.1568
  727MOL0     C95834   0.639   2.781  10.041 -0.1345  0.4951 -0.4195
  727MOL0     O95835   0.504   2.796  10.070  0.0858 -0.2454  0.0206
  727MOL0     C95836   0.460   2.825  10.201 -0.3230  0.7085 -0.4206
  727MOL0     C95837   0.504   2.761  10.317  0.6147  0.7503  0.2493
  727MOL0     C95838   0.458   2.803  10.442 -0.3829 -0.5696 -0.0673
  727MOL0     C95839   0.355   2.902  10.460 -0.3597  1.0237 -0.0693
  727MOL0     O95840   0.308   2.923  10.587 -0.5124  0.1539 -0.2838
  727MOL0     C95841   0.206   3.017  10.617 -0.2411 -0.3593  0.3492
  727MOL0     C95842   0.177   3.013  10.766 -0.9018 -0.6471 -0.2588
  727MOL0     C95843   0.053   3.086  10.804 -0.1881 -0.6530  0.8296
  727MOL0     C95844   0.001   3.042  10.940  0.6127 -0.6568 -0.7232
  727MOL0     C95845  -0.140   3.100  10.970  0.7368 -0.1312  1.1648
  727MOL0     C95846  -0.185   3.022  11.093 -0.1730  0.0594  0.9859
  727MOL0     C95847  -0.338   3.011  11.092 -0.3203  0.3933  0.3582
  727MOL0     C95848  -0.384   2.926  11.213 -0.5530 -0.2089  0.5697
  727MOL0     N95849  -0.528   2.893  11.194  0.5701 -0.7244 -0.8840
  727MOL0     C95850  -0.569   2.796  11.116  0.0680 -0.3104  0.2017
  727MOL0     C95851  -0.703   2.799  11.120  0.2579 -0.3171 -0.1631
  727MOL0     C95852  -0.807   2.703  11.062 -0.2053 -0.7912  0.9554
  727MOL0     C95853  -0.946   2.761  11.047  0.2151  0.2865  0.0797
  727MOL0     C95854  -1.062   2.663  11.042  0.5518  0.4310  0.2820
  727MOL0     C95855  -1.183   2.733  10.981  0.3010 -0.5477 -0.1473
  727MOL0     O95856  -1.312   2.672  10.992  0.5328  0.1803  0.0987
  727MOL0     C95857  -1.367   2.664  11.121  0.1023  0.5123  0.2193
  727MOL0     C95858  -1.313   2.720  11.240 -0.6663  0.5514  0.7131
  727MOL0     C95859  -1.372   2.704  11.363  1.6866 -0.2229  0.3230
  727MOL0     C95860  -1.497   2.649  11.372 -0.4434  0.1324 -0.8946
  727MOL0     C95861  -1.566   2.633  11.506  0.3092  0.9999 -0.2826
  727MOL0     O95862  -1.496   2.678  11.609  0.3279  0.6247  0.0723
  727MOL0     C95863  -1.510   2.624  11.732 -0.1262  0.2854  0.0860
  727MOL0     C95864  -1.516   2.719  11.836 -0.7531 -0.6731  0.8207
  727MOL0     C95865  -1.546   2.677  11.967  0.8946 -0.1831  0.3430
  727MOL0     C95866  -1.551   2.542  12.000 -0.9638 -0.4204 -1.0743
  727MOL0     O95867  -1.548   2.504  12.131  0.1721 -0.2140  0.5118
  727MOL0     C95868  -1.663   2.427  12.161 -0.2373 -1.6768 -0.2372
  727MOL0     C95869  -1.705   2.432  12.311  0.0236 -0.3483  0.4634
  727MOL0     C95870  -1.792   2.315  12.353  0.1268  0.0440 -0.1493
  727MOL0     C95871  -1.902   2.283  12.251  0.9259 -0.4098 -0.0275
  727MOL0     C95872  -1.938   2.134  12.219  0.0651 -0.0722  1.2307
  727MOL0     C95873  -1.827   2.052  12.149 -0.0073 -0.0638  0.4458
  727MOL0     C95874  -1.870   1.915  12.098  0.5011  0.3973  0.8763
  727MOL0     C95875  -1.771   1.801  12.109  0.4194  0.3367  0.5508
  727MOL0    Cl95876  -1.624   1.869  12.030 -0.0079 -0.3606 -0.1544
  727MOL0     C95877  -1.537   2.452  11.898  0.6217  0.0488 -0.3233
  727MOL0     C95878  -1.517   2.491  11.770  0.5005  0.4213 -0.3180
  727MOL0     O95879  -1.679   2.573  11.520  0.4176 -0.4750  0.7032
  727MOL0     C95880  -1.558   2.599  11.255 -0.5254 -0.0347  0.9367
  727MOL0     C95881  -1.497   2.605  11.131  0.0698  0.6557  0.6284
  727MOL0     N95882  -0.743   2.910  11.202 -1.0399  0.3856  0.8138
  727MOL0     N95883  -0.634   2.963  11.250  0.6117  0.5686 -0.4360
  727MOL0     C95884   0.297   2.948  10.349 -0.2118  0.1032  0.4148
  727MOL0     C95885   0.357   2.922  10.217  0.5794 -0.7342 -0.0346
  727MOL0     C95886   0.686   2.752   9.895  0.6518 -0.4216 -0.0672
  727MOL0     C95887   0.630   2.816   9.785 -0.6820  0.3130  0.1083
  727MOL0     C95888   0.670   2.777   9.654 -0.4454  0.2170 -1.0683
  727MOL0     C95889   0.763   2.676   9.636 -0.0295  0.5060  0.3313
  727MOL0     O95890   0.798   2.640   9.509  0.5488 -0.0014 -0.3883
  727MOL0     C95891   0.900   2.548   9.480 -0.8763  0.0213  1.1697
  727MOL0     C95892   0.918   2.523   9.326  0.1403 -0.5542 -0.4553
  727MOL0     C95893   0.971   2.635   9.242  0.2996  0.6893 -0.6681
  727MOL0     C95894   0.888   2.762   9.235  0.7390 -0.1859 -0.5008
  727MOL0     C95895   0.773   2.716   9.152  0.1081 -1.2665 -0.1874
  727MOL0     C95896   0.687   2.677   9.079 -0.8498  0.8681 -0.2942
  727MOL0     C95897   0.815   2.611   9.753 -0.6516  0.5868  0.1377
  727MOL0     C95898   0.792   2.660   9.878 -0.1500 -0.0779  0.0041
  727MOL0     H95899   0.566   2.672  10.305 -0.5996 -0.1718  0.6208
  727MOL0     H95900   0.477   2.740  10.528  1.8037 -1.5560 -1.1912
  727MOL0     H95901   0.117   2.986  10.563  0.6649 -1.6298 -0.4650
  727MOL0     H95902   0.233   3.120  10.594  0.2565 -0.5518  0.0340
  727MOL0     H95903   0.255   3.068  10.819 -1.8602  2.1180 -1.5284
  727MOL0     H95904   0.179   2.908  10.797 -1.9419 -0.1179  1.8009
  727MOL0     H95905  -0.027   3.061  10.734 -1.3598  2.6725  0.7877
  727MOL0     H95906   0.060   3.195  10.802 -1.4854 -0.5576  0.0180
  727MOL0     H95907  -0.018   2.934  10.936 -1.5419 -0.3063 -0.9355
  727MOL0     H95908   0.071   3.070  11.019 -0.2831 -3.1653  1.0786
  727MOL0     H95909  -0.207   3.089  10.885 -1.1608  0.6894  2.4977
  727MOL0     H95910  -0.140   3.204  11.003  0.9438 -0.3953  2.0469
  727MOL0     H95911  -0.151   3.070  11.185  1.3019 -1.4973  1.3097
  727MOL0     H95912  -0.144   2.920  11.090  1.6360  0.6915  2.4306
  727MOL0     H95913  -0.378   3.112  11.100  1.8576  1.2822  0.6876
  727MOL0     H95914  -0.368   2.960  10.999 -0.1601 -0.2898  0.6724
  727MOL0     H95915  -0.379   2.986  11.305 -2.4312 -1.1272  1.3227
  727MOL0     H95916  -0.315   2.841  11.219  1.5327  1.4172  0.9590
  727MOL0     H95917  -0.510   2.726  11.059  0.5014  0.4575 -0.3068
  727MOL0     H95918  -0.817   2.629  11.143  2.8906 -2.3049  0.1424
  727MOL0     H95919  -0.770   2.656  10.970  2.4518 -0.1289  1.6142
  727MOL0     H95920  -0.954   2.825  10.959  0.6886 -1.7853 -1.5395
  727MOL0     H95921  -0.959   2.827  11.134 -0.6186 -1.6345  1.4914
  727MOL0     H95922  -1.038   2.582  10.972 -1.0429  0.5632 -0.4796
  727MOL0     H95923  -1.066   2.616  11.140  1.7938  0.0193  0.1518
  727MOL0     H95924  -1.155   2.747  10.876 -1.1924 -2.5969 -0.8737
  727MOL0     H95925  -1.179   2.830  11.033 -0.9177 -0.2688 -0.5575
  727MOL0     H95926  -1.215   2.766  11.234  1.0143 -2.8781 -1.7609
  727MOL0     H95927  -1.332   2.755  11.451 -0.6761  0.5212  1.0263
  727MOL0     H95928  -1.502   2.825  11.817  1.9552 -1.0509  0.2682
  727MOL0     H95929  -1.563   2.760  12.034 -1.4708 -0.1876 -0.1908
  727MOL0     H95930  -1.643   2.323  12.132 -3.1909 -3.4635  3.2580
  727MOL0     H95931  -1.748   2.472  12.108 -0.1460  0.5121  1.3147
  727MOL0     H95932  -1.762   2.522  12.335 -3.0009 -1.7818 -0.8233
  727MOL0     H95933  -1.616   2.445  12.373 -1.1411 -1.8882  2.5861
  727MOL0     H95934  -1.827   2.327  12.456 -0.6912 -0.5105 -0.3547
  727MOL0     H95935  -1.733   2.224  12.364 -0.6074 -0.3125  1.0035
  727MOL0     H95936  -1.979   2.338  12.306  1.2706  2.0712 -1.8608
  727MOL0     H95937  -1.900   2.339  12.157 -1.8776 -0.2765 -0.0917
  727MOL0     H95938  -2.026   2.147  12.156  1.5452  1.3823 -0.6273
  727MOL0     H95939  -1.976   2.085  12.310  0.3677 -2.2626  0.2476
  727MOL0     H95940  -1.751   2.034  12.225 -0.4174 -0.6167  0.7323
  727MOL0     H95941  -1.794   2.100  12.057  0.6575 -1.1443  0.0926
  727MOL0     H95942  -1.963   1.899  12.154 -0.3199  1.3530 -0.1823
  727MOL0     H95943  -1.903   1.930  11.995 -0.4592 -3.1203  0.5416
  727MOL0     H95944  -1.814   1.714  12.059 -1.5372  0.5166  1.7902
  727MOL0     H95945  -1.759   1.764  12.211  1.1448 -1.5497 -0.1701
  727MOL0     H95946  -1.541   2.345  11.916 -1.9060  0.0158 -0.7385
  727MOL0     H95947  -1.516   2.411  11.697  0.6022 -3.2410  3.3387
  727MOL0     H95948  -1.659   2.562  11.257 -0.1952 -1.6709 -2.9132
  727MOL0     H95949  -1.542   2.560  11.043  1.8157 -1.5440  0.7805
  727MOL0     H95950   0.208   3.009  10.353 -0.4432 -0.2982  2.8501
  727MOL0     H95951   0.323   2.965  10.124  1.0441  1.6578  0.8465
  727MOL0     H95952   0.557   2.896   9.794 -1.2456 -0.2306  0.4607
  727MOL0     H95953   0.624   2.817   9.564 -0.2414 -0.1189 -1.3276
  727MOL0     H95954   0.870   2.455   9.530  0.2266  0.0432  1.9141
  727MOL0     H95955   0.993   2.588   9.521 -1.5322  1.6184  1.1618
  727MOL0     H95956   0.999   2.450   9.320  0.7155 -0.2994  2.5293
  727MOL0     H95957   0.829   2.484   9.278  0.0176 -0.1731 -0.5455
  727MOL0     H95958   0.995   2.608   9.138  0.0638  0.8223 -0.7592
  727MOL0     H95959   1.069   2.667   9.278  0.6674 -1.8174  0.8360
  727MOL0     H95960   0.864   2.815   9.327 -0.3346 -1.0985 -0.2288
  727MOL0     H95961   0.956   2.829   9.182 -0.1087 -0.0781 -1.4839
  727MOL0     H95962   0.607   2.644   9.016 -1.7987  1.9979  0.2721
  727MOL0     H95963   0.882   2.526   9.756 -0.6208  0.6186  0.4283
  727MOL0     H95964   0.840   2.624   9.968  2.6509  1.5456 -0.7211
  728MOL0     O95965   2.705   7.293   1.822 -0.6366 -0.2096 -0.2450
  728MOL0     C95966   2.791   7.237   1.754 -0.2263 -0.1394 -0.0544
  728MOL0     O95967   2.837   7.106   1.770  1.6738  0.0754  0.4504
  728MOL0     C95968   2.779   7.021   1.861  0.2167 -0.3142  0.0030
  728MOL0     C95969   2.846   6.958   1.957 -0.4118 -0.3257  0.7641
  728MOL0     C95970   2.784   6.886   2.056 -0.7069 -0.4554  0.5821
  728MOL0     C95971   2.656   6.848   2.054 -0.1010 -0.2945 -0.6859
  728MOL0     O95972   2.613   6.755   2.141 -0.5558  0.6037  0.1588
  728MOL0     C95973   2.474   6.721   2.160 -0.2912  0.8495  0.0500
  728MOL0     C95974   2.432   6.607   2.070 -0.3736 -0.3538  0.6413
  728MOL0     C95975   2.532   6.480   2.079  0.0991 -0.4946 -0.2328
  728MOL0     C95976   2.449   6.349   2.072 -0.0530 -0.3285  0.6050
  728MOL0     C95977   2.547   6.230   2.062  0.6160 -0.3307 -0.2506
  728MOL0     C95978   2.486   6.091   2.031 -0.3761 -0.0493  0.2937
  728MOL0     C95979   2.386   6.046   2.138 -0.8824  0.4637 -0.2726
  728MOL0     C95980   2.323   5.919   2.092 -0.9739 -0.5588  0.5087
  728MOL0     N95981   2.222   5.853   2.182 -0.1134  0.1712  0.3887
  728MOL0     C95982   2.205   5.717   2.176 -0.8363  0.2876 -0.0377
  728MOL0     C95983   2.085   5.698   2.230 -0.9347 -0.4052 -1.1555
  728MOL0     C95984   2.013   5.569   2.246  0.1616  0.3761 -1.0139
  728MOL0     C95985   1.898   5.564   2.149 -0.3711  0.5039 -0.2985
  728MOL0     C95986   1.798   5.453   2.201 -0.4906  0.8240  0.3857
  728MOL0     C95987   1.855   5.310   2.175  0.4454 -0.4996 -0.4585
  728MOL0     O95988   1.936   5.261   2.286  0.6720 -0.6309 -0.6186
  728MOL0     C95989   2.038   5.186   2.258 -1.8082  0.0191  0.1410
  728MOL0     C95990   2.033   5.096   2.154  0.2974  0.7898 -0.4552
  728MOL0     C95991   2.140   5.012   2.121 -0.3845  0.2233 -0.8068
  728MOL0     C95992   2.262   5.023   2.185 -0.1711 -1.0790 -0.3209
  728MOL0     C95993   2.371   4.935   2.154 -0.1933  0.9543  0.6572
  728MOL0     O95994   2.489   4.957   2.207 -0.1282  0.0017  0.2670
  728MOL0     C95995   2.580   4.856   2.234  0.2831  0.7307  0.8052
  728MOL0     C95996   2.671   4.885   2.336 -0.0454 -0.1190 -0.2340
  728MOL0     C95997   2.749   4.791   2.393  0.4785  0.5798 -0.1329
  728MOL0     C95998   2.748   4.658   2.342  0.4720 -0.3042  0.4433
  728MOL0     O95999   2.820   4.557   2.397 -0.0005  0.4291  0.1231
  728MOL0     C96000   2.960   4.572   2.420  0.0969  0.4191 -0.4018
  728MOL0     C96001   3.048   4.505   2.312 -0.4800  0.3959 -0.1361
  728MOL0     C96002   3.058   4.347   2.322  0.4354 -0.4904  0.1224
  728MOL0     C96003   3.057   4.283   2.459  1.1005  0.0396 -0.3974
  728MOL0     C96004   3.130   4.150   2.456  0.1832  0.1596 -0.0020
  728MOL0     C96005   3.073   4.039   2.374  0.4266 -0.6639  0.0936
  728MOL0     C96006   3.176   3.921   2.352 -0.9959  2.0990 -0.2480
  728MOL0     C96007   3.184   3.824   2.472 -0.0209  1.0364  0.1883
  728MOL0    Cl96008   3.249   3.887   2.617  0.0161  0.3226  0.3643
  728MOL0     C96009   2.667   4.625   2.236  0.2005  0.2810 -0.5050
  728MOL0     C96010   2.579   4.719   2.188  0.1425 -0.1343  0.5481
  728MOL0     O96011   2.339   4.827   2.110  0.8649  0.9741  0.1730
  728MOL0     C96012   2.279   5.120   2.287  0.2180 -0.0548  0.4068
  728MOL0     C96013   2.168   5.203   2.320 -0.1041  0.0053 -0.2195
  728MOL0     N96014   2.045   5.826   2.288  0.9034  0.4231  0.4737
  728MOL0     N96015   2.124   5.919   2.246  0.0326  0.5802  0.4985
  728MOL0     C96016   2.572   6.917   1.952 -0.5134  0.9438  0.7188
  728MOL0     C96017   2.637   7.004   1.853 -0.0316 -1.3135  0.3571
  728MOL0     C96018   2.866   7.331   1.670  0.1412 -0.3106  1.4038
  728MOL0     C96019   2.990   7.305   1.614 -0.5364 -0.0105 -0.9775
  728MOL0     C96020   3.065   7.385   1.535  1.0220 -0.6057 -0.4252
  728MOL0     C96021   3.019   7.507   1.495 -0.0983  0.2127 -0.5805
  728MOL0     O96022   3.087   7.576   1.394  0.6256 -0.6285 -0.0025
  728MOL0     C96023   3.159   7.690   1.434  0.3126 -0.6664 -0.3644
  728MOL0     C96024   3.262   7.716   1.322  0.4012 -0.1458 -1.2018
  728MOL0     C96025   3.350   7.587   1.308 -0.5221 -0.8166 -0.1236
  728MOL0     C96026   3.415   7.596   1.173 -0.6468  0.4195  0.2249
  728MOL0     C96027   3.494   7.471   1.148 -0.3718 -0.2952 -0.6145
  728MOL0     C96028   3.553   7.365   1.157  0.4622 -0.4630 -0.4671
  728MOL0     C96029   2.899   7.549   1.553 -1.0676 -0.2465 -0.2318
  728MOL0     C96030   2.819   7.469   1.634 -0.2227  0.0743 -0.0470
  728MOL0     H96031   2.953   6.974   1.959 -0.5634  1.0370 -0.3793
  728MOL0     H96032   2.840   6.838   2.136 -1.3680 -0.8084  0.8384
  728MOL0     H96033   2.403   6.802   2.139 -1.6580  0.3048  2.2294
  728MOL0     H96034   2.446   6.700   2.264  1.0373  1.9255  0.6586
  728MOL0     H96035   2.423   6.638   1.965 -1.2493  0.9801  1.0953
  728MOL0     H96036   2.330   6.584   2.102 -0.7076  1.4230  0.9149
  728MOL0     H96037   2.598   6.486   2.166  2.4651 -4.1414 -1.5215
  728MOL0     H96038   2.612   6.477   2.005  1.0367  0.4030  0.7336
  728MOL0     H96039   2.403   6.347   2.171  1.8080  0.6683  1.5689
  728MOL0     H96040   2.383   6.352   1.985  0.5547  1.2428  0.1573
  728MOL0     H96041   2.595   6.227   2.161  0.3012  2.0416  0.0406
  728MOL0     H96042   2.612   6.241   1.975 -0.0157  0.2819 -0.6598
  728MOL0     H96043   2.574   6.027   2.044  1.0103  1.5039 -1.0102
  728MOL0     H96044   2.455   6.082   1.927  0.0888 -1.6111  0.2683
  728MOL0     H96045   2.439   6.026   2.231  0.3949 -2.5453 -1.5328
  728MOL0     H96046   2.317   6.131   2.147  1.4531  2.3430  0.6194
  728MOL0     H96047   2.402   5.853   2.055  0.4304  0.2766  1.9041
  728MOL0     H96048   2.276   5.940   1.996  1.1073 -1.1614 -0.7053
  728MOL0     H96049   2.259   5.639   2.124  1.6433  1.0428  1.2331
  728MOL0     H96050   1.968   5.551   2.344 -0.2767 -0.7149 -1.4052
  728MOL0     H96051   2.080   5.485   2.228 -0.6582  0.2950 -4.1656
  728MOL0     H96052   1.942   5.544   2.051  1.5300  2.0474  0.1703
  728MOL0     H96053   1.843   5.658   2.159  0.5030  1.0244 -0.3032
  728MOL0     H96054   1.773   5.465   2.307  0.0859 -0.6277  0.6980
  728MOL0     H96055   1.700   5.459   2.152 -0.4382  0.5049  0.2396
  728MOL0     H96056   1.905   5.312   2.078  1.3025 -0.4403 -0.0187
  728MOL0     H96057   1.770   5.241   2.177 -1.1555  1.3514 -1.2943
  728MOL0     H96058   1.941   5.090   2.096 -1.1466 -0.2437  1.8079
  728MOL0     H96059   2.127   4.952   2.031 -2.1471 -0.7435  0.0345
  728MOL0     H96060   2.657   4.982   2.383  2.4907  0.9549 -1.4985
  728MOL0     H96061   2.804   4.828   2.479  0.2489 -0.7534  0.6258
  728MOL0     H96062   2.981   4.537   2.521  2.0080 -0.4641 -1.0494
  728MOL0     H96063   2.988   4.677   2.417  0.2112  0.4047  0.1618
  728MOL0     H96064   3.141   4.559   2.334 -1.4886  1.0341  3.0221
  728MOL0     H96065   3.017   4.523   2.208  5.2615 -1.5385 -2.6307
  728MOL0     H96066   3.146   4.323   2.260 -0.6262 -0.4037 -1.4755
  728MOL0     H96067   2.969   4.306   2.273  0.0213 -0.4272  0.8114
  728MOL0     H96068   3.105   4.348   2.533  0.4254  0.3384 -0.2171
  728MOL0     H96069   2.958   4.269   2.502  1.9635  3.6408  3.5103
  728MOL0     H96070   3.158   4.130   2.560  0.4783 -0.3054 -0.1693
  728MOL0     H96071   3.232   4.165   2.419 -0.5862  0.4380 -2.1463
  728MOL0     H96072   3.061   4.071   2.270  4.5519 -1.3660 -0.7811
  728MOL0     H96073   2.976   4.004   2.410  1.5277 -1.3784  2.5561
  728MOL0     H96074   3.122   3.858   2.281 -3.1255  1.0741  2.1166
  728MOL0     H96075   3.270   3.954   2.308  0.0522  1.0040  1.0943
  728MOL0     H96076   3.248   3.745   2.433 -0.0991  1.9490 -1.9380
  728MOL0     H96077   3.084   3.785   2.492 -0.4089  0.2104 -2.8176
  728MOL0     H96078   2.661   4.526   2.193 -1.6064 -0.0825  0.4490
  728MOL0     H96079   2.512   4.681   2.112 -0.4217  0.5692  0.6737
  728MOL0     H96080   2.365   5.121   2.353 -2.1077 -0.1219  3.6683
  728MOL0     H96081   2.185   5.288   2.384  5.7603  0.7289 -2.2076
  728MOL0     H96082   2.465   6.904   1.947 -0.3585 -2.3696  2.9942
  728MOL0     H96083   2.595   7.055   1.767 -0.3448 -1.8456  0.1870
  728MOL0     H96084   3.028   7.207   1.641  1.0120  0.5757 -0.8979
  728MOL0     H96085   3.152   7.338   1.490  1.2235  2.0465 -3.1149
  728MOL0     H96086   3.195   7.668   1.535 -1.2806 -1.0872  0.1394
  728MOL0     H96087   3.092   7.772   1.462 -0.3250 -1.6411  1.1300
  728MOL0     H96088   3.204   7.732   1.230 -2.3961 -2.7277 -0.0920
  728MOL0     H96089   3.324   7.801   1.350  0.5949 -0.1888 -1.4989
  728MOL0     H96090   3.296   7.492   1.311  2.0739 -2.4018 -0.3611
  728MOL0     H96091   3.429   7.592   1.384 -1.0002  0.8080  0.2945
  728MOL0     H96092   3.337   7.603   1.096  0.5228  0.3115 -1.0125
  728MOL0     H96093   3.479   7.682   1.153  0.8986 -0.1402  2.3606
  728MOL0     H96094   3.578   7.261   1.171 -0.3441 -0.8587 -1.7958
  728MOL0     H96095   2.857   7.646   1.528  0.7456  1.3453  2.3988
  728MOL0     H96096   2.719   7.488   1.671 -1.2732  1.0898 -3.1492
  729MOL0     O96097   8.757   5.565   2.478 -0.1999  0.4955 -0.6579
  729MOL0     C96098   8.766   5.536   2.594 -0.0491  0.1419  0.4913
  729MOL0     O96099   8.680   5.581   2.688  0.4800  0.0949 -0.5652
  729MOL0     C96100   8.582   5.675   2.653 -0.3994 -0.6388  0.9564
  729MOL0     C96101   8.444   5.668   2.693  0.8329 -0.4051  0.2788
  729MOL0     C96102   8.354   5.769   2.678 -1.0420 -0.6534  0.2911
  729MOL0     C96103   8.388   5.877   2.598  0.9208 -0.2336  0.4949
  729MOL0     O96104   8.300   5.974   2.553 -1.0131  0.9155  0.0806
  729MOL0     C96105   8.164   5.958   2.598 -0.3039 -1.1071 -0.3705
  729MOL0     C96106   8.082   5.880   2.494 -0.0842 -0.0570  0.5403
  729MOL0     C96107   7.937   5.882   2.541 -0.4384  0.4432  0.1185
  729MOL0     C96108   7.859   5.809   2.428 -0.1560 -0.0461 -0.1398
  729MOL0     C96109   7.715   5.792   2.459 -0.2423  0.0921  0.6373
  729MOL0     C96110   7.631   5.717   2.348  0.1446  0.0029  0.1091
  729MOL0     C96111   7.477   5.726   2.388 -0.0685  0.7349 -0.1733
  729MOL0     C96112   7.394   5.629   2.289 -0.0733  0.3117 -1.0367
  729MOL0     N96113   7.359   5.710   2.175 -0.2041 -1.1077 -0.0400
  729MOL0     C96114   7.247   5.784   2.160  0.6134 -0.0187 -0.3940
  729MOL0     C96115   7.253   5.849   2.048 -0.3174  0.1571  0.8811
  729MOL0     C96116   7.163   5.934   1.978 -0.2834 -0.5876  0.2408
  729MOL0     C96117   7.136   6.069   2.045  0.5286  0.3315 -0.3611
  729MOL0     C96118   7.056   6.159   1.957 -0.3373 -0.1846  0.2423
  729MOL0     C96119   7.006   6.284   2.030 -0.1110 -0.1018  0.5194
  729MOL0     O96120   7.121   6.347   2.097  0.4715 -0.1300  0.3482
  729MOL0     C96121   7.095   6.444   2.192 -0.5654 -0.2220  0.4521
  729MOL0     C96122   7.199   6.445   2.280 -1.0881 -0.3649 -0.6256
  729MOL0     C96123   7.185   6.517   2.396 -0.7784  0.3237 -0.8842
  729MOL0     C96124   7.076   6.600   2.430  0.6843 -0.5489 -1.1838
  729MOL0     C96125   7.074   6.678   2.560 -0.3762  0.7170  0.3360
  729MOL0     O96126   6.999   6.794   2.568 -0.4260  0.5580  0.3761
  729MOL0     C96127   6.985   6.864   2.677  0.3224 -0.0428 -0.0820
  729MOL0     C96128   7.073   6.906   2.776 -0.4898  0.4018 -0.1044
  729MOL0     C96129   7.034   6.974   2.895 -0.9793 -0.0398  0.9669
  729MOL0     C96130   6.906   7.023   2.910 -0.0170  0.3523  0.6666
  729MOL0     O96131   6.851   7.091   3.013 -0.3568 -0.4622 -0.4223
  729MOL0     C96132   6.924   7.086   3.132  0.7607 -0.1822  0.2932
  729MOL0     C96133   6.856   7.152   3.249  0.6741 -0.4315  0.3589
  729MOL0     C96134   6.916   7.114   3.381  0.1995 -0.6769 -0.9905
  729MOL0     C96135   6.881   7.201   3.506 -0.1758  0.2704 -0.2049
  729MOL0     C96136   6.981   7.175   3.623  0.1394 -0.0156 -0.5802
  729MOL0     C96137   6.941   7.251   3.748  0.7087 -0.3777 -0.6479
  729MOL0     C96138   6.966   7.174   3.877  0.3496  0.3402  0.3290
  729MOL0     C96139   6.974   7.266   3.995 -0.0801  0.2449  0.4387
  729MOL0    Cl96140   6.842   7.382   3.995 -0.3933 -0.1110  0.4098
  729MOL0     C96141   6.819   6.984   2.815 -0.4546  0.4108 -0.5395
  729MOL0     C96142   6.850   6.902   2.700 -0.8637  1.0235 -0.8124
  729MOL0     O96143   7.140   6.622   2.649 -0.1993  0.1716 -0.3659
  729MOL0     C96144   6.973   6.598   2.335  0.5474  0.0138 -0.0728
  729MOL0     C96145   6.985   6.518   2.216 -0.2399 -0.3485  0.1935
  729MOL0     N96146   7.373   5.803   1.991  0.1642 -0.1946  0.3508
  729MOL0     N96147   7.447   5.732   2.071  0.4427 -0.4019 -0.0256
  729MOL0     C96148   8.525   5.890   2.554  0.3011 -0.3408 -0.7451
  729MOL0     C96149   8.619   5.797   2.597  0.4746 -0.7462 -0.2874
  729MOL0     C96150   8.861   5.435   2.634  0.0849  0.2399  0.1435
  729MOL0     C96151   8.924   5.439   2.759  0.4340 -0.0206 -0.5130
  729MOL0     C96152   9.018   5.340   2.799  0.3919  0.3545  0.5940
  729MOL0     C96153   9.074   5.260   2.694 -0.0750  0.0341 -0.3941
  729MOL0     O96154   9.177   5.170   2.735 -0.1008 -1.0232 -0.0152
  729MOL0     C96155   9.262   5.124   2.632 -0.2975 -0.1532 -0.1546
  729MOL0     C96156   9.373   5.048   2.695  0.1807 -0.0746  0.1534
  729MOL0     C96157   9.466   5.154   2.764  0.1036  0.7506  0.2457
  729MOL0     C96158   9.601   5.093   2.811 -0.9533  0.8372 -0.0346
  729MOL0     C96159   9.688   5.194   2.875  0.8404  0.0793  0.7553
  729MOL0     C96160   9.768   5.264   2.934  0.7105 -0.6460  0.4817
  729MOL0     C96161   9.018   5.255   2.571  0.2696 -0.3661  0.4996
  729MOL0     C96162   8.907   5.337   2.538 -0.3117 -0.7400  0.6947
  729MOL0     H96163   8.400   5.578   2.734 -1.7378  0.2146 -0.9462
  729MOL0     H96164   8.259   5.756   2.728 -0.2910 -3.1893  1.1853
  729MOL0     H96165   8.131   6.062   2.589  0.2806 -0.8385  0.5931
  729MOL0     H96166   8.154   5.931   2.703  0.1635 -1.6943 -0.4707
  729MOL0     H96167   8.117   5.776   2.485 -1.2563 -0.3361 -1.3182
  729MOL0     H96168   8.098   5.924   2.395  0.7901 -1.2080  0.1454
  729MOL0     H96169   7.922   5.988   2.562  3.8240  0.7617  2.6969
  729MOL0     H96170   7.927   5.823   2.633  0.0758  2.5796  1.5964
  729MOL0     H96171   7.872   5.872   2.340  3.2338  1.8241  1.5061
  729MOL0     H96172   7.905   5.712   2.411 -0.4268  0.1478 -2.1402
  729MOL0     H96173   7.683   5.896   2.466  1.3516  0.6919 -0.3036
  729MOL0     H96174   7.706   5.735   2.552  0.7608  0.4313  0.9666
  729MOL0     H96175   7.663   5.613   2.342  3.9664  1.0686 -0.5253
  729MOL0     H96176   7.639   5.764   2.250  1.3462  0.9991  0.6532
  729MOL0     H96177   7.467   5.696   2.492  1.4968  0.6887 -0.0093
  729MOL0     H96178   7.444   5.830   2.381  0.4680  1.0574  1.6109
  729MOL0     H96179   7.300   5.595   2.333  0.3994 -0.1345 -0.3535
  729MOL0     H96180   7.463   5.553   2.249  1.1180  1.3920 -1.0897
  729MOL0     H96181   7.164   5.793   2.228 -0.6712 -0.7824 -1.7900
  729MOL0     H96182   7.070   5.878   1.964 -0.3840 -0.4552  0.3744
  729MOL0     H96183   7.207   5.962   1.882  1.4142  1.2374  1.4902
  729MOL0     H96184   7.231   6.117   2.070 -0.7548  3.2216 -0.6903
  729MOL0     H96185   7.072   6.059   2.133  2.3246 -1.3855  0.8518
  729MOL0     H96186   7.097   6.178   1.858  0.2337 -3.6390 -0.3223
  729MOL0     H96187   6.967   6.098   1.938 -0.7184  1.5727 -5.6555
  729MOL0     H96188   6.929   6.251   2.100 -3.4663  1.9618 -1.9190
  729MOL0     H96189   6.958   6.349   1.956 -1.1169 -0.6216  0.7076
  729MOL0     H96190   7.290   6.390   2.259 -0.9115  0.4083 -2.0370
  729MOL0     H96191   7.271   6.521   2.462  0.0753  0.2600 -1.9705
  729MOL0     H96192   7.179   6.884   2.768 -0.8775 -2.9566  2.0573
  729MOL0     H96193   7.106   6.997   2.973  0.1404 -0.1999  0.0143
  729MOL0     H96194   7.024   7.132   3.128  1.6909 -2.1648 -0.2019
  729MOL0     H96195   6.945   6.982   3.156  1.8154 -0.3428 -1.1594
  729MOL0     H96196   6.751   7.123   3.247  0.9405 -1.4229 -0.8100
  729MOL0     H96197   6.867   7.259   3.231  1.6290 -0.4918  0.5169
  729MOL0     H96198   7.023   7.130   3.368  0.6847 -3.1298 -0.4983
  729MOL0     H96199   6.892   7.010   3.403 -4.1946  0.2318 -0.4030
  729MOL0     H96200   6.896   7.307   3.481 -2.4773  0.8153  0.3960
  729MOL0     H96201   6.774   7.198   3.528  0.3127  1.1393  2.7366
  729MOL0     H96202   7.087   7.183   3.596 -0.2214 -0.0349 -2.0972
  729MOL0     H96203   6.981   7.068   3.642  1.2758  0.3221  1.6031
  729MOL0     H96204   6.835   7.269   3.734  0.3113 -2.7227 -1.0823
  729MOL0     H96205   6.982   7.352   3.750 -2.1149  0.9396 -2.9173
  729MOL0     H96206   6.869   7.123   3.877 -1.1676  3.0569 -0.2208
  729MOL0     H96207   7.056   7.112   3.869 -0.8555 -1.9730  2.8975
  729MOL0     H96208   7.066   7.326   3.992 -0.3412  0.6320 -2.3805
  729MOL0     H96209   6.982   7.202   4.083  0.0779 -0.0993  0.1736
  729MOL0     H96210   6.712   7.001   2.825 -0.5048 -0.4300  0.4969
  729MOL0     H96211   6.777   6.886   2.621  1.2489  0.7597 -2.7912
  729MOL0     H96212   6.882   6.652   2.359  0.0202 -2.0155  2.9520
  729MOL0     H96213   6.906   6.502   2.143  0.8387  0.6943 -1.2528
  729MOL0     H96214   8.560   5.981   2.504 -0.5198 -0.5759 -1.7745
  729MOL0     H96215   8.725   5.801   2.571 -0.0791 -1.0481 -2.8294
  729MOL0     H96216   8.871   5.503   2.828 -1.2578 -2.0735  0.2139
  729MOL0     H96217   9.052   5.342   2.902  0.1185  3.2906  0.7358
  729MOL0     H96218   9.294   5.201   2.560 -1.4109 -1.3716 -2.0533
  729MOL0     H96219   9.204   5.051   2.574 -1.2436  0.4006  0.0744
  729MOL0     H96220   9.341   4.969   2.763 -0.2722 -2.8361 -2.9627
  729MOL0     H96221   9.427   4.994   2.616  3.2796 -0.0106  2.0844
  729MOL0     H96222   9.418   5.188   2.856  0.5084 -2.5806  1.8613
  729MOL0     H96223   9.488   5.238   2.698 -2.4608  0.2309 -1.4220
  729MOL0     H96224   9.590   5.006   2.877 -1.3809 -0.0938 -1.2802
  729MOL0     H96225   9.649   5.057   2.719 -3.2557 -0.2930 -0.8872
  729MOL0     H96226   9.842   5.326   2.981 -0.9242  1.2048  0.7282
  729MOL0     H96227   9.055   5.188   2.493  4.1500  1.2629  0.7188
  729MOL0     H96228   8.853   5.325   2.444  0.5828 -1.4541  0.2664
  730MOL0     O96229  10.682   5.249   5.640 -0.2361 -0.2387 -0.5686
  730MOL0     C96230  10.731   5.276   5.531 -0.1719 -0.4501  0.8447
  730MOL0     O96231  10.661   5.304   5.424  0.1335  0.1500  0.3191
  730MOL0     C96232  10.525   5.309   5.440 -0.0287 -1.2601  0.4637
  730MOL0     C96233  10.476   5.402   5.537  0.0814 -0.3163 -1.2466
  730MOL0     C96234  10.345   5.415   5.555  1.5798 -0.3579 -0.3092
  730MOL0     C96235  10.257   5.346   5.481  0.6714  0.8084 -0.1259
  730MOL0     O96236  10.126   5.344   5.512  0.6095 -0.7366 -0.8386
  730MOL0     C96237  10.028   5.325   5.409 -0.2136  0.4930  1.5807
  730MOL0     C96238   9.971   5.186   5.404 -0.1970  1.0889  1.1048
  730MOL0     C96239   9.914   5.138   5.265  0.9959  0.7025  0.7170
  730MOL0     C96240   9.886   4.983   5.278  0.8476  0.8151 -0.9679
  730MOL0     C96241   9.741   4.948   5.327  0.7715 -0.9940  0.5995
  730MOL0     C96242   9.719   4.794   5.289 -0.3835 -0.1227  1.2326
  730MOL0     C96243   9.570   4.774   5.264  0.0534  0.4916  0.3124
  730MOL0     C96244   9.481   4.790   5.380  0.4615  0.5936 -0.8181
  730MOL0     N96245   9.337   4.774   5.345  0.7185  0.7951 -0.0609
  730MOL0     C96246   9.283   4.701   5.238  0.1503 -0.0363 -0.3346
  730MOL0     C96247   9.152   4.727   5.251 -0.0693 -0.2199 -0.1958
  730MOL0     C96248   9.044   4.700   5.151  0.7409  0.0880 -0.8262
  730MOL0     C96249   8.897   4.688   5.214  0.4563 -0.3401 -0.3470
  730MOL0     C96250   8.866   4.567   5.304  0.1620  0.0235  0.8992
  730MOL0     C96251   8.730   4.564   5.364 -0.2908  0.2530 -0.1338
  730MOL0     O96252   8.703   4.689   5.436 -0.4230 -0.3829 -0.3775
  730MOL0     C96253   8.566   4.689   5.448  0.0709 -0.4596  0.4832
  730MOL0     C96254   8.506   4.601   5.543  0.5870 -0.4378  0.5066
  730MOL0     C96255   8.368   4.608   5.571  0.3062  0.2538  0.3777
  730MOL0     C96256   8.280   4.695   5.502 -0.2912  0.7206  1.0373
  730MOL0     C96257   8.130   4.683   5.524  0.0936  1.0300 -0.6156
  730MOL0     O96258   8.069   4.564   5.573 -0.8685 -0.5747  0.5638
  730MOL0     C96259   7.937   4.567   5.612  0.7512  0.2823 -0.1259
  730MOL0     C96260   7.900   4.528   5.739 -1.0562  0.0428 -0.7807
  730MOL0     C96261   7.759   4.504   5.769  0.2223  0.9119  0.1883
  730MOL0     C96262   7.660   4.522   5.671  0.6506  0.8351  0.1797
  730MOL0     O96263   7.528   4.489   5.675  0.8050  0.7223  0.3084
  730MOL0     C96264   7.444   4.557   5.771  0.0873  0.2060 -0.2416
  730MOL0     C96265   7.296   4.509   5.737  0.3157 -0.0424  0.5229
  730MOL0     C96266   7.201   4.613   5.802  0.2257 -0.0831  0.6192
  730MOL0     C96267   7.066   4.626   5.728 -0.5674  0.8207  0.6406
  730MOL0     C96268   6.965   4.708   5.798 -0.1431  0.7919  1.1365
  730MOL0     C96269   6.819   4.680   5.756 -0.1839 -0.4132  0.1829
  730MOL0     C96270   6.724   4.797   5.808 -0.0904 -0.4154 -0.0816
  730MOL0     C96271   6.575   4.748   5.814 -1.2370  0.5269 -0.1994
  730MOL0    Cl96272   6.541   4.642   5.959  0.1030  0.1953 -0.0672
  730MOL0     C96273   7.688   4.581   5.555  0.4723 -0.0562  0.4377
  730MOL0     C96274   7.825   4.600   5.518 -0.1745  1.1901 -0.2981
  730MOL0     O96275   8.068   4.780   5.488 -0.5574 -0.6279 -0.0405
  730MOL0     C96276   8.346   4.782   5.412  0.1585  0.0571  0.8892
  730MOL0     C96277   8.483   4.780   5.383 -0.2845  0.4936  0.4248
  730MOL0     N96278   9.130   4.794   5.369 -0.0012  0.3619 -0.5402
  730MOL0     N96279   9.236   4.815   5.431 -0.1587 -0.5002  0.1237
  730MOL0     C96280  10.303   5.264   5.375  0.6356 -0.8621  0.3125
  730MOL0     C96281  10.437   5.251   5.361 -0.2359  0.6265  0.9227
  730MOL0     C96282  10.870   5.248   5.510 -0.1753 -0.0776  0.0606
  730MOL0     C96283  10.939   5.274   5.391  1.3862 -0.1683  0.3226
  730MOL0     C96284  11.072   5.227   5.371  0.8575  0.9512 -0.5435
  730MOL0     C96285  11.140   5.160   5.474  0.3644 -0.8404  0.2903
  730MOL0     O96286  11.264   5.100   5.459 -0.2367  0.2884 -0.1727
  730MOL0     C96287  11.337   5.093   5.333  0.2406  0.0766 -0.2780
  730MOL0     C96288  11.287   4.967   5.268  0.0038  0.4077  0.0646
  730MOL0     C96289  11.350   4.962   5.126  0.4257 -0.1286  0.4193
  730MOL0     C96290  11.267   5.040   5.024 -0.4500  0.2481  1.2840
  730MOL0     C96291  11.333   5.063   4.892  0.4002 -0.0263 -0.5786
  730MOL0     C96292  11.360   5.084   4.773  0.0519  1.0516 -0.0790
  730MOL0     C96293  11.072   5.136   5.593 -0.4075 -0.9051  0.4412
  730MOL0     C96294  10.946   5.191   5.615 -0.0380  0.3744 -0.4763
  730MOL0     H96295  10.548   5.446   5.605  0.3480  1.7913 -2.7962
  730MOL0     H96296  10.291   5.472   5.630 -0.5911 -3.7138  0.8951
  730MOL0     H96297  10.056   5.361   5.309 -0.2367  2.3059  2.1891
  730MOL0     H96298   9.945   5.389   5.442 -1.2280 -1.4669  3.0155
  730MOL0     H96299   9.892   5.181   5.479 -0.9825 -0.2790  0.2233
  730MOL0     H96300  10.051   5.116   5.428  1.9729  2.7317 -0.8439
  730MOL0     H96301   9.994   5.157   5.193  1.0110 -0.0121  0.5380
  730MOL0     H96302   9.826   5.198   5.239  1.5705  0.5990 -1.7673
  730MOL0     H96303   9.891   4.941   5.177 -0.4572 -1.8270 -0.0062
  730MOL0     H96304   9.965   4.928   5.329 -1.0705 -0.4077  0.8279
  730MOL0     H96305   9.671   5.022   5.287  2.0759  0.7021  1.3307
  730MOL0     H96306   9.746   4.962   5.436  0.3644  1.4804  0.3515
  730MOL0     H96307   9.758   4.735   5.372  1.6124  0.2336  0.5994
  730MOL0     H96308   9.773   4.768   5.197 -4.7475  0.2746 -1.7574
  730MOL0     H96309   9.543   4.840   5.181  0.6347 -0.4157 -0.6218
  730MOL0     H96310   9.554   4.674   5.222  0.7245 -0.7229  2.7649
  730MOL0     H96311   9.486   4.885   5.434 -0.6218  0.8846 -1.1949
  730MOL0     H96312   9.507   4.712   5.452  0.2663  1.0405 -0.2565
  730MOL0     H96313   9.337   4.650   5.159 -0.9129  0.4834 -1.4165
  730MOL0     H96314   9.063   4.603   5.104  0.7542  0.9537 -2.7131
  730MOL0     H96315   9.050   4.785   5.081  1.5479  0.0033 -0.8696
  730MOL0     H96316   8.826   4.698   5.132  1.0201  0.3032 -0.7649
  730MOL0     H96317   8.889   4.779   5.275  0.4861 -1.1977  0.9996
  730MOL0     H96318   8.875   4.474   5.247  0.9271  1.3617 -1.2796
  730MOL0     H96319   8.930   4.575   5.392  0.2280 -1.2765  0.9836
  730MOL0     H96320   8.722   4.485   5.438 -0.2391  1.9618  1.7757
  730MOL0     H96321   8.658   4.554   5.282 -1.9276 -1.4711  1.4555
  730MOL0     H96322   8.573   4.530   5.589 -0.8224 -0.7654  2.1782
  730MOL0     H96323   8.317   4.535   5.631 -0.4437  1.5922  1.4172
  730MOL0     H96324   7.976   4.499   5.811 -2.3274  1.3121  1.1704
  730MOL0     H96325   7.733   4.449   5.859 -0.1097  3.6231  1.8541
  730MOL0     H96326   7.448   4.666   5.761  0.6929  0.1826 -0.2757
  730MOL0     H96327   7.461   4.527   5.875 -3.0254 -1.6509 -0.1374
  730MOL0     H96328   7.266   4.409   5.770  0.1681  0.6781  2.7246
  730MOL0     H96329   7.284   4.516   5.628 -2.9721  0.8899  0.8393
  730MOL0     H96330   7.257   4.707   5.793  1.0618 -0.7518 -2.3098
  730MOL0     H96331   7.188   4.568   5.901 -0.0941 -3.4165 -0.8158
  730MOL0     H96332   7.104   4.664   5.632 -1.2830 -2.0281 -0.8937
  730MOL0     H96333   7.036   4.521   5.715  3.2543 -0.3005 -0.4939
  730MOL0     H96334   6.974   4.802   5.743 -2.4757 -0.5494 -1.8410
  730MOL0     H96335   6.992   4.712   5.904  1.9544 -0.3939  0.6934
  730MOL0     H96336   6.778   4.584   5.789 -0.6245 -1.3734 -2.9015
  730MOL0     H96337   6.825   4.689   5.647  0.1265 -0.3139  0.2063
  730MOL0     H96338   6.752   4.834   5.907 -4.6237  3.4473  0.1566
  730MOL0     H96339   6.722   4.883   5.740 -1.8399 -0.2615  0.1017
  730MOL0     H96340   6.545   4.701   5.720  0.1451  1.5633 -1.1936
  730MOL0     H96341   6.509   4.835   5.813 -1.2222  0.5719  1.1268
  730MOL0     H96342   7.607   4.612   5.490 -0.6971 -1.4494  1.1724
  730MOL0     H96343   7.857   4.626   5.417  3.5599  1.6646  0.8442
  730MOL0     H96344   8.287   4.855   5.357  1.7561  0.8900  0.2389
  730MOL0     H96345   8.529   4.852   5.316  0.6905 -0.4723  0.0396
  730MOL0     H96346  10.230   5.213   5.312 -1.2560  0.6672  1.1442
  730MOL0     H96347  10.485   5.201   5.278 -0.2415 -0.0291  1.3058
  730MOL0     H96348  10.890   5.322   5.307 -1.3717 -1.1429  1.2514
  730MOL0     H96349  11.116   5.255   5.276 -0.3945 -0.7220 -1.6792
  730MOL0     H96350  11.446   5.092   5.348  0.2413 -1.2916 -0.2870
  730MOL0     H96351  11.320   5.171   5.258 -1.7376  0.6150  0.6710
  730MOL0     H96352  11.321   4.881   5.327  0.2026  0.5123  0.1035
  730MOL0     H96353  11.180   4.946   5.259  0.3336 -3.1310  2.5048
  730MOL0     H96354  11.350   4.857   5.094 -0.6487  0.1676 -0.6096
  730MOL0     H96355  11.452   5.002   5.125 -0.5729  2.6830  1.8307
  730MOL0     H96356  11.175   4.984   5.006 -2.0381  2.7392  1.1795
  730MOL0     H96357  11.236   5.141   5.052 -1.8439  1.0128 -2.3384
  730MOL0     H96358  11.374   5.083   4.667 -2.2253 -2.0999 -0.5079
  730MOL0     H96359  11.116   5.081   5.675 -0.8160  1.0246  2.0275
  730MOL0     H96360  10.902   5.170   5.712 -0.8192  0.2709 -0.8448
  731MOL0     O96361   7.718   8.146   1.669 -0.3262  0.2876 -0.1794
  731MOL0     C96362   7.769   8.061   1.596 -0.2747  0.4095 -0.0770
  731MOL0     O96363   7.907   8.041   1.576  0.5943  0.3198  0.0990
  731MOL0     C96364   8.006   8.100   1.654 -0.1149  1.4713  0.2266
  731MOL0     C96365   8.115   8.020   1.691 -0.0404  0.1986 -0.4928
  731MOL0     C96366   8.225   8.088   1.749  0.5308  0.4902 -0.4277
  731MOL0     C96367   8.233   8.229   1.765 -0.0336 -0.3155  0.3746
  731MOL0     O96368   8.343   8.312   1.805 -0.0124  0.3552  0.2843
  731MOL0     C96369   8.474   8.243   1.811 -0.8002 -0.2997 -0.0150
  731MOL0     C96370   8.585   8.343   1.846 -0.6032  0.1740  0.1715
  731MOL0     C96371   8.729   8.276   1.850  0.3026 -0.0332  1.1787
  731MOL0     C96372   8.827   8.388   1.878  0.5465 -0.1961 -0.0902
  731MOL0     C96373   8.975   8.353   1.888  0.6762 -0.2122 -0.5052
  731MOL0     C96374   9.013   8.306   2.032 -0.3794  0.1165  0.7433
  731MOL0     C96375   9.154   8.259   2.030 -0.6643  0.0191  0.0916
  731MOL0     C96376   9.254   8.378   2.000  0.2045 -0.0572 -0.5094
  731MOL0     N96377   9.372   8.363   2.076  0.2414 -0.1943  0.3164
  731MOL0     C96378   9.375   8.371   2.212 -0.8060 -0.4318 -0.2610
  731MOL0     C96379   9.509   8.340   2.232 -0.0596 -0.3933 -0.4231
  731MOL0     C96380   9.544   8.346   2.381 -0.2337  0.3110 -0.7671
  731MOL0     C96381   9.693   8.354   2.419 -0.0784 -0.2022  0.6287
  731MOL0     C96382   9.777   8.235   2.373  0.4716  0.4158 -0.6773
  731MOL0     C96383   9.929   8.277   2.348 -0.2530  0.4828 -0.2429
  731MOL0     O96384   9.937   8.298   2.209  0.1229 -0.1382  0.0208
  731MOL0     C96385  10.053   8.346   2.147 -0.3431  0.3610 -0.6476
  731MOL0     C96386  10.056   8.343   2.004 -0.0187 -0.5268  0.1658
  731MOL0     C96387  10.175   8.401   1.944  0.0820  0.4234  0.2271
  731MOL0     C96388  10.276   8.469   2.012 -0.9718 -0.0194  0.6145
  731MOL0     C96389  10.413   8.495   1.946 -0.4274 -0.2970  0.3902
  731MOL0     O96390  10.530   8.476   2.017 -0.3076  0.8497 -0.0782
  731MOL0     C96391  10.645   8.522   1.952  1.0082  0.2645  0.3862
  731MOL0     C96392  10.700   8.437   1.855 -0.0876  0.8111 -0.9723
  731MOL0     C96393  10.804   8.476   1.782  0.1771 -0.8174 -0.1601
  731MOL0     C96394  10.873   8.604   1.801  0.0633  0.3266 -0.3168
  731MOL0     O96395  10.981   8.623   1.715  1.0856  0.1630 -0.8241
  731MOL0     C96396  11.056   8.749   1.737 -1.1715  0.9140 -0.3044
  731MOL0     C96397  11.134   8.775   1.604  0.1121  0.4595  0.5278
  731MOL0     C96398  11.064   8.733   1.476  0.4746  0.9673 -0.3387
  731MOL0     C96399  10.919   8.789   1.462 -0.4511  0.4383 -0.0376
  731MOL0     C96400  10.866   8.822   1.321 -0.8456 -0.2243 -0.2260
  731MOL0     C96401  10.922   8.951   1.270  0.6749 -0.0636  0.9658
  731MOL0     C96402  10.871   8.970   1.128 -0.1389  0.2531  0.1784
  731MOL0     C96403  10.899   9.117   1.083  0.2517  0.7033 -0.1539
  731MOL0    Cl96404  11.069   9.136   1.061  0.2485  0.6383  0.2288
  731MOL0     C96405  10.826   8.685   1.904 -0.2171 -0.3930 -0.0231
  731MOL0     C96406  10.714   8.644   1.983  0.0781 -0.3693 -0.1714
  731MOL0     O96407  10.401   8.533   1.831  0.3137  0.1498  0.0887
  731MOL0     C96408  10.270   8.483   2.151 -0.2974 -0.5174 -0.8215
  731MOL0     C96409  10.156   8.422   2.221 -0.4471  0.9205 -0.3753
  731MOL0     N96410   9.567   8.305   2.118  0.4790  0.2359 -0.5923
  731MOL0     N96411   9.481   8.315   2.026 -0.3053 -0.3263  1.0290
  731MOL0     C96412   8.120   8.296   1.723  0.2946 -0.3158 -0.5655
  731MOL0     C96413   8.007   8.235   1.662 -1.0166 -0.1401  0.2974
  731MOL0     C96414   7.679   7.979   1.509  0.2212  0.2284 -0.9017
  731MOL0     C96415   7.706   7.841   1.480 -0.5095 -0.4611  0.3979
  731MOL0     C96416   7.601   7.767   1.415  0.2455 -0.0522  0.8143
  731MOL0     C96417   7.475   7.833   1.374 -0.0161  0.1179  0.1803
  731MOL0     O96418   7.368   7.759   1.333 -0.1029 -0.1361  0.2002
  731MOL0     C96419   7.337   7.661   1.436  0.0343 -0.2451 -0.2975
  731MOL0     C96420   7.190   7.608   1.439 -0.7265  0.1353  0.0994
  731MOL0     C96421   7.083   7.704   1.405 -0.2360 -0.4823 -1.2195
  731MOL0     C96422   7.044   7.724   1.263  0.3827 -0.7053 -0.1296
  731MOL0     C96423   6.911   7.770   1.247  0.4419 -0.1669  0.7057
  731MOL0     C96424   6.799   7.820   1.224 -0.0577  0.4080  0.0578
  731MOL0     C96425   7.461   7.967   1.401 -0.3003 -0.2760  0.5253
  731MOL0     C96426   7.558   8.041   1.465  0.2208  0.5395  0.4548
  731MOL0     H96427   8.117   7.912   1.683  2.0638  0.2608 -1.4574
  731MOL0     H96428   8.291   8.011   1.788 -0.2373  1.3772  3.0011
  731MOL0     H96429   8.497   8.181   1.724  0.5660  1.9195 -1.3423
  731MOL0     H96430   8.468   8.176   1.897 -1.2128  0.5593  0.6448
  731MOL0     H96431   8.565   8.391   1.942  1.7180 -2.9254  2.4098
  731MOL0     H96432   8.588   8.421   1.769  1.3886  0.5260  0.5489
  731MOL0     H96433   8.760   8.221   1.761 -2.2296 -0.7871  0.6853
  731MOL0     H96434   8.724   8.207   1.935  0.9240 -0.2745  1.0211
  731MOL0     H96435   8.828   8.467   1.803  2.6066  0.7556  0.8525
  731MOL0     H96436   8.798   8.432   1.974  1.2752  1.1143 -0.4398
  731MOL0     H96437   9.039   8.439   1.863 -0.8994  1.0101 -0.4703
  731MOL0     H96438   8.994   8.269   1.820  0.1063 -0.6852 -0.0838
  731MOL0     H96439   8.946   8.225   2.062 -0.4493 -0.6935 -1.3832
  731MOL0     H96440   9.010   8.384   2.109  0.1092 -2.3723  3.4609
  731MOL0     H96441   9.172   8.196   2.118 -1.0639 -4.6128 -2.7977
  731MOL0     H96442   9.160   8.187   1.948 -0.1189  0.2327 -0.0595
  731MOL0     H96443   9.215   8.476   2.028  0.6506  0.3176 -1.1657
  731MOL0     H96444   9.284   8.384   1.895 -2.5430 -0.7663 -1.4137
  731MOL0     H96445   9.291   8.411   2.268 -0.1004  0.1638  0.3840
  731MOL0     H96446   9.506   8.261   2.438 -0.0265  1.4753  1.2155
  731MOL0     H96447   9.496   8.437   2.419 -2.5497 -0.6465 -1.2568
  731MOL0     H96448   9.697   8.381   2.525 -2.4105  0.1854  0.6819
  731MOL0     H96449   9.724   8.439   2.358 -0.5985 -1.1747 -1.0696
  731MOL0     H96450   9.766   8.157   2.449  1.2386  1.4895  0.5725
  731MOL0     H96451   9.736   8.178   2.289 -0.9638  0.3673  0.0337
  731MOL0     H96452   9.996   8.192   2.361 -2.0431 -0.8950  0.3054
  731MOL0     H96453   9.961   8.362   2.408  1.3227 -2.4695  3.4876
  731MOL0     H96454   9.977   8.285   1.958 -0.3599 -2.8584  3.3285
  731MOL0     H96455  10.196   8.386   1.839  1.6887 -0.2315  0.6190
  731MOL0     H96456  10.636   8.351   1.839 -0.6528  1.0524 -0.0919
  731MOL0     H96457  10.843   8.401   1.715  0.4767  0.3634 -1.3617
  731MOL0     H96458  11.121   8.739   1.824 -0.4213 -1.9583 -1.0930
  731MOL0     H96459  10.982   8.828   1.751  0.5092  2.1721  2.1305
  731MOL0     H96460  11.234   8.733   1.597  0.0823  0.0407  2.1006
  731MOL0     H96461  11.135   8.883   1.587 -2.6404  0.4599 -0.1773
  731MOL0     H96462  11.071   8.625   1.462 -0.2142  0.8397  0.2173
  731MOL0     H96463  11.119   8.771   1.389  1.0760 -3.1963 -1.9851
  731MOL0     H96464  10.854   8.709   1.499  0.6396 -0.4416  0.0073
  731MOL0     H96465  10.915   8.888   1.510  0.2638  0.3237  0.2610
  731MOL0     H96466  10.757   8.819   1.321 -0.9036  0.7959 -2.2826
  731MOL0     H96467  10.886   8.745   1.246  0.4853  2.7755 -3.2121
  731MOL0     H96468  11.031   8.948   1.261  0.7363  2.3773  0.2344
  731MOL0     H96469  10.892   9.033   1.335  2.2297 -0.1468  1.8360
  731MOL0     H96470  10.922   8.903   1.058  0.6704 -0.6029  1.5416
  731MOL0     H96471  10.766   8.940   1.123  0.4128 -1.8890  0.4345
  731MOL0     H96472  10.862   9.202   1.142  0.8492  2.4250 -2.1568
  731MOL0     H96473  10.847   9.138   0.989  0.0907 -1.7653 -0.6754
  731MOL0     H96474  10.872   8.779   1.934  1.5508 -1.4298  0.6584
  731MOL0     H96475  10.685   8.697   2.073  1.3940 -0.5108  0.3632
  731MOL0     H96476  10.343   8.546   2.201 -2.6443  2.9937 -1.4044
  731MOL0     H96477  10.172   8.425   2.328  3.4728 -1.6651 -0.6688
  731MOL0     H96478   8.112   8.404   1.725  0.0794 -0.3381  0.8881
  731MOL0     H96479   7.916   8.284   1.632  0.6675 -0.0606 -6.1374
  731MOL0     H96480   7.803   7.798   1.505 -0.0379  1.3501  1.9375
  731MOL0     H96481   7.615   7.660   1.426 -3.7833 -0.6368  2.2618
  731MOL0     H96482   7.353   7.696   1.538  0.9398 -0.6586 -0.2901
  731MOL0     H96483   7.402   7.579   1.407  0.3482  0.0991 -0.5857
  731MOL0     H96484   7.187   7.521   1.372  1.3855  0.7865 -0.9333
  731MOL0     H96485   7.169   7.558   1.534 -0.8447  0.2196  0.1169
  731MOL0     H96486   7.122   7.800   1.441  0.9835 -1.8588  1.4427
  731MOL0     H96487   6.998   7.679   1.469  2.4515 -4.1499  1.3700
  731MOL0     H96488   7.121   7.784   1.212  3.5145 -2.3055  2.3340
  731MOL0     H96489   7.053   7.631   1.206  2.7470 -0.6532  0.0497
  731MOL0     H96490   6.704   7.868   1.223 -0.2283  0.0720 -0.3494
  731MOL0     H96491   7.374   8.023   1.368  1.7711  3.5930  1.0265
  731MOL0     H96492   7.544   8.149   1.469 -0.2839  0.5393 -0.7177
  732MOL0     O96493   0.536   7.567  10.082  0.5886 -0.5089 -0.6774
  732MOL0     C96494   0.456   7.624  10.164  0.6266  0.3581  0.5111
  732MOL0     O96495   0.394   7.566  10.270 -0.0929  0.1569  0.3254
  732MOL0     C96496   0.457   7.455  10.323  0.0461  1.0537 -0.3248
  732MOL0     C96497   0.402   7.319  10.297  0.1506  0.9849 -0.3818
  732MOL0     C96498   0.441   7.211  10.366 -1.0238  0.1821  1.1746
  732MOL0     C96499   0.552   7.221  10.449 -0.7184 -1.4297  0.4310
  732MOL0     O96500   0.603   7.105  10.497  0.5391 -0.7950 -0.8898
  732MOL0     C96501   0.647   7.119  10.634  0.4051  0.8275  0.8976
  732MOL0     C96502   0.661   6.983  10.699 -0.0179  0.1239 -0.1651
  732MOL0     C96503   0.756   6.891  10.630 -0.0436 -0.8271  0.9653
  732MOL0     C96504   0.826   6.786  10.714  0.5646  0.8763  0.0500
  732MOL0     C96505   0.730   6.669  10.738  0.2962 -0.9964 -0.0106
  732MOL0     C96506   0.781   6.570  10.843 -0.3290 -0.7281 -0.5469
  732MOL0     C96507   0.664   6.504  10.927 -0.8151  0.7725 -0.3781
  732MOL0     C96508   0.636   6.576  11.063 -1.3327 -0.5599 -0.1491
  732MOL0     N96509   0.647   6.720  11.058  0.0913  0.2346  0.7174
  732MOL0     C96510   0.538   6.798  11.061 -0.8335 -0.0471 -0.3971
  732MOL0     C96511   0.591   6.923  11.076 -0.4449  0.3599  0.3267
  732MOL0     C96512   0.510   7.043  11.098  0.4619  0.0926  0.8121
  732MOL0     C96513   0.525   7.132  10.979  0.1656 -0.5873 -0.8262
  732MOL0     C96514   0.458   7.265  10.996  0.2907  1.0261 -0.0164
  732MOL0     C96515   0.310   7.263  10.968  0.5683  0.4044  0.6105
  732MOL0     O96516   0.272   7.255  10.829 -0.5004  0.1016 -0.0780
  732MOL0     C96517   0.156   7.305  10.782  1.2968 -0.4318  0.1499
  732MOL0     C96518   0.129   7.287  10.642 -0.0602 -0.9580  0.5738
  732MOL0     C96519   0.009   7.335  10.578 -0.2397 -0.5907 -0.5425
  732MOL0     C96520  -0.092   7.409  10.652 -1.4781  0.7348  0.8405
  732MOL0     C96521  -0.211   7.456  10.588  0.4568  0.0347  0.1725
  732MOL0     O96522  -0.223   7.434  10.451  0.2991 -0.6406 -0.2250
  732MOL0     C96523  -0.345   7.456  10.396 -0.2732 -0.1861 -0.1078
  732MOL0     C96524  -0.453   7.365  10.396 -1.4424  0.0368 -0.1512
  732MOL0     C96525  -0.579   7.408  10.352 -0.0221  0.0299  0.2201
  732MOL0     C96526  -0.605   7.536  10.308 -0.8602  0.0816  0.3093
  732MOL0     O96527  -0.733   7.566  10.283 -0.1459 -0.3590  0.3249
  732MOL0     C96528  -0.779   7.587  10.150  0.3148 -0.0894 -0.3409
  732MOL0     C96529  -0.915   7.669  10.151  0.9362  0.5240 -0.2496
  732MOL0     C96530  -1.024   7.570  10.211  0.1679  0.4091  0.5306
  732MOL0     C96531  -1.157   7.631  10.218 -0.8638  0.4892 -0.9702
  732MOL0     C96532  -1.275   7.529  10.243 -0.2338 -0.2288  0.0061
  732MOL0     C96533  -1.303   7.431  10.126  0.0014  0.0574  0.7450
  732MOL0     C96534  -1.326   7.514   9.993 -0.5628  0.5786  0.2781
  732MOL0     C96535  -1.372   7.408   9.888  0.3448  0.0704  0.1389
  732MOL0    Cl96536  -1.550   7.410   9.868 -0.0806 -0.2556  0.1978
  732MOL0     C96537  -0.492   7.619  10.294  0.1401 -0.0463  0.3767
  732MOL0     C96538  -0.369   7.582  10.334 -0.2795 -1.1105 -0.0824
  732MOL0     O96539  -0.299   7.507  10.660 -0.3593  0.5532  0.2570
  732MOL0     C96540  -0.059   7.430  10.792  0.9164 -0.4030  0.3497
  732MOL0     C96541   0.053   7.376  10.858 -0.0566 -0.0671  0.0952
  732MOL0     N96542   0.734   6.916  11.086 -0.2885 -1.0577  0.0588
  732MOL0     N96543   0.761   6.794  11.076  0.1694  0.7814  0.4126
  732MOL0     C96544   0.619   7.338  10.469 -0.1531 -0.1630 -0.1708
  732MOL0     C96545   0.569   7.457  10.411  0.0604  0.1626 -0.0123
  732MOL0     C96546   0.406   7.758  10.139  1.2182  0.0523  1.1532
  732MOL0     C96547   0.456   7.832  10.032 -0.5366 -0.5786 -0.4178
  732MOL0     C96548   0.414   7.956   9.998  0.4720  0.1393 -0.0981
  732MOL0     C96549   0.313   8.024  10.071  1.5746  0.6758  0.7036
  732MOL0     O96550   0.257   8.137  10.022 -0.4516  0.0454 -0.0743
  732MOL0     C96551   0.141   8.198  10.089 -0.7727  0.4446  0.6042
  732MOL0     C96552   0.113   8.339  10.021 -0.6262  0.1246 -1.4333
  732MOL0     C96553   0.238   8.429  10.042 -0.6680  0.2860  0.0803
  732MOL0     C96554   0.208   8.574  10.019 -0.5202 -0.3859  0.1758
  732MOL0     C96555   0.326   8.656  10.038  1.2286  0.3085  0.0396
  732MOL0     C96556   0.433   8.711  10.054 -0.0564 -0.9806 -0.1640
  732MOL0     C96557   0.266   7.959  10.183  0.0461  0.7524  0.1711
  732MOL0     C96558   0.301   7.828  10.216 -0.2124 -0.0608 -0.7856
  732MOL0     H96559   0.333   7.312  10.214  1.0759 -0.8447 -1.0444
  732MOL0     H96560   0.406   7.110  10.345  0.8722  0.2022 -3.0943
  732MOL0     H96561   0.581   7.181  10.694 -0.6162 -0.8239  1.5617
  732MOL0     H96562   0.750   7.154  10.646  1.4451 -1.5479 -0.3526
  732MOL0     H96563   0.567   6.928  10.696  1.0588 -1.8144  0.0967
  732MOL0     H96564   0.703   6.996  10.799 -0.2092 -1.4581  0.1537
  732MOL0     H96565   0.827   6.955  10.577  0.5082 -1.4279  0.9639
  732MOL0     H96566   0.709   6.844  10.543  0.9012  0.3731 -0.2202
  732MOL0     H96567   0.903   6.746  10.648  2.2498  0.5537  2.0942
  732MOL0     H96568   0.860   6.829  10.809  1.6964  1.9058 -0.8040
  732MOL0     H96569   0.689   6.630  10.645 -3.3693  1.9163  0.1534
  732MOL0     H96570   0.646   6.723  10.782  1.0906  1.8772 -1.7200
  732MOL0     H96571   0.851   6.615  10.913 -0.2867 -4.1198  1.8215
  732MOL0     H96572   0.836   6.489  10.793 -2.0902 -1.1241 -1.9734
  732MOL0     H96573   0.563   6.511  10.885 -0.4957  0.6705 -1.1965
  732MOL0     H96574   0.697   6.407  10.964 -1.0434  0.4227 -1.0803
  732MOL0     H96575   0.717   6.543  11.128 -1.9462  1.1268  1.5538
  732MOL0     H96576   0.545   6.544  11.113 -1.4744 -1.9704 -1.2306
  732MOL0     H96577   0.433   6.770  11.062 -0.5168 -1.4458  2.6785
  732MOL0     H96578   0.546   7.103  11.183 -0.0588  3.5447 -1.2337
  732MOL0     H96579   0.404   7.017  11.101  0.4392 -0.1902 -1.2530
  732MOL0     H96580   0.505   7.083  10.884  3.1216 -1.0544 -1.3062
  732MOL0     H96581   0.631   7.162  10.979 -0.2447  0.9466 -1.3913
  732MOL0     H96582   0.480   7.296  11.098  1.6122 -1.0198  0.3963
  732MOL0     H96583   0.492   7.344  10.929  0.6356 -0.5836 -1.8637
  732MOL0     H96584   0.267   7.355  11.006 -2.4455 -1.5310  2.2798
  732MOL0     H96585   0.270   7.175  11.019 -0.1593 -1.2223 -2.5132
  732MOL0     H96586   0.202   7.228  10.587  2.2194 -0.3005  2.7133
  732MOL0     H96587  -0.004   7.333  10.470 -0.5646  2.5650 -0.6722
  732MOL0     H96588  -0.438   7.269  10.443 -2.7182  1.2681  3.0699
  732MOL0     H96589  -0.654   7.333  10.373  0.5962 -1.1579 -1.4799
  732MOL0     H96590  -0.797   7.495  10.092  0.6949  0.2532 -1.0215
  732MOL0     H96591  -0.710   7.646  10.090 -0.1553 -1.0831 -1.9393
  732MOL0     H96592  -0.951   7.711  10.057  2.9000 -0.2747 -1.4240
  732MOL0     H96593  -0.908   7.755  10.218 -0.9939  1.6137 -1.3703
  732MOL0     H96594  -0.992   7.547  10.313 -1.9385 -2.5858  0.6444
  732MOL0     H96595  -1.026   7.474  10.158  2.3584 -0.5318  2.0031
  732MOL0     H96596  -1.151   7.703  10.300 -1.8035 -0.0929 -0.3768
  732MOL0     H96597  -1.177   7.696  10.132 -0.9152  0.6432 -0.8423
  732MOL0     H96598  -1.360   7.591  10.272  0.3993 -1.0413  4.3139
  732MOL0     H96599  -1.265   7.459  10.326 -1.9264 -1.4534 -0.7570
  732MOL0     H96600  -1.389   7.367  10.145 -0.6016  0.8037  0.6084
  732MOL0     H96601  -1.222   7.359  10.116 -0.7076 -0.6107 -0.3749
  732MOL0     H96602  -1.400   7.593  10.009  1.6129  2.1398  3.8951
  732MOL0     H96603  -1.231   7.561   9.966 -0.4293  0.1364 -0.0178
  732MOL0     H96604  -1.362   7.305   9.924 -0.3649 -0.2012 -0.4142
  732MOL0     H96605  -1.320   7.429   9.794  0.4044 -0.2541  0.1006
  732MOL0     H96606  -0.505   7.719  10.254 -0.3235 -0.1903  0.1523
  732MOL0     H96607  -0.288   7.653  10.320  0.8367 -1.7409  2.5115
  732MOL0     H96608  -0.129   7.498  10.839 -0.7022 -0.1087 -2.2642
  732MOL0     H96609   0.062   7.423  10.956 -2.5029  2.0613 -0.5977
  732MOL0     H96610   0.708   7.354  10.529 -0.7026  2.5679  0.0593
  732MOL0     H96611   0.620   7.549  10.439 -1.2298  0.0677  3.0978
  732MOL0     H96612   0.542   7.786   9.985 -0.4502  0.4104 -1.2514
  732MOL0     H96613   0.463   8.000   9.912 -0.0717  0.4796 -0.2397
  732MOL0     H96614   0.156   8.211  10.196 -1.8602 -3.8141  1.4350
  732MOL0     H96615   0.050   8.138  10.078  0.2245 -0.6767 -2.5771
  732MOL0     H96616   0.097   8.313   9.916  0.1473 -2.3935 -0.9852
  732MOL0     H96617   0.023   8.387  10.062  1.7182  2.0532  2.0534
  732MOL0     H96618   0.324   8.393   9.986  0.0155  0.3546  1.0734
  732MOL0     H96619   0.263   8.417  10.148  0.5211 -0.0551 -0.2281
  732MOL0     H96620   0.168   8.594   9.920 -0.7383  2.0418  0.6860
  732MOL0     H96621   0.124   8.608  10.081  1.4576  4.3433  0.6990
  732MOL0     H96622   0.526   8.765  10.060 -0.7661  0.5489 -1.9342
  732MOL0     H96623   0.188   7.997  10.248  0.1419  2.0613 -0.4467
  732MOL0     H96624   0.243   7.779  10.294  1.0616 -1.4714 -0.6771
  733MOL0     O96625   6.277   2.924   1.301 -0.5791 -0.1612  1.2350
  733MOL0     C96626   6.320   2.807   1.287 -0.3049  0.8856  0.1257
  733MOL0     O96627   6.240   2.694   1.268  0.2426 -0.6287 -0.8646
  733MOL0     C96628   6.111   2.705   1.314  0.7087  0.6579  0.8376
  733MOL0     C96629   6.074   2.759   1.440 -0.1347 -0.1086 -0.0162
  733MOL0     C96630   5.948   2.726   1.487  0.6001 -1.0536  0.3197
  733MOL0     C96631   5.843   2.664   1.412 -0.6279 -0.4227  0.7861
  733MOL0     O96632   5.719   2.667   1.465  0.4162 -0.8148  0.0706
  733MOL0     C96633   5.604   2.650   1.373 -0.2951  0.1420  0.9508
  733MOL0     C96634   5.507   2.774   1.377  0.0289 -0.3532  0.8770
  733MOL0     C96635   5.532   2.899   1.285  1.3114  0.7119  0.1878
  733MOL0     C96636   5.659   2.978   1.311 -0.3927 -0.1274  0.1245
  733MOL0     C96637   5.689   3.079   1.204  0.0506 -0.5775 -0.1534
  733MOL0     C96638   5.818   3.148   1.213 -0.7761 -0.6506  0.3531
  733MOL0     C96639   5.946   3.066   1.172 -0.6351  0.1862 -0.3067
  733MOL0     C96640   6.061   3.146   1.114 -0.0991  0.3240  0.9881
  733MOL0     N96641   6.086   3.265   1.191 -0.5477 -0.5374 -0.0023
  733MOL0     C96642   6.122   3.264   1.321  0.2761  0.0924  0.1930
  733MOL0     C96643   6.152   3.391   1.356  0.4842 -0.1572 -0.4592
  733MOL0     C96644   6.194   3.428   1.498 -0.4474 -0.5862 -0.2676
  733MOL0     C96645   6.345   3.455   1.497  0.0334 -0.4364  0.1548
  733MOL0     C96646   6.386   3.457   1.640 -1.2414 -0.0666 -1.2708
  733MOL0     C96647   6.543   3.450   1.640  0.0610 -0.8545  0.2775
  733MOL0     O96648   6.591   3.583   1.656  0.2941 -0.6356  0.3442
  733MOL0     C96649   6.722   3.606   1.674 -0.8182 -0.7595 -1.3648
  733MOL0     C96650   6.764   3.738   1.700 -0.2508  0.3390 -0.2033
  733MOL0     C96651   6.896   3.777   1.724 -0.1488  0.1968 -0.5971
  733MOL0     C96652   6.998   3.687   1.727 -0.3334  0.8884 -1.2222
  733MOL0     C96653   7.141   3.724   1.763  0.1032  0.4550  0.8193
  733MOL0     O96654   7.169   3.857   1.778  0.6524  0.6923  0.3383
  733MOL0     C96655   7.297   3.882   1.818 -0.3129  0.2716  0.5009
  733MOL0     C96656   7.396   3.896   1.724  0.4227 -0.8813  0.3059
  733MOL0     C96657   7.530   3.925   1.760 -0.0219  0.5389 -0.8055
  733MOL0     C96658   7.562   3.938   1.896 -1.4496 -0.5531  0.8822
  733MOL0     O96659   7.694   3.972   1.922 -0.1500 -0.1094  0.8433
  733MOL0     C96660   7.719   4.064   2.025  0.2827 -0.3209 -0.1422
  733MOL0     C96661   7.870   4.084   2.047  0.2788 -0.0783 -0.3799
  733MOL0     C96662   7.927   3.996   2.149  0.6044 -0.3987 -0.7449
  733MOL0     C96663   8.067   4.034   2.176  0.2556 -0.0326  0.3062
  733MOL0     C96664   8.136   3.943   2.282 -0.5391  0.3416 -0.6882
  733MOL0     C96665   8.279   3.991   2.291 -1.1065  0.0828 -0.1182
  733MOL0     C96666   8.379   3.913   2.381  0.0471 -0.3823  0.4275
  733MOL0     C96667   8.348   3.928   2.526 -0.1769 -0.0020 -0.4121
  733MOL0    Cl96668   8.454   3.809   2.619 -0.1280  0.3133  0.0706
  733MOL0     C96669   7.461   3.917   1.985 -0.2875  0.5282 -0.2328
  733MOL0     C96670   7.329   3.882   1.949  0.4394  0.2070 -0.5545
  733MOL0     O96671   7.223   3.631   1.757  0.6012  0.4302  0.2865
  733MOL0     C96672   6.960   3.553   1.697 -1.0557  0.9438 -0.2506
  733MOL0     C96673   6.830   3.520   1.670  0.0512 -1.4519 -0.3439
  733MOL0     N96674   6.139   3.472   1.244  0.4831 -0.0091  0.1274
  733MOL0     N96675   6.083   3.396   1.154  0.2094 -0.7958 -0.1620
  733MOL0     C96676   5.885   2.629   1.286  0.8073 -0.5821  1.1246
  733MOL0     C96677   6.012   2.639   1.242 -0.8299  0.2987  0.5931
  733MOL0     C96678   6.468   2.785   1.283 -0.1818 -0.8219  0.3188
  733MOL0     C96679   6.520   2.659   1.254  0.6490  0.5082  0.5067
  733MOL0     C96680   6.657   2.634   1.242 -0.1098 -0.2180 -0.2550
  733MOL0     C96681   6.743   2.746   1.265  0.3114 -0.0634  0.0813
  733MOL0     O96682   6.873   2.739   1.222 -0.2222  0.5548  0.3862
  733MOL0     C96683   6.943   2.619   1.268  0.3981  0.5298 -0.1676
  733MOL0     C96684   6.942   2.591   1.422 -0.4386  0.5361 -1.0314
  733MOL0     C96685   6.982   2.721   1.515  1.1503  0.1217  0.4413
  733MOL0     C96686   7.116   2.781   1.490 -0.4921 -0.0924 -0.9135
  733MOL0     C96687   7.211   2.698   1.416 -0.1509 -0.1398  0.2796
  733MOL0     C96688   7.297   2.644   1.354  1.0430 -0.1642  0.2552
  733MOL0     C96689   6.690   2.865   1.307 -0.0705  0.0679 -0.2704
  733MOL0     C96690   6.556   2.884   1.322  0.7378 -0.2351 -0.1739
  733MOL0     H96691   6.146   2.812   1.501  1.6737 -0.6640 -1.5554
  733MOL0     H96692   5.934   2.774   1.583  2.4713 -3.6671  2.0524
  733MOL0     H96693   5.552   2.560   1.408 -1.1533 -0.2826 -1.2715
  733MOL0     H96694   5.626   2.625   1.269  3.6616  0.2474  1.6332
  733MOL0     H96695   5.508   2.812   1.479  0.5005 -1.3048  1.2331
  733MOL0     H96696   5.410   2.729   1.351 -0.7304  2.8993 -3.1380
  733MOL0     H96697   5.450   2.970   1.296  2.5073  1.7510  3.6539
  733MOL0     H96698   5.528   2.866   1.181 -0.8148  2.2343 -0.2804
  733MOL0     H96699   5.656   3.014   1.414 -1.2118 -1.2293  0.5029
  733MOL0     H96700   5.730   2.896   1.298  0.6323  1.0815 -2.7658
  733MOL0     H96701   5.611   3.153   1.218  0.1947 -0.6059  0.8474
  733MOL0     H96702   5.682   3.024   1.109  2.4941 -2.6503  0.7284
  733MOL0     H96703   5.829   3.191   1.313  0.0797  2.4741 -0.9637
  733MOL0     H96704   5.823   3.239   1.152  0.5041 -1.7095 -1.1961
  733MOL0     H96705   5.984   3.019   1.262 -0.2873  3.0928  1.1714
  733MOL0     H96706   5.926   2.990   1.096  2.7792 -0.0074 -1.1819
  733MOL0     H96707   6.026   3.187   1.019 -0.4124  1.7352  1.6794
  733MOL0     H96708   6.155   3.092   1.101 -0.4860 -0.4172  1.2256
  733MOL0     H96709   6.126   3.172   1.379  0.2739  1.7298  2.9740
  733MOL0     H96710   6.184   3.345   1.568  0.9958 -0.6162 -0.0588
  733MOL0     H96711   6.143   3.513   1.543 -0.2667  1.0326 -2.8698
  733MOL0     H96712   6.373   3.547   1.445  0.5075 -0.6223  0.0779
  733MOL0     H96713   6.394   3.373   1.443 -0.4679 -1.9282  1.8759
  733MOL0     H96714   6.351   3.545   1.695  0.5862  0.2759 -0.5907
  733MOL0     H96715   6.330   3.378   1.691  2.1967 -0.7643  1.7669
  733MOL0     H96716   6.580   3.394   1.554 -0.8775 -1.5676  0.3281
  733MOL0     H96717   6.570   3.405   1.736  0.5350  3.4049  2.4034
  733MOL0     H96718   6.694   3.820   1.687 -1.7583 -0.3267  2.7764
  733MOL0     H96719   6.920   3.881   1.741  1.3151  0.0210 -1.4767
  733MOL0     H96720   7.371   3.878   1.620 -2.7257 -1.1368  0.9934
  733MOL0     H96721   7.605   3.962   1.690 -1.7936  2.3442 -1.8839
  733MOL0     H96722   7.669   4.037   2.119 -3.5195 -0.8355 -2.1204
  733MOL0     H96723   7.683   4.163   1.998  2.8109  1.0171  1.0005
  733MOL0     H96724   7.875   4.187   2.083  1.1978  0.6464 -2.4518
  733MOL0     H96725   7.912   4.073   1.947 -0.4116  0.2629 -0.7107
  733MOL0     H96726   7.919   3.890   2.124  0.8964 -0.4058 -0.8112
  733MOL0     H96727   7.877   4.017   2.244  3.7610 -1.2930  1.2788
  733MOL0     H96728   8.120   4.033   2.080  2.2107  3.4730  1.1678
  733MOL0     H96729   8.066   4.135   2.217 -2.2403 -0.5153  1.6040
  733MOL0     H96730   8.128   3.838   2.256 -2.3955  0.1590  0.4166
  733MOL0     H96731   8.083   3.953   2.378  1.5774 -1.8768  0.8287
  733MOL0     H96732   8.281   4.093   2.332  2.8493 -0.8730  2.6392
  733MOL0     H96733   8.325   3.986   2.192  2.0771 -0.8518  1.2739
  733MOL0     H96734   8.398   3.811   2.345  2.0605 -0.1189  0.6542
  733MOL0     H96735   8.478   3.956   2.362  0.4632 -2.4020 -3.0051
  733MOL0     H96736   8.245   3.894   2.544 -0.4051  1.6926  1.9759
  733MOL0     H96737   8.356   4.030   2.565 -0.0420  1.2987 -3.5778
  733MOL0     H96738   7.494   3.929   2.088  2.0004 -0.3348 -0.8117
  733MOL0     H96739   7.246   3.875   2.018 -0.9305 -2.3510 -2.3188
  733MOL0     H96740   7.034   3.474   1.691 -1.2258  0.8285 -0.7957
  733MOL0     H96741   6.801   3.416   1.655 -2.3291 -0.9040  0.0884
  733MOL0     H96742   5.807   2.586   1.222 -0.7339  1.2028  1.7045
  733MOL0     H96743   6.038   2.602   1.143 -0.2685  3.7608 -0.7047
  733MOL0     H96744   6.454   2.576   1.231  0.3697 -0.4765  4.2002
  733MOL0     H96745   6.701   2.542   1.205  1.6041  0.8672 -1.0387
  733MOL0     H96746   7.048   2.631   1.239  0.2363  0.8071 -0.6512
  733MOL0     H96747   6.911   2.529   1.215  0.3396  0.1839  0.4477
  733MOL0     H96748   6.842   2.566   1.457  0.0497  3.1040  2.9173
  733MOL0     H96749   6.999   2.501   1.450 -2.2851 -0.6507 -0.9265
  733MOL0     H96750   6.983   2.692   1.620 -1.0145  0.3282  0.5595
  733MOL0     H96751   6.900   2.792   1.504 -0.9280 -2.4281 -2.4718
  733MOL0     H96752   7.114   2.879   1.440 -1.0608  0.5178  0.2800
  733MOL0     H96753   7.157   2.805   1.589  0.2603  4.5864 -2.0971
  733MOL0     H96754   7.368   2.586   1.297 -0.7515 -1.8648 -0.3544
  733MOL0     H96755   6.773   2.931   1.332 -0.3542  0.4008 -0.2065
  733MOL0     H96756   6.513   2.975   1.362  0.4071 -1.9016  3.5910
  734MOL0     O96757   3.072   0.587   3.067  0.0361  0.6361 -0.0059
  734MOL0     C96758   3.126   0.682   3.125  0.1671  0.7359  0.6202
  734MOL0     O96759   3.205   0.662   3.234  0.2720 -0.5310  0.1249
  734MOL0     C96760   3.172   0.581   3.337  0.1058 -0.0460  0.4189
  734MOL0     C96761   3.038   0.566   3.372  0.0463  0.2550  0.5210
  734MOL0     C96762   3.009   0.510   3.501  0.4929  0.1834 -0.4626
  734MOL0     C96763   3.109   0.446   3.577  0.3912 -0.4470  0.5153
  734MOL0     O96764   3.074   0.394   3.700 -0.0958  0.3377  0.0857
  734MOL0     C96765   3.019   0.260   3.683 -0.1283 -0.0732  0.2592
  734MOL0     C96766   3.020   0.184   3.816  0.5770 -0.3755  0.0910
  734MOL0     C96767   2.904   0.229   3.897 -0.1118 -0.6101  0.0434
  734MOL0     C96768   2.866   0.153   4.020 -0.0269  0.3008  0.5158
  734MOL0     C96769   2.758   0.226   4.100 -0.9789  0.4319 -0.6249
  734MOL0     C96770   2.670   0.137   4.194 -0.5920 -0.3670  0.3861
  734MOL0     C96771   2.532   0.202   4.232 -0.7646 -0.6900 -0.4127
  734MOL0     C96772   2.452   0.090   4.310  0.4054  0.6340  0.4218
  734MOL0     N96773   2.399  -0.004   4.219  0.2953  0.0674  0.9345
  734MOL0     C96774   2.282   0.008   4.134  0.0972 -0.1628  0.1609
  734MOL0     C96775   2.274  -0.114   4.079  0.1968 -0.7525  0.6868
  734MOL0     C96776   2.169  -0.153   3.976 -0.4814  0.1693  0.6944
  734MOL0     C96777   2.136  -0.298   3.967 -0.0002 -0.2842  0.1709
  734MOL0     C96778   2.014  -0.316   3.889 -0.1026  0.6775 -0.4200
  734MOL0     C96779   1.883  -0.315   3.960  0.5172 -0.4647 -0.7506
  734MOL0     O96780   1.777  -0.325   3.862  0.3003  0.0154 -0.1568
  734MOL0     C96781   1.653  -0.315   3.914  0.5288  0.7407 -0.4054
  734MOL0     C96782   1.624  -0.335   4.054 -0.1612 -0.3060  0.0035
  734MOL0     C96783   1.489  -0.331   4.083  0.1738 -0.6662  0.5848
  734MOL0     C96784   1.381  -0.323   3.991 -0.9322 -0.6767  0.1208
  734MOL0     C96785   1.242  -0.334   4.029  0.0310  1.0084 -0.3331
  734MOL0     O96786   1.212  -0.336   4.161 -0.2617  0.3269  0.1179
  734MOL0     C96787   1.080  -0.354   4.206 -0.3428 -0.4662  0.3955
  734MOL0     C96788   0.998  -0.462   4.159 -0.1218  0.7412 -0.0429
  734MOL0     C96789   0.873  -0.486   4.218 -0.8497 -0.8266 -0.2218
  734MOL0     C96790   0.818  -0.385   4.297  0.5348  0.2878  0.2185
  734MOL0     O96791   0.692  -0.390   4.351 -0.3168  0.2281  0.2400
  734MOL0     C96792   0.577  -0.382   4.264  0.0385  0.1152  0.0635
  734MOL0     C96793   0.481  -0.493   4.294  0.1936  1.2204 -0.0055
  734MOL0     C96794   0.401  -0.463   4.422  0.2843  0.1069 -0.0196
  734MOL0     C96795   0.303  -0.346   4.404  1.2092  0.4128  0.1122
  734MOL0     C96796   0.172  -0.371   4.466  0.7816 -0.4488  0.3795
  734MOL0     C96797   0.170  -0.350   4.618  1.3742 -0.4808 -0.5441
  734MOL0     C96798   0.024  -0.335   4.675 -0.0662 -0.0968 -0.0381
  734MOL0     C96799   0.021  -0.273   4.817  1.1582  0.1863  0.3555
  734MOL0    Cl96800   0.053  -0.100   4.825 -0.1283 -0.2015 -0.5964
  734MOL0     C96801   0.898  -0.276   4.331  0.1277 -0.2799  0.2594
  734MOL0     C96802   1.029  -0.260   4.284 -0.5181 -0.2787  0.4997
  734MOL0     O96803   1.158  -0.337   3.942 -0.5314 -0.3720  0.3855
  734MOL0     C96804   1.416  -0.299   3.859 -0.6542  0.6136 -0.3081
  734MOL0     C96805   1.548  -0.308   3.820 -0.3873 -0.1599 -0.9510
  734MOL0     N96806   2.366  -0.202   4.148 -0.7300 -0.5044 -0.4220
  734MOL0     N96807   2.442  -0.130   4.213  1.0591  0.2332 -0.1777
  734MOL0     C96808   3.244   0.448   3.537  1.1331 -0.6477  0.7302
  734MOL0     C96809   3.272   0.517   3.413  0.2842 -0.6073 -0.3321
  734MOL0     C96810   3.129   0.813   3.060  0.4220 -0.0453 -0.7446
  734MOL0     C96811   3.199   0.927   3.113  0.0359  0.5351 -0.9328
  734MOL0     C96812   3.205   1.056   3.044 -0.1478  0.4979 -0.0769
  734MOL0     C96813   3.137   1.070   2.922 -0.3447 -0.4023  0.3049
  734MOL0     O96814   3.137   1.195   2.862 -0.7774 -0.6790  0.1927
  734MOL0     C96815   3.196   1.227   2.734 -0.4164 -0.2490  0.2582
  734MOL0     C96816   3.277   1.350   2.736 -0.1859  0.2537 -0.0417
  734MOL0     C96817   3.355   1.382   2.606  0.2785  0.3167  0.0424
  734MOL0     C96818   3.461   1.276   2.574  1.0574  0.1485  0.0106
  734MOL0     C96819   3.529   1.315   2.446 -0.6420  0.1680  0.1161
  734MOL0     C96820   3.591   1.325   2.341  0.4490  0.5842 -0.7451
  734MOL0     C96821   3.074   0.961   2.866  0.4591  0.1435 -0.2021
  734MOL0     C96822   3.071   0.838   2.929  1.3887 -0.1946 -0.1108
  734MOL0     H96823   2.957   0.608   3.313  1.6796  0.8683 -1.4173
  734MOL0     H96824   2.906   0.499   3.533  0.4845 -0.0528 -0.5658
  734MOL0     H96825   3.086   0.197   3.624 -0.1637 -0.9341  1.1045
  734MOL0     H96826   2.920   0.259   3.636 -1.0679 -3.8064  1.8742
  734MOL0     H96827   3.113   0.216   3.863  0.7342  0.5177 -0.8053
  734MOL0     H96828   3.015   0.075   3.806 -0.4463 -0.4793  1.4406
  734MOL0     H96829   2.814   0.229   3.835 -1.4308 -0.9649  1.8670
  734MOL0     H96830   2.926   0.330   3.931  2.6088 -1.4470  1.0519
  734MOL0     H96831   2.819   0.060   3.988 -3.6202  1.9500  0.5593
  734MOL0     H96832   2.944   0.125   4.092  0.9070  1.7295  0.1049
  734MOL0     H96833   2.686   0.268   4.030 -2.1480 -0.8097 -0.2126
  734MOL0     H96834   2.803   0.303   4.165  0.6073  1.1471 -2.4635
  734MOL0     H96835   2.717   0.116   4.290 -0.1397 -1.2667 -0.0210
  734MOL0     H96836   2.654   0.039   4.149  0.3825 -0.5770  0.4684
  734MOL0     H96837   2.543   0.284   4.304 -2.7050  0.2529 -1.1190
  734MOL0     H96838   2.481   0.231   4.140  0.7908  0.6060 -0.9092
  734MOL0     H96839   2.368   0.130   4.367 -0.6958 -2.3257  1.0940
  734MOL0     H96840   2.519   0.045   4.385  2.5858  2.9501 -0.0209
  734MOL0     H96841   2.228   0.098   4.104  0.5972  0.9413  2.3124
  734MOL0     H96842   2.212  -0.119   3.881  0.8303  0.2302  1.2857
  734MOL0     H96843   2.082  -0.091   3.997 -0.1969  0.3044  1.5286
  734MOL0     H96844   2.122  -0.340   4.067  3.4010  0.5559  1.1207
  734MOL0     H96845   2.216  -0.356   3.921 -2.8975 -2.8015 -2.1298
  734MOL0     H96846   2.003  -0.240   3.811  1.6777  2.2630  0.7687
  734MOL0     H96847   2.031  -0.404   3.827  0.4025  1.2965 -1.1843
  734MOL0     H96848   1.867  -0.221   4.013 -2.5870 -0.5871 -1.3006
  734MOL0     H96849   1.866  -0.395   4.033 -1.1262 -0.6570 -1.3157
  734MOL0     H96850   1.695  -0.347   4.135 -1.8409 -0.6186  1.4675
  734MOL0     H96851   1.462  -0.325   4.188 -0.4509 -1.3335  0.4694
  734MOL0     H96852   1.033  -0.532   4.084  0.6928  2.1387 -1.0291
  734MOL0     H96853   0.812  -0.572   4.191  0.0499 -1.2100 -1.1327
  734MOL0     H96854   0.605  -0.385   4.158  1.3038  3.1445  0.1972
  734MOL0     H96855   0.528  -0.290   4.299  1.0328  0.6648  0.0500
  734MOL0     H96856   0.538  -0.586   4.308  1.0615  1.1031 -3.3742
  734MOL0     H96857   0.407  -0.506   4.214  1.8613  1.8587 -1.7373
  734MOL0     H96858   0.460  -0.427   4.506 -0.3972  1.9913 -0.2870
  734MOL0     H96859   0.346  -0.555   4.444  0.8787 -0.3605 -0.4431
  734MOL0     H96860   0.345  -0.258   4.453 -0.4859  0.9364  0.6901
  734MOL0     H96861   0.289  -0.308   4.302  0.3252  1.5010  0.6300
  734MOL0     H96862   0.125  -0.465   4.437  2.4616 -1.6882  1.4987
  734MOL0     H96863   0.107  -0.287   4.438 -1.3395 -1.7600  1.1120
  734MOL0     H96864   0.219  -0.254   4.636 -3.0418  1.7947  0.8320
  734MOL0     H96865   0.219  -0.428   4.677 -0.2041 -0.6121  0.6550
  734MOL0     H96866  -0.036  -0.279   4.603 -2.3772 -1.5271  0.6580
  734MOL0     H96867  -0.026  -0.432   4.679 -0.2627  0.0227  0.5553
  734MOL0     H96868   0.098  -0.317   4.881  0.8710 -2.3602 -0.9261
  734MOL0     H96869  -0.075  -0.293   4.867  1.2928  0.5479  0.7738
  734MOL0     H96870   0.858  -0.195   4.391 -1.2461 -2.3505  2.3423
  734MOL0     H96871   1.093  -0.181   4.321 -1.1964  0.2704  0.5180
  734MOL0     H96872   1.344  -0.277   3.780 -0.1946  0.0497 -0.8939
  734MOL0     H96873   1.559  -0.287   3.715  0.3157  1.8133 -0.5273
  734MOL0     H96874   3.309   0.395   3.607 -0.0609 -3.5564 -0.2187
  734MOL0     H96875   3.373   0.519   3.372  0.4615 -0.1950  0.1231
  734MOL0     H96876   3.244   0.922   3.212  0.8605  0.0312 -1.3231
  734MOL0     H96877   3.252   1.142   3.090 -1.3168  1.3641 -0.4790
  734MOL0     H96878   3.111   1.234   2.665 -0.5774 -1.6579  0.2865
  734MOL0     H96879   3.251   1.135   2.712  0.9491  0.0921  2.0175
  734MOL0     H96880   3.217   1.436   2.767  1.2563  0.3583  2.8396
  734MOL0     H96881   3.343   1.351   2.824  0.3521 -1.0246 -0.4126
  734MOL0     H96882   3.420   1.470   2.611 -2.8023  2.7518  0.1477
  734MOL0     H96883   3.284   1.393   2.523  1.8230  1.2052 -1.2190
  734MOL0     H96884   3.541   1.257   2.647 -0.6153 -3.8317  1.0536
  734MOL0     H96885   3.413   1.178   2.564 -0.2237  0.4556  2.3882
  734MOL0     H96886   3.642   1.328   2.247 -3.0812 -2.5563 -3.0681
  734MOL0     H96887   3.035   0.957   2.765 -0.4043  1.3874  0.0691
  734MOL0     H96888   3.029   0.755   2.872 -2.6161  1.3496  0.2057
  735MOL0     O96889   8.567   3.809  10.262  0.0548 -0.7915 -0.7744
  735MOL0     C96890   8.586   3.727  10.353  0.1827 -0.0136  1.0542
  735MOL0     O96891   8.491   3.674  10.433 -0.0633  0.1547  1.0560
  735MOL0     C96892   8.362   3.697  10.388  0.1889  0.7961  0.0990
  735MOL0     C96893   8.283   3.757  10.476 -1.3363  0.8466 -0.0238
  735MOL0     C96894   8.148   3.787  10.454  0.4720 -0.6636 -0.0659
  735MOL0     C96895   8.097   3.766  10.328 -0.1533 -0.5798  0.1757
  735MOL0     O96896   7.969   3.818  10.312 -0.0876  0.2149 -0.0815
  735MOL0     C96897   7.889   3.744  10.218 -0.7142 -0.6885  1.0439
  735MOL0     C96898   7.736   3.742  10.256  0.5778  0.1767 -1.0539
  735MOL0     C96899   7.669   3.882  10.280  1.0947  0.2849  0.2430
  735MOL0     C96900   7.517   3.854  10.309  0.2151 -0.7941  0.5579
  735MOL0     C96901   7.450   3.989  10.337  0.4550  0.0484 -0.6774
  735MOL0     C96902   7.304   3.954  10.369 -0.4154  0.9998  1.2940
  735MOL0     C96903   7.214   3.936  10.253  0.7316  1.1171  0.0260
  735MOL0     C96904   7.199   4.078  10.193  0.4114 -0.5800  0.4803
  735MOL0     N96905   7.074   4.148  10.224  0.1347  0.9799  0.0963
  735MOL0     C96906   7.056   4.227  10.334 -0.1340  0.6371 -0.0852
  735MOL0     C96907   6.922   4.256  10.325 -0.6421  0.8510 -0.1301
  735MOL0     C96908   6.835   4.355  10.391  0.2384 -0.4612  0.4682
  735MOL0     C96909   6.684   4.334  10.405  0.8781 -0.7621 -0.0390
  735MOL0     C96910   6.595   4.364  10.278 -0.9699  0.6286 -0.6936
  735MOL0     C96911   6.456   4.393  10.315 -0.3291  0.3334  0.0585
  735MOL0     O96912   6.384   4.278  10.345  0.4912  0.1739 -0.2365
  735MOL0     C96913   6.254   4.300  10.378  0.4888 -0.5373 -0.1693
  735MOL0     C96914   6.203   4.420  10.435  1.4813 -0.7562  0.2400
  735MOL0     C96915   6.075   4.432  10.483  0.4234 -0.8689  0.4115
  735MOL0     C96916   5.989   4.328  10.455  0.3677 -0.3278 -1.0199
  735MOL0     C96917   5.845   4.339  10.484  0.0827  0.5792  0.1008
  735MOL0     O96918   5.782   4.456  10.514 -0.1665 -0.5425 -0.2217
  735MOL0     C96919   5.660   4.444  10.564 -0.3526  0.5367  0.0747
  735MOL0     C96920   5.649   4.419  10.704 -0.6497 -0.9560 -0.2011
  735MOL0     C96921   5.523   4.419  10.754  0.1591  0.0672 -0.5051
  735MOL0     C96922   5.413   4.441  10.671 -0.9568 -0.0261 -0.5390
  735MOL0     O96923   5.290   4.454  10.741 -0.3592 -0.0143  0.7563
  735MOL0     C96924   5.228   4.336  10.785  0.6128 -0.2811  0.2835
  735MOL0     C96925   5.106   4.367  10.874 -0.4413 -0.1040 -0.2564
  735MOL0     C96926   5.105   4.472  10.984  0.2694 -0.2658 -0.0241
  735MOL0     C96927   5.220   4.447  11.088 -0.0489 -0.0085  0.6523
  735MOL0     C96928   5.222   4.557  11.198  0.4829 -0.5276 -1.0916
  735MOL0     C96929   5.092   4.573  11.275 -0.4262 -0.1529  0.9406
  735MOL0     C96930   5.124   4.659  11.394  0.1841 -0.1517 -0.3177
  735MOL0     C96931   4.999   4.701  11.480  0.3175  0.6287  0.3689
  735MOL0    Cl96932   4.897   4.804  11.385 -0.4845  0.0392 -0.0791
  735MOL0     C96933   5.421   4.466  10.535  0.2981 -0.7711 -0.0041
  735MOL0     C96934   5.551   4.462  10.479 -0.4813  0.2894 -0.1570
  735MOL0     O96935   5.789   4.228  10.499 -0.4433 -0.2030 -0.2313
  735MOL0     C96936   6.028   4.215  10.393 -0.3264 -0.4968  1.0582
  735MOL0     C96937   6.165   4.199  10.351 -0.3579  0.1659 -1.3897
  735MOL0     N96938   6.870   4.188  10.223  0.5162  0.5048  0.6001
  735MOL0     N96939   6.959   4.119  10.164 -0.0996  0.2127 -0.1541
  735MOL0     C96940   8.171   3.706  10.231  0.3688  0.5492  0.6349
  735MOL0     C96941   8.306   3.669  10.259  0.9693  0.1573  0.3580
  735MOL0     C96942   8.724   3.689  10.378 -0.6365  0.5935 -0.8433
  735MOL0     C96943   8.833   3.764  10.329 -1.6214  0.0249 -0.6020
  735MOL0     C96944   8.962   3.710  10.341 -0.3755 -0.7665  0.2750
  735MOL0     C96945   8.991   3.590  10.393  0.2945  0.0144 -0.2480
  735MOL0     O96946   9.121   3.547  10.414 -0.0195  0.1793  0.0940
  735MOL0     C96947   9.163   3.415  10.463  0.5145  0.5584  0.1908
  735MOL0     C96948   9.209   3.418  10.607  0.7077  0.6762 -0.0937
  735MOL0     C96949   9.102   3.462  10.713  0.0116 -0.6416 -0.2197
  735MOL0     C96950   9.148   3.423  10.850 -0.4068  0.4019 -0.1713
  735MOL0     C96951   9.148   3.279  10.886 -0.3028 -0.5528 -1.0419
  735MOL0     C96952   9.140   3.157  10.916  0.7978 -1.2436  0.2004
  735MOL0     C96953   8.884   3.512  10.446  0.4016 -0.0518 -0.3675
  735MOL0     C96954   8.756   3.568  10.446 -0.1572  0.3985 -0.0686
  735MOL0     H96955   8.314   3.786  10.576  0.3273 -0.1044 -0.2169
  735MOL0     H96956   8.067   3.821  10.519 -0.2449 -3.3053  0.5587
  735MOL0     H96957   7.932   3.644  10.216 -0.6191 -0.6405 -1.0331
  735MOL0     H96958   7.894   3.788  10.118 -0.9813  0.1697  1.4008
  735MOL0     H96959   7.716   3.667  10.333 -2.6061  1.8585 -0.0799
  735MOL0     H96960   7.680   3.711  10.168 -1.0055 -0.4632  0.1310
  735MOL0     H96961   7.678   3.942  10.189  0.2713 -1.8256 -1.3202
  735MOL0     H96962   7.730   3.931  10.356  0.8018  1.3846 -0.2186
  735MOL0     H96963   7.474   3.814  10.217 -0.7170  1.3219 -0.0043
  735MOL0     H96964   7.504   3.786  10.393  0.5214  1.1515  2.2674
  735MOL0     H96965   7.466   4.054  10.250 -1.0986 -0.1273 -1.1360
  735MOL0     H96966   7.488   4.030  10.430  0.8639 -4.9604  1.6581
  735MOL0     H96967   7.256   4.027  10.435 -1.3068  1.2821  0.3648
  735MOL0     H96968   7.308   3.861  10.427 -2.9353  0.6797  1.0919
  735MOL0     H96969   7.248   3.869  10.174  1.6154  0.5146  0.8942
  735MOL0     H96970   7.115   3.898  10.282  1.0587  0.0143 -0.2636
  735MOL0     H96971   7.199   4.069  10.084  0.6177 -2.7411  0.6178
  735MOL0     H96972   7.280   4.145  10.222 -1.0000  1.9857 -1.0742
  735MOL0     H96973   7.138   4.272  10.389  1.2620 -2.6531  0.7954
  735MOL0     H96974   6.843   4.447  10.332  0.9371  1.4760  3.3683
  735MOL0     H96975   6.878   4.381  10.488 -1.2556  2.5423  0.4405
  735MOL0     H96976   6.654   4.406  10.482  1.0562 -0.3123 -0.3839
  735MOL0     H96977   6.672   4.232  10.442 -2.6140  0.4050  2.6024
  735MOL0     H96978   6.630   4.455  10.227 -0.2787  1.5961  1.3971
  735MOL0     H96979   6.615   4.277  10.215 -0.7099  0.0368  0.1920
  735MOL0     H96980   6.410   4.441  10.228  1.2275  1.8087 -0.0171
  735MOL0     H96981   6.439   4.463  10.397 -1.7831 -0.0684  0.1339
  735MOL0     H96982   6.259   4.512  10.445  1.1875 -0.3782 -1.3329
  735MOL0     H96983   6.035   4.525  10.523  0.0170 -0.7336 -0.2784
  735MOL0     H96984   5.735   4.408  10.768 -0.7949 -1.3091 -0.0676
  735MOL0     H96985   5.504   4.406  10.860 -0.6293 -0.1263 -0.6604
  735MOL0     H96986   5.296   4.272  10.841  3.7675  0.5184 -2.3449
  735MOL0     H96987   5.198   4.280  10.696 -0.8243 -1.0700  1.2205
  735MOL0     H96988   5.084   4.272  10.924  2.3762  0.3372  2.0814
  735MOL0     H96989   5.019   4.387  10.810 -0.0165  1.1239 -0.4783
  735MOL0     H96990   5.007   4.469  11.033  1.2924 -0.1958  2.1677
  735MOL0     H96991   5.116   4.573  10.944  2.1462  0.5768  2.3511
  735MOL0     H96992   5.215   4.351  11.139 -0.6673  0.3870  1.3606
  735MOL0     H96993   5.317   4.462  11.041 -0.2594  3.5361  1.0944
  735MOL0     H96994   5.245   4.658  11.163 -1.5684  1.2466  2.1414
  735MOL0     H96995   5.297   4.512  11.263 -2.1688 -0.9531  1.9433
  735MOL0     H96996   5.046   4.477  11.298  0.0811 -1.0847 -1.6778
  735MOL0     H96997   5.018   4.621  11.210  0.7321 -0.3672 -0.5868
  735MOL0     H96998   5.183   4.596  11.461  0.9449 -0.3902 -1.1966
  735MOL0     H96999   5.185   4.748  11.374  0.9211 -0.0714  2.0628
  735MOL0     H97000   5.036   4.757  11.566  2.5589  2.3106 -1.5464
  735MOL0     H97001   4.955   4.616  11.533 -2.4942  1.8881  0.1986
  735MOL0     H97002   5.348   4.492  10.458  1.8545  3.1328 -0.4009
  735MOL0     H97003   5.584   4.477  10.377  3.8250 -0.1921  0.9594
  735MOL0     H97004   5.968   4.134  10.351  2.8326 -1.8413 -1.3018
  735MOL0     H97005   6.198   4.098  10.328 -1.3288 -0.9656  1.6683
  735MOL0     H97006   8.137   3.685  10.131  0.5797  1.3300  0.3849
  735MOL0     H97007   8.365   3.624  10.180 -0.7745 -2.6420  0.4969
  735MOL0     H97008   8.811   3.859  10.281 -0.4995  0.4082 -0.3847
  735MOL0     H97009   9.042   3.780  10.321 -1.7543  1.1649  1.2494
  735MOL0     H97010   9.247   3.393  10.396  1.3828  1.8326  0.8070
  735MOL0     H97011   9.080   3.346  10.445  1.6012 -0.2583 -2.1405
  735MOL0     H97012   9.236   3.317  10.639 -0.0814  0.5556  0.2299
  735MOL0     H97013   9.296   3.485  10.608 -1.2758  3.4510 -1.0889
  735MOL0     H97014   8.998   3.428  10.708 -1.1886  1.9720  3.1262
  735MOL0     H97015   9.099   3.571  10.717 -3.4334 -0.6359  3.0798
  735MOL0     H97016   9.249   3.464  10.861 -1.1204  2.7123 -1.5645
  735MOL0     H97017   9.090   3.477  10.926 -0.1572 -0.4503  0.6472
  735MOL0     H97018   9.130   3.057  10.952  1.6316 -1.0795  0.9251
  735MOL0     H97019   8.899   3.413  10.490 -0.0238 -0.6167 -1.4560
  735MOL0     H97020   8.674   3.520  10.499 -0.6346  2.9628  1.7142
  736MOL0     O97021   6.181   6.799   6.197  0.1236  0.0560 -0.1270
  736MOL0     C97022   6.278   6.814   6.266  0.0558 -0.0444  0.3143
  736MOL0     O97023   6.330   6.931   6.290 -1.3656  0.5364 -0.7714
  736MOL0     C97024   6.284   7.043   6.214 -0.2927 -0.0369 -0.6632
  736MOL0     C97025   6.144   7.089   6.227 -0.6683  1.1109 -1.0598
  736MOL0     C97026   6.104   7.199   6.156 -0.2781  0.6764  0.4182
  736MOL0     C97027   6.190   7.276   6.082 -0.8059  1.0107  0.2698
  736MOL0     O97028   6.161   7.398   6.019  0.4178 -0.8784  0.1194
  736MOL0     C97029   6.098   7.498   6.100  1.0420  0.3984 -1.0844
  736MOL0     C97030   6.103   7.638   6.042 -0.0065 -0.4711 -0.8819
  736MOL0     C97031   6.020   7.740   6.143 -0.3574  0.1282 -0.3639
  736MOL0     C97032   6.022   7.883   6.091 -0.4766 -0.4882 -0.9992
  736MOL0     C97033   6.137   7.946   6.166 -0.4622  0.2002 -0.9990
  736MOL0     C97034   6.152   8.092   6.142  0.2730 -0.1239 -0.3602
  736MOL0     C97035   6.268   8.143   6.215  0.1881 -0.9017  0.7529
  736MOL0     C97036   6.238   8.200   6.351  0.2614  0.3203 -0.7604
  736MOL0     N97037   6.134   8.316   6.376 -0.3211  0.9896 -0.0826
  736MOL0     C97038   6.006   8.304   6.420  0.3658 -0.3993  0.1186
  736MOL0     C97039   5.951   8.432   6.425 -0.1142  0.9161 -0.2750
  736MOL0     C97040   5.808   8.469   6.434  0.8158  0.4468 -0.7384
  736MOL0     C97041   5.730   8.425   6.311  0.0239  0.8650 -0.0797
  736MOL0     C97042   5.591   8.479   6.310  0.5659 -0.2037 -0.3886
  736MOL0     C97043   5.513   8.473   6.434  1.3470  0.8488 -0.3509
  736MOL0     O97044   5.480   8.330   6.447  0.4265  0.0580 -0.7377
  736MOL0     C97045   5.527   8.260   6.552  0.0605 -0.4833  0.5835
  736MOL0     C97046   5.565   8.131   6.528  0.4811 -0.6287  0.1382
  736MOL0     C97047   5.603   8.054   6.635  0.2051  0.4070  0.4111
  736MOL0     C97048   5.616   8.100   6.761  1.7154  0.4311 -0.2014
  736MOL0     C97049   5.654   8.012   6.879  0.0528 -0.0887  1.1443
  736MOL0     O97050   5.663   7.881   6.853 -0.3271  0.4218 -0.1276
  736MOL0     C97051   5.713   7.801   6.961  0.1533 -0.7785 -0.6959
  736MOL0     C97052   5.635   7.782   7.075  0.1717  0.3132 -0.1676
  736MOL0     C97053   5.680   7.709   7.186  0.5318 -0.5485  0.9928
  736MOL0     C97054   5.800   7.642   7.165 -0.4763  0.1694  0.9314
  736MOL0     O97055   5.866   7.551   7.255  0.0532 -0.3198 -0.0729
  736MOL0     C97056   5.797   7.523   7.383  0.1766  0.9880  0.7648
  736MOL0     C97057   5.832   7.608   7.498  0.1581 -0.2480 -0.0604
  736MOL0     C97058   5.989   7.611   7.512 -0.0648  0.1394  0.0760
  736MOL0     C97059   6.026   7.685   7.635  0.2014 -0.0692  0.2407
  736MOL0     C97060   6.185   7.680   7.665 -0.2548 -0.1900  0.0527
  736MOL0     C97061   6.288   7.732   7.560 -1.0175  0.6606 -0.5794
  736MOL0     C97062   6.436   7.701   7.608  0.9986  0.8770  0.4573
  736MOL0     C97063   6.531   7.749   7.504  0.2346 -0.5998  0.1068
  736MOL0    Cl97064   6.500   7.693   7.336  0.3585 -0.3309 -0.2487
  736MOL0     C97065   5.870   7.648   7.046 -0.3305  0.1926  1.1076
  736MOL0     C97066   5.834   7.737   6.941 -0.1632  0.8445 -1.3055
  736MOL0     O97067   5.672   8.063   6.986  0.7335  0.4639  0.1085
  736MOL0     C97068   5.599   8.233   6.779  0.8542 -0.0971 -0.5102
  736MOL0     C97069   5.554   8.316   6.672 -0.6174 -0.2438 -0.2831
  736MOL0     N97070   6.058   8.522   6.391  0.4294 -0.3610  0.2275
  736MOL0     N97071   6.158   8.447   6.358  0.4507 -0.0530  0.8781
  736MOL0     C97072   6.323   7.236   6.079 -0.9401  0.9435 -0.1565
  736MOL0     C97073   6.374   7.122   6.142  1.0877 -0.6283 -0.1497
  736MOL0     C97074   6.351   6.700   6.346  0.7067  0.7954  0.4963
  736MOL0     C97075   6.287   6.573   6.384  0.1215 -0.4436  0.4257
  736MOL0     C97076   6.361   6.467   6.434  0.0855  0.1580 -0.1336
  736MOL0     C97077   6.492   6.480   6.456 -0.1546  0.4320 -0.3618
  736MOL0     O97078   6.563   6.372   6.505 -0.3912 -0.3532  0.2513
  736MOL0     C97079   6.673   6.391   6.599  0.3197 -0.5680  0.7202
  736MOL0     C97080   6.659   6.271   6.691 -0.0338 -0.6087  0.2732
  736MOL0     C97081   6.530   6.261   6.761  0.4427 -0.4279  0.1425
  736MOL0     C97082   6.511   6.127   6.841 -0.2109 -0.4985  1.0770
  736MOL0     C97083   6.487   6.014   6.752  1.0794  0.4321 -0.2951
  736MOL0     C97084   6.466   5.926   6.675  0.7185 -0.0222  0.4748
  736MOL0     C97085   6.559   6.600   6.433  0.1610 -0.3369 -0.0414
  736MOL0     C97086   6.485   6.710   6.387 -0.2577 -0.7356 -0.6990
  736MOL0     H97087   6.079   7.030   6.291 -0.7299  0.2657 -1.8830
  736MOL0     H97088   5.996   7.209   6.151 -0.3022  0.0258 -1.2738
  736MOL0     H97089   6.148   7.504   6.197  2.0181  0.4618 -1.5713
  736MOL0     H97090   5.992   7.472   6.107  2.0718 -4.2877  2.5121
  736MOL0     H97091   6.066   7.640   5.939 -1.1745  1.9851 -0.4839
  736MOL0     H97092   6.210   7.659   6.044 -0.5751  3.8503 -2.9016
  736MOL0     H97093   6.053   7.732   6.247 -1.7911 -1.3136  0.0094
  736MOL0     H97094   5.916   7.709   6.132 -0.3733 -0.9550  2.2718
  736MOL0     H97095   6.025   7.903   5.983 -1.9178  3.0958 -0.5069
  736MOL0     H97096   5.933   7.932   6.131 -1.1327 -2.6003  0.2832
  736MOL0     H97097   6.229   7.892   6.139 -0.2323  2.2817 -5.0408
  736MOL0     H97098   6.127   7.937   6.275  3.2260 -1.6638 -0.6497
  736MOL0     H97099   6.066   8.142   6.186  0.2837 -2.4141  2.5318
  736MOL0     H97100   6.147   8.118   6.035 -1.1046  0.9038 -0.0756
  736MOL0     H97101   6.342   8.062   6.226  1.1188 -0.0956  0.6156
  736MOL0     H97102   6.324   8.215   6.155 -0.9536 -1.6481 -1.2977
  736MOL0     H97103   6.325   8.249   6.395 -0.2717  0.4709  0.1524
  736MOL0     H97104   6.219   8.118   6.420  1.1239  2.2334  1.9106
  736MOL0     H97105   5.939   8.219   6.417 -1.7020  1.1278  0.4213
  736MOL0     H97106   5.804   8.576   6.454 -2.2845  0.6755 -2.0433
  736MOL0     H97107   5.772   8.419   6.524 -2.0975 -0.8805 -2.4825
  736MOL0     H97108   5.728   8.316   6.309 -0.0407  0.8612  0.2474
  736MOL0     H97109   5.792   8.466   6.231  1.3861  0.5975  0.8064
  736MOL0     H97110   5.602   8.585   6.288 -0.1052 -0.6918 -3.4488
  736MOL0     H97111   5.535   8.426   6.233 -2.0103 -1.3560  2.0816
  736MOL0     H97112   5.421   8.530   6.421  1.0576  0.6600  0.7338
  736MOL0     H97113   5.567   8.508   6.523  0.8608  0.7439 -0.0103
  736MOL0     H97114   5.556   8.094   6.426 -2.3531  0.3884 -0.0633
  736MOL0     H97115   5.623   7.953   6.601  2.4796  1.9832 -3.6335
  736MOL0     H97116   5.539   7.833   7.066  0.2600  0.8281  1.5734
  736MOL0     H97117   5.603   7.700   7.261 -1.2667  1.1500 -0.5346
  736MOL0     H97118   5.814   7.416   7.398  0.0037  1.0997  1.7969
  736MOL0     H97119   5.690   7.535   7.366  0.7395  1.8307 -3.0518
  736MOL0     H97120   5.786   7.578   7.592  2.9313  2.6018  2.4463
  736MOL0     H97121   5.798   7.712   7.498  2.3974  0.6543  2.9982
  736MOL0     H97122   6.023   7.668   7.425 -0.4400  1.2850  0.6584
  736MOL0     H97123   6.034   7.511   7.515  1.0162  0.6281  1.9619
  736MOL0     H97124   5.987   7.787   7.638 -0.4786 -0.3370  0.7309
  736MOL0     H97125   5.978   7.627   7.714 -0.2675 -1.0907 -0.7534
  736MOL0     H97126   6.190   7.572   7.687 -2.7083 -0.2348  0.7034
  736MOL0     H97127   6.199   7.736   7.757 -1.0743 -0.9629  0.6681
  736MOL0     H97128   6.287   7.838   7.533 -0.0315  0.4556 -1.4859
  736MOL0     H97129   6.266   7.677   7.468  1.2206 -1.3691  0.0122
  736MOL0     H97130   6.450   7.751   7.704 -4.8633 -0.2493  2.3380
  736MOL0     H97131   6.450   7.593   7.618 -0.7264  0.4363 -1.2439
  736MOL0     H97132   6.631   7.713   7.530  0.4764  0.0368  0.0800
  736MOL0     H97133   6.538   7.858   7.497 -2.2687 -0.2198  1.9830
  736MOL0     H97134   5.966   7.598   7.043 -0.8695 -0.8890  1.3879
  736MOL0     H97135   5.892   7.774   6.858  2.0442 -0.3351 -0.3750
  736MOL0     H97136   5.615   8.287   6.872 -1.7911 -0.8592  0.4715
  736MOL0     H97137   5.525   8.417   6.701  3.3956  0.7030  0.9822
  736MOL0     H97138   6.401   7.293   6.029  0.4017  0.2985  1.1633
  736MOL0     H97139   6.478   7.098   6.126  0.2746 -2.5091 -3.7013
  736MOL0     H97140   6.180   6.571   6.370 -0.0251  1.5368  0.9830
  736MOL0     H97141   6.321   6.367   6.449 -0.9131  0.4708 -0.6534
  736MOL0     H97142   6.655   6.487   6.649  2.5854  1.0874 -1.3716
  736MOL0     H97143   6.771   6.392   6.551  0.1587  3.5720  0.0330
  736MOL0     H97144   6.671   6.179   6.632 -2.3437 -0.1946 -0.9499
  736MOL0     H97145   6.734   6.275   6.770 -1.5471 -1.9799  1.8780
  736MOL0     H97146   6.439   6.273   6.701  0.1914 -3.4566 -0.2389
  736MOL0     H97147   6.528   6.345   6.832  2.9050 -1.5734  1.7176
  736MOL0     H97148   6.605   6.108   6.894  1.9821 -0.5217 -2.4642
  736MOL0     H97149   6.435   6.138   6.919  2.2490 -2.0904  3.9283
  736MOL0     H97150   6.460   5.858   6.592  2.9608  1.8894 -1.4037
  736MOL0     H97151   6.663   6.616   6.463 -0.7282  1.4774  2.4430
  736MOL0     H97152   6.533   6.804   6.364 -3.7237  1.9263  1.9225
  737MOL0     O97153   9.451   2.636   4.040 -0.9574  0.3240  1.0190
  737MOL0     C97154   9.541   2.697   3.982  0.2595 -0.9282 -0.2295
  737MOL0     O97155   9.554   2.710   3.847 -0.1605  0.0158 -0.1486
  737MOL0     C97156   9.490   2.618   3.767 -0.7839 -0.8986  0.2340
  737MOL0     C97157   9.454   2.670   3.643 -0.0305  0.2657 -0.2488
  737MOL0     C97158   9.390   2.584   3.553 -0.0794 -0.9547 -0.5627
  737MOL0     C97159   9.379   2.451   3.583  0.1876  0.3298 -1.4547
  737MOL0     O97160   9.320   2.360   3.495  0.2096 -0.1685 -0.3560
  737MOL0     C97161   9.220   2.401   3.399  0.1740  1.1752  0.4703
  737MOL0     C97162   9.181   2.276   3.323  0.0883  0.8187  0.4443
  737MOL0     C97163   9.129   2.328   3.183  0.2550 -0.0104 -0.8759
  737MOL0     C97164   9.120   2.213   3.085  0.0568 -0.2571  0.1265
  737MOL0     C97165   9.040   2.241   2.960 -0.2241 -0.5201  1.4697
  737MOL0     C97166   9.101   2.340   2.851  0.1861 -0.7481 -0.4852
  737MOL0     C97167   9.251   2.306   2.830  0.8656 -0.1019  0.8224
  737MOL0     C97168   9.332   2.406   2.739  0.4951  0.1556 -0.0452
  737MOL0     N97169   9.468   2.367   2.701  0.1255  0.9808 -0.2198
  737MOL0     C97170   9.518   2.245   2.674  1.2023 -0.3177 -0.0794
  737MOL0     C97171   9.637   2.263   2.608  0.1769 -0.3883  0.4618
  737MOL0     C97172   9.723   2.170   2.549  0.3815 -0.4118  0.4727
  737MOL0     C97173   9.655   2.082   2.447 -0.5387  0.2410  1.1062
  737MOL0     C97174   9.572   2.147   2.336 -0.9658  0.2576  1.0314
  737MOL0     C97175   9.513   2.053   2.236 -0.6226  0.5086  0.2155
  737MOL0     O97176   9.403   1.978   2.276  0.2234  0.3850 -0.1495
  737MOL0     C97177   9.288   2.029   2.336 -0.7946 -0.6045 -0.5715
  737MOL0     C97178   9.223   1.943   2.427 -0.0554  0.6743  0.9762
  737MOL0     C97179   9.111   1.988   2.501  0.0117  0.3726 -0.5399
  737MOL0     C97180   9.068   2.123   2.489 -0.2134 -0.7356 -0.0044
  737MOL0     C97181   8.938   2.186   2.550 -0.5368 -0.3200 -0.2860
  737MOL0     O97182   8.838   2.103   2.591 -0.1532 -0.2044 -0.2746
  737MOL0     C97183   8.714   2.147   2.620 -0.2701  0.6458 -0.1921
  737MOL0     C97184   8.657   2.109   2.739 -0.4859 -0.6081  0.4173
  737MOL0     C97185   8.526   2.151   2.783  0.0497 -0.7506  0.7240
  737MOL0     C97186   8.451   2.214   2.689  0.3984 -0.2415  0.5560
  737MOL0     O97187   8.321   2.262   2.705  0.0637  0.1209 -0.5101
  737MOL0     C97188   8.312   2.346   2.824  0.5064  1.1716  0.2495
  737MOL0     C97189   8.422   2.445   2.864  0.4230  0.3159 -0.2426
  737MOL0     C97190   8.366   2.571   2.929 -0.2887  0.3053  0.2820
  737MOL0     C97191   8.478   2.674   2.897 -0.5134 -0.1373  0.6019
  737MOL0     C97192   8.621   2.658   2.960  0.7012 -0.6540  0.7238
  737MOL0     C97193   8.716   2.785   2.948 -0.0206  0.2211  0.0836
  737MOL0     C97194   8.836   2.776   3.048  0.1135 -0.7896  0.3410
  737MOL0     C97195   8.940   2.677   3.010  0.0643 -0.4644 -0.2076
  737MOL0    Cl97196   9.027   2.712   2.854 -0.0668 -0.0768 -0.2089
  737MOL0     C97197   8.498   2.245   2.563 -0.5702  0.2572 -0.4364
  737MOL0     C97198   8.632   2.207   2.526  0.0227  0.4274  0.4172
  737MOL0     O97199   8.925   2.310   2.539  0.0879  0.0121 -0.5537
  737MOL0     C97200   9.146   2.208   2.405 -0.2154  0.3595  1.2452
  737MOL0     C97201   9.250   2.160   2.334  0.4359  0.2282  0.6546
  737MOL0     N97202   9.650   2.399   2.596 -0.1414  0.1259  0.5118
  737MOL0     N97203   9.547   2.459   2.636 -0.2995 -0.2252 -0.4390
  737MOL0     C97204   9.418   2.403   3.711  0.0458  0.6064  0.5399
  737MOL0     C97205   9.478   2.481   3.799 -0.3743  0.3525  0.3495
  737MOL0     C97206   9.651   2.757   4.061  0.6575 -1.1460  0.4336
  737MOL0     C97207   9.700   2.884   4.017  0.0932 -1.0234 -0.5605
  737MOL0     C97208   9.806   2.946   4.093 -1.0445  0.3408 -0.3287
  737MOL0     C97209   9.837   2.901   4.222  0.5688 -0.3421  0.8376
  737MOL0     O97210   9.907   2.996   4.293  0.6534  0.8472 -0.2777
  737MOL0     C97211   9.924   2.984   4.433 -0.2049  1.0906  1.2198
  737MOL0     C97212  10.045   2.892   4.455  0.3208 -0.7590  1.2673
  737MOL0     C97213  10.089   2.880   4.598  0.5255  1.0849  0.4812
  737MOL0     C97214  10.176   3.005   4.653 -1.0744  0.1088 -0.5568
  737MOL0     C97215  10.225   2.959   4.786  1.0244 -0.4034 -0.6809
  737MOL0     C97216  10.274   2.931   4.897  0.8262 -0.1364 -0.6873
  737MOL0     C97217   9.771   2.787   4.272 -0.1037  1.1232 -0.2928
  737MOL0     C97218   9.680   2.716   4.191 -0.1254  0.3633  0.5884
  737MOL0     H97219   9.476   2.769   3.607  1.7479  0.6623  1.7142
  737MOL0     H97220   9.362   2.611   3.451 -1.7041 -0.7603 -0.0891
  737MOL0     H97221   9.268   2.463   3.323  1.0454 -2.4653 -2.2141
  737MOL0     H97222   9.132   2.447   3.445 -1.5811 -3.2970  2.1225
  737MOL0     H97223   9.116   2.210   3.380  0.9924  0.2208  0.7965
  737MOL0     H97224   9.269   2.212   3.329 -0.1741  0.3464 -0.4802
  737MOL0     H97225   9.202   2.397   3.141 -0.2139  0.1718 -1.4060
  737MOL0     H97226   9.028   2.370   3.182  0.4873  0.5500 -0.9583
  737MOL0     H97227   9.217   2.164   3.071 -0.0585 -0.3614 -0.3419
  737MOL0     H97228   9.062   2.127   3.121 -3.8309 -1.0289 -6.4024
  737MOL0     H97229   8.938   2.269   2.988 -1.1574 -1.3483 -0.8683
  737MOL0     H97230   9.036   2.147   2.905  1.9190  0.1834 -0.0264
  737MOL0     H97231   9.081   2.445   2.876  1.6079  0.1089 -2.6605
  737MOL0     H97232   9.044   2.324   2.759 -0.8322 -0.7533  0.1338
  737MOL0     H97233   9.303   2.308   2.926  0.8446  2.9395  0.8580
  737MOL0     H97234   9.259   2.206   2.787  0.1861 -0.4436  1.4604
  737MOL0     H97235   9.343   2.498   2.798 -0.9745  2.9166 -3.6535
  737MOL0     H97236   9.279   2.430   2.647  1.1228  0.9918 -0.1992
  737MOL0     H97237   9.467   2.157   2.711 -0.7993  0.6597 -0.3730
  737MOL0     H97238   9.781   2.109   2.618  0.7246  0.8362  1.3096
  737MOL0     H97239   9.799   2.228   2.496  1.5921  0.1276  2.6740
  737MOL0     H97240   9.582   2.012   2.490 -1.9769  0.1023 -1.3769
  737MOL0     H97241   9.733   2.027   2.392 -0.0725  0.8440  1.1588
  737MOL0     H97242   9.501   2.218   2.379 -0.2202  1.9990 -0.4957
  737MOL0     H97243   9.642   2.214   2.285 -2.6179  1.6839  0.5499
  737MOL0     H97244   9.597   1.990   2.207 -1.1449  0.1389 -0.5408
  737MOL0     H97245   9.479   2.103   2.145 -3.4080 -1.9992 -0.2750
  737MOL0     H97246   9.264   1.843   2.432  1.0147  1.0818  0.6200
  737MOL0     H97247   9.068   1.930   2.582  0.7991  0.1405 -0.2792
  737MOL0     H97248   8.727   2.064   2.809  0.1891 -0.0913  0.0889
  737MOL0     H97249   8.481   2.137   2.881  0.8158  1.1176  1.3798
  737MOL0     H97250   8.303   2.279   2.910  1.9409 -1.9994 -1.9171
  737MOL0     H97251   8.216   2.399   2.815  1.4198  2.9670  0.5145
  737MOL0     H97252   8.457   2.471   2.764 -0.0593 -2.3042 -1.1560
  737MOL0     H97253   8.502   2.393   2.918 -2.1179 -4.0182 -0.2201
  737MOL0     H97254   8.345   2.552   3.035 -0.3825 -1.7734 -0.0589
  737MOL0     H97255   8.273   2.596   2.877 -0.6013 -3.0481 -1.0617
  737MOL0     H97256   8.498   2.684   2.790  2.9853  1.0627  1.2322
  737MOL0     H97257   8.447   2.773   2.932 -0.2770  0.4021 -0.6857
  737MOL0     H97258   8.672   2.574   2.912 -0.5671  0.2794 -2.5556
  737MOL0     H97259   8.605   2.630   3.064 -1.3397 -1.7136  0.1730
  737MOL0     H97260   8.661   2.876   2.972  1.4934  0.6606  2.1994
  737MOL0     H97261   8.750   2.798   2.845 -0.3180  1.1529  0.0976
  737MOL0     H97262   8.880   2.873   3.074 -1.1952  0.2933 -1.3131
  737MOL0     H97263   8.787   2.737   3.138 -1.4953  0.0485 -0.1410
  737MOL0     H97264   8.889   2.580   3.006  2.3813 -1.7695  0.1288
  737MOL0     H97265   9.014   2.661   3.089  0.7693 -1.2282 -1.0143
  737MOL0     H97266   8.433   2.284   2.485 -0.6808  1.7796  0.3889
  737MOL0     H97267   8.673   2.239   2.430 -0.6677 -0.5408 -0.2165
  737MOL0     H97268   9.121   2.310   2.377  0.8799 -0.1464 -1.9829
  737MOL0     H97269   9.303   2.226   2.265  1.6796 -1.4628 -0.0887
  737MOL0     H97270   9.396   2.299   3.731 -4.6400  1.7695  2.6690
  737MOL0     H97271   9.512   2.439   3.894 -0.5966 -2.8800 -0.8591
  737MOL0     H97272   9.663   2.923   3.922  1.0302 -2.6432 -1.6522
  737MOL0     H97273   9.845   3.042   4.060  1.3829 -0.4029  0.1736
  737MOL0     H97274   9.839   2.940   4.486  0.1170 -1.8652 -0.5167
  737MOL0     H97275   9.950   3.079   4.480  0.9500  1.5019 -0.1714
  737MOL0     H97276  10.012   2.789   4.434 -2.4492  0.3338 -0.3577
  737MOL0     H97277  10.136   2.930   4.408  0.3859  1.1316  2.7948
  737MOL0     H97278  10.145   2.786   4.598 -2.4170 -0.7986  0.9948
  737MOL0     H97279   9.999   2.872   4.660 -1.3973  2.2808 -1.9863
  737MOL0     H97280  10.265   3.028   4.594  2.1489 -0.7344  3.5205
  737MOL0     H97281  10.113   3.094   4.646  1.2217  1.8361 -0.3620
  737MOL0     H97282  10.332   2.921   4.986  1.3492  0.7335 -0.9272
  737MOL0     H97283   9.800   2.753   4.370  0.8971  2.1045 -0.2311
  737MOL0     H97284   9.635   2.622   4.221  0.7370 -0.3013 -0.1891
  738MOL0     O97285   7.854   6.321   0.075 -0.2097  0.1982 -0.2471
  738MOL0     C97286   7.946   6.312   0.154  0.5412 -0.1652  0.4914
  738MOL0     O97287   7.933   6.354   0.289  0.0180  0.3269 -0.0398
  738MOL0     C97288   7.843   6.451   0.322  0.5301  0.2851  0.4698
  738MOL0     C97289   7.731   6.435   0.402  0.3554 -1.2292  0.1916
  738MOL0     C97290   7.632   6.530   0.405  0.2821 -0.1488 -0.0744
  738MOL0     C97291   7.651   6.656   0.345  1.0212  0.5592  0.8678
  738MOL0     O97292   7.558   6.766   0.351 -0.0811  0.4089  0.4798
  738MOL0     C97293   7.422   6.724   0.386 -0.3946  0.6915  0.8343
  738MOL0     C97294   7.320   6.821   0.313 -0.3579  0.2972 -0.9070
  738MOL0     C97295   7.177   6.770   0.319  0.1978  0.2017 -0.5004
  738MOL0     C97296   7.161   6.645   0.228 -0.9556  0.6789  0.3110
  738MOL0     C97297   7.032   6.576   0.258  0.4000 -0.1786 -0.0225
  738MOL0     C97298   7.027   6.434   0.203 -0.1212  0.3024 -0.2104
  738MOL0     C97299   6.881   6.379   0.186 -0.4853  0.1382 -0.1729
  738MOL0     C97300   6.819   6.395   0.047  0.7487 -0.1094  0.2140
  738MOL0     N97301   6.772   6.527   0.030 -0.4185 -0.2615 -0.4328
  738MOL0     C97302   6.843   6.623  -0.031  0.7394 -0.5625  0.0696
  738MOL0     C97303   6.777   6.742   0.007 -0.0524  0.9731  0.5023
  738MOL0     C97304   6.837   6.880  -0.012  0.4215  0.3753  0.3608
  738MOL0     C97305   6.815   6.955  -0.145  0.4342 -0.6786 -1.0292
  738MOL0     C97306   6.846   6.876  -0.274  0.3378  0.0911 -0.0674
  738MOL0     C97307   6.876   6.962  -0.397  0.7552 -0.2737  0.1942
  738MOL0     O97308   6.757   7.039  -0.429  0.6740 -0.2418  0.7896
  738MOL0     C97309   6.743   7.082  -0.562  0.1260 -0.7264  0.0440
  738MOL0     C97310   6.837   7.103  -0.666 -0.4502  0.0306  0.0321
  738MOL0     C97311   6.817   7.181  -0.779  0.3483  0.0556  0.4995
  738MOL0     C97312   6.688   7.238  -0.799 -0.2506 -0.5753  0.5931
  738MOL0     C97313   6.667   7.331  -0.913 -0.2087  0.5137 -0.3772
  738MOL0     O97314   6.782   7.354  -0.992 -0.3651 -0.0282  0.1078
  738MOL0     C97315   6.761   7.425  -1.111  0.1083  0.3732 -0.3942
  738MOL0     C97316   6.712   7.350  -1.220  0.4593 -0.4626  0.0082
  738MOL0     C97317   6.696   7.418  -1.353  0.5318  0.6951 -1.1109
  738MOL0     C97318   6.717   7.557  -1.350  0.4000  0.1452 -0.0313
  738MOL0     O97319   6.720   7.609  -1.480  1.2506 -0.6449  0.2783
  738MOL0     C97320   6.734   7.750  -1.495 -0.0208  0.0496  1.0339
  738MOL0     C97321   6.714   7.780  -1.640  0.1279 -0.1790 -0.3433
  738MOL0     C97322   6.575   7.737  -1.700 -0.4882  0.7035 -0.8644
  738MOL0     C97323   6.562   7.787  -1.840  0.5941 -0.4564  0.3386
  738MOL0     C97324   6.434   7.740  -1.915  0.5373 -0.1474 -0.9674
  738MOL0     C97325   6.367   7.840  -2.007  0.0816  0.6144  1.0069
  738MOL0     C97326   6.249   7.770  -2.079 -0.1637  0.1329  0.5477
  738MOL0     C97327   6.288   7.676  -2.197 -0.5437  0.3578 -0.6023
  738MOL0    Cl97328   6.155   7.664  -2.304  0.1548  0.1917  0.1968
  738MOL0     C97329   6.731   7.632  -1.233 -0.8022 -0.9188  0.1723
  738MOL0     C97330   6.762   7.557  -1.115 -0.0979 -0.6209  0.1007
  738MOL0     O97331   6.550   7.353  -0.941  0.8128 -0.1492  0.4324
  738MOL0     C97332   6.593   7.228  -0.698 -0.7575 -0.4693 -0.6322
  738MOL0     C97333   6.622   7.156  -0.584  0.0243  0.1781  0.3862
  738MOL0     N97334   6.670   6.704   0.072 -0.1492 -0.9709 -0.0959
  738MOL0     N97335   6.667   6.578   0.095  0.2340 -0.1396 -0.2747
  738MOL0     C97336   7.763   6.680   0.274 -0.0051  0.2547  0.5706
  738MOL0     C97337   7.861   6.579   0.254  0.5485 -0.8876 -0.0301
  738MOL0     C97338   8.080   6.274   0.098  0.5588  0.5766 -0.0931
  738MOL0     C97339   8.195   6.277   0.184  0.3524  0.7591  0.2614
  738MOL0     C97340   8.319   6.237   0.138 -0.3548  1.2988 -0.1609
  738MOL0     C97341   8.344   6.219   0.000  0.1258  0.0104 -0.0885
  738MOL0     O97342   8.472   6.189  -0.048 -0.0474 -0.5405 -0.4937
  738MOL0     C97343   8.583   6.273  -0.016  0.0411 -0.4104  0.7459
  738MOL0     C97344   8.705   6.198  -0.038 -0.0383  0.2368 -0.2396
  738MOL0     C97345   8.739   6.171  -0.187 -0.0089  0.0610 -0.3052
  738MOL0     C97346   8.892   6.143  -0.203  0.1438  0.0800 -0.7993
  738MOL0     C97347   8.959   6.199  -0.323  0.3126 -0.3294  0.1196
  738MOL0     C97348   9.023   6.230  -0.421  1.2067 -0.2898 -0.0679
  738MOL0     C97349   8.234   6.214  -0.080 -0.7347 -0.3634  0.3787
  738MOL0     C97350   8.110   6.254  -0.039  0.5178 -0.7354  0.3666
  738MOL0     H97351   7.721   6.333   0.439 -0.0641 -1.8369 -1.5007
  738MOL0     H97352   7.540   6.515   0.459 -0.2769 -0.5930 -1.1127
  738MOL0     H97353   7.409   6.735   0.494  0.2948  1.2951  0.8591
  738MOL0     H97354   7.400   6.620   0.362 -0.8148  0.6642  1.3310
  738MOL0     H97355   7.351   6.817   0.209 -0.0065 -3.0553 -0.7972
  738MOL0     H97356   7.329   6.922   0.355  0.6705 -0.1126 -0.1045
  738MOL0     H97357   7.105   6.846   0.288  0.9297  0.1441 -2.5254
  738MOL0     H97358   7.154   6.742   0.422 -0.8301 -1.2709 -1.1016
  738MOL0     H97359   7.156   6.685   0.127 -1.4617  2.4213  0.9962
  738MOL0     H97360   7.247   6.577   0.238  0.3633  2.0473 -1.1402
  738MOL0     H97361   6.951   6.628   0.206 -0.8385 -1.7658  0.2500
  738MOL0     H97362   7.022   6.578   0.367  0.6155  4.1243  0.1133
  738MOL0     H97363   7.090   6.368   0.263  4.4932  2.6357 -2.0079
  738MOL0     H97364   7.076   6.452   0.107  1.7120  2.0531  0.9874
  738MOL0     H97365   6.893   6.271   0.203  0.2286  0.6075  2.8714
  738MOL0     H97366   6.812   6.423   0.258  0.3904  2.5856 -0.7555
  738MOL0     H97367   6.730   6.332   0.046 -1.7643  3.1851  0.6127
  738MOL0     H97368   6.878   6.364  -0.039 -4.1847 -1.3386 -3.1399
  738MOL0     H97369   6.936   6.618  -0.087 -0.3734 -1.4814 -1.7780
  738MOL0     H97370   6.945   6.878   0.005  0.7019  0.6892 -1.1883
  738MOL0     H97371   6.794   6.936   0.072 -0.0605 -0.9918  1.0534
  738MOL0     H97372   6.891   7.034  -0.141 -0.6132  0.5531 -3.2196
  738MOL0     H97373   6.714   6.996  -0.149  0.4641 -0.5425 -0.4225
  738MOL0     H97374   6.928   6.807  -0.252  1.5614  1.8426  1.2463
  738MOL0     H97375   6.779   6.794  -0.301  1.8964 -1.5429  0.8386
  738MOL0     H97376   6.906   6.901  -0.484 -2.0951 -1.8341  0.1932
  738MOL0     H97377   6.960   7.028  -0.373  0.0298  0.8479 -0.2981
  738MOL0     H97378   6.940   7.075  -0.650 -0.4687  1.2832  3.0374
  738MOL0     H97379   6.898   7.194  -0.850  0.0292 -0.7783 -0.0362
  738MOL0     H97380   6.706   7.243  -1.209 -3.6482 -0.5227 -1.2344
  738MOL0     H97381   6.660   7.369  -1.443  4.0942 -2.5294 -1.0686
  738MOL0     H97382   6.836   7.782  -1.471 -0.0935 -1.3222  3.5071
  738MOL0     H97383   6.662   7.804  -1.432 -1.5622  0.3073 -0.8657
  738MOL0     H97384   6.793   7.729  -1.697 -0.2901  0.6454 -1.7330
  738MOL0     H97385   6.727   7.889  -1.651 -0.3792 -0.1370 -0.5260
  738MOL0     H97386   6.496   7.787  -1.644  0.5926 -0.4877  1.8978
  738MOL0     H97387   6.546   7.631  -1.695 -2.7456  1.2702 -1.0095
  738MOL0     H97388   6.559   7.896  -1.835  0.1595 -0.3440 -1.5049
  738MOL0     H97389   6.648   7.755  -1.900  1.0392 -0.9578  1.2376
  738MOL0     H97390   6.356   7.702  -1.849  1.9734  0.9401  1.4837
  738MOL0     H97391   6.474   7.660  -1.977  3.6755  0.1818  0.4397
  738MOL0     H97392   6.444   7.858  -2.083 -0.1099 -2.6261 -0.1421
  738MOL0     H97393   6.337   7.931  -1.955 -3.3209  0.0548  0.2781
  738MOL0     H97394   6.187   7.711  -2.010  0.9026 -1.4644  0.2208
  738MOL0     H97395   6.195   7.856  -2.116  1.9377  1.2390 -0.1289
  738MOL0     H97396   6.313   7.575  -2.166 -0.5588 -0.2537 -2.4269
  738MOL0     H97397   6.382   7.713  -2.239  1.3145 -1.8047  1.4039
  738MOL0     H97398   6.738   7.739  -1.241  3.3315 -1.1217 -1.0137
  738MOL0     H97399   6.785   7.606  -1.021 -2.5372  1.1684 -0.1364
  738MOL0     H97400   6.497   7.280  -0.697 -0.8977 -0.5392 -3.2949
  738MOL0     H97401   6.549   7.147  -0.503 -1.1509  1.9281 -0.4198
  738MOL0     H97402   7.782   6.781   0.241 -2.6816  0.4987 -0.4703
  738MOL0     H97403   7.954   6.608   0.206  0.5730  0.3606  0.7284
  738MOL0     H97404   8.193   6.316   0.285  1.9889  0.9432  0.2468
  738MOL0     H97405   8.415   6.235   0.189 -1.1333 -0.3944  1.3823
  738MOL0     H97406   8.579   6.315   0.085  3.0294 -2.7113  1.9736
  738MOL0     H97407   8.582   6.358  -0.085 -3.1675  0.6063  1.8465
  738MOL0     H97408   8.772   6.271   0.008  0.0614 -0.6257  1.0355
  738MOL0     H97409   8.715   6.108   0.024 -0.7436  0.3527  0.0585
  738MOL0     H97410   8.700   6.258  -0.242 -0.7341 -1.3855 -2.1801
  738MOL0     H97411   8.679   6.084  -0.215 -0.9817  0.0419  1.6420
  738MOL0     H97412   8.933   6.209  -0.125 -0.6207  1.1436 -1.2713
  738MOL0     H97413   8.912   6.039  -0.177  1.1458 -0.6737 -4.1568
  738MOL0     H97414   9.086   6.247  -0.506  1.0435 -3.0647 -0.8484
  738MOL0     H97415   8.245   6.195  -0.186  0.3017 -0.6481  0.5213
  738MOL0     H97416   8.024   6.252  -0.105  1.8194  1.9448 -1.5552
  739MOL0     O97417   7.814   1.375   1.906 -0.0161  0.4202 -0.4347
  739MOL0     C97418   7.837   1.482   1.956  0.3468 -0.1058 -0.1061
  739MOL0     O97419   7.823   1.604   1.884  0.6673  0.5708 -0.2058
  739MOL0     C97420   7.737   1.604   1.770  0.0936  0.2654  0.1326
  739MOL0     C97421   7.755   1.705   1.673 -0.1796 -0.3739 -0.3576
  739MOL0     C97422   7.680   1.725   1.564 -0.0318 -0.6985 -0.7068
  739MOL0     C97423   7.587   1.629   1.540  0.3538  0.5293  1.4293
  739MOL0     O97424   7.512   1.628   1.429  0.3729  0.2582  0.3404
  739MOL0     C97425   7.576   1.542   1.330  1.0041  0.0863  0.6902
  739MOL0     C97426   7.479   1.550   1.214  0.5176  0.8409  0.0657
  739MOL0     C97427   7.549   1.467   1.101  0.1873  0.2365 -0.0719
  739MOL0     C97428   7.457   1.455   0.978  0.2260  0.6100  0.1539
  739MOL0     C97429   7.506   1.363   0.862 -0.3990 -0.8689 -0.0567
  739MOL0     C97430   7.398   1.364   0.754  0.0668  0.4554  0.8739
  739MOL0     C97431   7.445   1.274   0.633  0.8044 -0.2282 -0.0871
  739MOL0     C97432   7.448   1.120   0.665 -0.4340  0.0043 -0.1765
  739MOL0     N97433   7.481   1.038   0.545  0.2408  0.9177 -0.7442
  739MOL0     C97434   7.413   0.927   0.506 -0.7762 -0.4567 -0.4837
  739MOL0     C97435   7.491   0.874   0.407 -0.2163 -0.1205 -0.3951
  739MOL0     C97436   7.478   0.741   0.333 -0.4115 -0.5278  0.6658
  739MOL0     C97437   7.443   0.616   0.418 -0.6724  0.6863  1.2324
  739MOL0     C97438   7.558   0.562   0.505  0.1107  0.3602 -0.7995
  739MOL0     C97439   7.496   0.463   0.611 -0.1183 -1.0610  0.4491
  739MOL0     O97440   7.422   0.542   0.708 -0.6986 -0.6453  0.0806
  739MOL0     C97441   7.490   0.583   0.817  0.0717 -0.2864  0.2239
  739MOL0     C97442   7.533   0.490   0.914 -0.6822 -0.8281 -1.2830
  739MOL0     C97443   7.604   0.540   1.030 -0.5818  0.0089  0.3214
  739MOL0     C97444   7.633   0.678   1.044  0.3782  0.2439 -0.4562
  739MOL0     C97445   7.710   0.716   1.168 -0.3308  0.0368 -0.6243
  739MOL0     O97446   7.716   0.625   1.277  0.1274 -0.2024  0.3760
  739MOL0     C97447   7.782   0.654   1.389 -0.7072 -0.4115  0.4939
  739MOL0     C97448   7.917   0.699   1.394 -0.6660  0.1442  0.4854
  739MOL0     C97449   7.977   0.727   1.516 -1.1901 -0.5812 -0.2865
  739MOL0     C97450   7.912   0.707   1.637  0.2811 -0.2292  0.5498
  739MOL0     O97451   7.960   0.727   1.764 -0.0404  0.5033 -0.2248
  739MOL0     C97452   8.088   0.774   1.792 -0.9280  0.1837 -0.1595
  739MOL0     C97453   8.107   0.789   1.944  0.4696  0.3159  0.1657
  739MOL0     C97454   8.123   0.652   2.018 -0.0917  0.4492 -0.8047
  739MOL0     C97455   8.164   0.681   2.164 -0.2809 -0.1845 -0.4465
  739MOL0     C97456   8.044   0.705   2.253  0.4560 -0.5772  0.4966
  739MOL0     C97457   8.071   0.715   2.397  0.8624 -0.6489  0.0933
  739MOL0     C97458   8.168   0.830   2.420  0.6967 -0.3522  0.0956
  739MOL0     C97459   8.160   0.863   2.578  0.1433 -0.0530 -0.2184
  739MOL0    Cl97460   8.295   0.961   2.632 -0.2573 -0.3585  0.7115
  739MOL0     C97461   7.774   0.664   1.627  0.3272  0.0488 -0.1416
  739MOL0     C97462   7.710   0.646   1.509  0.3507 -0.2477 -0.7562
  739MOL0     O97463   7.753   0.831   1.166  0.1330 -0.0992  0.1923
  739MOL0     C97464   7.597   0.770   0.949  0.1892 -0.0744  0.4664
  739MOL0     C97465   7.523   0.724   0.837 -0.3331  0.4372 -1.2443
  739MOL0     N97466   7.585   0.968   0.373 -0.1809  0.5968  0.1034
  739MOL0     N97467   7.582   1.067   0.457 -0.0294 -0.5842  0.3694
  739MOL0     C97468   7.554   1.528   1.625 -0.3815 -0.3507  1.0682
  739MOL0     C97469   7.625   1.519   1.745 -0.5920 -0.4041  0.0400
  739MOL0     C97470   7.864   1.486   2.099  0.7085  0.9246  0.7397
  739MOL0     C97471   7.822   1.388   2.193  0.7682  1.1908 -0.7922
  739MOL0     C97472   7.830   1.400   2.330 -0.0540 -0.4072 -0.0640
  739MOL0     C97473   7.881   1.521   2.381 -0.2831  1.3315 -0.8133
  739MOL0     O97474   7.882   1.557   2.516 -0.9042 -0.4248  0.4348
  739MOL0     C97475   7.777   1.515   2.604 -0.6194  0.6772  0.1906
  739MOL0     C97476   7.638   1.575   2.584 -0.4546  1.0668 -0.8270
  739MOL0     C97477   7.629   1.721   2.610  0.4366 -0.5133 -1.0426
  739MOL0     C97478   7.606   1.763   2.761 -0.6158 -0.0757 -0.2050
  739MOL0     C97479   7.730   1.808   2.824 -0.2579  0.2487 -0.2578
  739MOL0     C97480   7.831   1.843   2.885  0.1125 -0.1636  1.2070
  739MOL0     C97481   7.933   1.617   2.295 -0.0100  1.0008 -0.3140
  739MOL0     C97482   7.926   1.603   2.152  1.2270 -0.1658  0.7774
  739MOL0     H97483   7.836   1.774   1.695 -0.5315  0.5344 -1.8106
  739MOL0     H97484   7.699   1.811   1.501 -4.0133  2.4045  1.8464
  739MOL0     H97485   7.592   1.441   1.370 -1.9632 -1.6828 -2.0998
  739MOL0     H97486   7.668   1.588   1.294  0.8905 -0.1637  0.0663
  739MOL0     H97487   7.461   1.651   1.177  0.9970  1.2871  1.0169
  739MOL0     H97488   7.387   1.500   1.247  1.3681  0.3193  1.7961
  739MOL0     H97489   7.576   1.369   1.143 -1.5877 -0.2178  0.0702
  739MOL0     H97490   7.639   1.520   1.068  1.1409 -1.2183  0.0687
  739MOL0     H97491   7.360   1.419   1.012  0.0448  0.0936 -0.8746
  739MOL0     H97492   7.436   1.554   0.937  2.2155  1.5110  1.1347
  739MOL0     H97493   7.544   1.265   0.892  4.5341  1.0265  0.7473
  739MOL0     H97494   7.593   1.414   0.821  1.0442 -2.3477  1.0551
  739MOL0     H97495   7.381   1.468   0.725  0.9415  0.3473 -0.0746
  739MOL0     H97496   7.301   1.331   0.791  0.9700 -3.0297  0.5455
  739MOL0     H97497   7.384   1.291   0.544  1.4622 -1.7974 -0.8877
  739MOL0     H97498   7.549   1.302   0.613  0.4959  0.2397 -1.0562
  739MOL0     H97499   7.344   1.095   0.688  0.0439 -0.8151  1.2790
  739MOL0     H97500   7.520   1.095   0.744 -0.6744 -0.1878 -0.0183
  739MOL0     H97501   7.331   0.866   0.543  0.0101 -2.5830 -2.0605
  739MOL0     H97502   7.559   0.718   0.263 -0.5567  2.3722 -0.5915
  739MOL0     H97503   7.388   0.756   0.273 -0.2413  0.1346  0.5686
  739MOL0     H97504   7.415   0.535   0.351 -0.1783  1.8350 -0.4134
  739MOL0     H97505   7.350   0.631   0.474 -2.4825  1.0022 -1.6480
  739MOL0     H97506   7.638   0.513   0.451  2.1182  0.6573  1.7180
  739MOL0     H97507   7.579   0.654   0.561 -3.4934 -0.4823  2.3956
  739MOL0     H97508   7.570   0.396   0.657  0.4402 -1.2751 -0.7113
  739MOL0     H97509   7.422   0.402   0.559  0.4191 -1.2439 -0.1227
  739MOL0     H97510   7.503   0.386   0.907 -0.9581 -0.8126 -0.5151
  739MOL0     H97511   7.636   0.468   1.103 -0.0211 -0.5567 -0.4690
  739MOL0     H97512   7.975   0.698   1.302 -2.0484 -2.2068 -0.4479
  739MOL0     H97513   8.074   0.774   1.514 -1.4983  0.0733 -0.3983
  739MOL0     H97514   8.119   0.866   1.741 -0.5402  0.2107  0.1247
  739MOL0     H97515   8.155   0.693   1.764 -1.4401 -2.0726  4.2483
  739MOL0     H97516   8.019   0.843   1.980 -0.8865 -2.1403  0.7925
  739MOL0     H97517   8.194   0.850   1.971  0.4376  1.5175 -2.1941
  739MOL0     H97518   8.211   0.612   1.967  1.9535  1.1604  1.9571
  739MOL0     H97519   8.039   0.583   2.013  0.4952 -0.2688 -0.8958
  739MOL0     H97520   8.213   0.587   2.191  0.4282 -0.4440 -2.5020
  739MOL0     H97521   8.232   0.767   2.161  3.0484 -2.6539 -1.7346
  739MOL0     H97522   7.966   0.632   2.228  0.0999  0.7062 -2.5693
  739MOL0     H97523   7.998   0.802   2.229 -2.1549 -1.4311  1.6072
  739MOL0     H97524   8.123   0.622   2.424 -3.4241 -3.2799  0.2724
  739MOL0     H97525   7.979   0.713   2.457  1.1640 -0.6906  0.5626
  739MOL0     H97526   8.268   0.808   2.381  0.6995  1.0939 -0.7973
  739MOL0     H97527   8.139   0.918   2.362  1.3863  1.0473  1.7507
  739MOL0     H97528   8.169   0.772   2.638  0.3995 -0.0241 -0.2141
  739MOL0     H97529   8.066   0.918   2.581  0.0622  0.0207 -2.2923
  739MOL0     H97530   7.717   0.650   1.718  1.3956 -1.2395  0.3708
  739MOL0     H97531   7.604   0.622   1.520  0.3467  0.8322  3.3465
  739MOL0     H97532   7.630   0.873   0.956 -1.7957  0.7823 -1.3767
  739MOL0     H97533   7.499   0.805   0.769 -3.0976  0.0088 -0.8874
  739MOL0     H97534   7.470   1.461   1.611 -0.7545  0.1143  1.0462
  739MOL0     H97535   7.584   1.452   1.820 -0.0392 -1.1629 -0.3190
  739MOL0     H97536   7.782   1.301   2.141  1.5965  0.6037 -0.4542
  739MOL0     H97537   7.789   1.325   2.396  0.9395 -0.1600  0.8673
  739MOL0     H97538   7.794   1.538   2.710 -0.5785  1.8143 -0.0495
  739MOL0     H97539   7.765   1.407   2.610  0.4953  0.5834  1.2893
  739MOL0     H97540   7.598   1.555   2.484 -4.1616  1.0121  0.5070
  739MOL0     H97541   7.571   1.521   2.652  1.2661  1.7079  1.4702
  739MOL0     H97542   7.539   1.760   2.561  0.2696  0.1995 -0.1761
  739MOL0     H97543   7.722   1.765   2.572  1.1624 -2.0777 -1.1545
  739MOL0     H97544   7.532   1.843   2.756 -1.0678 -0.3826  1.0608
  739MOL0     H97545   7.550   1.682   2.808  0.2450 -2.3881 -2.8997
  739MOL0     H97546   7.929   1.876   2.914  0.5355 -1.3304  1.1574
  739MOL0     H97547   7.976   1.705   2.342  2.8722 -1.6720  2.4741
  739MOL0     H97548   7.971   1.682   2.093  2.7372 -2.9108 -2.0279
  740MOL0     O97549   2.379   5.506   6.588  0.2543 -0.9514 -0.4702
  740MOL0     C97550   2.283   5.511   6.512  1.3381 -0.5497 -1.1164
  740MOL0     O97551   2.179   5.421   6.505 -0.2508 -0.2283 -0.1800
  740MOL0     C97552   2.175   5.309   6.583  0.9920 -0.6391 -0.3885
  740MOL0     C97553   2.274   5.229   6.611 -0.1332  1.1746 -0.6922
  740MOL0     C97554   2.267   5.133   6.712  1.3414 -0.2749  0.4006
  740MOL0     C97555   2.153   5.114   6.788  0.0526 -0.5951  0.6216
  740MOL0     O97556   2.163   5.014   6.883  0.3577 -0.0453  0.9129
  740MOL0     C97557   2.049   4.959   6.945  0.2944  0.5712  0.8882
  740MOL0     C97558   1.998   5.051   7.051  0.4601 -0.7727 -0.0202
  740MOL0     C97559   1.850   5.023   7.104  0.2316 -0.9791  0.1910
  740MOL0     C97560   1.818   5.094   7.239 -0.3426  0.1494  0.6194
  740MOL0     C97561   1.680   5.067   7.293  0.0963  0.5004 -0.3453
  740MOL0     C97562   1.664   4.915   7.328 -0.3409 -0.2001 -0.5163
  740MOL0     C97563   1.528   4.895   7.401  0.3692  0.5239 -0.0786
  740MOL0     C97564   1.456   4.766   7.344  0.4363 -0.9363 -0.1123
  740MOL0     N97565   1.326   4.750   7.412 -0.3245  0.2739 -0.6275
  740MOL0     C97566   1.326   4.714   7.545 -0.4254 -0.2576  0.7431
  740MOL0     C97567   1.196   4.734   7.575  0.0531  0.1337 -0.0534
  740MOL0     C97568   1.140   4.694   7.706  0.0897 -1.2018 -0.7910
  740MOL0     C97569   1.025   4.592   7.683 -0.7226 -0.4541  0.5451
  740MOL0     C97570   1.091   4.458   7.637 -0.3760 -0.1858 -0.6575
  740MOL0     C97571   0.983   4.363   7.594  0.3851  0.0680 -0.0326
  740MOL0     O97572   0.875   4.339   7.688  0.3478 -0.3010  0.3127
  740MOL0     C97573   0.774   4.274   7.617  0.0895 -0.4199 -0.6362
  740MOL0     C97574   0.644   4.333   7.604  0.5050  0.1868  0.0237
  740MOL0     C97575   0.541   4.271   7.533 -0.3916  0.0959 -0.3562
  740MOL0     C97576   0.557   4.139   7.497  0.4061 -0.5110  1.5733
  740MOL0     C97577   0.438   4.069   7.449 -0.0781 -0.7548 -0.3050
  740MOL0     O97578   0.329   4.151   7.435 -0.5248  0.2525  0.1077
  740MOL0     C97579   0.213   4.108   7.389  0.3596  0.5434  0.4090
  740MOL0     C97580   0.108   4.194   7.415  1.1382 -0.1314  0.7096
  740MOL0     C97581  -0.026   4.162   7.389 -0.8840  0.3859 -1.0346
  740MOL0     C97582  -0.056   4.050   7.314 -0.1915 -0.2454  1.0549
  740MOL0     O97583  -0.185   4.027   7.272 -0.3137 -1.2794  0.0348
  740MOL0     C97584  -0.285   4.040   7.370  0.7636 -0.6221 -0.3468
  740MOL0     C97585  -0.421   4.026   7.306 -0.7613  0.6783  0.1285
  740MOL0     C97586  -0.527   4.042   7.411  0.6163  0.1488 -0.2362
  740MOL0     C97587  -0.663   4.021   7.354 -1.5952 -0.0190  0.0508
  740MOL0     C97588  -0.785   4.023   7.452 -0.0019  0.4761  0.2300
  740MOL0     C97589  -0.913   4.000   7.373  0.5124  1.4128 -0.3666
  740MOL0     C97590  -0.958   3.850   7.385  0.1556  0.2727  0.7491
  740MOL0     C97591  -1.070   3.811   7.277  0.7325  0.3454  0.3665
  740MOL0    Cl97592  -1.223   3.924   7.288  0.7366  0.3906 -0.3087
  740MOL0     C97593   0.049   3.970   7.265 -0.3526 -0.6555  0.9234
  740MOL0     C97594   0.186   3.984   7.316  0.0130  0.2485  1.0080
  740MOL0     O97595   0.451   3.951   7.412  1.0263  0.3086  0.1195
  740MOL0     C97596   0.682   4.071   7.526  1.2187 -0.4263 -0.5225
  740MOL0     C97597   0.789   4.139   7.584  0.5864  0.3525 -0.0861
  740MOL0     N97598   1.140   4.795   7.464 -0.5937  0.4782 -0.0100
  740MOL0     N97599   1.214   4.810   7.370  0.0033 -0.8272 -0.2800
  740MOL0     C97600   2.046   5.205   6.754 -0.2405  0.1661 -0.0346
  740MOL0     C97601   2.058   5.299   6.652 -0.1944 -0.4388 -0.2864
  740MOL0     C97602   2.255   5.643   6.436 -0.7724  0.2335  0.3742
  740MOL0     C97603   2.339   5.756   6.455  0.3070  1.1228 -0.1087
  740MOL0     C97604   2.318   5.876   6.386 -0.9318 -0.6278  0.6611
  740MOL0     C97605   2.224   5.883   6.290 -0.2932  0.8649  0.7432
  740MOL0     O97606   2.223   5.989   6.197 -0.3431  0.6325  0.5412
  740MOL0     C97607   2.350   6.018   6.137 -0.2905 -0.9171  0.1188
  740MOL0     C97608   2.344   6.042   5.982  0.1280 -0.3822 -0.9638
  740MOL0     C97609   2.307   5.910   5.905  0.1250 -0.3704  0.4531
  740MOL0     C97610   2.430   5.811   5.884 -0.5563  0.6022  0.1555
  740MOL0     C97611   2.383   5.684   5.832 -1.0289 -0.2290 -0.6454
  740MOL0     C97612   2.346   5.575   5.798  0.0897  0.4333  0.4667
  740MOL0     C97613   2.133   5.775   6.273 -0.4093 -0.4462  0.1707
  740MOL0     C97614   2.154   5.655   6.343  0.3381 -0.7225 -0.1242
  740MOL0     H97615   2.369   5.243   6.562 -0.8202  1.5406 -1.9544
  740MOL0     H97616   2.363   5.087   6.731  1.5719 -0.2696 -0.6874
  740MOL0     H97617   2.072   4.862   6.988 -0.7558 -0.3852 -0.6062
  740MOL0     H97618   1.971   4.943   6.870  0.7000 -0.5742  0.6947
  740MOL0     H97619   1.983   5.147   7.001  0.5367 -1.2184 -0.9188
  740MOL0     H97620   2.064   5.068   7.136  0.5737  1.4827 -0.4891
  740MOL0     H97621   1.841   4.915   7.122  3.0756 -1.1231  1.3850
  740MOL0     H97622   1.775   5.042   7.026  0.0666  1.3010  0.8321
  740MOL0     H97623   1.888   5.064   7.318 -2.1396 -0.4726  2.0280
  740MOL0     H97624   1.832   5.201   7.224  0.2210 -0.1924 -1.8631
  740MOL0     H97625   1.611   5.087   7.210 -1.5159 -1.3856  0.4544
  740MOL0     H97626   1.673   5.135   7.378  1.9098 -1.5518  1.5841
  740MOL0     H97627   1.753   4.899   7.389 -1.0602  1.6662  1.1286
  740MOL0     H97628   1.663   4.851   7.239  2.1270  1.3172 -1.7446
  740MOL0     H97629   1.555   4.879   7.506 -1.9229 -0.5904  0.4030
  740MOL0     H97630   1.464   4.983   7.390 -0.3013 -0.0933 -1.2846
  740MOL0     H97631   1.519   4.679   7.365  0.0716 -1.6748 -1.8583
  740MOL0     H97632   1.429   4.768   7.238 -0.2584 -3.1186 -0.0182
  740MOL0     H97633   1.409   4.676   7.603 -1.0653 -1.7158  0.7702
  740MOL0     H97634   1.096   4.780   7.758 -0.1632 -1.1387 -1.1009
  740MOL0     H97635   1.211   4.642   7.771  2.5343  1.9334 -0.7203
  740MOL0     H97636   0.959   4.639   7.609  0.2411 -2.0755 -1.4677
  740MOL0     H97637   0.969   4.566   7.773  0.4090  1.6790  1.9541
  740MOL0     H97638   1.161   4.482   7.556  2.9825 -2.3165  1.3363
  740MOL0     H97639   1.141   4.407   7.721 -0.7875 -1.0688 -0.9346
  740MOL0     H97640   1.033   4.266   7.580 -0.2653 -0.2281 -0.3663
  740MOL0     H97641   0.945   4.399   7.498 -1.9336  0.1134  0.8436
  740MOL0     H97642   0.636   4.432   7.646  1.0734  0.1808  0.1589
  740MOL0     H97643   0.448   4.326   7.519 -3.3150 -4.1332  0.2434
  740MOL0     H97644   0.137   4.289   7.458 -0.9147 -0.7933  3.8861
  740MOL0     H97645  -0.100   4.237   7.417  1.2908  2.2505  0.0611
  740MOL0     H97646  -0.282   4.129   7.433  0.6425 -0.7694 -0.1341
  740MOL0     H97647  -0.273   3.958   7.442  3.9964  0.7112  0.8084
  740MOL0     H97648  -0.438   3.928   7.260  1.0135  0.0623  0.6936
  740MOL0     H97649  -0.428   4.101   7.227 -1.0608  0.2493 -0.2587
  740MOL0     H97650  -0.518   4.140   7.458 -2.2834  0.9023 -1.0439
  740MOL0     H97651  -0.507   3.981   7.500 -0.9676  1.1969  0.8912
  740MOL0     H97652  -0.677   4.108   7.289 -1.2978  0.9562  1.2580
  740MOL0     H97653  -0.667   3.925   7.301  0.4481  0.4622 -1.1102
  740MOL0     H97654  -0.787   4.121   7.501  0.1655  0.7324 -0.2770
  740MOL0     H97655  -0.772   3.952   7.534 -1.5495  1.2435  1.2018
  740MOL0     H97656  -0.899   4.026   7.268  2.0664  1.2313 -0.2279
  740MOL0     H97657  -0.987   4.065   7.421  1.3132  1.2530  1.1547
  740MOL0     H97658  -0.867   3.792   7.366  1.6130  2.7049 -0.2352
  740MOL0     H97659  -0.992   3.828   7.486 -2.0536 -1.4987 -0.2992
  740MOL0     H97660  -1.102   3.707   7.293  0.1481  0.6936  1.6110
  740MOL0     H97661  -1.024   3.808   7.178 -0.2599 -0.3414 -0.0844
  740MOL0     H97662   0.032   3.889   7.194  0.6569 -0.6514  0.6545
  740MOL0     H97663   0.259   3.913   7.278  0.9113  1.3159  0.7066
  740MOL0     H97664   0.694   3.969   7.491 -1.0968  0.0215 -2.9662
  740MOL0     H97665   0.884   4.089   7.602  0.3123 -0.6777 -1.3576
  740MOL0     H97666   1.948   5.197   6.799 -0.1807 -2.8061 -0.2316
  740MOL0     H97667   1.971   5.354   6.618  0.0057 -2.7352 -5.5513
  740MOL0     H97668   2.404   5.751   6.542 -2.3513 -1.2314  1.9355
  740MOL0     H97669   2.376   5.964   6.410 -0.8799  0.3349 -2.6021
  740MOL0     H97670   2.422   5.939   6.162  0.6885 -0.1409 -0.1689
  740MOL0     H97671   2.385   6.115   6.174 -0.0719 -0.8995 -0.1293
  740MOL0     H97672   2.274   6.124   5.965  1.2997  1.1575  1.1930
  740MOL0     H97673   2.440   6.080   5.947  0.9387  0.1963  1.6574
  740MOL0     H97674   2.270   5.944   5.807 -0.9022 -2.2415  0.1466
  740MOL0     H97675   2.227   5.858   5.958 -2.3017 -0.6064 -3.0400
  740MOL0     H97676   2.509   5.848   5.818  0.6167 -1.6712  0.2164
  740MOL0     H97677   2.477   5.803   5.983 -1.1395  2.5631  0.6314
  740MOL0     H97678   2.304   5.479   5.773  3.9097 -0.5885 -2.9524
  740MOL0     H97679   2.066   5.786   6.189 -1.1985 -2.1942  0.5167
  740MOL0     H97680   2.091   5.573   6.310 -2.5186 -0.5331  4.1704
  741MOL0     O97681   7.027   8.934   8.487 -0.0363 -0.3296  0.0351
  741MOL0     C97682   6.963   9.039   8.486  0.6192  0.1495 -0.1507
  741MOL0     O97683   6.990   9.143   8.402  0.5340 -0.3738  0.2936
  741MOL0     C97684   7.098   9.137   8.332 -0.2961  0.5112 -0.5094
  741MOL0     C97685   7.213   9.176   8.388  0.9561  0.9435 -0.2635
  741MOL0     C97686   7.342   9.169   8.323  0.4501  0.1332  0.1231
  741MOL0     C97687   7.355   9.093   8.212 -0.0881  1.0574  1.8805
  741MOL0     O97688   7.474   9.047   8.152 -1.0593 -0.6844 -0.5830
  741MOL0     C97689   7.587   9.042   8.236 -0.2960  0.1995  0.2583
  741MOL0     C97690   7.681   8.927   8.199 -0.9029  0.1845 -0.5574
  741MOL0     C97691   7.757   8.950   8.062  0.1573 -0.0381  0.9572
  741MOL0     C97692   7.848   9.072   8.084  0.4631  0.5035 -0.8724
  741MOL0     C97693   7.980   9.071   7.999  1.2344  1.2727  0.6302
  741MOL0     C97694   7.977   9.025   7.852  0.3295  0.5081 -0.0671
  741MOL0     C97695   7.933   9.152   7.765  0.6150 -1.0748 -0.5337
  741MOL0     C97696   7.976   9.141   7.617  0.3531 -0.1612 -0.2914
  741MOL0     N97697   8.098   9.222   7.608  0.8936  0.0493  0.1893
  741MOL0     C97698   8.217   9.174   7.665 -0.0983 -0.4704 -0.4029
  741MOL0     C97699   8.304   9.263   7.623 -0.0307  0.8566  0.1159
  741MOL0     C97700   8.456   9.254   7.643 -0.0202 -0.3042  0.0358
  741MOL0     C97701   8.522   9.126   7.595 -0.3470 -0.3293  0.0214
  741MOL0     C97702   8.522   9.111   7.447  0.1818 -0.0674  0.0667
  741MOL0     C97703   8.611   8.996   7.411  0.0498 -0.7422 -0.4561
  741MOL0     O97704   8.563   8.862   7.396  0.6898 -0.7203 -0.0872
  741MOL0     C97705   8.475   8.821   7.482  0.3304  0.0366 -1.3524
  741MOL0     C97706   8.517   8.774   7.608  0.0122 -0.4410  0.0687
  741MOL0     C97707   8.428   8.743   7.706  0.2454 -0.3110  0.4265
  741MOL0     C97708   8.286   8.741   7.681  0.2285 -0.4404 -0.3679
  741MOL0     C97709   8.195   8.689   7.783 -0.3086 -0.1798 -0.2759
  741MOL0     O97710   8.069   8.656   7.747 -0.4959  0.0944  0.0906
  741MOL0     C97711   7.967   8.634   7.835  0.4453 -1.1871 -0.3330
  741MOL0     C97712   7.837   8.659   7.792 -0.0495  0.4273 -0.2233
  741MOL0     C97713   7.725   8.650   7.877  0.3315 -0.0890 -0.0157
  741MOL0     C97714   7.738   8.591   8.003  0.4878 -0.5696  0.4525
  741MOL0     O97715   7.616   8.592   8.063 -0.1521 -0.8937 -1.0619
  741MOL0     C97716   7.626   8.541   8.206  0.4364  0.1071 -0.1634
  741MOL0     C97717   7.479   8.521   8.250 -1.0756 -0.6346  0.1260
  741MOL0     C97718   7.471   8.411   8.359 -0.1208 -0.0152 -0.4949
  741MOL0     C97719   7.452   8.274   8.295 -0.2100  0.5898  1.2952
  741MOL0     C97720   7.441   8.163   8.401 -0.8691 -0.3013 -0.1392
  741MOL0     C97721   7.357   8.197   8.528  0.4877  0.2975  0.2543
  741MOL0     C97722   7.221   8.246   8.497  1.2422 -0.4345 -0.6413
  741MOL0     C97723   7.133   8.190   8.605  0.0907 -0.4565  0.8437
  741MOL0    Cl97724   6.983   8.287   8.616 -0.1555 -0.1698 -0.0023
  741MOL0     C97725   7.872   8.561   8.049 -0.5549 -0.6387 -0.2096
  741MOL0     C97726   7.986   8.578   7.967 -1.2287 -0.3078 -0.5293
  741MOL0     O97727   8.233   8.688   7.899 -0.1046 -0.2591  0.0566
  741MOL0     C97728   8.239   8.788   7.557  0.1230  0.4136  0.4221
  741MOL0     C97729   8.336   8.826   7.453  0.6148  0.5694  0.3509
  741MOL0     N97730   8.246   9.367   7.544  0.3563 -1.0399 -0.6135
  741MOL0     N97731   8.119   9.340   7.543  0.3488 -0.2075  0.8923
  741MOL0     C97732   7.235   9.061   8.145  0.8855  0.0546  0.0830
  741MOL0     C97733   7.105   9.076   8.209  0.3834  0.5259  0.0071
  741MOL0     C97734   6.845   9.041   8.571 -0.2567  1.0588 -0.2724
  741MOL0     C97735   6.758   9.147   8.562  0.7121 -0.7486  0.7005
  741MOL0     C97736   6.643   9.142   8.639 -0.4632  0.0546 -0.2302
  741MOL0     C97737   6.609   9.042   8.723  0.5193 -0.2826 -0.5232
  741MOL0     O97738   6.489   9.041   8.798  0.2768  0.2627  0.4467
  741MOL0     C97739   6.458   8.945   8.905 -0.2592 -0.3634  0.8580
  741MOL0     C97740   6.362   8.998   9.006 -0.7414  0.1038  0.7752
  741MOL0     C97741   6.346   8.935   9.149  0.0425  0.7698 -0.0052
  741MOL0     C97742   6.264   9.024   9.247 -0.8325 -0.1697  0.4935
  741MOL0     C97743   6.284   8.993   9.389  1.0348  0.3791 -0.3191
  741MOL0     C97744   6.313   8.970   9.508  0.0553 -0.0612 -0.0714
  741MOL0     C97745   6.694   8.931   8.731 -0.9140  0.3486 -0.3150
  741MOL0     C97746   6.814   8.929   8.653 -0.0988 -1.1912 -0.0236
  741MOL0     H97747   7.207   9.217   8.488 -0.0984 -1.6653  0.8353
  741MOL0     H97748   7.426   9.218   8.370  0.2126 -0.1180  0.8273
  741MOL0     H97749   7.554   9.017   8.338  0.1767 -0.6940  0.2024
  741MOL0     H97750   7.636   9.139   8.228 -0.7946  0.3898 -0.6180
  741MOL0     H97751   7.629   8.831   8.190 -0.4542  0.1424 -3.7390
  741MOL0     H97752   7.755   8.914   8.279 -1.5728 -0.7964 -0.0742
  741MOL0     H97753   7.677   8.963   7.988  0.8114 -0.8010  0.1065
  741MOL0     H97754   7.813   8.860   8.037  1.5393  1.0013  0.1823
  741MOL0     H97755   7.789   9.162   8.065  1.2819  1.2883  0.1781
  741MOL0     H97756   7.891   9.079   8.184  0.4161 -2.5830 -0.5487
  741MOL0     H97757   8.054   9.004   8.045  1.0141 -0.4901 -1.4118
  741MOL0     H97758   8.023   9.171   8.011  3.9164  0.3183 -0.1691
  741MOL0     H97759   7.903   8.946   7.842 -1.6085  2.2389 -0.1685
  741MOL0     H97760   8.077   8.984   7.835 -0.6388 -1.7782 -0.5961
  741MOL0     H97761   7.823   9.147   7.763  0.6451 -1.7353 -2.5335
  741MOL0     H97762   7.963   9.247   7.809 -0.8647 -1.2403  0.9260
  741MOL0     H97763   7.900   9.189   7.555 -1.7889  1.8777  3.5140
  741MOL0     H97764   7.993   9.036   7.588 -3.3715 -1.1182  0.4980
  741MOL0     H97765   8.247   9.086   7.720 -1.2896  0.4340  1.7965
  741MOL0     H97766   8.480   9.266   7.749 -0.9000  0.0866  0.1934
  741MOL0     H97767   8.506   9.332   7.585 -2.2236 -0.1795 -1.8241
  741MOL0     H97768   8.476   9.037   7.639  1.5997 -0.8451  1.1296
  741MOL0     H97769   8.627   9.131   7.627 -0.4893  2.0192  0.3207
  741MOL0     H97770   8.420   9.080   7.420  0.6835 -0.7992 -1.0709
  741MOL0     H97771   8.543   9.209   7.403 -2.0306  0.9226  1.0467
  741MOL0     H97772   8.687   8.976   7.488 -1.4745 -1.1424  0.9921
  741MOL0     H97773   8.667   9.028   7.322 -1.1917  0.7436 -0.7530
  741MOL0     H97774   8.624   8.764   7.617 -0.1086 -2.7680 -0.4703
  741MOL0     H97775   8.474   8.716   7.800 -0.0576  0.4889  0.8182
  741MOL0     H97776   7.829   8.694   7.690 -0.1452  4.1544  0.8941
  741MOL0     H97777   7.629   8.684   7.841 -0.4020 -0.8790  1.1617
  741MOL0     H97778   7.677   8.613   8.271  1.1203 -0.1720 -0.3801
  741MOL0     H97779   7.683   8.447   8.212 -1.7373 -1.5143 -2.6621
  741MOL0     H97780   7.419   8.490   8.164  0.2419 -0.6312 -0.8356
  741MOL0     H97781   7.440   8.618   8.282 -0.0545  0.0168 -0.5145
  741MOL0     H97782   7.388   8.418   8.429  3.5882  0.9138  4.3548
  741MOL0     H97783   7.564   8.404   8.417 -0.7017  2.1319  0.8379
  741MOL0     H97784   7.357   8.281   8.242 -1.2113 -0.9817  2.7659
  741MOL0     H97785   7.527   8.263   8.217 -0.6851 -1.1970  1.0452
  741MOL0     H97786   7.542   8.132   8.432  1.4251  2.7969 -3.6243
  741MOL0     H97787   7.387   8.084   8.347 -2.1065  0.1315  0.4356
  741MOL0     H97788   7.404   8.262   8.603 -2.0306 -0.6949  2.8990
  741MOL0     H97789   7.353   8.106   8.588 -0.1774 -0.4855 -0.9410
  741MOL0     H97790   7.206   8.352   8.518  3.0955  0.2404 -2.3454
  741MOL0     H97791   7.173   8.217   8.403 -0.2455 -1.2223  0.3247
  741MOL0     H97792   7.185   8.207   8.700  1.1001 -1.8212  0.5674
  741MOL0     H97793   7.120   8.087   8.573 -3.8950 -0.0233  0.5784
  741MOL0     H97794   7.880   8.523   8.151 -3.7271 -2.7691 -0.6033
  741MOL0     H97795   8.076   8.547   8.019 -2.7561 -0.5987  2.1581
  741MOL0     H97796   8.131   8.783   7.545  0.1084  0.4927  0.5249
  741MOL0     H97797   8.295   8.866   7.361 -1.8584  0.8327  1.4639
  741MOL0     H97798   7.247   9.008   8.051  2.4161 -1.8347  1.2670
  741MOL0     H97799   7.025   9.045   8.143 -0.5973  0.6666  1.0890
  741MOL0     H97800   6.760   9.238   8.503 -0.8638  1.5821  3.9290
  741MOL0     H97801   6.573   9.222   8.614  1.7138  2.8189  1.8595
  741MOL0     H97802   6.552   8.922   8.955  0.2612  0.0452  0.0875
  741MOL0     H97803   6.425   8.846   8.873  1.5970 -1.5186  2.3081
  741MOL0     H97804   6.403   9.097   9.025 -1.7772  0.5962  0.4957
  741MOL0     H97805   6.263   8.991   8.961  0.7249 -1.7794 -2.5721
  741MOL0     H97806   6.443   8.905   9.189 -0.4389 -0.1437  0.5019
  741MOL0     H97807   6.298   8.837   9.150  1.3123 -0.0342 -3.4984
  741MOL0     H97808   6.288   9.131   9.239  3.3571 -1.0765 -2.4767
  741MOL0     H97809   6.158   9.010   9.229 -0.4730 -3.0994  0.2289
  741MOL0     H97810   6.363   8.949   9.600  1.7133 -1.5189 -1.2325
  741MOL0     H97811   6.669   8.844   8.790 -2.1187  0.4756 -0.6158
  741MOL0     H97812   6.882   8.850   8.682 -2.4251 -3.0709  0.7053
  742MOL0     O97813  10.229  11.311   0.443 -0.0030  0.1468  0.4398
  742MOL0     C97814  10.290  11.204   0.412 -0.6939  0.0450 -0.0488
  742MOL0     O97815  10.235  11.088   0.374  0.6794  0.3381  0.1902
  742MOL0     C97816  10.096  11.101   0.380  0.4056  0.6964 -0.4179
  742MOL0     C97817  10.026  11.052   0.501 -1.7447  0.0731 -0.3605
  742MOL0     C97818   9.887  11.058   0.503 -0.2038 -0.3011  0.5281
  742MOL0     C97819   9.810  11.103   0.398 -0.6071 -0.3354  0.2929
  742MOL0     O97820   9.681  11.116   0.426 -0.3013 -1.2597  0.8468
  742MOL0     C97821   9.602  11.056   0.334 -0.4344  0.3197  0.8292
  742MOL0     C97822   9.475  11.004   0.406  0.1972  0.6453 -0.2528
  742MOL0     C97823   9.533  10.914   0.524  0.7075 -0.4813 -0.2261
  742MOL0     C97824   9.420  10.841   0.609 -0.6343  1.2482 -0.2449
  742MOL0     C97825   9.471  10.765   0.738 -0.0185  0.7660  0.7148
  742MOL0     C97826   9.350  10.706   0.813 -0.9176  0.3884  1.0954
  742MOL0     C97827   9.405  10.644   0.946 -0.6741  0.1881  0.1868
  742MOL0     C97828   9.286  10.613   1.041 -0.5831 -0.9771  0.5101
  742MOL0     N97829   9.326  10.539   1.162  0.3253  1.1622  0.6160
  742MOL0     C97830   9.424  10.433   1.162  0.7635 -0.5708 -0.2837
  742MOL0     C97831   9.451  10.420   1.297 -0.1408  0.5839 -1.0935
  742MOL0     C97832   9.539  10.309   1.361  0.3192 -0.5328  0.1923
  742MOL0     C97833   9.663  10.370   1.421 -0.4725  0.5123  0.5251
  742MOL0     C97834   9.789  10.336   1.334  1.0074 -0.2894  0.0782
  742MOL0     C97835   9.805  10.406   1.204  0.1160  0.3796  0.3226
  742MOL0     O97836   9.910  10.344   1.132 -0.4703 -0.6798  0.0108
  742MOL0     C97837   9.884  10.258   1.026  0.1532 -0.0542  0.2365
  742MOL0     C97838   9.992  10.244   0.932  0.1355 -0.4445 -0.3404
  742MOL0     C97839   9.979  10.176   0.816 -0.0286  0.0993  0.5322
  742MOL0     C97840   9.861  10.106   0.785  0.4116  0.3083  0.4540
  742MOL0     C97841   9.835  10.030   0.667 -0.1342 -0.3763 -0.0520
  742MOL0     O97842   9.739   9.928   0.674 -0.1033 -0.0145 -0.3001
  742MOL0     C97843   9.681   9.878   0.556 -0.4119 -0.2842 -0.0569
  742MOL0     C97844   9.747   9.848   0.430  0.8468 -0.0511  0.3676
  742MOL0     C97845   9.679   9.773   0.336  0.1689 -0.2019  0.4366
  742MOL0     C97846   9.548   9.729   0.358  0.1105  0.1302 -0.2948
  742MOL0     O97847   9.490   9.636   0.278 -0.1691  0.1664  0.3726
  742MOL0     C97848   9.471   9.508   0.325 -0.2518 -1.1313  0.6726
  742MOL0     C97849   9.453   9.415   0.202 -0.0166  0.5449 -1.0484
  742MOL0     C97850   9.333   9.326   0.213 -0.4881 -1.1330 -0.0092
  742MOL0     C97851   9.312   9.260   0.077 -0.7198 -0.4778  1.5943
  742MOL0     C97852   9.182   9.178   0.070 -0.0754  0.7359 -0.5790
  742MOL0     C97853   9.066   9.271   0.103  0.3440  0.8616 -0.3736
  742MOL0     C97854   8.933   9.199   0.073  0.7894  0.7340  0.2403
  742MOL0     C97855   8.864   9.232  -0.065 -1.3353  0.2569 -0.3076
  742MOL0    Cl97856   8.973   9.188  -0.194 -0.1655 -0.1678 -0.5094
  742MOL0     C97857   9.474   9.775   0.471 -0.4877  0.3369 -0.7401
  742MOL0     C97858   9.544   9.842   0.569 -1.0760 -0.6750  0.0512
  742MOL0     O97859   9.899  10.069   0.574  0.4404 -0.0588  0.5043
  742MOL0     C97860   9.755  10.102   0.887 -1.1754  0.1276  0.3633
  742MOL0     C97861   9.773  10.178   1.003  0.4462  0.7523  0.1626
  742MOL0     N97862   9.366  10.499   1.368  0.1441  0.3222 -0.3537
  742MOL0     N97863   9.295  10.574   1.290  0.5825  0.9522  0.1150
  742MOL0     C97864   9.881  11.155   0.297 -0.4678 -0.0658 -0.4857
  742MOL0     C97865  10.015  11.156   0.282 -0.3957  1.0703  0.1970
  742MOL0     C97866  10.446  11.200   0.430  0.5661  0.1899 -0.4695
  742MOL0     C97867  10.501  11.310   0.497 -0.3643  0.3019  0.5921
  742MOL0     C97868  10.643  11.313   0.506  0.4760  0.2296 -1.2732
  742MOL0     C97869  10.717  11.220   0.440  0.9960 -0.3705 -0.4500
  742MOL0     O97870  10.852  11.241   0.444 -0.0523 -0.3073  0.1359
  742MOL0     C97871  10.938  11.162   0.352 -0.4681  0.8615  1.1491
  742MOL0     C97872  11.057  11.258   0.352 -0.6103  0.5173 -0.1389
  742MOL0     C97873  11.168  11.215   0.244  0.0589  0.7408 -0.1194
  742MOL0     C97874  11.289  11.296   0.269 -0.2904  0.3937  0.1448
  742MOL0     C97875  11.353  11.270   0.399 -1.3786  0.7105  0.5752
  742MOL0     C97876  11.408  11.240   0.504 -0.1613  0.7091  0.7298
  742MOL0     C97877  10.663  11.116   0.373  0.4685  0.1622 -0.0040
  742MOL0     C97878  10.526  11.101   0.374 -1.0919 -1.0215 -0.2651
  742MOL0     H97879  10.089  11.010   0.579 -2.1463 -2.1590 -1.1960
  742MOL0     H97880   9.838  11.039   0.598  0.3654  3.9914  1.8732
  742MOL0     H97881   9.649  10.969   0.290  0.3390  0.6583  0.9727
  742MOL0     H97882   9.583  11.121   0.248  0.3543 -1.9318 -1.1189
  742MOL0     H97883   9.417  10.948   0.332  0.3430  1.4443 -0.9876
  742MOL0     H97884   9.416  11.075   0.465  0.6643  0.9222 -0.1085
  742MOL0     H97885   9.581  10.985   0.591  1.0710  0.9487 -1.9461
  742MOL0     H97886   9.609  10.845   0.488  1.0698  0.0101 -0.4000
  742MOL0     H97887   9.347  10.916   0.641  1.8114  5.6244 -3.6734
  742MOL0     H97888   9.378  10.773   0.534 -2.4413  1.2306  0.7244
  742MOL0     H97889   9.518  10.845   0.798 -0.9738  2.9558 -1.2812
  742MOL0     H97890   9.551  10.695   0.714 -0.0620  1.4078 -1.5732
  742MOL0     H97891   9.309  10.620   0.759  0.6910 -1.3480  2.5174
  742MOL0     H97892   9.272  10.781   0.832 -3.6085 -2.0863  0.5149
  742MOL0     H97893   9.446  10.543   0.936 -1.7483 -0.7558  3.8211
  742MOL0     H97894   9.474  10.710   0.998 -1.0750  1.2121 -0.5579
  742MOL0     H97895   9.206  10.562   0.986  1.3881 -2.1941 -1.3845
  742MOL0     H97896   9.249  10.713   1.065  2.2703  0.0958  0.7597
  742MOL0     H97897   9.474  10.390   1.076  0.7375 -0.7088 -0.2316
  742MOL0     H97898   9.565  10.237   1.283  0.6760  4.3283 -4.7717
  742MOL0     H97899   9.484  10.259   1.441 -0.6099 -0.7876 -0.5833
  742MOL0     H97900   9.682  10.328   1.520 -2.1993  1.6399  1.3870
  742MOL0     H97901   9.646  10.476   1.440 -2.9307 -0.1016  2.2075
  742MOL0     H97902   9.882  10.341   1.392  1.0856 -1.3419  0.0655
  742MOL0     H97903   9.782  10.230   1.307 -0.1464 -0.6087  1.5074
  742MOL0     H97904   9.839  10.508   1.223 -0.4897  0.4448  1.1015
  742MOL0     H97905   9.709  10.402   1.152  0.3175  2.1657 -0.2381
  742MOL0     H97906  10.085  10.296   0.956  0.1719  0.2254 -1.8212
  742MOL0     H97907  10.065  10.161   0.751  0.5112 -1.6231  1.5638
  742MOL0     H97908   9.841   9.880   0.387  1.5173 -2.8033 -0.4034
  742MOL0     H97909   9.715   9.731   0.243 -2.1344 -1.5138  0.0749
  742MOL0     H97910   9.382   9.518   0.388  0.3293  4.9920  1.0952
  742MOL0     H97911   9.561   9.485   0.383  0.6068 -0.2456 -0.2631
  742MOL0     H97912   9.539   9.356   0.169 -0.9721  1.3798 -5.7347
  742MOL0     H97913   9.434   9.481   0.117  1.6560  2.9716  0.3693
  742MOL0     H97914   9.246   9.380   0.251  0.8910  1.1751  0.0818
  742MOL0     H97915   9.362   9.247   0.284  0.2925  0.9091  2.0838
  742MOL0     H97916   9.304   9.333  -0.004 -0.3635  1.0240  2.8649
  742MOL0     H97917   9.388   9.186   0.051  0.7358  1.4985 -0.0358
  742MOL0     H97918   9.181   9.096   0.142  2.0072  1.3953  0.2976
  742MOL0     H97919   9.167   9.121  -0.022  1.1700 -0.8793  0.1535
  742MOL0     H97920   9.071   9.365   0.047  0.7972  1.7459  1.1042
  742MOL0     H97921   9.061   9.290   0.210 -1.2371 -0.1340 -0.2346
  742MOL0     H97922   8.947   9.091   0.081  0.5578  0.6494 -0.4143
  742MOL0     H97923   8.858   9.231   0.146 -0.1035  0.5226 -0.5579
  742MOL0     H97924   8.833   9.337  -0.067 -1.0143  0.3405 -0.8663
  742MOL0     H97925   8.777   9.169  -0.086 -1.4585  0.0150  0.8290
  742MOL0     H97926   9.377   9.727   0.482 -0.7724  0.7799 -1.3236
  742MOL0     H97927   9.499   9.869   0.664 -0.9963 -3.4715  0.9876
  742MOL0     H97928   9.663  10.044   0.886  0.3952 -2.5398  0.2721
  742MOL0     H97929   9.690  10.172   1.073  0.4529  2.2476  0.3426
  742MOL0     H97930   9.828  11.195   0.211  2.3545 -0.6927 -2.6504
  742MOL0     H97931  10.056  11.207   0.195 -0.7028 -0.3355 -0.8143
  742MOL0     H97932  10.443  11.391   0.540 -5.6801 -2.4930 -0.3379
  742MOL0     H97933  10.686  11.395   0.562 -0.0041 -1.3543  1.6147
  742MOL0     H97934  10.895  11.157   0.251 -0.2852 -0.9369  1.1212
  742MOL0     H97935  10.968  11.064   0.392  0.7711  0.5724 -0.3650
  742MOL0     H97936  11.020  11.360   0.346 -0.6985  0.5581  0.8726
  742MOL0     H97937  11.093  11.258   0.455 -2.2898  5.6845  0.7225
  742MOL0     H97938  11.114  11.223   0.149 -3.5763 -1.0864  1.5842
  742MOL0     H97939  11.199  11.112   0.266 -1.5900  0.5735  1.7776
  742MOL0     H97940  11.357  11.277   0.185 -0.9177 -1.0588 -0.0646
  742MOL0     H97941  11.253  11.399   0.271  0.9583  0.8394  2.0192
  742MOL0     H97942  11.448  11.214   0.601  2.6596  1.1120 -0.2191
  742MOL0     H97943  10.712  11.038   0.316  2.5992  1.4937 -0.1123
  742MOL0     H97944  10.491  11.015   0.317 -4.7734  0.2278 -0.1808
  743MOL0     O97945   7.717   0.560  10.581 -0.2062  0.0573 -0.6676
  743MOL0     C97946   7.612   0.625  10.569 -0.6019  0.2031 -0.7048
  743MOL0     O97947   7.604   0.757  10.523  0.0658 -0.2552 -0.0428
  743MOL0     C97948   7.702   0.824  10.456 -0.1709  0.7271 -0.3504
  743MOL0     C97949   7.696   0.960  10.452 -0.8245 -0.2589  0.5067
  743MOL0     C97950   7.792   1.040  10.389 -0.6801  0.0570 -0.5461
  743MOL0     C97951   7.902   0.976  10.327 -0.7344  0.0522 -0.4890
  743MOL0     O97952   7.984   1.066  10.260  0.1901 -0.1814 -0.2764
  743MOL0     C97953   8.112   1.024  10.239 -0.0817 -0.8925  0.6850
  743MOL0     C97954   8.201   1.023  10.371 -0.1399  0.4868  0.4832
  743MOL0     C97955   8.355   1.008  10.351 -0.9936 -0.0599  0.8332
  743MOL0     C97956   8.410   0.976  10.493 -0.6819  1.0529 -0.1234
  743MOL0     C97957   8.553   0.989  10.513 -0.0877 -0.0320  0.4658
  743MOL0     C97958   8.636   0.886  10.430 -0.2724  0.0452 -0.4254
  743MOL0     C97959   8.777   0.900  10.466  0.0934  0.5235 -0.7676
  743MOL0     C97960   8.853   0.786  10.404 -0.5361  0.6668 -0.0566
  743MOL0     N97961   9.004   0.797  10.407  0.4931 -0.0819 -0.3178
  743MOL0     C97962   9.081   0.830  10.300 -0.7825  0.0495 -0.1529
  743MOL0     C97963   9.215   0.828  10.355  1.1681 -0.8411 -0.0635
  743MOL0     C97964   9.352   0.833  10.288  0.0945 -0.1736 -0.0538
  743MOL0     C97965   9.464   0.893  10.376 -0.6123  0.4911 -0.0543
  743MOL0     C97966   9.586   0.937  10.305 -0.6897 -0.2286  0.1117
  743MOL0     C97967   9.705   0.934  10.415  0.7824  0.6470 -0.6243
  743MOL0     O97968   9.734   0.796  10.454  0.7428 -0.3988  0.1247
  743MOL0     C97969   9.825   0.732  10.382 -0.7969 -0.0228  0.2570
  743MOL0     C97970   9.962   0.757  10.403 -0.3509  0.1020  0.2931
  743MOL0     C97971  10.057   0.675  10.346 -0.3167  0.8555  0.4194
  743MOL0     C97972  10.024   0.569  10.258  1.1376 -0.3974 -0.6677
  743MOL0     C97973  10.129   0.498  10.188 -0.1350  0.6775  0.4439
  743MOL0     O97974  10.243   0.479  10.254 -0.4101  0.5688  0.2927
  743MOL0     C97975  10.322   0.388  10.187  0.5320  0.8076  0.0851
  743MOL0     C97976  10.299   0.246  10.208 -0.2634  0.4328  0.2874
  743MOL0     C97977  10.376   0.155  10.158 -0.1187  0.3672 -0.3506
  743MOL0     C97978  10.490   0.180  10.087 -0.0648 -0.3399  0.5766
  743MOL0     O97979  10.571   0.079  10.043 -0.2901 -0.2120 -0.4402
  743MOL0     C97980  10.576  -0.059  10.087  0.7993  0.3082  0.1735
  743MOL0     C97981  10.696  -0.126  10.023  0.1782  0.3001  0.2423
  743MOL0     C97982  10.746  -0.243  10.109 -0.3125  0.4993 -0.3508
  743MOL0     C97983  10.863  -0.315  10.036 -0.3919  0.0553 -1.1318
  743MOL0     C97984  10.901  -0.438  10.118  0.8170 -0.2125  0.4170
  743MOL0     C97985  10.978  -0.404  10.248  0.0493  0.0512 -0.2893
  743MOL0     C97986  11.040  -0.527  10.305 -1.3062  0.6739 -1.0140
  743MOL0     C97987  10.946  -0.646  10.341 -0.7318  0.5203 -0.5106
  743MOL0    Cl97988  10.831  -0.586  10.456  0.1159 -0.1491 -0.1343
  743MOL0     C97989  10.523   0.315  10.079  0.5229  0.5602  0.4842
  743MOL0     C97990  10.441   0.418  10.120 -0.7324 -0.9853 -0.1394
  743MOL0     O97991  10.089   0.430  10.090  0.3686 -0.7944  0.4145
  743MOL0     C97992   9.890   0.543  10.233  0.6693 -0.1109  0.1480
  743MOL0     C97993   9.787   0.630  10.294 -1.0161 -0.6466 -0.0321
  743MOL0     N97994   9.192   0.817  10.496  0.2662 -0.7042  0.2541
  743MOL0     N97995   9.067   0.806  10.525 -0.9720  0.4172  0.9688
  743MOL0     C97996   7.905   0.834  10.328 -0.2275  0.6803  0.3881
  743MOL0     C97997   7.810   0.761  10.395  0.9050  0.0863 -0.3742
  743MOL0     C97998   7.487   0.565  10.617 -0.1030  0.8639  1.2259
  743MOL0     C97999   7.408   0.656  10.678  0.1436  0.5788 -0.3021
  743MOL0     C98000   7.291   0.612  10.741 -0.1926  0.1352 -0.4603
  743MOL0     C98001   7.258   0.474  10.744 -0.4284 -0.2177 -0.7104
  743MOL0     O98002   7.150   0.436  10.819 -0.2002  0.3144 -0.2573
  743MOL0     C98003   7.165   0.313  10.891  0.4826 -0.5937  0.4486
  743MOL0     C98004   7.054   0.296  10.992  0.1694  2.0683 -0.0349
  743MOL0     C98005   6.914   0.334  10.950  0.4381 -0.8466  0.2114
  743MOL0     C98006   6.875   0.260  10.817 -1.0929  0.2102  0.8531
  743MOL0     C98007   6.731   0.260  10.782  0.1146 -0.5438  0.0443
  743MOL0     C98008   6.609   0.263  10.749 -0.2190 -0.0141 -0.7755
  743MOL0     C98009   7.331   0.384  10.662  0.3394 -1.0557 -1.1657
  743MOL0     C98010   7.438   0.439  10.595 -0.8369  0.2173  0.2606
  743MOL0     H98011   7.613   1.008  10.502 -0.4238 -0.2687  1.1968
  743MOL0     H98012   7.789   1.148  10.397  0.3877  0.0433  0.1666
  743MOL0     H98013   8.152   1.107  10.180 -2.5205 -1.9032 -2.6562
  743MOL0     H98014   8.118   0.931  10.181 -0.2432 -0.8731  0.6390
  743MOL0     H98015   8.163   0.942  10.434  3.9398 -1.2427  1.0147
  743MOL0     H98016   8.184   1.113  10.431 -3.1062 -1.6694  3.2121
  743MOL0     H98017   8.405   1.095  10.306 -0.5169 -0.7299  0.0463
  743MOL0     H98018   8.385   0.927  10.284 -3.4422 -0.9279  0.6773
  743MOL0     H98019   8.359   1.039  10.566  1.6792  4.6250 -1.2385
  743MOL0     H98020   8.378   0.877  10.524  2.5166 -0.1452 -0.2816
  743MOL0     H98021   8.565   0.985  10.622  1.3411 -0.2289  0.3154
  743MOL0     H98022   8.583   1.084  10.467 -1.7905  0.3458  0.0565
  743MOL0     H98023   8.629   0.898  10.321  1.3269 -0.3873 -0.6030
  743MOL0     H98024   8.601   0.784  10.449  0.2249  0.3882  2.9230
  743MOL0     H98025   8.811   0.993  10.419 -1.1833  1.3310 -0.1574
  743MOL0     H98026   8.786   0.901  10.575 -1.6938  0.5096 -0.5922
  743MOL0     H98027   8.831   0.770  10.298  0.9541 -1.1238 -0.1510
  743MOL0     H98028   8.826   0.704  10.471 -0.7957 -0.7439 -1.8052
  743MOL0     H98029   9.068   0.825  10.192 -1.8191  1.4092 -0.1241
  743MOL0     H98030   9.344   0.875  10.188  3.6269 -2.4737 -1.5154
  743MOL0     H98031   9.386   0.731  10.270 -1.2176 -0.9598  1.6376
  743MOL0     H98032   9.481   0.817  10.454  1.9832  2.5392  1.5365
  743MOL0     H98033   9.424   0.982  10.425  1.0769  2.0905 -1.4243
  743MOL0     H98034   9.603   0.869  10.221 -2.3896 -2.8325  1.7352
  743MOL0     H98035   9.577   1.042  10.274  0.7734  0.0463  0.5313
  743MOL0     H98036   9.666   0.991  10.500 -1.6834  0.0410 -1.2753
  743MOL0     H98037   9.800   0.983  10.393  0.1847  3.1779  1.8889
  743MOL0     H98038   9.992   0.837  10.470 -2.9684 -0.2770  2.0979
  743MOL0     H98039  10.164   0.692  10.356 -0.1188 -0.4129  0.7495
  743MOL0     H98040  10.211   0.217  10.266  0.1070  2.5858  2.0794
  743MOL0     H98041  10.353   0.050  10.174  3.2682 -0.2812  1.3159
  743MOL0     H98042  10.487  -0.120  10.072 -2.1237  3.0599  4.1040
  743MOL0     H98043  10.583  -0.057  10.196 -1.5526 -1.2865  0.4230
  743MOL0     H98044  10.779  -0.060   9.997 -2.5339  3.2360 -1.8030
  743MOL0     H98045  10.659  -0.164   9.927 -0.3329  2.8817 -0.6468
  743MOL0     H98046  10.663  -0.313  10.123 -0.6735  1.0043  0.0792
  743MOL0     H98047  10.782  -0.207  10.206 -2.4740  0.2425  0.5911
  743MOL0     H98048  10.818  -0.352   9.943 -0.7000  1.0170 -1.3764
  743MOL0     H98049  10.949  -0.252  10.012 -0.6803 -0.4796 -3.9614
  743MOL0     H98050  10.975  -0.489  10.055  0.9654  2.1681 -1.4979
  743MOL0     H98051  10.808  -0.492  10.140  2.4560 -2.5899  1.9330
  743MOL0     H98052  10.903  -0.368  10.319 -0.7836 -2.7683  0.3777
  743MOL0     H98053  11.056  -0.328  10.242 -0.8378  1.6203  4.3384
  743MOL0     H98054  11.108  -0.571  10.232  0.1583  0.7557  0.2433
  743MOL0     H98055  11.101  -0.496  10.390 -1.3773  0.0354 -0.7251
  743MOL0     H98056  11.002  -0.721  10.396  0.5658  1.5814 -0.3268
  743MOL0     H98057  10.897  -0.688  10.253 -4.6248  2.3862  0.5159
  743MOL0     H98058  10.614   0.332  10.022 -0.1627  0.7738 -0.5870
  743MOL0     H98059  10.468   0.521  10.102 -1.4317 -0.8378 -0.3650
  743MOL0     H98060   9.838   0.462  10.184 -1.2422  1.0367  0.1538
  743MOL0     H98061   9.686   0.590  10.294 -2.3613  2.4411  1.6617
  743MOL0     H98062   7.986   0.784  10.276  1.7450 -0.2339  3.9966
  743MOL0     H98063   7.810   0.653  10.404  1.2765  0.0323 -0.9715
  743MOL0     H98064   7.430   0.761  10.692 -2.1183  0.8190  2.2486
  743MOL0     H98065   7.221   0.674  10.797 -0.3993 -0.4301 -0.0867
  743MOL0     H98066   7.264   0.325  10.935  1.4003  1.2252 -1.8900
  743MOL0     H98067   7.183   0.225  10.827  2.3664 -0.5605  0.8655
  743MOL0     H98068   7.049   0.198  11.040 -3.0819  0.7354 -2.6518
  743MOL0     H98069   7.071   0.368  11.072  0.8892  0.7491  1.0402
  743MOL0     H98070   6.906   0.437  10.915 -2.9706 -1.3934 -0.9978
  743MOL0     H98071   6.838   0.311  11.026 -0.0817 -1.8845 -0.5945
  743MOL0     H98072   6.922   0.289  10.723 -1.8427  0.6956  0.6123
  743MOL0     H98073   6.921   0.162  10.833 -1.8153  0.2574  3.7374
  743MOL0     H98074   6.505   0.276  10.726 -0.2149 -2.0294 -2.2843
  743MOL0     H98075   7.299   0.282  10.645  2.6131 -2.2820  1.3289
  743MOL0     H98076   7.506   0.378  10.535 -0.6018  0.7787 -0.0504
  744MOL0     O98077   0.654   8.492   0.697 -0.3545 -0.0635  0.4477
  744MOL0     C98078   0.697   8.406   0.774  0.5652  0.5190  0.0691
  744MOL0     O98079   0.617   8.347   0.880  0.1430  0.6696 -0.9215
  744MOL0     C98080   0.505   8.409   0.956 -0.9678  0.4157  0.8024
  744MOL0     C98081   0.435   8.526   0.924  0.0236 -0.2502 -0.1649
  744MOL0     C98082   0.320   8.565   1.008 -1.4551  0.1245  0.2529
  744MOL0     C98083   0.278   8.483   1.109 -0.5306  0.2013 -0.0249
  744MOL0     O98084   0.165   8.500   1.191  0.0914  0.3044 -0.4953
  744MOL0     C98085   0.094   8.634   1.197 -0.1397 -0.2718  0.7617
  744MOL0     C98086   0.164   8.730   1.297 -0.5959  0.7342 -0.2172
  744MOL0     C98087   0.147   8.694   1.448  0.5920 -0.1276  0.3419
  744MOL0     C98088   0.249   8.745   1.541 -0.0751  0.1899 -0.0876
  744MOL0     C98089   0.188   8.763   1.685  0.1369  0.4709  0.1266
  744MOL0     C98090   0.164   8.630   1.760  0.2801  0.3574  0.1204
  744MOL0     C98091   0.091   8.644   1.887  1.4824 -0.3760 -0.1584
  744MOL0     C98092   0.101   8.517   1.971 -0.7522  0.5145  0.0526
  744MOL0     N98093   0.058   8.393   1.898  0.6680 -0.8257 -0.0591
  744MOL0     C98094  -0.055   8.374   1.817 -0.4893 -0.0276  0.3259
  744MOL0     C98095  -0.047   8.246   1.772  0.2117 -0.4822  0.0273
  744MOL0     C98096  -0.136   8.192   1.658  0.1488 -0.4510  0.0768
  744MOL0     C98097  -0.127   8.046   1.613 -0.1852 -0.3408 -0.4589
  744MOL0     C98098   0.013   8.021   1.553 -0.2271 -0.2749 -0.3472
  744MOL0     C98099   0.059   7.867   1.554  0.8237  0.4897  0.2315
  744MOL0     O98100   0.126   7.844   1.435  0.5475  1.1087  1.1933
  744MOL0     C98101   0.247   7.901   1.423 -0.9679 -0.5825  1.4044
  744MOL0     C98102   0.303   7.865   1.296 -0.2019  0.1154  0.0398
  744MOL0     C98103   0.435   7.899   1.275 -0.6232  0.8804  0.1616
  744MOL0     C98104   0.502   7.988   1.364  0.4962  0.3307 -0.0831
  744MOL0     C98105   0.634   8.048   1.328  0.8611 -1.0802  0.2138
  744MOL0     O98106   0.703   8.126   1.420 -0.0600 -0.2182  0.7723
  744MOL0     C98107   0.805   8.211   1.373 -0.4080  0.4115  0.4797
  744MOL0     C98108   0.896   8.242   1.472 -1.0299  0.8591  0.1413
  744MOL0     C98109   1.007   8.331   1.450  1.1367 -0.2235  0.4776
  744MOL0     C98110   1.020   8.395   1.329 -0.6139 -0.6400  0.3543
  744MOL0     O98111   1.119   8.486   1.304  0.1469  0.5229  0.6440
  744MOL0     C98112   1.060   8.620   1.284 -0.7434 -0.5404  0.2644
  744MOL0     C98113   1.176   8.713   1.243  0.4891 -0.2019  0.0828
  744MOL0     C98114   1.128   8.851   1.196  0.2792 -0.1490  0.6418
  744MOL0     C98115   1.098   8.866   1.049 -0.8159  0.2329 -0.1074
  744MOL0     C98116   1.210   8.862   0.948 -0.3290  0.0010 -0.6274
  744MOL0     C98117   1.166   8.880   0.802  0.4444  0.0001 -0.9182
  744MOL0     C98118   1.089   8.758   0.744  0.6474  0.2497  0.1821
  744MOL0     C98119   0.991   8.769   0.625 -0.0083 -0.2992 -0.1689
  744MOL0    Cl98120   0.829   8.829   0.679 -0.3177  0.4166 -0.2674
  744MOL0     C98121   0.923   8.371   1.227 -0.2706 -0.6765  0.6313
  744MOL0     C98122   0.817   8.284   1.254 -0.4862 -0.0452 -0.5367
  744MOL0     O98123   0.680   8.023   1.220  0.1922  0.8140  0.2054
  744MOL0     C98124   0.443   8.028   1.485 -0.6135  0.1839 -0.6843
  744MOL0     C98125   0.315   7.982   1.517  0.0715 -0.7139  0.3366
  744MOL0     N98126   0.070   8.187   1.836  1.0297 -0.0713 -0.3776
  744MOL0     N98127   0.132   8.276   1.910  0.1760  0.6414 -0.6295
  744MOL0     C98128   0.355   8.363   1.139  0.6069 -0.5548  0.4142
  744MOL0     C98129   0.466   8.327   1.063  0.6275 -1.1784 -0.5117
  744MOL0     C98130   0.834   8.359   0.763 -0.6538  0.5437 -0.1859
  744MOL0     C98131   0.912   8.385   0.645 -0.4049 -0.4213 -0.3594
  744MOL0     C98132   1.051   8.364   0.653 -0.4087 -0.6844  0.1575
  744MOL0     C98133   1.115   8.316   0.768  0.7330 -0.4488  0.1507
  744MOL0     O98134   1.247   8.335   0.782 -0.0834 -0.0668 -0.3416
  744MOL0     C98135   1.315   8.257   0.885  1.0451 -0.5374 -0.2839
  744MOL0     C98136   1.358   8.345   1.000 -0.3480 -0.4787 -1.0896
  744MOL0     C98137   1.424   8.475   0.955  0.6536  0.3176 -0.0756
  744MOL0     C98138   1.542   8.454   0.864  0.6189  0.3871  0.6801
  744MOL0     C98139   1.604   8.590   0.842 -1.1132 -0.0979 -0.9174
  744MOL0     C98140   1.646   8.701   0.817 -0.1429 -0.1337 -0.7626
  744MOL0     C98141   1.025   8.281   0.872 -0.2193 -0.2771  0.6499
  744MOL0     C98142   0.884   8.301   0.880 -0.2780  0.5362  0.3026
  744MOL0     H98143   0.457   8.603   0.851 -0.5191  1.0927  1.0611
  744MOL0     H98144   0.267   8.658   0.990 -0.7273  0.3194 -0.9661
  744MOL0     H98145  -0.012   8.624   1.221 -0.2160 -0.6456  0.2828
  744MOL0     H98146   0.096   8.674   1.095  1.2299 -3.4102 -0.5613
  744MOL0     H98147   0.124   8.830   1.279  5.8632  4.4224  2.6027
  744MOL0     H98148   0.268   8.714   1.267  1.0808  0.4074  4.7881
  744MOL0     H98149   0.146   8.585   1.443  1.3802 -0.0974 -1.7430
  744MOL0     H98150   0.045   8.720   1.476 -0.9675 -0.6471 -4.0779
  744MOL0     H98151   0.327   8.669   1.552  0.7005  0.8704 -0.8307
  744MOL0     H98152   0.305   8.832   1.507  1.0569  0.3448  2.0305
  744MOL0     H98153   0.095   8.820   1.683 -0.2774  0.2487  4.1231
  744MOL0     H98154   0.263   8.816   1.745  0.9150 -1.3574  0.8307
  744MOL0     H98155   0.257   8.573   1.775 -1.0617 -1.8849  0.4112
  744MOL0     H98156   0.099   8.562   1.705  0.4055 -0.5114  1.0120
  744MOL0     H98157   0.120   8.736   1.937 -0.4082 -0.8442  1.9605
  744MOL0     H98158  -0.013   8.664   1.860  0.8981 -0.8134  1.6413
  744MOL0     H98159   0.032   8.527   2.056 -0.6827 -1.5271  0.4172
  744MOL0     H98160   0.197   8.511   2.023 -1.0353  3.6937  1.1006
  744MOL0     H98161  -0.115   8.457   1.781  0.4789  1.1346  1.3192
  744MOL0     H98162  -0.118   8.242   1.562 -1.2881  2.6503  1.3062
  744MOL0     H98163  -0.238   8.215   1.688  0.8990  0.2835  2.2043
  744MOL0     H98164  -0.205   8.031   1.538 -0.2790  2.6754 -1.0976
  744MOL0     H98165  -0.134   7.973   1.694  1.8516 -1.4536 -1.2274
  744MOL0     H98166   0.021   8.050   1.448  0.5934  0.3103 -0.1376
  744MOL0     H98167   0.080   8.092   1.603 -0.7678 -0.6028  0.8841
  744MOL0     H98168  -0.031   7.805   1.555 -0.4937  2.3465  0.9768
  744MOL0     H98169   0.124   7.845   1.639  3.0075 -0.3564 -1.5598
  744MOL0     H98170   0.255   7.807   1.217  1.4335  1.6898 -2.2318
  744MOL0     H98171   0.481   7.865   1.182  2.0046 -3.9837  2.7976
  744MOL0     H98172   0.893   8.210   1.575  1.9924 -0.9177 -0.1977
  744MOL0     H98173   1.080   8.339   1.529 -2.0077  2.2052  3.4192
  744MOL0     H98174   1.017   8.667   1.373 -0.4583  3.2448 -1.4233
  744MOL0     H98175   0.985   8.628   1.205 -1.8136  0.6401  1.3478
  744MOL0     H98176   1.240   8.665   1.168  2.4025  1.3473  0.6733
  744MOL0     H98177   1.246   8.723   1.326 -0.0865 -4.5944  1.3874
  744MOL0     H98178   1.210   8.920   1.220 -0.5284  1.1404 -0.1550
  744MOL0     H98179   1.041   8.874   1.258 -0.4845 -1.9549  0.2837
  744MOL0     H98180   1.038   8.775   1.042  0.7182 -0.9479  1.1758
  744MOL0     H98181   1.036   8.954   1.030  0.3856  1.8673  2.9088
  744MOL0     H98182   1.235   8.756   0.959 -0.3262  0.0750  0.1427
  744MOL0     H98183   1.290   8.932   0.971 -1.3771  0.8402  0.6523
  744MOL0     H98184   1.251   8.904   0.738 -0.2652  1.5181 -1.3398
  744MOL0     H98185   1.113   8.976   0.806  0.2250 -0.1473  1.9848
  744MOL0     H98186   1.169   8.690   0.713  0.6162  0.2939  0.0035
  744MOL0     H98187   1.038   8.697   0.819  0.0023 -0.9892 -1.2052
  744MOL0     H98188   0.982   8.669   0.580 -2.3426 -1.1572  1.9782
  744MOL0     H98189   1.040   8.853   0.575  1.0079  0.4407  1.9456
  744MOL0     H98190   0.932   8.420   1.131  2.0420  0.0885  1.1712
  744MOL0     H98191   0.770   8.255   1.161 -0.7858 -3.8709  0.6433
  744MOL0     H98192   0.492   8.091   1.559 -0.3934  1.4872 -1.9052
  744MOL0     H98193   0.277   7.997   1.618  0.4278 -1.9141  0.6644
  744MOL0     H98194   0.309   8.307   1.220 -2.2907  0.2221 -0.5645
  744MOL0     H98195   0.509   8.229   1.080 -1.5309 -2.0876 -0.0710
  744MOL0     H98196   0.878   8.421   0.548 -1.1841  0.8851  0.3743
  744MOL0     H98197   1.113   8.399   0.571 -0.4905 -0.6916  0.0927
  744MOL0     H98198   1.402   8.203   0.847 -1.0252 -5.0012  0.6890
  744MOL0     H98199   1.254   8.176   0.925  0.0223  0.7313  0.8267
  744MOL0     H98200   1.272   8.364   1.065  0.5399 -0.1530  0.0252
  744MOL0     H98201   1.429   8.297   1.069 -1.3357  2.6925  2.4445
  744MOL0     H98202   1.459   8.529   1.044  3.6186 -3.7086  1.5427
  744MOL0     H98203   1.338   8.534   0.923 -0.0373  1.0438  2.8326
  744MOL0     H98204   1.619   8.392   0.910  0.0111  2.1925  4.5530
  744MOL0     H98205   1.508   8.415   0.768 -2.0566  0.8859  1.3280
  744MOL0     H98206   1.690   8.789   0.775 -0.2835  1.1174  1.5678
  744MOL0     H98207   1.064   8.259   0.971  2.1651  2.4321  0.4495
  744MOL0     H98208   0.840   8.287   0.978 -1.3479  3.5722  0.3815
  745MOL0     O98209   6.655   8.093  10.868 -0.7756 -1.1131  0.1432
  745MOL0     C98210   6.635   8.189  10.787 -0.0629  0.3476  0.0819
  745MOL0     O98211   6.746   8.270  10.747 -0.3220 -0.2754 -0.2337
  745MOL0     C98212   6.877   8.226  10.741 -0.1079 -1.6830  0.0016
  745MOL0     C98213   6.972   8.336  10.721  0.9354  0.7914 -0.2195
  745MOL0     C98214   7.107   8.303  10.702 -0.0408  0.2069  1.3900
  745MOL0     C98215   7.152   8.170  10.699  0.7864 -0.2483  0.3777
  745MOL0     O98216   7.270   8.125  10.662 -0.0909  0.0124  0.9390
  745MOL0     C98217   7.379   8.219  10.631 -0.2672 -0.7792  0.4146
  745MOL0     C98218   7.507   8.138  10.611  0.7061  0.2400 -0.5658
  745MOL0     C98219   7.639   8.219  10.627 -0.4165 -0.1614  0.2140
  745MOL0     C98220   7.757   8.125  10.597  0.0311  0.5012 -0.2227
  745MOL0     C98221   7.884   8.200  10.579 -0.6257 -0.4082  0.4510
  745MOL0     C98222   8.000   8.112  10.619  0.0020 -0.9793  0.1278
  745MOL0     C98223   8.134   8.159  10.551  0.4555 -0.3909 -0.1477
  745MOL0     C98224   8.249   8.083  10.615  0.4135  0.1353  0.6956
  745MOL0     N98225   8.383   8.120  10.567 -0.8878 -0.2491  0.3010
  745MOL0     C98226   8.463   8.061  10.471 -0.1899 -0.2782  0.7129
  745MOL0     C98227   8.548   8.162  10.435 -0.1362  0.5730  0.1634
  745MOL0     C98228   8.606   8.168  10.287  0.2158 -0.3970  0.4168
  745MOL0     C98229   8.531   8.276  10.204 -0.6576 -0.2207 -0.1481
  745MOL0     C98230   8.384   8.250  10.184 -0.2340  0.9121 -0.4595
  745MOL0     C98231   8.329   8.324  10.063 -0.1292  0.8745 -0.3556
  745MOL0     O98232   8.192   8.277  10.035  0.3246 -0.3165  0.7998
  745MOL0     C98233   8.091   8.372  10.058  0.0200  0.2907  0.1661
  745MOL0     C98234   7.987   8.364   9.979  0.6892  0.2458 -0.7046
  745MOL0     C98235   7.892   8.464   9.999  0.4969  0.4210 -0.7832
  745MOL0     C98236   7.884   8.539  10.115 -0.8590 -0.3282  0.2562
  745MOL0     C98237   7.758   8.622  10.138 -0.8410 -0.3920 -0.4450
  745MOL0     O98238   7.671   8.628  10.032 -1.0146  0.2233  0.5805
  745MOL0     C98239   7.559   8.695  10.034  0.8002 -0.4296  0.5731
  745MOL0     C98240   7.443   8.633   9.996  0.0367 -0.7100 -0.2594
  745MOL0     C98241   7.324   8.696   9.984  0.6400  1.5577 -0.1249
  745MOL0     C98242   7.313   8.829  10.025  0.3273 -0.0567  0.1014
  745MOL0     O98243   7.195   8.899  10.019 -0.0828 -0.4155 -0.1286
  745MOL0     C98244   7.071   8.831  10.057 -0.1687 -0.2750  0.4544
  745MOL0     C98245   6.953   8.933  10.029  1.3220  0.4601  0.1550
  745MOL0     C98246   6.957   9.048  10.136  1.3032 -0.3434  0.4637
  745MOL0     C98247   6.856   9.158  10.116  0.2875  0.3933  0.2807
  745MOL0     C98248   6.818   9.222  10.253 -0.1169  0.2961  0.1675
  745MOL0     C98249   6.670   9.197  10.281 -0.5707  0.2992 -0.3365
  745MOL0     C98250   6.620   9.292  10.389  0.1836  0.9143 -0.6718
  745MOL0     C98251   6.470   9.266  10.408  0.2068 -0.4261 -0.9288
  745MOL0    Cl98252   6.426   9.365  10.546 -0.2421  0.6166 -0.3867
  745MOL0     C98253   7.419   8.894  10.065  0.0706 -0.6027 -0.4502
  745MOL0     C98254   7.544   8.827  10.074 -0.2011 -0.2058  0.1195
  745MOL0     O98255   7.731   8.672  10.247 -0.2827  0.3597 -0.0988
  745MOL0     C98256   7.993   8.541  10.201 -1.0612 -0.1806  0.7817
  745MOL0     C98257   8.101   8.456  10.171  0.1260 -0.6051 -0.4590
  745MOL0     N98258   8.540   8.263  10.524  0.0875  0.0695  0.6435
  745MOL0     N98259   8.441   8.242  10.601  0.0997 -0.3853  0.4745
  745MOL0     C98260   7.060   8.064  10.732 -0.0318  0.1842 -0.2615
  745MOL0     C98261   6.927   8.094  10.749  0.5476 -0.6055 -0.4336
  745MOL0     C98262   6.499   8.227  10.763 -0.1183 -0.5200  0.3183
  745MOL0     C98263   6.405   8.154  10.831  0.7721  0.3576 -0.0948
  745MOL0     C98264   6.268   8.161  10.797 -0.8823 -0.7051  0.4148
  745MOL0     C98265   6.231   8.251  10.687 -0.0112 -0.1382 -0.5980
  745MOL0     O98266   6.097   8.269  10.662  0.6054 -0.3437  1.0859
  745MOL0     C98267   6.036   8.400  10.665 -0.2409  0.6490 -0.5988
  745MOL0     C98268   6.001   8.442  10.805  0.7309  0.1767 -0.7309
  745MOL0     C98269   5.949   8.587  10.820 -1.4987 -0.6897  0.8921
  745MOL0     C98270   6.059   8.686  10.757  0.0208 -0.4445 -0.1101
  745MOL0     C98271   6.202   8.646  10.772  0.1233  0.1042  0.7086
  745MOL0     C98272   6.320   8.616  10.769 -0.7267 -0.0155 -0.5332
  745MOL0     C98273   6.333   8.324  10.622  0.0603 -1.0029  0.6326
  745MOL0     C98274   6.464   8.318  10.663 -0.8218  0.6711 -0.0354
  745MOL0     H98275   6.940   8.440  10.722  1.1302  0.9566 -3.2615
  745MOL0     H98276   7.181   8.375  10.667  0.1960 -0.6124  0.1330
  745MOL0     H98277   7.386   8.286  10.717 -1.8591 -1.5149  1.1567
  745MOL0     H98278   7.362   8.280  10.542 -2.7684 -1.6154  0.2610
  745MOL0     H98279   7.512   8.087  10.514  3.5905  2.1586 -1.5655
  745MOL0     H98280   7.506   8.062  10.689  0.7000  0.4587 -0.3510
  745MOL0     H98281   7.650   8.261  10.727 -1.3545  0.1720  0.1953
  745MOL0     H98282   7.641   8.304  10.558 -0.8466  0.4489  0.9415
  745MOL0     H98283   7.760   8.062  10.686  3.0531 -0.1415 -0.6856
  745MOL0     H98284   7.726   8.065  10.511 -1.3246  0.7811  0.0415
  745MOL0     H98285   7.874   8.295  10.631 -0.5119  0.2741 -0.7484
  745MOL0     H98286   7.885   8.221  10.472  2.7515 -1.1189  0.2507
  745MOL0     H98287   7.986   8.008  10.590 -0.4196 -0.2505 -2.5191
  745MOL0     H98288   8.008   8.125  10.727 -4.0215  1.4850  0.3286
  745MOL0     H98289   8.136   8.140  10.444  0.8621 -1.1578 -0.0088
  745MOL0     H98290   8.147   8.264  10.580  0.5902 -1.1584  2.9883
  745MOL0     H98291   8.229   7.978  10.591 -3.1123  0.7062  0.6829
  745MOL0     H98292   8.240   8.098  10.723 -1.4381  2.1783  0.3234
  745MOL0     H98293   8.451   7.968  10.418  2.0695 -0.0092 -0.4283
  745MOL0     H98294   8.579   8.073  10.240  2.4726 -0.7545 -0.3114
  745MOL0     H98295   8.716   8.171  10.288  0.2739 -0.7224  2.9508
  745MOL0     H98296   8.574   8.301  10.107  1.1195 -1.4551  0.2586
  745MOL0     H98297   8.549   8.371  10.256  1.2433 -0.0497 -1.0083
  745MOL0     H98298   8.362   8.143  10.194  0.6051  0.7140 -0.6404
  745MOL0     H98299   8.341   8.294  10.274 -1.3432 -0.1319 -0.4462
  745MOL0     H98300   8.394   8.286   9.983  3.1898 -1.1936  3.0455
  745MOL0     H98301   8.344   8.432  10.071  2.7086  0.5509 -0.5647
  745MOL0     H98302   8.005   8.302   9.892  1.4953  1.4886 -1.4547
  745MOL0     H98303   7.811   8.485   9.930 -0.3509  2.3468  0.6935
  745MOL0     H98304   7.451   8.529   9.965 -0.2532 -2.2585  4.2513
  745MOL0     H98305   7.241   8.631   9.955 -0.8950  1.7436  3.2871
  745MOL0     H98306   7.079   8.813  10.165  3.6081  3.0568  0.9843
  745MOL0     H98307   7.056   8.743   9.994 -1.4107 -0.6334  1.2095
  745MOL0     H98308   6.855   8.885  10.038  1.5443 -0.3375 -1.3409
  745MOL0     H98309   6.941   8.974   9.928 -1.0819 -1.3050 -0.3716
  745MOL0     H98310   7.061   9.082  10.142  0.0271  3.9142  3.5781
  745MOL0     H98311   6.944   8.990  10.227  0.9287 -2.8764 -1.1102
  745MOL0     H98312   6.904   9.235  10.055  4.4715 -0.0044  2.7201
  745MOL0     H98313   6.765   9.124  10.066  1.0264  2.8183 -3.1224
  745MOL0     H98314   6.831   9.330  10.261  0.4436  0.1955  0.6955
  745MOL0     H98315   6.879   9.182  10.335  0.8572 -3.1716 -2.0360
  745MOL0     H98316   6.648   9.097  10.320  0.2590 -0.1709 -1.0565
  745MOL0     H98317   6.598   9.214  10.200  0.7708 -1.6814 -2.0469
  745MOL0     H98318   6.674   9.278  10.483  1.1522  3.4910 -0.7494
  745MOL0     H98319   6.636   9.398  10.364  2.2765  0.9611  0.6319
  745MOL0     H98320   6.433   9.170  10.446  0.1657  0.6032  1.8765
  745MOL0     H98321   6.403   9.279  10.322 -1.4745 -3.0235 -0.1170
  745MOL0     H98322   7.407   8.999  10.087 -1.5115 -1.1192  1.4622
  745MOL0     H98323   7.623   8.890  10.114  0.0019 -0.5632  0.2882
  745MOL0     H98324   7.985   8.596  10.294 -1.7417 -0.6234  1.0004
  745MOL0     H98325   8.182   8.476  10.241 -0.1716  0.3522 -0.3681
  745MOL0     H98326   7.090   7.961  10.716 -2.1002 -0.2579 -1.6324
  745MOL0     H98327   6.855   8.014  10.765 -0.2913 -0.1525 -1.7295
  745MOL0     H98328   6.433   8.089  10.914  0.4494  0.1831 -0.1177
  745MOL0     H98329   6.195   8.113  10.861 -0.3717 -0.3219  1.3070
  745MOL0     H98330   5.947   8.399  10.601 -0.7543 -0.2281  0.1100
  745MOL0     H98331   6.106   8.474  10.624  0.2923  0.0264 -0.8323
  745MOL0     H98332   5.925   8.369  10.835  2.7695 -1.9918 -0.5839
  745MOL0     H98333   6.094   8.424  10.861  0.0006  2.4306  1.3891
  745MOL0     H98334   5.938   8.616  10.925  3.0514  0.7364  1.1969
  745MOL0     H98335   5.852   8.604  10.772 -1.8019  0.4868  1.8774
  745MOL0     H98336   6.025   8.721  10.659 -0.7311  1.0625  0.6476
  745MOL0     H98337   6.053   8.777  10.817 -1.1045  0.2770 -1.2580
  745MOL0     H98338   6.422   8.584  10.771 -1.1472 -1.4076  1.1476
  745MOL0     H98339   6.305   8.399  10.549  1.8735  2.3486  3.1061
  745MOL0     H98340   6.542   8.366  10.605 -1.0750  0.8590 -0.2247
  746MOL0     O98341   7.374   4.564   7.625  0.4514 -0.2234 -0.2621
  746MOL0     C98342   7.377   4.504   7.734 -0.2780 -0.8551 -0.9296
  746MOL0     O98343   7.486   4.487   7.809 -0.0912  0.2916 -0.0067
  746MOL0     C98344   7.597   4.563   7.798  0.4781 -1.1591 -0.2222
  746MOL0     C98345   7.602   4.699   7.787 -0.0449  0.1850  0.0982
  746MOL0     C98346   7.720   4.767   7.773  0.2447 -0.3859 -0.7497
  746MOL0     C98347   7.841   4.696   7.783 -0.9385 -0.0022 -0.1807
  746MOL0     O98348   7.946   4.767   7.760 -0.9867  0.6084 -0.7936
  746MOL0     C98349   8.073   4.713   7.702  0.1869 -0.3464  0.2959
  746MOL0     C98350   8.197   4.729   7.796 -0.1094  0.8497  0.5620
  746MOL0     C98351   8.339   4.725   7.728 -0.1482 -0.1982 -0.3541
  746MOL0     C98352   8.451   4.696   7.828  0.0185  0.3037 -0.4482
  746MOL0     C98353   8.451   4.823   7.932  0.2988  0.6476 -0.5954
  746MOL0     C98354   8.595   4.837   8.000 -0.3147 -0.0958 -0.0191
  746MOL0     C98355   8.616   4.979   8.067  0.6926 -0.5182 -0.7463
  746MOL0     C98356   8.527   5.001   8.196  0.0729  0.2456  0.2533
  746MOL0     N98357   8.554   4.918   8.319 -0.4471 -1.2409  0.3351
  746MOL0     C98358   8.609   4.961   8.437  0.6644  0.3613  0.2457
  746MOL0     C98359   8.636   4.854   8.512 -0.6261  1.6199  0.1474
  746MOL0     C98360   8.691   4.845   8.656 -0.8310 -0.0532 -0.0141
  746MOL0     C98361   8.577   4.803   8.745  0.6352 -0.6289 -0.2326
  746MOL0     C98362   8.625   4.816   8.891  0.4508  0.2922  0.3892
  746MOL0     C98363   8.509   4.746   8.973 -0.7629 -1.7052 -0.0207
  746MOL0     O98364   8.374   4.787   8.946 -0.1202  0.6842 -0.2693
  746MOL0     C98365   8.279   4.748   9.043  0.1322  0.5085 -0.7494
  746MOL0     C98366   8.162   4.820   9.044  0.4965 -0.3387  0.6768
  746MOL0     C98367   8.063   4.789   9.137 -0.5325  0.3362 -0.2365
  746MOL0     C98368   8.084   4.694   9.231  0.1420 -0.0169  0.2050
  746MOL0     C98369   7.977   4.667   9.330  0.3763  1.1527  0.5491
  746MOL0     O98370   7.878   4.757   9.332  0.6520 -1.1841 -0.0820
  746MOL0     C98371   7.753   4.731   9.385 -0.1727  0.0603  0.2406
  746MOL0     C98372   7.638   4.756   9.308 -1.0415 -1.0122  0.0530
  746MOL0     C98373   7.515   4.719   9.342  0.5613 -0.0414  0.1712
  746MOL0     C98374   7.496   4.675   9.468 -0.0806 -0.7676  0.1773
  746MOL0     O98375   7.359   4.639   9.496 -1.1903  0.6390  0.1563
  746MOL0     C98376   7.334   4.549   9.605  0.7502  0.6349 -0.6400
  746MOL0     C98377   7.204   4.468   9.564 -0.0908  0.1760  0.0379
  746MOL0     C98378   7.076   4.558   9.561  0.2937 -0.0954 -0.7208
  746MOL0     C98379   6.962   4.457   9.528  0.9556  0.1297  0.5424
  746MOL0     C98380   6.826   4.520   9.479 -1.1756  0.7666 -0.3195
  746MOL0     C98381   6.727   4.407   9.444 -0.1079  0.9637 -0.2141
  746MOL0     C98382   6.578   4.444   9.423  0.3965 -0.3347  0.2987
  746MOL0     C98383   6.512   4.476   9.551 -0.0382  0.3005 -0.5371
  746MOL0    Cl98384   6.339   4.497   9.514 -0.1112 -0.1288  0.3998
  746MOL0     C98385   7.602   4.661   9.560  0.2734 -0.1074 -0.1878
  746MOL0     C98386   7.737   4.678   9.510  0.6443  0.3348 -0.1908
  746MOL0     O98387   7.993   4.570   9.406  0.4632  0.1552 -0.0814
  746MOL0     C98388   8.216   4.630   9.239 -0.3350 -0.4335  0.1446
  746MOL0     C98389   8.313   4.657   9.142  0.0251 -0.8922 -0.4857
  746MOL0     N98390   8.579   4.748   8.449  1.2054 -0.1657  0.2373
  746MOL0     N98391   8.525   4.788   8.332 -0.8654  0.7496  0.1718
  746MOL0     C98392   7.842   4.558   7.802  0.3867 -0.0580  0.4235
  746MOL0     C98393   7.717   4.496   7.814  0.0502 -0.0074  0.1055
  746MOL0     C98394   7.259   4.419   7.764  0.0658  0.9074  0.3336
  746MOL0     C98395   7.255   4.344   7.878  0.1096  0.2679  0.2499
  746MOL0     C98396   7.144   4.273   7.923 -0.2418 -0.7369  0.2209
  746MOL0     C98397   7.027   4.278   7.850 -0.4959 -0.2979  0.8231
  746MOL0     O98398   6.924   4.195   7.894 -0.1673  0.3098  0.0535
  746MOL0     C98399   6.802   4.165   7.823  0.1371 -0.0061  0.5303
  746MOL0     C98400   6.820   4.047   7.739  0.1228  0.2824 -1.0245
  746MOL0     C98401   6.685   4.000   7.688 -0.2345  0.6092 -0.1337
  746MOL0     C98402   6.694   3.919   7.562  0.2306  0.0457 -0.1046
  746MOL0     C98403   6.775   3.796   7.573 -0.0524  0.3332  0.4890
  746MOL0     C98404   6.841   3.695   7.583  0.1891  0.4983  0.3673
  746MOL0     C98405   7.025   4.354   7.729 -1.0327  0.1528  0.5353
  746MOL0     C98406   7.138   4.418   7.685 -0.7897  0.0916  0.3354
  746MOL0     H98407   7.506   4.750   7.785 -0.4700 -0.5641  1.0343
  746MOL0     H98408   7.724   4.876   7.774  1.7412 -0.3861  1.6871
  746MOL0     H98409   8.099   4.769   7.612 -5.2664  1.6587 -0.4176
  746MOL0     H98410   8.054   4.610   7.671 -1.5677 -1.3780  4.2439
  746MOL0     H98411   8.183   4.644   7.864 -2.6452 -0.0450 -0.9535
  746MOL0     H98412   8.188   4.821   7.854  2.7141  0.5168  1.6930
  746MOL0     H98413   8.352   4.807   7.657 -2.3292 -0.2081 -0.8375
  746MOL0     H98414   8.337   4.638   7.663  1.4221  0.6225 -1.5656
  746MOL0     H98415   8.428   4.601   7.878 -2.0713 -0.6987 -3.0370
  746MOL0     H98416   8.545   4.687   7.774 -0.0259  1.8245 -0.8152
  746MOL0     H98417   8.371   4.809   8.005 -0.3873  3.3265 -0.7200
  746MOL0     H98418   8.427   4.916   7.879 -0.4267 -1.7580 -4.8987
  746MOL0     H98419   8.662   4.827   7.914 -0.3987 -0.8954  0.0042
  746MOL0     H98420   8.612   4.755   8.070 -1.8343 -0.3479  0.0777
  746MOL0     H98421   8.715   4.990   8.112  0.2075  1.7045 -0.0733
  746MOL0     H98422   8.600   5.060   7.995  0.3274  1.0557  1.0258
  746MOL0     H98423   8.424   4.984   8.163 -0.2023  2.5483 -0.2757
  746MOL0     H98424   8.530   5.104   8.231  0.6811  0.7984 -1.3318
  746MOL0     H98425   8.644   5.060   8.465  0.4118  0.9341 -1.3542
  746MOL0     H98426   8.732   4.943   8.683  0.4621 -0.0241 -1.9101
  746MOL0     H98427   8.774   4.774   8.653 -0.5742  0.1659  1.2021
  746MOL0     H98428   8.561   4.697   8.720 -3.6047 -0.7714  2.1244
  746MOL0     H98429   8.487   4.860   8.721  0.8580  0.3076  1.0717
  746MOL0     H98430   8.719   4.763   8.910 -0.2841 -1.6875 -1.0570
  746MOL0     H98431   8.640   4.920   8.919  0.0879  0.3335  0.4329
  746MOL0     H98432   8.530   4.775   9.076  0.2115 -0.0165 -0.6508
  746MOL0     H98433   8.521   4.638   8.963  3.5332 -1.3804 -0.2392
  746MOL0     H98434   8.135   4.893   8.968  1.9408 -1.4713 -0.9960
  746MOL0     H98435   7.971   4.845   9.150 -1.1159 -0.8368  1.0453
  746MOL0     H98436   7.657   4.797   9.210 -0.6117 -0.2023  0.4673
  746MOL0     H98437   7.431   4.723   9.274  1.3146 -1.6493 -0.9183
  746MOL0     H98438   7.315   4.598   9.701  2.2731  0.2374 -0.1205
  746MOL0     H98439   7.410   4.475   9.631 -0.7242 -1.4517 -1.9413
  746MOL0     H98440   7.199   4.387   9.637  0.2097  1.4216  1.5002
  746MOL0     H98441   7.219   4.427   9.464 -0.8670 -0.4691  0.1737
  746MOL0     H98442   7.084   4.629   9.478 -0.6821 -0.6256 -1.2979
  746MOL0     H98443   7.055   4.610   9.656 -0.1324 -1.2090 -0.1885
  746MOL0     H98444   6.990   4.384   9.452 -1.7116  0.8496 -1.2584
  746MOL0     H98445   6.937   4.397   9.616  0.0313 -3.3499 -1.8923
  746MOL0     H98446   6.848   4.584   9.393  1.9641  1.4876  0.8863
  746MOL0     H98447   6.786   4.573   9.566  0.1061 -1.8640  2.0318
  746MOL0     H98448   6.737   4.327   9.518 -1.4561  1.2366  0.3033
  746MOL0     H98449   6.763   4.355   9.355  2.5384 -0.6725  1.6662
  746MOL0     H98450   6.565   4.524   9.350  0.4410  0.1301  0.7885
  746MOL0     H98451   6.514   4.369   9.375 -1.2829 -0.1701  2.1373
  746MOL0     H98452   6.550   4.576   9.575 -0.6192  1.1098 -2.7419
  746MOL0     H98453   6.526   4.407   9.635 -0.9315  2.7646  1.7784
  746MOL0     H98454   7.578   4.636   9.663  0.9046 -2.1896 -0.4999
  746MOL0     H98455   7.814   4.655   9.583 -1.1952 -3.0186  0.9023
  746MOL0     H98456   8.237   4.567   9.325 -0.7228  0.4223  0.8860
  746MOL0     H98457   8.405   4.599   9.147  2.5535  2.7166 -1.2006
  746MOL0     H98458   7.933   4.501   7.792  0.1085 -0.6504  1.1721
  746MOL0     H98459   7.717   4.388   7.827  2.0189  0.0577  0.9980
  746MOL0     H98460   7.343   4.334   7.941  0.6037  0.0389 -0.4769
  746MOL0     H98461   7.144   4.214   8.014  2.0254 -2.4086 -0.7575
  746MOL0     H98462   6.771   4.252   7.765  0.1991  0.2100  0.8160
  746MOL0     H98463   6.725   4.131   7.893 -0.0546  3.1183  2.0280
  746MOL0     H98464   6.890   4.068   7.657 -1.2852 -0.7314 -2.5537
  746MOL0     H98465   6.854   3.966   7.803  0.1713  1.5393  0.5988
  746MOL0     H98466   6.622   4.088   7.673  0.3352  1.2149  0.8998
  746MOL0     H98467   6.637   3.937   7.763  3.2017 -1.3941  0.5955
  746MOL0     H98468   6.593   3.885   7.541  0.2642 -0.5812  0.7403
  746MOL0     H98469   6.734   3.974   7.475  2.0904 -0.7230  0.2307
  746MOL0     H98470   6.910   3.628   7.629 -2.1478  0.8310  4.9381
  746MOL0     H98471   6.938   4.335   7.668 -0.9283 -0.1403  0.4807
  746MOL0     H98472   7.135   4.469   7.589 -0.5576  2.4095  1.4901
  747MOL0     O98473   1.331   4.757  10.730  0.3011 -0.0914  0.5168
  747MOL0     C98474   1.247   4.717  10.815 -1.2151 -0.5737 -0.2464
  747MOL0     O98475   1.262   4.606  10.893  0.2362  0.5909 -0.1788
  747MOL0     C98476   1.390   4.542  10.900 -0.1981 -0.5822 -0.4780
  747MOL0     C98477   1.522   4.600  10.895 -0.2124  0.7882 -0.0808
  747MOL0     C98478   1.634   4.516  10.907  0.4190  0.4361 -0.8874
  747MOL0     C98479   1.617   4.373  10.923 -0.5014  0.1757  0.9452
  747MOL0     O98480   1.714   4.278  10.937  0.3865  0.6055  0.4484
  747MOL0     C98481   1.833   4.313  11.009  0.5700  0.1580  0.6668
  747MOL0     C98482   1.936   4.217  10.964  0.2120 -0.0259  0.6390
  747MOL0     C98483   1.916   4.078  11.013 -0.0548  0.3143  0.6344
  747MOL0     C98484   2.022   3.977  10.948 -0.7624 -0.0214 -0.7565
  747MOL0     C98485   1.996   3.837  11.018  0.0128 -0.2572  0.6014
  747MOL0     C98486   2.115   3.739  11.015 -1.1606 -0.0225 -0.3055
  747MOL0     C98487   2.118   3.697  10.864  0.9078 -0.0364 -1.1560
  747MOL0     C98488   2.239   3.630  10.813 -0.3666 -0.3612  0.2812
  747MOL0     N98489   2.206   3.586  10.670  0.1498  0.4254 -0.1323
  747MOL0     C98490   2.251   3.647  10.557 -0.6733 -0.2833 -0.4445
  747MOL0     C98491   2.245   3.558  10.457  0.6338 -0.4153  1.5071
  747MOL0     C98492   2.275   3.571  10.309  0.6689 -0.3013 -0.5170
  747MOL0     C98493   2.153   3.601  10.227 -0.3892  0.7260  0.0430
  747MOL0     C98494   2.050   3.488  10.213  0.2844 -0.3156 -1.2433
  747MOL0     C98495   1.942   3.513  10.114  0.3862 -0.7022  0.6530
  747MOL0     O98496   2.008   3.522   9.980 -0.2697  0.4732  0.0643
  747MOL0     C98497   2.041   3.404   9.916  0.3076 -0.2783  0.3524
  747MOL0     C98498   2.008   3.271   9.951 -0.5885  0.5655 -0.7031
  747MOL0     C98499   2.051   3.169   9.862  0.9373  0.5865  0.3901
  747MOL0     C98500   2.113   3.201   9.738  0.2776  0.6122  0.5601
  747MOL0     C98501   2.156   3.099   9.644  0.4141 -0.2927  0.2786
  747MOL0     O98502   2.180   3.138   9.511 -0.2212 -0.2747  0.1941
  747MOL0     C98503   2.228   3.030   9.438 -0.2539  0.1472 -0.4967
  747MOL0     C98504   2.142   2.926   9.402 -0.6091 -0.6347 -0.2232
  747MOL0     C98505   2.198   2.830   9.324  0.1493  0.8390  0.5920
  747MOL0     C98506   2.325   2.839   9.263  0.4041  0.2403 -0.1211
  747MOL0     O98507   2.359   2.740   9.177  0.0919 -0.7534 -0.7843
  747MOL0     C98508   2.494   2.732   9.134  0.1548  0.6926  0.4801
  747MOL0     C98509   2.507   2.594   9.068 -0.5622 -1.0672 -0.9130
  747MOL0     C98510   2.629   2.596   8.996 -0.1669 -0.1540  0.0189
  747MOL0     C98511   2.665   2.462   8.924 -0.4252 -0.0750 -0.0779
  747MOL0     C98512   2.788   2.469   8.840  0.2415  0.0414 -0.2220
  747MOL0     C98513   2.904   2.513   8.920 -0.3766 -0.4835 -0.5342
  747MOL0     C98514   3.026   2.481   8.837 -0.3653  0.0858  0.0495
  747MOL0     C98515   3.159   2.485   8.907 -0.6148 -0.3067  0.4739
  747MOL0    Cl98516   3.179   2.336   9.018  0.3706 -0.2192  0.3615
  747MOL0     C98517   2.408   2.939   9.305  0.0463  0.1643 -0.5169
  747MOL0     C98518   2.362   3.040   9.388  0.1335  0.6491  0.3359
  747MOL0     O98519   2.169   2.992   9.697  1.2575  0.1380 -0.3916
  747MOL0     C98520   2.134   3.333   9.705  0.5443  0.2679  1.2126
  747MOL0     C98521   2.102   3.433   9.795  0.7257  0.1091  1.2964
  747MOL0     N98522   2.191   3.447  10.499 -0.0543 -0.0540  0.3556
  747MOL0     N98523   2.168   3.462  10.629  0.1865  0.6923  1.3093
  747MOL0     C98524   1.492   4.321  10.929 -0.4542  0.2911 -0.5280
  747MOL0     C98525   1.380   4.403  10.920 -0.0116 -0.2839  0.3053
  747MOL0     C98526   1.135   4.815  10.831  0.6696 -1.0009  0.2271
  747MOL0     C98527   1.105   4.919  10.742  0.2103  0.0519  0.1430
  747MOL0     C98528   1.008   5.014  10.776  1.0590 -0.0230  0.1588
  747MOL0     C98529   0.949   5.033  10.902 -0.5033  0.0504  0.6540
  747MOL0     O98530   0.886   5.149  10.936 -0.0089 -0.6632  0.1938
  747MOL0     C98531   0.772   5.133  11.025 -0.5681  0.3638  0.7109
  747MOL0     C98532   0.750   5.255  11.106  0.5176 -0.3322  0.5289
  747MOL0     C98533   0.693   5.366  11.023 -0.0727 -1.0090 -0.7590
  747MOL0     C98534   0.642   5.499  11.098 -0.5703  0.1720 -0.7121
  747MOL0     C98535   0.521   5.466  11.172  0.4064 -0.9072 -0.6062
  747MOL0     C98536   0.426   5.431  11.231 -0.0844 -0.0945 -0.4671
  747MOL0     C98537   0.978   4.923  10.988 -0.2119  1.0142 -0.6146
  747MOL0     C98538   1.062   4.812  10.954 -0.1105 -0.2762  0.0663
  747MOL0     H98539   1.550   4.705  10.881  1.7364  1.1750  4.8195
  747MOL0     H98540   1.734   4.557  10.907  0.3256  0.8299  1.6697
  747MOL0     H98541   1.804   4.297  11.113 -4.1975 -0.9406 -0.5893
  747MOL0     H98542   1.869   4.413  10.984  0.2933 -0.0897 -0.8194
  747MOL0     H98543   2.039   4.244  10.989  3.1797 -4.7497 -4.2998
  747MOL0     H98544   1.933   4.228  10.855 -4.1440 -0.4348  0.5464
  747MOL0     H98545   1.818   4.046  10.976  0.4375  1.0901 -1.4500
  747MOL0     H98546   1.921   4.070  11.122 -0.7314  1.2767  0.7389
  747MOL0     H98547   2.001   3.970  10.841  1.9108 -2.7554 -1.2280
  747MOL0     H98548   2.124   4.010  10.966 -0.0885 -2.6261  0.6669
  747MOL0     H98549   1.912   3.784  10.971  1.8294 -2.9498  0.1635
  747MOL0     H98550   1.989   3.854  11.126  4.1954  3.9277  0.5177
  747MOL0     H98551   2.114   3.654  11.084 -0.3173 -1.2590 -1.7558
  747MOL0     H98552   2.205   3.796  11.035  1.6559 -3.2425 -2.5815
  747MOL0     H98553   2.039   3.621  10.861 -0.1472  0.7666  1.7287
  747MOL0     H98554   2.113   3.787  10.803  1.2508  0.2528 -0.7657
  747MOL0     H98555   2.260   3.545  10.879 -1.7551 -0.4868  0.5736
  747MOL0     H98556   2.327   3.695  10.809  1.1875 -2.3685  0.0112
  747MOL0     H98557   2.296   3.746  10.552  0.1931 -0.5999  0.5810
  747MOL0     H98558   2.332   3.490  10.262  0.8460  0.6699 -2.0456
  747MOL0     H98559   2.341   3.658  10.297  1.4029 -0.3892  2.1702
  747MOL0     H98560   2.192   3.623  10.127 -0.0332 -2.7195 -0.6739
  747MOL0     H98561   2.110   3.696  10.260  0.7119  1.7843 -1.3979
  747MOL0     H98562   2.107   3.400  10.185  3.6825  1.0075  0.9875
  747MOL0     H98563   2.006   3.477  10.312 -0.1146 -1.2989 -1.5153
  747MOL0     H98564   1.900   3.614  10.125  0.2399 -0.1254 -3.5244
  747MOL0     H98565   1.868   3.434  10.128  0.3906 -1.0338 -0.9607
  747MOL0     H98566   1.960   3.253  10.047  1.5010 -0.0713  0.2907
  747MOL0     H98567   2.019   3.069   9.890  1.4898  0.1835 -0.3948
  747MOL0     H98568   2.039   2.916   9.434 -2.8512 -2.4490 -6.5615
  747MOL0     H98569   2.128   2.751   9.299  1.4405 -0.3327  0.5866
  747MOL0     H98570   2.548   2.735   9.229  1.1127  2.6690 -0.0806
  747MOL0     H98571   2.532   2.800   9.058 -2.8086  1.8689 -0.1116
  747MOL0     H98572   2.421   2.573   9.002  0.6230 -3.7967 -1.7085
  747MOL0     H98573   2.511   2.518   9.146  0.5620  0.4834  0.6310
  747MOL0     H98574   2.714   2.631   9.055  1.8296 -0.5879 -2.4330
  747MOL0     H98575   2.617   2.676   8.922 -0.4114  2.3611  2.6304
  747MOL0     H98576   2.663   2.378   8.993 -0.3222 -0.2523 -0.2888
  747MOL0     H98577   2.584   2.433   8.856 -0.4238  0.1768 -0.1874
  747MOL0     H98578   2.777   2.525   8.746 -0.3377 -1.0913 -0.8502
  747MOL0     H98579   2.800   2.365   8.807  0.7254  0.9043 -3.0778
  747MOL0     H98580   2.906   2.455   9.013  2.8602  0.2840 -0.0083
  747MOL0     H98581   2.911   2.618   8.948 -1.8144 -0.3588 -0.5349
  747MOL0     H98582   3.029   2.383   8.788 -0.0279  0.3094 -0.3869
  747MOL0     H98583   3.036   2.551   8.754  2.4327 -0.2745 -0.0172
  747MOL0     H98584   3.164   2.576   8.967  1.0929  1.1531 -1.7210
  747MOL0     H98585   3.235   2.483   8.829 -0.6270 -2.0808  0.4556
  747MOL0     H98586   2.508   2.959   9.270  0.8427 -0.8245  1.0767
  747MOL0     H98587   2.427   3.123   9.416  1.8692 -0.7278  0.5759
  747MOL0     H98588   2.185   3.362   9.613  1.4943  2.3124  2.2958
  747MOL0     H98589   2.123   3.539   9.777 -1.7212  0.1472 -2.4342
  747MOL0     H98590   1.479   4.214  10.945  2.5122  0.1545  1.9946
  747MOL0     H98591   1.276   4.372  10.919 -0.1525  0.0531  1.9154
  747MOL0     H98592   1.160   4.930  10.649 -0.7681  2.2368 -0.2542
  747MOL0     H98593   0.975   5.095  10.712 -2.4731 -0.7075  0.9046
  747MOL0     H98594   0.778   5.057  11.103 -0.9514  0.4185  0.7981
  747MOL0     H98595   0.676   5.109  10.979  0.0010  1.4028 -1.0890
  747MOL0     H98596   0.675   5.226  11.181 -1.0577  4.3362  1.0914
  747MOL0     H98597   0.844   5.284  11.154 -0.2590 -0.2204  2.0499
  747MOL0     H98598   0.609   5.321  10.969 -0.6633 -0.5329 -0.2551
  747MOL0     H98599   0.767   5.402  10.951 -0.3327 -0.0665 -0.5698
  747MOL0     H98600   0.725   5.525  11.164 -0.1386  1.3041 -1.6547
  747MOL0     H98601   0.637   5.580  11.024 -1.6553 -0.8916 -1.8365
  747MOL0     H98602   0.342   5.424  11.298 -0.6599  3.9668 -0.5600
  747MOL0     H98603   0.942   4.929  11.091  0.1848  0.1260 -0.4116
  747MOL0     H98604   1.069   4.741  11.035 -0.3384 -0.1157  0.2281
  748MOL0     O98605  10.330   5.704   7.518 -0.0135 -0.4181  0.8165
  748MOL0     C98606  10.426   5.780   7.545  0.4794  0.3644 -1.1388
  748MOL0     O98607  10.414   5.920   7.564 -0.5832  0.5639 -0.3235
  748MOL0     C98608  10.285   5.983   7.564  0.0820 -0.7251  0.5730
  748MOL0     C98609  10.261   6.080   7.660  0.5115  0.3548 -0.2440
  748MOL0     C98610  10.136   6.140   7.663 -0.4810 -0.5165 -0.1941
  748MOL0     C98611  10.033   6.116   7.578 -0.0610  0.1208  0.6917
  748MOL0     O98612   9.919   6.188   7.562  0.8806  0.1475 -0.0294
  748MOL0     C98613   9.856   6.239   7.686 -0.0323  0.7523 -1.4269
  748MOL0     C98614   9.729   6.312   7.664 -0.0090 -0.1260  1.0780
  748MOL0     C98615   9.745   6.443   7.584 -0.4129 -1.4699 -0.5021
  748MOL0     C98616   9.856   6.537   7.639 -0.4445 -0.1419 -0.4223
  748MOL0     C98617   9.854   6.673   7.580 -0.4541 -0.1644 -1.2681
  748MOL0     C98618   9.851   6.685   7.431  0.5876  0.0826  0.4592
  748MOL0     C98619   9.842   6.826   7.372  0.2600 -0.1802  1.5115
  748MOL0     C98620   9.855   6.819   7.220  0.4377  0.8218  0.2280
  748MOL0     N98621   9.780   6.921   7.147 -1.2723 -0.4601  0.4741
  748MOL0     C98622   9.666   6.987   7.190 -1.1362 -0.3256  0.0570
  748MOL0     C98623   9.629   7.056   7.081 -0.3922 -0.4912  0.1671
  748MOL0     C98624   9.521   7.162   7.067  0.0042  0.0231  0.3802
  748MOL0     C98625   9.390   7.102   7.010  0.1100  0.6711 -0.0591
  748MOL0     C98626   9.322   7.001   7.103  0.1700  0.4681 -1.0956
  748MOL0     C98627   9.274   7.075   7.228  0.7685  1.3197  0.5848
  748MOL0     O98628   9.150   7.040   7.288  0.0566 -0.3748  0.1382
  748MOL0     C98629   9.023   7.056   7.223 -0.5754 -0.5995  0.0645
  748MOL0     C98630   8.993   7.140   7.107 -0.8177 -0.7245  0.4376
  748MOL0     C98631   8.861   7.162   7.072  0.1365 -0.3934 -0.5803
  748MOL0     C98632   8.755   7.098   7.139  0.6234  0.4315 -0.2672
  748MOL0     C98633   8.617   7.128   7.099  0.0189 -0.7991 -0.2792
  748MOL0     O98634   8.512   7.085   7.174 -0.3598  0.4799 -0.3429
  748MOL0     C98635   8.384   7.114   7.137 -0.4222  0.0579  0.5705
  748MOL0     C98636   8.302   7.143   7.241 -0.5452 -0.6007  0.0129
  748MOL0     C98637   8.170   7.171   7.211 -0.3424  0.9460 -0.7404
  748MOL0     C98638   8.112   7.171   7.082  0.4441  0.1674 -0.3547
  748MOL0     O98639   7.968   7.190   7.065 -0.5914  0.7632 -0.2988
  748MOL0     C98640   7.920   7.228   6.932  0.0652  0.5715 -1.2299
  748MOL0     C98641   7.778   7.283   6.939 -0.1101  0.5680 -0.5015
  748MOL0     C98642   7.717   7.297   6.803  0.4433 -0.3593 -0.3765
  748MOL0     C98643   7.758   7.431   6.743 -0.4447  0.3957 -0.5510
  748MOL0     C98644   7.690   7.454   6.602  0.0679 -0.2747  0.1041
  748MOL0     C98645   7.730   7.584   6.549  0.4528 -0.5907  0.6655
  748MOL0     C98646   7.880   7.597   6.540  0.3071  0.4383  0.0180
  748MOL0     C98647   7.923   7.674   6.410 -0.1512 -0.0826 -0.7951
  748MOL0    Cl98648   8.090   7.676   6.391  0.1037 -0.4821  1.0135
  748MOL0     C98649   8.206   7.143   6.974 -0.2200 -0.3100  0.9106
  748MOL0     C98650   8.334   7.109   7.002  0.0041  0.5256 -0.0732
  748MOL0     O98651   8.613   7.202   6.995 -0.1933 -0.0177 -0.8889
  748MOL0     C98652   8.784   7.003   7.239  0.4540 -0.1097 -0.2119
  748MOL0     C98653   8.918   6.988   7.285 -0.4862  0.2324 -0.3684
  748MOL0     N98654   9.718   7.015   6.974 -0.4843 -0.5398  0.1447
  748MOL0     N98655   9.813   6.947   7.016  0.5714  0.4565  0.3102
  748MOL0     C98656  10.061   6.025   7.475  0.2875  0.1650 -0.2284
  748MOL0     C98657  10.186   5.953   7.475  0.3905 -0.5349 -0.1825
  748MOL0     C98658  10.565   5.737   7.518 -0.1509  0.3865  0.0895
  748MOL0     C98659  10.669   5.833   7.537  0.3639  0.5865  0.5827
  748MOL0     C98660  10.798   5.788   7.501 -0.6907 -0.3605  0.3587
  748MOL0     C98661  10.821   5.664   7.437 -0.2856  0.1685 -0.3499
  748MOL0     O98662  10.948   5.643   7.380  0.0443  0.4908 -0.3696
  748MOL0     C98663  11.062   5.733   7.418  0.3485 -0.3709  0.3540
  748MOL0     C98664  11.193   5.673   7.378 -0.9046  0.2232  0.1979
  748MOL0     C98665  11.218   5.687   7.222 -0.1439  1.0517  0.0605
  748MOL0     C98666  11.358   5.632   7.177 -0.3903 -1.5729  0.6778
  748MOL0     C98667  11.476   5.709   7.232 -0.2498  0.8312 -0.1090
  748MOL0     C98668  11.558   5.769   7.301  0.6533 -0.1042  0.3644
  748MOL0     C98669  10.718   5.571   7.421  0.1576 -0.0516 -0.3262
  748MOL0     C98670  10.588   5.608   7.459  0.1662 -0.8864  0.4679
  748MOL0     H98671  10.333   6.116   7.733 -1.6312 -0.9706  2.7208
  748MOL0     H98672  10.123   6.210   7.746  1.6130 -1.0402  0.6455
  748MOL0     H98673   9.928   6.306   7.736 -0.1333 -0.9721  1.2397
  748MOL0     H98674   9.834   6.150   7.746  1.0167 -0.5909 -2.9378
  748MOL0     H98675   9.691   6.321   7.766  0.8182  0.0740  1.3784
  748MOL0     H98676   9.673   6.244   7.600  1.1961 -1.1749  1.0877
  748MOL0     H98677   9.649   6.491   7.601 -0.5857 -1.9758 -0.0091
  748MOL0     H98678   9.755   6.421   7.477  2.5359  1.9382 -1.1304
  748MOL0     H98679   9.843   6.535   7.747 -1.2123 -0.0364 -0.5125
  748MOL0     H98680   9.953   6.494   7.610  1.3752  1.4209  2.8946
  748MOL0     H98681   9.939   6.726   7.623 -2.5431  0.0938  3.0434
  748MOL0     H98682   9.762   6.715   7.621 -0.2867 -0.7334 -0.2865
  748MOL0     H98683   9.767   6.624   7.396 -1.0311  3.4009 -2.1047
  748MOL0     H98684   9.935   6.633   7.384  0.4386 -0.3925  0.7117
  748MOL0     H98685   9.739   6.861   7.387 -0.8493 -2.6707  0.3279
  748MOL0     H98686   9.924   6.888   7.408  0.7594  0.1166 -0.0982
  748MOL0     H98687   9.804   6.728   7.187  0.7670  0.8266 -0.3149
  748MOL0     H98688   9.961   6.802   7.196 -0.2021  0.4444 -2.7043
  748MOL0     H98689   9.618   6.994   7.287  1.8655  0.6228  1.5827
  748MOL0     H98690   9.557   7.242   7.002 -0.1545 -0.1351  0.0966
  748MOL0     H98691   9.518   7.197   7.171 -0.5719 -2.6805  1.3661
  748MOL0     H98692   9.419   7.049   6.919 -1.0680 -0.3637  0.1443
  748MOL0     H98693   9.317   7.176   6.974  1.7071  1.8844 -0.9131
  748MOL0     H98694   9.235   6.957   7.055 -0.3102 -0.9990  0.9719
  748MOL0     H98695   9.392   6.918   7.117 -0.8747 -0.2437  0.1223
  748MOL0     H98696   9.277   7.182   7.203  0.5057  1.2596  0.2793
  748MOL0     H98697   9.345   7.072   7.311  2.7877 -2.5566 -1.0421
  748MOL0     H98698   9.065   7.203   7.056  0.4625 -0.9143  1.9389
  748MOL0     H98699   8.848   7.238   6.996  0.0108  1.4594  1.2032
  748MOL0     H98700   8.342   7.151   7.342 -1.7516  0.6519  0.4191
  748MOL0     H98701   8.105   7.207   7.290 -3.7246  0.1698 -2.9501
  748MOL0     H98702   7.925   7.141   6.866  0.4161 -0.0673 -0.3733
  748MOL0     H98703   7.975   7.315   6.893 -1.1839  1.8588 -0.2468
  748MOL0     H98704   7.784   7.378   6.993  1.0633  0.2882 -0.1071
  748MOL0     H98705   7.718   7.210   6.994  2.3568 -1.3802 -0.2208
  748MOL0     H98706   7.608   7.304   6.802  0.3250 -0.8598 -3.6393
  748MOL0     H98707   7.750   7.217   6.736  2.1052  0.4621 -0.5909
  748MOL0     H98708   7.758   7.517   6.810  1.6003  1.9398 -2.3960
  748MOL0     H98709   7.864   7.416   6.720 -0.0950  1.4459  0.3043
  748MOL0     H98710   7.582   7.445   6.614 -0.0941  0.7116 -0.4952
  748MOL0     H98711   7.727   7.368   6.545 -0.8630  0.0362 -1.0054
  748MOL0     H98712   7.699   7.662   6.619 -1.1287 -0.1493 -0.4856
  748MOL0     H98713   7.686   7.598   6.450  1.4319 -0.3436  0.2510
  748MOL0     H98714   7.904   7.655   6.630 -3.1717  1.7347  0.2577
  748MOL0     H98715   7.932   7.500   6.539 -0.9736 -0.2742  0.8024
  748MOL0     H98716   7.889   7.778   6.407  0.1061  0.0016 -0.8010
  748MOL0     H98717   7.873   7.620   6.329 -0.2663  1.0002 -1.4671
  748MOL0     H98718   8.186   7.135   6.868  1.0418 -0.2931  0.6575
  748MOL0     H98719   8.392   7.092   6.912  1.5743  0.6229  0.9034
  748MOL0     H98720   8.706   6.952   7.293 -0.9945  1.5058 -0.6834
  748MOL0     H98721   8.942   6.926   7.371  1.3913 -0.3572 -1.2571
  748MOL0     H98722   9.981   6.007   7.405 -1.8533 -0.5202  2.2339
  748MOL0     H98723  10.190   5.871   7.405 -3.8815 -1.3393  0.2379
  748MOL0     H98724  10.658   5.927   7.590 -2.3342 -1.2622  3.7028
  748MOL0     H98725  10.874   5.862   7.523 -0.4756 -0.5812  0.3649
  748MOL0     H98726  11.056   5.750   7.526 -3.8970 -0.1688  0.2658
  748MOL0     H98727  11.045   5.827   7.365 -0.6329 -2.3615 -3.1837
  748MOL0     H98728  11.266   5.722   7.443  2.1388 -4.0617  0.4334
  748MOL0     H98729  11.195   5.567   7.406  0.1109  0.0159 -0.5721
  748MOL0     H98730  11.188   5.785   7.182  1.1890  1.7562  0.7052
  748MOL0     H98731  11.148   5.615   7.179  3.9552 -3.1743 -0.3401
  748MOL0     H98732  11.373   5.532   7.217 -2.5776 -1.8078  1.0386
  748MOL0     H98733  11.377   5.637   7.069  3.7771  0.3102  1.2978
  748MOL0     H98734  11.631   5.822   7.359  0.4442  1.4022 -0.6758
  748MOL0     H98735  10.745   5.477   7.374  1.8308 -0.4417  1.2995
  748MOL0     H98736  10.507   5.539   7.437 -2.1489  1.5622  0.7797
  749MOL0     O98737   7.422   6.697   9.111 -0.1468  0.0946  1.2429
  749MOL0     C98738   7.382   6.776   9.200  0.0999  0.8070  0.1437
  749MOL0     O98739   7.463   6.842   9.288 -0.4209  0.5455  0.0943
  749MOL0     C98740   7.590   6.786   9.302 -0.8523  0.4642  0.3678
  749MOL0     C98741   7.702   6.830   9.222  0.4335  0.2510  0.7145
  749MOL0     C98742   7.834   6.779   9.252  0.2624  0.4008 -0.5405
  749MOL0     C98743   7.861   6.688   9.353  0.3378 -0.0434 -0.9368
  749MOL0     O98744   7.991   6.646   9.362  0.6147 -0.3877  0.6641
  749MOL0     C98745   8.024   6.512   9.406  0.4047  0.7478 -0.0133
  749MOL0     C98746   8.171   6.473   9.370  0.8023  0.8540  0.5264
  749MOL0     C98747   8.223   6.344   9.440 -0.1262 -0.3058  0.4481
  749MOL0     C98748   8.351   6.312   9.383 -1.2008  0.1398 -0.0083
  749MOL0     C98749   8.429   6.204   9.452 -0.1681 -0.4734 -0.2175
  749MOL0     C98750   8.376   6.063   9.421 -0.8034 -0.5967 -0.4369
  749MOL0     C98751   8.439   5.960   9.519 -0.4734 -0.5205  0.5925
  749MOL0     C98752   8.370   5.823   9.522 -0.2596  0.1520  0.6075
  749MOL0     N98753   8.224   5.815   9.566 -0.2785 -0.4697  0.0177
  749MOL0     C98754   8.120   5.764   9.494 -0.6555  0.4095  0.6972
  749MOL0     C98755   8.014   5.766   9.577 -0.0424 -1.6609 -0.6979
  749MOL0     C98756   7.877   5.726   9.539  1.0319  0.0410  0.2464
  749MOL0     C98757   7.812   5.826   9.439  1.4903  0.5014 -0.9977
  749MOL0     C98758   7.663   5.802   9.412 -1.3054  0.3158 -1.0909
  749MOL0     C98759   7.572   5.887   9.501  0.4591 -0.2810  0.3627
  749MOL0     O98760   7.452   5.902   9.425 -0.0718 -0.3595  0.6751
  749MOL0     C98761   7.343   5.961   9.481  0.6619  1.2227 -0.5266
  749MOL0     C98762   7.360   6.035   9.595 -0.2197 -0.5375 -0.3749
  749MOL0     C98763   7.252   6.110   9.641 -0.3841  0.4553 -0.3534
  749MOL0     C98764   7.123   6.097   9.586  0.3951 -0.4490 -0.0409
  749MOL0     C98765   7.008   6.175   9.631 -0.7654 -0.1416 -0.8925
  749MOL0     O98766   7.016   6.217   9.757  0.5600  0.2949 -0.3704
  749MOL0     C98767   6.910   6.279   9.815  0.4855 -0.8885  0.1048
  749MOL0     C98768   6.848   6.242   9.938  0.0477  0.2357  0.0119
  749MOL0     C98769   6.750   6.325   9.992 -0.5227 -0.6881 -0.5128
  749MOL0     C98770   6.698   6.438   9.925  0.0746  1.1757 -0.4937
  749MOL0     O98771   6.578   6.503   9.954 -0.3921  0.0756 -0.6786
  749MOL0     C98772   6.490   6.430  10.049 -0.3757 -0.5497 -0.6953
  749MOL0     C98773   6.435   6.308   9.983  0.0070 -0.3211  0.3681
  749MOL0     C98774   6.391   6.208  10.090 -0.1135 -0.5906  0.1046
  749MOL0     C98775   6.508   6.134  10.172 -1.0507 -0.2815  0.4539
  749MOL0     C98776   6.459   6.017  10.254 -0.2839 -0.7611  0.5724
  749MOL0     C98777   6.403   5.909  10.165 -0.0253  0.4542  1.1136
  749MOL0     C98778   6.478   5.877  10.035  0.1454  0.2350 -0.5472
  749MOL0     C98779   6.426   5.763   9.961  0.1664 -0.6196 -0.5663
  749MOL0    Cl98780   6.253   5.777   9.919  0.2980  0.3554 -0.6218
  749MOL0     C98781   6.757   6.471   9.807  0.0160 -0.5558 -0.1560
  749MOL0     C98782   6.876   6.406   9.758  1.1102 -0.3658  0.1858
  749MOL0     O98783   6.914   6.184   9.552 -0.0492 -0.7339  0.4978
  749MOL0     C98784   7.107   6.004   9.481  0.1952  1.4962  0.7314
  749MOL0     C98785   7.218   5.942   9.425 -0.4211 -0.0591  0.2576
  749MOL0     N98786   8.061   5.835   9.694  0.7788  0.1608 -0.9856
  749MOL0     N98787   8.186   5.855   9.690 -0.0259 -0.2892  0.3836
  749MOL0     C98788   7.753   6.637   9.425  0.0015 -0.1853  0.4346
  749MOL0     C98789   7.620   6.682   9.400  0.2162  0.4692  0.0435
  749MOL0     C98790   7.245   6.785   9.224  0.5357  0.1602  0.5781
  749MOL0     C98791   7.191   6.850   9.345  0.7969  0.4724 -0.5345
  749MOL0     C98792   7.044   6.861   9.354 -1.4791 -0.1745 -0.0090
  749MOL0     C98793   6.961   6.817   9.255 -1.0246  0.8291 -0.9673
  749MOL0     O98794   6.827   6.822   9.281 -0.3302 -0.5975  0.4485
  749MOL0     C98795   6.738   6.859   9.172 -0.0030  0.4302  0.2129
  749MOL0     C98796   6.598   6.886   9.244 -0.3137  0.5529 -0.3166
  749MOL0     C98797   6.495   6.950   9.157 -0.5958  0.4891  0.1522
  749MOL0     C98798   6.353   6.949   9.226 -0.3200  0.2610  0.6836
  749MOL0     C98799   6.255   6.996   9.128 -0.0170  0.1912 -0.3004
  749MOL0     C98800   6.183   7.035   9.036  0.2231 -0.6782  1.2339
  749MOL0     C98801   7.009   6.764   9.138  0.4833  0.4619 -0.3469
  749MOL0     C98802   7.151   6.739   9.126 -0.5943 -0.2569  0.7520
  749MOL0     H98803   7.705   6.900   9.139  2.2665  1.5920  1.8347
  749MOL0     H98804   7.923   6.813   9.200 -1.1091  2.8327 -1.4931
  749MOL0     H98805   7.958   6.440   9.358  2.8755 -1.4835 -0.2871
  749MOL0     H98806   8.006   6.506   9.514 -2.4433 -2.5443 -0.5311
  749MOL0     H98807   8.233   6.557   9.402 -0.6951  1.7191  1.2712
  749MOL0     H98808   8.175   6.441   9.266  3.6884 -6.0660  2.2023
  749MOL0     H98809   8.147   6.267   9.429 -3.3125  2.7899 -1.5172
  749MOL0     H98810   8.237   6.361   9.547  1.7292  1.7353 -0.0314
  749MOL0     H98811   8.345   6.297   9.274 -1.6752 -4.7937  0.4384
  749MOL0     H98812   8.418   6.396   9.399 -2.3282  1.1184 -0.2277
  749MOL0     H98813   8.433   6.233   9.557 -0.9922  1.8775 -0.7675
  749MOL0     H98814   8.531   6.217   9.414 -0.2980  0.4055 -0.2900
  749MOL0     H98815   8.400   6.032   9.319  0.2037 -0.4415 -0.2598
  749MOL0     H98816   8.268   6.073   9.435 -0.3081  1.5263  2.7420
  749MOL0     H98817   8.546   5.957   9.497 -0.6871 -0.8428 -0.4767
  749MOL0     H98818   8.431   6.002   9.620  4.0619  0.6017  0.6913
  749MOL0     H98819   8.441   5.773   9.588  4.5149  0.4136 -3.7341
  749MOL0     H98820   8.379   5.782   9.421 -0.2590 -1.2523  1.1469
  749MOL0     H98821   8.113   5.725   9.393  1.2147  2.3682 -0.2574
  749MOL0     H98822   7.812   5.717   9.626  1.3042 -0.3473  0.4171
  749MOL0     H98823   7.887   5.625   9.497  0.7071  0.8045 -1.7807
  749MOL0     H98824   7.874   5.820   9.349 -0.4097  0.4905 -2.3435
  749MOL0     H98825   7.811   5.924   9.487 -0.8288  1.2501 -2.4508
  749MOL0     H98826   7.642   5.817   9.305 -3.1231  0.5836 -0.7342
  749MOL0     H98827   7.657   5.697   9.442  2.0617  0.4157  0.3549
  749MOL0     H98828   7.611   5.988   9.522  1.9514  0.1853 -3.7051
  749MOL0     H98829   7.561   5.834   9.596  2.0914  0.8720  1.2513
  749MOL0     H98830   7.453   6.040   9.651 -1.6813  0.7762  2.0654
  749MOL0     H98831   7.278   6.186   9.713 -3.0335  2.1823 -1.0811
  749MOL0     H98832   6.872   6.148   9.988 -3.7459 -1.2288 -0.6037
  749MOL0     H98833   6.704   6.303  10.088 -0.0834  0.4190 -0.0289
  749MOL0     H98834   6.400   6.489  10.070 -0.3736 -0.8318  0.1371
  749MOL0     H98835   6.542   6.412  10.143 -1.1889  0.2527 -0.0721
  749MOL0     H98836   6.503   6.259   9.914 -1.2077 -3.0798  0.9780
  749MOL0     H98837   6.348   6.334   9.923 -1.2182 -3.6737  0.4806
  749MOL0     H98838   6.323   6.135  10.046 -0.3315 -0.8420  0.8394
  749MOL0     H98839   6.321   6.267  10.150 -1.6693 -1.1383 -1.0962
  749MOL0     H98840   6.594   6.109  10.108  0.9964 -0.3222  3.0404
  749MOL0     H98841   6.549   6.217  10.231  0.5734  1.6976 -3.1040
  749MOL0     H98842   6.376   6.052  10.316  0.8999  2.0057  0.7582
  749MOL0     H98843   6.534   5.985  10.326  1.2280  2.7419  0.7592
  749MOL0     H98844   6.298   5.932  10.146 -0.8694 -0.7125  3.9373
  749MOL0     H98845   6.394   5.815  10.220 -0.1808  0.1192  0.5259
  749MOL0     H98846   6.478   5.965   9.971 -1.6090 -1.3519 -2.8915
  749MOL0     H98847   6.581   5.849  10.058 -1.2346 -3.8376  1.7443
  749MOL0     H98848   6.448   5.672  10.018  1.8255 -0.1638 -0.4148
  749MOL0     H98849   6.478   5.770   9.865  1.1464  0.3097  0.0132
  749MOL0     H98850   6.705   6.556   9.763  0.6603 -0.8104 -1.4602
  749MOL0     H98851   6.930   6.420   9.665 -1.2698 -3.7396 -1.9023
  749MOL0     H98852   7.012   5.992   9.429  0.2486 -0.1958  0.9620
  749MOL0     H98853   7.228   5.875   9.340  0.0393 -1.5387  1.4494
  749MOL0     H98854   7.775   6.569   9.507  1.8840 -0.7323 -0.4733
  749MOL0     H98855   7.548   6.634   9.465  3.1325 -1.2879  2.1868
  749MOL0     H98856   7.248   6.886   9.430 -1.2621  4.1830 -0.5058
  749MOL0     H98857   7.001   6.906   9.443  0.5609 -1.7099  1.8346
  749MOL0     H98858   6.721   6.775   9.104 -3.1707 -0.6383  2.0832
  749MOL0     H98859   6.775   6.949   9.121 -1.9824  0.3667 -1.5155
  749MOL0     H98860   6.557   6.799   9.296 -1.2183  2.1831  1.8850
  749MOL0     H98861   6.621   6.956   9.325 -0.6020 -1.8628  2.0175
  749MOL0     H98862   6.493   6.891   9.065  1.6518 -0.0612  0.3942
  749MOL0     H98863   6.524   7.053   9.135  1.0331 -0.0397 -0.3339
  749MOL0     H98864   6.332   6.847   9.261  0.9390 -0.3466 -0.2227
  749MOL0     H98865   6.357   7.013   9.314 -3.0967 -0.1162  1.1580
  749MOL0     H98866   6.112   7.064   8.961  0.8211  0.2877  1.0274
  749MOL0     H98867   6.936   6.714   9.075 -1.2622  4.5055 -1.9075
  749MOL0     H98868   7.190   6.684   9.042  0.7806  0.3433  0.9517
  750MOL0     O98869   0.521   1.941   5.026 -0.5266 -0.4471  0.1612
  750MOL0     C98870   0.534   2.033   5.106 -0.0520 -0.1332  0.6557
  750MOL0     O98871   0.444   2.102   5.164 -0.2694  0.7528 -0.3701
  750MOL0     C98872   0.315   2.094   5.131 -0.5339  0.2812 -0.1837
  750MOL0     C98873   0.222   2.032   5.217 -0.2127  0.0682  0.0088
  750MOL0     C98874   0.083   2.051   5.192 -1.2624  0.6527 -0.2290
  750MOL0     C98875   0.038   2.103   5.070  0.6193 -0.2940  0.6760
  750MOL0     O98876  -0.095   2.104   5.036  0.0078 -0.6948  0.3688
  750MOL0     C98877  -0.185   2.096   5.149 -0.7290 -0.2070 -0.3537
  750MOL0     C98878  -0.329   2.149   5.128  0.4167  0.2969 -0.5785
  750MOL0     C98879  -0.386   2.068   5.006  0.5869 -0.2976 -0.0962
  750MOL0     C98880  -0.532   2.116   4.979 -0.0681  0.4227  0.3279
  750MOL0     C98881  -0.594   2.020   4.874  0.0534 -0.1394 -0.0952
  750MOL0     C98882  -0.706   2.090   4.801 -0.1364 -0.1768 -0.8832
  750MOL0     C98883  -0.830   2.105   4.888 -0.5220  0.1275  0.2634
  750MOL0     C98884  -0.960   2.137   4.805 -0.3293 -0.7238  0.0982
  750MOL0     N98885  -0.925   2.250   4.718  0.5429 -0.2370 -0.3400
  750MOL0     C98886  -1.014   2.357   4.702 -0.2700 -0.2412  0.6098
  750MOL0     C98887  -0.976   2.416   4.586  0.8355  0.4753  0.1895
  750MOL0     C98888  -1.035   2.531   4.519 -0.2951 -0.4366  0.6178
  750MOL0     C98889  -1.155   2.484   4.439 -0.8823  0.5155  1.2156
  750MOL0     C98890  -1.192   2.598   4.343  0.2074 -1.0469  0.0997
  750MOL0     C98891  -1.146   2.584   4.203 -0.7039  0.5834  0.0037
  750MOL0     O98892  -1.241   2.647   4.113  0.4036 -0.3058  0.0936
  750MOL0     C98893  -1.215   2.687   3.990  0.9004  0.6675 -0.3263
  750MOL0     C98894  -1.320   2.750   3.921 -1.0070 -0.4798  0.1838
  750MOL0     C98895  -1.310   2.813   3.794 -0.6680  0.3318 -0.3501
  750MOL0     C98896  -1.182   2.802   3.727  0.2197 -0.2895  0.2512
  750MOL0     C98897  -1.169   2.839   3.587 -0.0247 -0.4023 -0.4205
  750MOL0     O98898  -1.057   2.811   3.533  0.0595  0.7022  0.0106
  750MOL0     C98899  -1.039   2.836   3.398  0.3022 -0.6752  0.7595
  750MOL0     C98900  -1.068   2.748   3.292  0.7129 -0.1781 -0.3885
  750MOL0     C98901  -1.049   2.788   3.160  0.3532  1.0263  0.5892
  750MOL0     C98902  -0.989   2.914   3.130 -0.2270 -0.3002  0.2837
  750MOL0     O98903  -0.938   2.964   3.011 -0.1745 -0.7390 -0.5272
  750MOL0     C98904  -0.905   2.869   2.922  0.1016  0.0567 -0.0683
  750MOL0     C98905  -1.014   2.860   2.822 -0.0064  0.0502 -0.6082
  750MOL0     C98906  -1.075   2.996   2.784 -0.6014 -0.3977 -0.1557
  750MOL0     C98907  -0.981   3.090   2.706  0.5878 -0.1154  0.0028
  750MOL0     C98908  -1.041   3.216   2.645 -0.5172 -0.0322 -0.8537
  750MOL0     C98909  -1.126   3.294   2.756  0.1956 -0.5328 -0.6618
  750MOL0     C98910  -1.201   3.415   2.695 -0.6630 -0.5006 -0.3124
  750MOL0     C98911  -1.303   3.470   2.798  0.2246 -0.7861  0.4547
  750MOL0    Cl98912  -1.465   3.386   2.787  0.0835  0.0983  0.7108
  750MOL0     C98913  -0.977   3.004   3.231  0.1928 -1.0518 -0.2735
  750MOL0     C98914  -1.004   2.968   3.365  0.0125 -0.3918  0.4704
  750MOL0     O98915  -1.269   2.882   3.534 -0.4300  0.4847 -0.4301
  750MOL0     C98916  -1.075   2.757   3.810 -0.1445 -0.7096  0.2310
  750MOL0     C98917  -1.089   2.702   3.935  0.1618  0.9396  1.4470
  750MOL0     N98918  -0.881   2.337   4.534  0.6750  0.0283  0.7031
  750MOL0     N98919  -0.847   2.241   4.609  0.1291 -0.2506  0.0158
  750MOL0     C98920   0.132   2.150   4.983 -0.3869 -0.5046 -0.3890
  750MOL0     C98921   0.264   2.155   5.013  0.2009 -0.2642 -1.0531
  750MOL0     C98922   0.678   2.066   5.140  0.2221 -0.5336  0.5927
  750MOL0     C98923   0.779   1.971   5.123 -0.6139  0.0736  0.2403
  750MOL0     C98924   0.912   2.008   5.134  0.1359 -0.3587 -0.9018
  750MOL0     C98925   0.940   2.134   5.188  0.1193 -0.8329 -0.0943
  750MOL0     O98926   1.072   2.178   5.187  0.3970 -0.3726  0.3307
  750MOL0     C98927   1.156   2.107   5.280  0.3153 -1.3260  0.2563
  750MOL0     C98928   1.307   2.124   5.235  1.0976 -0.0349 -1.0215
  750MOL0     C98929   1.367   2.263   5.276 -0.4431  0.2603 -0.0332
  750MOL0     C98930   1.498   2.300   5.223  0.0252  0.2781 -0.3899
  750MOL0     C98931   1.538   2.420   5.297  0.2459 -1.5365  0.0088
  750MOL0     C98932   1.552   2.509   5.380 -0.6495  0.0908 -0.1516
  750MOL0     C98933   0.836   2.221   5.223  0.1127 -0.3021 -0.1751
  750MOL0     C98934   0.707   2.191   5.189 -0.4947 -1.2098 -0.1152
  750MOL0     H98935   0.244   1.994   5.316 -1.9721  0.2277  0.4799
  750MOL0     H98936   0.034   2.017   5.282  1.9524 -2.1284  0.6861
  750MOL0     H98937  -0.154   2.154   5.237  3.0836  1.0779 -2.3082
  750MOL0     H98938  -0.187   1.990   5.175  1.3176 -0.8064 -2.3312
  750MOL0     H98939  -0.327   2.258   5.117  0.7389  0.3404 -0.1525
  750MOL0     H98940  -0.399   2.122   5.208 -0.1601 -1.4538 -1.6380
  750MOL0     H98941  -0.383   1.962   5.035  3.0792 -0.5456 -1.0177
  750MOL0     H98942  -0.324   2.077   4.917  2.0623  2.0638  1.0874
  750MOL0     H98943  -0.605   2.121   5.060 -3.1711 -0.5040 -2.2095
  750MOL0     H98944  -0.529   2.218   4.938 -1.9465  0.5476  0.4249
  750MOL0     H98945  -0.621   1.927   4.925  1.8689 -0.8042 -0.2789
  750MOL0     H98946  -0.521   2.004   4.795  2.2869  3.4924  0.9905
  750MOL0     H98947  -0.719   2.027   4.713 -2.7187 -2.6088  1.0382
  750MOL0     H98948  -0.668   2.188   4.772  3.0042 -0.1576  2.4947
  750MOL0     H98949  -0.845   2.010   4.941  0.0695  0.6670  1.4062
  750MOL0     H98950  -0.808   2.185   4.959  3.9843 -0.4430 -0.2344
  750MOL0     H98951  -1.033   2.176   4.876 -0.3646  1.9951 -1.2824
  750MOL0     H98952  -1.002   2.064   4.736 -0.6422  0.4513 -0.9868
  750MOL0     H98953  -1.097   2.370   4.771 -1.2703  0.2462 -0.6623
  750MOL0     H98954  -0.959   2.565   4.448  0.4244 -0.8803  1.1447
  750MOL0     H98955  -1.075   2.614   4.577 -2.3331  0.2553 -1.6523
  750MOL0     H98956  -1.222   2.462   4.522 -0.0545 -2.1921  1.2819
  750MOL0     H98957  -1.128   2.397   4.377 -2.7648  0.8115 -0.1042
  750MOL0     H98958  -1.301   2.599   4.339  0.1792 -1.4775  0.6133
  750MOL0     H98959  -1.154   2.691   4.386  0.7714 -0.1883 -2.0979
  750MOL0     H98960  -1.151   2.477   4.184  2.2568  0.1840  1.0837
  750MOL0     H98961  -1.045   2.622   4.192 -0.6225 -0.3181 -3.9458
  750MOL0     H98962  -1.410   2.758   3.981 -1.0143 -1.3555  0.3066
  750MOL0     H98963  -1.398   2.865   3.755 -0.4706 -1.0633 -2.8603
  750MOL0     H98964  -1.098   2.644   3.297 -0.4132  0.0343 -1.9867
  750MOL0     H98965  -1.070   2.720   3.078  1.6195 -0.2127  1.2340
  750MOL0     H98966  -0.873   2.776   2.972 -2.2970  0.4630  2.4858
  750MOL0     H98967  -0.821   2.910   2.865 -0.6410  3.3194  0.9669
  750MOL0     H98968  -1.099   2.812   2.869  0.9421  1.6536  3.1046
  750MOL0     H98969  -0.972   2.805   2.737  1.9807 -0.1261  0.4148
  750MOL0     H98970  -1.126   3.034   2.874 -2.4280 -1.9731 -0.4567
  750MOL0     H98971  -1.160   2.989   2.716 -0.7187 -2.9314  0.1497
  750MOL0     H98972  -0.897   3.116   2.771  2.7466  1.2731 -3.0889
  750MOL0     H98973  -0.947   3.027   2.623 -0.5949 -0.4019 -0.2809
  750MOL0     H98974  -1.111   3.184   2.568 -1.5381 -1.9836  0.7718
  750MOL0     H98975  -0.956   3.275   2.610  1.0564 -1.0755  0.9753
  750MOL0     H98976  -1.056   3.314   2.838 -0.4935  1.3917 -0.4802
  750MOL0     H98977  -1.203   3.226   2.792  0.4619 -0.3543  0.2700
  750MOL0     H98978  -1.132   3.493   2.662 -1.2354  0.9164  1.6396
  750MOL0     H98979  -1.255   3.381   2.607  0.0019 -0.4592 -0.7489
  750MOL0     H98980  -1.317   3.575   2.771  2.1587 -0.0747  1.9969
  750MOL0     H98981  -1.261   3.472   2.899  0.4134 -0.8956  0.3782
  750MOL0     H98982  -0.923   3.096   3.213 -3.0113  1.6538  2.6662
  750MOL0     H98983  -0.997   3.035   3.450  0.5860 -1.2114  1.0789
  750MOL0     H98984  -0.973   2.773   3.777 -0.4447  0.1675 -0.3027
  750MOL0     H98985  -0.994   2.669   3.977  0.7367  1.2504  0.4254
  750MOL0     H98986   0.105   2.188   4.885 -2.4092  0.2830  0.4297
  750MOL0     H98987   0.336   2.211   4.953  1.2205  0.5001  0.7965
  750MOL0     H98988   0.761   1.873   5.080  2.9223  0.0641 -1.5400
  750MOL0     H98989   0.990   1.935   5.113  0.2260 -0.7569  0.7271
  750MOL0     H98990   1.131   2.001   5.273  0.7914 -1.3207 -2.5162
  750MOL0     H98991   1.140   2.155   5.377 -3.0770 -3.2718  0.8300
  750MOL0     H98992   1.363   2.043   5.282  3.0408  0.1749 -2.8052
  750MOL0     H98993   1.319   2.116   5.126  2.8930  1.4337 -0.9888
  750MOL0     H98994   1.378   2.249   5.384  1.8069 -1.7936 -0.4528
  750MOL0     H98995   1.299   2.349   5.273 -1.6932 -0.3887  3.9270
  750MOL0     H98996   1.569   2.218   5.241 -1.6862 -1.0882  0.4816
  750MOL0     H98997   1.479   2.313   5.116  0.7919  1.8543 -0.3501
  750MOL0     H98998   1.556   2.594   5.446  1.1410  0.6927 -0.9643
  750MOL0     H98999   0.859   2.320   5.262 -2.0923 -0.2916  1.2537
  750MOL0     H99000   0.623   2.257   5.209  0.2176 -0.2954 -0.0920
  751MOL0     O99001   5.487   0.120   9.595  0.0204 -0.1876  0.0721
  751MOL0     C99002   5.473   0.241   9.592  0.0696  0.6067 -1.1289
  751MOL0     O99003   5.566   0.334   9.575  0.2990 -0.2503  0.1428
  751MOL0     C99004   5.692   0.280   9.557  0.1727 -0.4303  0.3218
  751MOL0     C99005   5.770   0.252   9.666 -0.3743 -0.2292  0.4226
  751MOL0     C99006   5.904   0.223   9.659  0.5991  0.4803 -0.1837
  751MOL0     C99007   5.965   0.212   9.534 -0.4243  0.4231 -0.5581
  751MOL0     O99008   6.099   0.184   9.518  0.2127 -0.0991 -0.0204
  751MOL0     C99009   6.171   0.269   9.424  0.3187 -0.3309  0.4179
  751MOL0     C99010   6.322   0.247   9.438  0.0085 -0.3090 -0.9108
  751MOL0     C99011   6.413   0.328   9.348 -0.1682  0.2212  0.4799
  751MOL0     C99012   6.546   0.257   9.308 -0.8348  0.4202  0.3592
  751MOL0     C99013   6.626   0.352   9.217  0.4611 -0.1109 -0.3842
  751MOL0     C99014   6.746   0.286   9.145  0.5250  0.1186  0.2576
  751MOL0     C99015   6.814   0.395   9.053 -1.0731 -0.1320  0.0458
  751MOL0     C99016   6.928   0.471   9.124 -0.6252 -0.3814  0.2251
  751MOL0     N99017   7.047   0.380   9.130 -0.0781  0.1316 -0.3458
  751MOL0     C99018   7.155   0.412   9.194 -0.2842  0.1069  0.4656
  751MOL0     C99019   7.221   0.299   9.221 -0.1180  0.3078  0.2959
  751MOL0     C99020   7.353   0.281   9.300 -0.8582 -1.2363 -0.2164
  751MOL0     C99021   7.478   0.248   9.204  0.8986  0.7645 -0.3434
  751MOL0     C99022   7.617   0.239   9.265  0.0603  0.6081 -0.1071
  751MOL0     C99023   7.727   0.196   9.167  0.0184  0.5664 -0.7214
  751MOL0     O99024   7.779   0.067   9.198  0.2075  0.2031  0.0059
  751MOL0     C99025   7.891   0.056   9.278 -0.8503 -0.3211 -1.6765
  751MOL0     C99026   7.978   0.150   9.334 -0.1603  0.5934 -0.1272
  751MOL0     C99027   8.103   0.125   9.392  1.0713 -0.4005 -0.4457
  751MOL0     C99028   8.135  -0.009   9.413  0.1442  0.3469  0.1537
  751MOL0     C99029   8.257  -0.042   9.485 -0.1903 -0.3321  0.4568
  751MOL0     O99030   8.327   0.065   9.512 -0.3991 -0.3310  1.0719
  751MOL0     C99031   8.444   0.047   9.587 -0.6458 -0.4021 -0.7927
  751MOL0     C99032   8.562   0.019   9.526 -0.5525 -0.2644  0.3109
  751MOL0     C99033   8.670  -0.002   9.594 -0.4177  0.4078  1.2367
  751MOL0     C99034   8.679   0.020   9.732  0.0192  0.2887  0.6606
  751MOL0     O99035   8.801   0.016   9.788 -0.1117  0.2968  0.1078
  751MOL0     C99036   8.838   0.135   9.858  0.5682 -0.0805 -0.1384
  751MOL0     C99037   8.833   0.124  10.008  0.2966 -0.0649 -0.5785
  751MOL0     C99038   8.918   0.016  10.076 -0.3654 -1.0429  0.7104
  751MOL0     C99039   9.072   0.023  10.063 -0.1356 -0.2283  0.3056
  751MOL0     C99040   9.111  -0.085   9.967  0.3372  0.7543  0.4277
  751MOL0     C99041   9.259  -0.078   9.935  0.4325  0.2876 -0.7252
  751MOL0     C99042   9.301  -0.161   9.810  0.5622 -0.0668 -0.0432
  751MOL0     C99043   9.308  -0.306   9.829 -0.1532 -0.3871 -1.5451
  751MOL0    Cl99044   9.416  -0.358   9.959  0.0228 -0.3845 -0.2365
  751MOL0     C99045   8.561   0.062   9.800  0.1086 -0.9286 -0.0637
  751MOL0     C99046   8.444   0.065   9.730 -0.8589  0.3578 -0.3591
  751MOL0     O99047   8.277  -0.159   9.527  0.2204  0.1086 -0.7529
  751MOL0     C99048   8.046  -0.107   9.366 -0.9086  0.6549  1.1027
  751MOL0     C99049   7.934  -0.078   9.290 -0.1084  0.1756 -0.1271
  751MOL0     N99050   7.151   0.192   9.160 -0.2295 -0.2111 -0.4311
  751MOL0     N99051   7.052   0.245   9.113  0.9304  0.2714 -0.1702
  751MOL0     C99052   5.885   0.230   9.424 -0.2379 -0.0281 -0.1702
  751MOL0     C99053   5.747   0.266   9.435 -0.8153  0.1424 -0.2985
  751MOL0     C99054   5.333   0.301   9.601  0.2723  0.5170 -0.7545
  751MOL0     C99055   5.226   0.214   9.561 -0.3793 -1.0964 -0.5071
  751MOL0     C99056   5.099   0.273   9.554  0.2459  0.2449 -0.2658
  751MOL0     C99057   5.071   0.411   9.581  0.0595  0.4719  0.0147
  751MOL0     O99058   4.950   0.476   9.575 -0.0528  0.7599 -0.4572
  751MOL0     C99059   4.827   0.413   9.529 -0.4677  0.3193 -0.2014
  751MOL0     C99060   4.752   0.356   9.643  0.5709  0.6777  0.0837
  751MOL0     C99061   4.677   0.461   9.729 -0.1587  0.7608  0.6382
  751MOL0     C99062   4.764   0.576   9.781  0.4252 -0.8538  0.3238
  751MOL0     C99063   4.692   0.666   9.868  1.0115 -0.5071  0.7069
  751MOL0     C99064   4.621   0.747   9.921  0.4250  0.8252 -0.3401
  751MOL0     C99065   5.187   0.497   9.612  0.3407 -0.4514 -0.0551
  751MOL0     C99066   5.312   0.436   9.635 -0.1567 -0.3118  0.0526
  751MOL0     H99067   5.718   0.269   9.760 -1.7331 -0.1985 -0.3116
  751MOL0     H99068   5.964   0.206   9.747  2.3860  3.5158 -0.6982
  751MOL0     H99069   6.150   0.376   9.432 -2.1361 -0.4959 -1.9764
  751MOL0     H99070   6.142   0.248   9.320 -0.2560  0.1616  0.4702
  751MOL0     H99071   6.346   0.142   9.416  2.7320 -0.3704  1.7491
  751MOL0     H99072   6.339   0.282   9.540 -2.1107 -0.6251 -0.3973
  751MOL0     H99073   6.429   0.422   9.401 -3.0740  0.6291  0.7934
  751MOL0     H99074   6.364   0.368   9.259  1.1524  0.4011 -0.1908
  751MOL0     H99075   6.620   0.229   9.383  0.2045 -1.9542 -1.4267
  751MOL0     H99076   6.521   0.172   9.243  2.7164 -0.4810 -0.0080
  751MOL0     H99077   6.667   0.435   9.276  0.6914 -0.0620 -0.6105
  751MOL0     H99078   6.555   0.382   9.139 -1.2769 -1.6707  0.4995
  751MOL0     H99079   6.709   0.200   9.089 -1.0033 -0.2763  1.7877
  751MOL0     H99080   6.812   0.241   9.219 -1.0019  1.1434  2.3729
  751MOL0     H99081   6.863   0.345   8.969 -0.5378  1.6145 -0.7308
  751MOL0     H99082   6.735   0.463   9.021 -0.1108  0.4145 -1.2658
  751MOL0     H99083   6.893   0.505   9.222 -2.4882 -0.2016 -0.4685
  751MOL0     H99084   6.956   0.559   9.066  3.0252 -1.2565  0.3887
  751MOL0     H99085   7.196   0.511   9.210  1.0985 -0.1432 -1.2168
  751MOL0     H99086   7.345   0.205   9.378  0.2707  0.0460  1.1996
  751MOL0     H99087   7.379   0.375   9.349 -1.0495 -0.0698 -2.2344
  751MOL0     H99088   7.496   0.328   9.131  2.9260 -1.5350 -2.6003
  751MOL0     H99089   7.463   0.156   9.147  0.4449  1.8450 -2.0450
  751MOL0     H99090   7.629   0.331   9.324 -0.8387 -1.1329  2.9916
  751MOL0     H99091   7.602   0.166   9.344  2.3568  2.5563  2.3224
  751MOL0     H99092   7.805   0.273   9.167  0.1768  0.4054 -0.6337
  751MOL0     H99093   7.687   0.208   9.066  2.6340  3.4623 -1.5774
  751MOL0     H99094   7.945   0.254   9.329 -0.0641  0.6116 -0.3963
  751MOL0     H99095   8.168   0.197   9.439  3.0504 -3.1284  1.3118
  751MOL0     H99096   8.556  -0.008   9.421 -1.7404 -3.0620  1.0041
  751MOL0     H99097   8.761  -0.030   9.541 -1.0738  1.1743 -0.3397
  751MOL0     H99098   8.782   0.219   9.817  0.0437 -1.2067 -1.8604
  751MOL0     H99099   8.939   0.169   9.836  0.7076  0.1241  0.7825
  751MOL0     H99100   8.732   0.095  10.039  0.1747 -0.3204 -1.2092
  751MOL0     H99101   8.843   0.223  10.053 -3.3647  0.9165 -1.5717
  751MOL0     H99102   8.890  -0.084  10.040 -1.8624 -0.6759  0.8182
  751MOL0     H99103   8.890   0.012  10.182 -1.2934  1.3737  0.6103
  751MOL0     H99104   9.094   0.120  10.017  1.8331  0.0858  1.7615
  751MOL0     H99105   9.129   0.009  10.156  2.9249  0.3576 -1.3682
  751MOL0     H99106   9.058  -0.074   9.872 -2.8034 -0.3844  1.9087
  751MOL0     H99107   9.096  -0.183  10.013  5.0529 -0.9476 -1.0229
  751MOL0     H99108   9.314  -0.102  10.027  0.3060  0.3351 -0.6372
  751MOL0     H99109   9.289   0.025   9.914  0.2829  0.3650 -0.5647
  751MOL0     H99110   9.228  -0.135   9.733 -0.8912  2.3721  2.0059
  751MOL0     H99111   9.397  -0.128   9.770  0.4184 -2.5805 -2.8820
  751MOL0     H99112   9.333  -0.346   9.731  1.1595 -2.4120 -0.4454
  751MOL0     H99113   9.203  -0.333   9.844  0.2192 -1.0041  0.2696
  751MOL0     H99114   8.556   0.084   9.906 -2.8728 -0.4138 -0.2216
  751MOL0     H99115   8.344   0.075   9.771 -1.7408 -0.8612 -2.1124
  751MOL0     H99116   8.074  -0.206   9.399 -0.7038  0.8386  1.4881
  751MOL0     H99117   7.877  -0.165   9.257  3.0188 -2.3756  0.6677
  751MOL0     H99118   5.927   0.205   9.327 -2.3678  0.9658 -1.4245
  751MOL0     H99119   5.696   0.284   9.341 -2.1304  0.1731  0.3964
  751MOL0     H99120   5.254   0.115   9.526  0.4935 -1.0682  0.0834
  751MOL0     H99121   5.020   0.202   9.536  3.1991 -4.5413  3.2888
  751MOL0     H99122   4.849   0.332   9.460  0.4925  0.1487  0.2897
  751MOL0     H99123   4.758   0.491   9.494 -2.2986 -0.4562  1.4757
  751MOL0     H99124   4.674   0.285   9.615 -0.5480  0.7930  2.6624
  751MOL0     H99125   4.824   0.301   9.705  0.3000 -1.3396 -1.3086
  751MOL0     H99126   4.622   0.397   9.799 -1.1586  0.4477 -0.4007
  751MOL0     H99127   4.594   0.500   9.670  0.2333 -0.6941 -0.9744
  751MOL0     H99128   4.860   0.537   9.815  0.0273 -1.1809  1.0984
  751MOL0     H99129   4.787   0.641   9.696 -0.4606 -1.3724 -0.3277
  751MOL0     H99130   4.579   0.822   9.985  1.4202  0.9892  0.1305
  751MOL0     H99131   5.176   0.604   9.619  0.4918 -0.4174 -0.3156
  751MOL0     H99132   5.385   0.513   9.657  2.9880 -2.9493 -0.3514
  752MOL0     O99133   9.434  10.197   7.745 -0.1746 -0.1697  0.0012
  752MOL0     C99134   9.498  10.111   7.682  1.1824 -0.2733 -0.4250
  752MOL0     O99135   9.632  10.098   7.683  0.2405  0.3318 -0.6815
  752MOL0     C99136   9.717  10.179   7.743  0.2388 -0.5665  0.6361
  752MOL0     C99137   9.704  10.278   7.839  0.2214 -0.6645 -0.2670
  752MOL0     C99138   9.812  10.360   7.887  0.8129  0.8007 -0.6086
  752MOL0     C99139   9.938  10.345   7.832  0.0934  0.8314 -0.8371
  752MOL0     O99140  10.038  10.435   7.864  0.2886  0.0139  0.4514
  752MOL0     C99141  10.179  10.401   7.846 -0.0160 -0.3897 -0.3370
  752MOL0     C99142  10.257  10.512   7.913  0.4394 -0.0980 -0.2828
  752MOL0     C99143  10.406  10.507   7.879 -0.0478 -0.8742  1.1041
  752MOL0     C99144  10.499  10.591   7.964 -0.9782 -0.2931  0.9060
  752MOL0     C99145  10.633  10.630   7.897 -0.2233  0.0687 -0.1321
  752MOL0     C99146  10.725  10.518   7.846  0.4223 -0.7577 -0.3843
  752MOL0     C99147  10.854  10.576   7.782  0.4289 -0.1297  0.5997
  752MOL0     C99148  10.947  10.662   7.867  0.4601  0.3441 -0.6222
  752MOL0     N99149  11.070  10.696   7.781 -0.2476 -0.0405 -0.0376
  752MOL0     C99150  11.145  10.597   7.712 -0.9569 -0.0902  0.2711
  752MOL0     C99151  11.260  10.662   7.672 -0.4550 -0.4998  0.0177
  752MOL0     C99152  11.376  10.601   7.589 -0.1879 -0.7898 -0.4499
  752MOL0     C99153  11.509  10.600   7.670  0.4050 -0.0834 -0.7437
  752MOL0     C99154  11.623  10.525   7.608  0.3992  0.5807 -0.9328
  752MOL0     C99155  11.745  10.509   7.710 -0.1543 -0.7928  0.0066
  752MOL0     O99156  11.844  10.417   7.655 -0.4588  0.3770 -1.1219
  752MOL0     C99157  11.930  10.458   7.559 -0.1378  0.1099 -1.6298
  752MOL0     C99158  12.037  10.369   7.539 -0.0439 -1.0591 -0.1657
  752MOL0     C99159  12.157  10.399   7.464 -0.3100  1.1097 -0.1787
  752MOL0     C99160  12.153  10.521   7.392 -0.7698 -0.2759 -0.7345
  752MOL0     C99161  12.270  10.553   7.302  0.5053 -0.0944 -0.6662
  752MOL0     O99162  12.383  10.473   7.324 -0.1432 -0.5741  0.2347
  752MOL0     C99163  12.486  10.498   7.240  0.1019 -0.5601 -0.5179
  752MOL0     C99164  12.573  10.602   7.246  0.1632 -0.0435  0.6433
  752MOL0     C99165  12.683  10.605   7.152  0.6716 -0.2859  0.6196
  752MOL0     C99166  12.702  10.500   7.057 -0.1316  0.2176  0.0699
  752MOL0     O99167  12.814  10.501   6.971  0.4814  0.5357  0.7562
  752MOL0     C99168  12.831  10.417   6.851  0.6042  0.2370  0.0156
  752MOL0     C99169  12.969  10.420   6.796 -0.5017  0.2670  1.3866
  752MOL0     C99170  13.083  10.402   6.894  0.1458 -0.0860 -0.5788
  752MOL0     C99171  13.210  10.399   6.808  0.1306 -0.3587  1.0539
  752MOL0     C99172  13.333  10.337   6.884  0.2086 -0.1964  0.2246
  752MOL0     C99173  13.461  10.335   6.804  0.2164 -1.0702 -0.9718
  752MOL0     C99174  13.567  10.250   6.874  0.1419 -0.4901 -0.1046
  752MOL0     C99175  13.705  10.283   6.822  0.5387 -0.0575  0.0534
  752MOL0    Cl99176  13.820  10.166   6.892 -0.3002 -0.8451  0.3912
  752MOL0     C99177  12.615  10.390   7.061 -0.1120 -0.5912 -0.5923
  752MOL0     C99178  12.507  10.392   7.154 -0.2015  0.0856 -0.0584
  752MOL0     O99179  12.265  10.649   7.229 -0.0066 -1.3364 -0.4122
  752MOL0     C99180  12.044  10.615   7.401  0.0441 -0.8069  0.1404
  752MOL0     C99181  11.939  10.579   7.486 -0.2253  0.2950 -0.6036
  752MOL0     N99182  11.246  10.798   7.704  0.1700  0.7372 -0.7763
  752MOL0     N99183  11.138  10.812   7.768  0.3312  0.1076  1.0499
  752MOL0     C99184   9.953  10.239   7.740  0.1922 -0.7070  0.1727
  752MOL0     C99185   9.851  10.161   7.694  0.6863 -0.4519  0.5131
  752MOL0     C99186   9.413  10.018   7.608  0.6405  1.1039 -0.1080
  752MOL0     C99187   9.266  10.022   7.610 -0.4552  0.1189  0.2817
  752MOL0     C99188   9.182   9.941   7.538 -0.8632  1.0468 -0.4178
  752MOL0     C99189   9.248   9.842   7.462 -0.0661 -0.0089  0.5197
  752MOL0     O99190   9.173   9.770   7.375  0.3128  0.3854  0.5404
  752MOL0     C99191   9.107   9.649   7.428 -0.4703 -0.1976 -0.3991
  752MOL0     C99192   9.037   9.569   7.314 -0.8600 -0.3747 -1.0408
  752MOL0     C99193   8.966   9.671   7.224  0.0920 -0.0280  0.0009
  752MOL0     C99194   8.826   9.621   7.176  0.1577 -0.3348  0.9700
  752MOL0     C99195   8.748   9.592   7.299 -0.9148 -0.1746 -0.3596
  752MOL0     C99196   8.681   9.570   7.395 -0.5675  0.6673 -0.2859
  752MOL0     C99197   9.394   9.828   7.465 -0.5878  0.2849 -0.0021
  752MOL0     C99198   9.471   9.921   7.533 -0.6411  0.0829  0.0133
  752MOL0     H99199   9.603  10.306   7.869  0.9518  1.3661  0.4804
  752MOL0     H99200   9.797  10.451   7.943  0.2152  0.8369 -0.8141
  752MOL0     H99201  10.206  10.401   7.740  0.0069 -2.3223 -0.3672
  752MOL0     H99202  10.212  10.304   7.882  1.0237 -0.0536 -0.3450
  752MOL0     H99203  10.243  10.525   8.020 -1.1999  1.7978 -0.6718
  752MOL0     H99204  10.206  10.601   7.875 -2.1008 -2.3730 -2.6336
  752MOL0     H99205  10.418  10.553   7.780 -1.1003 -2.9706 -0.0482
  752MOL0     H99206  10.446  10.406   7.869  1.9637  0.0035 -0.3554
  752MOL0     H99207  10.445  10.678   8.002 -1.2094  0.1226 -0.3228
  752MOL0     H99208  10.523  10.541   8.058  0.2498  3.0778  2.5411
  752MOL0     H99209  10.680  10.699   7.967 -0.9843  0.1320  0.3353
  752MOL0     H99210  10.595  10.694   7.816 -1.8804 -0.1481  0.4369
  752MOL0     H99211  10.670  10.466   7.767 -0.0809  1.6750 -1.7349
  752MOL0     H99212  10.756  10.451   7.927 -1.8459 -1.4155  0.0020
  752MOL0     H99213  10.907  10.489   7.741 -0.4589 -0.7429  0.7015
  752MOL0     H99214  10.825  10.627   7.690 -1.0585  1.0449  1.6729
  752MOL0     H99215  10.971  10.605   7.958 -0.4557  0.5856 -0.2234
  752MOL0     H99216  10.899  10.754   7.899 -0.0032 -0.2522  0.4495
  752MOL0     H99217  11.103  10.502   7.682 -4.0702  1.1913  0.2334
  752MOL0     H99218  11.376  10.658   7.496 -0.7420 -1.3532 -0.8068
  752MOL0     H99219  11.351  10.497   7.564 -0.4434 -1.7177  3.1187
  752MOL0     H99220  11.487  10.550   7.765  0.9929  1.1442  0.0586
  752MOL0     H99221  11.546  10.701   7.689 -0.2109  0.1965 -1.0187
  752MOL0     H99222  11.588  10.423   7.587 -0.3015  0.9316 -1.5069
  752MOL0     H99223  11.646  10.576   7.514  3.3827 -1.9722 -1.8028
  752MOL0     H99224  11.711  10.473   7.808 -1.1068 -2.1621 -0.7904
  752MOL0     H99225  11.795  10.606   7.714  0.1537 -0.9854  2.5978
  752MOL0     H99226  12.051  10.267   7.575  0.1300 -0.6426  0.9813
  752MOL0     H99227  12.238  10.329   7.448  0.8447  2.7029 -1.5781
  752MOL0     H99228  12.554  10.681   7.318 -2.7731 -0.7081  0.7055
  752MOL0     H99229  12.771  10.667   7.164  1.5522 -1.6735  1.7288
  752MOL0     H99230  12.771  10.456   6.768  1.2390  1.8517  0.2771
  752MOL0     H99231  12.787  10.318   6.862 -2.2382  1.6171  2.7625
  752MOL0     H99232  12.985  10.516   6.746 -1.8604  0.0753  0.5236
  752MOL0     H99233  12.971  10.345   6.715 -5.1902  0.7969  0.4941
  752MOL0     H99234  13.063  10.309   6.948  1.0408  0.3076  0.4793
  752MOL0     H99235  13.079  10.487   6.963  0.3840  1.7890 -2.7484
  752MOL0     H99236  13.191  10.333   6.722 -0.3161  1.9830 -0.7527
  752MOL0     H99237  13.235  10.499   6.770 -1.3257 -0.1336  0.6206
  752MOL0     H99238  13.301  10.234   6.900 -0.9651  0.0999 -0.1200
  752MOL0     H99239  13.359  10.385   6.979  3.4521 -0.0492 -0.6262
  752MOL0     H99240  13.493  10.440   6.802  0.0731 -0.9330  1.2052
  752MOL0     H99241  13.456  10.306   6.699  2.7730  0.7253 -1.6951
  752MOL0     H99242  13.555  10.284   6.977  1.0848  1.5730 -0.6174
  752MOL0     H99243  13.544  10.145   6.854 -2.1194  0.4299 -3.1326
  752MOL0     H99244  13.725  10.385   6.855 -0.4593  0.1775 -0.0302
  752MOL0     H99245  13.698  10.280   6.713  1.3847  3.2651 -0.2057
  752MOL0     H99246  12.618  10.311   6.987  1.0897 -0.5878 -0.5664
  752MOL0     H99247  12.444  10.304   7.167 -1.1332  0.6213 -0.7884
  752MOL0     H99248  12.050  10.714   7.359 -0.9896 -1.6057 -2.0009
  752MOL0     H99249  11.852  10.644   7.492 -1.0095 -0.7436 -0.4259
  752MOL0     H99250  10.050  10.224   7.694  0.8912 -1.3803  1.7729
  752MOL0     H99251   9.880  10.095   7.612  0.7320 -0.9448  0.9246
  752MOL0     H99252   9.220  10.105   7.663  0.3168 -0.9951  2.8238
  752MOL0     H99253   9.074   9.948   7.531 -1.1137 -1.3041  0.0232
  752MOL0     H99254   9.033   9.679   7.503  1.6281  1.1473  1.2579
  752MOL0     H99255   9.179   9.590   7.485  1.2959 -0.0324 -2.3233
  752MOL0     H99256   9.107   9.508   7.257 -0.3916 -3.3798  2.3724
  752MOL0     H99257   8.971   9.497   7.363  0.5623  0.0533  1.7190
  752MOL0     H99258   9.034   9.681   7.139  0.9688 -4.6927 -0.0816
  752MOL0     H99259   8.954   9.771   7.267  4.2530  1.5818 -2.0356
  752MOL0     H99260   8.771   9.694   7.117 -0.3746 -0.4169  1.3632
  752MOL0     H99261   8.843   9.538   7.108  0.6185  1.2853 -0.9677
  752MOL0     H99262   8.621   9.540   7.479  0.9855  2.7144  1.6867
  752MOL0     H99263   9.437   9.744   7.412 -0.7027  1.3065 -1.7688
  752MOL0     H99264   9.578   9.905   7.531 -0.5441  0.4646  1.1862
  753MOL0     O99265   9.874   8.655   9.781  0.2593  0.2891 -0.3531
  753MOL0     C99266   9.996   8.660   9.770 -0.9654  0.0660  0.4364
  753MOL0     O99267  10.081   8.763   9.799 -0.4124  0.0913 -0.4612
  753MOL0     C99268  10.030   8.879   9.859 -0.5576 -0.5832  0.8180
  753MOL0     C99269   9.916   8.943   9.797 -0.9003  0.7188  0.6186
  753MOL0     C99270   9.882   9.072   9.823 -0.4438 -0.3535 -0.0100
  753MOL0     C99271   9.954   9.143   9.920  0.5838  0.3668 -0.7180
  753MOL0     O99272   9.908   9.274   9.954 -0.1924 -0.0823 -0.2096
  753MOL0     C99273   9.906   9.307  10.095  0.4578 -0.7735  0.1934
  753MOL0     C99274   9.808   9.431  10.127 -0.1801  0.3366  0.0408
  753MOL0     C99275   9.662   9.407  10.117  0.1512 -0.0710  1.3174
  753MOL0     C99276   9.579   9.478  10.222 -0.2782  0.5816  0.2914
  753MOL0     C99277   9.437   9.445  10.187  0.1218  0.5920 -0.8144
  753MOL0     C99278   9.354   9.551  10.248  0.6725 -0.0326 -0.6829
  753MOL0     C99279   9.203   9.538  10.234 -0.7147 -0.9364 -0.8457
  753MOL0     C99280   9.140   9.646  10.332  0.7354  0.5428 -0.3646
  753MOL0     N99281   9.011   9.697  10.282 -0.1130  0.3891  0.1650
  753MOL0     C99282   8.891   9.683  10.353 -0.7140 -0.8817 -1.3591
  753MOL0     C99283   8.808   9.769  10.299  0.4573  0.1482 -0.3315
  753MOL0     C99284   8.667   9.814  10.333  0.0606  0.1346 -0.1570
  753MOL0     C99285   8.554   9.725  10.282  0.8088  0.3887 -0.2114
  753MOL0     C99286   8.441   9.713  10.391 -0.4496 -0.9092 -0.5129
  753MOL0     C99287   8.315   9.623  10.355  0.5081 -0.5435 -0.3644
  753MOL0     O99288   8.249   9.697  10.255  0.4657 -0.0986 -0.0254
  753MOL0     C99289   8.130   9.650  10.200 -0.7690  0.1605  0.8074
  753MOL0     C99290   8.117   9.691  10.065  1.0448 -0.0121 -0.3421
  753MOL0     C99291   7.985   9.693  10.009  0.3470 -0.5760 -0.0644
  753MOL0     C99292   7.875   9.647  10.074 -0.3260 -0.8224  0.2413
  753MOL0     C99293   7.753   9.642   9.999 -0.0555 -0.3301 -0.4492
  753MOL0     O99294   7.731   9.731   9.905 -0.0860  0.3859  0.4376
  753MOL0     C99295   7.617   9.733   9.821  0.5513 -1.1748  0.0293
  753MOL0     C99296   7.620   9.681   9.689  0.6672 -0.4796 -0.3169
  753MOL0     C99297   7.491   9.692   9.618  0.1113 -0.9386 -0.6345
  753MOL0     C99298   7.381   9.766   9.665  0.4356 -0.1671 -1.2956
  753MOL0     O99299   7.263   9.798   9.601  0.8270 -0.1275  0.2328
  753MOL0     C99300   7.202   9.711   9.506 -0.3679  0.5708  0.9556
  753MOL0     C99301   7.057   9.746   9.496  0.0634 -0.9946 -0.4868
  753MOL0     C99302   6.984   9.665   9.397  0.7125 -0.9581 -0.5463
  753MOL0     C99303   6.826   9.659   9.422 -0.2016  0.4996 -0.3525
  753MOL0     C99304   6.747   9.769   9.346  0.3444 -0.2391 -1.0482
  753MOL0     C99305   6.754   9.901   9.409 -0.7732 -0.4597 -0.0333
  753MOL0     C99306   6.732  10.015   9.310  0.0479 -0.4558 -0.1088
  753MOL0     C99307   6.712  10.148   9.368  0.0618 -0.6241 -0.4098
  753MOL0    Cl99308   6.645  10.265   9.233 -0.3013 -0.6470 -0.0558
  753MOL0     C99309   7.390   9.821   9.794 -0.3085 -0.3272  0.4509
  753MOL0     C99310   7.506   9.802   9.866 -0.3346 -0.6711 -0.0858
  753MOL0     O99311   7.679   9.547  10.023  0.7518  0.6221  0.3016
  753MOL0     C99312   7.894   9.588  10.199 -0.2804  0.0487  0.5900
  753MOL0     C99313   8.017   9.600  10.270  0.4755  0.2857 -1.1192
  753MOL0     N99314   8.875   9.842  10.208  0.0763 -0.2272  0.0053
  753MOL0     N99315   8.997   9.797  10.187  0.3183 -0.8603 -1.1966
  753MOL0     C99316  10.069   9.082   9.980 -0.0719 -0.5420 -0.8449
  753MOL0     C99317  10.110   8.955   9.942 -0.2807 -0.9213 -0.5828
  753MOL0     C99318  10.058   8.529   9.738 -0.1634 -0.9047  0.5112
  753MOL0     C99319  10.180   8.531   9.660 -0.5061 -0.1090 -0.3433
  753MOL0     C99320  10.240   8.404   9.633 -0.1431 -0.1058 -0.1452
  753MOL0     C99321  10.197   8.280   9.685  0.4522 -0.0267  0.5713
  753MOL0     O99322  10.258   8.152   9.665 -0.5250 -0.3009 -0.3683
  753MOL0     C99323  10.268   8.111   9.536  0.3799  0.0937 -0.5217
  753MOL0     C99324  10.138   8.076   9.453 -0.0038  0.0904 -0.0238
  753MOL0     C99325  10.076   8.192   9.366  0.4134 -0.2285 -0.5229
  753MOL0     C99326   9.939   8.155   9.315  0.1527  0.4263 -0.0003
  753MOL0     C99327   9.841   8.241   9.376  0.0871  0.1247 -0.0047
  753MOL0     C99328   9.745   8.296   9.434  0.1686  0.5714 -0.4132
  753MOL0     C99329  10.074   8.284   9.751  0.2919  0.0804  0.3357
  753MOL0     C99330  10.007   8.404   9.776  0.0316  0.4261  0.5018
  753MOL0     H99331   9.863   8.899   9.714  0.3431  2.8477 -1.4069
  753MOL0     H99332   9.797   9.129   9.786  2.0761  2.1626 -2.3054
  753MOL0     H99333  10.000   9.339  10.140  0.5600  1.2110 -1.2950
  753MOL0     H99334   9.887   9.210  10.142 -1.7365 -0.9886 -0.9882
  753MOL0     H99335   9.828   9.520  10.066  0.7566  1.3332  1.7137
  753MOL0     H99336   9.826   9.464  10.230 -1.9372  3.1503 -0.4345
  753MOL0     H99337   9.646   9.299  10.127  0.4305 -0.5223 -2.1165
  753MOL0     H99338   9.640   9.438  10.015  3.1800  3.4638  1.5282
  753MOL0     H99339   9.608   9.442  10.321  0.7511  1.9777  0.5379
  753MOL0     H99340   9.591   9.587  10.213 -3.6292  0.8656 -3.4727
  753MOL0     H99341   9.411   9.347  10.228  0.3487  0.5894 -0.6722
  753MOL0     H99342   9.421   9.433  10.080  0.4103  2.0556 -1.0454
  753MOL0     H99343   9.397   9.645  10.211  0.6566  0.3069  0.1342
  753MOL0     H99344   9.366   9.536  10.356 -0.4482  0.3223 -0.4967
  753MOL0     H99345   9.171   9.567  10.134 -1.2503  1.8704  0.0429
  753MOL0     H99346   9.180   9.437  10.271  0.7205 -0.1946  2.4523
  753MOL0     H99347   9.197   9.739  10.338  1.1625  0.2188  1.0032
  753MOL0     H99348   9.129   9.599  10.430  1.1866  0.4657 -0.3479
  753MOL0     H99349   8.879   9.613  10.435 -2.1582  0.6898 -0.1605
  753MOL0     H99350   8.654   9.916  10.295  1.1803 -0.7606 -3.2400
  753MOL0     H99351   8.666   9.821  10.442  0.8548 -0.9229 -0.0678
  753MOL0     H99352   8.604   9.629  10.272 -0.0794 -0.2880  1.4361
  753MOL0     H99353   8.502   9.747  10.189  1.2527 -1.0623 -0.8298
  753MOL0     H99354   8.496   9.682  10.480  1.0461 -1.5667 -1.6176
  753MOL0     H99355   8.405   9.810  10.428  2.0655 -0.4721  1.0444
  753MOL0     H99356   8.256   9.600  10.445  0.6112 -0.0245 -0.1633
  753MOL0     H99357   8.351   9.525  10.321 -0.8050 -0.8097 -1.0812
  753MOL0     H99358   8.199   9.741  10.014 -0.3821 -0.5216 -3.3466
  753MOL0     H99359   7.990   9.737   9.910  1.7134  3.8043  1.7248
  753MOL0     H99360   7.704   9.620   9.655  1.4187 -0.8063  1.9416
  753MOL0     H99361   7.479   9.654   9.517  2.0966 -1.6472 -0.6451
  753MOL0     H99362   7.219   9.605   9.526  3.9371  0.6775 -0.9017
  753MOL0     H99363   7.241   9.716   9.404  0.0732 -2.4426  0.8837
  753MOL0     H99364   7.051   9.853   9.476  0.8722 -0.2012  2.8467
  753MOL0     H99365   7.020   9.728   9.598  0.1802  2.5398  0.3096
  753MOL0     H99366   7.012   9.560   9.412  0.1035 -1.1930 -1.0133
  753MOL0     H99367   6.999   9.687   9.291  1.6154  0.7310 -0.0973
  753MOL0     H99368   6.781   9.564   9.391  0.8274 -0.3542  0.6700
  753MOL0     H99369   6.807   9.666   9.530  2.1194  1.0568  0.0748
  753MOL0     H99370   6.639   9.757   9.340  0.4630 -0.9465 -2.1116
  753MOL0     H99371   6.783   9.784   9.243 -0.0500  1.7206 -0.9279
  753MOL0     H99372   6.850   9.932   9.451 -2.3428  3.4838  1.0911
  753MOL0     H99373   6.692   9.889   9.498 -1.0307 -2.2408 -0.4165
  753MOL0     H99374   6.811  10.022   9.235 -2.3779 -0.6951 -2.8465
  753MOL0     H99375   6.644   9.981   9.256 -0.1731 -1.5010  0.8736
  753MOL0     H99376   6.802  10.191   9.413  0.3377  0.6305 -2.0325
  753MOL0     H99377   6.638  10.144   9.448  0.4148  0.5706 -0.0007
  753MOL0     H99378   7.307   9.877   9.836 -0.8057 -0.0917 -0.7909
  753MOL0     H99379   7.521   9.849   9.962  2.0562  2.7980 -1.9722
  753MOL0     H99380   7.808   9.559  10.259  0.8910 -0.2435  2.1833
  753MOL0     H99381   8.027   9.578  10.376  1.3494  1.2210 -0.9968
  753MOL0     H99382  10.125   9.125  10.062  0.5818 -0.2584 -1.4382
  753MOL0     H99383  10.203   8.913   9.979 -1.1463 -0.5532  2.2461
  753MOL0     H99384  10.220   8.626   9.625 -0.5777 -0.8470 -2.6032
  753MOL0     H99385  10.336   8.392   9.585 -0.2189 -0.8113 -0.1379
  753MOL0     H99386  10.320   8.015   9.529 -0.4871 -0.2412 -4.0921
  753MOL0     H99387  10.325   8.186   9.480 -0.9653  1.3551 -0.2646
  753MOL0     H99388  10.155   7.994   9.383  1.4291 -0.9691  1.4867
  753MOL0     H99389  10.065   8.051   9.531 -1.1962  1.2933 -0.7173
  753MOL0     H99390  10.141   8.204   9.279  1.3846  1.6476  0.4039
  753MOL0     H99391  10.061   8.289   9.414  0.2192  1.0761 -3.0595
  753MOL0     H99392   9.933   8.168   9.206  3.3337 -0.8745 -0.4500
  753MOL0     H99393   9.917   8.050   9.339 -2.4433  0.7784 -0.5347
  753MOL0     H99394   9.684   8.352   9.502 -0.2436 -1.1855  0.7333
  753MOL0     H99395  10.045   8.188   9.794 -1.2243  1.1058  1.7135
  753MOL0     H99396   9.912   8.402   9.829  0.1959 -1.3442  0.7807
  754MOL0     O99397   5.047   5.004   6.909  0.1081 -0.1968  0.2135
  754MOL0     C99398   5.071   4.917   6.993  0.2970  0.0786 -0.8323
  754MOL0     O99399   5.077   4.784   6.969  0.4648 -0.4650  0.4753
  754MOL0     C99400   5.065   4.745   6.837 -0.6281  0.9213 -0.4384
  754MOL0     C99401   5.175   4.693   6.780  0.3380  0.1046  0.7529
  754MOL0     C99402   5.172   4.641   6.655  0.1257 -0.3458  0.8215
  754MOL0     C99403   5.049   4.660   6.575  0.1053  0.5004  0.6738
  754MOL0     O99404   5.029   4.624   6.446  0.5741 -0.0392  0.3083
  754MOL0     C99405   5.091   4.506   6.396 -0.1589 -0.2755  0.1705
  754MOL0     C99406   5.022   4.481   6.259  0.1439  0.2571 -0.4561
  754MOL0     C99407   5.084   4.357   6.189 -0.7623  0.5731 -0.0730
  754MOL0     C99408   5.009   4.333   6.057 -0.8347 -1.0748 -0.3799
  754MOL0     C99409   5.070   4.414   5.951  0.3284 -1.0380 -0.0940
  754MOL0     C99410   5.001   4.386   5.813  0.3387  0.1514  0.0301
  754MOL0     C99411   5.032   4.466   5.686 -0.0833 -0.2135  0.2168
  754MOL0     C99412   4.954   4.419   5.569 -0.1778 -0.9137  0.8406
  754MOL0     N99413   4.940   4.531   5.463 -0.2064  0.4530 -0.2822
  754MOL0     C99414   4.964   4.532   5.328 -0.9208 -0.1556 -0.2902
  754MOL0     C99415   4.913   4.645   5.286  0.0178  0.5042  0.0213
  754MOL0     C99416   4.948   4.688   5.151  0.0106 -0.4001 -0.1029
  754MOL0     C99417   5.088   4.745   5.170 -0.8675  0.2815 -0.1662
  754MOL0     C99418   5.166   4.736   5.047 -0.1097 -0.4574  0.7869
  754MOL0     C99419   5.314   4.785   5.063 -0.6795  0.2844 -0.9330
  754MOL0     O99420   5.381   4.695   5.151 -0.0248 -0.5831  0.5561
  754MOL0     C99421   5.515   4.705   5.190  0.2450  0.1335  0.8997
  754MOL0     C99422   5.554   4.620   5.286  0.3084  0.4719  0.0948
  754MOL0     C99423   5.683   4.616   5.324  0.1633 -0.6715 -0.1301
  754MOL0     C99424   5.779   4.707   5.264 -0.2891 -0.1152  0.0510
  754MOL0     C99425   5.927   4.698   5.302  0.0900 -0.5135  0.2607
  754MOL0     O99426   5.974   4.590   5.381  0.4170 -0.0608  0.4972
  754MOL0     C99427   6.108   4.578   5.404 -0.7263 -0.9269 -0.2515
  754MOL0     C99428   6.150   4.584   5.535  0.0179 -0.1200 -0.2547
  754MOL0     C99429   6.287   4.567   5.577 -0.1207 -0.6172  0.2310
  754MOL0     C99430   6.385   4.560   5.472  0.0978 -0.1494 -0.1052
  754MOL0     O99431   6.512   4.551   5.509 -0.1971 -0.0705 -0.1366
  754MOL0     C99432   6.609   4.513   5.414  0.5601  0.1546 -0.1898
  754MOL0     C99433   6.672   4.622   5.333 -0.0644 -0.2658  0.4016
  754MOL0     C99434   6.785   4.571   5.241  0.2099  0.5714 -0.2419
  754MOL0     C99435   6.907   4.544   5.318 -0.3011  0.1199  0.7350
  754MOL0     C99436   7.045   4.525   5.236  0.1465 -0.3597 -0.4239
  754MOL0     C99437   7.162   4.482   5.331  0.3654  0.4677 -0.6444
  754MOL0     C99438   7.290   4.452   5.252  0.5727 -0.0311 -0.6157
  754MOL0     C99439   7.383   4.357   5.328 -0.9978 -0.2896 -0.4038
  754MOL0    Cl99440   7.541   4.331   5.231 -0.1130 -0.1662 -0.4743
  754MOL0     C99441   6.341   4.549   5.334  0.4982 -0.8566 -0.6150
  754MOL0     C99442   6.200   4.559   5.308 -0.2947 -0.3824  0.2852
  754MOL0     O99443   5.996   4.779   5.249  0.4099  0.2977  0.6733
  754MOL0     C99444   5.735   4.794   5.170 -0.2130  2.1605 -0.2824
  754MOL0     C99445   5.601   4.804   5.135 -0.3994  0.3267  0.1316
  754MOL0     N99446   4.849   4.703   5.389  0.5748  0.1412  0.2316
  754MOL0     N99447   4.864   4.639   5.494 -0.2134  0.5912 -0.8918
  754MOL0     C99448   4.941   4.727   6.637  1.1193 -0.5786  0.1616
  754MOL0     C99449   4.948   4.766   6.769 -0.0570  1.1050  0.0365
  754MOL0     C99450   5.108   4.975   7.130  0.3127  0.0087 -0.3372
  754MOL0     C99451   5.150   4.891   7.229 -0.0921 -0.6316  0.6174
  754MOL0     C99452   5.190   4.937   7.358  0.4332 -0.0222 -0.3255
  754MOL0     C99453   5.156   5.074   7.388 -0.3726 -0.0412 -0.1739
  754MOL0     O99454   5.180   5.146   7.504 -0.1444  0.0638 -0.4128
  754MOL0     C99455   5.246   5.081   7.616 -0.0573 -0.0982  0.2999
  754MOL0     C99456   5.400   5.080   7.596  0.0652  0.6998  0.1987
  754MOL0     C99457   5.473   5.218   7.612  0.1500 -0.4047  0.8005
  754MOL0     C99458   5.625   5.214   7.606 -0.9932 -0.4069 -0.1625
  754MOL0     C99459   5.652   5.177   7.463 -0.6990  0.1144  0.8388
  754MOL0     C99460   5.662   5.146   7.344  1.0060 -0.2280 -0.3305
  754MOL0     C99461   5.079   5.144   7.295 -0.2058  0.8643 -0.8580
  754MOL0     C99462   5.057   5.101   7.170 -0.4863 -0.3997 -0.4984
  754MOL0     H99463   5.261   4.680   6.846 -0.6763 -2.5933  1.6979
  754MOL0     H99464   5.261   4.592   6.617 -0.2713 -2.2974  2.2539
  754MOL0     H99465   5.092   4.424   6.469 -0.9256  1.0240  1.7201
  754MOL0     H99466   5.196   4.529   6.381 -0.1776 -0.1832  0.1828
  754MOL0     H99467   5.040   4.565   6.191 -0.5146  1.2401  0.5483
  754MOL0     H99468   4.914   4.468   6.270  0.0358  1.6095  0.3138
  754MOL0     H99469   5.067   4.271   6.255  0.9196 -0.3499 -0.7661
  754MOL0     H99470   5.192   4.363   6.176 -0.8619 -1.1111 -2.3598
  754MOL0     H99471   5.023   4.227   6.034  0.0388 -2.4364  4.9823
  754MOL0     H99472   4.900   4.348   6.066 -0.9741 -1.1449 -1.7706
  754MOL0     H99473   5.179   4.398   5.950  0.1587 -2.3240 -1.4045
  754MOL0     H99474   5.047   4.519   5.970  0.3156 -0.8846 -0.9021
  754MOL0     H99475   4.895   4.370   5.833  0.3946  1.2773  1.4020
  754MOL0     H99476   5.036   4.290   5.773  3.2167  1.1518 -0.1217
  754MOL0     H99477   5.003   4.570   5.704 -1.4960 -0.5140 -0.2276
  754MOL0     H99478   5.140   4.458   5.671  0.2322 -1.8306  2.6080
  754MOL0     H99479   4.851   4.391   5.595  0.3121 -2.1074  1.5981
  754MOL0     H99480   4.994   4.327   5.524  4.1637  1.2020 -0.1700
  754MOL0     H99481   5.033   4.467   5.277  0.9579 -0.6475  2.6728
  754MOL0     H99482   4.882   4.768   5.116  1.2912  1.1319  0.8561
  754MOL0     H99483   4.928   4.602   5.087 -3.6377  1.3887 -1.6762
  754MOL0     H99484   5.141   4.690   5.249  0.0817  1.0324 -0.2620
  754MOL0     H99485   5.060   4.842   5.211 -2.4383 -0.3542  0.3589
  754MOL0     H99486   5.170   4.638   5.000  0.3117 -1.9168  3.6672
  754MOL0     H99487   5.125   4.808   4.975  2.5167 -1.0930 -1.5252
  754MOL0     H99488   5.317   4.885   5.108 -3.6625 -0.4432  1.1828
  754MOL0     H99489   5.366   4.786   4.967  2.0249  0.1930  0.4233
  754MOL0     H99490   5.473   4.565   5.333 -1.8240  3.2939 -0.0370
  754MOL0     H99491   5.726   4.547   5.396  0.2457 -2.3182 -1.6706
  754MOL0     H99492   6.071   4.607   5.606  1.7474  1.2550  1.3222
  754MOL0     H99493   6.321   4.576   5.680 -2.7330  1.9525  1.0078
  754MOL0     H99494   6.582   4.434   5.343  1.5807 -0.1029 -0.3089
  754MOL0     H99495   6.686   4.459   5.470 -0.5055  1.8408  3.1662
  754MOL0     H99496   6.708   4.705   5.394 -2.9362  3.0600 -1.9978
  754MOL0     H99497   6.593   4.669   5.274 -1.5004 -3.3637 -0.3314
  754MOL0     H99498   6.800   4.646   5.162 -3.6329  0.8384 -0.8841
  754MOL0     H99499   6.735   4.487   5.193 -1.2236  0.9025  0.6252
  754MOL0     H99500   6.921   4.620   5.395 -0.4739  0.3629  0.5271
  754MOL0     H99501   6.892   4.451   5.373  0.5767 -0.5127 -0.0647
  754MOL0     H99502   7.068   4.617   5.181  1.2602 -0.8357 -0.7871
  754MOL0     H99503   7.030   4.461   5.149  0.1474 -0.4582 -0.3509
  754MOL0     H99504   7.127   4.384   5.365  2.5164 -0.7459 -1.6906
  754MOL0     H99505   7.178   4.555   5.411 -0.6299  0.1278 -0.1225
  754MOL0     H99506   7.267   4.407   5.155 -1.8766  0.0262 -0.1136
  754MOL0     H99507   7.338   4.548   5.228 -2.3800  1.1051 -2.4065
  754MOL0     H99508   7.345   4.256   5.350 -1.5325  0.3994  2.1805
  754MOL0     H99509   7.403   4.400   5.427 -1.0210  1.4066 -1.1095
  754MOL0     H99510   6.408   4.551   5.249 -0.3277  0.1223 -1.2587
  754MOL0     H99511   6.172   4.555   5.203 -3.1314  0.0918  0.9484
  754MOL0     H99512   5.809   4.852   5.116 -1.0822  1.7521 -1.9814
  754MOL0     H99513   5.568   4.871   5.056 -1.9951  0.5007  0.8966
  754MOL0     H99514   4.845   4.738   6.587  0.8707  2.2807  1.0680
  754MOL0     H99515   4.863   4.801   6.826 -2.0063 -2.0610 -0.6412
  754MOL0     H99516   5.177   4.790   7.200  0.2743 -0.0525 -1.1818
  754MOL0     H99517   5.251   4.871   7.419 -1.1379 -1.2587 -0.0169
  754MOL0     H99518   5.190   4.990   7.636 -2.9817  1.6373  0.5929
  754MOL0     H99519   5.220   5.148   7.699 -0.8710  2.5434 -1.9358
  754MOL0     H99520   5.443   5.007   7.666  2.8579  1.0843 -0.9574
  754MOL0     H99521   5.416   5.047   7.493 -2.8786  1.7786 -0.6937
  754MOL0     H99522   5.431   5.260   7.704 -1.3628 -1.8124  0.7950
  754MOL0     H99523   5.439   5.279   7.528 -0.7487 -1.7266  0.1730
  754MOL0     H99524   5.666   5.313   7.624  0.0876 -0.7658 -0.5683
  754MOL0     H99525   5.667   5.150   7.684 -0.0304 -2.1564 -2.0115
  754MOL0     H99526   5.661   5.119   7.240 -1.3253  1.4310 -0.8253
  754MOL0     H99527   5.024   5.232   7.327 -1.2631 -1.1811  3.7372
  754MOL0     H99528   4.999   5.173   7.113 -0.1657  0.3071  0.0503
  755MOL0     O99529   9.147   7.472   7.016  0.5241  0.4291  0.1058
  755MOL0     C99530   9.098   7.471   7.133  0.1817  0.9925  0.6184
  755MOL0     O99531   9.167   7.461   7.248 -0.5105 -0.4706  0.7437
  755MOL0     C99532   9.303   7.494   7.253 -0.6812 -0.0044 -0.1710
  755MOL0     C99533   9.348   7.579   7.353  0.2748 -0.1132 -0.0590
  755MOL0     C99534   9.484   7.624   7.353 -0.0842  0.2808  0.6602
  755MOL0     C99535   9.572   7.584   7.254  0.4805  1.0973  0.6301
  755MOL0     O99536   9.700   7.624   7.247 -0.9932  0.5138  0.1639
  755MOL0     C99537   9.751   7.696   7.355 -0.6456 -0.4136  0.2739
  755MOL0     C99538   9.902   7.710   7.348  0.5507 -0.7118 -0.5050
  755MOL0     C99539   9.943   7.821   7.456  0.3511 -0.1126  0.0906
  755MOL0     C99540  10.098   7.838   7.481  0.8739  1.2372 -0.2107
  755MOL0     C99541  10.143   7.983   7.437 -0.0078  0.7492  0.4934
  755MOL0     C99542  10.169   7.985   7.287 -0.2880  0.3607 -0.7795
  755MOL0     C99543  10.206   8.127   7.234 -0.1201 -0.1125  0.3086
  755MOL0     C99544  10.359   8.146   7.246  0.5104 -0.4100  0.9059
  755MOL0     N99545  10.432   8.092   7.141 -0.2878 -0.5637  0.8282
  755MOL0     C99546  10.489   8.157   7.037  0.9109  0.5540  0.2976
  755MOL0     C99547  10.559   8.066   6.964  0.6803  0.7244  0.0057
  755MOL0     C99548  10.651   8.092   6.850 -0.1054 -0.2152 -0.1482
  755MOL0     C99549  10.733   8.222   6.856  0.6996 -0.1099  0.4506
  755MOL0     C99550  10.701   8.334   6.751  0.9587  0.4753 -0.4808
  755MOL0     C99551  10.559   8.341   6.687  0.4427 -0.5567  0.6385
  755MOL0     O99552  10.463   8.340   6.791 -0.4475 -0.1680 -0.6444
  755MOL0     C99553  10.333   8.344   6.765  0.3878 -0.7228  0.3290
  755MOL0     C99554  10.242   8.358   6.873 -0.9484  0.2802 -0.3181
  755MOL0     C99555  10.107   8.362   6.846  0.6872  0.1353 -0.6063
  755MOL0     C99556  10.050   8.325   6.720  0.8135 -0.3790  0.9332
  755MOL0     C99557   9.896   8.336   6.700  0.1283 -0.7673  0.1290
  755MOL0     O99558   9.829   8.420   6.783 -0.3840 -0.0667  0.2161
  755MOL0     C99559   9.689   8.406   6.782 -0.6436  0.3972  0.2909
  755MOL0     C99560   9.621   8.291   6.839 -0.1691 -0.2852 -0.3190
  755MOL0     C99561   9.479   8.291   6.840  0.0684 -0.6127 -0.4628
  755MOL0     C99562   9.412   8.397   6.778 -0.6684 -0.5163 -0.2066
  755MOL0     O99563   9.276   8.401   6.769 -0.2141  0.1646 -0.0270
  755MOL0     C99564   9.215   8.274   6.733 -0.3710  0.0573 -0.3643
  755MOL0     C99565   9.256   8.227   6.594 -0.5506 -0.1573  0.0749
  755MOL0     C99566   9.150   8.133   6.532 -0.0793  0.5044 -0.0483
  755MOL0     C99567   9.014   8.205   6.512 -0.4175 -0.1012  0.0207
  755MOL0     C99568   8.933   8.173   6.395 -0.1391 -0.0285  0.1950
  755MOL0     C99569   9.000   8.175   6.258 -0.4098  0.6070  0.8533
  755MOL0     C99570   8.901   8.168   6.151  1.1882  0.0992 -0.1760
  755MOL0     C99571   8.965   8.141   6.011  0.3400 -0.0996  0.3558
  755MOL0    Cl99572   9.072   7.997   6.009 -0.0793  0.0329  0.2988
  755MOL0     C99573   9.482   8.515   6.749  0.4760 -0.9407 -1.0996
  755MOL0     C99574   9.617   8.519   6.744 -0.3222 -0.2447  1.0190
  755MOL0     O99575   9.842   8.272   6.607  0.7154 -0.0537  0.3671
  755MOL0     C99576  10.136   8.295   6.617 -0.9472  0.2631  0.9212
  755MOL0     C99577  10.280   8.315   6.644 -0.6590  0.9746 -0.1312
  755MOL0     N99578  10.520   7.943   7.006  1.0035 -0.9313 -0.0216
  755MOL0     N99579  10.454   7.959   7.118  0.3164 -0.1857  0.8444
  755MOL0     C99580   9.527   7.500   7.153 -0.4982 -0.3329  1.0525
  755MOL0     C99581   9.389   7.454   7.155  0.2552 -0.1903 -0.4252
  755MOL0     C99582   8.953   7.490   7.139  0.3509  0.3672  0.5117
  755MOL0     C99583   8.875   7.531   7.029  1.3201  0.4855  0.2221
  755MOL0     C99584   8.737   7.565   7.038 -1.3135 -0.5289 -0.2070
  755MOL0     C99585   8.677   7.556   7.158  0.3620  0.2665 -0.7800
  755MOL0     O99586   8.551   7.605   7.180  0.2955 -0.4825 -0.5393
  755MOL0     C99587   8.459   7.624   7.068  0.1419 -0.4531  0.4106
  755MOL0     C99588   8.328   7.691   7.117  0.4041 -0.3174 -0.3156
  755MOL0     C99589   8.233   7.588   7.166 -0.6457 -0.0611 -0.7069
  755MOL0     C99590   8.093   7.651   7.208 -0.0164 -0.4961  0.2706
  755MOL0     C99591   7.986   7.566   7.241  0.0926 -0.1381  1.0394
  755MOL0     C99592   7.906   7.477   7.266 -0.4448  0.1795  0.6342
  755MOL0     C99593   8.745   7.503   7.277  0.8619  0.1856  0.6117
  755MOL0     C99594   8.882   7.471   7.263  0.1931 -0.2325  0.4301
  755MOL0     H99595   9.285   7.612   7.435 -0.5449  1.8081 -1.3904
  755MOL0     H99596   9.514   7.690   7.433 -0.1270  1.5948 -0.3763
  755MOL0     H99597   9.728   7.639   7.444  2.6304  0.1496  1.6352
  755MOL0     H99598   9.702   7.793   7.371  0.0667 -0.0128  0.1162
  755MOL0     H99599   9.924   7.742   7.245 -1.6818  3.1515  0.0294
  755MOL0     H99600   9.951   7.619   7.384 -0.4896 -0.4320  1.7684
  755MOL0     H99601   9.889   7.797   7.548  2.4166  1.7214  1.9187
  755MOL0     H99602   9.905   7.916   7.416  2.6471  0.4762 -0.8616
  755MOL0     H99603  10.120   7.828   7.588  0.9204 -2.2775 -0.4299
  755MOL0     H99604  10.143   7.747   7.440  0.7435  0.7632  0.6873
  755MOL0     H99605  10.232   8.009   7.495  0.6702  3.3061 -1.4885
  755MOL0     H99606  10.059   8.047   7.462 -1.8305 -1.2196 -0.2846
  755MOL0     H99607  10.077   7.943   7.247 -1.6668  1.6986  0.8639
  755MOL0     H99608  10.241   7.910   7.252 -0.5039  0.2315 -0.9447
  755MOL0     H99609  10.170   8.127   7.131 -1.0287 -3.5509  0.4835
  755MOL0     H99610  10.148   8.198   7.292 -3.2788 -1.5987 -0.8120
  755MOL0     H99611  10.403   8.098   7.334  0.0470  2.0089  2.5793
  755MOL0     H99612  10.370   8.255   7.254 -0.7583 -0.1899 -0.0386
  755MOL0     H99613  10.494   8.264   7.017  0.8287  0.5369  0.1828
  755MOL0     H99614  10.586   8.093   6.762  0.7566  0.2998 -0.7890
  755MOL0     H99615  10.720   8.009   6.828  0.2878  0.8352 -3.4603
  755MOL0     H99616  10.842   8.208   6.849  1.2467  0.9833  4.4018
  755MOL0     H99617  10.725   8.267   6.955 -3.1515  1.9749 -0.6146
  755MOL0     H99618  10.724   8.434   6.788 -2.4834  1.3486 -0.2988
  755MOL0     H99619  10.762   8.318   6.661  1.4523  0.7347 -0.1961
  755MOL0     H99620  10.545   8.252   6.626  0.5650  1.7809 -3.0646
  755MOL0     H99621  10.558   8.424   6.616 -1.5799 -2.7200 -2.0621
  755MOL0     H99622  10.278   8.379   6.973  2.6366  0.2313 -1.4582
  755MOL0     H99623  10.040   8.409   6.916 -0.1468  0.7633 -1.7837
  755MOL0     H99624   9.673   8.208   6.886  1.7988  0.3321 -1.2888
  755MOL0     H99625   9.423   8.203   6.870 -1.2116  1.1642  2.8222
  755MOL0     H99626   9.108   8.297   6.736 -0.2862  0.4495 -0.3023
  755MOL0     H99627   9.223   8.202   6.815 -0.1276 -1.5040 -1.7126
  755MOL0     H99628   9.358   8.190   6.603 -0.4380  0.4796  1.8078
  755MOL0     H99629   9.258   8.317   6.532 -0.0646  1.1505  1.8814
  755MOL0     H99630   9.142   8.041   6.591 -1.6669  0.2162 -0.6531
  755MOL0     H99631   9.183   8.096   6.434 -0.3804 -0.6914  0.2843
  755MOL0     H99632   8.948   8.200   6.599  1.2281  1.4739  1.4517
  755MOL0     H99633   9.036   8.312   6.500 -0.6437 -0.2226 -1.8834
  755MOL0     H99634   8.850   8.244   6.391  2.4180  3.1322 -3.1725
  755MOL0     H99635   8.902   8.070   6.414 -1.2443  0.0338 -1.1129
  755MOL0     H99636   9.068   8.089   6.255 -1.0941  0.0642 -1.3109
  755MOL0     H99637   9.059   8.265   6.239  1.8551 -1.0575 -0.5487
  755MOL0     H99638   8.826   8.092   6.179  2.2333 -0.8881  0.0304
  755MOL0     H99639   8.854   8.267   6.151 -0.0512 -0.4597 -0.5490
  755MOL0     H99640   9.018   8.229   5.974  0.1420  0.1824  0.7415
  755MOL0     H99641   8.878   8.125   5.946 -0.5011  0.2909  1.3626
  755MOL0     H99642   9.417   8.599   6.728  2.2524  0.8293  0.1434
  755MOL0     H99643   9.667   8.607   6.704 -0.0990  0.4350  2.7400
  755MOL0     H99644  10.103   8.255   6.522 -2.0662  0.2877  1.2892
  755MOL0     H99645  10.342   8.326   6.555  2.7123 -0.8245  1.8138
  755MOL0     H99646   9.594   7.469   7.075 -2.9161  2.1375 -2.3309
  755MOL0     H99647   9.358   7.385   7.078 -0.3483 -0.9314  0.4702
  755MOL0     H99648   8.913   7.540   6.928  1.9711  1.5346  0.5499
  755MOL0     H99649   8.685   7.601   6.950 -0.5879  0.1078 -0.3865
  755MOL0     H99650   8.437   7.530   7.016 -0.4988  0.7198 -1.5235
  755MOL0     H99651   8.501   7.693   6.994  2.0204 -0.1413  1.7118
  755MOL0     H99652   8.354   7.777   7.180 -0.1024  0.7576 -1.5250
  755MOL0     H99653   8.279   7.724   7.025 -1.1938 -0.9346  0.2716
  755MOL0     H99654   8.273   7.543   7.257 -0.6980  2.8703  0.8897
  755MOL0     H99655   8.214   7.513   7.088 -1.9583 -0.1940 -0.2839
  755MOL0     H99656   8.115   7.715   7.294 -0.3175 -0.1769  0.1147
  755MOL0     H99657   8.053   7.714   7.127  1.5118  0.5223  0.2659
  755MOL0     H99658   7.829   7.404   7.253  0.0826 -0.1729 -0.5988
  755MOL0     H99659   8.693   7.500   7.372  1.5476  0.8457  1.0161
  755MOL0     H99660   8.942   7.441   7.348  2.1803 -0.1052 -0.8626
  756MOL0     O99661   0.943   1.613   7.671  0.3409 -0.6027  0.4519
  756MOL0     C99662   0.977   1.627   7.786  0.5702  0.3878 -0.5254
  756MOL0     O99663   0.967   1.748   7.855  0.0623 -0.2565 -0.0191
  756MOL0     C99664   0.943   1.852   7.774  0.0598  0.2604  0.9720
  756MOL0     C99665   1.052   1.911   7.706  0.1511  0.0129  0.1298
  756MOL0     C99666   1.023   2.002   7.606 -0.3277 -0.0390  0.3453
  756MOL0     C99667   0.893   2.038   7.578 -0.7595  0.1531  0.2739
  756MOL0     O99668   0.863   2.145   7.499  0.3519 -0.0179 -0.5766
  756MOL0     C99669   0.868   2.117   7.359 -0.0687 -0.2300 -1.5766
  756MOL0     C99670   0.743   2.035   7.308 -0.3402 -0.4690 -0.1438
  756MOL0     C99671   0.603   2.111   7.320  0.2044 -0.7939  0.5815
  756MOL0     C99672   0.501   2.090   7.207  0.1252 -1.0925  0.6905
  756MOL0     C99673   0.552   2.136   7.070  0.7600  0.7349 -0.6666
  756MOL0     C99674   0.436   2.194   6.976 -0.3282  0.8412 -0.0995
  756MOL0     C99675   0.385   2.334   7.001 -0.1645  0.0753  0.3274
  756MOL0     C99676   0.250   2.339   6.928  0.4162  0.6938  0.4190
  756MOL0     N99677   0.160   2.446   6.964 -0.0516  0.2192 -0.0964
  756MOL0     C99678   0.053   2.433   7.048 -0.1141 -0.3949  0.5920
  756MOL0     C99679   0.011   2.561   7.062  0.5121 -0.2455 -0.6332
  756MOL0     C99680  -0.116   2.602   7.131 -0.1313  0.1976 -0.5210
  756MOL0     C99681  -0.075   2.706   7.229  0.1860 -0.3670 -0.2445
  756MOL0     C99682  -0.199   2.789   7.276 -0.5995 -0.1245 -0.7233
  756MOL0     C99683  -0.158   2.918   7.350  0.7017  0.3081  0.5522
  756MOL0     O99684  -0.077   2.890   7.458  0.2204 -0.1403  0.4707
  756MOL0     C99685  -0.018   2.982   7.527 -1.0638 -0.2827 -0.7721
  756MOL0     C99686   0.061   2.946   7.640  0.3156 -0.1416 -0.3596
  756MOL0     C99687   0.106   3.054   7.728  0.7837 -0.0787  0.4142
  756MOL0     C99688   0.081   3.191   7.706 -1.0097 -0.2557  0.4856
  756MOL0     C99689   0.141   3.289   7.797 -0.4959  0.1209  0.3004
  756MOL0     O99690   0.255   3.239   7.863  0.3330  0.8315 -0.1245
  756MOL0     C99691   0.334   3.319   7.943 -0.2474  0.6193  0.0973
  756MOL0     C99692   0.469   3.330   7.923  0.0688  0.2436  0.2304
  756MOL0     C99693   0.555   3.397   8.013  0.5750 -0.0158 -0.9302
  756MOL0     C99694   0.506   3.473   8.121 -0.0119 -0.0969  0.7408
  756MOL0     O99695   0.580   3.533   8.219 -0.0631 -0.5856 -0.3784
  756MOL0     C99696   0.709   3.573   8.177  0.4130 -0.1866  0.7620
  756MOL0     C99697   0.758   3.693   8.260  0.4932  0.5170 -0.0770
  756MOL0     C99698   0.883   3.751   8.200 -1.1096 -0.4358  0.1205
  756MOL0     C99699   0.914   3.875   8.274 -0.5823 -0.2605 -0.0760
  756MOL0     C99700   1.035   3.945   8.214  0.4676  0.7075 -0.3459
  756MOL0     C99701   1.104   4.038   8.313  0.0443  0.0118 -0.9313
  756MOL0     C99702   1.226   4.083   8.240  0.0262  0.0145  0.0210
  756MOL0     C99703   1.301   4.195   8.307  0.2790 -0.5908 -0.0155
  756MOL0    Cl99704   1.457   4.153   8.379  0.3265  0.2371  0.3154
  756MOL0     C99705   0.370   3.464   8.138 -0.2070 -0.5258 -0.4805
  756MOL0     C99706   0.282   3.389   8.055  0.1797 -0.1145 -0.1011
  756MOL0     O99707   0.103   3.404   7.799 -0.2263  1.2000  0.2871
  756MOL0     C99708   0.001   3.222   7.601 -1.9881 -0.2692  0.3453
  756MOL0     C99709  -0.048   3.121   7.515 -0.2759  0.4174  0.3281
  756MOL0     N99710   0.086   2.644   6.984  0.4596  0.6117  0.3224
  756MOL0     N99711   0.182   2.575   6.924  0.5553  0.4209  0.0476
  756MOL0     C99712   0.786   1.978   7.639 -0.6671  0.5310 -0.5072
  756MOL0     C99713   0.810   1.881   7.737 -0.1513 -0.7536  0.5341
  756MOL0     C99714   1.013   1.512   7.868  0.4576 -0.5605 -0.9709
  756MOL0     C99715   1.055   1.519   7.998 -0.2401  0.6213 -0.1088
  756MOL0     C99716   1.097   1.412   8.075 -0.9416  0.0102  0.3659
  756MOL0     C99717   1.093   1.286   8.019  0.0557  0.2524  0.1907
  756MOL0     O99718   1.134   1.171   8.085 -0.7514  0.0935 -0.2102
  756MOL0     C99719   1.102   1.157   8.221 -0.0552  0.8328 -0.5194
  756MOL0     C99720   1.162   1.021   8.260  0.1369 -0.0235 -0.9130
  756MOL0     C99721   1.150   0.986   8.402  0.0883 -0.4354 -0.7020
  756MOL0     C99722   1.255   0.879   8.433  0.5138 -0.2550 -0.2015
  756MOL0     C99723   1.391   0.929   8.436 -0.4218 -0.2099 -0.6981
  756MOL0     C99724   1.499   0.980   8.431 -0.1535  0.2464  1.2707
  756MOL0     C99725   1.052   1.270   7.889 -0.1748 -0.8264  0.1939
  756MOL0     C99726   1.015   1.381   7.811  0.1002  0.0118  0.2998
  756MOL0     H99727   1.153   1.885   7.737 -0.8615  1.3218  5.6779
  756MOL0     H99728   1.099   2.056   7.551  1.2275 -1.6153  0.8701
  756MOL0     H99729   0.955   2.052   7.342 -0.7512 -1.1888 -1.4157
  756MOL0     H99730   0.877   2.211   7.303 -2.8956  0.7166 -0.5635
  756MOL0     H99731   0.722   1.933   7.343 -1.3094 -0.2132  0.0523
  756MOL0     H99732   0.774   2.024   7.204 -4.1721  0.6656 -1.5646
  756MOL0     H99733   0.615   2.220   7.316 -1.7097 -0.5394 -3.4115
  756MOL0     H99734   0.562   2.079   7.416  1.1764 -0.7297  1.0318
  756MOL0     H99735   0.474   1.984   7.205  1.2036 -1.3957 -2.2774
  756MOL0     H99736   0.408   2.143   7.228  0.4712 -0.8974  1.8083
  756MOL0     H99737   0.596   2.044   7.031 -4.0883 -2.5718  0.8037
  756MOL0     H99738   0.629   2.214   7.073 -1.2550  2.9295 -2.5512
  756MOL0     H99739   0.355   2.121   6.984 -0.3396  0.9084  0.4363
  756MOL0     H99740   0.475   2.188   6.874 -1.4266  3.6196 -0.7608
  756MOL0     H99741   0.357   2.353   7.105 -1.0972  3.4351 -0.4217
  756MOL0     H99742   0.458   2.411   6.972  2.7518 -3.1026 -1.4958
  756MOL0     H99743   0.195   2.250   6.959 -2.9922  2.1536 -0.8807
  756MOL0     H99744   0.264   2.326   6.821  3.3606 -1.6557  0.9655
  756MOL0     H99745   0.000   2.351   7.096  0.9212 -1.6064 -0.2744
  756MOL0     H99746  -0.157   2.516   7.184 -0.6868  1.7446  1.6961
  756MOL0     H99747  -0.195   2.638   7.063  1.3911  1.2186 -1.8341
  756MOL0     H99748  -0.007   2.784   7.195  1.3020 -2.4671 -3.2696
  756MOL0     H99749  -0.031   2.654   7.315 -2.0776  0.3251  1.4057
  756MOL0     H99750  -0.266   2.811   7.192 -4.8275 -1.7340  1.9094
  756MOL0     H99751  -0.262   2.729   7.341  0.8507 -0.9763 -0.0619
  756MOL0     H99752  -0.242   2.974   7.392  1.5054 -0.2307  3.0214
  756MOL0     H99753  -0.124   2.990   7.275  0.7512 -0.2664  0.0157
  756MOL0     H99754   0.063   2.838   7.653 -0.1831  0.0190  1.2626
  756MOL0     H99755   0.165   3.020   7.812  2.0563 -1.2799 -0.9003
  756MOL0     H99756   0.505   3.263   7.846 -2.2026 -1.5322  0.5901
  756MOL0     H99757   0.664   3.399   8.011  0.7183  2.4355  1.9480
  756MOL0     H99758   0.704   3.618   8.077 -2.7324  1.2044  1.4292
  756MOL0     H99759   0.777   3.488   8.185  1.7229  0.6543 -0.7962
  756MOL0     H99760   0.787   3.660   8.360  2.6089 -0.5167 -0.9641
  756MOL0     H99761   0.673   3.760   8.271 -0.5440 -1.1294  3.6843
  756MOL0     H99762   0.865   3.786   8.098  1.4621  3.2271  0.7377
  756MOL0     H99763   0.962   3.676   8.199  0.1881  0.9076 -0.1128
  756MOL0     H99764   0.828   3.942   8.276  2.0837  3.5766 -2.1547
  756MOL0     H99765   0.937   3.867   8.381 -2.3599  1.1106  0.4626
  756MOL0     H99766   0.989   4.002   8.133  0.7015  1.0848 -0.2179
  756MOL0     H99767   1.103   3.874   8.167 -2.1831 -0.4020 -2.8276
  756MOL0     H99768   1.125   3.983   8.405  1.7686 -0.5483 -1.6245
  756MOL0     H99769   1.042   4.124   8.338 -0.0745 -0.7089  1.4903
  756MOL0     H99770   1.280   3.988   8.237  1.0191  0.5790 -1.4425
  756MOL0     H99771   1.214   4.122   8.138  1.6804 -0.0318 -0.2327
  756MOL0     H99772   1.230   4.228   8.383 -2.9947 -1.8390 -2.2887
  756MOL0     H99773   1.312   4.280   8.239  1.9363 -0.3464  0.5230
  756MOL0     H99774   0.324   3.520   8.219  2.9160  1.4512  0.1068
  756MOL0     H99775   0.175   3.393   8.068  0.3791  2.8423  1.4167
  756MOL0     H99776  -0.002   3.326   7.570  1.2836 -0.7064 -2.0806
  756MOL0     H99777  -0.083   3.158   7.419  0.7604 -1.1302 -0.6990
  756MOL0     H99778   0.683   1.997   7.614 -1.8046 -1.5657  2.0971
  756MOL0     H99779   0.731   1.838   7.798  0.6628  0.5879  2.6822
  756MOL0     H99780   1.068   1.615   8.046  2.2918  1.4932 -2.2776
  756MOL0     H99781   1.113   1.434   8.180 -2.2528 -1.0269  0.8028
  756MOL0     H99782   0.994   1.155   8.241  0.1411 -0.3208  0.5350
  756MOL0     H99783   1.142   1.238   8.282  1.9818 -0.8806  0.5568
  756MOL0     H99784   1.108   0.945   8.203 -0.4138  0.2269 -0.7268
  756MOL0     H99785   1.267   1.017   8.231  0.2785 -0.1647 -0.3974
  756MOL0     H99786   1.048   0.956   8.428 -0.0568  2.1654  2.4188
  756MOL0     H99787   1.153   1.076   8.464 -0.7980 -2.5484  2.6951
  756MOL0     H99788   1.240   0.848   8.537  1.6897  2.2539  0.7850
  756MOL0     H99789   1.235   0.785   8.380  1.1610 -2.0341  2.5189
  756MOL0     H99790   1.592   1.035   8.427 -1.7465  3.2114  1.9180
  756MOL0     H99791   1.053   1.164   7.864 -1.8293 -0.5061 -1.4752
  756MOL0     H99792   0.991   1.366   7.706  1.9332  0.3578 -0.2133
  757MOL0     O99793   0.666   5.101   4.758 -0.1384  0.2588 -0.4759
  757MOL0     C99794   0.742   5.020   4.701 -0.5472 -0.7552  0.2175
  757MOL0     O99795   0.698   4.895   4.641  0.3082 -0.8100  0.9142
  757MOL0     C99796   0.560   4.856   4.643  0.4758 -1.1206 -0.0671
  757MOL0     C99797   0.456   4.951   4.643  0.9104  0.5893  0.0215
  757MOL0     C99798   0.324   4.912   4.639  0.7529  0.2376 -0.7471
  757MOL0     C99799   0.287   4.774   4.630 -0.9370 -0.7194 -0.2371
  757MOL0     O99800   0.153   4.739   4.618  0.1345 -0.3523 -0.7040
  757MOL0     C99801   0.096   4.625   4.686  0.1110 -0.6918  0.2758
  757MOL0     C99802  -0.057   4.616   4.652 -0.8003 -0.5400  0.3488
  757MOL0     C99803  -0.119   4.759   4.684  0.7595  0.2919  0.4943
  757MOL0     C99804  -0.268   4.771   4.653 -0.7904  0.4539 -0.1861
  757MOL0     C99805  -0.356   4.721   4.774  0.1833  0.5810 -0.7588
  757MOL0     C99806  -0.487   4.678   4.692 -0.5598 -0.0550 -0.4326
  757MOL0     C99807  -0.592   4.628   4.788  0.0825  1.0720  0.5226
  757MOL0     C99808  -0.725   4.638   4.721  0.7424 -0.0991 -0.1194
  757MOL0     N99809  -0.832   4.612   4.819 -0.2111 -0.2070  0.6495
  757MOL0     C99810  -0.906   4.703   4.881 -0.0835 -0.3400 -0.0389
  757MOL0     C99811  -0.990   4.631   4.959 -0.2643  0.3873  0.0028
  757MOL0     C99812  -1.119   4.678   5.017 -0.6705  0.7816  0.3113
  757MOL0     C99813  -1.225   4.574   4.995 -0.9133 -0.6523  0.1419
  757MOL0     C99814  -1.346   4.612   5.081  0.7468  0.3741 -0.0141
  757MOL0     C99815  -1.460   4.515   5.056  0.6092  0.1738  0.5483
  757MOL0     O99816  -1.458   4.413   5.151  0.5608  0.9803 -0.6171
  757MOL0     C99817  -1.569   4.405   5.228  0.2312 -0.2393  0.4527
  757MOL0     C99818  -1.578   4.463   5.346  0.1130  0.1620 -0.1104
  757MOL0     C99819  -1.696   4.473   5.427 -0.2920 -0.5171  0.1204
  757MOL0     C99820  -1.804   4.398   5.380 -0.2381  0.7698 -0.6266
  757MOL0     C99821  -1.921   4.394   5.454  0.5064 -0.2302  0.0788
  757MOL0     O99822  -2.017   4.318   5.399 -0.0396  0.2217  0.0222
  757MOL0     C99823  -2.137   4.301   5.460 -0.3426 -0.3685 -1.7162
  757MOL0     C99824  -2.177   4.170   5.505 -0.4010  0.0956  0.5781
  757MOL0     C99825  -2.291   4.147   5.570  0.7546  0.5893 -0.0640
  757MOL0     C99826  -2.387   4.254   5.592 -0.3572 -1.1728 -0.4639
  757MOL0     O99827  -2.497   4.237   5.675  0.2144  0.5228  0.4645
  757MOL0     C99828  -2.474   4.297   5.807 -0.5457 -0.1554  0.7183
  757MOL0     C99829  -2.571   4.230   5.917 -0.4093  0.0454  0.6755
  757MOL0     C99830  -2.577   4.074   5.910 -0.8325 -0.3173  0.2367
  757MOL0     C99831  -2.683   4.019   6.005  0.4719  0.5741  0.3879
  757MOL0     C99832  -2.660   4.042   6.150 -0.7972 -0.0217 -0.7177
  757MOL0     C99833  -2.755   3.956   6.236  0.9380  0.5381 -0.5081
  757MOL0     C99834  -2.724   3.955   6.385  0.2962 -0.2884 -0.0161
  757MOL0     C99835  -2.705   4.089   6.454 -0.1433  0.8049 -0.0437
  757MOL0    Cl99836  -2.649   4.053   6.625 -0.4527  0.2313 -0.3300
  757MOL0     C99837  -2.347   4.380   5.555  0.3045 -0.0059  0.5919
  757MOL0     C99838  -2.230   4.405   5.486 -0.7794  0.0917 -0.5082
  757MOL0     O99839  -1.934   4.467   5.554 -0.2349  0.2577 -0.5876
  757MOL0     C99840  -1.788   4.313   5.266 -0.1983  0.0812  0.0473
  757MOL0     C99841  -1.678   4.329   5.188  0.4973  0.3485 -0.5339
  757MOL0     N99842  -0.948   4.492   4.953 -0.0864  0.0182  0.8217
  757MOL0     N99843  -0.859   4.483   4.855 -0.3254  0.3665 -0.2790
  757MOL0     C99844   0.385   4.677   4.613  0.6251 -0.3943  0.1529
  757MOL0     C99845   0.520   4.724   4.623 -0.4696 -0.1097 -0.0939
  757MOL0     C99846   0.890   5.051   4.696 -0.3502 -0.0918 -0.2372
  757MOL0     C99847   0.952   5.147   4.781  0.1804 -0.0165 -0.1850
  757MOL0     C99848   1.088   5.169   4.783  0.2380 -0.0959 -0.3917
  757MOL0     C99849   1.182   5.097   4.706 -0.1839  0.4241 -0.8562
  757MOL0     O99850   1.320   5.097   4.736 -0.2003  0.2817  0.2255
  757MOL0     C99851   1.367   5.144   4.858  0.1716 -0.0113  0.2283
  757MOL0     C99852   1.329   5.025   4.961  0.9354 -0.7854  0.2371
  757MOL0     C99853   1.397   5.061   5.100 -0.4079 -0.2380  0.4376
  757MOL0     C99854   1.426   5.212   5.137  0.9176  0.3764 -0.9605
  757MOL0     C99855   1.478   5.220   5.273 -0.4200  0.1430 -0.4900
  757MOL0     C99856   1.534   5.243   5.377  0.5641  0.3608  0.0014
  757MOL0     C99857   1.121   5.004   4.613 -1.1686  0.4998 -0.0621
  757MOL0     C99858   0.983   4.973   4.612  0.5738 -0.4706  0.4420
  757MOL0     H99859   0.477   5.057   4.642  1.8483  0.4649  2.0394
  757MOL0     H99860   0.252   4.992   4.653  1.9709  0.9449  2.4743
  757MOL0     H99861   0.113   4.633   4.794  1.5368 -1.3619  0.1310
  757MOL0     H99862   0.147   4.534   4.654 -1.3252 -1.3365 -0.2574
  757MOL0     H99863  -0.120   4.542   4.701 -0.1151 -3.3018 -2.5646
  757MOL0     H99864  -0.057   4.594   4.545  0.4934 -0.6178  0.3501
  757MOL0     H99865  -0.076   4.822   4.606  0.9103  2.6248  2.3441
  757MOL0     H99866  -0.096   4.797   4.784  0.5888 -2.9767  1.8818
  757MOL0     H99867  -0.304   4.867   4.616  0.5168  0.2172 -2.1900
  757MOL0     H99868  -0.272   4.701   4.570 -2.4508 -1.8324  1.6656
  757MOL0     H99869  -0.381   4.805   4.840  0.6819  3.3190 -3.8290
  757MOL0     H99870  -0.308   4.641   4.833  2.7678  2.4665 -0.1345
  757MOL0     H99871  -0.466   4.593   4.626 -1.8243 -0.1739 -0.7133
  757MOL0     H99872  -0.522   4.766   4.638 -0.2431  0.9062  0.8961
  757MOL0     H99873  -0.566   4.526   4.817  0.4092  1.7730  2.9351
  757MOL0     H99874  -0.577   4.686   4.880 -1.5250  0.7781  0.9877
  757MOL0     H99875  -0.730   4.581   4.627 -3.2807 -0.8076  0.3801
  757MOL0     H99876  -0.737   4.742   4.690  2.1675  0.9412  2.4986
  757MOL0     H99877  -0.905   4.810   4.866 -4.1168  1.0629  5.9326
  757MOL0     H99878  -1.149   4.768   4.963 -1.5765 -0.9219 -2.2252
  757MOL0     H99879  -1.114   4.704   5.123 -0.6312 -0.2265  0.5620
  757MOL0     H99880  -1.196   4.472   5.023  1.6154  0.7589  3.4259
  757MOL0     H99881  -1.249   4.574   4.888 -1.2857  2.5079  0.1407
  757MOL0     H99882  -1.315   4.590   5.183 -2.0942 -0.2133  0.7917
  757MOL0     H99883  -1.376   4.715   5.060  0.0040  0.4744  1.4564
  757MOL0     H99884  -1.437   4.475   4.957 -0.5503 -2.3952  1.2291
  757MOL0     H99885  -1.555   4.565   5.034  0.2149 -1.2584 -1.2714
  757MOL0     H99886  -1.479   4.500   5.372  0.9909 -0.2355 -2.5900
  757MOL0     H99887  -1.702   4.535   5.516  0.3023 -0.6092  0.2324
  757MOL0     H99888  -2.112   4.088   5.476  1.5214  1.6583  0.2360
  757MOL0     H99889  -2.311   4.044   5.598  0.3720  1.3609  2.8806
  757MOL0     H99890  -2.501   4.403   5.801 -0.1751 -0.0230  1.2593
  757MOL0     H99891  -2.367   4.280   5.823 -0.6714  0.2450  2.1134
  757MOL0     H99892  -2.667   4.275   5.892  0.9807  3.3890  0.7632
  757MOL0     H99893  -2.547   4.283   6.010 -2.7432  1.4901  0.5312
  757MOL0     H99894  -2.480   4.046   5.952  2.4655  4.2712 -3.2569
  757MOL0     H99895  -2.583   4.028   5.811  1.3113 -2.5400  1.0307
  757MOL0     H99896  -2.781   4.058   5.977  1.1184  2.0207  0.0397
  757MOL0     H99897  -2.685   3.912   5.983 -2.0112  0.9807 -1.9036
  757MOL0     H99898  -2.658   4.147   6.181  1.2266 -0.8234  2.3386
  757MOL0     H99899  -2.560   4.005   6.172 -0.7366  0.2989 -0.4555
  757MOL0     H99900  -2.753   3.854   6.198 -0.6638 -0.9698  3.0108
  757MOL0     H99901  -2.860   3.984   6.222  0.5797 -1.1200 -1.3838
  757MOL0     H99902  -2.812   3.920   6.441 -0.0361  1.2083  0.4247
  757MOL0     H99903  -2.636   3.895   6.412  0.1255 -0.7626 -0.4948
  757MOL0     H99904  -2.798   4.146   6.443 -2.4416 -2.3493  1.6533
  757MOL0     H99905  -2.621   4.147   6.413  1.3755 -1.4507 -0.2950
  757MOL0     H99906  -2.407   4.466   5.584 -1.2307 -0.8653  0.1206
  757MOL0     H99907  -2.194   4.500   5.448 -0.4735  0.1205 -0.1519
  757MOL0     H99908  -1.871   4.249   5.238  1.3202 -1.2529 -1.6846
  757MOL0     H99909  -1.683   4.281   5.091  0.6173 -0.7556 -0.0075
  757MOL0     H99910   0.359   4.572   4.600 -0.1562 -0.0918 -0.8432
  757MOL0     H99911   0.603   4.656   4.639 -2.2177 -1.6649  3.8415
  757MOL0     H99912   0.884   5.195   4.851  2.0123 -0.0321  1.6854
  757MOL0     H99913   1.124   5.239   4.857 -1.1546 -1.9644  2.2351
  757MOL0     H99914   1.310   5.231   4.890 -1.1517 -0.5585 -0.5761
  757MOL0     H99915   1.474   5.165   4.848 -0.1906  1.1067 -1.7311
  757MOL0     H99916   1.221   5.023   4.978  0.7812  2.3713  0.2427
  757MOL0     H99917   1.352   4.932   4.908  0.1274  0.0731 -1.7411
  757MOL0     H99918   1.501   5.028   5.086 -1.2412 -2.0960 -2.3330
  757MOL0     H99919   1.351   5.002   5.179 -2.9067 -1.1045 -1.5235
  757MOL0     H99920   1.489   5.272   5.071 -0.0206  3.8746  1.0495
  757MOL0     H99921   1.331   5.266   5.141  1.8958  2.1162 -0.5647
  757MOL0     H99922   1.586   5.267   5.467  3.2469  0.0086 -1.3473
  757MOL0     H99923   1.193   4.933   4.573  1.1610  2.5793  0.1679
  757MOL0     H99924   0.945   4.898   4.544 -0.6020  1.4454 -1.1154
  758MOL0     O99925   8.678   3.308   2.766  1.7192 -0.1852  0.1399
  758MOL0     C99926   8.732   3.208   2.809 -0.4512 -0.1337 -0.2295
  758MOL0     O99927   8.668   3.109   2.882  0.7354  0.7983  0.2783
  758MOL0     C99928   8.537   3.084   2.837 -0.2139  0.0916  0.5833
  758MOL0     C99929   8.437   3.099   2.929  0.1415 -0.4332  0.1186
  758MOL0     C99930   8.311   3.044   2.897  0.4406  0.0487 -0.5385
  758MOL0     C99931   8.286   2.999   2.760  0.4603  0.9631 -0.6409
  758MOL0     O99932   8.156   2.954   2.727 -0.0033  0.1541  0.2254
  758MOL0     C99933   8.073   3.055   2.659 -0.5816 -0.6116  0.4313
  758MOL0     C99934   7.933   3.061   2.699 -0.2779 -0.0699 -0.0053
  758MOL0     C99935   7.873   2.924   2.665  0.3618 -1.0034  0.5236
  758MOL0     C99936   7.724   2.931   2.656 -0.2225  0.6558  1.0612
  758MOL0     C99937   7.657   2.799   2.667 -0.0471  0.2730  0.4904
  758MOL0     C99938   7.507   2.801   2.679  0.4720  0.5305  0.2534
  758MOL0     C99939   7.446   2.674   2.738 -0.7433 -0.3204  0.0038
  758MOL0     C99940   7.296   2.668   2.707 -0.1219  0.0338 -0.1299
  758MOL0     N99941   7.218   2.787   2.755 -0.6134 -0.2166 -0.4393
  758MOL0     C99942   7.145   2.873   2.672 -0.0469  0.1948  0.0999
  758MOL0     C99943   7.074   2.943   2.761  0.5542 -0.8216 -0.5875
  758MOL0     C99944   6.986   3.057   2.723 -1.2625  0.1461 -0.1550
  758MOL0     C99945   6.840   3.005   2.702  0.0034 -0.1961 -0.3325
  758MOL0     C99946   6.808   3.003   2.553 -0.2933 -0.4721 -1.0211
  758MOL0     C99947   6.718   2.890   2.514  0.5993  0.2797  0.4284
  758MOL0     O99948   6.703   2.895   2.364  0.1971  0.5221  0.7755
  758MOL0     C99949   6.570   2.912   2.310  0.4046  0.4182 -0.0298
  758MOL0     C99950   6.516   2.804   2.234 -0.1148  0.1588 -0.1369
  758MOL0     C99951   6.386   2.816   2.183  0.0664 -0.3828 -0.1298
  758MOL0     C99952   6.302   2.915   2.227  0.5786  0.0650  0.3142
  758MOL0     C99953   6.167   2.923   2.185 -0.2973  1.2493  0.0796
  758MOL0     O99954   6.116   2.796   2.146 -0.0824 -0.7322 -0.6810
  758MOL0     C99955   5.993   2.801   2.087 -0.9570  0.1245  0.8931
  758MOL0     C99956   5.883   2.799   2.159 -0.1912  0.9615  1.8730
  758MOL0     C99957   5.763   2.786   2.098  0.7390  0.1838  0.4096
  758MOL0     C99958   5.753   2.808   1.955 -0.9937  0.5750  1.0805
  758MOL0     O99959   5.634   2.800   1.894  1.0862  0.4493 -0.0680
  758MOL0     C99960   5.563   2.916   1.931 -0.4935  0.3093  0.6263
  758MOL0     C99961   5.416   2.882   1.904  0.0714  0.6191  0.0327
  758MOL0     C99962   5.310   2.986   1.914 -0.7599  0.4670  0.4367
  758MOL0     C99963   5.336   3.116   1.838 -0.0771  0.2890 -0.8541
  758MOL0     C99964   5.311   3.105   1.685 -1.3177  0.0260 -0.4160
  758MOL0     C99965   5.304   3.231   1.611  0.4303 -0.1801 -0.2637
  758MOL0     C99966   5.289   3.216   1.462  0.6716 -0.1090 -0.4512
  758MOL0     C99967   5.300   3.355   1.396 -0.8783  0.3382 -0.0920
  758MOL0    Cl99968   5.169   3.475   1.418  0.2363 -0.4700 -0.0466
  758MOL0     C99969   5.871   2.798   1.880  0.2380  0.7191 -0.1395
  758MOL0     C99970   5.990   2.804   1.947 -0.4019  0.4388 -0.3826
  758MOL0     O99971   6.118   3.035   2.165 -0.2302 -0.6937  0.0560
  758MOL0     C99972   6.353   3.014   2.302 -0.5341 -0.3368  0.1023
  758MOL0     C99973   6.483   3.014   2.351 -0.2054 -0.8506  0.5890
  758MOL0     N99974   7.100   2.908   2.891  0.4972 -0.3523  0.4661
  758MOL0     N99975   7.182   2.814   2.888  0.2964  0.4695  0.1571
  758MOL0     C99976   8.392   3.005   2.667 -0.4429 -0.3086 -0.1866
  758MOL0     C99977   8.516   3.018   2.722  0.5677  0.4922  0.1343
  758MOL0     C99978   8.878   3.188   2.795 -0.2967  0.1146 -0.4174
  758MOL0     C99979   8.956   3.294   2.743 -0.5676 -0.5518  0.5633
  758MOL0     C99980   9.092   3.285   2.738  0.1052  0.0114  0.0563
  758MOL0     C99981   9.152   3.165   2.779  0.5411 -0.2585  0.0116
  758MOL0     O99982   9.285   3.143   2.777 -0.4844  0.0036  0.1722
  758MOL0     C99983   9.372   3.253   2.739 -0.0265  0.4395 -0.2488
  758MOL0     C99984   9.519   3.198   2.725 -0.2882 -0.1024 -0.1098
  758MOL0     C99985   9.588   3.177   2.865  0.4213 -0.2446  0.0023
  758MOL0     C99986   9.559   3.041   2.934  0.2726  0.7700  0.7315
  758MOL0     C99987   9.593   2.925   2.848 -0.4592  0.2751  0.2650
  758MOL0     C99988   9.617   2.820   2.783  0.6603 -0.6620 -0.4313
  758MOL0     C99989   9.071   3.066   2.829 -0.8812 -0.7027  0.1835
  758MOL0     C99990   8.940   3.070   2.840 -0.7101  0.1718 -0.2594
  758MOL0     H99991   8.458   3.148   3.023 -0.2199 -0.9057  0.4502
  758MOL0     H99992   8.235   3.031   2.974  1.3445  0.4601  0.4462
  758MOL0     H99993   8.082   3.036   2.552  0.1513  0.6172  0.2566
  758MOL0     H99994   8.126   3.150   2.673  0.0001 -1.1091  1.8787
  758MOL0     H99995   7.870   3.136   2.650 -1.6157  0.8217  2.8577
  758MOL0     H99996   7.931   3.083   2.806  1.5777 -1.2367  0.3153
  758MOL0     H99997   7.903   2.844   2.733  0.0073 -1.3140  0.3186
  758MOL0     H99998   7.915   2.896   2.568 -0.0320 -1.9387  0.6227
  758MOL0     H99999   7.674   2.989   2.735 -4.7651 -0.2224 -0.8501
  758MOL0     H    0   7.691   2.991   2.571 -0.5090 -0.5075  0.3412
  758MOL0     H    1   7.703   2.751   2.754 -1.5046 -3.7302 -0.7172
  758MOL0     H    2   7.679   2.735   2.582 -4.9026 -1.5432  0.2904
  758MOL0     H    3   7.464   2.816   2.579  2.2764  1.5460 -0.4137
  758MOL0     H    4   7.485   2.873   2.758 -1.7546  1.2229 -0.9039
  758MOL0     H    5   7.479   2.574   2.705  2.0173  1.2038 -2.3131
  758MOL0     H    6   7.455   2.677   2.847  5.1359  1.6792 -0.1855
  758MOL0     H    7   7.262   2.577   2.756 -0.1357  0.0842 -0.0451
  758MOL0     H    8   7.279   2.650   2.600 -0.0001 -2.3300  0.1990
  758MOL0     H    9   7.158   2.880   2.565  2.4751  2.6984  0.4627
  758MOL0     H   10   7.037   3.107   2.640 -0.0076 -4.0782 -2.2597
  758MOL0     H   11   6.987   3.124   2.809 -1.7962  0.0462 -0.0664
  758MOL0     H   12   6.772   3.075   2.752 -0.6962 -2.0277  1.3656
  758MOL0     H   13   6.820   2.912   2.754 -2.5552 -0.4584 -1.6634
  758MOL0     H   14   6.774   3.101   2.520  0.4560  0.6313  1.2646
  758MOL0     H   15   6.906   3.000   2.505  0.7400 -1.0972  1.0051
  758MOL0     H   16   6.623   2.906   2.566  0.8722  0.9816  0.7298
  758MOL0     H   17   6.751   2.788   2.536  1.6112  0.8590  1.7429
  758MOL0     H   18   6.582   2.723   2.207  1.5225  0.8974  1.4966
  758MOL0     H   19   6.355   2.746   2.105  2.0458 -1.4825 -0.0051
  758MOL0     H   20   5.891   2.795   2.267  1.6475 -0.4379  1.7377
  758MOL0     H   21   5.676   2.761   2.157  0.8198  2.9257  1.8264
  758MOL0     H   22   5.598   2.996   1.864  3.2291 -1.6940 -0.0937
  758MOL0     H   23   5.582   2.943   2.035  0.3963 -0.1608  0.5987
  758MOL0     H   24   5.391   2.796   1.967 -0.0478 -0.6746 -1.6902
  758MOL0     H   25   5.424   2.861   1.797  2.9967  2.8187 -0.3167
  758MOL0     H   26   5.320   3.016   2.019 -1.4853 -2.2034  1.3598
  758MOL0     H   27   5.206   2.952   1.906 -0.6288 -0.1041  1.0717
  758MOL0     H   28   5.263   3.187   1.879 -1.2286 -1.2383 -0.1963
  758MOL0     H   29   5.435   3.160   1.857 -0.5613  1.8189 -1.6372
  758MOL0     H   30   5.224   3.040   1.668  1.2739 -3.3436 -2.0059
  758MOL0     H   31   5.392   3.060   1.627 -2.1030  0.9693 -2.3252
  758MOL0     H   32   5.402   3.273   1.632  1.8426 -2.3049 -2.0878
  758MOL0     H   33   5.218   3.288   1.647  0.5133  0.5768 -1.2271
  758MOL0     H   34   5.368   3.153   1.419  0.2428  0.0632 -1.5142
  758MOL0     H   35   5.199   3.160   1.435  1.3928 -1.8011  0.4510
  758MOL0     H   36   5.326   3.340   1.290  0.6384  0.0021  0.2978
  758MOL0     H   37   5.387   3.402   1.443 -0.6060 -2.0571  1.9871
  758MOL0     H   38   5.863   2.811   1.773 -1.3648 -1.2867 -0.3226
  758MOL0     H   39   6.084   2.815   1.893  0.6670  2.5573  1.7361
  758MOL0     H   40   6.292   3.099   2.330  0.1624 -0.4647  2.1241
  758MOL0     H   41   6.504   3.093   2.422 -0.8288  0.0795 -0.2427
  758MOL0     H   42   8.383   2.976   2.563  3.5362  0.2288 -0.8314
  758MOL0     H   43   8.589   3.001   2.643  2.1756  2.8599  0.9920
  758MOL0     H   44   8.904   3.385   2.714  0.4940 -0.1454 -0.1481
  758MOL0     H   45   9.139   3.371   2.691 -3.5695  1.0102 -2.1723
  758MOL0     H   46   9.364   3.334   2.812  0.6312  1.4298 -1.2370
  758MOL0     H   47   9.342   3.297   2.644  0.2750  0.6723 -0.2364
  758MOL0     H   48   9.513   3.104   2.670  3.4684 -1.9988  2.3260
  758MOL0     H   49   9.591   3.268   2.682  1.5615 -1.5726  0.4369
  758MOL0     H   50   9.550   3.245   2.942 -1.9927  0.1217 -1.4030
  758MOL0     H   51   9.693   3.193   2.839  0.0617  0.7684 -0.9422
  758MOL0     H   52   9.607   3.025   3.031  1.2102  0.3697  0.2154
  758MOL0     H   53   9.450   3.038   2.944 -0.2037 -0.2206 -3.0615
  758MOL0     H   54   9.646   2.729   2.733  0.2754 -1.1273  0.1838
  758MOL0     H   55   9.120   2.975   2.859  0.6332  0.7486  2.4072
  758MOL0     H   56   8.887   2.977   2.858  2.7607 -1.4931  2.6528
  759MOL0     O   57   5.510   0.020  11.039 -0.2257  0.3414 -0.5462
  759MOL0     C   58   5.531   0.141  11.042  0.4448 -0.5123 -0.0965
  759MOL0     O   59   5.472   0.225  10.954  0.3343 -0.6605  0.5005
  759MOL0     C   60   5.375   0.181  10.870 -0.5476 -0.1030  0.1615
  759MOL0     C   61   5.251   0.242  10.875 -0.1012  0.3749 -0.2150
  759MOL0     C   62   5.150   0.204  10.789 -0.2637  0.0532  0.9781
  759MOL0     C   63   5.169   0.095  10.694  0.2687  0.0849 -0.1240
  759MOL0     O   64   5.066   0.034  10.631 -0.3326  0.1591 -0.3756
  759MOL0     C   65   4.969   0.110  10.572 -0.3134  0.0856  0.1647
  759MOL0     C   66   4.887   0.032  10.477 -0.6541  0.6864 -0.5939
  759MOL0     C   67   4.969  -0.068  10.385  0.2014  0.3804 -0.0137
  759MOL0     C   68   4.861  -0.135  10.307 -0.0485  0.2837 -0.5043
  759MOL0     C   69   4.926  -0.262  10.233  1.4766  0.1666 -0.2247
  759MOL0     C   70   4.821  -0.345  10.149 -0.7760 -1.3503  0.3172
  759MOL0     C   71   4.899  -0.453  10.081 -0.1811 -0.0113 -1.4952
  759MOL0     C   72   4.794  -0.541  10.004 -0.3523  0.2179  0.5582
  759MOL0     N   73   4.856  -0.638   9.918  1.0342 -0.2351 -0.1800
  759MOL0     C   74   4.925  -0.611   9.802 -0.7541  0.3118  0.3952
  759MOL0     C   75   4.923  -0.733   9.743  0.4293 -1.1200  0.1934
  759MOL0     C   76   5.003  -0.775   9.615  0.3681 -0.1043  0.5846
  759MOL0     C   77   4.918  -0.788   9.481  0.3319  0.1062 -0.0424
  759MOL0     C   78   4.820  -0.901   9.464  0.9936  0.6570  0.3432
  759MOL0     C   79   4.770  -0.929   9.318  0.3298  1.0553  0.0288
  759MOL0     O   80   4.719  -1.064   9.297  0.3776 -0.2087  0.1929
  759MOL0     C   81   4.592  -1.102   9.326 -0.1536  0.2076 -0.9905
  759MOL0     C   82   4.567  -1.241   9.341  0.1659  0.5436 -0.7015
  759MOL0     C   83   4.436  -1.283   9.384 -0.1579 -0.7219 -0.1643
  759MOL0     C   84   4.339  -1.194   9.412 -0.5157 -0.2400 -0.5737
  759MOL0     C   85   4.202  -1.234   9.445  0.0388 -0.4591 -0.0697
  759MOL0     O   86   4.173  -1.375   9.455  0.3468 -0.5730 -0.7257
  759MOL0     C   87   4.045  -1.403   9.496 -0.5558  0.4822 -0.1657
  759MOL0     C   88   3.924  -1.353   9.444  0.4836 -0.9602 -0.6601
  759MOL0     C   89   3.808  -1.404   9.494 -0.9551 -0.0768 -1.1119
  759MOL0     C   90   3.804  -1.490   9.601  0.9992 -0.1320 -0.3302
  759MOL0     O   91   3.675  -1.536   9.645 -0.4108  0.2699  1.1125
  759MOL0     C   92   3.651  -1.579   9.783 -0.1532 -0.4138 -0.0652
  759MOL0     C   93   3.553  -1.687   9.772  0.0254  1.0623  0.1253
  759MOL0     C   94   3.609  -1.830   9.760  0.5977 -0.7260  0.1295
  759MOL0     C   95   3.678  -1.856   9.625  0.6637 -0.4230  0.0749
  759MOL0     C   96   3.735  -2.001   9.614 -0.0893  0.0727  0.3680
  759MOL0     C   97   3.623  -2.103   9.588  0.4313 -0.0336 -0.1864
  759MOL0     C   98   3.685  -2.248   9.566  0.4802 -0.2560 -0.6477
  759MOL0     C   99   3.590  -2.364   9.541 -0.4868  0.0738  0.3873
  759MOL0    Cl  100   3.695  -2.513   9.505 -0.0871  0.4340  0.0009
  759MOL0     C  101   3.915  -1.542   9.661 -0.2229 -0.0623  0.2951
  759MOL0     C  102   4.036  -1.504   9.596 -0.6167  0.1891 -0.3085
  759MOL0     O  103   4.123  -1.142   9.465 -0.0000  0.2096  0.3152
  759MOL0     C  104   4.366  -1.055   9.381  0.1056  0.3654 -0.1090
  759MOL0     C  105   4.491  -1.009   9.348 -0.3279  0.0365 -1.3222
  759MOL0     N  106   4.866  -0.832   9.820  0.6352  0.0611  0.1464
  759MOL0     N  107   4.820  -0.767   9.925  0.4907  0.0409 -0.3924
  759MOL0     C  108   5.294   0.033  10.691 -0.1845 -0.8372 -0.8268
  759MOL0     C  109   5.392   0.071  10.778 -0.5855 -1.6196  0.0960
  759MOL0     C  110   5.626   0.193  11.137 -0.1728 -0.2425 -0.4791
  759MOL0     C  111   5.690   0.104  11.230  0.6851 -0.5400  0.0611
  759MOL0     C  112   5.765   0.154  11.331  0.6544 -0.2580  0.0548
  759MOL0     C  113   5.795   0.285  11.336  0.2266  0.3679  0.0476
  759MOL0     O  114   5.858   0.339  11.451  0.3400  0.3304 -0.2012
  759MOL0     C  115   5.885   0.479  11.448  0.1706 -0.5387  0.7743
  759MOL0     C  116   5.916   0.530  11.585 -0.5136 -0.6313 -0.1186
  759MOL0     C  117   5.808   0.500  11.699  0.6022 -0.2174  0.1630
  759MOL0     C  118   5.854   0.397  11.789  0.2494 -0.1421  0.1817
  759MOL0     C  119   5.779   0.398  11.914 -0.0330 -0.5349  0.0733
  759MOL0     C  120   5.711   0.424  12.015  0.2114  0.3024  0.0465
  759MOL0     C  121   5.760   0.371  11.231 -0.2481 -0.1839  0.0094
  759MOL0     C  122   5.674   0.330  11.130  1.1493  0.2107 -0.3362
  759MOL0     H  123   5.232   0.312  10.956 -3.0839  0.9111 -1.2392
  759MOL0     H  124   5.052   0.248  10.802 -0.7121  0.4509 -2.6260
  759MOL0     H  125   5.023   0.190  10.520  0.2759 -0.5288 -0.1864
  759MOL0     H  126   4.910   0.164  10.646 -0.3048  1.6885 -0.9310
  759MOL0     H  127   4.835   0.108  10.418 -1.0786 -0.6457 -1.9955
  759MOL0     H  128   4.818  -0.016  10.546 -0.4390  2.1917  0.7152
  759MOL0     H  129   5.023  -0.143  10.445  1.2114  1.0009 -0.1156
  759MOL0     H  130   5.036  -0.011  10.319 -0.8674  0.2514 -1.2558
  759MOL0     H  131   4.775  -0.177  10.361 -0.2891 -0.7770 -1.6456
  759MOL0     H  132   4.819  -0.062  10.237  2.2997 -0.2740 -2.6301
  759MOL0     H  133   4.987  -0.330  10.293  3.5515  2.0501 -0.0459
  759MOL0     H  134   4.996  -0.219  10.161  1.8875  0.3861  0.2956
  759MOL0     H  135   4.782  -0.289  10.063 -0.4615 -0.7783  0.5393
  759MOL0     H  136   4.737  -0.387  10.205 -0.9737 -2.0160 -0.4638
  759MOL0     H  137   4.969  -0.401  10.016  0.3385 -0.3435 -1.2082
  759MOL0     H  138   4.952  -0.518  10.152  0.4483  2.5808  0.5810
  759MOL0     H  139   4.729  -0.468   9.957 -0.9998  0.2315  1.4373
  759MOL0     H  140   4.737  -0.593  10.082  0.6274  1.0965  1.9197
  759MOL0     H  141   4.969  -0.523   9.757 -1.7097  0.1818 -0.8636
  759MOL0     H  142   5.056  -0.870   9.624 -1.8273 -1.3859  0.7338
  759MOL0     H  143   5.082  -0.702   9.598 -0.8251  2.0806  3.5981
  759MOL0     H  144   4.988  -0.792   9.397 -0.9781  2.2893 -1.3485
  759MOL0     H  145   4.870  -0.690   9.472  0.2871  0.0458 -0.4832
  759MOL0     H  146   4.884  -0.985   9.493  1.7619  1.1252  0.0379
  759MOL0     H  147   4.736  -0.882   9.531  1.5615  1.9960  0.7161
  759MOL0     H  148   4.849  -0.911   9.244  0.1522  1.9439  0.0447
  759MOL0     H  149   4.696  -0.857   9.282 -0.6884  0.2803  0.4982
  759MOL0     H  150   4.643  -1.318   9.334  0.0908  0.4989 -1.0711
  759MOL0     H  151   4.424  -1.390   9.396  1.9803 -1.2514 -2.0539
  759MOL0     H  152   3.925  -1.278   9.366  2.4383  0.1322  0.3486
  759MOL0     H  153   3.709  -1.380   9.456 -2.1962  0.2205  2.0424
  759MOL0     H  154   3.594  -1.504   9.838 -0.5318 -1.4894  1.0476
  759MOL0     H  155   3.737  -1.599   9.848 -0.1110  0.1284  0.0502
  759MOL0     H  156   3.484  -1.667   9.690  1.6517 -1.4174 -2.0348
  759MOL0     H  157   3.502  -1.683   9.869  2.3333  2.3275  1.3711
  759MOL0     H  158   3.524  -1.898   9.769 -0.8089  1.0427  0.7957
  759MOL0     H  159   3.668  -1.863   9.846 -3.7684 -3.0197  2.5708
  759MOL0     H  160   3.604  -1.846   9.546  1.5054  1.3404 -0.5638
  759MOL0     H  161   3.759  -1.785   9.603  0.9282 -0.4978  0.7807
  759MOL0     H  162   3.783  -2.037   9.705  1.9356 -1.1642 -1.1194
  759MOL0     H  163   3.802  -2.013   9.528 -1.3103 -0.2430 -0.5627
  759MOL0     H  164   3.557  -2.086   9.502 -1.2756 -1.5072  0.7566
  759MOL0     H  165   3.564  -2.109   9.680 -0.2461  2.0071 -0.4192
  759MOL0     H  166   3.724  -2.249   9.464 -1.9920 -1.0404 -1.6603
  759MOL0     H  167   3.756  -2.262   9.648  0.1263  0.8640 -0.1411
  759MOL0     H  168   3.528  -2.342   9.453  1.6404  0.1447 -1.1606
  759MOL0     H  169   3.517  -2.381   9.622 -0.6566 -1.0747  0.0138
  759MOL0     H  170   3.920  -1.608   9.747  0.8027  0.9609  1.0579
  759MOL0     H  171   4.132  -1.544   9.626 -0.7734  0.5308  0.6637
  759MOL0     H  172   4.291  -0.979   9.400  0.4241  0.0040  3.2133
  759MOL0     H  173   4.517  -0.904   9.348  2.0243 -0.3503  2.3821
  759MOL0     H  174   5.298  -0.059  10.635  2.5686 -1.5878  0.4754
  759MOL0     H  175   5.486   0.017  10.783 -1.3040 -2.8602  0.9269
  759MOL0     H  176   5.660  -0.001  11.230  0.0574 -0.3990 -1.7601
  759MOL0     H  177   5.807   0.087  11.406  3.5285  1.2375 -0.0609
  759MOL0     H  178   5.795   0.538  11.430 -0.6221 -2.0337 -0.3840
  759MOL0     H  179   5.953   0.506  11.366 -3.2081  2.1440 -1.4067
  759MOL0     H  180   6.010   0.492  11.626 -1.3369 -1.2982  1.2540
  759MOL0     H  181   5.923   0.639  11.574 -0.6354 -0.7444 -1.5319
  759MOL0     H  182   5.717   0.465  11.648  1.9383 -1.8967 -1.1907
  759MOL0     H  183   5.782   0.593  11.750 -0.5682 -1.2524  1.5261
  759MOL0     H  184   5.830   0.302  11.741  1.6236  0.0342 -0.9055
  759MOL0     H  185   5.956   0.422  11.823 -0.5285  1.8844  1.2387
  759MOL0     H  186   5.670   0.456  12.109  0.7977  0.3346  0.2927
  759MOL0     H  187   5.782   0.478  11.229  1.3249 -0.4653  0.9080
  759MOL0     H  188   5.635   0.397  11.054  1.7553  1.1180  0.1465
  760MOL0     O  189   3.116   5.716   0.612 -0.2036 -0.0621  0.1238
  760MOL0     C  190   3.185   5.811   0.563 -0.2056  0.6781  1.3613
  760MOL0     O  191   3.171   5.949   0.593 -0.3975  0.1043  0.0301
  760MOL0     C  192   3.113   5.970   0.714 -0.2935 -0.0284  0.2690
  760MOL0     C  193   3.179   5.949   0.830  0.0047 -0.3747  0.4161
  760MOL0     C  194   3.110   5.958   0.949  0.3340  0.5821 -0.1097
  760MOL0     C  195   2.972   6.003   0.953 -0.3215  0.3745  0.3351
  760MOL0     O  196   2.904   6.017   1.069  0.0849 -0.8562  0.2063
  760MOL0     C  197   2.972   6.075   1.183 -0.3240 -1.0942  0.6675
  760MOL0     C  198   3.011   5.963   1.280 -0.0797 -0.2029 -0.2459
  760MOL0     C  199   2.881   5.893   1.330  0.4735  0.8134  0.3480
  760MOL0     C  200   2.920   5.791   1.436 -0.4269  0.9555 -0.4556
  760MOL0     C  201   2.794   5.740   1.511 -0.0695  0.2068  0.0539
  760MOL0     C  202   2.719   5.633   1.438 -0.1357 -0.7526  0.2925
  760MOL0     C  203   2.591   5.687   1.388 -0.7581  0.8535 -0.0647
  760MOL0     C  204   2.532   5.588   1.273  0.1930  0.2793 -0.5341
  760MOL0     N  205   2.430   5.499   1.331 -0.1168  0.5013 -0.9498
  760MOL0     C  206   2.297   5.517   1.306 -0.4882  0.3537  0.2587
  760MOL0     C  207   2.224   5.428   1.373  0.2059  0.2256  0.1876
  760MOL0     C  208   2.077   5.416   1.355 -0.2226 -0.1314  0.4418
  760MOL0     C  209   2.029   5.376   1.215  0.3017 -0.3952  0.2404
  760MOL0     C  210   2.007   5.230   1.198  0.9211 -1.2092  0.6294
  760MOL0     C  211   2.116   5.140   1.260  0.0154  1.0002 -0.4609
  760MOL0     O  212   2.075   5.006   1.228  0.0544  0.4375  0.2944
  760MOL0     C  213   2.124   4.899   1.300  0.0204  0.3340 -0.0974
  760MOL0     C  214   2.049   4.790   1.317  0.0760 -0.1207  0.2089
  760MOL0     C  215   2.093   4.668   1.379 -0.0193 -0.5133  0.3901
  760MOL0     C  216   2.220   4.665   1.436  0.1942  0.2674  0.2955
  760MOL0     C  217   2.276   4.559   1.522 -0.5698 -0.9261  0.4338
  760MOL0     O  218   2.404   4.597   1.566  0.3306 -1.0755  0.5204
  760MOL0     C  219   2.483   4.499   1.631  0.1197 -0.0271  0.0393
  760MOL0     C  220   2.488   4.365   1.591  0.1069  0.2568  0.7434
  760MOL0     C  221   2.566   4.275   1.646 -0.5410 -1.1132 -0.7173
  760MOL0     C  222   2.644   4.314   1.763 -0.8591  0.2242 -0.0957
  760MOL0     O  223   2.740   4.228   1.820 -0.4605 -0.0058 -0.3272
  760MOL0     C  224   2.798   4.112   1.756 -0.6220  0.3366 -0.3743
  760MOL0     C  225   2.852   4.003   1.846  0.0406 -0.3124 -0.1694
  760MOL0     C  226   3.003   4.008   1.877 -0.0834 -0.6565  0.4022
  760MOL0     C  227   3.052   3.907   1.975 -0.6182  0.7976  0.4590
  760MOL0     C  228   3.065   3.761   1.905  0.1712  0.1812  0.5564
  760MOL0     C  229   3.071   3.640   1.995  0.1161  0.2959  0.0002
  760MOL0     C  230   3.210   3.637   2.063 -0.7919 -0.0559  0.7157
  760MOL0     C  231   3.208   3.536   2.172  0.2925 -0.4639  0.1316
  760MOL0    Cl  232   3.081   3.557   2.297  0.5025  0.4118 -0.7412
  760MOL0     C  233   2.637   4.439   1.815  0.7472  0.1687 -0.1532
  760MOL0     C  234   2.555   4.539   1.749 -0.2074  0.4555  0.2902
  760MOL0     O  235   2.217   4.455   1.541  0.1041 -0.2259  0.3662
  760MOL0     C  236   2.292   4.787   1.431  0.4762 -0.2035  1.4903
  760MOL0     C  237   2.246   4.895   1.355  0.2274  0.4066 -0.2388
  760MOL0     N  238   2.316   5.348   1.442  0.5509 -0.6887  0.0104
  760MOL0     N  239   2.438   5.392   1.418  0.3982  0.6827 -0.1707
  760MOL0     C  240   2.919   6.041   0.833 -0.0067 -0.3236 -0.4494
  760MOL0     C  241   2.985   6.021   0.714 -0.6689 -0.6488 -0.2051
  760MOL0     C  242   3.289   5.777   0.464 -0.4796 -0.8467 -0.4190
  760MOL0     C  243   3.290   5.664   0.385  0.8658  1.2628  0.7839
  760MOL0     C  244   3.398   5.636   0.303  0.6318 -0.3511 -0.0040
  760MOL0     C  245   3.502   5.728   0.278 -0.0787 -0.1378 -0.2350
  760MOL0     O  246   3.613   5.710   0.186 -0.2333 -0.6150 -0.0698
  760MOL0     C  247   3.597   5.596   0.086 -0.3748 -1.1465  0.9421
  760MOL0     C  248   3.738   5.538   0.051  0.4042 -0.2927 -0.4280
  760MOL0     C  249   3.745   5.409  -0.037 -0.2372  0.0423  0.1028
  760MOL0     C  250   3.726   5.284   0.035 -0.0557  0.0224 -0.1558
  760MOL0     C  251   3.765   5.156  -0.023  0.2541 -0.3103 -0.0158
  760MOL0     C  252   3.820   5.054  -0.068  0.0972  0.0284  0.1268
  760MOL0     C  253   3.499   5.841   0.363  0.2019 -0.1892  0.6106
  760MOL0     C  254   3.400   5.868   0.456  0.2868 -0.2072 -0.6151
  760MOL0     H  255   3.277   5.903   0.822 -0.6020 -1.5209 -0.9013
  760MOL0     H  256   3.161   5.926   1.039  0.4200 -0.1439 -0.4148
  760MOL0     H  257   2.902   6.137   1.240 -1.2175 -2.5574  1.2194
  760MOL0     H  258   3.061   6.134   1.160  0.1641 -0.3959  3.8190
  760MOL0     H  259   3.063   6.010   1.364 -1.6810  1.0988  0.0584
  760MOL0     H  260   3.070   5.880   1.240 -0.6636 -1.6873  1.7957
  760MOL0     H  261   2.831   5.839   1.249  0.8238 -4.2118  3.0633
  760MOL0     H  262   2.820   5.982   1.351  0.5532  1.2085 -1.0515
  760MOL0     H  263   2.969   5.703   1.391 -1.9543 -0.1927  0.0440
  760MOL0     H  264   2.991   5.833   1.508  2.9038 -2.3425 -1.4684
  760MOL0     H  265   2.725   5.820   1.540  2.6658  2.5003  0.6662
  760MOL0     H  266   2.826   5.695   1.606  0.1076  2.3076  1.0410
  760MOL0     H  267   2.699   5.547   1.502 -0.5046 -3.4903 -3.1854
  760MOL0     H  268   2.770   5.600   1.347 -3.6489 -0.0273 -2.1579
  760MOL0     H  269   2.531   5.694   1.479  1.7135  1.6598  1.5920
  760MOL0     H  270   2.604   5.786   1.343 -1.5141 -0.5094 -3.6487
  760MOL0     H  271   2.606   5.520   1.229 -0.3922  0.3199 -1.6090
  760MOL0     H  272   2.490   5.643   1.189 -0.5918  0.1351 -0.2475
  760MOL0     H  273   2.262   5.588   1.232 -1.3347 -0.0691  0.2448
  760MOL0     H  274   2.055   5.523   1.369 -1.7577 -0.5507  1.4200
  760MOL0     H  275   2.020   5.351   1.421 -1.6087 -0.9446 -1.4741
  760MOL0     H  276   2.092   5.415   1.134  0.5705  0.3467  0.7924
  760MOL0     H  277   1.933   5.425   1.201  1.0779  0.8046 -1.1053
  760MOL0     H  278   1.913   5.201   1.246 -0.2619  0.2709 -0.6990
  760MOL0     H  279   1.988   5.198   1.096 -3.0369  0.2531  0.7480
  760MOL0     H  280   2.130   5.144   1.368 -1.5080  0.5120 -0.2289
  760MOL0     H  281   2.215   5.143   1.213  1.4008 -0.8732  2.1274
  760MOL0     H  282   1.951   4.789   1.270  1.2455  3.1178 -2.7310
  760MOL0     H  283   2.030   4.583   1.356 -0.6443  0.2337 -0.7737
  760MOL0     H  284   2.411   4.322   1.527  1.6709 -0.4205 -0.7377
  760MOL0     H  285   2.573   4.172   1.613 -1.8246 -0.7185 -2.3312
  760MOL0     H  286   2.877   4.141   1.687  2.2329 -2.5584  1.4182
  760MOL0     H  287   2.724   4.066   1.688 -1.0168  0.9835 -0.3928
  760MOL0     H  288   2.836   3.905   1.798  1.1231  0.6031 -2.5505
  760MOL0     H  289   2.807   4.002   1.946  3.4145  0.2705  1.4843
  760MOL0     H  290   3.024   4.109   1.914  3.1422 -0.0584 -2.5565
  760MOL0     H  291   3.049   3.970   1.785 -0.0785 -1.8166  0.8667
  760MOL0     H  292   3.154   3.937   2.002 -0.6562  2.9439 -1.4536
  760MOL0     H  293   2.990   3.906   2.065  0.1627 -1.5302  1.0334
  760MOL0     H  294   3.157   3.753   1.846  0.1113  0.9934  0.3311
  760MOL0     H  295   2.989   3.750   1.827  2.0086 -0.9369 -1.1771
  760MOL0     H  296   3.046   3.546   1.946 -1.0581  1.5733 -2.0241
  760MOL0     H  297   2.994   3.634   2.073  0.4162 -1.2732  0.2004
  760MOL0     H  298   3.282   3.610   1.986  0.1867  1.2466  1.1347
  760MOL0     H  299   3.244   3.734   2.101  2.1833 -0.7461  0.0063
  760MOL0     H  300   3.307   3.542   2.219  0.1582  0.0528  0.3590
  760MOL0     H  301   3.187   3.440   2.122 -0.1223  0.0161 -0.6422
  760MOL0     H  302   2.675   4.471   1.911  0.5671 -1.9901  0.7005
  760MOL0     H  303   2.552   4.645   1.775 -0.3565  0.1650  1.5297
  760MOL0     H  304   2.385   4.805   1.483  2.3097 -2.1951 -0.8313
  760MOL0     H  305   2.301   4.988   1.347  0.8329  0.0205 -0.6363
  760MOL0     H  306   2.820   6.086   0.827 -0.8891 -1.5619  2.9096
  760MOL0     H  307   2.945   6.034   0.614  0.1428 -0.4153 -0.5112
  760MOL0     H  308   3.206   5.595   0.380  2.0589 -0.1577 -0.4014
  760MOL0     H  309   3.398   5.545   0.245  0.1070  0.0952 -0.7232
  760MOL0     H  310   3.541   5.622  -0.005 -2.1283  0.5550  2.4163
  760MOL0     H  311   3.544   5.513   0.132 -2.0380  0.2906  1.7355
  760MOL0     H  312   3.800   5.619   0.011  0.2777 -1.0540 -2.2960
  760MOL0     H  313   3.791   5.511   0.142 -0.7502  1.9002  0.9795
  760MOL0     H  314   3.843   5.403  -0.086 -1.4880 -0.8650 -2.4797
  760MOL0     H  315   3.678   5.422  -0.123 -1.0699 -2.9326  0.2178
  760MOL0     H  316   3.779   5.287   0.130  2.2523 -2.7297 -1.2111
  760MOL0     H  317   3.617   5.287   0.045 -0.1721 -1.9573 -0.4668
  760MOL0     H  318   3.886   4.974  -0.095 -2.5943 -1.5282 -2.3884
  760MOL0     H  319   3.582   5.910   0.366  1.4703 -1.6976  1.6358
  760MOL0     H  320   3.417   5.965   0.501 -1.9472  1.1003 -2.3861
  761MOL0     O  321   0.521   0.040   5.774  0.3516  0.3636  0.3586
  761MOL0     C  322   0.553  -0.078   5.794  0.2039  0.1283 -0.7153
  761MOL0     O  323   0.464  -0.180   5.833  0.5964  0.7560  0.1352
  761MOL0     C  324   0.327  -0.162   5.827 -0.3934 -0.8165  0.1212
  761MOL0     C  325   0.249  -0.193   5.946 -0.2837 -0.3706  0.1489
  761MOL0     C  326   0.111  -0.171   5.943 -0.8458 -0.2324  0.5633
  761MOL0     C  327   0.047  -0.150   5.820  0.5780 -0.3333 -0.0968
  761MOL0     O  328  -0.088  -0.167   5.830 -0.0002 -0.4279  0.1200
  761MOL0     C  329  -0.172  -0.141   5.723 -0.0259  0.5842 -0.2262
  761MOL0     C  330  -0.198  -0.001   5.711 -0.5674  0.3540 -0.1854
  761MOL0     C  331  -0.317   0.021   5.617 -0.1822 -0.6273  0.1312
  761MOL0     C  332  -0.325   0.174   5.587 -0.0222 -0.1471 -0.0391
  761MOL0     C  333  -0.422   0.190   5.469  0.3715  1.0394 -0.0631
  761MOL0     C  334  -0.431   0.332   5.424  1.2197  0.2401 -0.6608
  761MOL0     C  335  -0.522   0.344   5.302 -1.1423  0.4821 -0.1446
  761MOL0     C  336  -0.660   0.394   5.307  0.4114  0.2959 -0.8098
  761MOL0     N  337  -0.716   0.446   5.175 -0.2302  0.0625  0.6021
  761MOL0     C  338  -0.845   0.478   5.153 -0.3608 -0.8945 -0.1333
  761MOL0     C  339  -0.855   0.506   5.025  0.3123  0.1901 -0.9169
  761MOL0     C  340  -0.981   0.552   4.952  0.3489 -1.1198 -0.3944
  761MOL0     C  341  -1.009   0.707   4.968 -0.8412  0.3468 -0.6278
  761MOL0     C  342  -0.883   0.794   4.957 -0.3051 -0.0774  0.2863
  761MOL0     C  343  -0.905   0.943   4.938  0.1162 -0.2879 -0.4012
  761MOL0     O  344  -0.974   0.992   5.057  0.4275  0.4841 -0.0886
  761MOL0     C  345  -1.035   1.108   5.033 -0.3812  0.3575  0.9634
  761MOL0     C  346  -0.972   1.229   5.013 -0.0692  0.4023 -0.4214
  761MOL0     C  347  -1.039   1.336   4.950  0.2282 -0.2677 -0.0687
  761MOL0     C  348  -1.175   1.320   4.923 -0.4638 -0.1510  0.3950
  761MOL0     C  349  -1.246   1.429   4.857  0.9547 -0.2128  0.2717
  761MOL0     O  350  -1.381   1.417   4.851 -0.4348  0.1910  0.6976
  761MOL0     C  351  -1.455   1.526   4.819  0.5950 -0.3988 -0.1719
  761MOL0     C  352  -1.456   1.592   4.697 -0.0195 -0.1740  0.7217
  761MOL0     C  353  -1.550   1.692   4.664  0.6053  0.2992  0.3910
  761MOL0     C  354  -1.648   1.740   4.757  0.5925  0.8264  0.4772
  761MOL0     O  355  -1.723   1.847   4.721  1.3366 -1.0932  1.0268
  761MOL0     C  356  -1.862   1.848   4.754 -0.8069 -0.1689  0.4055
  761MOL0     C  357  -1.930   1.927   4.641  0.5395 -0.3053 -0.1254
  761MOL0     C  358  -2.081   1.892   4.627  0.3698 -0.5705 -0.1699
  761MOL0     C  359  -2.144   1.945   4.502  0.0303  1.3139 -0.7948
  761MOL0     C  360  -2.286   1.885   4.492 -0.9043  0.3878  0.7460
  761MOL0     C  361  -2.298   1.770   4.388 -0.2791  0.1007 -0.0482
  761MOL0     C  362  -2.440   1.731   4.373  0.3547 -0.0238 -0.3651
  761MOL0     C  363  -2.497   1.637   4.483  0.3955 -0.1106 -0.6136
  761MOL0    Cl  364  -2.631   1.528   4.428  0.0287  0.1256 -0.2170
  761MOL0     C  365  -1.637   1.687   4.890  0.2233 -0.4429 -0.2661
  761MOL0     C  366  -1.545   1.584   4.917  0.1371 -0.4737 -0.1301
  761MOL0     O  367  -1.182   1.529   4.817  0.4939 -0.6248  0.2432
  761MOL0     C  368  -1.248   1.203   4.953  0.0328  0.1413 -0.1843
  761MOL0     C  369  -1.172   1.100   5.011 -0.2970  1.0998 -0.5641
  761MOL0     N  370  -0.736   0.475   4.964  0.7119  0.0835 -0.3598
  761MOL0     N  371  -0.652   0.431   5.054 -0.3031 -0.3759 -0.2589
  761MOL0     C  372   0.118  -0.131   5.701 -0.6345 -1.2489 -0.0271
  761MOL0     C  373   0.256  -0.123   5.709 -0.1592  0.2594 -0.3440
  761MOL0     C  374   0.694  -0.105   5.753  0.7078  0.3904  0.6667
  761MOL0     C  375   0.742  -0.237   5.757  0.1448 -0.3519 -0.6100
  761MOL0     C  376   0.873  -0.270   5.727 -0.6115  0.7247 -0.2217
  761MOL0     C  377   0.961  -0.176   5.678  0.2670 -0.9670  0.2536
  761MOL0     O  378   1.094  -0.205   5.646  0.1939  0.7296  0.8813
  761MOL0     C  379   1.147  -0.342   5.645 -0.0879 -0.2639  0.0909
  761MOL0     C  380   1.108  -0.429   5.527  0.7133  0.4308  0.0250
  761MOL0     C  381   1.181  -0.378   5.402 -0.1698  0.4952 -0.4843
  761MOL0     C  382   1.141  -0.449   5.272 -0.2308  0.3991 -0.1978
  761MOL0     C  383   0.999  -0.427   5.233  0.3191 -0.6375  0.2181
  761MOL0     C  384   0.883  -0.391   5.210 -0.6145  0.7755  0.2200
  761MOL0     C  385   0.917  -0.038   5.685 -0.3737  0.4776 -0.7892
  761MOL0     C  386   0.781  -0.005   5.716  0.4173 -0.7735 -0.0322
  761MOL0     H  387   0.301  -0.228   6.035  0.0949  1.8809  0.8729
  761MOL0     H  388   0.043  -0.189   6.026 -0.5404 -1.2738  0.6082
  761MOL0     H  389  -0.262  -0.196   5.751  1.6193 -0.5340  3.7383
  761MOL0     H  390  -0.129  -0.194   5.638  1.6462  0.9816  0.3280
  761MOL0     H  391  -0.105   0.051   5.686 -2.3181  3.1317 -1.3733
  761MOL0     H  392  -0.229   0.043   5.806 -1.1286  0.6586 -0.5043
  761MOL0     H  393  -0.413  -0.008   5.662 -0.3419 -2.3142 -1.2092
  761MOL0     H  394  -0.310  -0.039   5.526  0.6694  0.7099 -0.7276
  761MOL0     H  395  -0.372   0.225   5.672  1.9161 -0.6383  1.4212
  761MOL0     H  396  -0.229   0.218   5.558 -0.4550 -0.2752 -1.7583
  761MOL0     H  397  -0.520   0.154   5.502  0.5703  2.1886  1.9660
  761MOL0     H  398  -0.388   0.126   5.387 -3.5374 -1.5492  0.0797
  761MOL0     H  399  -0.329   0.368   5.404  1.1716 -0.0703 -1.5129
  761MOL0     H  400  -0.474   0.393   5.504  1.1258 -1.9711  1.1020
  761MOL0     H  401  -0.468   0.413   5.236 -0.6146  0.6810  0.4808
  761MOL0     H  402  -0.513   0.257   5.236 -0.8611  2.6674 -3.2024
  761MOL0     H  403  -0.666   0.482   5.372 -1.2543 -0.7145  0.4839
  761MOL0     H  404  -0.727   0.320   5.351 -3.1006  2.6278 -1.8440
  761MOL0     H  405  -0.918   0.487   5.233  2.3327 -0.1419  2.4094
  761MOL0     H  406  -1.067   0.492   4.983 -2.1112  2.2521 -0.1748
  761MOL0     H  407  -0.970   0.550   4.843 -0.6547  0.0332 -0.5356
  761MOL0     H  408  -1.055   0.729   5.065 -1.7376  1.6522 -1.3233
  761MOL0     H  409  -1.087   0.724   4.894  0.7029  1.3710 -2.1075
  761MOL0     H  410  -0.818   0.781   5.044 -1.5888 -1.4977  1.0902
  761MOL0     H  411  -0.831   0.752   4.869  0.2512  0.2311  0.4673
  761MOL0     H  412  -0.963   0.969   4.849 -0.5852 -1.7197 -0.3900
  761MOL0     H  413  -0.807   0.991   4.939 -0.5776  1.2749 -2.1206
  761MOL0     H  414  -0.867   1.239   5.038 -0.6794  0.7049  2.2835
  761MOL0     H  415  -0.986   1.427   4.926 -1.9090  0.5054 -2.2906
  761MOL0     H  416  -1.386   1.564   4.620  0.8593 -2.0514  2.1006
  761MOL0     H  417  -1.564   1.731   4.564 -0.4962 -1.3799 -0.1519
  761MOL0     H  418  -1.885   1.909   4.841 -1.4977  1.2114 -0.7022
  761MOL0     H  419  -1.915   1.753   4.769 -2.3007  0.6712  0.6311
  761MOL0     H  420  -1.876   1.904   4.549 -0.6579 -1.8070 -0.5074
  761MOL0     H  421  -1.912   2.034   4.652  3.2250 -0.9042  2.5080
  761MOL0     H  422  -2.132   1.940   4.711 -1.0283 -1.2712 -0.5850
  761MOL0     H  423  -2.092   1.784   4.631  0.2752 -0.5624 -0.2121
  761MOL0     H  424  -2.153   2.054   4.508  0.7752  1.5586 -3.3300
  761MOL0     H  425  -2.077   1.906   4.426  0.3348  3.5537 -1.7605
  761MOL0     H  426  -2.367   1.956   4.472 -3.8725 -3.2148 -1.3002
  761MOL0     H  427  -2.308   1.839   4.588  0.6098 -0.3034  0.7970
  761MOL0     H  428  -2.237   1.682   4.411  1.5345  1.6996  1.6185
  761MOL0     H  429  -2.259   1.814   4.296  1.0700 -0.2351  0.3513
  761MOL0     H  430  -2.500   1.822   4.378 -3.1570 -2.2146  3.0424
  761MOL0     H  431  -2.448   1.691   4.271 -1.9073  0.0518 -0.2718
  761MOL0     H  432  -2.535   1.696   4.567 -1.8634 -0.0825 -1.5842
  761MOL0     H  433  -2.420   1.588   4.544  0.7089  1.4409  0.2965
  761MOL0     H  434  -1.714   1.709   4.964 -2.1354 -3.3132 -1.6487
  761MOL0     H  435  -1.527   1.541   5.015  2.0589 -0.5442 -0.4686
  761MOL0     H  436  -1.351   1.182   4.930 -1.1470  0.8918  3.6840
  761MOL0     H  437  -1.214   1.005   5.041 -0.1483  0.5459 -2.0380
  761MOL0     H  438   0.065  -0.120   5.607 -0.6238  2.3152  0.2498
  761MOL0     H  439   0.309  -0.106   5.616  0.1518  0.6120 -0.1011
  761MOL0     H  440   0.684  -0.322   5.792  1.0650 -0.3651  1.0092
  761MOL0     H  441   0.899  -0.375   5.730  0.9622  1.1050  2.2687
  761MOL0     H  442   1.114  -0.396   5.734 -1.6932  1.9583  0.9153
  761MOL0     H  443   1.255  -0.322   5.649 -0.4522  1.7006  1.6157
  761MOL0     H  444   1.130  -0.535   5.543  0.6689 -0.1188 -2.9930
  761MOL0     H  445   1.000  -0.414   5.517  0.7934  1.3736  0.5201
  761MOL0     H  446   1.289  -0.386   5.418 -0.6212 -1.4371  2.5110
  761MOL0     H  447   1.151  -0.275   5.384  0.2055  0.2515 -2.8273
  761MOL0     H  448   1.201  -0.421   5.185 -2.8232 -0.0048 -2.2379
  761MOL0     H  449   1.162  -0.556   5.287  0.9962  0.0599 -3.4744
  761MOL0     H  450   0.783  -0.359   5.190 -1.1287 -0.3934  0.8136
  761MOL0     H  451   0.988   0.033   5.643  2.2519 -0.6927  1.4066
  761MOL0     H  452   0.749   0.099   5.724  0.1784 -0.9140  1.0002
  762MOL0     O  453   9.417  10.588   4.522  0.5160  0.7534 -0.1967
  762MOL0     C  454   9.465  10.516   4.437  0.1826  0.1556  1.0237
  762MOL0     O  455   9.473  10.381   4.452  0.1619 -0.0594 -0.2844
  762MOL0     C  456   9.601  10.336   4.482  0.8445  0.1493 -1.0614
  762MOL0     C  457   9.605  10.196   4.468  0.2653 -0.0096 -0.7654
  762MOL0     C  458   9.733  10.135   4.471  0.8753  0.0614 -0.0278
  762MOL0     C  459   9.851  10.204   4.502 -0.4246  0.3973 -0.0894
  762MOL0     O  460   9.973  10.153   4.503  0.3802  1.1317  0.4981
  762MOL0     C  461   9.982  10.010   4.521  0.3996 -1.2122  0.1839
  762MOL0     C  462  10.111   9.994   4.598 -0.3633 -0.6581 -0.2995
  762MOL0     C  463  10.139   9.843   4.642  0.1383 -0.6478  0.0145
  762MOL0     C  464  10.097   9.736   4.540  1.1448 -0.4912 -0.4155
  762MOL0     C  465  10.166   9.605   4.564  0.2469 -0.6774  0.4693
  762MOL0     C  466  10.169   9.556   4.710 -0.0992 -0.8266  0.2926
  762MOL0     C  467  10.253   9.425   4.726  0.3434  0.2522 -0.2164
  762MOL0     C  468  10.288   9.374   4.857  0.1161 -0.2592 -0.5876
  762MOL0     N  469  10.354   9.238   4.848  0.5582  0.2897  0.0251
  762MOL0     C  470  10.490   9.216   4.855  0.8726 -0.2371 -0.4784
  762MOL0     C  471  10.505   9.086   4.844  0.4961 -0.8155  0.8188
  762MOL0     C  472  10.637   9.004   4.853 -0.1579  0.3570 -0.3376
  762MOL0     C  473  10.750   9.060   4.760  0.2485 -0.5623 -0.4381
  762MOL0     C  474  10.705   9.048   4.613 -0.3100 -0.3391  0.5329
  762MOL0     C  475  10.825   9.069   4.525 -0.0170  0.7363 -0.7800
  762MOL0     O  476  10.926   8.969   4.538 -0.6598 -0.4652  0.5112
  762MOL0     C  477  11.055   8.998   4.498  1.3412 -0.7713 -0.5548
  762MOL0     C  478  11.162   8.954   4.574 -0.3998  0.0374 -0.3262
  762MOL0     C  479  11.292   8.980   4.535  0.5391  0.0749 -0.3386
  762MOL0     C  480  11.322   9.056   4.422 -0.3479 -0.5188 -0.7469
  762MOL0     C  481  11.471   9.100   4.393 -0.2817  0.9884 -0.0119
  762MOL0     O  482  11.581   9.030   4.451 -0.0070  0.3116 -0.4669
  762MOL0     C  483  11.704   9.068   4.409 -0.4163  0.3736 -0.6211
  762MOL0     C  484  11.766   9.188   4.458  0.0984  0.4766 -0.3352
  762MOL0     C  485  11.899   9.214   4.431  0.2573 -0.2787  0.3478
  762MOL0     C  486  11.977   9.125   4.360  0.1666 -0.6000  0.4849
  762MOL0     O  487  12.107   9.147   4.325 -0.0253  0.2052  0.9328
  762MOL0     C  488  12.169   9.276   4.317  0.3268 -0.1452  0.2709
  762MOL0     C  489  12.309   9.262   4.261 -0.7691 -0.2359  1.0058
  762MOL0     C  490  12.303   9.249   4.106 -0.3474 -0.0319 -0.9002
  762MOL0     C  491  12.430   9.215   4.042 -0.6155  0.0902  0.1366
  762MOL0     C  492  12.476   9.070   4.089  0.4312 -0.9058  0.6022
  762MOL0     C  493  12.365   8.967   4.099 -0.3520 -0.4983 -0.8692
  762MOL0     C  494  12.415   8.819   4.113 -0.8367  0.0332 -0.0393
  762MOL0     C  495  12.518   8.772   4.016  1.0246 -0.2004  0.4873
  762MOL0    Cl  496  12.547   8.602   4.051 -0.3846  0.3601 -0.2934
  762MOL0     C  497  11.920   9.001   4.326 -0.2755 -0.1189  0.1959
  762MOL0     C  498  11.784   8.973   4.344  0.1711 -0.0668 -0.7246
  762MOL0     O  499  11.489   9.192   4.311  0.3674 -0.1541  0.1137
  762MOL0     C  500  11.217   9.102   4.346 -0.2855  0.1266  0.6356
  762MOL0     C  501  11.087   9.075   4.376  0.0540  0.6234 -0.9002
  762MOL0     N  502  10.377   9.030   4.837  0.0244  0.5104  0.3938
  762MOL0     N  503  10.291   9.126   4.838  0.7971  0.9861  0.0342
  762MOL0     C  504   9.849  10.344   4.526 -0.4819  0.4461  0.3876
  762MOL0     C  505   9.727  10.411   4.517  0.1122  0.1171  0.0541
  762MOL0     C  506   9.513  10.591   4.312 -0.3122  0.1673 -0.2360
  762MOL0     C  507   9.540  10.727   4.308  0.4931 -0.1394 -0.0586
  762MOL0     C  508   9.593  10.790   4.201 -0.1052  0.6154  0.3532
  762MOL0     C  509   9.613  10.718   4.082  0.4703 -0.1620 -1.5668
  762MOL0     O  510   9.655  10.772   3.966  0.3486  0.1979 -0.2970
  762MOL0     C  511   9.746  10.876   3.974 -0.9339  1.2234  0.1613
  762MOL0     C  512   9.682  11.015   3.969 -0.6772  0.2827 -0.1832
  762MOL0     C  513   9.643  11.070   3.828  1.0919 -0.3155 -0.8055
  762MOL0     C  514   9.546  11.180   3.860 -0.2245  0.5054 -0.3346
  762MOL0     C  515   9.620  11.297   3.904 -0.3099  0.9929 -0.2315
  762MOL0     C  516   9.666  11.389   3.968 -0.5891  0.2571  0.2519
  762MOL0     C  517   9.584  10.580   4.086 -0.3426 -0.0248  0.3620
  762MOL0     C  518   9.539  10.514   4.197  0.2539  0.2523 -1.9742
  762MOL0     H  519   9.512  10.142   4.456 -0.4957  1.1028  0.0252
  762MOL0     H  520   9.735  10.029   4.451 -0.8346  0.2892 -1.7951
  762MOL0     H  521   9.988   9.966   4.421  0.3259 -1.6399  0.3631
  762MOL0     H  522   9.903   9.949   4.567  1.9162 -1.7994  2.1523
  762MOL0     H  523  10.114  10.056   4.688  1.0755 -0.5479 -0.3980
  762MOL0     H  524  10.195  10.027   4.537  1.1265  2.3044  2.9891
  762MOL0     H  525  10.093   9.818   4.738 -0.5946 -0.1610 -0.1969
  762MOL0     H  526  10.245   9.842   4.669 -0.8155  0.5224  4.7822
  762MOL0     H  527   9.990   9.724   4.560  0.8758  0.3531 -1.3029
  762MOL0     H  528  10.113   9.767   4.436  1.1428 -0.8650 -0.5311
  762MOL0     H  529  10.269   9.609   4.529  0.8502 -0.5170  2.1843
  762MOL0     H  530  10.100   9.541   4.504 -0.7207 -0.6194  1.4147
  762MOL0     H  531  10.075   9.539   4.762 -1.1957  0.0895 -1.2990
  762MOL0     H  532  10.229   9.629   4.765  0.0909 -1.3444  0.7801
  762MOL0     H  533  10.193   9.349   4.675  1.1275 -0.3458 -0.2783
  762MOL0     H  534  10.347   9.439   4.670  1.4710 -2.1303  0.8990
  762MOL0     H  535  10.203   9.343   4.918  3.0785 -2.9008  2.6014
  762MOL0     H  536  10.360   9.433   4.915  0.1292 -3.0494  2.5238
  762MOL0     H  537  10.565   9.294   4.863  0.9377 -0.5070  2.3411
  762MOL0     H  538  10.611   8.899   4.835 -2.4323  0.6199  1.0054
  762MOL0     H  539  10.656   9.007   4.961 -3.1142  1.7637  0.2423
  762MOL0     H  540  10.850   9.021   4.783 -0.1106 -1.0683  0.2680
  762MOL0     H  541  10.759   9.165   4.792 -1.0494 -0.4004 -0.5508
  762MOL0     H  542  10.670   8.947   4.589  0.8222 -0.4861 -0.5766
  762MOL0     H  543  10.619   9.116   4.604  1.0670  1.5611  1.1641
  762MOL0     H  544  10.873   9.167   4.537 -0.6879  1.2747 -2.3012
  762MOL0     H  545  10.788   9.062   4.423 -3.0874  2.7463  0.0768
  762MOL0     H  546  11.147   8.881   4.653 -1.0669 -2.8672 -2.9163
  762MOL0     H  547  11.364   8.950   4.610  0.5647 -0.1042 -0.4356
  762MOL0     H  548  11.711   9.257   4.522  0.0562 -1.5858  2.0351
  762MOL0     H  549  11.946   9.304   4.471 -1.2391  0.0110  1.5634
  762MOL0     H  550  12.172   9.311   4.421 -1.8986 -2.7670  1.3640
  762MOL0     H  551  12.111   9.342   4.253 -0.8005  0.4027  1.8048
  762MOL0     H  552  12.362   9.186   4.320  0.5916 -0.6317 -0.6730
  762MOL0     H  553  12.363   9.354   4.283  0.9129 -1.3612  1.8728
  762MOL0     H  554  12.263   9.344   4.071 -1.9222  1.1698  3.4702
  762MOL0     H  555  12.223   9.180   4.076  0.3796 -0.4514 -1.8923
  762MOL0     H  556  12.416   9.210   3.933 -0.0157  1.0999 -0.0033
  762MOL0     H  557  12.509   9.289   4.060 -1.4388  1.0755 -0.2589
  762MOL0     H  558  12.520   9.074   4.189 -1.5063 -2.3716  1.5753
  762MOL0     H  559  12.541   9.033   4.009 -1.0436  1.2036 -1.7145
  762MOL0     H  560  12.296   8.972   4.014 -2.0265 -1.4494  0.3636
  762MOL0     H  561  12.301   8.991   4.184 -0.1707  0.8143 -1.0762
  762MOL0     H  562  12.458   8.793   4.210  1.1845 -0.6477 -1.0555
  762MOL0     H  563  12.331   8.749   4.107 -0.3627 -0.5799  0.3685
  762MOL0     H  564  12.607   8.835   4.008  0.7711 -0.0345 -1.6691
  762MOL0     H  565  12.482   8.763   3.913  3.0322 -1.3408 -0.1675
  762MOL0     H  566  11.978   8.929   4.269 -0.2957 -0.9993  1.2416
  762MOL0     H  567  11.734   8.879   4.324 -1.8791  0.8987 -0.4258
  762MOL0     H  568  11.236   9.175   4.268  1.8784 -0.3428  0.6776
  762MOL0     H  569  11.009   9.111   4.310  0.3104  1.6103 -0.6874
  762MOL0     H  570   9.942  10.395   4.551  0.3208 -1.3173  1.2478
  762MOL0     H  571   9.736  10.516   4.539  2.5726 -0.0267 -0.0382
  762MOL0     H  572   9.514  10.773   4.403 -1.5440 -0.4546 -0.4263
  762MOL0     H  573   9.622  10.894   4.214  2.1622 -0.2405  3.6250
  762MOL0     H  574   9.821  10.860   3.896  0.8552  0.0705  2.0055
  762MOL0     H  575   9.802  10.866   4.067 -2.9889 -2.5079  1.1864
  762MOL0     H  576   9.591  11.010   4.030 -0.1822  1.6288  0.7166
  762MOL0     H  577   9.746  11.089   4.018 -1.3199  2.9733 -3.0380
  762MOL0     H  578   9.588  10.994   3.772 -1.0562 -0.5971  1.5138
  762MOL0     H  579   9.731  11.093   3.767  0.4858 -0.9284 -1.9582
  762MOL0     H  580   9.508  11.198   3.759 -1.4423 -2.0816 -0.4383
  762MOL0     H  581   9.464  11.158   3.929  0.5063  2.0494  1.0865
  762MOL0     H  582   9.724  11.458   4.027  1.1118 -0.7638 -0.1406
  762MOL0     H  583   9.602  10.530   3.991  0.5185  0.9868 -0.0284
  762MOL0     H  584   9.535  10.406   4.206  0.2405  0.4256  2.7631
  763MOL0     O  585  10.930   8.707   9.207  0.8315  0.5748  0.2505
  763MOL0     C  586  10.950   8.682   9.326 -1.0855 -0.8141  0.5519
  763MOL0     O  587  10.962   8.560   9.381 -0.4441  0.3291 -0.5279
  763MOL0     C  588  11.020   8.461   9.300  0.0460 -0.0049  0.6201
  763MOL0     C  589  11.135   8.496   9.219 -0.2923 -0.1447 -0.6637
  763MOL0     C  590  11.196   8.400   9.141 -0.1103 -0.6882  0.1590
  763MOL0     C  591  11.144   8.269   9.132  0.1258  0.5064  0.4849
  763MOL0     O  592  11.189   8.173   9.051 -0.1749  0.1909 -0.0907
  763MOL0     C  593  11.319   8.187   8.985 -0.4689 -0.3731 -0.1143
  763MOL0     C  594  11.301   8.228   8.832 -1.3316 -0.2318 -0.7668
  763MOL0     C  595  11.199   8.137   8.775  0.2308  0.1504 -0.5888
  763MOL0     C  596  11.206   8.120   8.624  0.3007  0.5500 -0.5824
  763MOL0     C  597  11.078   8.063   8.558 -0.5590  0.9576 -1.0444
  763MOL0     C  598  11.012   7.959   8.650  0.2291  0.5712 -0.3832
  763MOL0     C  599  10.912   7.884   8.562  0.9029 -0.4159 -0.1980
  763MOL0     C  600  10.837   7.775   8.639 -0.2772 -0.4292 -0.5884
  763MOL0     N  601  10.781   7.673   8.557 -0.5549 -0.0122  0.3073
  763MOL0     C  602  10.660   7.680   8.485 -0.0998 -0.3534  0.0095
  763MOL0     C  603  10.661   7.572   8.396  0.4917 -0.0588 -0.4893
  763MOL0     C  604  10.563   7.539   8.288  0.1294 -0.3292  1.0889
  763MOL0     C  605  10.607   7.609   8.148 -0.2264  0.8548 -1.0719
  763MOL0     C  606  10.491   7.592   8.044  0.0036  0.1245 -1.2767
  763MOL0     C  607  10.478   7.701   7.943  0.9059 -0.8045 -0.4358
  763MOL0     O  608  10.344   7.696   7.882  0.1224 -0.1792  0.1554
  763MOL0     C  609  10.349   7.646   7.754 -0.9718 -0.6183 -0.1433
  763MOL0     C  610  10.415   7.711   7.656 -0.3196  1.2591 -0.3994
  763MOL0     C  611  10.429   7.658   7.533 -0.3216  0.4163 -0.1320
  763MOL0     C  612  10.374   7.526   7.510 -0.7107 -0.4700 -0.0199
  763MOL0     C  613  10.396   7.466   7.379  0.9292 -0.3749  0.9190
  763MOL0     O  614  10.418   7.550   7.273 -0.0497  0.7957 -0.7399
  763MOL0     C  615  10.483   7.515   7.168  0.3340  0.7906  0.2844
  763MOL0     C  616  10.537   7.397   7.125 -0.0355 -0.4438 -0.0448
  763MOL0     C  617  10.600   7.392   7.003 -0.2602  0.0531  0.4784
  763MOL0     C  618  10.603   7.503   6.914 -1.2565 -0.4394  0.6195
  763MOL0     O  619  10.655   7.499   6.789 -0.2098  0.4087 -0.5831
  763MOL0     C  620  10.721   7.372   6.744 -0.2511  0.2958  0.0343
  763MOL0     C  621  10.758   7.402   6.592  0.5610  0.3922  0.2558
  763MOL0     C  622  10.827   7.277   6.530  0.2489  0.5088 -1.0578
  763MOL0     C  623  10.908   7.300   6.407  0.5014  0.0297  0.1313
  763MOL0     C  624  10.981   7.168   6.350  0.2134 -0.2053  0.8762
  763MOL0     C  625  11.108   7.115   6.432  0.0010 -0.3779  0.4460
  763MOL0     C  626  11.137   6.969   6.365  0.1504 -1.0380 -0.5674
  763MOL0     C  627  11.263   6.908   6.442  0.5088 -0.4778  0.5411
  763MOL0    Cl  628  11.239   6.901   6.626 -0.0060  0.0863 -0.0376
  763MOL0     C  629  10.550   7.620   6.958 -0.0621  0.7915  0.2815
  763MOL0     C  630  10.490   7.619   7.080 -0.1107 -0.0232 -0.5127
  763MOL0     O  631  10.395   7.346   7.374 -1.0129  0.6698  0.7661
  763MOL0     C  632  10.303   7.456   7.614 -0.3794 -0.4310  1.1266
  763MOL0     C  633  10.287   7.524   7.738  0.2982  0.1545  0.3720
  763MOL0     N  634  10.780   7.505   8.417  0.5546  0.3484  0.1874
  763MOL0     N  635  10.850   7.571   8.498 -0.5629 -0.1866  0.0814
  763MOL0     C  636  11.031   8.235   9.213 -1.0456 -0.9958 -0.8244
  763MOL0     C  637  10.973   8.331   9.300 -0.4808  0.2086 -0.1674
  763MOL0     C  638  10.924   8.784   9.430 -0.4560 -0.9249 -0.3646
  763MOL0     C  639  10.892   8.913   9.385 -0.6019 -0.4145 -0.1608
  763MOL0     C  640  10.892   9.016   9.475  1.5126 -0.8941  0.1706
  763MOL0     C  641  10.921   9.004   9.613 -0.3844 -0.0808 -0.4465
  763MOL0     O  642  10.934   9.113   9.694 -0.3591  0.0462  0.3127
  763MOL0     C  643  10.906   9.094   9.828  1.2259 -0.2617 -0.8851
  763MOL0     C  644  10.750   9.069   9.841  0.2884 -1.0638  0.1248
  763MOL0     C  645  10.701   9.135   9.955  0.6014 -1.0846 -0.7341
  763MOL0     C  646  10.550   9.105   9.965  0.1070  0.3227  0.5766
  763MOL0     C  647  10.517   8.969   9.994  0.8966  0.2998  0.2778
  763MOL0     C  648  10.488   8.851  10.004 -0.5874 -0.2118 -1.2080
  763MOL0     C  649  10.957   8.874   9.658  0.5609 -0.1298 -0.5452
  763MOL0     C  650  10.943   8.766   9.566  0.9981 -0.4318 -0.1374
  763MOL0     H  651  11.180   8.594   9.210  1.0498 -0.7680 -1.0140
  763MOL0     H  652  11.289   8.423   9.090  0.8794 -0.7834  1.8767
  763MOL0     H  653  11.371   8.091   8.995  1.7617  0.9776  2.8084
  763MOL0     H  654  11.381   8.256   9.043 -0.1471 -0.6416 -0.1280
  763MOL0     H  655  11.394   8.211   8.777 -1.3199  0.5730 -1.0110
  763MOL0     H  656  11.278   8.334   8.822  0.0956  0.3225  1.2466
  763MOL0     H  657  11.097   8.166   8.802 -0.9816  0.0511 -4.5068
  763MOL0     H  658  11.228   8.036   8.807 -1.9188 -0.8550 -1.5975
  763MOL0     H  659  11.233   8.216   8.577 -3.9695  2.0883 -0.2655
  763MOL0     H  660  11.290   8.053   8.602  0.3576  0.9756 -1.7557
  763MOL0     H  661  11.103   8.022   8.460 -3.0010  0.6883 -1.6279
  763MOL0     H  662  11.016   8.153   8.552 -1.0873  0.6170 -0.8678
  763MOL0     H  663  10.954   8.005   8.731  1.7958  0.6257  0.7637
  763MOL0     H  664  11.084   7.888   8.691  0.1380 -0.1482 -1.4309
  763MOL0     H  665  10.837   7.955   8.525  0.7439 -1.0785 -1.1892
  763MOL0     H  666  10.969   7.840   8.480  0.8191 -3.1716  1.1313
  763MOL0     H  667  10.762   7.804   8.713 -0.8688 -3.8430  0.2915
  763MOL0     H  668  10.908   7.716   8.697  0.5537  0.4827 -0.6517
  763MOL0     H  669  10.593   7.766   8.485  2.1228  1.4494  0.0677
  763MOL0     H  670  10.462   7.569   8.314  1.2673  1.5224  3.8744
  763MOL0     H  671  10.550   7.432   8.271 -3.6608  0.2548 -0.7489
  763MOL0     H  672  10.691   7.558   8.099 -0.6246 -1.8640  0.8543
  763MOL0     H  673  10.621   7.715   8.170  1.4245  0.1552  1.8467
  763MOL0     H  674  10.484   7.493   7.998 -2.2060 -1.7973  2.7002
  763MOL0     H  675  10.393   7.601   8.093  0.3209  2.4819 -0.9239
  763MOL0     H  676  10.560   7.693   7.871  1.0561  2.7387 -0.8320
  763MOL0     H  677  10.483   7.802   7.986  2.7254 -1.0756  0.0355
  763MOL0     H  678  10.467   7.805   7.670  0.7872  0.2743  3.4304
  763MOL0     H  679  10.484   7.715   7.459 -1.6956 -0.4268 -1.9114
  763MOL0     H  680  10.526   7.302   7.177 -2.7676 -0.9350 -1.3182
  763MOL0     H  681  10.645   7.297   6.978  2.5912  1.3012  0.4780
  763MOL0     H  682  10.660   7.282   6.761 -0.6319  0.6456  0.5442
  763MOL0     H  683  10.821   7.376   6.787  0.0607 -0.4153 -0.5999
  763MOL0     H  684  10.819   7.491   6.579  1.5556 -0.3553 -0.4184
  763MOL0     H  685  10.661   7.417   6.543  0.7833  1.3848  0.1116
  763MOL0     H  686  10.746   7.206   6.507  0.1322  0.9995 -2.2357
  763MOL0     H  687  10.887   7.235   6.611  0.3087  3.6596  0.6616
  763MOL0     H  688  10.848   7.333   6.321  1.2184  0.1769 -0.3141
  763MOL0     H  689  10.986   7.369   6.440 -0.7839  1.8075 -0.3717
  763MOL0     H  690  11.008   7.177   6.245  0.7960 -0.0062  1.0352
  763MOL0     H  691  10.905   7.090   6.351  0.5505 -0.5416  1.3614
  763MOL0     H  692  11.077   7.103   6.536 -0.0344  1.3312  0.6561
  763MOL0     H  693  11.187   7.190   6.416 -0.3675 -0.0980 -0.0952
  763MOL0     H  694  11.049   6.904   6.375 -0.8178  0.4025  0.9732
  763MOL0     H  695  11.158   6.997   6.262 -1.6699  0.3742 -0.6111
  763MOL0     H  696  11.350   6.970   6.418  0.1174 -0.5320 -1.1209
  763MOL0     H  697  11.283   6.807   6.404 -0.3098 -0.3293 -0.3215
  763MOL0     H  698  10.544   7.712   6.902 -1.3380  1.6617  1.7617
  763MOL0     H  699  10.430   7.707   7.098 -0.2418 -0.3381  0.6375
  763MOL0     H  700  10.271   7.352   7.610  3.2848 -1.6981  0.3339
  763MOL0     H  701  10.241   7.468   7.819  2.3194  0.6862  1.9680
  763MOL0     H  702  11.005   8.130   9.218  0.3254 -1.3404 -0.5081
  763MOL0     H  703  10.888   8.305   9.362 -1.1701  0.2076 -1.0919
  763MOL0     H  704  10.871   8.935   9.281  0.4869 -0.6901 -0.4555
  763MOL0     H  705  10.858   9.116   9.451  2.3502 -0.6551 -0.0511
  763MOL0     H  706  10.924   9.182   9.890 -1.7513 -0.0150 -0.2407
  763MOL0     H  707  10.967   9.014   9.872  3.2022  0.3702 -2.3323
  763MOL0     H  708  10.700   9.112   9.754 -0.5843  1.2561  1.6822
  763MOL0     H  709  10.727   8.962   9.846 -0.1623 -0.9143  1.6279
  763MOL0     H  710  10.720   9.243   9.962 -0.6117 -0.9303  0.9603
  763MOL0     H  711  10.755   9.089  10.038 -0.2506 -0.4424  0.2059
  763MOL0     H  712  10.505   9.167  10.043  1.5374  1.3486  0.6309
  763MOL0     H  713  10.514   9.136   9.866  1.5487 -0.9714 -0.4037
  763MOL0     H  714  10.459   8.751  10.028  0.5323  0.2479  3.0395
  763MOL0     H  715  10.973   8.847   9.762 -2.2536  0.1868  0.0553
  763MOL0     H  716  10.950   8.665   9.606 -1.4555  0.0894  1.8502
  764MOL0     O  717   1.696   9.492   3.054  0.0184  0.4338 -0.4918
  764MOL0     C  718   1.680   9.540   3.167 -0.2127  0.1841  0.2100
  764MOL0     O  719   1.759   9.530   3.271 -0.4963 -0.2456  0.0977
  764MOL0     C  720   1.868   9.452   3.265  0.1642 -0.3189  0.0182
  764MOL0     C  721   1.972   9.488   3.355  0.4889  0.6428  0.7142
  764MOL0     C  722   2.077   9.398   3.381 -0.3760  0.9406 -0.0965
  764MOL0     C  723   2.088   9.278   3.319 -0.2811 -0.1865 -0.9067
  764MOL0     O  724   2.197   9.206   3.339 -0.9231  0.4648  0.3595
  764MOL0     C  725   2.320   9.259   3.303  0.2512 -0.7811 -0.2933
  764MOL0     C  726   2.402   9.254   3.434 -0.0351 -0.3961  0.9201
  764MOL0     C  727   2.487   9.380   3.441 -0.4007 -1.1836 -0.2066
  764MOL0     C  728   2.574   9.379   3.562  0.0962  0.1625  0.6832
  764MOL0     C  729   2.650   9.514   3.575 -0.1297  0.9192  0.7531
  764MOL0     C  730   2.719   9.513   3.712  0.5375  0.5905  0.2492
  764MOL0     C  731   2.779   9.652   3.747  0.2901 -1.0017  0.4079
  764MOL0     C  732   2.798   9.684   3.894  0.4774  0.3041 -0.9390
  764MOL0     N  733   2.850   9.816   3.937 -0.1943 -0.7230 -0.1932
  764MOL0     C  734   2.943   9.833   4.042  1.0980 -0.1669  0.5473
  764MOL0     C  735   2.982   9.962   4.024 -0.1971 -0.4819 -0.9275
  764MOL0     C  736   3.081  10.025   4.115 -0.4901 -0.8913 -0.0466
  764MOL0     C  737   3.151  10.149   4.056 -0.5991  0.0804 -0.4575
  764MOL0     C  738   3.250  10.207   4.155 -0.1190  0.2202 -0.0580
  764MOL0     C  739   3.181  10.288   4.266 -0.1819  0.5655 -0.0645
  764MOL0     O  740   3.273  10.312   4.371 -0.8734  0.2764  0.0267
  764MOL0     C  741   3.401  10.365   4.340  0.0624 -0.1777 -0.5404
  764MOL0     C  742   3.515  10.286   4.336 -0.8541 -0.7070  0.4296
  764MOL0     C  743   3.646  10.345   4.309 -0.0857  0.1378 -0.0149
  764MOL0     C  744   3.652  10.477   4.283 -0.6571 -0.2013 -0.0902
  764MOL0     C  745   3.782  10.546   4.278 -1.0702  0.7334 -0.0104
  764MOL0     O  746   3.891  10.485   4.330 -0.5935 -0.1994 -0.6310
  764MOL0     C  747   4.015  10.505   4.290  0.0095  0.0787 -0.4331
  764MOL0     C  748   4.113  10.467   4.382 -0.0527 -0.2142  0.1713
  764MOL0     C  749   4.251  10.477   4.355  0.2715  0.4157  0.2010
  764MOL0     C  750   4.290  10.528   4.230  0.1498  0.4368  0.2509
  764MOL0     O  751   4.427  10.537   4.221  0.1458 -0.0383  0.3896
  764MOL0     C  752   4.476  10.580   4.094 -0.5370 -0.4340  1.0987
  764MOL0     C  753   4.623  10.531   4.101  0.1557  0.2149 -0.7235
  764MOL0     C  754   4.692  10.575   3.970  0.5224  0.0323 -0.3337
  764MOL0     C  755   4.700  10.734   3.944 -1.1774 -0.5952  0.7649
  764MOL0     C  756   4.813  10.760   3.835 -0.2030  0.1002 -0.3528
  764MOL0     C  757   4.858  10.907   3.854 -0.3859 -0.6181  0.2602
  764MOL0     C  758   4.990  10.933   3.773 -0.7093 -0.0996  0.1568
  764MOL0     C  759   5.011  11.080   3.795  0.4000  1.5285  0.9197
  764MOL0    Cl  760   5.141  11.139   3.690  0.5062  0.2229  0.0635
  764MOL0     C  761   4.193  10.563   4.136  0.6147 -0.1227  0.2878
  764MOL0     C  762   4.056  10.540   4.164 -0.4207  0.1509 -0.8177
  764MOL0     O  763   3.788  10.652   4.221  0.6993  0.7604 -0.2723
  764MOL0     C  764   3.537  10.560   4.280 -0.3661 -0.2692  0.0504
  764MOL0     C  765   3.414  10.498   4.313 -0.8247  0.2757  1.6075
  764MOL0     N  766   2.918  10.016   3.917  0.1690  0.0662 -0.1330
  764MOL0     N  767   2.834   9.930   3.872 -0.4265 -0.1570  0.3364
  764MOL0     C  768   1.991   9.242   3.224 -0.3181 -0.2622  1.0255
  764MOL0     C  769   1.881   9.322   3.210  0.2190 -0.3899  0.2644
  764MOL0     C  770   1.566   9.625   3.193 -0.3167 -0.1530  0.5156
  764MOL0     C  771   1.516   9.716   3.107 -0.2378  0.2044  0.5712
  764MOL0     C  772   1.395   9.787   3.132 -0.4744 -1.6699 -0.4603
  764MOL0     C  773   1.329   9.777   3.248  0.7626 -0.3416  0.2742
  764MOL0     O  774   1.217   9.850   3.266 -0.0459 -0.3343 -0.6745
  764MOL0     C  775   1.109   9.846   3.170  0.1958  0.8024 -0.1907
  764MOL0     C  776   0.973   9.912   3.212  0.4484  0.7018 -0.5607
  764MOL0     C  777   0.928   9.877   3.351  0.4892 -0.1103  0.4311
  764MOL0     C  778   0.793   9.951   3.377  0.8874 -0.5076 -0.1949
  764MOL0     C  779   0.669   9.899   3.317 -0.5176  0.3047 -0.2851
  764MOL0     C  780   0.560   9.872   3.270 -0.7162 -0.5141  0.9942
  764MOL0     C  781   1.374   9.688   3.344  0.3042  0.7263 -0.2523
  764MOL0     C  782   1.490   9.612   3.318  0.3805 -0.4844 -0.0852
  764MOL0     H  783   1.955   9.576   3.417 -0.7817  2.3261 -1.8587
  764MOL0     H  784   2.156   9.436   3.445 -1.2984  3.0327 -0.1082
  764MOL0     H  785   2.315   9.363   3.267 -1.6966 -0.7639 -0.0843
  764MOL0     H  786   2.371   9.197   3.229  0.6710  0.7138 -1.3302
  764MOL0     H  787   2.469   9.168   3.428  0.2272 -0.0875 -2.5454
  764MOL0     H  788   2.337   9.257   3.523 -2.1591  0.9867 -0.5711
  764MOL0     H  789   2.429   9.472   3.426 -0.9892 -2.0197 -3.9041
  764MOL0     H  790   2.559   9.373   3.359  1.4373 -0.6980  1.2892
  764MOL0     H  791   2.509   9.372   3.651 -0.3944  1.7217  0.4708
  764MOL0     H  792   2.642   9.293   3.556  3.2190  2.5979 -1.9546
  764MOL0     H  793   2.572   9.590   3.565  0.0463  0.7914 -2.8433
  764MOL0     H  794   2.722   9.523   3.493 -0.7322  0.7313  0.1929
  764MOL0     H  795   2.794   9.436   3.727  0.6220  0.3357 -1.3869
  764MOL0     H  796   2.643   9.500   3.790  1.3388  1.8640  1.2934
  764MOL0     H  797   2.875   9.647   3.693  1.2963 -0.4549  2.0723
  764MOL0     H  798   2.715   9.728   3.700  0.7296 -1.5483 -1.1575
  764MOL0     H  799   2.869   9.605   3.917  0.0042  0.4969  1.4024
  764MOL0     H  800   2.702   9.672   3.945  0.7160  2.6257  0.1983
  764MOL0     H  801   2.960   9.751   4.111 -3.9586 -2.5161 -0.5354
  764MOL0     H  802   3.151   9.944   4.134  2.1950  1.3023 -0.0494
  764MOL0     H  803   3.027  10.046   4.208 -1.1033  1.2061 -0.8102
  764MOL0     H  804   3.076  10.219   4.019 -1.7763 -1.5191 -1.2232
  764MOL0     H  805   3.206  10.118   3.967  0.9966  1.8838 -0.1735
  764MOL0     H  806   3.324  10.132   4.183 -0.5735 -0.6764 -1.1757
  764MOL0     H  807   3.308  10.279   4.097 -0.2404  0.6553  0.3567
  764MOL0     H  808   3.097  10.234   4.312  1.2337  0.3560  2.4750
  764MOL0     H  809   3.141  10.377   4.217  1.3061  2.6648  2.2841
  764MOL0     H  810   3.515  10.183   4.371 -2.0329 -0.4791  1.1510
  764MOL0     H  811   3.733  10.284   4.329 -1.5485 -2.5900 -1.4077
  764MOL0     H  812   4.072  10.437   4.478  0.9781  1.6041  1.2473
  764MOL0     H  813   4.320  10.445   4.432 -3.6026 -3.1091  2.6676
  764MOL0     H  814   4.457  10.688   4.096 -4.1458 -0.9133  0.1337
  764MOL0     H  815   4.423  10.541   4.006 -0.8245 -1.8711  1.8820
  764MOL0     H  816   4.619  10.422   4.112 -1.6766 -0.0743 -3.3091
  764MOL0     H  817   4.672  10.584   4.183 -0.4895  0.2432 -0.3494
  764MOL0     H  818   4.649  10.521   3.885  0.6106 -0.1308 -0.2769
  764MOL0     H  819   4.792  10.531   3.985  0.9002  1.4701  1.7185
  764MOL0     H  820   4.608  10.787   3.917  0.8742  3.5947  1.1566
  764MOL0     H  821   4.739  10.773   4.039  2.7332 -1.3797 -0.3197
  764MOL0     H  822   4.779  10.743   3.732 -0.5022 -1.3274 -0.0504
  764MOL0     H  823   4.901  10.700   3.860  1.4278  2.3968 -0.2649
  764MOL0     H  824   4.867  10.946   3.956  0.3126  1.0777 -0.4166
  764MOL0     H  825   4.769  10.958   3.816  2.0313  2.8590 -1.2364
  764MOL0     H  826   5.074  10.873   3.811 -0.4453 -0.4832 -0.9876
  764MOL0     H  827   4.988  10.914   3.665 -1.4293 -1.0485  0.3233
  764MOL0     H  828   5.042  11.098   3.898  1.5612  1.3630  0.6229
  764MOL0     H  829   4.916  11.130   3.774  0.2169  1.6570  2.0019
  764MOL0     H  830   4.216  10.598   4.036 -0.0071  0.6605  0.4121
  764MOL0     H  831   3.990  10.558   4.080  1.7929  1.4458 -2.3903
  764MOL0     H  832   3.544  10.668   4.269 -0.3700 -0.2231  0.4521
  764MOL0     H  833   3.337  10.575   4.320  1.5260  2.8729  0.4662
  764MOL0     H  834   2.003   9.150   3.167  1.6293  0.4909  0.1310
  764MOL0     H  835   1.796   9.293   3.148  0.9944 -1.0399 -0.5207
  764MOL0     H  836   1.564   9.710   3.010  1.9624 -5.0846  1.6250
  764MOL0     H  837   1.359   9.849   3.050  1.1765  1.0102  0.7166
  764MOL0     H  838   1.075   9.742   3.171  1.5869  0.2882  2.6462
  764MOL0     H  839   1.148   9.874   3.072  4.3337 -0.6867  0.8227
  764MOL0     H  840   0.998  10.018   3.206  0.0333  0.9216  1.1488
  764MOL0     H  841   0.899   9.894   3.133  2.5037 -1.9476 -2.0349
  764MOL0     H  842   0.991   9.929   3.423 -1.9486  0.6651  2.1166
  764MOL0     H  843   0.917   9.771   3.371 -1.7771  0.2030  1.1242
  764MOL0     H  844   0.776   9.943   3.485 -0.6967 -1.0258 -0.4425
  764MOL0     H  845   0.800  10.058   3.353 -0.7385 -0.3507 -0.0958
  764MOL0     H  846   0.462   9.854   3.230 -1.4534 -0.0601  2.5272
  764MOL0     H  847   1.328   9.685   3.442 -0.9248  1.3686 -0.7935
  764MOL0     H  848   1.524   9.538   3.389  0.3248  0.6057  1.1175
  765MOL0     O  849   8.837   7.735   0.774  0.3025  0.1693  0.9431
  765MOL0     C  850   8.922   7.744   0.681  0.7252  0.2703 -0.5675
  765MOL0     O  851   8.903   7.783   0.552 -0.8838 -0.0373 -0.3267
  765MOL0     C  852   8.792   7.854   0.517 -0.2807 -1.0318 -0.7136
  765MOL0     C  853   8.731   7.821   0.403  0.1388  0.1969  0.1307
  765MOL0     C  854   8.623   7.891   0.353 -0.3096  0.3963  0.7645
  765MOL0     C  855   8.575   8.001   0.421 -0.1892  0.3515 -0.6302
  765MOL0     O  856   8.465   8.061   0.370 -0.4731 -0.1183  0.1151
  765MOL0     C  857   8.483   8.204   0.350 -0.6468  0.7050 -0.0496
  765MOL0     C  858   8.373   8.236   0.246 -0.3619 -0.0020 -0.6838
  765MOL0     C  859   8.389   8.374   0.189  0.1384 -0.2528  1.1179
  765MOL0     C  860   8.244   8.409   0.140 -0.5691 -0.3271  0.0481
  765MOL0     C  861   8.228   8.553   0.110  0.0085  0.1359  0.6512
  765MOL0     C  862   8.082   8.592   0.082  0.5454  0.2237 -0.4211
  765MOL0     C  863   8.004   8.626   0.214 -0.2041 -0.6214 -0.0648
  765MOL0     C  864   8.052   8.758   0.282 -0.1496  0.0556 -0.1537
  765MOL0     N  865   8.032   8.884   0.201 -0.5497  0.9375  0.1784
  765MOL0     C  866   7.933   8.894   0.102 -0.1979 -0.7540 -0.5227
  765MOL0     C  867   7.980   9.003   0.026  1.1927  0.2787 -0.1919
  765MOL0     C  868   7.921   9.050  -0.106 -0.3943 -0.5744  0.5248
  765MOL0     C  869   8.045   9.060  -0.207 -0.0536  0.4387  0.3743
  765MOL0     C  870   8.100   9.205  -0.210  0.1074 -0.1246 -0.3256
  765MOL0     C  871   8.207   9.216  -0.311 -1.0735  0.4218  0.2143
  765MOL0     O  872   8.247   9.355  -0.329  0.2978 -0.1845  0.2279
  765MOL0     C  873   8.358   9.375  -0.402  0.8327  0.8396 -0.1344
  765MOL0     C  874   8.480   9.352  -0.339 -0.3115  0.4747  0.9655
  765MOL0     C  875   8.599   9.402  -0.406 -0.4361 -0.1210  0.0027
  765MOL0     C  876   8.587   9.471  -0.523  0.7776  0.4846  0.7199
  765MOL0     C  877   8.709   9.525  -0.586 -0.2161  0.1969  0.4051
  765MOL0     O  878   8.805   9.577  -0.510  0.1643  1.2609 -0.2582
  765MOL0     C  879   8.922   9.625  -0.562  0.3974 -0.0641  0.2595
  765MOL0     C  880   8.928   9.719  -0.658  0.0557  0.1071  0.7925
  765MOL0     C  881   9.050   9.752  -0.721  0.1031  1.5861  1.5549
  765MOL0     C  882   9.172   9.694  -0.691 -0.4625  0.5184  0.7481
  765MOL0     O  883   9.294   9.687  -0.763 -0.0684  0.0328 -0.0244
  765MOL0     C  884   9.337   9.817  -0.808 -0.1157 -0.1034 -0.0565
  765MOL0     C  885   9.470   9.803  -0.871  0.0414  0.6310  0.1534
  765MOL0     C  886   9.563   9.730  -0.776 -0.1973 -0.2192  0.8568
  765MOL0     C  887   9.693   9.716  -0.855 -0.2982  1.1121  0.6493
  765MOL0     C  888   9.810   9.658  -0.775  0.4310 -0.2754 -0.1305
  765MOL0     C  889   9.828   9.508  -0.804  0.7006 -0.4340  0.5738
  765MOL0     C  890   9.916   9.445  -0.697 -0.3956  0.1253 -0.2471
  765MOL0     C  891   9.971   9.304  -0.736 -0.0832 -0.3259 -0.7935
  765MOL0    Cl  892  10.102   9.269  -0.613  0.2177 -0.1790  0.0498
  765MOL0     C  893   9.163   9.600  -0.587 -0.2142 -0.7011 -0.2503
  765MOL0     C  894   9.045   9.568  -0.524  0.4329  0.5743  0.9113
  765MOL0     O  895   8.704   9.532  -0.710  0.5880 -0.4816 -0.2442
  765MOL0     C  896   8.464   9.479  -0.581  0.6850 -0.0363  0.3770
  765MOL0     C  897   8.342   9.437  -0.523 -0.3289 -0.0486  0.5619
  765MOL0     N  898   8.101   9.047   0.081 -0.7377 -0.3539  0.0754
  765MOL0     N  899   8.131   8.975   0.185 -0.1511  0.3540 -0.0196
  765MOL0     C  900   8.642   8.046   0.537 -0.4294  0.0382 -0.1771
  765MOL0     C  901   8.747   7.962   0.595  0.0154 -0.2503  0.6413
  765MOL0     C  902   9.048   7.697   0.722  0.4508 -0.0452 -0.4173
  765MOL0     C  903   9.076   7.647   0.850 -0.0065  0.8665  0.2542
  765MOL0     C  904   9.203   7.598   0.877  0.4202 -0.3967 -0.1452
  765MOL0     C  905   9.310   7.615   0.796  0.1319  0.6454  0.9727
  765MOL0     O  906   9.436   7.556   0.833  0.6387 -0.0302  0.3534
  765MOL0     C  907   9.543   7.582   0.739 -0.1916 -0.8003 -0.3472
  765MOL0     C  908   9.671   7.525   0.792  0.1995  0.2152 -0.1193
  765MOL0     C  909   9.777   7.540   0.688 -0.0740 -0.7094 -0.3712
  765MOL0     C  910   9.858   7.669   0.726  0.3002  0.6649  0.2366
  765MOL0     C  911   9.966   7.614   0.815  0.1300 -0.4599 -0.3703
  765MOL0     C  912  10.059   7.587   0.885  0.3831  0.3081 -0.3782
  765MOL0     C  913   9.282   7.673   0.670  0.4624  0.1055  0.2045
  765MOL0     C  914   9.154   7.720   0.636 -0.3720 -0.8899  0.2670
  765MOL0     H  915   8.775   7.743   0.341  2.7952  2.0285 -0.4332
  765MOL0     H  916   8.576   7.882   0.255 -2.0597 -0.5229  1.6319
  765MOL0     H  917   8.572   8.221   0.289 -3.6025  1.4189 -4.6168
  765MOL0     H  918   8.456   8.260   0.439 -0.9914 -1.4710  1.2987
  765MOL0     H  919   8.284   8.214   0.305  0.6451 -2.0281  0.2176
  765MOL0     H  920   8.362   8.167   0.162 -0.2987 -0.6697 -0.1534
  765MOL0     H  921   8.462   8.374   0.108 -0.7420  0.8690  0.2967
  765MOL0     H  922   8.421   8.437   0.272  2.0478 -0.5967  0.6758
  765MOL0     H  923   8.220   8.335   0.063  0.8337 -0.3811 -0.3600
  765MOL0     H  924   8.181   8.396   0.228 -0.0226  0.6285  0.5969
  765MOL0     H  925   8.286   8.574   0.020 -0.4636 -2.3059 -0.2917
  765MOL0     H  926   8.266   8.607   0.197  2.5815  0.3393 -0.5100
  765MOL0     H  927   8.030   8.516   0.023  1.0168  0.4114 -1.0927
  765MOL0     H  928   8.093   8.680   0.018  4.2999 -0.7226 -1.3610
  765MOL0     H  929   7.897   8.631   0.192 -0.2003  1.2681  0.2207
  765MOL0     H  930   8.014   8.548   0.291 -3.0354  2.4268  3.7806
  765MOL0     H  931   8.159   8.750   0.300  0.0442  0.8169 -0.8991
  765MOL0     H  932   8.004   8.783   0.377 -1.6621  4.8299 -1.8682
  765MOL0     H  933   7.848   8.829   0.087 -1.7652  1.5177 -2.1893
  765MOL0     H  934   7.879   9.150  -0.087  1.0454  0.5312 -1.6750
  765MOL0     H  935   7.845   8.980  -0.140 -1.8547  0.0343  2.3452
  765MOL0     H  936   8.019   9.040  -0.311 -0.8612  2.1683  0.2005
  765MOL0     H  937   8.121   8.990  -0.172  1.0715 -0.0378 -2.7711
  765MOL0     H  938   8.019   9.276  -0.228 -0.3997 -0.0710  1.8524
  765MOL0     H  939   8.141   9.233  -0.112 -0.7062 -0.9058  0.2586
  765MOL0     H  940   8.176   9.173  -0.407  0.0311 -1.8829  0.8242
  765MOL0     H  941   8.292   9.155  -0.280 -0.0946 -0.4074 -3.5233
  765MOL0     H  942   8.491   9.291  -0.249 -3.7572 -1.3216  0.3285
  765MOL0     H  943   8.699   9.394  -0.363  0.6259  0.5700 -2.1654
  765MOL0     H  944   8.837   9.773  -0.682  1.4309  2.1767 -0.0693
  765MOL0     H  945   9.059   9.829  -0.797 -0.9869  0.6799  0.4719
  765MOL0     H  946   9.344   9.901  -0.738  0.0269 -1.5553  1.7258
  765MOL0     H  947   9.269   9.858  -0.884  2.3436  2.8476 -0.8627
  765MOL0     H  948   9.504   9.903  -0.901  1.1558 -0.5811 -3.0847
  765MOL0     H  949   9.466   9.755  -0.969  4.0249 -0.3679  0.3381
  765MOL0     H  950   9.532   9.626  -0.763  1.4074 -0.8829 -0.3679
  765MOL0     H  951   9.583   9.786  -0.684  0.8443 -1.2032  1.2468
  765MOL0     H  952   9.670   9.651  -0.941 -2.2489  0.4161  1.6483
  765MOL0     H  953   9.717   9.810  -0.905 -0.0868 -0.0485 -1.5979
  765MOL0     H  954   9.795   9.673  -0.667 -0.7788  0.4811 -0.3933
  765MOL0     H  955   9.903   9.711  -0.796  1.3930 -1.6937  0.3515
  765MOL0     H  956   9.874   9.491  -0.902  1.2315 -0.0613  0.7558
  765MOL0     H  957   9.732   9.457  -0.820  1.5948 -2.3677  1.0894
  765MOL0     H  958  10.009   9.502  -0.683  0.1891 -1.4010  2.9535
  765MOL0     H  959   9.859   9.447  -0.604  1.2065 -1.8089  0.8705
  765MOL0     H  960  10.017   9.314  -0.835 -0.7573  3.6859 -0.8717
  765MOL0     H  961   9.895   9.225  -0.742 -1.0424  0.3156  1.6750
  765MOL0     H  962   9.259   9.555  -0.564  0.8016  1.7354  0.5101
  765MOL0     H  963   9.054   9.480  -0.460  0.9893 -1.6924 -2.0359
  765MOL0     H  964   8.474   9.534  -0.674  0.8535 -2.9296 -1.4517
  765MOL0     H  965   8.243   9.465  -0.557  0.5272  1.7904 -0.6056
  765MOL0     H  966   8.610   8.137   0.586 -0.7879  0.3555 -0.9864
  765MOL0     H  967   8.791   8.000   0.686  1.1471 -0.9880  0.4230
  765MOL0     H  968   8.991   7.637   0.917  0.3188  2.4647  0.9372
  765MOL0     H  969   9.221   7.558   0.977 -2.1424 -0.6610  0.2752
  765MOL0     H  970   9.560   7.688   0.723 -1.4866  0.6163  5.2537
  765MOL0     H  971   9.524   7.522   0.650  0.2091  0.0933 -1.0434
  765MOL0     H  972   9.710   7.577   0.880  2.7634 -1.8463  0.0860
  765MOL0     H  973   9.648   7.420   0.812  1.3187  0.0393  0.3536
  765MOL0     H  974   9.744   7.523   0.585 -1.3371 -0.1400 -0.0754
  765MOL0     H  975   9.839   7.450   0.691 -2.2396 -2.3057 -0.7945
  765MOL0     H  976   9.898   7.700   0.629 -3.4425  3.9060 -0.5464
  765MOL0     H  977   9.811   7.755   0.776  2.6649  3.1926 -1.5882
  765MOL0     H  978  10.142   7.564   0.948  1.1129  1.6692 -0.8079
  765MOL0     H  979   9.359   7.694   0.597 -0.6733 -1.4297 -1.5512
  765MOL0     H  980   9.143   7.791   0.554 -0.9206 -0.0093  1.0792
  766MOL0     O  981   0.712   0.275   8.769 -0.3192 -0.3715  0.6919
  766MOL0     C  982   0.737   0.293   8.654  0.2081 -0.1543  1.3808
  766MOL0     O  983   0.821   0.226   8.581 -0.0698 -0.5164  0.1407
  766MOL0     C  984   0.875   0.109   8.632  0.2079  0.0777  0.6294
  766MOL0     C  985   1.017   0.082   8.625  0.5404  0.2437 -0.4080
  766MOL0     C  986   1.065  -0.029   8.681 -1.1571 -0.3148 -0.1266
  766MOL0     C  987   0.988  -0.124   8.747  0.2157 -0.3860 -0.0560
  766MOL0     O  988   1.033  -0.240   8.804 -0.4831 -0.0088 -0.2481
  766MOL0     C  989   1.164  -0.291   8.792 -0.4269 -0.4720  0.0963
  766MOL0     C  990   1.166  -0.429   8.874  0.7235  0.7066  0.0632
  766MOL0     C  991   1.144  -0.414   9.031 -0.0177  0.1599  0.5768
  766MOL0     C  992   0.997  -0.412   9.078 -0.0960 -0.4676 -0.0666
  766MOL0     C  993   0.969  -0.409   9.239  0.2747 -0.1408  1.1963
  766MOL0     C  994   0.826  -0.423   9.288  0.7031 -0.4296  0.2701
  766MOL0     C  995   0.818  -0.371   9.432 -0.1579  0.0229 -0.0111
  766MOL0     C  996   0.682  -0.362   9.480 -0.3193 -0.4767  0.3924
  766MOL0     N  997   0.668  -0.289   9.612 -0.2401  1.0469  0.3311
  766MOL0     C  998   0.720  -0.174   9.643 -0.2335 -0.3568 -0.3218
  766MOL0     C  999   0.691  -0.163   9.776  1.6336 -0.4481 -0.3552
  766MOL0     C 1000   0.729  -0.047   9.863  0.5605 -0.4026 -0.3252
  766MOL0     C 1001   0.653  -0.009   9.997 -0.2907 -0.0787  0.0272
  766MOL0     C 1002   0.506   0.029   9.969  0.1233  0.3866 -0.0353
  766MOL0     C 1003   0.424   0.045  10.107 -0.6459 -0.1496  1.1487
  766MOL0     O 1004   0.414  -0.070  10.195  0.2718 -0.1054 -0.4578
  766MOL0     C 1005   0.360  -0.062  10.321 -0.2695 -0.5092  0.7779
  766MOL0     C 1006   0.415  -0.150  10.406 -0.4607  0.6975  0.8078
  766MOL0     C 1007   0.390  -0.147  10.542 -0.0816  0.4067  0.0683
  766MOL0     C 1008   0.296  -0.050  10.587 -0.1842 -0.4555  0.8960
  766MOL0     C 1009   0.279  -0.027  10.734  0.3345  0.1925  0.2661
  766MOL0     O 1010   0.204   0.081  10.779 -0.7088 -0.9182  0.0749
  766MOL0     C 1011   0.203   0.115  10.914 -0.0426  0.7461 -0.1851
  766MOL0     C 1012   0.321   0.163  10.981  0.3629  0.7814  0.5556
  766MOL0     C 1013   0.313   0.178  11.122  0.8263  0.5064  1.2413
  766MOL0     C 1014   0.190   0.185  11.193  0.1054  0.4745 -0.5416
  766MOL0     O 1015   0.193   0.225  11.327  0.1209  0.0015 -0.0849
  766MOL0     C 1016   0.113   0.142  11.416 -0.0982 -0.0901  0.7559
  766MOL0     C 1017   0.211   0.035  11.495 -0.2565 -0.3249 -0.7477
  766MOL0     C 1018   0.278  -0.065  11.392  0.6126  0.4243  0.3369
  766MOL0     C 1019   0.174  -0.157  11.318 -0.2820 -0.5021 -0.4895
  766MOL0     C 1020   0.231  -0.210  11.181 -0.7790  0.2652  0.3210
  766MOL0     C 1021   0.347  -0.318  11.203  0.5773 -0.8693 -0.1740
  766MOL0     C 1022   0.409  -0.365  11.073  0.0347  0.5537 -0.4855
  766MOL0     C 1023   0.555  -0.396  11.092  1.2895  0.3201  0.3976
  766MOL0    Cl 1024   0.551  -0.541  11.193  0.2871  0.0598  0.4714
  766MOL0     C 1025   0.074   0.150  11.119 -0.1623 -0.3602 -0.7218
  766MOL0     C 1026   0.083   0.117  10.990 -0.6020  0.0191 -0.6903
  766MOL0     O 1027   0.336  -0.105  10.809  0.3438  0.2013 -0.0959
  766MOL0     C 1028   0.224   0.024  10.495  0.3428  0.4138 -0.2903
  766MOL0     C 1029   0.251   0.019  10.360 -0.2358  0.1708 -0.7467
  766MOL0     N 1030   0.638  -0.284   9.819 -0.5208 -0.0846  0.0205
  766MOL0     N 1031   0.625  -0.353   9.715  0.2149  0.1606 -0.1929
  766MOL0     C 1032   0.852  -0.105   8.737 -0.2370  0.5965 -0.8334
  766MOL0     C 1033   0.793   0.003   8.679 -0.3308 -1.6034 -0.3971
  766MOL0     C 1034   0.668   0.407   8.599 -0.2691  0.6135  1.2693
  766MOL0     C 1035   0.651   0.400   8.459  0.0339  0.2527 -0.5719
  766MOL0     C 1036   0.572   0.492   8.393 -1.0871  0.4423  0.7443
  766MOL0     C 1037   0.521   0.607   8.455  0.2721 -0.3782  0.5659
  766MOL0     O 1038   0.462   0.712   8.381  0.9350  0.5965  0.6165
  766MOL0     C 1039   0.508   0.739   8.249 -0.5723 -1.1424  0.9133
  766MOL0     C 1040   0.495   0.897   8.204 -0.1615  0.4711 -0.5725
  766MOL0     C 1041   0.352   0.944   8.189 -0.1771  0.0640  0.4411
  766MOL0     C 1042   0.287   0.894   8.057  0.0635 -0.5133 -0.4372
  766MOL0     C 1043   0.162   0.970   8.018  0.0503  0.1101  0.0201
  766MOL0     C 1044   0.057   1.016   7.993 -0.0519  0.6675  0.3003
  766MOL0     C 1045   0.517   0.602   8.591 -0.3031 -0.6067 -0.7588
  766MOL0     C 1046   0.593   0.509   8.666 -0.1401 -0.4901 -0.4480
  766MOL0     H 1047   1.078   0.131   8.550 -0.6896 -1.6711 -2.7738
  766MOL0     H 1048   1.171  -0.048   8.669 -0.8234 -1.5628  3.4688
  766MOL0     H 1049   1.247  -0.226   8.822  0.7191 -1.1959 -1.4111
  766MOL0     H 1050   1.181  -0.306   8.685 -3.7631  0.7726 -0.7350
  766MOL0     H 1051   1.264  -0.478   8.869  0.9109  1.0434  0.4156
  766MOL0     H 1052   1.088  -0.493   8.831  1.8774 -1.7003  1.3342
  766MOL0     H 1053   1.176  -0.312   9.054 -2.3899  1.2424 -0.5759
  766MOL0     H 1054   1.197  -0.490   9.089 -0.3720  0.2448  1.0110
  766MOL0     H 1055   0.939  -0.332   9.031 -2.1448 -0.3732  2.3806
  766MOL0     H 1056   0.953  -0.510   9.056 -0.7240 -0.2480  0.1970
  766MOL0     H 1057   1.008  -0.319   9.287  2.1842 -1.3737  2.0478
  766MOL0     H 1058   1.031  -0.487   9.283  0.3965  0.8474  2.8404
  766MOL0     H 1059   0.788  -0.524   9.273 -0.5946  0.1492 -0.4742
  766MOL0     H 1060   0.771  -0.346   9.234 -0.5184  1.0212  3.3212
  766MOL0     H 1061   0.869  -0.439   9.500 -0.0634 -2.3591 -2.2922
  766MOL0     H 1062   0.867  -0.274   9.444  0.7393 -0.5789  1.3864
  766MOL0     H 1063   0.626  -0.456   9.482 -2.6134  0.7394 -1.3815
  766MOL0     H 1064   0.643  -0.293   9.404  3.3638  0.0719 -1.2237
  766MOL0     H 1065   0.765  -0.094   9.586 -1.6505  2.0780  1.7851
  766MOL0     H 1066   0.725   0.039   9.795  2.0364 -1.6494 -2.0807
  766MOL0     H 1067   0.834  -0.054   9.892  0.6805 -2.8420 -1.1499
  766MOL0     H 1068   0.693   0.079  10.048  1.4977 -0.5159 -0.5509
  766MOL0     H 1069   0.655  -0.106  10.049 -0.4731 -0.8227 -1.3068
  766MOL0     H 1070   0.509   0.117   9.904  0.1861  0.8682  0.6102
  766MOL0     H 1071   0.451  -0.048   9.913 -0.6114 -0.1432  1.3654
  766MOL0     H 1072   0.322   0.074  10.082 -0.3507 -1.0841 -1.4851
  766MOL0     H 1073   0.491   0.120  10.151 -0.8913 -0.1088  1.4484
  766MOL0     H 1074   0.485  -0.219  10.361 -2.5842  0.2572 -2.1500
  766MOL0     H 1075   0.440  -0.217  10.607 -0.5459  0.4638  0.4888
  766MOL0     H 1076   0.417   0.167  10.930 -0.5299 -1.1591 -1.4448
  766MOL0     H 1077   0.407   0.203  11.170  0.5441  4.4033  0.1811
  766MOL0     H 1078   0.033   0.100  11.355  1.3812 -2.7641  0.4848
  766MOL0     H 1079   0.064   0.210  11.485 -1.1304  1.7532 -1.6402
  766MOL0     H 1080   0.159  -0.025  11.570 -3.6204  0.8852 -1.9152
  766MOL0     H 1081   0.289   0.099  11.537  2.4937 -3.9384  0.2445
  766MOL0     H 1082   0.353  -0.128  11.441  1.9526  1.6174 -0.1256
  766MOL0     H 1083   0.335  -0.015  11.314  1.7176 -1.2994 -0.0307
  766MOL0     H 1084   0.138  -0.236  11.384 -1.1432  0.6155  0.4102
  766MOL0     H 1085   0.082  -0.108  11.286 -1.9145 -1.4541  2.4460
  766MOL0     H 1086   0.263  -0.134  11.109  0.3100 -2.2367 -2.0079
  766MOL0     H 1087   0.149  -0.266  11.136  0.8670 -2.6524  0.7083
  766MOL0     H 1088   0.316  -0.403  11.265  0.5572 -1.4707 -1.0000
  766MOL0     H 1089   0.418  -0.259  11.262 -0.7914  0.8144 -0.1259
  766MOL0     H 1090   0.362  -0.446  11.016 -1.5198  0.9443  0.1796
  766MOL0     H 1091   0.406  -0.281  11.003  0.9427  1.3483  0.4026
  766MOL0     H 1092   0.604  -0.311  11.140 -1.7500  0.8879  2.8617
  766MOL0     H 1093   0.599  -0.404  10.993  1.1703  2.5198  0.1056
  766MOL0     H 1094  -0.023   0.160  11.166 -0.9007  1.2236 -2.4689
  766MOL0     H 1095  -0.009   0.098  10.936 -1.9296  0.5049  1.2636
  766MOL0     H 1096   0.135   0.077  10.528  1.1103  1.3683  0.2827
  766MOL0     H 1097   0.195   0.077  10.288  0.6519 -1.2875 -2.7277
  766MOL0     H 1098   0.784  -0.170   8.792 -0.2794  0.5957 -0.8874
  766MOL0     H 1099   0.686  -0.007   8.668 -0.6344 -0.0044  0.7315
  766MOL0     H 1100   0.699   0.324   8.398  1.5009  1.6911 -1.3082
  766MOL0     H 1101   0.565   0.490   8.285  1.0427 -2.2853  0.5546
  766MOL0     H 1102   0.447   0.674   8.185  1.2797 -3.3404  1.2503
  766MOL0     H 1103   0.612   0.709   8.235 -0.6474 -1.3989  0.8941
  766MOL0     H 1104   0.543   0.952   8.286  1.0168  0.9169 -1.5228
  766MOL0     H 1105   0.544   0.909   8.107  1.2918 -1.1305 -0.0867
  766MOL0     H 1106   0.358   1.053   8.189 -0.2761  0.0699  0.4957
  766MOL0     H 1107   0.314   0.904   8.283  2.2360 -1.5388  0.8153
  766MOL0     H 1108   0.362   0.893   7.978 -0.7761  0.5555 -1.2839
  766MOL0     H 1109   0.257   0.789   8.055 -2.6209  0.1795 -2.4702
  766MOL0     H 1110  -0.043   1.043   7.964 -0.2148  0.4189  0.6220
  766MOL0     H 1111   0.456   0.668   8.653  1.9846  1.1152 -0.2022
  766MOL0     H 1112   0.600   0.513   8.774  0.5233  0.6704 -0.5112
  767MOL0     O 1113   7.405   6.277   1.263 -0.4214 -0.1312  0.1931
  767MOL0     C 1114   7.338   6.273   1.367 -0.3945 -0.9356  0.5338
  767MOL0     O 1115   7.199   6.289   1.370  0.4167  0.3078  0.9594
  767MOL0     C 1116   7.113   6.275   1.260 -1.0674 -0.0172  0.0661
  767MOL0     C 1117   6.995   6.343   1.269  0.9150 -0.1957 -1.3097
  767MOL0     C 1118   6.889   6.330   1.178  0.3176 -0.2913 -0.2190
  767MOL0     C 1119   6.904   6.247   1.072 -0.8215  0.1317 -0.7713
  767MOL0     O 1120   6.799   6.237   0.993 -0.3426  1.2164  0.5055
  767MOL0     C 1121   6.786   6.154   0.875 -0.2506 -0.0214 -0.5372
  767MOL0     C 1122   6.864   6.201   0.748  0.6631  0.4007  1.2586
  767MOL0     C 1123   6.803   6.312   0.670  0.0166  0.0601 -0.1062
  767MOL0     C 1124   6.810   6.437   0.758  0.4788  0.2574  0.4500
  767MOL0     C 1125   6.819   6.566   0.676  0.0093 -0.2764  0.1955
  767MOL0     C 1126   6.685   6.604   0.608  0.3211 -0.2000 -0.4416
  767MOL0     C 1127   6.682   6.733   0.507 -0.5947  0.1552 -0.5167
  767MOL0     C 1128   6.564   6.726   0.399 -0.9287  0.5425 -0.7755
  767MOL0     N 1129   6.431   6.702   0.471 -0.7568 -0.3298 -0.6469
  767MOL0     C 1130   6.373   6.782   0.559 -0.6504 -0.0926 -0.1160
  767MOL0     C 1131   6.249   6.748   0.585 -0.5370  0.2834  0.5497
  767MOL0     C 1132   6.149   6.806   0.682 -0.0407  0.1292 -0.1345
  767MOL0     C 1133   6.023   6.863   0.615  0.3329 -0.6409 -0.6052
  767MOL0     C 1134   6.050   6.970   0.507  0.6360  0.9562 -0.9560
  767MOL0     C 1135   5.927   7.034   0.438 -0.0704  0.5131  0.0222
  767MOL0     O 1136   5.843   7.097   0.534  0.3692  0.6197 -0.0752
  767MOL0     C 1137   5.742   7.179   0.491  0.4714 -0.4637  0.2964
  767MOL0     C 1138   5.708   7.188   0.353 -0.3547  1.0604 -1.1929
  767MOL0     C 1139   5.599   7.270   0.317 -0.3561 -0.6836 -0.3578
  767MOL0     C 1140   5.518   7.338   0.412  0.0189  0.0402 -0.3516
  767MOL0     C 1141   5.406   7.435   0.362  0.4661  0.0361  0.6412
  767MOL0     O 1142   5.345   7.505   0.458  0.2975 -0.2014 -0.5091
  767MOL0     C 1143   5.241   7.589   0.422 -0.1682 -0.8153 -0.7785
  767MOL0     C 1144   5.128   7.546   0.363 -0.6301 -0.1208 -0.5842
  767MOL0     C 1145   5.033   7.639   0.319  0.4845 -0.6008 -0.2846
  767MOL0     C 1146   5.048   7.778   0.339 -0.1151 -0.8007 -0.0295
  767MOL0     O 1147   4.948   7.867   0.307 -0.6015 -0.1231  0.1211
  767MOL0     C 1148   4.805   7.820   0.302 -0.4004 -0.2511  0.1121
  767MOL0     C 1149   4.700   7.937   0.308  0.5897 -0.0055  0.5408
  767MOL0     C 1150   4.554   7.893   0.297  0.6357  0.2239 -1.0310
  767MOL0     C 1151   4.456   7.998   0.327  0.4465 -0.6390  0.1472
  767MOL0     C 1152   4.325   7.956   0.278  0.3397  0.3424  0.0791
  767MOL0     C 1153   4.313   7.966   0.124  0.2696 -0.0968  0.6215
  767MOL0     C 1154   4.298   7.837   0.042 -0.9429 -0.5537  1.2641
  767MOL0     C 1155   4.358   7.864  -0.097 -0.0346  0.2776 -0.4769
  767MOL0    Cl 1156   4.283   8.000  -0.182 -0.5043  0.2703  0.3457
  767MOL0     C 1157   5.170   7.818   0.396 -0.8732 -0.4500 -0.2107
  767MOL0     C 1158   5.266   7.726   0.425 -0.0661 -0.0154  0.2712
  767MOL0     O 1159   5.394   7.447   0.239 -0.0673  0.4910 -0.4765
  767MOL0     C 1160   5.563   7.339   0.547  0.7888  0.1399  0.0656
  767MOL0     C 1161   5.670   7.252   0.584 -0.0608 -0.3683  0.3942
  767MOL0     N 1162   6.224   6.659   0.487 -0.1185 -0.0665  0.7152
  767MOL0     N 1163   6.334   6.615   0.424 -0.5531 -1.3567 -0.0188
  767MOL0     C 1164   7.031   6.184   1.050  0.7676  0.8605 -0.4606
  767MOL0     C 1165   7.128   6.198   1.149  0.2268  0.0438 -0.1050
  767MOL0     C 1166   7.430   6.288   1.486 -0.4041  0.3373 -0.2072
  767MOL0     C 1167   7.371   6.261   1.612 -0.5374  0.0081 -0.4122
  767MOL0     C 1168   7.451   6.270   1.732 -0.3558  0.5195  0.1689
  767MOL0     C 1169   7.587   6.292   1.721  0.6834  0.2889 -0.2527
  767MOL0     O 1170   7.655   6.331   1.832 -0.3128  0.0270 -0.1936
  767MOL0     C 1171   7.765   6.260   1.862 -0.0328  0.7963 -0.2806
  767MOL0     C 1172   7.729   6.146   1.961  0.3994  0.4692  0.2076
  767MOL0     C 1173   7.643   6.186   2.087 -1.1091 -0.2386 -0.3052
  767MOL0     C 1174   7.651   6.088   2.205  0.8284 -0.6075 -0.1167
  767MOL0     C 1175   7.550   6.115   2.311 -0.7737  0.0080  0.3262
  767MOL0     C 1176   7.469   6.146   2.397  0.8039  0.4307  0.3073
  767MOL0     C 1177   7.645   6.311   1.590  0.7511 -0.5391  0.1329
  767MOL0     C 1178   7.567   6.302   1.474 -0.8684  0.1515  1.1106
  767MOL0     H 1179   6.985   6.403   1.359  0.7476 -1.5772 -0.3869
  767MOL0     H 1180   6.799   6.391   1.183  0.8273  0.4906 -0.2443
  767MOL0     H 1181   6.679   6.137   0.859  0.1213 -0.4832 -3.0531
  767MOL0     H 1182   6.830   6.057   0.899  1.0058  0.9493  1.3410
  767MOL0     H 1183   6.853   6.112   0.685 -3.7515 -1.0930  3.7322
  767MOL0     H 1184   6.971   6.209   0.770  1.1026  1.5155 -0.9589
  767MOL0     H 1185   6.699   6.283   0.649  0.3221  0.9942 -3.4620
  767MOL0     H 1186   6.843   6.325   0.569  0.9736  0.8287  0.3508
  767MOL0     H 1187   6.733   6.431   0.836 -0.8579 -2.3101 -0.9579
  767MOL0     H 1188   6.910   6.429   0.804  0.1153 -1.6262  1.0229
  767MOL0     H 1189   6.911   6.559   0.617 -1.0831 -2.0359 -1.4009
  767MOL0     H 1190   6.847   6.648   0.743  0.8218 -0.6933  0.3875
  767MOL0     H 1191   6.622   6.644   0.688  2.0219 -1.5760  1.7216
  767MOL0     H 1192   6.641   6.513   0.565  1.2804 -1.1581  0.5408
  767MOL0     H 1193   6.671   6.828   0.560 -2.3692 -0.5371  0.4573
  767MOL0     H 1194   6.776   6.727   0.453  0.6780 -0.4514  1.6599
  767MOL0     H 1195   6.584   6.639   0.337 -0.7710  0.1418 -0.1704
  767MOL0     H 1196   6.560   6.818   0.340  0.0846  0.5989 -0.7679
  767MOL0     H 1197   6.424   6.857   0.620  1.7248 -0.3121 -1.7147
  767MOL0     H 1198   6.189   6.885   0.746 -2.2119  0.8904  0.3863
  767MOL0     H 1199   6.127   6.719   0.744 -0.0728 -1.7566 -2.5953
  767MOL0     H 1200   5.970   6.911   0.697  2.1097  0.4265 -0.0240
  767MOL0     H 1201   5.970   6.772   0.585 -2.2474  0.9712 -1.2353
  767MOL0     H 1202   6.112   7.049   0.549 -1.1890  1.4252  0.9896
  767MOL0     H 1203   6.100   6.911   0.429 -0.2005  1.7170 -2.1020
  767MOL0     H 1204   5.879   6.961   0.372 -1.5769  2.9917 -1.7588
  767MOL0     H 1205   5.966   7.109   0.369 -1.7593  1.5826  0.1739
  767MOL0     H 1206   5.763   7.141   0.272  0.3845  0.4073 -0.3231
  767MOL0     H 1207   5.576   7.279   0.211  1.8780 -0.0049 -0.8358
  767MOL0     H 1208   5.121   7.438   0.357  1.1239 -0.3710  0.7873
  767MOL0     H 1209   4.940   7.604   0.275 -1.1146  1.5383  1.1615
  767MOL0     H 1210   4.781   7.746   0.379 -0.1153 -3.9629 -3.0586
  767MOL0     H 1211   4.788   7.773   0.204 -1.3675 -0.3468  0.3173
  767MOL0     H 1212   4.723   8.001   0.222 -5.6705  1.3523 -0.6330
  767MOL0     H 1213   4.719   7.991   0.401  0.2458 -1.3330  1.4123
  767MOL0     H 1214   4.537   7.820   0.376 -0.1262  1.2057 -0.2674
  767MOL0     H 1215   4.532   7.842   0.202 -0.1151  0.0065 -0.7468
  767MOL0     H 1216   4.444   8.019   0.434 -0.7502 -0.0954 -0.0792
  767MOL0     H 1217   4.483   8.088   0.271 -2.0019 -1.0771 -1.9128
  767MOL0     H 1218   4.247   8.013   0.328 -0.3420  1.2872 -1.9559
  767MOL0     H 1219   4.314   7.851   0.306  1.0158 -0.0265 -0.9532
  767MOL0     H 1220   4.403   8.018   0.089 -0.1436  0.9440  1.0443
  767MOL0     H 1221   4.223   8.023   0.100  1.1895  0.1583 -2.6769
  767MOL0     H 1222   4.356   7.756   0.087 -1.9150 -2.6173 -0.9564
  767MOL0     H 1223   4.192   7.812   0.048 -1.0638  0.0417  1.7975
  767MOL0     H 1224   4.341   7.771  -0.153 -0.5768  2.5364 -4.4422
  767MOL0     H 1225   4.465   7.888  -0.092  0.0933 -0.5042  2.3021
  767MOL0     H 1226   5.202   7.921   0.410  1.6166 -1.0731 -0.8405
  767MOL0     H 1227   5.364   7.757   0.462 -0.6856  1.6523  0.6009
  767MOL0     H 1228   5.511   7.400   0.620  0.5252 -2.2672  2.0038
  767MOL0     H 1229   5.714   7.255   0.683 -0.5778 -0.1102  0.6258
  767MOL0     H 1230   7.050   6.131   0.958 -2.0366 -0.1585 -0.5633
  767MOL0     H 1231   7.215   6.134   1.151 -1.4783 -2.4188  1.7727
  767MOL0     H 1232   7.268   6.229   1.623 -1.0818  1.4099 -1.2510
  767MOL0     H 1233   7.399   6.283   1.827  0.7672 -1.9632  1.2141
  767MOL0     H 1234   7.831   6.320   1.925 -1.9450 -0.6064  3.3827
  767MOL0     H 1235   7.822   6.229   1.774 -0.3689  0.5225 -0.4034
  767MOL0     H 1236   7.672   6.066   1.912 -1.1879  2.6996 -1.8489
  767MOL0     H 1237   7.813   6.089   2.001 -1.7177 -3.2830 -0.2139
  767MOL0     H 1238   7.539   6.200   2.059 -0.5340  1.6190 -1.7174
  767MOL0     H 1239   7.679   6.283   2.121 -1.2531 -0.4180  0.3646
  767MOL0     H 1240   7.627   5.989   2.165  1.6559 -2.8082  4.2265
  767MOL0     H 1241   7.746   6.073   2.257  0.7997  0.1033  0.1431
  767MOL0     H 1242   7.403   6.176   2.476  2.9726  1.0909  1.9707
  767MOL0     H 1243   7.751   6.331   1.583  1.2740 -3.0586 -0.3944
  767MOL0     H 1244   7.624   6.302   1.382 -0.9742  1.7538  1.0082
  768MOL0     O 1245   9.595   1.614   6.345  1.4121 -0.3288 -1.1452
  768MOL0     C 1246   9.578   1.503   6.296  0.8534 -0.7411  0.2415
  768MOL0     O 1247   9.451   1.438   6.285 -0.1363  0.2751  0.2481
  768MOL0     C 1248   9.335   1.490   6.335 -1.1208  0.1621 -0.5413
  768MOL0     C 1249   9.231   1.396   6.350 -0.1775  0.1184  0.1579
  768MOL0     C 1250   9.104   1.440   6.371 -0.0496 -0.0529 -0.6096
  768MOL0     C 1251   9.072   1.576   6.396 -0.3484 -0.1341  0.4163
  768MOL0     O 1252   8.940   1.609   6.435 -0.3862 -0.2219 -0.1924
  768MOL0     C 1253   8.918   1.728   6.520 -0.5050  0.8351  0.7010
  768MOL0     C 1254   8.776   1.751   6.553  0.4361 -0.0486  0.7147
  768MOL0     C 1255   8.720   1.633   6.648  0.3466  0.1432  0.4005
  768MOL0     C 1256   8.567   1.627   6.618 -0.4611  0.1101  0.0046
  768MOL0     C 1257   8.507   1.503   6.675  0.1976  0.5462 -0.1023
  768MOL0     C 1258   8.356   1.510   6.700  0.3862 -0.0686 -0.2990
  768MOL0     C 1259   8.300   1.595   6.816  1.0922  0.4250 -0.1558
  768MOL0     C 1260   8.265   1.516   6.945 -0.1965  0.5881  0.2578
  768MOL0     N 1261   8.270   1.589   7.068 -0.3212 -0.6579 -0.3393
  768MOL0     C 1262   8.391   1.628   7.130  0.4189 -0.1023  0.6906
  768MOL0     C 1263   8.349   1.681   7.246  0.2163  0.6265  0.1440
  768MOL0     C 1264   8.446   1.723   7.356  0.6624 -0.2841  0.6147
  768MOL0     C 1265   8.497   1.605   7.429  0.1433 -0.6002 -0.1133
  768MOL0     C 1266   8.590   1.642   7.550  0.3274  0.6284 -0.2911
  768MOL0     C 1267   8.633   1.509   7.617  0.7362 -0.7217 -0.3205
  768MOL0     O 1268   8.704   1.405   7.555  0.5339  0.3518 -0.2689
  768MOL0     C 1269   8.834   1.418   7.515  0.7251  0.5464 -0.2056
  768MOL0     C 1270   8.927   1.528   7.544  0.0187  0.4523 -0.6829
  768MOL0     C 1271   9.049   1.520   7.483  0.0297 -0.3453  1.3644
  768MOL0     C 1272   9.086   1.406   7.409  1.2643  0.3778 -0.0494
  768MOL0     C 1273   9.222   1.385   7.371  0.0697 -0.5096  0.1846
  768MOL0     O 1274   9.322   1.464   7.426  1.2955  0.2118 -0.3092
  768MOL0     C 1275   9.449   1.430   7.384 -0.3827 -0.1791 -0.5604
  768MOL0     C 1276   9.511   1.326   7.445 -0.0535 -0.2253  0.2326
  768MOL0     C 1277   9.642   1.289   7.407 -0.0456 -0.1471  0.3526
  768MOL0     C 1278   9.698   1.352   7.302  0.3409 -1.4149  0.1195
  768MOL0     O 1279   9.822   1.314   7.265 -0.5000  0.4939 -0.2761
  768MOL0     C 1280   9.845   1.205   7.174  0.1154  1.4415 -0.1702
  768MOL0     C 1281   9.955   1.238   7.086 -0.7668 -0.0942  0.1786
  768MOL0     C 1282  10.048   1.127   7.040  0.7897  0.7608 -0.4137
  768MOL0     C 1283  10.145   1.189   6.942  0.5030  1.0240  0.5976
  768MOL0     C 1284  10.219   1.078   6.871  0.2672 -0.2933  0.2859
  768MOL0     C 1285  10.319   1.126   6.760  0.1017  0.4174  0.4799
  768MOL0     C 1286  10.466   1.127   6.800 -0.5829 -0.3376 -0.0766
  768MOL0     C 1287  10.536   1.000   6.752 -0.3181  0.3060  0.3002
  768MOL0    Cl 1288  10.498   0.860   6.855 -0.2030 -0.1139  0.1180
  768MOL0     C 1289   9.634   1.458   7.238  0.4149  0.3613  0.4661
  768MOL0     C 1290   9.516   1.503   7.285 -0.6736 -0.4715 -0.4039
  768MOL0     O 1291   9.241   1.298   7.290 -0.0038  0.3449 -0.3793
  768MOL0     C 1292   8.997   1.310   7.373 -0.6356  0.1742  0.0805
  768MOL0     C 1293   8.873   1.314   7.427 -0.8633 -0.1219  0.4625
  768MOL0     N 1294   8.208   1.683   7.253  0.3150 -0.8405 -0.1582
  768MOL0     N 1295   8.161   1.631   7.138 -0.4699 -0.1747  0.0174
  768MOL0     C 1296   9.176   1.665   6.389 -0.4208  0.2136  1.0832
  768MOL0     C 1297   9.304   1.622   6.363  1.0112  0.8664  0.2740
  768MOL0     C 1298   9.696   1.436   6.245 -0.1358  0.5135 -0.3447
  768MOL0     C 1299   9.687   1.326   6.152  0.9958 -0.7993 -0.0796
  768MOL0     C 1300   9.796   1.270   6.103 -0.3697 -0.6323 -0.0466
  768MOL0     C 1301   9.926   1.314   6.133 -0.7509  0.0724  0.1868
  768MOL0     O 1302  10.042   1.257   6.092 -0.5105  0.0362 -0.2009
  768MOL0     C 1303  10.039   1.216   5.954 -0.6410  0.3399  0.2989
  768MOL0     C 1304  10.173   1.149   5.907 -0.1433 -0.0551 -0.4862
  768MOL0     C 1305  10.302   1.232   5.935 -0.2504 -0.7907 -0.7160
  768MOL0     C 1306  10.424   1.145   5.937 -0.1984 -0.5305 -0.2572
  768MOL0     C 1307  10.539   1.222   5.991  0.7660 -0.2770  0.1381
  768MOL0     C 1308  10.622   1.287   6.050  1.1562  0.0923 -0.4206
  768MOL0     C 1309   9.936   1.415   6.237 -0.3040  0.0169  0.1943
  768MOL0     C 1310   9.827   1.474   6.294  0.0831 -0.4575  1.0799
  768MOL0     H 1311   9.248   1.291   6.328  2.2350  0.7211 -1.2930
  768MOL0     H 1312   9.019   1.372   6.364  1.5821 -2.3526  0.6010
  768MOL0     H 1313   8.947   1.814   6.458 -1.4876  0.5919 -0.1300
  768MOL0     H 1314   8.983   1.729   6.608  2.0306  0.4241 -1.0442
  768MOL0     H 1315   8.723   1.761   6.458 -0.2170  0.6674  1.1530
  768MOL0     H 1316   8.764   1.843   6.611  2.0450  0.0617  0.9079
  768MOL0     H 1317   8.734   1.666   6.751 -1.9539  0.8115  0.5396
  768MOL0     H 1318   8.773   1.541   6.621  0.4078  0.7097 -1.5566
  768MOL0     H 1319   8.519   1.720   6.651  0.1189  1.9599 -3.7847
  768MOL0     H 1320   8.551   1.623   6.510  2.2236 -1.0946 -0.4253
  768MOL0     H 1321   8.553   1.458   6.763 -1.8803 -2.4592 -0.3741
  768MOL0     H 1322   8.522   1.429   6.596  0.9129  1.1206 -0.5107
  768MOL0     H 1323   8.333   1.408   6.732 -1.4839 -0.3824 -2.3909
  768MOL0     H 1324   8.306   1.507   6.603  0.7419 -3.1522 -0.4867
  768MOL0     H 1325   8.365   1.677   6.847 -0.1717  1.1668  0.6611
  768MOL0     H 1326   8.205   1.635   6.778 -0.6334 -1.1000  2.1706
  768MOL0     H 1327   8.334   1.433   6.958 -0.9954 -0.3072 -0.9662
  768MOL0     H 1328   8.166   1.473   6.924  0.5219 -0.0875 -2.0435
  768MOL0     H 1329   8.490   1.597   7.100  1.1845  2.1682  0.6880
  768MOL0     H 1330   8.399   1.790   7.428  2.0174  1.1649  0.1930
  768MOL0     H 1331   8.524   1.783   7.309 -1.3285  2.5012  0.6395
  768MOL0     H 1332   8.552   1.534   7.366  0.3604  0.4128 -1.0917
  768MOL0     H 1333   8.404   1.565   7.471  0.4307  0.2434  1.3949
  768MOL0     H 1334   8.676   1.698   7.512  0.0041 -0.3607 -2.5871
  768MOL0     H 1335   8.554   1.707   7.631  0.3795  3.1284 -2.1631
  768MOL0     H 1336   8.538   1.469   7.653  0.4557  1.1406  1.1232
  768MOL0     H 1337   8.685   1.548   7.704 -1.9025  1.5566  0.3681
  768MOL0     H 1338   8.890   1.609   7.607 -1.9075 -1.0606  0.2485
  768MOL0     H 1339   9.115   1.606   7.494 -0.9674  0.5184  0.8132
  768MOL0     H 1340   9.458   1.276   7.525  1.5106  0.5222  1.8113
  768MOL0     H 1341   9.700   1.211   7.457  4.1647  1.1042 -2.1079
  768MOL0     H 1342   9.758   1.195   7.108  0.8515  1.1104 -1.1202
  768MOL0     H 1343   9.863   1.116   7.234 -2.0201  1.7324  1.0308
  768MOL0     H 1344  10.016   1.317   7.131 -0.3535  0.0360 -0.5964
  768MOL0     H 1345   9.916   1.292   7.000  0.0169  1.1417  0.5678
  768MOL0     H 1346   9.990   1.054   6.983  0.8314 -1.2666  1.9655
  768MOL0     H 1347  10.103   1.074   7.118 -0.1137 -0.1796 -0.3998
  768MOL0     H 1348  10.082   1.242   6.870 -0.7985 -1.3046 -0.0912
  768MOL0     H 1349  10.215   1.254   6.995 -1.0313  2.0065  1.4885
  768MOL0     H 1350  10.145   1.009   6.831  3.0695 -3.6798  0.4522
  768MOL0     H 1351  10.277   1.020   6.944  1.0669  2.5942  2.1191
  768MOL0     H 1352  10.290   1.226   6.725 -1.4451 -0.2770 -0.2881
  768MOL0     H 1353  10.301   1.062   6.674 -1.1135 -1.4306  2.0098
  768MOL0     H 1354  10.506   1.219   6.757 -0.7426  0.4403  1.3760
  768MOL0     H 1355  10.465   1.126   6.909 -1.8144  1.2436 -0.0268
  768MOL0     H 1356  10.643   1.017   6.759 -0.2472 -0.1050  0.2340
  768MOL0     H 1357  10.516   0.969   6.649  1.7006 -0.5416  0.1235
  768MOL0     H 1358   9.693   1.519   7.171  1.1336  0.7726  1.4428
  768MOL0     H 1359   9.462   1.591   7.251  0.6773  0.1033 -1.1403
  768MOL0     H 1360   9.010   1.231   7.300  0.6034 -0.3895  0.8644
  768MOL0     H 1361   8.802   1.233   7.414 -0.6844 -0.4810  1.6157
  768MOL0     H 1362   9.155   1.770   6.403  0.2686  0.8268 -1.8737
  768MOL0     H 1363   9.374   1.704   6.369 -1.1773  2.8757 -0.0942
  768MOL0     H 1364   9.589   1.300   6.113  0.4896  2.1554 -0.9784
  768MOL0     H 1365   9.781   1.183   6.039 -0.4304 -1.8926  1.6264
  768MOL0     H 1366  10.030   1.311   5.903  3.2661  0.6383 -0.1449
  768MOL0     H 1367   9.958   1.146   5.933 -1.2445  0.3310  2.4052
  768MOL0     H 1368  10.175   1.056   5.964 -1.3198  0.6413  0.7457
  768MOL0     H 1369  10.172   1.129   5.800 -2.7503 -2.4333 -0.1482
  768MOL0     H 1370  10.285   1.278   6.033 -0.6738  0.6327 -1.4251
  768MOL0     H 1371  10.315   1.310   5.859  1.7221 -0.0860  0.2646
  768MOL0     H 1372  10.420   1.055   5.998 -0.6794 -0.1532  0.2805
  768MOL0     H 1373  10.449   1.127   5.832  1.0902  0.4303 -0.1396
  768MOL0     H 1374  10.687   1.358   6.095 -0.0588  0.0128  1.5609
  768MOL0     H 1375  10.034   1.439   6.277  1.0156 -0.9077 -2.2654
  768MOL0     H 1376   9.835   1.563   6.355 -0.9798 -0.4544  1.2431
  769MOL0     O 1377   2.656   8.079   3.432 -0.0108  1.3585 -0.1700
  769MOL0     C 1378   2.734   8.113   3.520  0.3205  0.5770  0.7057
  769MOL0     O 1379   2.703   8.160   3.655 -0.3772 -0.0557  0.3474
  769MOL0     C 1380   2.578   8.149   3.699  0.4300  0.9666 -0.2383
  769MOL0     C 1381   2.504   8.267   3.715 -0.9785  0.8165  0.2457
  769MOL0     C 1382   2.377   8.262   3.757  0.9023 -0.1590 -0.6849
  769MOL0     C 1383   2.324   8.130   3.791 -0.0106 -0.4487  1.3956
  769MOL0     O 1384   2.209   8.144   3.864  0.4204 -0.0624 -0.0592
  769MOL0     C 1385   2.188   8.056   3.981 -0.2784 -0.0522  0.3935
  769MOL0     C 1386   2.098   7.944   3.940  0.3238 -0.5658 -0.3308
  769MOL0     C 1387   2.080   7.832   4.040 -0.5196  0.8173  0.6285
  769MOL0     C 1388   1.994   7.866   4.159  0.1444  0.1755  0.5951
  769MOL0     C 1389   1.962   7.741   4.239  0.4670  0.7159  0.6679
  769MOL0     C 1390   1.866   7.778   4.355 -0.2790  0.7888  0.5750
  769MOL0     C 1391   1.735   7.845   4.303  1.1030  0.4092 -0.3872
  769MOL0     C 1392   1.673   7.778   4.186 -0.3433  0.3302  0.4411
  769MOL0     N 1393   1.528   7.811   4.164  0.2353  0.5645 -0.1185
  769MOL0     C 1394   1.500   7.944   4.128 -0.5238  0.6338 -0.5770
  769MOL0     C 1395   1.383   7.937   4.055 -0.0739  1.2175  0.1354
  769MOL0     C 1396   1.293   8.052   4.000 -0.0497  1.0656  0.9223
  769MOL0     C 1397   1.254   8.151   4.115  1.0151  0.6909 -0.6763
  769MOL0     C 1398   1.147   8.094   4.210  0.1515 -0.4772 -0.4919
  769MOL0     C 1399   1.105   8.201   4.307 -0.2830 -0.3106 -1.0888
  769MOL0     O 1400   1.214   8.229   4.397 -0.0719 -0.1593  0.2336
  769MOL0     C 1401   1.227   8.162   4.514 -0.7055 -0.0960  0.1087
  769MOL0     C 1402   1.359   8.161   4.560  0.6104 -0.1756 -0.1687
  769MOL0     C 1403   1.395   8.095   4.677  0.1447 -0.0070  0.6231
  769MOL0     C 1404   1.296   8.035   4.756  0.2171  0.0812  0.7667
  769MOL0     C 1405   1.333   7.969   4.883 -0.4247 -0.0207  0.2312
  769MOL0     O 1406   1.457   8.005   4.920 -0.2150 -0.0162  0.0401
  769MOL0     C 1407   1.503   7.971   5.049 -0.2919 -1.1372 -0.1164
  769MOL0     C 1408   1.640   7.945   5.054 -0.9231 -0.2544  0.3860
  769MOL0     C 1409   1.714   7.932   5.172  0.3370 -0.3509 -0.0315
  769MOL0     C 1410   1.650   7.929   5.293  0.2596  0.1049 -1.0159
  769MOL0     O 1411   1.706   7.897   5.422 -0.1039  0.0892 -0.2900
  769MOL0     C 1412   1.835   7.826   5.419  0.1379 -0.0113 -0.1153
  769MOL0     C 1413   1.846   7.770   5.557  0.7769 -0.7287  0.9426
  769MOL0     C 1414   1.952   7.660   5.560  0.2723  0.5410 -0.7317
  769MOL0     C 1415   1.996   7.613   5.696 -0.1111 -0.0179 -0.4180
  769MOL0     C 1416   2.066   7.721   5.784  1.0184 -0.8070  0.5404
  769MOL0     C 1417   2.173   7.672   5.873 -0.9126 -0.3014 -0.3507
  769MOL0     C 1418   2.204   7.780   5.981 -0.9608 -0.3033  0.0528
  769MOL0     C 1419   2.323   7.874   5.947  0.0537  0.1208 -0.9030
  769MOL0    Cl 1420   2.476   7.782   5.965  0.4488 -0.3570  0.1448
  769MOL0     C 1421   1.507   7.929   5.285  0.0199  0.1066 -0.0859
  769MOL0     C 1422   1.437   7.957   5.170  0.5556 -0.2532  0.2445
  769MOL0     O 1423   1.256   7.900   4.944  0.2498  0.6185 -0.0838
  769MOL0     C 1424   1.162   8.033   4.706 -1.1257  0.5405 -0.2897
  769MOL0     C 1425   1.134   8.093   4.586 -0.5977 -0.3799  0.2633
  769MOL0     N 1426   1.343   7.801   4.051  0.1295 -0.0907  0.5513
  769MOL0     N 1427   1.427   7.732   4.117 -0.3990  0.3525 -0.1714
  769MOL0     C 1428   2.398   8.018   3.769 -0.4362 -0.0401 -0.7691
  769MOL0     C 1429   2.526   8.027   3.717  1.3599 -0.2050 -0.2283
  769MOL0     C 1430   2.873   8.091   3.477 -1.5487  0.9618  0.1273
  769MOL0     C 1431   2.986   8.122   3.558  0.1742  0.1495  0.3230
  769MOL0     C 1432   3.117   8.098   3.525  0.9038 -0.3782  0.6894
  769MOL0     C 1433   3.137   8.032   3.401 -0.4498 -0.4465 -0.3397
  769MOL0     O 1434   3.260   8.006   3.343 -0.4850 -0.1225  0.3315
  769MOL0     C 1435   3.379   8.003   3.431  1.1877  0.8232 -0.0918
  769MOL0     C 1436   3.507   7.956   3.360 -0.5290  0.6189  0.7982
  769MOL0     C 1437   3.581   8.065   3.291  0.1011  0.9467 -0.2663
  769MOL0     C 1438   3.718   8.008   3.254  0.5805  0.0396 -0.1215
  769MOL0     C 1439   3.783   8.122   3.197  0.3690 -0.1154 -0.1337
  769MOL0     C 1440   3.835   8.230   3.171  0.3342  0.6485 -0.5130
  769MOL0     C 1441   3.033   8.001   3.318  0.1434  0.5814 -0.6675
  769MOL0     C 1442   2.901   8.031   3.358  0.1051 -1.1643 -0.3863
  769MOL0     H 1443   2.549   8.362   3.688  2.7897 -1.2719 -1.5752
  769MOL0     H 1444   2.314   8.349   3.770 -1.2208 -1.4914 -1.6188
  769MOL0     H 1445   2.131   8.102   4.062 -2.5094  0.3048 -1.2956
  769MOL0     H 1446   2.286   8.027   4.023  0.1998  3.2600  1.8454
  769MOL0     H 1447   2.145   7.897   3.854 -1.3933 -1.2201 -0.9561
  769MOL0     H 1448   2.006   7.993   3.906  2.0155  2.2826 -1.1067
  769MOL0     H 1449   2.182   7.803   4.070 -1.0868 -2.1106 -0.0045
  769MOL0     H 1450   2.040   7.745   3.988  0.6622  0.5968  0.0306
  769MOL0     H 1451   2.043   7.931   4.233  0.2391  0.4605  0.2855
  769MOL0     H 1452   1.904   7.915   4.122  2.2702  5.2413  1.2187
  769MOL0     H 1453   2.055   7.703   4.283  0.5751  1.3216  0.9781
  769MOL0     H 1454   1.925   7.656   4.180 -1.4011 -0.3595  3.2230
  769MOL0     H 1455   1.911   7.853   4.421 -3.0061  3.7152 -0.5936
  769MOL0     H 1456   1.835   7.684   4.400 -1.9258  0.6416 -0.7489
  769MOL0     H 1457   1.660   7.840   4.382 -0.3742 -2.5470 -1.8256
  769MOL0     H 1458   1.756   7.950   4.280 -1.1363  0.4037 -2.9380
  769MOL0     H 1459   1.684   7.670   4.200  0.3519  0.3250 -0.1423
  769MOL0     H 1460   1.730   7.804   4.097  1.9035 -0.9094  1.4256
  769MOL0     H 1461   1.555   8.034   4.154  1.1876 -0.4641 -0.2261
  769MOL0     H 1462   1.200   8.016   3.955 -1.4373  2.4251  2.5560
  769MOL0     H 1463   1.340   8.109   3.920 -1.5164  0.1314 -0.6581
  769MOL0     H 1464   1.212   8.243   4.074  1.4694  0.6396 -1.2728
  769MOL0     H 1465   1.345   8.170   4.173 -0.7115 -0.0997  2.4890
  769MOL0     H 1466   1.054   8.083   4.152 -0.5334  4.3152 -0.6703
  769MOL0     H 1467   1.178   8.006   4.266 -1.5118 -1.1784 -0.5980
  769MOL0     H 1468   1.016   8.168   4.362 -0.4412  0.2394 -1.0085
  769MOL0     H 1469   1.074   8.291   4.254 -2.3955  1.0589  2.1204
  769MOL0     H 1470   1.443   8.213   4.516  3.6922 -3.7575  1.0073
  769MOL0     H 1471   1.502   8.080   4.693 -0.0083 -1.9375  0.1246
  769MOL0     H 1472   1.687   7.944   4.956 -1.8574 -1.0570 -0.0722
  769MOL0     H 1473   1.822   7.935   5.158  1.0214  1.0886  4.0311
  769MOL0     H 1474   1.918   7.894   5.402  0.6070 -0.5707 -0.0921
  769MOL0     H 1475   1.833   7.753   5.337  3.7072 -0.3720 -0.0085
  769MOL0     H 1476   1.747   7.741   5.591  0.5163  0.8477  1.5578
  769MOL0     H 1477   1.885   7.853   5.616  0.7287  0.5910 -0.8269
  769MOL0     H 1478   2.044   7.694   5.512 -0.3558  2.2152 -0.7864
  769MOL0     H 1479   1.929   7.576   5.493  0.4926  2.4364 -3.3455
  769MOL0     H 1480   1.912   7.577   5.756  2.3173  1.6467  4.5315
  769MOL0     H 1481   2.076   7.538   5.692  0.7895  0.5824  3.0338
  769MOL0     H 1482   1.990   7.768   5.848  2.2562 -1.2320  2.3935
  769MOL0     H 1483   2.110   7.803   5.726  2.5706 -0.3271  2.3035
  769MOL0     H 1484   2.264   7.659   5.815 -0.1154 -0.1113  0.8323
  769MOL0     H 1485   2.146   7.578   5.922  0.3304  0.1062  1.2292
  769MOL0     H 1486   2.116   7.840   6.007  0.7754  3.1307 -1.2712
  769MOL0     H 1487   2.244   7.724   6.066  2.8241 -1.3418 -2.1851
  769MOL0     H 1488   2.329   7.955   6.020 -1.1129  0.1657 -0.8309
  769MOL0     H 1489   2.310   7.922   5.850 -1.2237 -1.3610 -1.5213
  769MOL0     H 1490   1.443   7.914   5.372 -2.2777  2.6945 -1.1810
  769MOL0     H 1491   1.334   7.991   5.163  0.2760 -0.9023  1.0344
  769MOL0     H 1492   1.086   7.969   4.749 -1.3002  1.5248  0.9220
  769MOL0     H 1493   1.029   8.101   4.558 -0.9101  3.5137  1.9126
  769MOL0     H 1494   2.358   7.918   3.786 -0.6250 -0.2575 -2.4050
  769MOL0     H 1495   2.578   7.934   3.694  0.8654 -0.4844 -0.2340
  769MOL0     H 1496   2.953   8.160   3.654 -1.2412 -1.5125  0.5332
  769MOL0     H 1497   3.199   8.141   3.582 -0.8662 -0.6538  3.6597
  769MOL0     H 1498   3.357   7.923   3.503 -2.4920  2.0720  0.3812
  769MOL0     H 1499   3.401   8.090   3.494  2.0858  1.0467 -0.6835
  769MOL0     H 1500   3.565   7.901   3.434  1.2036  2.5398  0.9371
  769MOL0     H 1501   3.487   7.890   3.274  3.0611  3.5935 -2.7434
  769MOL0     H 1502   3.581   8.151   3.359 -2.5622 -0.5803  1.8915
  769MOL0     H 1503   3.535   8.107   3.201  1.5533  0.2822 -1.3528
  769MOL0     H 1504   3.770   7.965   3.339  0.3910 -0.7279 -0.3790
  769MOL0     H 1505   3.707   7.929   3.179 -1.1830  2.0725 -2.1742
  769MOL0     H 1506   3.871   8.331   3.166  2.7088  0.0127  1.4494
  769MOL0     H 1507   3.044   7.951   3.223 -1.8383  0.7714 -1.0301
  769MOL0     H 1508   2.827   8.000   3.285  1.2920 -3.7121 -0.6095
  770MOL0     O 1509   3.153   2.173   1.757 -0.4574  0.1150  0.3433
  770MOL0     C 1510   3.146   2.108   1.655  0.3721 -0.2315 -0.1483
  770MOL0     O 1511   3.205   2.133   1.531 -0.1242  0.3097 -0.5091
  770MOL0     C 1512   3.312   2.211   1.511  0.1161 -0.3626 -0.0098
  770MOL0     C 1513   3.415   2.201   1.597 -0.7830 -0.8370  0.0800
  770MOL0     C 1514   3.527   2.277   1.589  0.4026 -0.3481  0.5090
  770MOL0     C 1515   3.548   2.365   1.467  0.0170  0.1643  0.0908
  770MOL0     O 1516   3.664   2.445   1.458  0.0168 -0.1591  0.5896
  770MOL0     C 1517   3.683   2.514   1.327 -0.1601 -0.0458 -0.5518
  770MOL0     C 1518   3.810   2.590   1.335  0.0531  0.0813 -0.7232
  770MOL0     C 1519   3.775   2.731   1.389 -0.0191 -0.3528  0.2411
  770MOL0     C 1520   3.679   2.810   1.297 -0.2268 -0.4123  0.4200
  770MOL0     C 1521   3.702   2.964   1.300 -0.2576  0.6203 -0.1638
  770MOL0     C 1522   3.610   3.051   1.212 -0.1999 -0.5414 -0.6388
  770MOL0     C 1523   3.644   3.196   1.217  0.0105  0.0658 -0.5081
  770MOL0     C 1524   3.789   3.230   1.187 -1.0363 -0.0975 -0.6026
  770MOL0     N 1525   3.833   3.181   1.063 -0.6025  0.5940 -0.8409
  770MOL0     C 1526   3.949   3.097   1.059  0.1759  0.4174 -0.5049
  770MOL0     C 1527   4.015   3.138   0.955  0.4644  0.3274  0.3204
  770MOL0     C 1528   4.154   3.092   0.915  0.6882 -0.6658 -0.5123
  770MOL0     C 1529   4.264   3.191   0.972 -0.0895  1.1418 -0.0212
  770MOL0     C 1530   4.246   3.342   0.944 -0.4112 -0.3054 -0.5647
  770MOL0     C 1531   4.211   3.380   0.801 -0.9323 -0.3667  0.6411
  770MOL0     O 1532   4.228   3.520   0.784 -0.4891  0.3796 -0.4514
  770MOL0     C 1533   4.138   3.608   0.838  0.0209  0.7628 -0.6375
  770MOL0     C 1534   4.013   3.578   0.889  0.6062 -0.7667 -0.2818
  770MOL0     C 1535   3.942   3.680   0.942  0.5861  0.6852  0.5560
  770MOL0     C 1536   3.980   3.817   0.938 -0.0455 -0.0504 -0.6455
  770MOL0     C 1537   3.918   3.921   1.026  0.1566  0.2489  0.7495
  770MOL0     O 1538   3.808   3.890   1.096  0.9062  0.2761  0.0397
  770MOL0     C 1539   3.756   3.996   1.164  0.3281  0.1450 -0.8968
  770MOL0     C 1540   3.838   4.058   1.263  0.0934  0.8800 -0.9586
  770MOL0     C 1541   3.789   4.174   1.325  0.6264 -0.2728 -0.4138
  770MOL0     C 1542   3.666   4.237   1.295  0.4877  0.7209 -1.2257
  770MOL0     O 1543   3.638   4.355   1.350  0.1178  0.3903 -0.4866
  770MOL0     C 1544   3.534   4.434   1.301 -0.6026 -0.5413 -0.6358
  770MOL0     C 1545   3.476   4.539   1.404 -0.2075  0.1795  0.0049
  770MOL0     C 1546   3.394   4.461   1.515  1.1895 -0.2106  0.0861
  770MOL0     C 1547   3.255   4.394   1.467 -1.2620  0.2867 -0.4564
  770MOL0     C 1548   3.165   4.511   1.441 -0.0289  0.0525 -0.3931
  770MOL0     C 1549   3.031   4.468   1.394 -0.5722  0.4953 -0.1639
  770MOL0     C 1550   2.926   4.579   1.381  0.6767  0.5829 -0.3944
  770MOL0     C 1551   2.797   4.523   1.439 -0.0063 -0.4360  0.0718
  770MOL0    Cl 1552   2.769   4.375   1.339  0.7761  0.0752 -0.3012
  770MOL0     C 1553   3.580   4.164   1.204 -0.0632 -0.2468  0.4663
  770MOL0     C 1554   3.625   4.039   1.148 -0.5347  0.0922  0.6019
  770MOL0     O 1555   3.960   4.035   1.015  0.0481  0.7331  0.0220
  770MOL0     C 1556   4.098   3.847   0.871  0.3767  0.0999 -1.0370
  770MOL0     C 1557   4.180   3.741   0.825  0.4300  0.8574  0.4570
  770MOL0     N 1558   3.923   3.207   0.878 -0.4602  0.5905  0.2826
  770MOL0     N 1559   3.827   3.243   0.942  0.3996  0.0372  0.5936
  770MOL0     C 1560   3.441   2.358   1.373 -0.3174 -0.4566 -0.3135
  770MOL0     C 1561   3.324   2.289   1.398 -0.0514 -0.0638 -0.4751
  770MOL0     C 1562   3.045   1.999   1.650  1.2306  0.2187 -0.0203
  770MOL0     C 1563   2.933   1.995   1.729 -0.2932  0.6425  0.3710
  770MOL0     C 1564   2.831   1.900   1.710  0.3912 -0.0364 -0.7997
  770MOL0     C 1565   2.844   1.798   1.616 -0.1870 -0.1711 -0.1310
  770MOL0     O 1566   2.752   1.703   1.600  0.6480  0.2190  0.1258
  770MOL0     C 1567   2.629   1.715   1.679 -0.5393  0.0072  0.2592
  770MOL0     C 1568   2.535   1.611   1.623  0.4040 -0.5982 -0.0517
  770MOL0     C 1569   2.494   1.629   1.478 -0.8617  0.1174 -0.8668
  770MOL0     C 1570   2.368   1.543   1.433 -0.8900 -0.3381  0.3620
  770MOL0     C 1571   2.244   1.593   1.490  0.6600 -0.8657 -0.2030
  770MOL0     C 1572   2.133   1.633   1.532 -0.5592  0.5652 -0.0164
  770MOL0     C 1573   2.960   1.795   1.538  0.3463 -0.1536 -0.2773
  770MOL0     C 1574   3.058   1.891   1.555  0.8548 -0.4504  0.1399
  770MOL0     H 1575   3.400   2.130   1.678  2.3444 -2.7873 -0.8787
  770MOL0     H 1576   3.609   2.283   1.660  1.1998  0.7676 -0.4806
  770MOL0     H 1577   3.592   2.573   1.311  0.1528  0.1578 -1.7107
  770MOL0     H 1578   3.694   2.431   1.257  2.1985 -0.1752 -0.1255
  770MOL0     H 1579   3.859   2.602   1.238 -1.0064 -4.4984 -2.0663
  770MOL0     H 1580   3.877   2.540   1.406 -0.5993  1.0827  0.6419
  770MOL0     H 1581   3.873   2.778   1.400  0.7933 -2.1230  1.0084
  770MOL0     H 1582   3.734   2.720   1.489 -0.7464  2.0697  0.2773
  770MOL0     H 1583   3.702   2.778   1.196  0.3371  3.8651 -1.0262
  770MOL0     H 1584   3.574   2.789   1.321 -0.1367 -2.9508 -1.0832
  770MOL0     H 1585   3.803   2.983   1.261  0.1922 -0.3057  0.5084
  770MOL0     H 1586   3.714   2.996   1.404 -2.2356  1.2384 -0.0902
  770MOL0     H 1587   3.505   3.037   1.241  0.4910 -1.4553  1.6694
  770MOL0     H 1588   3.621   2.995   1.119 -1.5231 -4.1587  1.1919
  770MOL0     H 1589   3.579   3.243   1.144 -1.3866  0.0536  0.6856
  770MOL0     H 1590   3.619   3.227   1.319 -2.1893 -2.1532 -0.2917
  770MOL0     H 1591   3.847   3.186   1.269  0.6358 -1.8134 -2.6076
  770MOL0     H 1592   3.800   3.339   1.191  0.5938 -0.0882 -2.9865
  770MOL0     H 1593   3.989   3.042   1.144 -0.3466  0.5605 -0.1627
  770MOL0     H 1594   4.150   3.096   0.806  1.6288 -1.1651 -0.5802
  770MOL0     H 1595   4.165   2.988   0.948 -1.1231 -0.5359  0.6605
  770MOL0     H 1596   4.362   3.162   0.932 -0.8287 -0.9623 -0.4217
  770MOL0     H 1597   4.268   3.183   1.081  1.9713 -2.9309 -0.2005
  770MOL0     H 1598   4.165   3.380   1.007  0.8249  3.3824 -0.9299
  770MOL0     H 1599   4.338   3.395   0.970 -0.9812  0.3479  0.1600
  770MOL0     H 1600   4.111   3.344   0.775 -1.0946  1.2996 -1.2741
  770MOL0     H 1601   4.284   3.323   0.742 -2.9374 -2.5079  0.0981
  770MOL0     H 1602   3.989   3.474   0.907  0.3885 -0.3700  2.0635
  770MOL0     H 1603   3.854   3.659   1.002  1.4149  0.0545  1.6094
  770MOL0     H 1604   3.937   4.021   1.287 -0.4596 -0.0557 -0.0544
  770MOL0     H 1605   3.837   4.235   1.401 -0.7098  0.5319 -0.1634
  770MOL0     H 1606   3.448   4.371   1.275  0.0303 -2.3441  1.3950
  770MOL0     H 1607   3.566   4.483   1.209  0.9953  0.5681  0.4570
  770MOL0     H 1608   3.412   4.605   1.344 -0.1599 -0.4163 -0.7236
  770MOL0     H 1609   3.555   4.595   1.454  1.1013 -2.7120  1.3900
  770MOL0     H 1610   3.377   4.531   1.597  2.5212 -0.8468  0.9571
  770MOL0     H 1611   3.448   4.378   1.562  0.4024 -1.1807 -0.6874
  770MOL0     H 1612   3.276   4.334   1.377  4.5090  1.1386 -0.0461
  770MOL0     H 1613   3.199   4.330   1.535  0.5705 -1.6811 -0.7165
  770MOL0     H 1614   3.202   4.589   1.374 -0.0445  0.3013 -0.1114
  770MOL0     H 1615   3.152   4.565   1.536  1.7957 -2.9487  1.7399
  770MOL0     H 1616   2.995   4.402   1.473 -0.2562  0.5381  0.0203
  770MOL0     H 1617   3.041   4.404   1.306  1.2082 -0.5538  0.7497
  770MOL0     H 1618   2.942   4.677   1.427  0.2536  1.1509 -1.4306
  770MOL0     H 1619   2.906   4.597   1.275 -3.1058 -0.9544 -0.1209
  770MOL0     H 1620   2.720   4.600   1.434 -0.3216 -0.6763  1.0469
  770MOL0     H 1621   2.818   4.495   1.542 -1.5528  0.4560  0.6508
  770MOL0     H 1622   3.485   4.205   1.169 -0.4708  0.3969  2.1755
  770MOL0     H 1623   3.557   3.984   1.084 -0.9299  0.8613  0.3426
  770MOL0     H 1624   4.141   3.946   0.858 -0.5882  0.4886 -1.4031
  770MOL0     H 1625   4.281   3.753   0.788 -0.0805 -0.5546 -1.5658
  770MOL0     H 1626   3.442   2.418   1.283 -1.2247 -0.6064 -0.4323
  770MOL0     H 1627   3.247   2.300   1.322 -0.0179 -1.3277 -0.7117
  770MOL0     H 1628   2.924   2.075   1.802 -0.7076  1.1446 -0.2270
  770MOL0     H 1629   2.743   1.896   1.774  0.8051 -1.5125 -0.2780
  770MOL0     H 1630   2.584   1.813   1.659 -1.6322 -1.0921 -3.3637
  770MOL0     H 1631   2.635   1.706   1.788  0.1358 -3.6554  0.0197
  770MOL0     H 1632   2.581   1.515   1.646  0.0768 -1.1879 -1.7087
  770MOL0     H 1633   2.444   1.618   1.684 -0.4440  1.7110 -1.4385
  770MOL0     H 1634   2.581   1.607   1.416 -2.1988 -1.8772 -2.1585
  770MOL0     H 1635   2.466   1.735   1.479 -1.7061  0.0005  3.0603
  770MOL0     H 1636   2.361   1.550   1.324  0.4302  0.0332  0.2810
  770MOL0     H 1637   2.371   1.435   1.447  0.0070 -0.2759  0.7018
  770MOL0     H 1638   2.037   1.664   1.567 -0.2285  1.0792  0.4541
  770MOL0     H 1639   2.953   1.716   1.463 -0.6632  1.7448 -2.3144
  770MOL0     H 1640   3.140   1.879   1.485  1.7729 -3.0969  1.5487
  771MOL0     O 1641   1.785   8.510   7.095  0.6103  0.3422 -0.5658
  771MOL0     C 1642   1.684   8.500   7.169  0.0190 -0.5806 -0.4480
  771MOL0     O 1643   1.650   8.588   7.271  0.4405  0.2236  0.1562
  771MOL0     C 1644   1.737   8.695   7.308 -0.3621  0.0994 -0.3549
  771MOL0     C 1645   1.667   8.781   7.389 -0.7754  0.2167 -0.1520
  771MOL0     C 1646   1.724   8.907   7.428 -0.3031 -0.2852  0.0214
  771MOL0     C 1647   1.847   8.940   7.370  0.7822 -0.5995 -0.2157
  771MOL0     O 1648   1.917   9.064   7.377  0.5721 -0.2256 -0.4996
  771MOL0     C 1649   1.859   9.170   7.457 -0.5443  0.2387  0.0666
  771MOL0     C 1650   1.943   9.299   7.443  0.3098 -0.2996  0.6131
  771MOL0     C 1651   1.987   9.338   7.583  0.0254 -0.4138  1.0809
  771MOL0     C 1652   2.062   9.473   7.582 -0.5395  0.0497  1.5271
  771MOL0     C 1653   1.987   9.603   7.593  0.8623 -0.0394  0.7163
  771MOL0     C 1654   2.064   9.735   7.536  0.1130  0.2564  0.5354
  771MOL0     C 1655   1.978   9.869   7.526 -0.4533  0.5830  0.4497
  771MOL0     C 1656   2.055   9.987   7.473  0.5495  0.1703  0.3426
  771MOL0     N 1657   1.979  10.071   7.379 -0.7283 -0.4600  0.3547
  771MOL0     C 1658   1.939  10.195   7.402  0.0031 -0.5378  0.0222
  771MOL0     C 1659   1.836  10.215   7.313  0.2000 -2.1403  0.0760
  771MOL0     C 1660   1.770  10.354   7.281  0.0206 -0.2227  0.2564
  771MOL0     C 1661   1.618  10.335   7.235 -1.3897  0.1143 -0.8142
  771MOL0     C 1662   1.534  10.302   7.357 -0.5920 -1.1975  0.2436
  771MOL0     C 1663   1.574  10.184   7.443 -0.2885 -0.1712  0.1033
  771MOL0     O 1664   1.472  10.173   7.538 -0.3040 -0.0305  0.7282
  771MOL0     C 1665   1.488  10.073   7.638  0.2350  0.3429 -0.0059
  771MOL0     C 1666   1.411  10.092   7.755  0.7217 -0.2083  0.2534
  771MOL0     C 1667   1.403   9.999   7.858  0.7942  0.5202 -0.6374
  771MOL0     C 1668   1.491   9.888   7.863  0.5647  0.2392 -0.2944
  771MOL0     C 1669   1.494   9.794   7.972  0.2963 -0.8379 -0.0721
  771MOL0     O 1670   1.589   9.701   7.968 -0.3147 -0.2970  0.0880
  771MOL0     C 1671   1.623   9.620   8.081  0.1630  0.1442  0.1051
  771MOL0     C 1672   1.642   9.475   8.081  0.6976  0.0582  0.1972
  771MOL0     C 1673   1.693   9.409   8.202 -0.2420 -0.2284  0.0705
  771MOL0     C 1674   1.704   9.473   8.323  1.4979 -0.6307  0.0166
  771MOL0     O 1675   1.756   9.406   8.433  0.3555 -0.8007 -0.1462
  771MOL0     C 1676   1.666   9.310   8.482  0.1920 -0.3194 -0.4431
  771MOL0     C 1677   1.666   9.320   8.636 -0.6165  0.5725 -0.4824
  771MOL0     C 1678   1.795   9.248   8.696  0.1061  0.9146  0.3450
  771MOL0     C 1679   1.805   9.239   8.855  0.1881 -0.8344  0.1876
  771MOL0     C 1680   1.874   9.369   8.912  0.3501  0.6370  0.2216
  771MOL0     C 1681   1.776   9.458   8.988 -0.1183  0.0378 -0.2071
  771MOL0     C 1682   1.812   9.604   9.007 -1.0231  0.9686 -0.1558
  771MOL0     C 1683   1.962   9.627   9.061  0.1046  0.5986 -0.8273
  771MOL0    Cl 1684   2.085   9.607   8.923 -0.4077 -0.1653  0.6912
  771MOL0     C 1685   1.692   9.616   8.315  0.4596  0.9914 -0.1015
  771MOL0     C 1686   1.655   9.685   8.199  0.4010 -0.0515 -0.4110
  771MOL0     O 1687   1.410   9.802   8.061  0.1179  0.3804  0.7658
  771MOL0     C 1688   1.570   9.870   7.743  0.2745 -0.6089  0.6874
  771MOL0     C 1689   1.562   9.959   7.637  0.7444  0.3289  0.3421
  771MOL0     N 1690   1.823  10.109   7.235 -0.2729  0.6068 -0.2949
  771MOL0     N 1691   1.903  10.018   7.282  0.1284 -0.4084 -0.6576
  771MOL0     C 1692   1.915   8.853   7.301  0.3229 -0.1141  0.0275
  771MOL0     C 1693   1.868   8.727   7.267  0.2696 -0.2928  0.2937
  771MOL0     C 1694   1.598   8.377   7.162  0.4787 -0.3620 -0.3386
  771MOL0     C 1695   1.464   8.383   7.200  0.1062  0.2510  0.9730
  771MOL0     C 1696   1.380   8.264   7.189 -1.5911  0.1065  0.0004
  771MOL0     C 1697   1.443   8.141   7.150  0.0144  0.5226 -0.4876
  771MOL0     O 1698   1.362   8.030   7.159 -0.8233 -0.3572  0.4001
  771MOL0     C 1699   1.411   7.897   7.138 -0.6894 -0.8238  0.3596
  771MOL0     C 1700   1.297   7.799   7.166 -0.1333  0.5724  1.4184
  771MOL0     C 1701   1.228   7.817   7.300  0.2366  0.1075  0.2246
  771MOL0     C 1702   1.318   7.799   7.419 -0.0642  0.4551 -0.8888
  771MOL0     C 1703   1.236   7.761   7.537 -0.0303  0.0276 -0.2485
  771MOL0     C 1704   1.160   7.748   7.632 -0.0811 -0.0592 -0.4201
  771MOL0     C 1705   1.580   8.141   7.115  0.0963  0.2967 -0.6165
  771MOL0     C 1706   1.661   8.256   7.127  0.2343 -0.4841  1.0381
  771MOL0     H 1707   1.564   8.756   7.411 -0.8857  0.3524 -0.5037
  771MOL0     H 1708   1.653   8.967   7.484 -1.8908 -0.9961 -1.1413
  771MOL0     H 1709   1.858   9.133   7.560 -0.4465 -0.6630 -0.2494
  771MOL0     H 1710   1.757   9.199   7.426  0.3144  0.6418 -2.6984
  771MOL0     H 1711   1.886   9.386   7.410 -2.7427 -2.1810  0.5422
  771MOL0     H 1712   2.028   9.288   7.376  1.8472  3.1658  1.7581
  771MOL0     H 1713   2.056   9.259   7.613 -0.5210 -1.0984  0.5746
  771MOL0     H 1714   1.906   9.361   7.653  0.0348 -0.4847  1.1161
  771MOL0     H 1715   2.138   9.487   7.659  0.2723  2.1621  0.4271
  771MOL0     H 1716   2.111   9.466   7.484 -0.5167 -0.6567  1.5883
  771MOL0     H 1717   1.963   9.612   7.699  1.4182 -2.1735  1.0716
  771MOL0     H 1718   1.897   9.597   7.531 -0.0931  1.6371  1.8560
  771MOL0     H 1719   2.111   9.712   7.439 -1.1466 -1.0713  0.2106
  771MOL0     H 1720   2.148   9.754   7.603  0.2334  2.1345 -0.0901
  771MOL0     H 1721   1.888   9.846   7.468 -0.3234 -1.1272  0.8751
  771MOL0     H 1722   1.948   9.897   7.628 -3.1894 -0.6844  0.0802
  771MOL0     H 1723   2.142   9.956   7.415  0.4733  0.7979 -0.1270
  771MOL0     H 1724   2.084  10.047   7.560 -1.5128  0.1958  1.0793
  771MOL0     H 1725   1.976  10.265   7.477  0.5931  0.6778 -1.3501
  771MOL0     H 1726   1.824  10.388   7.191  0.0278 -1.3546 -0.1761
  771MOL0     H 1727   1.779  10.433   7.357 -1.1543  0.4524 -0.2798
  771MOL0     H 1728   1.615  10.247   7.169  2.3420 -0.9051  0.1787
  771MOL0     H 1729   1.577  10.420   7.178 -0.8293 -1.4304 -3.7472
  771MOL0     H 1730   1.525  10.390   7.422 -1.6104  0.5189 -2.0781
  771MOL0     H 1731   1.437  10.296   7.306 -0.3978 -0.2809 -0.2570
  771MOL0     H 1732   1.668  10.205   7.494 -0.2159  1.5493 -0.6595
  771MOL0     H 1733   1.592  10.091   7.388 -2.2038 -3.1817  4.0836
  771MOL0     H 1734   1.346  10.178   7.744  0.8381 -0.0937  0.4557
  771MOL0     H 1735   1.349  10.016   7.951 -1.8758  4.3818 -2.6603
  771MOL0     H 1736   1.607   9.422   7.994 -1.4169  1.2688  0.2576
  771MOL0     H 1737   1.717   9.304   8.205 -0.4140 -0.2555  0.4825
  771MOL0     H 1738   1.704   9.210   8.459 -0.2899  0.2021 -4.0324
  771MOL0     H 1739   1.566   9.324   8.440 -0.3320 -2.4246  0.0317
  771MOL0     H 1740   1.577   9.272   8.679 -0.6719  0.4934 -0.6819
  771MOL0     H 1741   1.680   9.424   8.665  2.4896  0.8528 -2.4675
  771MOL0     H 1742   1.887   9.288   8.652  0.0818  3.5127  2.4085
  771MOL0     H 1743   1.797   9.145   8.660  1.0775  1.5520 -1.5180
  771MOL0     H 1744   1.704   9.220   8.893  0.1114 -0.8090 -0.0001
  771MOL0     H 1745   1.869   9.154   8.881  0.0008 -0.4415  2.0714
  771MOL0     H 1746   1.920   9.430   8.833 -0.4392  2.7356  1.2997
  771MOL0     H 1747   1.962   9.347   8.974  1.8993  3.0229 -0.9720
  771MOL0     H 1748   1.757   9.411   9.085 -0.9159 -1.7723 -1.2016
  771MOL0     H 1749   1.683   9.455   8.931 -0.9374 -2.6978  1.1262
  771MOL0     H 1750   1.803   9.678   8.927  0.1516  0.6184 -0.6302
  771MOL0     H 1751   1.742   9.632   9.086  0.7391 -0.6392  2.1063
  771MOL0     H 1752   1.961   9.558   9.145 -3.8259 -2.2507 -2.8539
  771MOL0     H 1753   1.968   9.726   9.106 -0.5034  0.4841 -0.4846
  771MOL0     H 1754   1.720   9.670   8.405  2.2164 -0.9190  0.5984
  771MOL0     H 1755   1.634   9.791   8.185 -3.2239 -0.7967 -1.6747
  771MOL0     H 1756   1.636   9.785   7.726  0.2703 -0.3384 -0.8503
  771MOL0     H 1757   1.618   9.939   7.547 -2.0455 -0.0567 -1.4315
  771MOL0     H 1758   2.012   8.886   7.264  0.8032 -2.3403 -0.9119
  771MOL0     H 1759   1.930   8.661   7.207  2.3949  0.6739  1.3237
  771MOL0     H 1760   1.413   8.477   7.216  1.1545  1.2167 -1.0241
  771MOL0     H 1761   1.275   8.265   7.219 -1.1993 -0.1892  1.4296
  771MOL0     H 1762   1.498   7.878   7.201  0.1000  2.1323  0.2854
  771MOL0     H 1763   1.438   7.889   7.032 -1.0909 -0.2051  0.2048
  771MOL0     H 1764   1.215   7.827   7.098 -0.8861  0.3947  2.2376
  771MOL0     H 1765   1.322   7.693   7.159 -2.6880 -0.0377 -0.0074
  771MOL0     H 1766   1.155   7.735   7.310  0.7236 -0.7177 -2.3477
  771MOL0     H 1767   1.180   7.914   7.309  3.2827  1.9258 -1.6088
  771MOL0     H 1768   1.381   7.711   7.402 -0.5824 -0.0421 -0.3172
  771MOL0     H 1769   1.379   7.885   7.449 -0.1006  0.0713  0.3699
  771MOL0     H 1770   1.087   7.741   7.710 -0.2113 -0.9650 -0.6002
  771MOL0     H 1771   1.635   8.048   7.104  0.4270 -0.3358  4.1504
  771MOL0     H 1772   1.767   8.253   7.103 -0.0957 -2.3038 -0.5183
  772MOL0     O 1773   4.569   9.769   6.253  0.0080 -0.2775  0.1332
  772MOL0     C 1774   4.686   9.801   6.257  0.0014 -0.1920  0.9203
  772MOL0     O 1775   4.745   9.887   6.349  0.2021 -0.3390 -0.8290
  772MOL0     C 1776   4.659   9.925   6.448 -0.6095  0.4620  0.7689
  772MOL0     C 1777   4.619  10.056   6.442  0.2347  0.5148  0.1601
  772MOL0     C 1778   4.520  10.090   6.538  0.1700 -0.1636 -0.7601
  772MOL0     C 1779   4.465  10.003   6.638  1.3320 -0.5547  0.8985
  772MOL0     O 1780   4.376  10.033   6.734  0.4413  0.1992  0.1198
  772MOL0     C 1781   4.311  10.152   6.716  0.1184  0.0504  0.0409
  772MOL0     C 1782   4.186  10.159   6.808  0.7086 -0.1904  0.0553
  772MOL0     C 1783   4.118  10.296   6.780 -0.6014 -0.6628  0.3717
  772MOL0     C 1784   3.987  10.312   6.857  0.0406 -0.6873 -0.4708
  772MOL0     C 1785   3.936  10.459   6.849  0.6166 -0.1117 -0.3789
  772MOL0     C 1786   3.812  10.476   6.931 -0.7206  0.5461  0.5725
  772MOL0     C 1787   3.790  10.610   6.990 -0.2336  0.3265  0.6441
  772MOL0     C 1788   3.653  10.627   7.046  0.6898 -0.2857  0.0870
  772MOL0     N 1789   3.621  10.565   7.179  0.0573 -0.2936  0.4237
  772MOL0     C 1790   3.676  10.451   7.240  0.4294  0.1648  0.0412
  772MOL0     C 1791   3.623  10.442   7.358 -0.0444  0.5515 -0.0987
  772MOL0     C 1792   3.673  10.340   7.467  1.1154  0.0421 -0.2938
  772MOL0     C 1793   3.557  10.271   7.551 -0.8090  0.2650 -0.5780
  772MOL0     C 1794   3.459  10.192   7.462 -0.4117 -0.4543 -0.4340
  772MOL0     C 1795   3.365  10.106   7.543 -0.7968  0.7678 -0.3949
  772MOL0     O 1796   3.236  10.114   7.467  0.9562 -0.4403  0.2724
  772MOL0     C 1797   3.130  10.035   7.526 -1.3107  0.0813  0.1839
  772MOL0     C 1798   3.146   9.958   7.641  0.0250 -0.1864 -0.4371
  772MOL0     C 1799   3.033   9.888   7.683  0.1760 -0.3242  0.2507
  772MOL0     C 1800   2.906   9.909   7.621 -0.3410  0.2550  0.1308
  772MOL0     C 1801   2.779   9.844   7.680  0.7910  0.2215  0.0331
  772MOL0     O 1802   2.653   9.877   7.621  0.2672 -0.8147 -0.4761
  772MOL0     C 1803   2.550   9.818   7.686  0.0003  0.1117 -0.4602
  772MOL0     C 1804   2.464   9.882   7.776  0.3427 -0.1235 -0.1618
  772MOL0     C 1805   2.348   9.816   7.836  1.0271 -0.6228 -0.8440
  772MOL0     C 1806   2.329   9.682   7.806  0.0247 -0.3071  0.2977
  772MOL0     O 1807   2.226   9.611   7.862 -1.2008 -0.4279 -0.2705
  772MOL0     C 1808   2.210   9.628   8.003  0.5852  0.3499  0.6458
  772MOL0     C 1809   2.056   9.601   8.025 -0.0493 -0.1090 -0.6332
  772MOL0     C 1810   1.981   9.732   7.992 -0.8857 -0.2921  0.1074
  772MOL0     C 1811   1.987   9.840   8.099 -0.2200  0.7439 -0.4731
  772MOL0     C 1812   1.894   9.952   8.061  0.1124 -0.2962 -1.3410
  772MOL0     C 1813   1.906   9.988   7.912 -0.1884 -0.3469 -0.4174
  772MOL0     C 1814   1.829  10.122   7.886  0.1998 -0.4883  0.2506
  772MOL0     C 1815   1.883  10.172   7.754  0.4335 -0.0085  0.2114
  772MOL0    Cl 1816   2.062  10.214   7.776 -0.7564  0.0043 -0.1005
  772MOL0     C 1817   2.414   9.611   7.721 -1.3342 -1.1671 -0.9045
  772MOL0     C 1818   2.516   9.688   7.658 -0.0859  0.2006  0.3850
  772MOL0     O 1819   2.795   9.782   7.789 -0.4494 -0.7153  0.5450
  772MOL0     C 1820   2.893   9.979   7.503 -0.8328  0.0062  0.2541
  772MOL0     C 1821   3.014  10.041   7.455 -0.1540  0.4934  0.2357
  772MOL0     N 1822   3.527  10.537   7.367  0.8996  0.1937 -0.8432
  772MOL0     N 1823   3.509  10.604   7.262 -0.7295 -0.2593  0.1491
  772MOL0     C 1824   4.505   9.872   6.624 -0.5401 -0.7077 -0.5839
  772MOL0     C 1825   4.601   9.823   6.529 -0.4482 -0.9407 -1.4324
  772MOL0     C 1826   4.773   9.777   6.140  0.2462 -1.2297  0.3076
  772MOL0     C 1827   4.890   9.857   6.121 -0.1007 -0.7241  0.1503
  772MOL0     C 1828   4.971   9.832   6.010 -0.5431 -0.6597  0.0499
  772MOL0     C 1829   4.933   9.727   5.926  0.2120  0.0058  0.1287
  772MOL0     O 1830   5.006   9.683   5.817  0.3518 -0.0941 -0.8267
  772MOL0     C 1831   5.126   9.741   5.774 -0.3463 -0.0383  0.4400
  772MOL0     C 1832   5.249   9.726   5.865  0.7950 -0.1313  0.2025
  772MOL0     C 1833   5.300   9.578   5.871  0.2656  0.0238  1.4506
  772MOL0     C 1834   5.426   9.570   5.958  0.3027 -0.8231  0.0061
  772MOL0     C 1835   5.477   9.429   5.982  0.5424 -0.4369 -0.0538
  772MOL0     C 1836   5.512   9.313   5.987  0.0632  0.6620  0.4130
  772MOL0     C 1837   4.820   9.656   5.944 -0.0365  0.0837  0.4017
  772MOL0     C 1838   4.740   9.679   6.054  0.1997  1.7640  0.5523
  772MOL0     H 1839   4.663  10.116   6.363 -0.0260  0.8166  0.2393
  772MOL0     H 1840   4.500  10.196   6.549  1.9191  0.2303 -0.9942
  772MOL0     H 1841   4.287  10.158   6.609  0.5107 -1.0649 -0.1282
  772MOL0     H 1842   4.363  10.246   6.733 -1.0653  0.6822  0.2476
  772MOL0     H 1843   4.213  10.142   6.912 -2.9657 -1.6668  0.9273
  772MOL0     H 1844   4.120  10.074   6.786 -0.0862  0.0323  1.4732
  772MOL0     H 1845   4.106  10.326   6.676 -1.3583 -0.8111  0.4094
  772MOL0     H 1846   4.188  10.365   6.827 -0.7452  1.7675 -2.6278
  772MOL0     H 1847   3.909  10.247   6.818 -1.2132  0.7281 -0.4125
  772MOL0     H 1848   4.009  10.278   6.958 -2.4983 -2.4890 -0.4373
  772MOL0     H 1849   3.916  10.486   6.745  0.7602  0.2253 -0.3183
  772MOL0     H 1850   4.011  10.521   6.899 -0.5891  0.8106  0.3222
  772MOL0     H 1851   3.816  10.407   7.016 -1.3844  2.0249  1.8463
  772MOL0     H 1852   3.731  10.442   6.865 -0.5043  1.3845 -0.1494
  772MOL0     H 1853   3.868  10.620   7.066  2.5624  0.4821 -2.0569
  772MOL0     H 1854   3.812  10.688   6.916 -2.3197  2.1575  1.7976
  772MOL0     H 1855   3.588  10.581   6.971 -2.0102  1.6868  1.0434
  772MOL0     H 1856   3.617  10.729   7.060  1.8281  0.1222  0.1037
  772MOL0     H 1857   3.763  10.396   7.206 -0.4032 -1.0644 -0.1898
  772MOL0     H 1858   3.739  10.393   7.536  0.4530  0.0157  0.3786
  772MOL0     H 1859   3.745  10.268   7.427 -0.3699 -0.8503 -1.4977
  772MOL0     H 1860   3.502  10.337   7.619 -2.1120 -0.3208 -1.0326
  772MOL0     H 1861   3.603  10.189   7.607 -1.2770  1.2503  1.3466
  772MOL0     H 1862   3.410  10.270   7.403 -1.7194 -1.1057 -0.2483
  772MOL0     H 1863   3.523  10.131   7.398 -0.2821 -3.1481  2.0585
  772MOL0     H 1864   3.353  10.137   7.647 -1.9279 -4.4437  1.3231
  772MOL0     H 1865   3.402  10.003   7.547 -1.6357  0.4950  1.1243
  772MOL0     H 1866   3.237   9.935   7.696  0.9638 -2.5713 -2.7228
  772MOL0     H 1867   3.041   9.819   7.766  0.1155  0.0439  0.5667
  772MOL0     H 1868   2.482   9.987   7.795 -0.4427  0.0409 -0.2869
  772MOL0     H 1869   2.283   9.868   7.905  1.3287 -3.0432  1.4136
  772MOL0     H 1870   2.255   9.717   8.048  0.7983 -0.6399  2.4521
  772MOL0     H 1871   2.264   9.542   8.044  2.3080  1.5595  1.0075
  772MOL0     H 1872   2.046   9.582   8.133 -1.8599  1.1334 -0.5479
  772MOL0     H 1873   2.002   9.516   7.982 -0.0565 -0.6208  0.3450
  772MOL0     H 1874   1.877   9.703   7.970 -0.1599 -0.0210 -4.7893
  772MOL0     H 1875   2.021   9.773   7.899  0.3483 -1.4315  0.1115
  772MOL0     H 1876   1.964   9.795   8.196  2.8703 -2.7093 -1.1105
  772MOL0     H 1877   2.092   9.873   8.102 -0.0874  0.3264 -0.5006
  772MOL0     H 1878   1.919  10.037   8.126  0.1003 -2.1106  1.1760
  772MOL0     H 1879   1.792   9.917   8.077 -0.5235  1.7060 -0.6500
  772MOL0     H 1880   1.866   9.908   7.850 -2.0807 -0.9112  1.3860
  772MOL0     H 1881   2.014   9.999   7.901 -0.3892 -0.8404 -3.8249
  772MOL0     H 1882   1.723  10.098   7.878 -0.1679  1.1762 -0.5370
  772MOL0     H 1883   1.850  10.195   7.965  4.2204 -0.2170 -0.7935
  772MOL0     H 1884   1.829  10.259   7.716 -0.0231 -2.2033 -4.9579
  772MOL0     H 1885   1.872  10.096   7.676  0.8341  1.8934 -1.7715
  772MOL0     H 1886   2.399   9.508   7.691 -4.1495 -0.8156 -0.9781
  772MOL0     H 1887   2.589   9.646   7.590 -0.5529 -1.0184  0.6108
  772MOL0     H 1888   2.804   9.979   7.442  0.5262 -3.5064 -2.0970
  772MOL0     H 1889   3.010  10.089   7.357 -0.2818 -0.1394 -0.0740
  772MOL0     H 1890   4.456   9.800   6.690  1.4860 -1.5325  0.0943
  772MOL0     H 1891   4.620   9.723   6.494 -1.7188 -1.0869 -1.7628
  772MOL0     H 1892   4.918   9.940   6.186 -1.4939 -0.6999  0.7495
  772MOL0     H 1893   5.047   9.907   5.995  2.1379 -3.4514 -1.6812
  772MOL0     H 1894   5.110   9.847   5.748  0.5689  0.0391  0.1721
  772MOL0     H 1895   5.164   9.696   5.682  2.0927  0.2362  1.2461
  772MOL0     H 1896   5.329   9.791   5.828  0.5123  0.3020  0.3415
  772MOL0     H 1897   5.240   9.768   5.966  0.0016 -1.7061  0.8123
  772MOL0     H 1898   5.336   9.554   5.770  0.1763  0.0129  1.4217
  772MOL0     H 1899   5.224   9.502   5.892  3.2411 -3.8769 -0.6428
  772MOL0     H 1900   5.501   9.621   5.897  0.7240 -3.0335 -1.4552
  772MOL0     H 1901   5.417   9.621   6.055  0.8804 -0.2041 -0.2537
  772MOL0     H 1902   5.552   9.216   6.010  1.4873  1.1215  0.0048
  772MOL0     H 1903   4.806   9.571   5.878  0.6078 -0.8272  1.4096
  772MOL0     H 1904   4.645   9.628   6.063  1.2261 -0.3730  0.1234
  773MOL0     O 1905   5.947   8.436   1.001 -0.1771 -0.1754 -0.0547
  773MOL0     C 1906   5.923   8.452   0.881  0.0736 -0.5878 -0.5022
  773MOL0     O 1907   5.972   8.369   0.779 -0.3433 -0.0659  0.0675
  773MOL0     C 1908   6.055   8.260   0.815  0.0673 -0.6630 -0.6715
  773MOL0     C 1909   6.052   8.150   0.730 -0.8546  0.7709 -0.6284
  773MOL0     C 1910   6.149   8.041   0.749  0.3401 -0.7772  0.5100
  773MOL0     C 1911   6.234   8.036   0.862  0.0114  0.3278 -0.3530
  773MOL0     O 1912   6.306   7.926   0.902  0.1661  0.6580 -0.1958
  773MOL0     C 1913   6.336   7.826   0.802 -0.0577  0.6251 -0.5869
  773MOL0     C 1914   6.438   7.710   0.851 -0.3163  0.6614 -0.5538
  773MOL0     C 1915   6.574   7.761   0.882 -0.4548  0.0349  0.4581
  773MOL0     C 1916   6.667   7.782   0.760 -0.3885  0.0726 -0.2534
  773MOL0     C 1917   6.780   7.878   0.800 -0.0330  0.7985 -1.1902
  773MOL0     C 1918   6.900   7.865   0.712  0.1072 -0.8921  0.2360
  773MOL0     C 1919   7.018   7.963   0.744 -0.0969  0.2325 -0.0424
  773MOL0     C 1920   7.081   7.934   0.890 -0.8080 -0.3847 -0.4423
  773MOL0     N 1921   7.178   7.821   0.883  0.7090 -0.2689 -0.4151
  773MOL0     C 1922   7.311   7.831   0.880  0.0381 -0.2454  0.0997
  773MOL0     C 1923   7.357   7.706   0.847 -0.3250  0.0284  0.6223
  773MOL0     C 1924   7.497   7.671   0.815  0.6923  0.7507  0.3495
  773MOL0     C 1925   7.581   7.709   0.927  0.3495  0.1155 -1.2308
  773MOL0     C 1926   7.720   7.655   0.916  0.1909 -0.6089  0.2132
  773MOL0     C 1927   7.801   7.704   1.041 -0.7277  0.2505 -0.7901
  773MOL0     O 1928   7.948   7.663   1.039 -0.1449  0.6980  0.5337
  773MOL0     C 1929   8.040   7.684   1.140 -0.9585  0.5097 -0.6953
  773MOL0     C 1930   8.013   7.766   1.249  0.3116 -1.1013 -0.2813
  773MOL0     C 1931   8.108   7.801   1.342 -0.4666  0.2083  0.5796
  773MOL0     C 1932   8.244   7.757   1.334 -0.2943 -0.0957 -0.6244
  773MOL0     C 1933   8.341   7.790   1.438  0.4198 -0.1378  0.0793
  773MOL0     O 1934   8.464   7.719   1.427  0.3462 -0.3298 -1.4113
  773MOL0     C 1935   8.563   7.750   1.522  0.7663 -0.0815 -0.6039
  773MOL0     C 1936   8.618   7.654   1.602  0.3447  0.5669  0.3841
  773MOL0     C 1937   8.699   7.685   1.707  0.4228  0.3044 -0.8038
  773MOL0     C 1938   8.755   7.814   1.721  0.1585 -0.2048 -0.1831
  773MOL0     O 1939   8.857   7.864   1.798  0.7382  0.0356  0.5112
  773MOL0     C 1940   8.945   7.760   1.852 -0.6605  0.4105  0.3847
  773MOL0     C 1941   9.054   7.832   1.927 -0.1999  0.2667 -0.1124
  773MOL0     C 1942   9.171   7.745   1.981  0.3660 -0.1463  0.2210
  773MOL0     C 1943   9.291   7.845   2.000  0.0323  0.0371 -0.2412
  773MOL0     C 1944   9.379   7.805   2.110 -0.0518 -0.5103 -0.4292
  773MOL0     C 1945   9.506   7.894   2.128  0.1664  1.1066 -0.5224
  773MOL0     C 1946   9.617   7.847   2.039  0.8605  0.2915  0.7869
  773MOL0     C 1947   9.738   7.933   2.048  0.2829 -0.0392 -0.5253
  773MOL0    Cl 1948   9.877   7.887   1.951 -0.0796 -0.2387  0.8574
  773MOL0     C 1949   8.699   7.915   1.635  0.6791  0.1612  0.5663
  773MOL0     C 1950   8.605   7.879   1.538 -0.5398  0.0728 -0.3167
  773MOL0     O 1951   8.311   7.871   1.527  0.1105 -0.0453  0.4349
  773MOL0     C 1952   8.267   7.676   1.221 -0.3352  0.0748 -1.0090
  773MOL0     C 1953   8.174   7.647   1.124  0.0840  0.6295 -0.3129
  773MOL0     N 1954   7.251   7.618   0.839  0.0452 -0.2228 -0.5691
  773MOL0     N 1955   7.149   7.689   0.879  0.2273 -0.4850 -0.6163
  773MOL0     C 1956   6.224   8.140   0.954 -0.3263 -0.1925 -0.3175
  773MOL0     C 1957   6.151   8.255   0.926 -0.8077 -0.4225  0.5204
  773MOL0     C 1958   5.831   8.561   0.840 -1.1608  0.3913  0.2497
  773MOL0     C 1959   5.750   8.626   0.934 -0.3156  0.6858 -0.2728
  773MOL0     C 1960   5.656   8.729   0.900 -0.5373 -0.0412 -0.0936
  773MOL0     C 1961   5.650   8.768   0.769 -0.5695 -0.2084  0.6055
  773MOL0     O 1962   5.548   8.852   0.716  0.3222  0.6298  1.0576
  773MOL0     C 1963   5.592   8.987   0.686 -0.1444  0.1995 -0.1817
  773MOL0     C 1964   5.480   9.089   0.696  0.4197 -1.0986  0.2745
  773MOL0     C 1965   5.354   9.052   0.609 -0.3984  0.9119 -0.2137
  773MOL0     C 1966   5.262   9.178   0.577 -0.3024  0.6099 -0.5530
  773MOL0     C 1967   5.158   9.139   0.491  0.2329 -0.0716 -0.3546
  773MOL0     C 1968   5.068   9.104   0.414 -0.2645  0.1611 -0.2434
  773MOL0     C 1969   5.729   8.707   0.670 -0.5955 -0.0466 -0.4566
  773MOL0     C 1970   5.826   8.606   0.710 -0.0234  0.0852 -0.4285
  773MOL0     H 1971   5.972   8.153   0.657 -1.3021  0.1713 -0.1771
  773MOL0     H 1972   6.136   7.947   0.696 -0.1835  0.0273 -0.8506
  773MOL0     H 1973   6.385   7.877   0.718  0.6264 -0.3019 -0.7737
  773MOL0     H 1974   6.246   7.774   0.770 -1.2359  1.1807  1.6303
  773MOL0     H 1975   6.449   7.632   0.776 -2.4442  0.9532 -1.2537
  773MOL0     H 1976   6.396   7.669   0.944 -0.4380 -0.2187 -0.9908
  773MOL0     H 1977   6.633   7.680   0.927 -1.1024  0.1098  1.4876
  773MOL0     H 1978   6.562   7.845   0.951 -0.6483 -0.5140  1.1039
  773MOL0     H 1979   6.705   7.682   0.735 -0.4545  0.2626 -1.1195
  773MOL0     H 1980   6.617   7.826   0.674 -2.7587  1.5397  1.7715
  773MOL0     H 1981   6.810   7.857   0.903  0.7188  0.3014 -1.4963
  773MOL0     H 1982   6.734   7.977   0.801 -1.4376  0.1691 -0.7771
  773MOL0     H 1983   6.871   7.889   0.609  1.8127  0.5076  0.0318
  773MOL0     H 1984   6.951   7.769   0.708  0.8146 -0.6166  1.7655
  773MOL0     H 1985   7.103   7.951   0.675  0.9081 -1.2742  1.3886
  773MOL0     H 1986   6.992   8.069   0.735  0.9350  0.5523  0.5244
  773MOL0     H 1987   7.007   7.911   0.968 -1.1976  1.9834 -0.0120
  773MOL0     H 1988   7.144   8.020   0.915 -1.0496  0.3021 -2.0772
  773MOL0     H 1989   7.371   7.921   0.892  0.7610 -0.8757  1.5050
  773MOL0     H 1990   7.534   7.721   0.726  1.0454  0.0648  0.1034
  773MOL0     H 1991   7.510   7.562   0.808  0.5799  0.7826 -0.4747
  773MOL0     H 1992   7.530   7.677   1.018  0.5777  3.4842  0.2492
  773MOL0     H 1993   7.592   7.818   0.923 -1.7432  0.5023  1.3266
  773MOL0     H 1994   7.725   7.546   0.908 -0.0621 -0.7277  1.4430
  773MOL0     H 1995   7.762   7.700   0.826  0.3143  0.2298  0.6801
  773MOL0     H 1996   7.762   7.655   1.131  0.5688  1.8726  0.7176
  773MOL0     H 1997   7.799   7.813   1.044 -0.2042  0.2634 -0.8613
  773MOL0     H 1998   7.911   7.799   1.265  1.0315  0.8073  0.6925
  773MOL0     H 1999   8.086   7.873   1.420  0.9740  1.1885  0.1224
  773MOL0     H 2000   8.594   7.548   1.592  2.0228  0.3068 -1.7769
  773MOL0     H 2001   8.734   7.604   1.769 -0.3218 -0.4112 -1.2971
  773MOL0     H 2002   8.979   7.703   1.765  0.0422  0.4504  0.6272
  773MOL0     H 2003   8.903   7.676   1.908  1.1945  0.5409  2.0792
  773MOL0     H 2004   9.008   7.896   2.003 -1.6242  1.5890 -1.9940
  773MOL0     H 2005   9.106   7.889   1.850  0.6957 -0.4886 -0.0928
  773MOL0     H 2006   9.192   7.658   1.918 -3.3097  0.1695 -1.6676
  773MOL0     H 2007   9.138   7.703   2.076  1.3358  0.3546  0.8033
  773MOL0     H 2008   9.343   7.834   1.905  1.6458 -2.2590  0.8114
  773MOL0     H 2009   9.262   7.947   2.028  0.4068 -0.4209  2.0724
  773MOL0     H 2010   9.408   7.699   2.107  3.2523  0.0892  3.2034
  773MOL0     H 2011   9.327   7.816   2.206 -1.3842 -1.6542 -0.9786
  773MOL0     H 2012   9.533   7.890   2.234 -0.2676  0.0335 -0.4398
  773MOL0     H 2013   9.479   7.999   2.111 -1.5382  0.6225 -1.0215
  773MOL0     H 2014   9.648   7.745   2.066  0.6712 -0.3594 -1.2677
  773MOL0     H 2015   9.573   7.849   1.939 -2.9853  0.5029  2.3108
  773MOL0     H 2016   9.776   7.932   2.151  1.3966 -0.8984 -0.9269
  773MOL0     H 2017   9.713   8.038   2.032  0.1903 -0.2258 -1.7069
  773MOL0     H 2018   8.747   8.012   1.630  1.5161 -0.2154  1.0650
  773MOL0     H 2019   8.568   7.941   1.457 -1.8347  0.1378  0.2909
  773MOL0     H 2020   8.365   7.632   1.206 -1.4861 -2.4280 -1.7373
  773MOL0     H 2021   8.211   7.595   1.036 -0.9586  0.5758 -0.7308
  773MOL0     H 2022   6.282   8.127   1.045 -0.5423 -3.9513 -0.5540
  773MOL0     H 2023   6.163   8.340   0.993  0.3858  0.3403 -0.6079
  773MOL0     H 2024   5.744   8.577   1.031 -3.0572  1.3457 -0.0310
  773MOL0     H 2025   5.592   8.763   0.980  1.3987 -1.2284  2.0880
  773MOL0     H 2026   5.634   8.987   0.585 -0.7218 -0.5251 -0.4278
  773MOL0     H 2027   5.671   9.021   0.754 -1.2251  0.7936  0.8176
  773MOL0     H 2028   5.449   9.092   0.801 -0.0059  2.2502  0.1624
  773MOL0     H 2029   5.521   9.184   0.661 -0.9036 -1.1561 -1.5472
  773MOL0     H 2030   5.298   8.969   0.651  1.1153 -1.3909 -2.4546
  773MOL0     H 2031   5.390   9.005   0.517  1.7081  0.4767  0.7590
  773MOL0     H 2032   5.212   9.202   0.670  1.1964 -1.1791  0.7920
  773MOL0     H 2033   5.325   9.256   0.533  1.7196 -1.1255 -0.8963
  773MOL0     H 2034   4.997   9.049   0.356 -2.0607 -2.5006  4.0014
  773MOL0     H 2035   5.713   8.738   0.567  1.5268 -0.4825 -0.9640
  773MOL0     H 2036   5.884   8.547   0.640 -0.1622 -1.9863  1.0702
  774MOL0     O 2037   8.094  10.071   4.293 -0.4837  0.5668 -0.1593
  774MOL0     C 2038   8.010  10.009   4.361 -0.0064 -0.1955  0.0318
  774MOL0     O 2039   7.886   9.961   4.318  0.2431  0.0328  0.2539
  774MOL0     C 2040   7.837   9.978   4.187  0.0970  0.3521 -0.9079
  774MOL0     C 2041   7.715   9.918   4.170  0.0085  0.2861 -0.8586
  774MOL0     C 2042   7.645   9.936   4.052  0.2372  0.2480  0.1173
  774MOL0     C 2043   7.700  10.003   3.949 -0.4860 -0.4694  0.0485
  774MOL0     O 2044   7.646  10.022   3.819  1.0003  0.2289  0.1918
  774MOL0     C 2045   7.520   9.959   3.793  0.8914  0.4498  0.2636
  774MOL0     C 2046   7.410  10.048   3.853  0.2373 -0.3978 -0.3372
  774MOL0     C 2047   7.278   9.969   3.879  0.1606 -0.5700  0.4408
  774MOL0     C 2048   7.171  10.057   3.952  0.3859  0.5619 -0.8261
  774MOL0     C 2049   7.080   9.975   4.028 -0.8874  0.1934 -0.3801
  774MOL0     C 2050   6.978  10.060   4.100 -0.0097 -0.3528 -0.4330
  774MOL0     C 2051   6.859   9.970   4.148 -0.3819 -0.4493  0.5196
  774MOL0     C 2052   6.729  10.043   4.190  0.0215 -0.1118 -0.1695
  774MOL0     N 2053   6.630   9.938   4.232  0.5643  0.0693  0.1493
  774MOL0     C 2054   6.627   9.854   4.335  0.2590  0.2557 -0.3554
  774MOL0     C 2055   6.517   9.781   4.327  0.0203  0.1365  0.1743
  774MOL0     C 2056   6.488   9.655   4.405 -1.5896  0.0680 -0.2239
  774MOL0     C 2057   6.536   9.651   4.548 -0.1399 -0.9599 -0.1551
  774MOL0     C 2058   6.460   9.768   4.629 -0.5613  0.2733 -0.1552
  774MOL0     C 2059   6.307   9.786   4.621 -0.1274  0.8241  0.1247
  774MOL0     O 2060   6.280   9.896   4.708 -0.2257 -0.3793 -0.4004
  774MOL0     C 2061   6.149   9.913   4.739 -0.1818 -0.2940 -0.2894
  774MOL0     C 2062   6.065   9.804   4.776 -0.4480  0.0100 -0.2088
  774MOL0     C 2063   5.931   9.832   4.800 -0.2714 -0.1793 -0.9285
  774MOL0     C 2064   5.879   9.961   4.802  0.2008  0.0898  0.9553
  774MOL0     C 2065   5.744   9.983   4.845 -0.0745 -0.3048 -0.3310
  774MOL0     O 2066   5.665   9.869   4.860  0.5146 -0.1461 -0.2195
  774MOL0     C 2067   5.563   9.870   4.940 -0.6602  1.3867 -0.2496
  774MOL0     C 2068   5.539   9.757   5.034 -0.9447  0.2996  0.1328
  774MOL0     C 2069   5.425   9.747   5.119 -0.3692  0.5111  0.4190
  774MOL0     C 2070   5.331   9.849   5.102  0.4196 -0.1193 -0.9823
  774MOL0     O 2071   5.211   9.850   5.166  0.3231 -0.3173 -0.2578
  774MOL0     C 2072   5.130   9.730   5.160  0.4421 -0.5629  0.3718
  774MOL0     C 2073   5.050   9.730   5.287 -0.5481  0.3472 -0.2514
  774MOL0     C 2074   4.941   9.619   5.292 -0.2288  0.1718 -0.4001
  774MOL0     C 2075   4.883   9.588   5.430  0.0230  1.2008 -0.9949
  774MOL0     C 2076   4.772   9.467   5.425  0.5970  0.4221  0.5399
  774MOL0     C 2077   4.753   9.412   5.566  0.5830  0.0691 -0.4728
  774MOL0     C 2078   4.634   9.315   5.555  0.3044  0.5021  0.1228
  774MOL0     C 2079   4.594   9.211   5.672 -0.5386  0.1136 -0.0126
  774MOL0    Cl 2080   4.727   9.183   5.791 -0.1797 -0.5090  0.1944
  774MOL0     C 2081   5.340   9.954   5.011 -1.5422  0.2156  0.2619
  774MOL0     C 2082   5.455   9.961   4.919 -0.5913  0.4490 -0.1712
  774MOL0     O 2083   5.726  10.085   4.898 -0.0649 -0.7797  0.2523
  774MOL0     C 2084   5.964  10.062   4.767  0.1452  0.4075  0.5501
  774MOL0     C 2085   6.102  10.045   4.736  0.3881  0.6083 -0.2143
  774MOL0     N 2086   6.459   9.799   4.206  0.8407 -0.5526 -0.4727
  774MOL0     N 2087   6.528   9.901   4.156 -0.3116  0.5720 -0.5844
  774MOL0     C 2088   7.827  10.058   3.963  0.5157  0.0497 -0.7243
  774MOL0     C 2089   7.896  10.049   4.088 -0.6137  0.0516  0.3231
  774MOL0     C 2090   8.033  10.008   4.511  0.6481 -0.1385  0.5503
  774MOL0     C 2091   8.139  10.071   4.576  0.7161 -0.7738  0.3864
  774MOL0     C 2092   8.153  10.080   4.717  1.5343 -0.0837  0.4476
  774MOL0     C 2093   8.077   9.999   4.795  0.5706 -0.2377  0.4823
  774MOL0     O 2094   8.086   9.995   4.935 -0.3248 -0.1724 -0.0293
  774MOL0     C 2095   8.213   9.976   5.004  0.7219 -0.2000  0.3201
  774MOL0     C 2096   8.285   9.841   4.987  0.8727 -0.7848 -0.1896
  774MOL0     C 2097   8.203   9.702   5.032 -0.2488 -0.3352  0.4834
  774MOL0     C 2098   8.134   9.713   5.166  0.2470  0.8942 -0.7136
  774MOL0     C 2099   8.060   9.588   5.197  0.8564  0.2529  0.0953
  774MOL0     C 2100   8.018   9.480   5.225  0.7782  0.5307 -0.7519
  774MOL0     C 2101   7.968   9.931   4.733 -0.2544 -0.2242  0.0796
  774MOL0     C 2102   7.939   9.945   4.598 -0.4533  0.3005  0.5422
  774MOL0     H 2103   7.683   9.848   4.246 -1.3703 -0.1210 -1.7801
  774MOL0     H 2104   7.552   9.880   4.047 -0.2922  0.3244  4.4937
  774MOL0     H 2105   7.512   9.858   3.834 -1.2660  0.3711 -0.2392
  774MOL0     H 2106   7.503   9.938   3.687 -2.4162  0.9638  0.5788
  774MOL0     H 2107   7.394  10.131   3.784 -0.9404 -0.8748 -0.6608
  774MOL0     H 2108   7.448  10.074   3.952  1.7153  1.4495 -1.3484
  774MOL0     H 2109   7.309   9.877   3.930  0.5571 -0.8165 -0.2371
  774MOL0     H 2110   7.230   9.942   3.785 -5.0477  2.9182  1.6632
  774MOL0     H 2111   7.223  10.129   4.016  0.9462  1.7529 -2.5232
  774MOL0     H 2112   7.114  10.109   3.874 -2.4087 -1.4631 -0.2843
  774MOL0     H 2113   7.143   9.923   4.101 -3.2914 -0.6772  1.2005
  774MOL0     H 2114   7.038   9.898   3.963 -1.0187  1.3045 -1.6697
  774MOL0     H 2115   6.941  10.141   4.038 -3.3861 -0.2657  1.4625
  774MOL0     H 2116   7.003  10.117   4.190  0.5697 -1.3324  0.0544
  774MOL0     H 2117   6.833   9.904   4.065 -1.8763  0.2107  0.4341
  774MOL0     H 2118   6.881   9.907   4.235 -1.8685 -0.9284  0.5607
  774MOL0     H 2119   6.683  10.090   4.102 -2.2448 -1.1320  0.3901
  774MOL0     H 2120   6.741  10.120   4.267  2.7728 -0.8501  0.2646
  774MOL0     H 2121   6.694   9.859   4.420  1.3630 -0.9652 -1.1177
  774MOL0     H 2122   6.544   9.576   4.353 -2.4630 -0.2051 -0.7714
  774MOL0     H 2123   6.381   9.642   4.390 -1.7067  2.2755 -1.6703
  774MOL0     H 2124   6.643   9.666   4.565 -0.6812  2.3111  1.0385
  774MOL0     H 2125   6.510   9.561   4.606 -0.5155  0.0238  1.2732
  774MOL0     H 2126   6.491   9.764   4.734 -1.5252 -2.1938  0.0825
  774MOL0     H 2127   6.499   9.863   4.592  0.7807 -0.6950 -1.3029
  774MOL0     H 2128   6.264   9.686   4.635 -0.8625  0.5990 -3.0511
  774MOL0     H 2129   6.283   9.815   4.518 -1.1128  2.3577  0.7601
  774MOL0     H 2130   6.113   9.707   4.785 -2.1295 -0.9063 -0.5937
  774MOL0     H 2131   5.872   9.747   4.830  1.8677 -1.5335 -0.2991
  774MOL0     H 2132   5.619   9.684   5.036  1.4661  2.7612  1.3273
  774MOL0     H 2133   5.409   9.662   5.183 -0.4369  1.7513  2.1227
  774MOL0     H 2134   5.180   9.634   5.144 -2.4760 -2.3817  1.3045
  774MOL0     H 2135   5.061   9.752   5.077 -1.3842  1.1332  2.2045
  774MOL0     H 2136   4.992   9.821   5.307  0.0103 -0.0120  3.6915
  774MOL0     H 2137   5.115   9.732   5.375 -0.9228  2.1020  0.0400
  774MOL0     H 2138   4.973   9.525   5.246 -0.9808 -1.2263  1.7375
  774MOL0     H 2139   4.857   9.656   5.233 -1.7243  0.7181  1.9161
  774MOL0     H 2140   4.963   9.555   5.496  0.6400 -0.0615 -2.3337
  774MOL0     H 2141   4.835   9.679   5.470  2.4463  2.0223  0.2071
  774MOL0     H 2142   4.809   9.386   5.362 -2.6482  0.7053 -1.9631
  774MOL0     H 2143   4.680   9.500   5.376  1.0096  0.2609 -0.3647
  774MOL0     H 2144   4.731   9.493   5.636  0.3145  2.3824 -3.0773
  774MOL0     H 2145   4.846   9.360   5.591  0.1854 -0.0759  0.7825
  774MOL0     H 2146   4.546   9.376   5.534  0.4829  0.9294  0.5943
  774MOL0     H 2147   4.640   9.258   5.462  0.6693  0.6176  0.0762
  774MOL0     H 2148   4.577   9.112   5.628  1.9053 -0.2127 -0.3459
  774MOL0     H 2149   4.503   9.245   5.723 -0.4336  0.8124 -0.2879
  774MOL0     H 2150   5.252  10.016   5.003 -2.2888 -0.9300 -0.7454
  774MOL0     H 2151   5.455  10.044   4.849 -1.7816 -0.0873 -0.8289
  774MOL0     H 2152   5.932  10.166   4.759 -0.1134  0.4827  2.1586
  774MOL0     H 2153   6.180  10.116   4.709  2.2151 -2.1426 -2.9248
  774MOL0     H 2154   7.861  10.114   3.877 -2.1912 -2.5306 -3.7137
  774MOL0     H 2155   7.995  10.094   4.083 -2.2919  4.0882 -0.7928
  774MOL0     H 2156   8.209  10.134   4.522  2.2715 -0.7077  2.3458
  774MOL0     H 2157   8.233  10.137   4.762  2.0834 -0.4575 -0.0365
  774MOL0     H 2158   8.189   9.996   5.109  0.2045  0.9875 -0.0068
  774MOL0     H 2159   8.286  10.047   4.963 -2.1329  1.0956 -2.9966
  774MOL0     H 2160   8.309   9.829   4.881 -5.2177  0.3790 -2.0775
  774MOL0     H 2161   8.372   9.846   5.053 -0.5107 -1.1477  1.7619
  774MOL0     H 2162   8.274   9.619   5.033 -2.9663 -2.8497  2.7208
  774MOL0     H 2163   8.128   9.681   4.956  1.0427 -1.7296 -0.4721
  774MOL0     H 2164   8.201   9.733   5.250  0.8169  0.4847 -1.0613
  774MOL0     H 2165   8.066   9.799   5.166  2.1100  2.4319 -0.9191
  774MOL0     H 2166   8.005   9.378   5.254  1.1716  1.2521  2.2632
  774MOL0     H 2167   7.896   9.871   4.789  1.6391 -2.0249  0.7107
  774MOL0     H 2168   7.851   9.896   4.557 -0.2495  0.5894 -0.2665
  775MOL0     O 2169   1.355   1.768   8.964 -1.0517 -0.7266  1.0049
  775MOL0     C 2170   1.329   1.692   9.063  0.0935 -0.0325  1.5035
  775MOL0     O 2171   1.422   1.655   9.162  0.8482 -0.3553 -0.6278
  775MOL0     C 2172   1.542   1.724   9.158  0.9253 -0.1957 -0.0258
  775MOL0     C 2173   1.654   1.645   9.160  0.2780 -0.0705 -0.2784
  775MOL0     C 2174   1.779   1.703   9.150  0.0905 -0.9551  0.0703
  775MOL0     C 2175   1.811   1.839   9.145  0.2961 -0.5233 -0.0088
  775MOL0     O 2176   1.927   1.910   9.150  0.7627 -0.2843  0.1732
  775MOL0     C 2177   2.053   1.847   9.143  0.0144  0.5025  0.7751
  775MOL0     C 2178   2.104   1.846   8.995 -0.2720  1.0236 -0.4851
  775MOL0     C 2179   2.248   1.820   8.991  0.1519 -0.1147  0.8198
  775MOL0     C 2180   2.281   1.664   9.008 -0.1048 -0.2044 -0.6760
  775MOL0     C 2181   2.438   1.653   8.985  0.6126 -0.2674  1.0118
  775MOL0     C 2182   2.487   1.628   8.837  0.7298 -0.0156  0.1906
  775MOL0     C 2183   2.412   1.520   8.769 -0.3078 -0.2297  0.7183
  775MOL0     C 2184   2.486   1.497   8.636  0.2155  0.0991  0.4161
  775MOL0     N 2185   2.416   1.400   8.555 -0.5215 -0.1067 -0.2913
  775MOL0     C 2186   2.397   1.265   8.582 -0.2474  0.8773  0.3238
  775MOL0     C 2187   2.323   1.220   8.477  0.2691  0.6763  0.2044
  775MOL0     C 2188   2.304   1.081   8.442  0.3803 -0.2488 -0.5805
  775MOL0     C 2189   2.185   1.055   8.341  0.0288  0.2464  0.5952
  775MOL0     C 2190   2.213   1.099   8.192  0.0416 -0.4837 -0.7482
  775MOL0     C 2191   2.366   1.102   8.145 -0.5403 -0.0359 -0.4821
  775MOL0     O 2192   2.424   0.970   8.145  0.2865 -0.1867 -0.5313
  775MOL0     C 2193   2.389   0.887   8.040 -0.3270  0.0589  0.2382
  775MOL0     C 2194   2.398   0.748   8.073  0.2626  0.2552 -0.3752
  775MOL0     C 2195   2.368   0.655   7.975  0.7737 -0.0546  0.4178
  775MOL0     C 2196   2.333   0.693   7.840  0.0830 -0.1901 -1.0390
  775MOL0     C 2197   2.281   0.596   7.744  0.7251 -0.1627 -0.5036
  775MOL0     O 2198   2.286   0.453   7.775  1.4402 -0.9072  0.4511
  775MOL0     C 2199   2.200   0.370   7.719  0.4304  0.1495  0.3557
  775MOL0     C 2200   2.066   0.394   7.724  0.3675 -0.4567 -0.0883
  775MOL0     C 2201   1.979   0.289   7.668 -0.5938 -0.5540  0.6172
  775MOL0     C 2202   2.034   0.169   7.617  0.6501  0.4825  0.3875
  775MOL0     O 2203   1.965   0.056   7.571  0.1982 -0.0761 -0.2493
  775MOL0     C 2204   1.823   0.065   7.547  0.1843 -0.6880  0.3463
  775MOL0     C 2205   1.758  -0.071   7.540 -0.0622  0.4757 -0.1682
  775MOL0     C 2206   1.784  -0.152   7.659  0.1975 -0.1008 -0.5703
  775MOL0     C 2207   1.738  -0.084   7.791 -0.0193  0.1010  0.4668
  775MOL0     C 2208   1.721  -0.172   7.903 -0.3583  1.2464  0.1551
  775MOL0     C 2209   1.797  -0.312   7.897 -0.2003 -0.1963  0.2121
  775MOL0     C 2210   1.715  -0.429   7.856 -0.8052  0.3833  0.4177
  775MOL0     C 2211   1.804  -0.541   7.803 -0.2084 -0.1456 -0.3316
  775MOL0    Cl 2212   1.700  -0.652   7.718  0.2906  0.3075 -0.1518
  775MOL0     C 2213   2.173   0.152   7.612  0.6854 -0.4674  0.2744
  775MOL0     C 2214   2.252   0.263   7.650 -0.2268  0.3569  0.2205
  775MOL0     O 2215   2.208   0.646   7.656 -0.1961  0.1024  0.1816
  775MOL0     C 2216   2.328   0.826   7.813  0.0356 -0.1438  0.0760
  775MOL0     C 2217   2.356   0.921   7.904  0.0471 -0.7650 -1.0134
  775MOL0     N 2218   2.277   1.329   8.406 -0.0120 -0.5166  0.0001
  775MOL0     N 2219   2.331   1.436   8.459  0.6038 -0.1399 -0.0667
  775MOL0     C 2220   1.687   1.917   9.144 -0.2700  0.3101 -0.5037
  775MOL0     C 2221   1.559   1.858   9.144  0.6448  0.4162  0.4718
  775MOL0     C 2222   1.215   1.602   9.059  0.3974  0.1127  1.1909
  775MOL0     C 2223   1.143   1.582   8.938 -0.5183 -0.2554 -0.8949
  775MOL0     C 2224   1.031   1.494   8.932 -0.2437  0.4151  0.4641
  775MOL0     C 2225   0.996   1.416   9.031 -0.2156 -0.7419 -0.6762
  775MOL0     O 2226   0.896   1.319   9.021  0.3271 -0.6538  0.6009
  775MOL0     C 2227   0.860   1.241   9.125 -0.3778 -0.0156 -0.3005
  775MOL0     C 2228   0.752   1.304   9.214  0.8957 -0.4435  0.6915
  775MOL0     C 2229   0.633   1.354   9.140 -0.0166 -0.5097 -1.3145
  775MOL0     C 2230   0.539   1.239   9.125  0.2867  0.2202  0.5285
  775MOL0     C 2231   0.413   1.287   9.061 -0.5693 -0.2006  0.4941
  775MOL0     C 2232   0.309   1.306   8.988 -1.0156  0.1535  0.6146
  775MOL0     C 2233   1.066   1.437   9.158  0.2150  0.1628  0.0367
  775MOL0     C 2234   1.172   1.524   9.168 -0.1421  0.0792 -1.1132
  775MOL0     H 2235   1.646   1.539   9.181  0.7517 -0.2730 -1.0705
  775MOL0     H 2236   1.862   1.633   9.149  0.0009 -1.1070 -2.6015
  775MOL0     H 2237   2.049   1.743   9.178  1.4957 -0.3934 -1.5000
  775MOL0     H 2238   2.128   1.904   9.200  2.1615 -1.4017  0.0400
  775MOL0     H 2239   2.081   1.945   8.953  1.0509  1.9086  0.7704
  775MOL0     H 2240   2.058   1.772   8.929 -0.6205  2.4197 -1.8914
  775MOL0     H 2241   2.307   1.885   9.057  0.0544  3.1770 -2.0219
  775MOL0     H 2242   2.284   1.846   8.891  2.3365  1.8942  2.0031
  775MOL0     H 2243   2.256   1.632   9.109  0.0496  0.4389 -0.4308
  775MOL0     H 2244   2.223   1.605   8.936 -4.0856  1.1832  1.1010
  775MOL0     H 2245   2.472   1.571   9.050  0.2872 -0.8911  0.4122
  775MOL0     H 2246   2.482   1.743   9.029 -0.6631  0.9698 -0.1785
  775MOL0     H 2247   2.595   1.607   8.841  0.7761  0.4079  1.4825
  775MOL0     H 2248   2.468   1.721   8.784  1.2352 -0.7808 -1.3980
  775MOL0     H 2249   2.421   1.426   8.824  1.7290 -0.3437  0.2584
  775MOL0     H 2250   2.304   1.535   8.761 -0.4469 -2.0202 -2.8567
  775MOL0     H 2251   2.588   1.461   8.654  0.2887  0.2644  0.3368
  775MOL0     H 2252   2.496   1.596   8.590  1.0236  1.1483  2.7274
  775MOL0     H 2253   2.437   1.196   8.656 -0.6634 -1.9458 -1.8814
  775MOL0     H 2254   2.279   1.036   8.539 -1.1641  2.8450  0.5716
  775MOL0     H 2255   2.394   1.036   8.398 -0.5311 -2.2803 -0.4875
  775MOL0     H 2256   2.088   1.091   8.376  0.1482  0.3953  0.7772
  775MOL0     H 2257   2.173   0.948   8.323 -0.0428  0.5577 -1.5116
  775MOL0     H 2258   2.155   1.029   8.130 -1.4045 -0.0992  0.1245
  775MOL0     H 2259   2.159   1.194   8.184 -0.2827 -0.6522 -0.5815
  775MOL0     H 2260   2.424   1.165   8.213  0.2805 -2.2197  0.9668
  775MOL0     H 2261   2.373   1.145   8.045 -1.9414 -0.9639 -1.0100
  775MOL0     H 2262   2.428   0.722   8.174  0.9988 -0.9155 -0.8831
  775MOL0     H 2263   2.364   0.550   7.999  1.1908 -1.1021 -3.4587
  775MOL0     H 2264   2.035   0.483   7.779  3.2045  0.4258  0.2474
  775MOL0     H 2265   1.874   0.316   7.667 -0.3861  0.2700  0.4450
  775MOL0     H 2266   1.803   0.120   7.455  1.9718  3.6170  2.2023
  775MOL0     H 2267   1.760   0.122   7.616 -0.0443 -0.0003 -0.4111
  775MOL0     H 2268   1.775  -0.125   7.447 -1.0290  2.1989 -1.4258
  775MOL0     H 2269   1.649  -0.055   7.540 -0.4962 -0.8734  4.5385
  775MOL0     H 2270   1.890  -0.182   7.653 -0.0633 -1.4510  0.8534
  775MOL0     H 2271   1.728  -0.246   7.655 -0.3672  0.2708 -3.2743
  775MOL0     H 2272   1.808  -0.002   7.811  1.3431  0.2397 -3.7283
  775MOL0     H 2273   1.638  -0.043   7.771  0.6082  1.0592 -0.8838
  775MOL0     H 2274   1.617  -0.203   7.916 -0.1579  0.7862  0.7619
  775MOL0     H 2275   1.756  -0.123   7.994 -1.0771  3.9015 -0.9242
  775MOL0     H 2276   1.847  -0.335   7.991 -0.3451 -5.4127 -0.7001
  775MOL0     H 2277   1.883  -0.302   7.831 -0.7959  1.4041 -0.3678
  775MOL0     H 2278   1.653  -0.463   7.939 -1.5094 -0.1758 -0.3132
  775MOL0     H 2279   1.644  -0.394   7.780 -0.6351  2.6518  1.2296
  775MOL0     H 2280   1.859  -0.595   7.880 -1.1145 -0.4265  0.1281
  775MOL0     H 2281   1.870  -0.492   7.731 -2.3186 -1.2975 -3.2559
  775MOL0     H 2282   2.216   0.058   7.577 -0.6216 -0.7765 -0.5971
  775MOL0     H 2283   2.360   0.265   7.636 -0.1748  0.1947  0.5969
  775MOL0     H 2284   2.303   0.857   7.712 -1.8664 -1.4337  0.0908
  775MOL0     H 2285   2.353   1.025   7.872  0.4035  0.3557  2.2637
  775MOL0     H 2286   1.708   2.023   9.138 -0.9737  0.5190  0.4350
  775MOL0     H 2287   1.474   1.924   9.131 -0.5232 -1.3222 -1.4100
  775MOL0     H 2288   1.173   1.621   8.841 -0.1257 -0.3102 -0.8005
  775MOL0     H 2289   0.978   1.486   8.838  3.4578  0.2232 -1.8115
  775MOL0     H 2290   0.956   1.217   9.172  0.3772 -0.7322 -2.1340
  775MOL0     H 2291   0.816   1.149   9.086 -1.4445 -0.2845  1.4136
  775MOL0     H 2292   0.713   1.223   9.277 -0.8352 -1.1389 -1.1803
  775MOL0     H 2293   0.787   1.388   9.275 -4.5829  2.3218  0.6546
  775MOL0     H 2294   0.661   1.399   9.044 -0.6783 -1.6748 -2.0823
  775MOL0     H 2295   0.595   1.441   9.194  1.8763 -0.9872  0.9690
  775MOL0     H 2296   0.571   1.153   9.065 -1.5378 -0.5425  0.5908
  775MOL0     H 2297   0.516   1.200   9.224 -1.7487 -0.3691 -0.1228
  775MOL0     H 2298   0.220   1.316   8.930 -0.2658 -1.5029 -0.9220
  775MOL0     H 2299   1.048   1.373   9.243 -4.1981 -0.4729 -1.1159
  775MOL0     H 2300   1.219   1.521   9.266 -3.4616 -3.0372  0.6856
  776MOL0     O 2301   0.087   6.256   1.070  0.0191  0.4754 -0.2838
  776MOL0     C 2302   0.204   6.219   1.079 -0.2046 -0.2091 -0.8061
  776MOL0     O 2303   0.273   6.144   0.991 -0.1174 -0.3526  0.1525
  776MOL0     C 2304   0.220   6.126   0.863  0.8448 -0.1065 -0.3869
  776MOL0     C 2305   0.265   6.012   0.796 -0.5260 -0.3620  0.2792
  776MOL0     C 2306   0.212   5.979   0.673 -0.9467  0.4303  0.3565
  776MOL0     C 2307   0.117   6.063   0.607  0.3457  0.8762 -0.6472
  776MOL0     O 2308   0.063   6.019   0.488 -0.2396  0.0731  0.9312
  776MOL0     C 2309   0.023   5.883   0.474  0.3447 -0.0039  0.1707
  776MOL0     C 2310  -0.091   5.867   0.381  0.6956  0.3208  0.1197
  776MOL0     C 2311  -0.226   5.893   0.439  0.7229 -1.0034 -0.4634
  776MOL0     C 2312  -0.342   5.899   0.340  0.0136  0.0791 -0.2603
  776MOL0     C 2313  -0.470   5.971   0.384  0.8956  0.1570  0.0311
  776MOL0     C 2314  -0.587   5.968   0.285 -0.1970  1.2526  0.9877
  776MOL0     C 2315  -0.704   6.079   0.318  1.2661  0.7189  0.1130
  776MOL0     C 2316  -0.786   6.055   0.449  0.9335  0.0361  0.7585
  776MOL0     N 2317  -0.887   6.166   0.463 -0.7620  0.2474  0.3357
  776MOL0     C 2318  -0.887   6.271   0.553  0.1049  0.5503 -0.3416
  776MOL0     C 2319  -0.996   6.339   0.517 -0.4569 -0.6860 -0.5668
  776MOL0     C 2320  -1.023   6.476   0.568  0.0828  0.1898  0.9479
  776MOL0     C 2321  -1.173   6.511   0.601 -0.6279  0.1484 -0.4934
  776MOL0     C 2322  -1.178   6.670   0.608  0.7062 -0.2855  0.3762
  776MOL0     C 2323  -1.330   6.695   0.629 -0.7820  0.3376 -0.2458
  776MOL0     O 2324  -1.408   6.663   0.513 -0.0186 -0.3308  0.2983
  776MOL0     C 2325  -1.545   6.671   0.518  0.6041  0.5928  0.6726
  776MOL0     C 2326  -1.629   6.706   0.622  0.4546  1.4132 -0.6772
  776MOL0     C 2327  -1.766   6.666   0.627  0.4146  0.1692  0.1113
  776MOL0     C 2328  -1.824   6.603   0.524  0.3759  0.2619  0.2192
  776MOL0     C 2329  -1.962   6.566   0.521  0.6658 -0.0623  1.0894
  776MOL0     O 2330  -2.027   6.549   0.630 -0.2913  0.4031  1.0210
  776MOL0     C 2331  -2.160   6.517   0.629  0.0402 -0.7011  0.0379
  776MOL0     C 2332  -2.215   6.416   0.719  0.1861  0.0388  0.1306
  776MOL0     C 2333  -2.346   6.394   0.739 -0.2587 -0.2232  0.6940
  776MOL0     C 2334  -2.436   6.461   0.657  0.3201 -0.6869 -0.1316
  776MOL0     O 2335  -2.568   6.432   0.669 -0.2550  0.3778  0.3215
  776MOL0     C 2336  -2.666   6.483   0.576  0.3646 -0.0161 -0.0878
  776MOL0     C 2337  -2.792   6.486   0.656 -0.1745  0.2015  0.4196
  776MOL0     C 2338  -2.918   6.491   0.563  0.7021  0.4145 -0.2074
  776MOL0     C 2339  -3.054   6.497   0.647 -0.3444 -0.0785  0.0864
  776MOL0     C 2340  -3.177   6.555   0.569  0.8717 -0.1628  0.3248
  776MOL0     C 2341  -3.319   6.548   0.635  0.7704  0.0748  0.5956
  776MOL0     C 2342  -3.327   6.629   0.765  0.2725  0.6758 -0.1505
  776MOL0     C 2343  -3.439   6.730   0.767 -0.2472 -0.5068  1.3854
  776MOL0    Cl 2344  -3.604   6.655   0.725 -0.2418 -0.3934  0.1189
  776MOL0     C 2345  -2.387   6.559   0.558 -0.1646  0.1244 -0.3815
  776MOL0     C 2346  -2.256   6.592   0.553 -0.0990 -0.1404  0.2316
  776MOL0     O 2347  -2.005   6.577   0.407 -0.2368 -0.4792 -0.0192
  776MOL0     C 2348  -1.750   6.591   0.408 -0.1639 -0.3492 -0.3622
  776MOL0     C 2349  -1.611   6.631   0.409  0.3015 -0.3120 -1.1806
  776MOL0     N 2350  -1.046   6.290   0.400 -0.2314 -0.6347  0.3482
  776MOL0     N 2351  -0.983   6.187   0.373  0.4949 -0.6094  0.2629
  776MOL0     C 2352   0.084   6.181   0.670 -0.7788 -0.2198  1.0643
  776MOL0     C 2353   0.123   6.203   0.805  0.1493 -0.2962 -1.0047
  776MOL0     C 2354   0.265   6.232   1.209 -0.1809  0.0668  0.3482
  776MOL0     C 2355   0.393   6.209   1.243 -0.3440  0.7669  0.9882
  776MOL0     C 2356   0.448   6.207   1.368  0.1362 -0.1750 -0.3741
  776MOL0     C 2357   0.372   6.258   1.477 -0.1262  0.5783 -0.0659
  776MOL0     O 2358   0.427   6.259   1.600 -0.5877 -0.8477  0.3182
  776MOL0     C 2359   0.369   6.326   1.707  0.4607  0.6877  0.2647
  776MOL0     C 2360   0.469   6.324   1.819 -0.4470  0.4196 -0.2729
  776MOL0     C 2361   0.487   6.176   1.881  0.1654 -0.7815  0.5251
  776MOL0     C 2362   0.587   6.176   1.996  0.4560  0.1920 -0.0134
  776MOL0     C 2363   0.538   6.251   2.109  0.0056  0.1212 -0.1598
  776MOL0     C 2364   0.512   6.310   2.210 -0.1160  0.2265 -0.5262
  776MOL0     C 2365   0.244   6.305   1.439  0.0896 -0.3256 -0.5081
  776MOL0     C 2366   0.194   6.293   1.311 -0.2986  1.2779 -0.5437
  776MOL0     H 2367   0.344   5.950   0.837  0.7256  0.7320 -0.3908
  776MOL0     H 2368   0.237   5.892   0.612  0.3683 -0.6266  2.3130
  776MOL0     H 2369  -0.011   5.835   0.566  1.6291 -2.9171 -0.7482
  776MOL0     H 2370   0.103   5.821   0.433  0.2488  0.1525 -0.2679
  776MOL0     H 2371  -0.086   5.763   0.349 -3.2848  0.0472 -0.1010
  776MOL0     H 2372  -0.088   5.929   0.291 -1.6384 -3.6767 -3.0208
  776MOL0     H 2373  -0.221   5.983   0.500  3.5553 -0.6859 -1.0114
  776MOL0     H 2374  -0.246   5.804   0.500  3.1394 -0.4604  1.2679
  776MOL0     H 2375  -0.303   5.949   0.250  1.3673 -1.3030 -0.4780
  776MOL0     H 2376  -0.363   5.796   0.310  1.1072 -0.3669  0.4650
  776MOL0     H 2377  -0.451   6.076   0.408  1.4504  0.3110 -1.0035
  776MOL0     H 2378  -0.509   5.918   0.471 -1.5017 -1.6295 -1.9498
  776MOL0     H 2379  -0.631   5.869   0.269  0.7156  1.0303 -0.2628
  776MOL0     H 2380  -0.542   5.982   0.186  0.0288 -0.2496  0.8606
  776MOL0     H 2381  -0.650   6.173   0.326  1.7665  0.4705 -0.3209
  776MOL0     H 2382  -0.777   6.088   0.237 -0.2629  2.2760  1.5753
  776MOL0     H 2383  -0.727   6.042   0.540 -0.1760  4.6853  2.4422
  776MOL0     H 2384  -0.827   5.958   0.418  0.0261  1.2517 -2.1814
  776MOL0     H 2385  -0.809   6.296   0.625 -0.1681  0.5738 -0.0533
  776MOL0     H 2386  -0.998   6.544   0.486 -1.8712  1.7828  1.6058
  776MOL0     H 2387  -0.962   6.517   0.648 -1.9458  0.4795  2.4213
  776MOL0     H 2388  -1.197   6.467   0.698 -0.4521  0.9478 -0.0797
  776MOL0     H 2389  -1.242   6.475   0.524  1.4241 -0.9675 -1.9076
  776MOL0     H 2390  -1.125   6.700   0.699 -1.6687 -1.0329  2.1116
  776MOL0     H 2391  -1.142   6.728   0.523  2.1809 -2.1918 -0.3963
  776MOL0     H 2392  -1.340   6.800   0.657 -0.1431 -0.1232  1.8704
  776MOL0     H 2393  -1.358   6.627   0.710 -2.1190  0.7031 -0.3793
  776MOL0     H 2394  -1.590   6.740   0.718 -2.5775  1.8092  0.5201
  776MOL0     H 2395  -1.827   6.698   0.711 -1.5714  0.0854 -1.2285
  776MOL0     H 2396  -2.141   6.358   0.773 -0.6897  0.3905  1.7604
  776MOL0     H 2397  -2.379   6.319   0.810 -1.6985  2.1449  2.7185
  776MOL0     H 2398  -2.671   6.412   0.493  0.3104 -0.7764  0.5522
  776MOL0     H 2399  -2.635   6.584   0.547  1.7870 -0.9690 -2.1615
  776MOL0     H 2400  -2.793   6.575   0.721 -1.2834  0.3539  0.2137
  776MOL0     H 2401  -2.800   6.399   0.722 -1.5367 -0.1042 -0.1220
  776MOL0     H 2402  -2.928   6.406   0.495  0.2567  1.6337 -1.7135
  776MOL0     H 2403  -2.912   6.581   0.501  2.3105  2.9456  3.2851
  776MOL0     H 2404  -3.076   6.393   0.674 -2.9046 -0.2926 -2.3496
  776MOL0     H 2405  -3.026   6.557   0.734 -1.8081  2.6643 -1.2133
  776MOL0     H 2406  -3.184   6.511   0.470  0.9360  3.8685 -1.6849
  776MOL0     H 2407  -3.155   6.660   0.549 -0.3473  0.5974  2.5597
  776MOL0     H 2408  -3.346   6.444   0.653  0.0676 -0.0948 -1.1622
  776MOL0     H 2409  -3.395   6.583   0.565  0.4237 -3.4230 -1.0049
  776MOL0     H 2410  -3.329   6.568   0.855 -0.9766  1.6772  0.5279
  776MOL0     H 2411  -3.232   6.684   0.766  1.6104 -1.5263  0.6757
  776MOL0     H 2412  -3.415   6.793   0.680 -0.3985 -1.5858  0.5435
  776MOL0     H 2413  -3.440   6.798   0.853 -1.7895  2.2724 -0.6634
  776MOL0     H 2414  -2.441   6.629   0.495  0.9920  0.8641 -0.5731
  776MOL0     H 2415  -2.220   6.666   0.482 -0.6444  1.7758  1.8807
  776MOL0     H 2416  -1.790   6.565   0.311  2.0888  1.1686 -1.7998
  776MOL0     H 2417  -1.544   6.627   0.324  0.8184 -1.9825 -0.7407
  776MOL0     H 2418   0.023   6.255   0.620 -0.3861 -1.4647 -1.4552
  776MOL0     H 2419   0.075   6.297   0.832 -2.3928 -1.5806 -0.7296
  776MOL0     H 2420   0.463   6.191   1.162 -0.8431  1.4899  0.3768
  776MOL0     H 2421   0.550   6.173   1.384 -0.5553 -2.6822 -0.7895
  776MOL0     H 2422   0.278   6.273   1.736  0.9463 -0.6244 -0.5119
  776MOL0     H 2423   0.343   6.427   1.674  3.2888  0.1336 -4.6278
  776MOL0     H 2424   0.568   6.362   1.790 -1.4931  1.7128 -2.3797
  776MOL0     H 2425   0.427   6.387   1.897  0.0762  1.7443 -1.0311
  776MOL0     H 2426   0.526   6.107   1.806 -3.7101 -0.3447 -2.2146
  776MOL0     H 2427   0.388   6.136   1.904 -0.6884  0.4010 -0.9409
  776MOL0     H 2428   0.606   6.072   2.024  0.3973 -0.2724 -1.6005
  776MOL0     H 2429   0.680   6.219   1.957  2.1446 -2.5770  0.7148
  776MOL0     H 2430   0.491   6.346   2.309  3.5777 -1.3109  1.0020
  776MOL0     H 2431   0.181   6.346   1.517  0.1340 -2.3660  0.6630
  776MOL0     H 2432   0.095   6.334   1.292  0.1946  3.2284  0.8443
  777MOL0     O 2433   8.442   1.386  10.635 -0.2588 -0.3375 -0.3740
  777MOL0     C 2434   8.500   1.348  10.736 -0.6514  1.4663 -0.4629
  777MOL0     O 2435   8.437   1.334  10.861 -0.6222 -0.0283 -0.1944
  777MOL0     C 2436   8.308   1.393  10.869  0.2538 -0.3695  0.1144
  777MOL0     C 2437   8.290   1.533  10.915 -1.1076 -0.8638  0.4087
  777MOL0     C 2438   8.167   1.585  10.936 -0.4653  0.4904  0.1678
  777MOL0     C 2439   8.051   1.513  10.929  0.0142 -0.0518 -0.6526
  777MOL0     O 2440   7.931   1.569  10.957 -0.5553 -0.0765  0.0434
  777MOL0     C 2441   7.827   1.481  11.003  0.4416 -0.0998 -0.0660
  777MOL0     C 2442   7.853   1.412  11.145  0.0230 -0.0850 -0.1958
  777MOL0     C 2443   7.726   1.342  11.179  0.0301  0.5137 -0.3344
  777MOL0     C 2444   7.716   1.298  11.323  0.3347 -0.3861 -0.0093
  777MOL0     C 2445   7.624   1.184  11.366  1.0740  0.0468  0.0549
  777MOL0     C 2446   7.481   1.204  11.323 -0.0275 -0.8838 -0.0999
  777MOL0     C 2447   7.374   1.094  11.349 -0.2041 -1.0166 -0.0893
  777MOL0     C 2448   7.343   1.081  11.499  0.1503  0.2039 -0.8259
  777MOL0     N 2449   7.217   0.998  11.545 -0.6709 -0.7549  0.1173
  777MOL0     C 2450   7.158   1.016  11.662 -0.0710  0.1754 -0.9386
  777MOL0     C 2451   7.062   0.920  11.678 -0.5436 -1.0045 -1.8991
  777MOL0     C 2452   6.960   0.893  11.785  0.5082 -0.5073 -0.2733
  777MOL0     C 2453   7.015   0.870  11.923 -0.1160 -0.2028  0.1813
  777MOL0     C 2454   6.906   0.814  12.024 -0.9248 -0.2243  0.5365
  777MOL0     C 2455   6.838   0.680  11.996 -0.3018  0.2615 -0.6131
  777MOL0     O 2456   6.934   0.583  12.000 -0.0845  0.3370  0.5704
  777MOL0     C 2457   6.975   0.527  12.119  1.0485  0.5911  0.3880
  777MOL0     C 2458   6.924   0.562  12.243  0.4836  0.7768 -0.3478
  777MOL0     C 2459   6.966   0.485  12.351  0.0300 -0.3192  0.3669
  777MOL0     C 2460   7.084   0.401  12.351  0.0558 -0.1738 -0.0499
  777MOL0     C 2461   7.128   0.339  12.474  0.0279  0.3556 -0.0907
  777MOL0     O 2462   7.256   0.278  12.472 -0.7062 -0.4207 -0.1894
  777MOL0     C 2463   7.315   0.246  12.587  0.2149 -0.2715 -0.1178
  777MOL0     C 2464   7.337   0.116  12.623 -0.4037 -0.3043  0.2448
  777MOL0     C 2465   7.409   0.094  12.741  0.3288  0.4324 -0.7360
  777MOL0     C 2466   7.464   0.200  12.823 -0.2952  0.6028  0.6705
  777MOL0     O 2467   7.544   0.156  12.924 -0.3103 -0.6106  0.2403
  777MOL0     C 2468   7.606   0.264  12.999  0.0239  0.2269 -0.1708
  777MOL0     C 2469   7.681   0.211  13.111  1.2751 -0.0770 -0.2596
  777MOL0     C 2470   7.823   0.163  13.071  0.3543 -0.3899 -0.5229
  777MOL0     C 2471   7.909   0.285  13.022  0.1720  0.6995 -1.1517
  777MOL0     C 2472   8.055   0.258  13.005  0.6310  0.5324 -0.5746
  777MOL0     C 2473   8.119   0.353  12.917 -0.7095 -0.6420  0.8683
  777MOL0     C 2474   8.099   0.341  12.769  0.2294 -0.9242 -0.3300
  777MOL0     C 2475   8.213   0.413  12.682  0.2686 -0.4064  0.1575
  777MOL0    Cl 2476   8.233   0.588  12.726 -0.0230  0.5170 -0.2471
  777MOL0     C 2477   7.448   0.334  12.777  0.2480 -0.7743  0.0076
  777MOL0     C 2478   7.374   0.350  12.656 -0.0681  0.3318 -0.3871
  777MOL0     O 2479   7.045   0.330  12.562  0.6217 -0.1946 -0.2834
  777MOL0     C 2480   7.140   0.382  12.223  0.0002 -0.9362  0.3755
  777MOL0     C 2481   7.087   0.447  12.107  0.2964  0.2283  0.5092
  777MOL0     N 2482   7.072   0.843  11.564 -0.6666 -0.4425  0.0084
  777MOL0     N 2483   7.170   0.889  11.489 -0.1796 -0.5182 -0.3201
  777MOL0     C 2484   8.065   1.375  10.893 -0.5411 -0.3188  1.0027
  777MOL0     C 2485   8.188   1.314  10.863 -0.4100 -0.5302 -0.7909
  777MOL0     C 2486   8.646   1.304  10.726  0.2527  0.3244  0.1904
  777MOL0     C 2487   8.730   1.350  10.629  0.1268 -1.0998 -0.2058
  777MOL0     C 2488   8.861   1.308  10.611  0.0850 -0.3644 -0.0244
  777MOL0     C 2489   8.908   1.215  10.702 -0.0161 -0.6216 -0.1518
  777MOL0     O 2490   9.041   1.184  10.682  0.3440 -0.0532  0.1418
  777MOL0     C 2491   9.088   1.070  10.750 -0.2948 -0.0617  0.3376
  777MOL0     C 2492   9.231   1.038  10.709  0.2025 -1.0092 -0.0394
  777MOL0     C 2493   9.323   1.147  10.764  0.2134 -0.1329 -0.1694
  777MOL0     C 2494   9.474   1.098  10.761  0.1882 -0.5153  0.1049
  777MOL0     C 2495   9.504   1.021  10.881 -0.1049  0.0761 -0.1866
  777MOL0     C 2496   9.531   0.966  10.988 -0.3601  0.1582 -0.2041
  777MOL0     C 2497   8.823   1.163  10.801 -0.5145 -0.1498 -0.4434
  777MOL0     C 2498   8.694   1.208  10.818 -0.2902 -0.4112 -0.0188
  777MOL0     H 2499   8.377   1.597  10.929  0.3085 -2.3923 -1.0727
  777MOL0     H 2500   8.155   1.684  10.980  1.2166  0.1687  1.4385
  777MOL0     H 2501   7.797   1.401  10.935 -3.2545 -0.0124  1.2394
  777MOL0     H 2502   7.739   1.546  11.006 -0.6157 -1.2459 -2.9055
  777MOL0     H 2503   7.882   1.483  11.224 -0.1016  0.0517 -0.2731
  777MOL0     H 2504   7.936   1.341  11.135  0.9187  1.0647 -1.1656
  777MOL0     H 2505   7.724   1.250  11.119 -0.9322  0.4406 -0.1972
  777MOL0     H 2506   7.637   1.391  11.139  0.8715 -0.1568 -3.2988
  777MOL0     H 2507   7.818   1.277  11.356  0.4370  1.9011  1.4113
  777MOL0     H 2508   7.686   1.390  11.374  0.3481  0.9495 -2.2637
  777MOL0     H 2509   7.627   1.180  11.476 -1.8014  2.0063  0.3031
  777MOL0     H 2510   7.659   1.092  11.320 -0.5490  1.0932 -3.5923
  777MOL0     H 2511   7.478   1.223  11.215 -1.9424  0.1533  0.1000
  777MOL0     H 2512   7.444   1.297  11.367  2.1269  1.2051 -2.3261
  777MOL0     H 2513   7.281   1.104  11.293  0.6835 -0.3667 -1.4814
  777MOL0     H 2514   7.413   0.998  11.313 -0.0079 -0.5647 -1.0928
  777MOL0     H 2515   7.325   1.184  11.532 -1.7834 -0.8102  1.5941
  777MOL0     H 2516   7.434   1.041  11.544 -0.4324  0.6568  0.8396
  777MOL0     H 2517   7.177   1.095  11.735  0.4798 -0.8968  0.1201
  777MOL0     H 2518   6.902   0.809  11.748  2.2493 -1.6515 -0.5264
  777MOL0     H 2519   6.892   0.979  11.791 -1.2243 -1.7736 -1.1448
  777MOL0     H 2520   7.045   0.968  11.961  1.3943  0.4165 -2.3634
  777MOL0     H 2521   7.103   0.805  11.914  0.6669  0.9526 -0.7960
  777MOL0     H 2522   6.951   0.808  12.124 -2.0112  0.4865  1.0928
  777MOL0     H 2523   6.827   0.890  12.023 -1.2378 -0.5494 -0.4582
  777MOL0     H 2524   6.793   0.669  11.897  2.9974  0.2223 -2.2502
  777MOL0     H 2525   6.751   0.664  12.060  0.0961 -0.6177 -0.2848
  777MOL0     H 2526   6.834   0.623  12.246 -1.7146 -2.0585  4.9965
  777MOL0     H 2527   6.908   0.498  12.442 -2.5846 -1.3861 -1.0542
  777MOL0     H 2528   7.282   0.031  12.582 -0.2609 -1.0593  1.5487
  777MOL0     H 2529   7.427  -0.011  12.762 -1.0122  0.6064  1.7067
  777MOL0     H 2530   7.534   0.336  13.041 -1.0486 -0.5197 -0.6885
  777MOL0     H 2531   7.676   0.311  12.929  0.7259 -0.6254 -0.0491
  777MOL0     H 2532   7.632   0.127  13.161  2.0608  0.1331  0.8933
  777MOL0     H 2533   7.690   0.279  13.196 -2.2683  2.3712 -1.5765
  777MOL0     H 2534   7.820   0.103  12.980 -2.2303 -0.0404 -0.7702
  777MOL0     H 2535   7.868   0.114  13.157  0.0962 -0.3683 -0.3732
  777MOL0     H 2536   7.862   0.312  12.927 -1.2238 -1.4306 -1.1301
  777MOL0     H 2537   7.894   0.349  13.109  1.6952 -2.2547  1.5090
  777MOL0     H 2538   8.066   0.155  12.968  0.9178  0.0960  0.6755
  777MOL0     H 2539   8.109   0.266  13.100  0.3237  0.5488 -0.3995
  777MOL0     H 2540   8.226   0.338  12.935  0.2230  3.2456 -0.4580
  777MOL0     H 2541   8.103   0.452  12.961  2.5811 -0.6606  2.4764
  777MOL0     H 2542   8.089   0.237  12.736  1.3351  0.0545 -4.2167
  777MOL0     H 2543   8.009   0.402  12.755 -0.8522 -2.3342  0.3144
  777MOL0     H 2544   8.184   0.400  12.577  1.4230 -0.8811 -0.1116
  777MOL0     H 2545   8.314   0.373  12.687  0.3968 -0.0453  0.5874
  777MOL0     H 2546   7.500   0.412  12.831 -0.2887  0.0144 -0.5887
  777MOL0     H 2547   7.363   0.449  12.613 -1.1874 -0.4864 -2.0628
  777MOL0     H 2548   7.227   0.318  12.218 -0.9666 -2.4238  1.7069
  777MOL0     H 2549   7.137   0.442  12.011  1.1253 -1.6632  1.0022
  777MOL0     H 2550   7.974   1.320  10.871 -0.7919  1.0414 -1.7870
  777MOL0     H 2551   8.207   1.210  10.837 -0.6466 -0.8936  0.4123
  777MOL0     H 2552   8.705   1.436  10.568 -1.2110  0.3159  2.1919
  777MOL0     H 2553   8.934   1.362  10.552  0.7674 -0.8024  0.4000
  777MOL0     H 2554   9.034   0.987  10.703 -1.0728  0.6920 -0.1149
  777MOL0     H 2555   9.074   1.067  10.858 -1.5598 -1.2184  0.1622
  777MOL0     H 2556   9.270   0.937  10.725  0.9443 -0.6678  0.3249
  777MOL0     H 2557   9.233   1.053  10.600 -1.6682  1.3417  0.1684
  777MOL0     H 2558   9.279   1.177  10.860  0.5500 -1.5573  0.4669
  777MOL0     H 2559   9.308   1.237  10.705 -1.0359  0.9697  1.7325
  777MOL0     H 2560   9.482   1.052  10.662  3.6535  1.3046 -0.6297
  777MOL0     H 2561   9.544   1.182  10.754  0.3739 -0.7387 -0.8825
  777MOL0     H 2562   9.568   0.928  11.082  0.0518 -1.1239 -0.8574
  777MOL0     H 2563   8.862   1.093  10.874  1.0533  0.1121 -0.9912
  777MOL0     H 2564   8.635   1.168  10.900  0.3021  2.9067  2.1983
  778MOL0     O 2565   1.292   0.546   0.245  0.5630  0.6938 -0.0099
  778MOL0     C 2566   1.347   0.601   0.149 -0.7245 -1.0651  0.5144
  778MOL0     O 2567   1.304   0.715   0.077 -0.3215 -0.3298  0.1780
  778MOL0     C 2568   1.196   0.790   0.129  0.0331  0.1587 -0.7593
  778MOL0     C 2569   1.198   0.927   0.108 -0.9384 -0.6124  0.0988
  778MOL0     C 2570   1.097   1.004   0.145  0.2022  0.2433  0.1016
  778MOL0     C 2571   0.979   0.948   0.191 -0.8236  1.0229 -0.5314
  778MOL0     O 2572   0.873   1.022   0.236  0.1542  0.3055  0.2668
  778MOL0     C 2573   0.889   1.157   0.257  0.4714  0.1240 -0.6557
  778MOL0     C 2574   0.762   1.199   0.335  0.7305 -0.3494 -0.3454
  778MOL0     C 2575   0.788   1.349   0.373  0.0381  0.1407  0.3066
  778MOL0     C 2576   0.655   1.414   0.393  0.4689 -0.0862 -0.1093
  778MOL0     C 2577   0.664   1.562   0.421  0.3027 -0.8400 -0.2922
  778MOL0     C 2578   0.529   1.635   0.432 -0.3039 -0.9278 -0.3861
  778MOL0     C 2579   0.432   1.567   0.528 -0.0181  0.5317  0.0559
  778MOL0     C 2580   0.482   1.550   0.677  0.2553 -0.6091  0.4118
  778MOL0     N 2581   0.485   1.681   0.751  0.2882  0.5063  0.1623
  778MOL0     C 2582   0.376   1.759   0.773 -0.1038 -0.1810 -0.2421
  778MOL0     C 2583   0.430   1.878   0.834 -0.1398 -0.1367  0.4254
  778MOL0     C 2584   0.373   2.019   0.839  0.4357  0.5897 -0.3475
  778MOL0     C 2585   0.400   2.097   0.710  0.4920 -0.0107  0.2510
  778MOL0     C 2586   0.551   2.132   0.681 -0.0896 -0.3586  0.3024
  778MOL0     C 2587   0.574   2.231   0.566  0.1800  0.8608 -0.0395
  778MOL0     O 2588   0.713   2.244   0.530 -0.5806 -0.3430 -0.2689
  778MOL0     C 2589   0.786   2.135   0.490  0.1914  0.3368  0.4149
  778MOL0     C 2590   0.918   2.158   0.495 -0.3594  0.4794 -0.1125
  778MOL0     C 2591   1.011   2.067   0.446 -0.2409  0.3261 -1.5218
  778MOL0     C 2592   0.953   1.943   0.396  0.0642 -0.4790  0.0900
  778MOL0     C 2593   1.042   1.838   0.362 -0.7623 -0.3213  0.1776
  778MOL0     O 2594   0.999   1.743   0.275  0.3780  0.5155  0.0720
  778MOL0     C 2595   1.071   1.631   0.230  0.6063  0.1132  0.2833
  778MOL0     C 2596   1.077   1.514   0.296 -1.4416  0.0235 -0.5964
  778MOL0     C 2597   1.179   1.414   0.264 -0.3040  0.6074  0.8688
  778MOL0     C 2598   1.228   1.425   0.129 -0.2134 -0.3041 -0.5973
  778MOL0     O 2599   1.306   1.318   0.089  0.2305  1.0017 -0.3824
  778MOL0     C 2600   1.446   1.337   0.109  0.3380  1.1085 -0.1836
  778MOL0     C 2601   1.524   1.199   0.138  0.3171 -0.5494  0.9978
  778MOL0     C 2602   1.520   1.122   0.004 -0.4473  0.1968  0.0569
  778MOL0     C 2603   1.579   0.985   0.027  0.2506  0.8661  0.9165
  778MOL0     C 2604   1.660   0.937  -0.099  1.3621  0.5625  0.4181
  778MOL0     C 2605   1.589   0.929  -0.234  0.6700 -0.3791 -0.8375
  778MOL0     C 2606   1.684   0.891  -0.353  0.6180  0.0142 -0.3199
  778MOL0     C 2607   1.622   0.937  -0.489  0.0996 -0.2176  0.1314
  778MOL0    Cl 2608   1.728   0.922  -0.630 -0.0219 -0.0914 -0.5583
  778MOL0     C 2609   1.200   1.536   0.051  0.3155  0.1891 -0.0657
  778MOL0     C 2610   1.136   1.643   0.109  0.0072 -0.2947 -0.2727
  778MOL0     O 2611   1.159   1.833   0.404 -0.3424  0.7451 -0.1113
  778MOL0     C 2612   0.820   1.917   0.390  0.0772 -0.6851 -0.6098
  778MOL0     C 2613   0.729   2.018   0.432 -0.0375 -0.9633  0.1579
  778MOL0     N 2614   0.565   1.853   0.853  0.3177 -0.5313  0.9748
  778MOL0     N 2615   0.586   1.740   0.805  0.0866  0.8167 -0.2993
  778MOL0     C 2616   0.963   0.810   0.200 -0.7118 -0.9809  0.5411
  778MOL0     C 2617   1.068   0.735   0.177  0.7697  0.1816 -0.0029
  778MOL0     C 2618   1.473   0.556   0.104 -0.2654 -0.8409  1.3566
  778MOL0     C 2619   1.535   0.601  -0.015  0.5003 -0.4504 -0.5104
  778MOL0     C 2620   1.672   0.578  -0.029  0.3040 -0.0018 -0.2590
  778MOL0     C 2621   1.741   0.496   0.061 -0.1206  0.0530  0.4105
  778MOL0     O 2622   1.876   0.477   0.049  0.7329 -0.2095 -0.1684
  778MOL0     C 2623   1.975   0.554  -0.031  0.6495  0.3450 -0.0442
  778MOL0     C 2624   2.001   0.694   0.043 -0.8277  0.1823 -0.1643
  778MOL0     C 2625   2.126   0.759  -0.016 -0.9566  1.0759  1.3512
  778MOL0     C 2626   2.208   0.850   0.085 -0.2166  0.0433  0.1928
  778MOL0     C 2627   2.144   0.979   0.116 -0.3936 -0.7998 -0.6882
  778MOL0     C 2628   2.096   1.091   0.129  0.6587 -0.0214  0.1738
  778MOL0     C 2629   1.676   0.428   0.161 -0.2809  0.5314  1.0483
  778MOL0     C 2630   1.541   0.461   0.183  0.3195  1.1476 -0.6057
  778MOL0     H 2631   1.290   0.979   0.082 -0.0221 -2.6542 -0.9265
  778MOL0     H 2632   1.114   1.110   0.165 -2.1314 -0.0038  5.0127
  778MOL0     H 2633   0.896   1.210   0.162 -2.1847  0.8021 -0.5462
  778MOL0     H 2634   0.976   1.186   0.318 -0.1349 -0.7290  0.6397
  778MOL0     H 2635   0.740   1.127   0.415  0.8711 -3.9779 -3.2588
  778MOL0     H 2636   0.668   1.182   0.282  1.1596 -1.7119 -0.7148
  778MOL0     H 2637   0.838   1.417   0.304 -2.5456  3.8634  1.7744
  778MOL0     H 2638   0.843   1.352   0.468  1.3751  2.0070 -0.4521
  778MOL0     H 2639   0.586   1.391   0.312  0.7797 -4.7805  0.6724
  778MOL0     H 2640   0.615   1.368   0.484  0.1720  1.7664  0.7533
  778MOL0     H 2641   0.696   1.614   0.331 -3.5863 -1.4744 -2.2684
  778MOL0     H 2642   0.720   1.583   0.513  3.8869 -4.3839 -1.3901
  778MOL0     H 2643   0.485   1.647   0.332 -0.8249 -1.7935 -0.2670
  778MOL0     H 2644   0.556   1.738   0.458 -2.0324 -0.1454 -1.5435
  778MOL0     H 2645   0.334   1.615   0.530  0.4573  1.7536 -2.4536
  778MOL0     H 2646   0.421   1.468   0.482  2.1433 -1.0570  2.6403
  778MOL0     H 2647   0.585   1.514   0.666 -0.4739 -2.3660 -1.1721
  778MOL0     H 2648   0.429   1.475   0.736  0.7529 -1.2062  0.1031
  778MOL0     H 2649   0.276   1.748   0.733 -0.9131  0.6982  1.4253
  778MOL0     H 2650   0.420   2.069   0.924  3.2942 -1.1571 -0.7731
  778MOL0     H 2651   0.269   2.015   0.870  0.9645 -0.7420  1.3962
  778MOL0     H 2652   0.338   2.186   0.706  3.0307  1.8351 -1.0845
  778MOL0     H 2653   0.365   2.022   0.638  0.0482 -1.1667  1.6253
  778MOL0     H 2654   0.590   2.169   0.776 -0.2921 -1.7709  0.9632
  778MOL0     H 2655   0.606   2.039   0.667  0.5092  0.2900 -2.1889
  778MOL0     H 2656   0.535   2.327   0.601  1.0912  1.8247 -1.5491
  778MOL0     H 2657   0.517   2.198   0.478  2.6185 -3.6350 -0.1815
  778MOL0     H 2658   0.969   2.249   0.525  3.0632 -2.0108  2.4665
  778MOL0     H 2659   1.114   2.091   0.472 -0.2841 -2.9919  3.0412
  778MOL0     H 2660   1.016   1.510   0.385  0.5410  1.0921  0.9074
  778MOL0     H 2661   1.190   1.322   0.321  0.6927 -0.8087 -1.4769
  778MOL0     H 2662   1.471   1.407   0.188  1.1912  1.4625 -0.7529
  778MOL0     H 2663   1.481   1.395   0.023 -0.6776  3.0354  0.6479
  778MOL0     H 2664   1.457   1.141   0.202  0.2258  0.8969  2.2665
  778MOL0     H 2665   1.626   1.210   0.174  0.5117  0.1315  0.2878
  778MOL0     H 2666   1.584   1.174  -0.068  2.2736 -0.2281  1.9940
  778MOL0     H 2667   1.416   1.106  -0.025 -0.1533 -1.7772 -0.0168
  778MOL0     H 2668   1.636   0.977   0.120 -2.0849  1.5830  2.5079
  778MOL0     H 2669   1.496   0.916   0.041  1.0493 -0.3038  0.0887
  778MOL0     H 2670   1.703   0.839  -0.075  0.8631 -1.4858 -5.4251
  778MOL0     H 2671   1.747   1.001  -0.117  1.7094 -0.0763 -0.2523
  778MOL0     H 2672   1.543   1.028  -0.247  2.8746  0.4372 -3.3677
  778MOL0     H 2673   1.503   0.861  -0.233 -1.7626  2.4146 -2.8448
  778MOL0     H 2674   1.778   0.943  -0.335  1.3591 -1.3832 -0.0741
  778MOL0     H 2675   1.700   0.783  -0.348 -0.3738 -0.0915  1.1036
  778MOL0     H 2676   1.594   1.042  -0.485 -2.8297 -0.9084  0.6329
  778MOL0     H 2677   1.530   0.881  -0.510  0.3450 -1.3462  1.8007
  778MOL0     H 2678   1.233   1.552  -0.051  0.8416  0.1697  0.0986
  778MOL0     H 2679   1.127   1.736   0.052  0.5886  1.4044  2.2511
  778MOL0     H 2680   0.790   1.822   0.348 -0.7630 -1.0815  0.8298
  778MOL0     H 2681   0.621   2.013   0.420 -0.2416  2.2720 -0.4850
  778MOL0     H 2682   0.870   0.775   0.243 -0.1077 -2.6953  0.5211
  778MOL0     H 2683   1.064   0.627   0.166 -0.1425  0.0443  1.3975
  778MOL0     H 2684   1.485   0.660  -0.092  3.3195  3.2706  0.2140
  778MOL0     H 2685   1.714   0.629  -0.116 -0.5588  0.5903 -0.3458
  778MOL0     H 2686   1.948   0.580  -0.133  0.9708 -0.8506 -0.4478
  778MOL0     H 2687   2.067   0.495  -0.028 -0.6637 -2.0182  4.6137
  778MOL0     H 2688   1.908   0.752   0.035 -0.7939  0.1416 -0.9398
  778MOL0     H 2689   2.036   0.669   0.144  0.1465  0.4129 -0.4395
  778MOL0     H 2690   2.103   0.816  -0.107  3.9411 -1.2421 -1.7826
  778MOL0     H 2691   2.206   0.694  -0.051  0.7474  3.7210 -0.0336
  778MOL0     H 2692   2.238   0.803   0.179  0.6460  2.0050  0.9485
  778MOL0     H 2693   2.301   0.880   0.035 -0.4597  1.1823  0.3959
  778MOL0     H 2694   2.042   1.182   0.144 -0.1070 -0.1903 -1.4113
  778MOL0     H 2695   1.737   0.367   0.226 -1.0699 -1.8683 -0.3429
  778MOL0     H 2696   1.500   0.416   0.272  5.6775 -2.5726  0.4255
  779MOL0     O 2697   9.952   1.990   2.759 -0.1413 -0.5312 -0.0009
  779MOL0     C 2698   9.988   1.971   2.873 -0.7858 -0.5741  0.0627
  779MOL0     O 2699  10.021   2.065   2.970 -0.0785 -0.0002  0.1976
  779MOL0     C 2700   9.991   2.197   2.944 -0.7578  0.4092  0.3605
  779MOL0     C 2701   9.887   2.249   2.867  0.8239  0.1966 -0.4326
  779MOL0     C 2702   9.848   2.381   2.881 -0.2619 -1.0195 -0.5361
  779MOL0     C 2703   9.926   2.478   2.956 -0.1957 -0.0802  0.2488
  779MOL0     O 2704   9.895   2.609   2.957  0.2918  0.4372  0.3198
  779MOL0     C 2705   9.996   2.695   2.903  0.4905 -0.5260  0.0147
  779MOL0     C 2706   9.957   2.849   2.880 -0.4695  0.2319 -0.0295
  779MOL0     C 2707   9.907   2.918   3.010  0.3321  0.3121 -1.1916
  779MOL0     C 2708  10.017   2.924   3.114 -0.1958  0.7902 -1.0789
  779MOL0     C 2709   9.983   3.016   3.232  0.6200  0.3771 -0.4552
  779MOL0     C 2710   9.849   2.975   3.314 -0.3956  0.4063 -0.1182
  779MOL0     C 2711   9.823   3.083   3.413  0.3528 -0.1289 -0.0144
  779MOL0     C 2712   9.831   3.240   3.390  0.2823  0.9249  0.6257
  779MOL0     N 2713   9.847   3.316   3.518 -0.7195 -0.2716  0.9299
  779MOL0     C 2714   9.963   3.338   3.592 -0.0418 -1.0484 -0.2130
  779MOL0     C 2715   9.923   3.428   3.683  0.5800  0.3237  0.1643
  779MOL0     C 2716  10.012   3.486   3.791 -0.4747  0.1408 -0.0244
  779MOL0     C 2717   9.932   3.578   3.888 -0.3334 -0.1042 -1.1600
  779MOL0     C 2718   9.854   3.488   3.996 -0.4022 -0.0232  0.3092
  779MOL0     C 2719   9.967   3.412   4.078 -0.1852  0.6660  1.1636
  779MOL0     O 2720   9.993   3.276   4.024 -0.1414  0.1787  0.4487
  779MOL0     C 2721  10.094   3.199   4.085 -0.1983  0.2181  0.1796
  779MOL0     C 2722  10.116   3.214   4.221  0.0379 -0.1093 -0.2093
  779MOL0     C 2723  10.225   3.138   4.276 -0.1791  0.6525  0.6508
  779MOL0     C 2724  10.312   3.056   4.201  0.1906 -0.0010  0.8089
  779MOL0     C 2725  10.442   3.014   4.250  0.0876  1.1799 -1.0488
  779MOL0     O 2726  10.530   2.959   4.163 -0.8316  0.1853  0.1660
  779MOL0     C 2727  10.660   2.922   4.209  0.2981 -0.0488  0.5156
  779MOL0     C 2728  10.743   3.005   4.276 -0.2588  0.1358 -1.0601
  779MOL0     C 2729  10.878   2.975   4.304  0.2053 -0.8532 -0.3294
  779MOL0     C 2730  10.930   2.855   4.264 -0.1418 -0.6793 -0.2569
  779MOL0     O 2731  11.059   2.812   4.292 -0.0697 -0.2809 -0.4227
  779MOL0     C 2732  11.131   2.866   4.406 -0.1810 -0.4566 -0.2485
  779MOL0     C 2733  11.243   2.785   4.425 -0.8464  0.9419  0.9125
  779MOL0     C 2734  11.329   2.844   4.532  0.6057 -0.1161  1.1664
  779MOL0     C 2735  11.456   2.769   4.538  0.9688  0.5895 -0.4393
  779MOL0     C 2736  11.541   2.814   4.657  0.9816  0.1127 -0.6528
  779MOL0     C 2737  11.692   2.807   4.624 -0.2325  0.2307 -0.0552
  779MOL0     C 2738  11.779   2.809   4.750 -0.4868  0.4759  0.6694
  779MOL0     C 2739  11.933   2.769   4.716  1.1770 -0.5844  0.3995
  779MOL0    Cl 2740  12.046   2.782   4.845 -0.0055 -0.0786 -0.3861
  779MOL0     C 2741  10.854   2.769   4.183  0.1097 -0.2896 -0.2680
  779MOL0     C 2742  10.715   2.804   4.162  0.0960  0.6448  0.5395
  779MOL0     O 2743  10.466   3.034   4.368  0.0548 -0.0172  0.1121
  779MOL0     C 2744  10.290   3.044   4.066 -0.0765 -0.2994 -0.3831
  779MOL0     C 2745  10.174   3.109   4.013  0.4287  0.6680 -0.1864
  779MOL0     N 2746   9.793   3.461   3.661 -0.6973  0.1039 -0.1651
  779MOL0     N 2747   9.742   3.382   3.572 -0.1017 -0.3123 -0.0296
  779MOL0     C 2748  10.050   2.427   3.009  0.3023 -0.2051  0.1515
  779MOL0     C 2749  10.076   2.291   3.003 -0.0684 -0.3524  0.0059
  779MOL0     C 2750   9.993   1.829   2.915  0.3516  0.1065 -0.9796
  779MOL0     C 2751   9.935   1.723   2.846 -0.3163  0.3102 -0.8445
  779MOL0     C 2752   9.924   1.591   2.899 -0.4665  0.0637 -0.4072
  779MOL0     C 2753   9.967   1.567   3.030  0.0556 -0.3947 -0.6947
  779MOL0     O 2754   9.959   1.452   3.105 -1.2112 -0.1221  0.9835
  779MOL0     C 2755   9.835   1.382   3.098  0.2640  0.0741  0.0805
  779MOL0     C 2756   9.716   1.449   3.170  0.8442 -0.4433  1.1598
  779MOL0     C 2757   9.668   1.569   3.097 -0.1394 -0.3910  0.8221
  779MOL0     C 2758   9.527   1.599   3.138  0.6679 -0.2405 -0.0749
  779MOL0     C 2759   9.515   1.654   3.277  0.8853  0.6180 -0.5217
  779MOL0     C 2760   9.495   1.694   3.388  0.2004 -0.5652 -0.4301
  779MOL0     C 2761  10.035   1.669   3.099 -0.3284  0.1970  0.1922
  779MOL0     C 2762  10.048   1.799   3.040 -0.0317  0.2344 -0.6689
  779MOL0     H 2763   9.814   2.180   2.827 -1.0904 -0.9888  4.4192
  779MOL0     H 2764   9.751   2.404   2.837  1.4581  1.8372 -3.2809
  779MOL0     H 2765  10.021   2.668   2.800 -1.5682  2.5292 -1.4433
  779MOL0     H 2766  10.075   2.691   2.979  0.4975 -0.8286 -0.0101
  779MOL0     H 2767   9.869   2.858   2.815 -2.4749 -3.9953  1.7276
  779MOL0     H 2768  10.040   2.905   2.837 -0.0208 -0.3062  0.1270
  779MOL0     H 2769   9.816   2.870   3.048 -1.1528  3.4117 -0.4829
  779MOL0     H 2770   9.869   3.018   2.987 -0.0126 -0.0736 -2.4263
  779MOL0     H 2771  10.034   2.823   3.153 -0.5381 -0.0078 -2.8582
  779MOL0     H 2772  10.111   2.953   3.066  0.5082  1.9295  0.8662
  779MOL0     H 2773   9.962   3.109   3.179 -2.2874  0.6993  1.0403
  779MOL0     H 2774  10.067   3.023   3.303  1.5532  1.0404 -1.5855
  779MOL0     H 2775   9.849   2.876   3.360  0.9021  1.3433  2.0801
  779MOL0     H 2776   9.773   2.968   3.236  0.4887 -3.8331 -0.8581
  779MOL0     H 2777   9.721   3.058   3.442  0.0999  1.3512  0.4817
  779MOL0     H 2778   9.887   3.067   3.500  0.5033 -0.7232 -0.2275
  779MOL0     H 2779   9.742   3.278   3.340  0.7870  3.2731  1.3999
  779MOL0     H 2780   9.920   3.258   3.328  0.0507 -1.6179 -0.5597
  779MOL0     H 2781  10.065   3.301   3.581 -0.0554 -1.3160  0.5060
  779MOL0     H 2782  10.077   3.559   3.742 -1.6947  1.6541  0.5392
  779MOL0     H 2783  10.069   3.404   3.835  2.5375  1.8293 -0.5070
  779MOL0     H 2784   9.865   3.653   3.846  0.1823  2.5285  2.2564
  779MOL0     H 2785  10.009   3.638   3.938 -0.2231 -2.5468  1.9704
  779MOL0     H 2786   9.793   3.559   4.053 -0.8039  0.9227 -1.2243
  779MOL0     H 2787   9.796   3.420   3.933 -0.4749 -0.2885  0.6623
  779MOL0     H 2788   9.939   3.413   4.183 -2.3754  3.1396  0.6531
  779MOL0     H 2789  10.059   3.470   4.065 -1.7622  2.8173 -1.4701
  779MOL0     H 2790  10.059   3.281   4.284 -0.1984  0.0102 -0.5477
  779MOL0     H 2791  10.257   3.147   4.380  3.8103 -0.1532 -0.3640
  779MOL0     H 2792  10.705   3.096   4.321 -2.7697 -1.9319  1.3146
  779MOL0     H 2793  10.947   3.043   4.351  2.8436 -0.6048 -4.0837
  779MOL0     H 2794  11.064   2.871   4.492 -0.2701 -0.3741 -0.3223
  779MOL0     H 2795  11.156   2.969   4.383  2.5256 -0.0227  3.6616
  779MOL0     H 2796  11.301   2.772   4.333  0.9077 -1.2012  2.2395
  779MOL0     H 2797  11.210   2.685   4.453 -2.0728  1.2780  0.7397
  779MOL0     H 2798  11.278   2.829   4.627  2.8250  1.2850  2.6739
  779MOL0     H 2799  11.345   2.951   4.521  3.2295 -0.6211 -1.1296
  779MOL0     H 2800  11.446   2.660   4.540 -2.1958  0.5137 -4.7963
  779MOL0     H 2801  11.509   2.771   4.443  0.3011  0.2230 -0.8317
  779MOL0     H 2802  11.528   2.762   4.753 -1.0070  0.4061 -0.7167
  779MOL0     H 2803  11.514   2.918   4.676 -0.3422 -0.5288  1.3279
  779MOL0     H 2804  11.719   2.893   4.563 -0.1619  0.7119  0.6453
  779MOL0     H 2805  11.706   2.710   4.575  0.9575  1.3244 -2.0141
  779MOL0     H 2806  11.783   2.913   4.785 -0.5223 -0.3714  3.4287
  779MOL0     H 2807  11.756   2.739   4.831 -1.0798  0.8052  0.7944
  779MOL0     H 2808  11.970   2.821   4.627 -1.0717  0.2528 -0.1028
  779MOL0     H 2809  11.923   2.664   4.687 -0.9785  0.0198 -1.2396
  779MOL0     H 2810  10.893   2.681   4.132 -0.7079 -0.0353 -1.3753
  779MOL0     H 2811  10.666   2.727   4.103  2.3956 -1.0840  0.7699
  779MOL0     H 2812  10.355   2.989   3.999 -1.2479 -0.0387 -1.8115
  779MOL0     H 2813  10.154   3.091   3.908  2.0175  2.1031 -0.7714
  779MOL0     H 2814  10.115   2.493   3.066  0.4749 -0.1660 -0.0871
  779MOL0     H 2815  10.159   2.268   3.068  1.3861 -0.9410 -1.9447
  779MOL0     H 2816   9.904   1.746   2.744 -2.9185 -1.2979 -0.5122
  779MOL0     H 2817   9.878   1.512   2.841  1.2072 -0.8916 -0.5217
  779MOL0     H 2818   9.853   1.292   3.158 -1.4052 -0.7145 -0.5462
  779MOL0     H 2819   9.788   1.357   3.003 -2.8285 -0.8206  1.6946
  779MOL0     H 2820   9.633   1.378   3.175 -1.3709  1.6021 -2.0418
  779MOL0     H 2821   9.754   1.468   3.271 -3.1787 -0.1778  2.7953
  779MOL0     H 2822   9.660   1.538   2.992  1.4215 -0.7924  0.7961
  779MOL0     H 2823   9.743   1.649   3.103  2.5374 -2.6938  0.1310
  779MOL0     H 2824   9.476   1.672   3.074 -0.9646 -0.1991  1.1816
  779MOL0     H 2825   9.465   1.511   3.122 -0.7593  0.7538 -0.2192
  779MOL0     H 2826   9.470   1.725   3.487  0.2274  1.1169 -0.9156
  779MOL0     H 2827  10.096   1.650   3.187  2.2460  1.6279 -1.1479
  779MOL0     H 2828  10.112   1.876   3.083 -0.1721  0.8770 -1.5792
  780MOL0     O 2829   6.499   6.847   8.143  0.7197 -0.2717  0.0311
  780MOL0     C 2830   6.466   6.735   8.178  0.0613  0.2134  0.6398
  780MOL0     O 2831   6.534   6.659   8.272 -0.8915 -0.1514  0.6991
  780MOL0     C 2832   6.667   6.694   8.296 -0.8104 -0.4967  0.1061
  780MOL0     C 2833   6.693   6.784   8.397 -0.6765  0.5247  0.6386
  780MOL0     C 2834   6.821   6.844   8.409  0.6977  1.1100  0.2822
  780MOL0     C 2835   6.924   6.812   8.317 -0.7717 -0.1179  0.1880
  780MOL0     O 2836   7.056   6.854   8.332  0.0352 -0.0654  0.5788
  780MOL0     C 2837   7.111   6.876   8.461 -0.1870  0.6994 -0.0418
  780MOL0     C 2838   7.263   6.883   8.435  0.9033  0.0438 -0.1700
  780MOL0     C 2839   7.311   6.751   8.360 -0.0422  0.1190 -0.7660
  780MOL0     C 2840   7.463   6.765   8.363 -0.2162  0.4403  0.3376
  780MOL0     C 2841   7.534   6.685   8.260 -0.7167 -0.0453 -0.5867
  780MOL0     C 2842   7.547   6.537   8.302 -0.4587  0.4158  0.0355
  780MOL0     C 2843   7.590   6.452   8.183  0.0160  0.2979 -1.0097
  780MOL0     C 2844   7.608   6.305   8.222  0.0050 -0.3296 -0.0211
  780MOL0     N 2845   7.752   6.275   8.260  0.8871 -0.1133 -0.2958
  780MOL0     C 2846   7.849   6.363   8.324 -0.3424  0.0778 -0.2064
  780MOL0     C 2847   7.938   6.277   8.379 -0.3427 -0.0000 -0.5091
  780MOL0     C 2848   8.078   6.301   8.440 -0.7297 -0.4470 -0.0612
  780MOL0     C 2849   8.081   6.390   8.566 -0.6695 -0.2801 -0.7877
  780MOL0     C 2850   8.032   6.308   8.688 -0.3014  0.9925 -0.7913
  780MOL0     C 2851   7.884   6.330   8.720  0.4800  0.1806 -0.4403
  780MOL0     O 2852   7.847   6.469   8.717 -0.2894  0.7357 -0.2240
  780MOL0     C 2853   7.714   6.486   8.728  0.1840 -0.4434 -0.3304
  780MOL0     C 2854   7.676   6.616   8.716  0.6291  0.6316  0.0728
  780MOL0     C 2855   7.536   6.649   8.725 -0.5786 -0.3004  0.2629
  780MOL0     C 2856   7.434   6.547   8.751 -0.6941  0.4042  0.0731
  780MOL0     C 2857   7.287   6.578   8.746  0.3415 -0.6228  0.2170
  780MOL0     O 2858   7.203   6.472   8.756  0.4137 -0.6605  0.0257
  780MOL0     C 2859   7.069   6.509   8.745 -0.9088 -0.0447  0.6093
  780MOL0     C 2860   7.008   6.540   8.624  0.4125  0.4861 -0.3601
  780MOL0     C 2861   6.873   6.580   8.621 -0.6448 -0.2431  0.4147
  780MOL0     C 2862   6.799   6.592   8.739 -0.3756  0.6379  0.2989
  780MOL0     O 2863   6.664   6.627   8.743  0.0137 -0.4954 -0.3419
  780MOL0     C 2864   6.568   6.548   8.680 -0.1957 -0.0168  0.3688
  780MOL0     C 2865   6.488   6.481   8.790 -0.3991 -0.1616  0.5423
  780MOL0     C 2866   6.385   6.567   8.865  0.6439 -0.7640 -0.0153
  780MOL0     C 2867   6.305   6.482   8.962 -0.2192  0.1829  0.2712
  780MOL0     C 2868   6.202   6.576   9.028 -0.4561 -0.1274  0.0932
  780MOL0     C 2869   6.131   6.511   9.151  0.3265 -0.0929 -0.1826
  780MOL0     C 2870   6.221   6.494   9.266 -0.8928  0.1497 -0.1683
  780MOL0     C 2871   6.150   6.433   9.380 -0.6503  0.1490 -0.2861
  780MOL0    Cl 2872   6.276   6.357   9.505  0.3453 -0.2154  0.1699
  780MOL0     C 2873   6.863   6.552   8.859 -0.0052 -1.1878 -0.2530
  780MOL0     C 2874   6.997   6.508   8.861 -0.8856 -0.5268  1.0472
  780MOL0     O 2875   7.265   6.693   8.697  0.2109  0.0018 -0.5832
  780MOL0     C 2876   7.478   6.420   8.773 -0.6744 -0.1970 -0.1160
  780MOL0     C 2877   7.620   6.386   8.766  0.4431 -0.3967 -0.9451
  780MOL0     N 2878   7.901   6.149   8.333  0.8062 -0.3522  0.1305
  780MOL0     N 2879   7.787   6.155   8.284 -0.1636 -0.8975  0.3291
  780MOL0     C 2880   6.892   6.722   8.211  0.5253  0.4598  0.2852
  780MOL0     C 2881   6.760   6.668   8.205 -0.1867 -0.9456 -0.0421
  780MOL0     C 2882   6.331   6.686   8.120 -0.5389 -0.1992 -0.5039
  780MOL0     C 2883   6.268   6.760   8.023  0.4786 -0.7579 -0.1957
  780MOL0     C 2884   6.149   6.722   7.969  0.4881 -0.8987  0.0859
  780MOL0     C 2885   6.107   6.591   7.994  0.7264  0.1188  1.1725
  780MOL0     O 2886   5.997   6.539   7.933 -0.0316  1.2761 -0.0830
  780MOL0     C 2887   5.895   6.628   7.889 -0.1220 -1.2581 -0.2100
  780MOL0     C 2888   5.793   6.535   7.820  0.2997  0.2916  0.1233
  780MOL0     C 2889   5.702   6.628   7.733 -0.2560 -0.4410 -0.0048
  780MOL0     C 2890   5.593   6.545   7.664  0.0759 -0.8765 -0.2492
  780MOL0     C 2891   5.648   6.466   7.558  0.1429 -0.3529  1.1383
  780MOL0     C 2892   5.691   6.417   7.460  0.2606  0.1814  0.5868
  780MOL0     C 2893   6.174   6.513   8.084 -0.9510  0.8047 -0.4990
  780MOL0     C 2894   6.285   6.562   8.154  0.7788 -0.1023  0.8615
  780MOL0     H 2895   6.611   6.827   8.455 -2.4091 -0.5168 -0.9047
  780MOL0     H 2896   6.854   6.923   8.476  4.2587  0.7875 -0.8680
  780MOL0     H 2897   7.088   6.788   8.522 -1.7394 -0.1739 -1.7943
  780MOL0     H 2898   7.065   6.963   8.509  1.5129  0.7424  1.6018
  780MOL0     H 2899   7.322   6.902   8.525  0.7873  2.3784 -0.5131
  780MOL0     H 2900   7.292   6.972   8.378  1.6416  1.3829  2.1760
  780MOL0     H 2901   7.273   6.759   8.258 -0.3480 -4.6271 -1.2262
  780MOL0     H 2902   7.275   6.657   8.400  0.5263 -0.9021 -2.5371
  780MOL0     H 2903   7.484   6.871   8.345 -2.0331  0.4901 -2.0203
  780MOL0     H 2904   7.510   6.740   8.459 -0.4411  1.0786  0.6212
  780MOL0     H 2905   7.635   6.725   8.242 -0.0082 -2.0747 -1.3779
  780MOL0     H 2906   7.483   6.697   8.164  1.3502 -0.3541 -1.7906
  780MOL0     H 2907   7.455   6.503   8.350  0.0649 -0.2177  0.6100
  780MOL0     H 2908   7.627   6.531   8.377  0.3082 -2.4289 -0.8878
  780MOL0     H 2909   7.518   6.458   8.101 -0.4602 -5.5963 -1.3966
  780MOL0     H 2910   7.680   6.493   8.136 -1.8032  1.6139 -3.5591
  780MOL0     H 2911   7.589   6.242   8.135  2.2272 -1.4552  0.2304
  780MOL0     H 2912   7.533   6.281   8.297  2.8697  2.4592  4.2062
  780MOL0     H 2913   7.853   6.468   8.349  1.0070 -0.0122  0.0137
  780MOL0     H 2914   8.135   6.359   8.368 -0.9082  1.0138  0.9349
  780MOL0     H 2915   8.121   6.203   8.464 -4.6725 -1.9221  1.9286
  780MOL0     H 2916   8.020   6.479   8.548  1.2379  2.0605  2.9835
  780MOL0     H 2917   8.184   6.424   8.580 -1.1747  0.1928  2.5652
  780MOL0     H 2918   8.059   6.205   8.662 -0.9413  0.9270 -1.2450
  780MOL0     H 2919   8.080   6.336   8.782  0.3345 -4.0760  0.7148
  780MOL0     H 2920   7.860   6.277   8.814  0.6845  1.7324  0.5200
  780MOL0     H 2921   7.822   6.286   8.641 -0.4430  1.1376 -0.2703
  780MOL0     H 2922   7.746   6.697   8.701 -1.0746  1.7391 -2.6546
  780MOL0     H 2923   7.519   6.754   8.703 -1.5608 -1.0692 -3.2895
  780MOL0     H 2924   7.070   6.530   8.535  0.8373  1.3260 -0.1671
  780MOL0     H 2925   6.825   6.586   8.524 -1.4303 -1.6862  0.6939
  780MOL0     H 2926   6.614   6.481   8.607 -0.4021  0.9045 -0.6403
  780MOL0     H 2927   6.506   6.603   8.608 -0.0464 -1.3437 -0.8032
  780MOL0     H 2928   6.564   6.447   8.860  1.1310 -0.0835 -1.0049
  780MOL0     H 2929   6.433   6.394   8.754  1.0044 -0.7637 -0.1988
  780MOL0     H 2930   6.326   6.611   8.784  0.4915  0.8540  0.9570
  780MOL0     H 2931   6.430   6.652   8.916  0.7363 -0.6950 -0.2073
  780MOL0     H 2932   6.272   6.395   8.905  0.8211 -1.1011  1.5636
  780MOL0     H 2933   6.380   6.450   9.035  2.1995  0.4077 -1.9944
  780MOL0     H 2934   6.131   6.611   8.952 -0.1486  2.3878  0.8663
  780MOL0     H 2935   6.251   6.672   9.050 -3.0204  1.1238  0.7660
  780MOL0     H 2936   6.096   6.414   9.117 -2.2370 -0.1255  2.1224
  780MOL0     H 2937   6.049   6.583   9.168 -1.4048 -1.7122 -1.2893
  780MOL0     H 2938   6.300   6.424   9.236 -2.0257 -0.0762 -2.9918
  780MOL0     H 2939   6.268   6.588   9.298 -1.2095 -0.2449  1.5029
  780MOL0     H 2940   6.080   6.354   9.353 -2.1029  1.2281  0.1926
  780MOL0     H 2941   6.084   6.503   9.432  0.5135  2.3224 -1.5562
  780MOL0     H 2942   6.799   6.541   8.946 -1.7708  1.4215 -1.1158
  780MOL0     H 2943   7.039   6.462   8.950  3.3267  0.0636 -0.4163
  780MOL0     H 2944   7.398   6.351   8.797 -0.5342  0.3831  2.3583
  780MOL0     H 2945   7.650   6.283   8.783  6.4087  1.0142 -0.6310
  780MOL0     H 2946   6.962   6.716   8.128 -0.9550 -1.6345 -0.9141
  780MOL0     H 2947   6.735   6.608   8.118  3.0808 -0.7122 -1.2647
  780MOL0     H 2948   6.311   6.852   7.983 -1.5019 -0.3139 -1.4356
  780MOL0     H 2949   6.116   6.794   7.895 -0.7726 -0.5285  0.9659
  780MOL0     H 2950   5.927   6.706   7.819 -1.1350 -1.2254 -0.6457
  780MOL0     H 2951   5.854   6.679   7.976 -1.6147 -3.4159  0.4407
  780MOL0     H 2952   5.835   6.456   7.757 -3.8362 -0.1536 -2.4252
  780MOL0     H 2953   5.738   6.488   7.903  0.7240 -0.4006  0.0266
  780MOL0     H 2954   5.753   6.689   7.658 -1.2816 -1.5263 -1.6458
  780MOL0     H 2955   5.646   6.700   7.794  2.1524  0.6170  1.1105
  780MOL0     H 2956   5.554   6.481   7.744  2.3334 -0.9012  0.8984
  780MOL0     H 2957   5.511   6.607   7.627  1.7582  1.5332 -0.1407
  780MOL0     H 2958   5.732   6.372   7.372 -2.3939 -0.7507 -0.2688
  780MOL0     H 2959   6.134   6.416   8.108 -1.0614  1.1236  0.7126
  780MOL0     H 2960   6.331   6.501   8.231  1.0519 -0.9395  0.0509
  781MOL0     O 2961   4.603   8.279   7.025 -0.0269  0.8817  0.2064
  781MOL0     C 2962   4.526   8.185   7.031 -0.2449  0.5599 -0.3145
  781MOL0     O 2963   4.493   8.102   6.928 -0.5344  0.2643 -0.1246
  781MOL0     C 2964   4.549   8.130   6.811  0.2044 -0.1801  0.0759
  781MOL0     C 2965   4.500   8.246   6.745 -0.2587 -0.4500 -0.4843
  781MOL0     C 2966   4.546   8.269   6.615 -0.1576 -0.9566  0.2333
  781MOL0     C 2967   4.633   8.178   6.552 -0.3680  0.5352 -0.2618
  781MOL0     O 2968   4.683   8.216   6.425 -0.7896  0.5456 -0.1525
  781MOL0     C 2969   4.761   8.127   6.358  0.4886 -1.6305  0.0461
  781MOL0     C 2970   4.667   8.022   6.299  0.7245  0.1299  0.8596
  781MOL0     C 2971   4.752   7.918   6.223 -0.2655 -0.6598  0.3290
  781MOL0     C 2972   4.673   7.824   6.138  0.9443  0.0406  0.4834
  781MOL0     C 2973   4.569   7.736   6.206 -0.3452 -1.4683 -0.0613
  781MOL0     C 2974   4.626   7.622   6.297 -0.7220 -0.4285  0.8013
  781MOL0     C 2975   4.508   7.557   6.372 -0.1960  0.2785  1.1091
  781MOL0     C 2976   4.405   7.480   6.286  1.1202  0.8260  1.1519
  781MOL0     N 2977   4.464   7.351   6.235  0.0842 -0.6792 -0.6946
  781MOL0     C 2978   4.460   7.238   6.315  0.2241  0.1259  0.2675
  781MOL0     C 2979   4.520   7.149   6.236 -0.5227 -0.2641 -0.6794
  781MOL0     C 2980   4.556   7.010   6.284 -0.0013  0.0955  0.2124
  781MOL0     C 2981   4.499   6.950   6.415  0.7465  0.7634 -0.1384
  781MOL0     C 2982   4.356   6.880   6.397 -0.6091 -1.1466 -0.3792
  781MOL0     C 2983   4.248   6.979   6.404 -0.3923  0.2350  0.3948
  781MOL0     O 2984   4.124   6.908   6.416  0.9170 -0.0718 -0.2359
  781MOL0     C 2985   4.043   6.911   6.309  0.1813  0.4495  1.0021
  781MOL0     C 2986   4.048   6.807   6.213 -0.7374  0.3124 -0.0994
  781MOL0     C 2987   3.986   6.812   6.092  0.1520  0.1183  0.4642
  781MOL0     C 2988   3.890   6.914   6.071 -0.6843  0.2115  0.4450
  781MOL0     C 2989   3.817   6.927   5.942 -0.0393  0.9802  0.5053
  781MOL0     O 2990   3.886   6.869   5.841 -0.1747 -0.0705 -0.1264
  781MOL0     C 2991   3.835   6.849   5.718  0.1516 -0.5099 -0.0421
  781MOL0     C 2992   3.902   6.757   5.639 -0.6417  0.4816  1.0224
  781MOL0     C 2993   3.870   6.725   5.504  1.1466 -0.1761  0.0373
  781MOL0     C 2994   3.760   6.790   5.442 -0.1106  0.3681  0.8927
  781MOL0     O 2995   3.705   6.762   5.314  0.1834 -0.2345  0.0265
  781MOL0     C 2996   3.713   6.621   5.276 -0.2728 -0.4007 -0.3693
  781MOL0     C 2997   3.619   6.537   5.368  0.9288 -0.1214  0.8216
  781MOL0     C 2998   3.571   6.408   5.298 -0.5797  0.2403 -0.2162
  781MOL0     C 2999   3.463   6.352   5.381  0.1275 -0.4685 -0.0755
  781MOL0     C 3000   3.396   6.232   5.307 -0.0455  0.4739  0.2781
  781MOL0     C 3001   3.336   6.131   5.416 -0.1267 -0.3872  0.1897
  781MOL0     C 3002   3.217   6.188   5.502 -0.8888 -0.4435  0.4262
  781MOL0     C 3003   3.150   6.091   5.597 -0.6222  0.1609 -0.3410
  781MOL0    Cl 3004   3.274   5.993   5.689 -0.2413 -0.0887  0.5299
  781MOL0     C 3005   3.695   6.892   5.507 -0.5052 -1.2386  0.0949
  781MOL0     C 3006   3.731   6.921   5.644  0.1503 -0.0818  0.0546
  781MOL0     O 3007   3.708   6.982   5.944 -0.3371 -0.0751  0.3645
  781MOL0     C 3008   3.871   6.998   6.178 -0.2030  0.7461  0.7713
  781MOL0     C 3009   3.952   7.005   6.292  0.4145 -0.2348  0.3190
  781MOL0     N 3010   4.545   7.198   6.108  0.1087  0.0901 -0.5281
  781MOL0     N 3011   4.500   7.317   6.112 -0.7882  0.6251  0.4782
  781MOL0     C 3012   4.676   8.062   6.622  0.8394 -0.1183  0.2294
  781MOL0     C 3013   4.631   8.040   6.748  0.5932 -0.5484  0.2805
  781MOL0     C 3014   4.468   8.165   7.171 -0.3714 -0.9719  0.3336
  781MOL0     C 3015   4.512   8.246   7.277  0.1473 -0.1434 -0.3282
  781MOL0     C 3016   4.443   8.244   7.405 -0.4482  0.5398  0.1260
  781MOL0     C 3017   4.339   8.149   7.426  0.9182 -0.3633  0.1606
  781MOL0     O 3018   4.272   8.125   7.545  0.0370  0.1788 -0.0295
  781MOL0     C 3019   4.312   8.156   7.674  0.0077 -0.0806  0.3744
  781MOL0     C 3020   4.267   8.291   7.700  0.2057  0.7463  0.2630
  781MOL0     C 3021   4.262   8.336   7.842 -0.2238  0.0751  0.7270
  781MOL0     C 3022   4.375   8.280   7.927 -0.5842  0.6775 -0.6024
  781MOL0     C 3023   4.349   8.146   7.991 -0.4176 -0.2705 -0.0913
  781MOL0     C 3024   4.333   8.034   8.033 -0.2671 -1.4108  0.2412
  781MOL0     C 3025   4.302   8.071   7.315  0.0390 -1.3461 -0.1129
  781MOL0     C 3026   4.351   8.082   7.185  0.7292 -0.8195 -0.2106
  781MOL0     H 3027   4.432   8.307   6.804  0.5373 -1.9315  2.1031
  781MOL0     H 3028   4.516   8.362   6.569  0.3722 -1.1725 -0.5824
  781MOL0     H 3029   4.837   8.090   6.427  0.3190  2.0250  2.4941
  781MOL0     H 3030   4.807   8.188   6.280  0.2502 -0.4012  0.8450
  781MOL0     H 3031   4.595   8.061   6.227  1.6168  2.8084  1.3276
  781MOL0     H 3032   4.617   7.975   6.385  2.7532  0.7716  2.4716
  781MOL0     H 3033   4.814   7.867   6.297  0.7152  1.0550  0.7475
  781MOL0     H 3034   4.820   7.963   6.150 -2.5095 -2.6207 -3.3265
  781MOL0     H 3035   4.619   7.896   6.077  1.1614  0.1466  0.4159
  781MOL0     H 3036   4.740   7.765   6.074 -1.6015 -0.1187 -2.2260
  781MOL0     H 3037   4.502   7.698   6.128  0.8063 -0.3445 -1.6582
  781MOL0     H 3038   4.516   7.813   6.263 -1.8303 -1.5678 -1.2326
  781MOL0     H 3039   4.700   7.669   6.363  0.0579  1.9174 -1.5267
  781MOL0     H 3040   4.695   7.552   6.249  0.2475  0.4496  0.8732
  781MOL0     H 3041   4.543   7.491   6.451  0.7673 -0.9251 -0.2699
  781MOL0     H 3042   4.441   7.630   6.417 -0.6441 -0.2637  1.3262
  781MOL0     H 3043   4.368   7.546   6.206 -1.4188 -0.6995  0.9431
  781MOL0     H 3044   4.318   7.463   6.350 -0.4349  1.5850 -0.6568
  781MOL0     H 3045   4.420   7.234   6.415 -0.3986  1.7813  0.1135
  781MOL0     H 3046   4.665   7.013   6.292  0.0275  2.2645 -0.3705
  781MOL0     H 3047   4.525   6.940   6.205 -3.6826  1.9687 -0.2089
  781MOL0     H 3048   4.500   7.016   6.502  4.0321  2.3300 -1.2365
  781MOL0     H 3049   4.574   6.871   6.428 -1.2901 -1.3939 -0.6171
  781MOL0     H 3050   4.359   6.827   6.302 -0.3282  0.8799 -1.5709
  781MOL0     H 3051   4.340   6.816   6.484 -0.4571 -1.8373 -0.8557
  781MOL0     H 3052   4.253   7.037   6.312  0.7473  0.8736  0.8374
  781MOL0     H 3053   4.250   7.045   6.492 -0.7799  2.5599 -1.2508
  781MOL0     H 3054   4.113   6.724   6.235 -1.9230 -0.7799 -0.5663
  781MOL0     H 3055   3.988   6.728   6.024 -2.0898 -2.2067  3.0331
  781MOL0     H 3056   3.977   6.696   5.688 -2.5199  0.9809  4.8464
  781MOL0     H 3057   3.942   6.664   5.450  1.2272 -1.6290  1.6781
  781MOL0     H 3058   3.813   6.577   5.283 -0.1214 -0.0051 -0.0057
  781MOL0     H 3059   3.681   6.613   5.172  1.8173  1.1506 -1.1934
  781MOL0     H 3060   3.535   6.601   5.395  0.2182 -1.0917  0.9811
  781MOL0     H 3061   3.671   6.521   5.462  3.0079  1.6134  0.0553
  781MOL0     H 3062   3.647   6.329   5.293  0.1761  0.7103  2.3404
  781MOL0     H 3063   3.542   6.441   5.197 -0.5494  0.0344 -0.2923
  781MOL0     H 3064   3.517   6.323   5.471  1.1980 -0.8155 -0.8079
  781MOL0     H 3065   3.392   6.430   5.413  1.8930  1.2034 -0.0929
  781MOL0     H 3066   3.473   6.178   5.250  1.8342 -0.5724  3.5537
  781MOL0     H 3067   3.319   6.271   5.239  1.1366  2.0437 -0.2459
  781MOL0     H 3068   3.413   6.097   5.486  3.6929  3.6224 -1.6170
  781MOL0     H 3069   3.291   6.047   5.361 -0.0649 -0.1228 -0.2602
  781MOL0     H 3070   3.257   6.267   5.567  0.5935 -1.9956  1.4764
  781MOL0     H 3071   3.140   6.229   5.436  0.0139 -0.8089 -0.9102
  781MOL0     H 3072   3.090   6.026   5.531 -0.7675  0.5394 -0.5831
  781MOL0     H 3073   3.078   6.132   5.667 -0.7818  0.3470 -0.6109
  781MOL0     H 3074   3.635   6.967   5.455  0.2111 -1.2627 -0.8002
  781MOL0     H 3075   3.700   7.016   5.686 -0.3596 -0.5476  0.7605
  781MOL0     H 3076   3.794   7.074   6.167  0.1446  1.2134  1.4758
  781MOL0     H 3077   3.943   7.084   6.365  0.4655 -0.8284  0.9845
  781MOL0     H 3078   4.753   7.993   6.588  1.0659  1.8789 -3.8650
  781MOL0     H 3079   4.649   7.942   6.791  2.1757 -0.7462 -0.7348
  781MOL0     H 3080   4.594   8.317   7.275  3.5422 -3.6905  0.0961
  781MOL0     H 3081   4.481   8.298   7.491 -0.8263  0.1179  0.5601
  781MOL0     H 3082   4.421   8.155   7.677  0.1001  2.8570  1.0753
  781MOL0     H 3083   4.270   8.082   7.743  0.0422 -1.7864 -1.3487
  781MOL0     H 3084   4.334   8.361   7.649  4.3108 -2.7020  0.2789
  781MOL0     H 3085   4.167   8.295   7.656  0.3119 -2.3128 -0.5459
  781MOL0     H 3086   4.166   8.315   7.890  0.2139  0.0008  1.5954
  781MOL0     H 3087   4.265   8.446   7.844 -0.0127  0.0919 -0.1577
  781MOL0     H 3088   4.473   8.283   7.878  0.7600 -2.7986  1.5202
  781MOL0     H 3089   4.386   8.346   8.013 -2.5874 -2.5001  2.3228
  781MOL0     H 3090   4.305   7.938   8.072 -5.5461 -0.0739  0.5143
  781MOL0     H 3091   4.217   8.004   7.323 -1.0901 -0.0989 -1.0589
  781MOL0     H 3092   4.304   8.011   7.118 -1.0863 -1.1140  1.3278
  782MOL0     O 3093   5.338   9.219   1.889  0.2054  0.6729  0.0869
  782MOL0     C 3094   5.223   9.236   1.854  0.0833  0.5269  0.1194
  782MOL0     O 3095   5.116   9.152   1.842  0.6108  0.4322  0.8578
  782MOL0     C 3096   5.141   9.014   1.828  0.2307 -0.7509  0.8435
  782MOL0     C 3097   5.081   8.935   1.914  0.5735 -0.6787 -0.8593
  782MOL0     C 3098   5.103   8.796   1.921 -0.0769  0.0941 -0.0186
  782MOL0     C 3099   5.194   8.731   1.821  0.0942 -0.3393  0.6237
  782MOL0     O 3100   5.234   8.603   1.823  0.5202  0.2164 -0.1863
  782MOL0     C 3101   5.243   8.521   1.702  0.3677  0.2990 -0.7050
  782MOL0     C 3102   5.270   8.377   1.738  0.8900 -0.4268  0.2015
  782MOL0     C 3103   5.412   8.362   1.800  0.9218 -0.1075 -0.0187
  782MOL0     C 3104   5.451   8.221   1.847 -1.0509  1.2018 -0.2138
  782MOL0     C 3105   5.580   8.221   1.925 -0.0634 -0.6963 -0.6515
  782MOL0     C 3106   5.626   8.088   1.972  0.1072  0.6862  0.0924
  782MOL0     C 3107   5.518   8.022   2.064  1.0880 -0.2286 -0.8493
  782MOL0     C 3108   5.552   7.921   2.173  0.4897  0.2629 -0.7837
  782MOL0     N 3109   5.604   7.799   2.114  0.4695  0.7784 -0.0501
  782MOL0     C 3110   5.552   7.675   2.155 -1.0866 -0.2782 -0.1919
  782MOL0     C 3111   5.659   7.584   2.150 -0.1907  0.2307 -0.3334
  782MOL0     C 3112   5.674   7.450   2.205  0.5132 -0.1211  0.6652
  782MOL0     C 3113   5.754   7.457   2.332 -0.0933 -0.4196 -0.0464
  782MOL0     C 3114   5.740   7.324   2.410 -0.4256 -0.2194  0.3398
  782MOL0     C 3115   5.597   7.279   2.440  1.4237 -0.3983 -0.2072
  782MOL0     O 3116   5.520   7.384   2.503  0.0662 -0.1957 -0.3038
  782MOL0     C 3117   5.399   7.428   2.459 -0.1407 -1.4564 -0.1141
  782MOL0     C 3118   5.374   7.571   2.462  0.4432 -0.4046 -0.0866
  782MOL0     C 3119   5.276   7.636   2.384  0.1587 -0.4607  1.5973
  782MOL0     C 3120   5.206   7.558   2.293  0.1261  0.3391  0.4211
  782MOL0     C 3121   5.133   7.626   2.175 -0.6150  0.3840 -0.1063
  782MOL0     O 3122   5.171   7.753   2.155 -0.4322  0.1367 -0.3060
  782MOL0     C 3123   5.119   7.825   2.052 -0.4931 -0.9526 -0.1157
  782MOL0     C 3124   5.162   7.963   2.074 -0.3584 -0.7720 -0.2925
  782MOL0     C 3125   5.119   8.071   1.995  1.1047 -0.1005  0.8511
  782MOL0     C 3126   5.029   8.046   1.887  0.5710  0.8729 -0.6249
  782MOL0     O 3127   4.977   8.154   1.820 -0.6666  0.6877 -0.2818
  782MOL0     C 3128   4.919   8.126   1.691 -0.0128  0.4133  0.7079
  782MOL0     C 3129   4.921   8.262   1.613 -0.3170  1.0496 -0.3034
  782MOL0     C 3130   4.805   8.354   1.647  0.0547 -0.1454  0.2935
  782MOL0     C 3131   4.835   8.498   1.620  0.4595 -0.4803  0.3287
  782MOL0     C 3132   4.726   8.606   1.670  0.7184 -0.4563 -0.3463
  782MOL0     C 3133   4.769   8.750   1.646  1.5234  0.0319 -0.1738
  782MOL0     C 3134   4.743   8.798   1.495 -1.2057  0.8111  0.0459
  782MOL0     C 3135   4.708   8.944   1.490 -0.1464 -0.0315 -0.4036
  782MOL0    Cl 3136   4.843   9.035   1.582  0.0323 -0.1467  0.3831
  782MOL0     C 3137   4.977   7.915   1.878 -0.3182  1.0451 -0.0597
  782MOL0     C 3138   5.020   7.808   1.953 -0.6280  0.6703  0.6285
  782MOL0     O 3139   5.055   7.564   2.109 -0.3410 -0.6351 -0.1870
  782MOL0     C 3140   5.218   7.413   2.292 -0.4079 -0.0775 -0.5104
  782MOL0     C 3141   5.313   7.353   2.378  0.2162 -0.0121  1.7907
  782MOL0     N 3142   5.764   7.651   2.090 -0.0730 -0.4986 -0.3461
  782MOL0     N 3143   5.723   7.775   2.067 -0.3020 -0.5165  0.0680
  782MOL0     C 3144   5.256   8.821   1.728 -0.2513 -0.0023  0.5177
  782MOL0     C 3145   5.226   8.961   1.728 -0.4132  0.2989 -0.3814
  782MOL0     C 3146   5.187   9.373   1.817  0.8515 -0.4671  0.9128
  782MOL0     C 3147   5.064   9.398   1.742  0.0600 -0.1622  0.1496
  782MOL0     C 3148   5.021   9.529   1.719 -0.2101  0.4136  0.2371
  782MOL0     C 3149   5.103   9.629   1.757 -0.0350  0.1925  0.7443
  782MOL0     O 3150   5.052   9.760   1.743  0.4931  0.9585  0.4878
  782MOL0     C 3151   4.964   9.813   1.839  0.4053 -0.1422 -0.3756
  782MOL0     C 3152   4.857   9.905   1.790  0.3686  0.0652 -0.6960
  782MOL0     C 3153   4.756   9.946   1.893  0.2763  0.6004  0.0475
  782MOL0     C 3154   4.818  10.055   1.980 -0.1999 -0.4246  0.2088
  782MOL0     C 3155   4.820  10.197   1.932 -0.0590  0.9065  0.2186
  782MOL0     C 3156   4.830  10.311   1.908  0.3884 -0.4585 -0.8004
  782MOL0     C 3157   5.215   9.609   1.833  0.6393  0.7151  1.0310
  782MOL0     C 3158   5.258   9.484   1.859 -0.6196  0.5228 -0.2546
  782MOL0     H 3159   5.024   8.978   1.996  3.3516  1.1051  0.2737
  782MOL0     H 3160   5.051   8.733   1.993 -2.1082 -2.9537 -3.7686
  782MOL0     H 3161   5.323   8.551   1.634  2.4639 -3.7109 -0.3152
  782MOL0     H 3162   5.160   8.531   1.631 -0.7064 -0.4572  0.4143
  782MOL0     H 3163   5.263   8.330   1.639  2.5733 -3.7322  1.4956
  782MOL0     H 3164   5.186   8.343   1.800  0.1661 -0.9507 -1.0264
  782MOL0     H 3165   5.419   8.429   1.886 -1.1247  2.3928 -1.6682
  782MOL0     H 3166   5.477   8.401   1.722 -2.4736  0.9678 -2.5465
  782MOL0     H 3167   5.370   8.174   1.903  1.6766  0.1821  3.3188
  782MOL0     H 3168   5.461   8.157   1.760 -1.5795 -2.5847  2.2706
  782MOL0     H 3169   5.564   8.283   2.013  0.2171 -0.5912 -0.6741
  782MOL0     H 3170   5.655   8.273   1.865  0.2798  1.5342  1.5249
  782MOL0     H 3171   5.720   8.097   2.027 -0.7141  1.9207  1.3636
  782MOL0     H 3172   5.645   8.015   1.892 -0.0246 -3.0667  3.1790
  782MOL0     H 3173   5.461   8.103   2.110 -0.4720  0.1843 -3.3149
  782MOL0     H 3174   5.442   7.980   1.996 -0.4752  0.7914  0.2193
  782MOL0     H 3175   5.456   7.897   2.219  0.9781  0.9612  0.6714
  782MOL0     H 3176   5.614   7.947   2.260 -0.3992 -3.0138  1.0081
  782MOL0     H 3177   5.449   7.675   2.190 -1.4564  3.4147 -0.8950
  782MOL0     H 3178   5.720   7.379   2.137  0.7505  1.9107 -1.4356
  782MOL0     H 3179   5.571   7.414   2.213 -0.3770  2.6011  5.2481
  782MOL0     H 3180   5.718   7.539   2.395  1.8237  1.1921 -0.9388
  782MOL0     H 3181   5.860   7.477   2.316 -0.0452 -1.1943 -0.7333
  782MOL0     H 3182   5.797   7.245   2.360  2.3197  2.6356 -1.3368
  782MOL0     H 3183   5.783   7.338   2.509 -1.6528  2.2458  0.5985
  782MOL0     H 3184   5.604   7.187   2.499 -3.5832 -2.3882 -2.1936
  782MOL0     H 3185   5.563   7.253   2.340 -0.0179  2.0015 -0.4110
  782MOL0     H 3186   5.428   7.622   2.542  0.0939 -2.7609  1.7722
  782MOL0     H 3187   5.268   7.744   2.391  2.9599  0.1152 -1.3496
  782MOL0     H 3188   5.231   7.988   2.154 -1.5742  0.8705  0.2864
  782MOL0     H 3189   5.145   8.176   2.009  1.9343 -0.0444 -0.8706
  782MOL0     H 3190   4.819   8.083   1.700  0.1467 -0.2313 -0.4145
  782MOL0     H 3191   4.983   8.061   1.631  0.1385  0.5037  0.7686
  782MOL0     H 3192   4.913   8.231   1.508 -2.9486 -2.5863  0.7562
  782MOL0     H 3193   5.018   8.302   1.645  0.3640 -0.9828  0.3309
  782MOL0     H 3194   4.800   8.355   1.756 -2.2559  1.1117  0.2529
  782MOL0     H 3195   4.710   8.322   1.604 -0.7554 -0.5553  2.2706
  782MOL0     H 3196   4.934   8.523   1.659  1.3818 -0.8725 -1.6616
  782MOL0     H 3197   4.840   8.512   1.511  1.4137 -1.4345  0.2316
  782MOL0     H 3198   4.714   8.599   1.779  3.1427  0.3593  0.0247
  782MOL0     H 3199   4.632   8.585   1.618  0.6380 -0.6775 -0.1141
  782MOL0     H 3200   4.874   8.764   1.674  1.6051  1.2386 -1.0274
  782MOL0     H 3201   4.711   8.819   1.710  0.8329 -0.7946  0.1163
  782MOL0     H 3202   4.840   8.784   1.446 -0.9201 -1.5423  1.1352
  782MOL0     H 3203   4.679   8.737   1.432  0.0821 -0.7751  0.2037
  782MOL0     H 3204   4.613   8.976   1.533 -0.4335  0.6708 -1.5244
  782MOL0     H 3205   4.697   8.983   1.389 -3.3541  3.0503  0.9255
  782MOL0     H 3206   4.915   7.887   1.793 -0.8458  0.1768  0.5924
  782MOL0     H 3207   4.963   7.718   1.931  1.1713 -0.8926  2.0438
  782MOL0     H 3208   5.157   7.357   2.222 -1.2286 -0.1621  0.2581
  782MOL0     H 3209   5.325   7.246   2.366  1.6259  0.1292  1.6872
  782MOL0     H 3210   5.338   8.793   1.662  1.4866  3.5449  0.9489
  782MOL0     H 3211   5.260   9.038   1.660 -0.1289  2.3692  1.9282
  782MOL0     H 3212   5.003   9.314   1.709 -0.9025  0.9950 -1.1311
  782MOL0     H 3213   4.933   9.561   1.665 -0.2105  0.5927  0.3441
  782MOL0     H 3214   5.014   9.875   1.914  0.8096  0.4361 -1.1210
  782MOL0     H 3215   4.920   9.726   1.889 -0.0318  0.3854  0.1655
  782MOL0     H 3216   4.906   9.996   1.754  0.4735 -0.0652 -0.8867
  782MOL0     H 3217   4.801   9.868   1.704 -1.1799  0.0910  0.2674
  782MOL0     H 3218   4.738   9.854   1.950  3.0433 -1.6909 -2.4389
  782MOL0     H 3219   4.665   9.991   1.853 -0.8750 -0.2463  1.5856
  782MOL0     H 3220   4.758  10.063   2.071  0.5874  1.3878  0.6048
  782MOL0     H 3221   4.918  10.030   2.015  0.4891  0.1859 -1.2336
  782MOL0     H 3222   4.832  10.417   1.895 -4.5114 -0.2140 -1.5788
  782MOL0     H 3223   5.258   9.694   1.885  0.6703  2.2070 -1.2800
  782MOL0     H 3224   5.339   9.475   1.930 -2.5310 -2.5229  1.7514
  783MOL0     O 3225   8.759   5.481   0.565  0.5388  0.5499  0.0060
  783MOL0     C 3226   8.743   5.597   0.600  0.8084  0.5667 -0.4971
  783MOL0     O 3227   8.622   5.655   0.611  0.1944  0.5327  0.5937
  783MOL0     C 3228   8.502   5.581   0.589 -0.1124 -0.5882 -0.3884
  783MOL0     C 3229   8.483   5.451   0.556  0.1247  0.6106  0.2820
  783MOL0     C 3230   8.352   5.390   0.558  0.8957 -0.2219 -0.2197
  783MOL0     C 3231   8.235   5.471   0.568 -0.2841  0.7675  0.8074
  783MOL0     O 3232   8.112   5.407   0.551  0.2283 -0.4945 -0.5597
  783MOL0     C 3233   7.999   5.492   0.521  1.4623 -0.3397 -0.1223
  783MOL0     C 3234   7.876   5.407   0.520  0.8105 -0.0350  0.3463
  783MOL0     C 3235   7.855   5.313   0.403  1.1892 -0.5561  0.7160
  783MOL0     C 3236   7.839   5.381   0.262 -0.0668  0.2325  0.0037
  783MOL0     C 3237   7.959   5.330   0.162 -0.3568  0.1499  0.3941
  783MOL0     C 3238   8.092   5.401   0.191 -0.6703 -0.6602 -0.1828
  783MOL0     C 3239   8.202   5.347   0.105  0.2779 -0.6623  0.7472
  783MOL0     C 3240   8.259   5.215   0.150 -0.1833 -0.3949 -0.3138
  783MOL0     N 3241   8.356   5.166   0.049  1.3774 -0.8957  0.2640
  783MOL0     C 3242   8.486   5.212   0.047  0.3835 -0.1370 -0.6209
  783MOL0     C 3243   8.545   5.134  -0.042 -0.1633  0.2480 -0.2917
  783MOL0     C 3244   8.681   5.159  -0.103  0.1527  0.0814 -0.3494
  783MOL0     C 3245   8.703   5.305  -0.158 -0.0389 -0.9927  0.6148
  783MOL0     C 3246   8.601   5.335  -0.276  0.0053  0.1378  0.2188
  783MOL0     C 3247   8.481   5.417  -0.235 -0.1328  0.5741 -0.1333
  783MOL0     O 3248   8.388   5.414  -0.348  0.2425  0.5338  0.7658
  783MOL0     C 3249   8.260   5.424  -0.308  0.3381 -0.8863 -0.1149
  783MOL0     C 3250   8.208   5.548  -0.250  1.1155 -0.7777 -0.0893
  783MOL0     C 3251   8.069   5.553  -0.222 -0.8495  0.2557 -0.7262
  783MOL0     C 3252   7.979   5.438  -0.235 -0.1032  0.7023  0.2940
  783MOL0     C 3253   7.838   5.442  -0.199 -0.2665  0.4537  1.5800
  783MOL0     O 3254   7.770   5.563  -0.215 -0.0426  1.0312  0.5984
  783MOL0     C 3255   7.641   5.570  -0.167  0.6153  0.3181 -0.2229
  783MOL0     C 3256   7.552   5.631  -0.265  0.0600  1.0107  0.3356
  783MOL0     C 3257   7.418   5.656  -0.218 -1.0274 -0.0591  0.3076
  783MOL0     C 3258   7.373   5.615  -0.091 -0.0466 -0.3393  0.2132
  783MOL0     O 3259   7.246   5.617  -0.044 -0.0853 -0.4508 -0.4676
  783MOL0     C 3260   7.153   5.701  -0.120 -0.9730 -0.5289  0.4418
  783MOL0     C 3261   7.009   5.705  -0.067  0.2762  0.1605 -0.4968
  783MOL0     C 3262   6.928   5.803  -0.143  0.2878 -0.5138  0.0500
  783MOL0     C 3263   6.854   5.728  -0.250 -0.4191 -0.3191  0.2296
  783MOL0     C 3264   6.701   5.714  -0.201 -0.4398  0.5390 -1.1710
  783MOL0     C 3265   6.689   5.658  -0.051  0.0822 -0.1966  0.3822
  783MOL0     C 3266   6.540   5.661  -0.009  0.0108  1.6096  0.5420
  783MOL0     C 3267   6.523   5.627   0.139  0.2356 -0.4754 -1.0620
  783MOL0    Cl 3268   6.359   5.645   0.206 -0.3292 -0.1707  0.3723
  783MOL0     C 3269   7.466   5.548  -0.009  0.4052  0.6785  0.4151
  783MOL0     C 3270   7.596   5.522  -0.050  0.3671 -0.1033 -0.4318
  783MOL0     O 3271   7.786   5.342  -0.148 -0.6682 -0.2825  0.3975
  783MOL0     C 3272   8.044   5.312  -0.271 -0.5618  0.7769 -0.7231
  783MOL0     C 3273   8.183   5.309  -0.309 -0.0157  0.7503  0.2360
  783MOL0     N 3274   8.453   5.034  -0.083 -0.2955  0.0742  0.2259
  783MOL0     N 3275   8.347   5.053  -0.022 -0.4102  0.6183 -0.2491
  783MOL0     C 3276   8.254   5.605   0.578  0.8147 -0.2582 -0.1287
  783MOL0     C 3277   8.383   5.659   0.593 -0.3422  0.5410 -1.3289
  783MOL0     C 3278   8.853   5.682   0.626 -0.1185  0.0563  0.6864
  783MOL0     C 3279   8.978   5.625   0.634 -0.5373 -0.5767  0.0982
  783MOL0     C 3280   9.090   5.710   0.645  0.9519 -0.3650 -0.4460
  783MOL0     C 3281   9.080   5.849   0.626 -0.8964 -0.2874 -0.3385
  783MOL0     O 3282   9.203   5.917   0.623  0.1674 -0.2996 -0.6331
  783MOL0     C 3283   9.205   6.054   0.593 -0.1772 -0.8736  0.1105
  783MOL0     C 3284   9.337   6.115   0.644  0.2685 -0.1572  0.0045
  783MOL0     C 3285   9.460   6.037   0.589  0.4095 -0.3878  0.6269
  783MOL0     C 3286   9.596   6.115   0.597  0.1315 -0.0374  0.6974
  783MOL0     C 3287   9.622   6.156   0.738 -0.1684  0.5601  0.5594
  783MOL0     C 3288   9.650   6.170   0.855 -0.2560 -0.2834 -0.5506
  783MOL0     C 3289   8.953   5.901   0.608 -0.1080 -0.2193  0.5670
  783MOL0     C 3290   8.843   5.823   0.602  0.0472 -0.4058 -0.0067
  783MOL0     H 3291   8.565   5.381   0.540  0.1496  0.4587  1.0402
  783MOL0     H 3292   8.342   5.284   0.541 -4.0420  0.1095 -0.8002
  783MOL0     H 3293   8.021   5.557   0.437  1.4783  0.2068  0.2988
  783MOL0     H 3294   7.976   5.554   0.608 -1.5207  0.5502 -1.4028
  783MOL0     H 3295   7.789   5.473   0.528 -0.1820 -1.0774 -1.3115
  783MOL0     H 3296   7.872   5.351   0.613  2.2545  0.8868  1.0003
  783MOL0     H 3297   7.762   5.256   0.416 -0.3008  1.8047  1.0379
  783MOL0     H 3298   7.951   5.261   0.408  1.9075  0.3523 -1.9458
  783MOL0     H 3299   7.741   5.347   0.227 -0.4279  1.2786 -0.0604
  783MOL0     H 3300   7.825   5.489   0.251 -1.4514 -0.1229 -2.6093
  783MOL0     H 3301   7.945   5.365   0.059 -0.7232 -1.2638 -0.0547
  783MOL0     H 3302   7.957   5.221   0.163 -0.0926  0.1474  0.6730
  783MOL0     H 3303   8.137   5.388   0.290  1.2036  3.4700 -0.2814
  783MOL0     H 3304   8.077   5.509   0.189  1.2802 -0.3558 -0.4210
  783MOL0     H 3305   8.181   5.354  -0.002  1.4334  0.2140  0.5616
  783MOL0     H 3306   8.283   5.418   0.123 -1.1908  0.8835  1.5294
  783MOL0     H 3307   8.181   5.141   0.169  0.1631 -0.5911  0.4115
  783MOL0     H 3308   8.312   5.215   0.246  2.3687  0.3995 -1.6304
  783MOL0     H 3309   8.531   5.293   0.103  0.2746 -0.3447 -0.2265
  783MOL0     H 3310   8.699   5.094  -0.190  1.0877 -2.7926  1.8125
  783MOL0     H 3311   8.755   5.138  -0.025 -0.4305 -1.7477 -0.2353
  783MOL0     H 3312   8.805   5.299  -0.198 -0.3049  0.0479 -0.2621
  783MOL0     H 3313   8.696   5.378  -0.077 -0.4278  1.0071 -1.1561
  783MOL0     H 3314   8.655   5.392  -0.352 -0.2654 -1.1830 -1.0172
  783MOL0     H 3315   8.577   5.243  -0.331 -1.3416  0.2512  0.5645
  783MOL0     H 3316   8.513   5.519  -0.212 -0.5648  0.9547 -1.1458
  783MOL0     H 3317   8.443   5.387  -0.137 -1.6944  0.6045 -0.6925
  783MOL0     H 3318   8.264   5.641  -0.255  0.4834 -0.4337 -1.1655
  783MOL0     H 3319   8.028   5.645  -0.182 -0.7478 -0.0906  0.2040
  783MOL0     H 3320   7.588   5.668  -0.361  0.7202  2.1734  1.0070
  783MOL0     H 3321   7.351   5.712  -0.283  0.5792  0.9399 -0.5511
  783MOL0     H 3322   7.152   5.682  -0.227  1.0491  2.2668 -0.2088
  783MOL0     H 3323   7.188   5.803  -0.102 -0.8650  0.0156 -2.4462
  783MOL0     H 3324   7.017   5.742   0.036 -1.3064 -0.9255  0.0448
  783MOL0     H 3325   6.965   5.605  -0.064  0.7521 -0.0328  0.4367
  783MOL0     H 3326   6.997   5.876  -0.186  0.5629 -1.2036 -0.7056
  783MOL0     H 3327   6.861   5.869  -0.087 -1.5118 -1.3340 -1.0462
  783MOL0     H 3328   6.859   5.768  -0.352 -0.8277 -0.0187  0.3246
  783MOL0     H 3329   6.892   5.626  -0.256  2.2429  0.6728 -1.4714
  783MOL0     H 3330   6.643   5.643  -0.260  0.8431  0.0055 -1.8248
  783MOL0     H 3331   6.655   5.812  -0.211  0.1378  0.7454 -1.8279
  783MOL0     H 3332   6.752   5.731   0.000  2.8479 -0.2835 -2.5793
  783MOL0     H 3333   6.732   5.559  -0.034  0.3688  0.0073  0.8560
  783MOL0     H 3334   6.496   5.759  -0.030  1.4318  2.2174  0.2576
  783MOL0     H 3335   6.484   5.584  -0.064  1.0471 -0.0545  1.7163
  783MOL0     H 3336   6.598   5.685   0.194 -1.3750  1.9772 -1.2967
  783MOL0     H 3337   6.553   5.523   0.153  0.0391 -0.6099 -1.6176
  783MOL0     H 3338   7.428   5.510   0.085  1.0044 -1.9194 -0.3108
  783MOL0     H 3339   7.666   5.478   0.020 -0.6867 -0.7435  0.2358
  783MOL0     H 3340   7.981   5.225  -0.282  0.0244  0.5489 -2.7437
  783MOL0     H 3341   8.223   5.213  -0.340 -2.2593  0.2778 -1.4567
  783MOL0     H 3342   8.172   5.674   0.560  1.3031  1.2826  2.9877
  783MOL0     H 3343   8.399   5.764   0.618 -0.1293  0.3147 -0.5106
  783MOL0     H 3344   9.000   5.519   0.640  5.2892  0.3161  0.9601
  783MOL0     H 3345   9.188   5.672   0.672 -0.2931 -0.4456  5.2543
  783MOL0     H 3346   9.118   6.104   0.637  1.5292  0.1158  2.5987
  783MOL0     H 3347   9.200   6.073   0.485  2.8884  1.3895  0.2332
  783MOL0     H 3348   9.343   6.222   0.623  1.7779 -0.4984 -1.5929
  783MOL0     H 3349   9.344   6.110   0.753 -1.8354 -0.8655  0.1369
  783MOL0     H 3350   9.443   6.001   0.488  0.2358  0.3380  0.3958
  783MOL0     H 3351   9.481   5.952   0.656  3.1591  3.2456  5.0340
  783MOL0     H 3352   9.678   6.057   0.555  1.5840  1.2623  1.6305
  783MOL0     H 3353   9.581   6.208   0.541  1.0494  1.0024  2.1035
  783MOL0     H 3354   9.682   6.156   0.957  1.3252 -4.8613 -1.4527
  783MOL0     H 3355   8.938   6.008   0.594  2.1185  0.1249  0.4251
  783MOL0     H 3356   8.748   5.868   0.575  0.3001  2.0107  2.6721
  784MOL0     O 3357   5.149   8.061   7.115 -0.3777  0.0409  0.8292
  784MOL0     C 3358   5.133   7.992   7.015 -0.5175  0.5531 -0.5476
  784MOL0     O 3359   5.101   8.040   6.889 -0.4713 -0.5656 -0.0694
  784MOL0     C 3360   5.050   8.164   6.886  0.4232  0.2189 -0.6312
  784MOL0     C 3361   5.134   8.272   6.903  0.1591  0.0854  0.2423
  784MOL0     C 3362   5.071   8.401   6.894 -0.0530 -0.4675 -0.5245
  784MOL0     C 3363   4.937   8.422   6.887 -0.1606  0.2174  0.6954
  784MOL0     O 3364   4.878   8.541   6.897 -0.1048  0.3411 -0.6669
  784MOL0     C 3365   4.738   8.558   6.885 -0.1149  0.5323  1.0548
  784MOL0     C 3366   4.727   8.708   6.867  0.3295 -0.5951  0.2766
  784MOL0     C 3367   4.811   8.786   6.769  0.1234  0.6560 -0.2214
  784MOL0     C 3368   4.766   8.935   6.772 -1.1712 -0.4073  0.0715
  784MOL0     C 3369   4.874   9.007   6.691  0.0585 -0.2303 -0.5285
  784MOL0     C 3370   4.824   9.141   6.656 -0.5575 -0.4366  0.2996
  784MOL0     C 3371   4.810   9.243   6.775  0.8586  0.5205 -0.1634
  784MOL0     C 3372   4.749   9.378   6.732 -0.0404  1.0893 -0.8736
  784MOL0     N 3373   4.814   9.463   6.634  0.0841 -0.6893  0.6911
  784MOL0     C 3374   4.922   9.551   6.669 -0.6770  1.0223 -0.5044
  784MOL0     C 3375   4.960   9.615   6.557  1.0287  0.7836  0.1409
  784MOL0     C 3376   5.065   9.716   6.548 -0.0221 -0.6583  0.1198
  784MOL0     C 3377   5.199   9.664   6.592 -0.2529  0.9338 -0.2477
  784MOL0     C 3378   5.289   9.783   6.579  0.7059 -0.3728 -0.1481
  784MOL0     C 3379   5.315   9.850   6.444 -0.6609 -0.6752  0.4708
  784MOL0     O 3380   5.374   9.772   6.345 -0.1786 -0.8953 -0.2545
  784MOL0     C 3381   5.452   9.831   6.249 -0.0163  0.2772 -0.0321
  784MOL0     C 3382   5.593   9.823   6.259  0.1140  0.3330 -0.9250
  784MOL0     C 3383   5.672   9.878   6.158  0.2112  0.1991 -0.2099
  784MOL0     C 3384   5.615   9.945   6.049 -0.1378  0.1737  0.3079
  784MOL0     C 3385   5.705  10.005   5.941 -0.0675 -0.1052  0.6194
  784MOL0     O 3386   5.839   9.998   5.963 -0.3769  1.4011  0.2681
  784MOL0     C 3387   5.916  10.065   5.872 -0.8562  0.2325 -0.0491
  784MOL0     C 3388   5.923  10.199   5.898 -0.4267 -1.2036  0.1884
  784MOL0     C 3389   6.023  10.275   5.830  0.0370  0.2507  0.7197
  784MOL0     C 3390   6.112  10.216   5.740  0.6188 -0.1630 -0.6072
  784MOL0     O 3391   6.219  10.292   5.700  0.4762 -0.0344 -0.2102
  784MOL0     C 3392   6.186  10.372   5.581  0.1435  0.6882 -0.6071
  784MOL0     C 3393   6.299  10.351   5.478 -0.1005 -0.1866  1.5337
  784MOL0     C 3394   6.283  10.434   5.345 -0.3597  0.0630 -0.9531
  784MOL0     C 3395   6.385  10.411   5.242 -0.4446 -0.1544 -0.0721
  784MOL0     C 3396   6.324  10.445   5.097  0.9991 -0.4104 -0.1678
  784MOL0     C 3397   6.422  10.418   4.979  0.4028 -0.1562 -0.1257
  784MOL0     C 3398   6.346  10.462   4.855 -0.6487  1.1909 -0.2275
  784MOL0     C 3399   6.401  10.392   4.731 -1.7323  0.5906 -0.4398
  784MOL0    Cl 3400   6.581  10.366   4.731  0.1606 -0.1511  0.1034
  784MOL0     C 3401   6.096  10.079   5.707  0.2501 -0.2664 -0.0267
  784MOL0     C 3402   5.997  10.003   5.779  0.1753 -0.1839  1.0784
  784MOL0     O 3403   5.658  10.057   5.841  1.0421 -0.1622  1.1412
  784MOL0     C 3404   5.474   9.956   6.040  0.1887  0.6306 -0.8086
  784MOL0     C 3405   5.390   9.901   6.145 -1.0651 -1.2505  0.7431
  784MOL0     N 3406   4.878   9.572   6.450  0.2720 -0.2135  0.8712
  784MOL0     N 3407   4.782   9.492   6.499  0.1498 -0.5982 -0.1913
  784MOL0     C 3408   4.864   8.311   6.847 -0.3438  0.4031 -0.8598
  784MOL0     C 3409   4.927   8.187   6.843  0.0551  0.6440  0.7156
  784MOL0     C 3410   5.162   7.847   7.027 -0.2809 -0.9165 -0.5683
  784MOL0     C 3411   5.190   7.792   7.154 -0.4837  0.5227  0.0787
  784MOL0     C 3412   5.209   7.653   7.167  0.3497 -0.7302 -0.5620
  784MOL0     C 3413   5.214   7.572   7.056  0.1051  0.5312 -0.8712
  784MOL0     O 3414   5.227   7.441   7.095  0.4845 -0.3539  0.2028
  784MOL0     C 3415   5.293   7.353   7.003  0.1070  0.1280  0.5504
  784MOL0     C 3416   5.445   7.353   7.011  0.1132  0.1749  0.2113
  784MOL0     C 3417   5.501   7.347   7.158  0.4079  0.0330  0.7514
  784MOL0     C 3418   5.630   7.272   7.167 -0.1599  0.2649  0.0554
  784MOL0     C 3419   5.606   7.132   7.121 -0.1220 -1.1836 -0.1391
  784MOL0     C 3420   5.609   7.020   7.084  0.6064 -0.8507  0.1606
  784MOL0     C 3421   5.194   7.633   6.926 -0.6831  1.0041  0.2025
  784MOL0     C 3422   5.157   7.768   6.907 -0.2955 -0.5197  0.5281
  784MOL0     H 3423   5.240   8.249   6.910 -0.4476 -2.6575  1.6461
  784MOL0     H 3424   5.141   8.484   6.891  0.2586 -0.7257 -0.4351
  784MOL0     H 3425   4.692   8.508   6.971 -1.3683 -0.4234 -0.1226
  784MOL0     H 3426   4.694   8.506   6.799  1.2397  0.6839  0.2448
  784MOL0     H 3427   4.744   8.751   6.966 -0.2439 -2.1011  1.0684
  784MOL0     H 3428   4.620   8.715   6.845  0.7051 -0.6881 -1.7862
  784MOL0     H 3429   4.799   8.747   6.668 -2.9041  2.2994 -0.6093
  784MOL0     H 3430   4.914   8.777   6.805 -0.2556  0.4526  0.8461
  784MOL0     H 3431   4.659   8.937   6.747 -1.4127 -0.9030  1.0188
  784MOL0     H 3432   4.782   8.969   6.875  0.2203  0.4310 -0.3914
  784MOL0     H 3433   4.905   8.946   6.606  0.5031  0.6868 -1.0254
  784MOL0     H 3434   4.965   9.031   6.748 -0.9423 -1.2703  1.6674
  784MOL0     H 3435   4.724   9.129   6.614 -1.4437 -0.2639  2.2609
  784MOL0     H 3436   4.877   9.189   6.573 -3.6014  0.3690 -1.3043
  784MOL0     H 3437   4.741   9.209   6.854  2.1377  1.1686  1.2850
  784MOL0     H 3438   4.906   9.263   6.824  1.3728  1.9599 -1.6897
  784MOL0     H 3439   4.725   9.436   6.822  0.4996 -0.5751  0.3973
  784MOL0     H 3440   4.656   9.358   6.677 -1.4920 -1.1203  2.1052
  784MOL0     H 3441   4.974   9.573   6.761  2.1889 -0.2331 -1.7081
  784MOL0     H 3442   5.036   9.808   6.600  0.3180  0.0810 -0.9662
  784MOL0     H 3443   5.069   9.753   6.445  1.2943  1.6120  0.9036
  784MOL0     H 3444   5.232   9.568   6.553 -0.6758 -0.2896  2.1967
  784MOL0     H 3445   5.199   9.632   6.697 -0.8593  2.1460  0.1360
  784MOL0     H 3446   5.242   9.854   6.649 -0.6605 -1.0209 -0.3677
  784MOL0     H 3447   5.386   9.762   6.624  1.5332  2.2912 -0.5186
  784MOL0     H 3448   5.368   9.944   6.463 -0.6441 -1.1135  2.9798
  784MOL0     H 3449   5.226   9.889   6.395  1.6675  3.5950 -0.9600
  784MOL0     H 3450   5.635   9.782   6.350 -3.0520 -1.9403 -0.3004
  784MOL0     H 3451   5.778   9.888   6.177 -0.0239  3.2178  0.0374
  784MOL0     H 3452   5.869  10.242   5.982  0.8169 -1.8642  1.3599
  784MOL0     H 3453   6.016  10.381   5.852 -0.5073  0.0536  1.5350
  784MOL0     H 3454   6.191  10.480   5.598 -0.2142  0.4775  0.9676
  784MOL0     H 3455   6.090  10.350   5.533 -0.6591  3.4057 -0.4639
  784MOL0     H 3456   6.303  10.244   5.456  4.0017 -0.2485  1.7191
  784MOL0     H 3457   6.391  10.383   5.528  0.4736  2.6448 -1.0628
  784MOL0     H 3458   6.283  10.540   5.370  0.0024 -0.2792  0.6467
  784MOL0     H 3459   6.184  10.406   5.309 -0.4757  0.6320 -1.0738
  784MOL0     H 3460   6.473  10.469   5.270  0.5372 -1.3569 -0.5568
  784MOL0     H 3461   6.420  10.307   5.243  1.6536  0.4794 -0.9502
  784MOL0     H 3462   6.299  10.551   5.103  1.4742 -0.2274 -1.3024
  784MOL0     H 3463   6.231  10.390   5.079  0.8412  0.5151 -2.5124
  784MOL0     H 3464   6.452  10.313   4.977 -1.7424 -0.9213 -3.8352
  784MOL0     H 3465   6.509  10.483   4.993 -0.1079  0.1825  1.8071
  784MOL0     H 3466   6.238  10.452   4.865 -1.1756  3.5638 -2.4153
  784MOL0     H 3467   6.357  10.569   4.832  2.3173  1.0564  0.1450
  784MOL0     H 3468   6.371  10.436   4.636  1.3575  0.0249 -1.7865
  784MOL0     H 3469   6.360  10.291   4.718 -0.2754 -0.1304  0.2734
  784MOL0     H 3470   6.160  10.030   5.633  1.0995  0.2845  0.3260
  784MOL0     H 3471   5.988   9.900   5.745 -1.4234  0.7317 -1.6465
  784MOL0     H 3472   5.435  10.014   5.957  0.9270 -1.0300 -2.3832
  784MOL0     H 3473   5.282   9.904   6.138 -1.0817  0.1134  1.2485
  784MOL0     H 3474   4.756   8.310   6.842 -0.5578 -0.9742  1.8751
  784MOL0     H 3475   4.872   8.098   6.811  3.0420 -1.6830  1.5776
  784MOL0     H 3476   5.210   7.854   7.241  4.1314 -0.4169 -0.0912
  784MOL0     H 3477   5.225   7.609   7.265  3.8747 -2.6817 -1.8019
  784MOL0     H 3478   5.265   7.379   6.900 -1.8724 -2.3328  0.3745
  784MOL0     H 3479   5.256   7.254   7.033 -0.5250  0.5307  1.1066
  784MOL0     H 3480   5.474   7.265   6.952 -2.2476 -2.1523  2.2284
  784MOL0     H 3481   5.485   7.447   6.973 -0.0675  0.5695  0.9854
  784MOL0     H 3482   5.431   7.312   7.235 -3.3883 -0.0935 -2.4398
  784MOL0     H 3483   5.526   7.451   7.184  4.8147  0.0497 -2.3190
  784MOL0     H 3484   5.705   7.323   7.106 -2.4305  0.4505 -2.7582
  784MOL0     H 3485   5.665   7.273   7.271  2.2894  1.6037 -0.6921
  784MOL0     H 3486   5.620   6.932   7.024  2.9430 -1.1666  0.9546
  784MOL0     H 3487   5.167   7.571   6.841 -0.4660 -1.4028  1.7855
  784MOL0     H 3488   5.143   7.806   6.807  0.3429 -2.4102 -0.3169
  785MOL0     O 3489   3.331   3.797   0.289 -0.0606 -0.0368  0.7942
  785MOL0     C 3490   3.383   3.717   0.368 -0.3210  0.4743  0.1454
  785MOL0     O 3491   3.318   3.652   0.466  0.7638  0.8552  0.5661
  785MOL0     C 3492   3.183   3.665   0.488  0.1385 -0.3678 -0.8875
  785MOL0     C 3493   3.146   3.717   0.617 -0.0621  0.1381  0.5289
  785MOL0     C 3494   3.017   3.756   0.651  0.7578 -0.4552  0.3635
  785MOL0     C 3495   2.913   3.734   0.558 -0.2349  0.5733  0.7294
  785MOL0     O 3496   2.784   3.764   0.604 -0.4028  0.1562  0.3351
  785MOL0     C 3497   2.675   3.696   0.541  0.5100 -0.5882 -0.0590
  785MOL0     C 3498   2.539   3.771   0.576  0.1462 -0.6577  0.7302
  785MOL0     C 3499   2.523   3.816   0.722 -0.3797 -0.3715  0.0557
  785MOL0     C 3500   2.501   3.685   0.810  0.0757 -0.7496 -0.3819
  785MOL0     C 3501   2.465   3.710   0.959  0.3073  0.4180 -0.0388
  785MOL0     C 3502   2.566   3.710   1.066 -0.1113 -0.1586  0.4555
  785MOL0     C 3503   2.620   3.564   1.089 -0.6699  0.0470  0.8118
  785MOL0     C 3504   2.751   3.574   1.169 -0.4025  0.2834 -0.4686
  785MOL0     N 3505   2.870   3.643   1.114  0.6332  0.0778  0.8426
  785MOL0     C 3506   2.883   3.781   1.100  0.6434  0.8118 -0.3211
  785MOL0     C 3507   2.992   3.804   1.021 -0.1355 -0.8251 -0.0084
  785MOL0     C 3508   3.051   3.945   0.983 -0.1144  0.8910  0.4658
  785MOL0     C 3509   3.206   3.929   0.937 -0.5601  0.1177 -0.0638
  785MOL0     C 3510   3.278   4.053   0.890 -0.1660 -0.1712  0.8913
  785MOL0     C 3511   3.413   4.006   0.823 -0.4044  0.4217 -0.1953
  785MOL0     O 3512   3.487   4.125   0.793  0.0121  1.3644  0.0991
  785MOL0     C 3513   3.611   4.107   0.732  0.2756 -0.6112  0.5734
  785MOL0     C 3514   3.684   4.229   0.701  0.4759  1.1332  0.2751
  785MOL0     C 3515   3.814   4.234   0.652  0.4304 -0.1555  0.1990
  785MOL0     C 3516   3.877   4.107   0.634  0.1679 -0.2750  0.4223
  785MOL0     C 3517   4.011   4.109   0.573 -0.7129  0.7273 -0.8944
  785MOL0     O 3518   4.089   4.219   0.590 -0.0823 -0.2124  0.3079
  785MOL0     C 3519   4.214   4.223   0.540 -0.0279 -0.1464 -0.9705
  785MOL0     C 3520   4.316   4.242   0.633  0.5623 -0.1195  0.2232
  785MOL0     C 3521   4.457   4.257   0.591  0.7786 -0.5354  0.3137
  785MOL0     C 3522   4.485   4.259   0.454 -0.6569  0.3442 -0.3418
  785MOL0     O 3523   4.611   4.275   0.403 -0.6468 -0.2569  0.1799
  785MOL0     C 3524   4.722   4.319   0.485  0.9531  0.1974 -0.0119
  785MOL0     C 3525   4.838   4.355   0.390 -0.3259 -0.0983 -0.1625
  785MOL0     C 3526   4.979   4.341   0.458  0.1147  0.1699 -0.4494
  785MOL0     C 3527   5.084   4.395   0.360 -0.3068 -0.4240  0.1635
  785MOL0     C 3528   5.231   4.331   0.377 -0.3324  0.2624 -0.4481
  785MOL0     C 3529   5.311   4.322   0.243  0.6601  0.5164  0.5121
  785MOL0     C 3530   5.447   4.260   0.271 -0.8087  0.1186  0.6752
  785MOL0     C 3531   5.511   4.205   0.143  0.1437  0.2580 -0.1205
  785MOL0    Cl 3532   5.689   4.196   0.179  0.0888 -0.1148 -0.0603
  785MOL0     C 3533   4.385   4.260   0.366  0.8672  0.2410  0.2196
  785MOL0     C 3534   4.250   4.224   0.406 -0.6061  0.3840  1.2937
  785MOL0     O 3535   4.059   4.000   0.533  0.0343  1.0497 -0.3562
  785MOL0     C 3536   3.813   3.986   0.662  0.3686  0.2160  0.4661
  785MOL0     C 3537   3.682   3.983   0.707 -0.3808  0.0026 -0.3304
  785MOL0     N 3538   3.045   3.682   1.004  0.2400  0.3253  0.3969
  785MOL0     N 3539   2.975   3.589   1.054  0.2123  0.2937 -0.6830
  785MOL0     C 3540   2.948   3.681   0.435  0.7125  0.5937  1.0508
  785MOL0     C 3541   3.082   3.650   0.392 -0.1728  1.4367 -0.0703
  785MOL0     C 3542   3.527   3.705   0.358  0.8723  0.5039  0.2468
  785MOL0     C 3543   3.592   3.680   0.235  0.0037  0.0126 -0.1208
  785MOL0     C 3544   3.726   3.640   0.235 -0.6709  0.5947  0.6735
  785MOL0     C 3545   3.798   3.644   0.353 -0.9092  0.5463  0.4858
  785MOL0     O 3546   3.924   3.602   0.317  0.6269  0.5650 -0.6502
  785MOL0     C 3547   4.027   3.676   0.393 -0.7806  0.6572 -0.0025
  785MOL0     C 3548   4.157   3.596   0.386  0.0596  0.1315  0.5227
  785MOL0     C 3549   4.269   3.676   0.450 -0.2297  0.0260  0.5872
  785MOL0     C 3550   4.330   3.775   0.355 -0.3072  0.6219  0.7960
  785MOL0     C 3551   4.413   3.862   0.430  0.4597  0.1531  0.3278
  785MOL0     C 3552   4.493   3.934   0.487 -1.0204 -0.5919 -0.8948
  785MOL0     C 3553   3.738   3.690   0.472 -1.6856  1.3116  0.9655
  785MOL0     C 3554   3.606   3.719   0.472 -0.8568 -0.1214 -0.4788
  785MOL0     H 3555   3.233   3.723   0.683  2.6512 -0.4723 -2.7156
  785MOL0     H 3556   2.981   3.798   0.744 -1.8442  2.3291 -1.6924
  785MOL0     H 3557   2.659   3.607   0.603 -1.1306  2.4242  4.4415
  785MOL0     H 3558   2.688   3.680   0.434 -1.7063 -1.8161 -0.2030
  785MOL0     H 3559   2.459   3.698   0.558  2.7870 -4.0212  1.6267
  785MOL0     H 3560   2.539   3.855   0.505 -0.2690 -0.7995  0.5613
  785MOL0     H 3561   2.433   3.878   0.732  0.1069  0.0435  2.2456
  785MOL0     H 3562   2.612   3.874   0.747  0.3885 -0.1520 -2.7752
  785MOL0     H 3563   2.422   3.627   0.761 -1.3375  0.3917  0.4833
  785MOL0     H 3564   2.591   3.623   0.808 -0.7308 -2.1741  2.4911
  785MOL0     H 3565   2.381   3.647   0.991 -1.7101  3.3208  0.7465
  785MOL0     H 3566   2.428   3.813   0.964  1.6720  1.0785 -2.3705
  785MOL0     H 3567   2.522   3.749   1.158 -1.6766 -0.6591 -0.0467
  785MOL0     H 3568   2.636   3.786   1.030 -0.6398 -0.0803 -0.4539
  785MOL0     H 3569   2.548   3.508   1.148 -1.8803  1.1323  0.4025
  785MOL0     H 3570   2.634   3.505   0.998  0.4976  1.2231  0.1890
  785MOL0     H 3571   2.797   3.475   1.182  2.2551  0.7657 -4.5358
  785MOL0     H 3572   2.723   3.621   1.264  0.9701 -0.9575  0.6032
  785MOL0     H 3573   2.821   3.850   1.156 -0.6791  0.3817 -1.2198
  785MOL0     H 3574   3.041   4.018   1.065 -1.3274  0.9428  0.2957
  785MOL0     H 3575   2.991   3.981   0.899 -1.5603 -2.8458 -0.2988
  785MOL0     H 3576   3.221   3.838   0.877 -2.9289 -0.8218  0.6659
  785MOL0     H 3577   3.260   3.908   1.030 -0.6319  0.3879  0.0384
  785MOL0     H 3578   3.219   4.092   0.807  0.8859  0.2400  0.3241
  785MOL0     H 3579   3.303   4.121   0.973  3.3649 -1.6242  1.1843
  785MOL0     H 3580   3.396   3.939   0.738  3.2672 -3.9185  2.0809
  785MOL0     H 3581   3.461   3.950   0.903 -1.9191 -1.3024 -0.4362
  785MOL0     H 3582   3.643   4.328   0.720 -0.4881  0.2437  3.2324
  785MOL0     H 3583   3.875   4.324   0.647 -0.3758  0.4904  1.4093
  785MOL0     H 3584   4.305   4.248   0.740  2.2539  3.4780  0.3392
  785MOL0     H 3585   4.546   4.253   0.654  2.7413 -0.2577 -2.2768
  785MOL0     H 3586   4.751   4.233   0.545 -0.7943  0.0135  0.6093
  785MOL0     H 3587   4.685   4.406   0.539  2.4458  0.4242  0.6894
  785MOL0     H 3588   4.823   4.461   0.364  5.2990  1.2273  0.7239
  785MOL0     H 3589   4.833   4.296   0.298  0.3349  1.0775 -0.9862
  785MOL0     H 3590   5.003   4.238   0.485  0.4133  0.7569  1.7087
  785MOL0     H 3591   4.981   4.406   0.546 -0.5620 -1.2613  0.6642
  785MOL0     H 3592   5.057   4.385   0.255  1.4318 -1.7965 -0.2046
  785MOL0     H 3593   5.089   4.503   0.378 -2.8704  0.2762 -2.7129
  785MOL0     H 3594   5.213   4.228   0.410 -0.2119  0.2681 -0.3680
  785MOL0     H 3595   5.290   4.377   0.457 -2.1268 -0.4708  1.4128
  785MOL0     H 3596   5.319   4.420   0.195  0.7396  1.5065  2.4432
  785MOL0     H 3597   5.251   4.267   0.171  0.7037 -1.4024  1.8902
  785MOL0     H 3598   5.513   4.335   0.315  1.6154 -1.8182  0.5841
  785MOL0     H 3599   5.446   4.181   0.346 -2.3640  2.1416  2.9158
  785MOL0     H 3600   5.487   4.273   0.060 -2.2151 -1.1738 -0.7184
  785MOL0     H 3601   5.470   4.106   0.121 -0.4975  0.1913  1.2459
  785MOL0     H 3602   4.412   4.286   0.265  0.2455  0.9670  0.2329
  785MOL0     H 3603   4.172   4.215   0.332 -0.4128  0.2555  1.1056
  785MOL0     H 3604   3.865   3.892   0.649 -2.3233 -1.4425  0.9755
  785MOL0     H 3605   3.630   3.888   0.724 -1.7295  0.5579 -1.1668
  785MOL0     H 3606   2.872   3.660   0.361  2.3109 -0.3633 -0.4096
  785MOL0     H 3607   3.109   3.615   0.293  0.6724  1.3562  0.1815
  785MOL0     H 3608   3.541   3.678   0.139  2.4390 -0.3954 -1.4821
  785MOL0     H 3609   3.780   3.611   0.145 -0.2580 -1.6035  1.5589
  785MOL0     H 3610   3.999   3.691   0.498 -3.0682  2.3057 -0.7595
  785MOL0     H 3611   4.041   3.772   0.343  0.3596  1.1624  1.2413
  785MOL0     H 3612   4.142   3.502   0.439 -0.4890  0.5934  1.1952
  785MOL0     H 3613   4.182   3.561   0.286 -4.1625  0.9072 -1.0020
  785MOL0     H 3614   4.349   3.606   0.475 -0.4479  0.0701  1.4116
  785MOL0     H 3615   4.230   3.729   0.537 -0.1362  0.7535  0.1947
  785MOL0     H 3616   4.388   3.722   0.279  0.1663 -0.8867  2.1697
  785MOL0     H 3617   4.263   3.839   0.296  2.5696 -0.3322 -4.0563
  785MOL0     H 3618   4.556   4.003   0.539 -2.6944  0.5306 -0.2512
  785MOL0     H 3619   3.809   3.698   0.554  0.8567  1.1051 -1.0877
  785MOL0     H 3620   3.552   3.746   0.562  3.5900  1.9435  1.8988
  786MOL0     O 3621   3.195   2.536   9.330 -0.3499  0.3229 -0.4147
  786MOL0     C 3622   3.206   2.655   9.350 -0.9206 -0.6929 -1.2071
  786MOL0     O 3623   3.161   2.728   9.466 -0.1696 -0.5621 -0.5963
  786MOL0     C 3624   3.133   2.662   9.579  0.2884 -0.1905  0.4570
  786MOL0     C 3625   3.131   2.743   9.697 -0.4468 -0.6292  0.6941
  786MOL0     C 3626   3.096   2.684   9.822 -0.0396 -0.0012 -0.1402
  786MOL0     C 3627   3.044   2.554   9.841  0.5541 -0.2116  0.0176
  786MOL0     O 3628   3.005   2.498   9.957  0.0642  1.1482 -0.2802
  786MOL0     C 3629   3.017   2.578  10.077  0.5203 -0.9841  0.8915
  786MOL0     C 3630   2.965   2.506  10.200 -0.6591 -0.8031  0.1358
  786MOL0     C 3631   2.953   2.619  10.306 -0.4819  0.0459  1.2155
  786MOL0     C 3632   2.901   2.551  10.430  0.0949 -1.2868 -0.5515
  786MOL0     C 3633   2.888   2.662  10.545  0.9067  0.6987 -0.3146
  786MOL0     C 3634   2.841   2.599  10.674  0.3663  0.6397 -0.5388
  786MOL0     C 3635   2.870   2.699  10.795  0.4662 -0.0622  1.4671
  786MOL0     C 3636   2.816   2.639  10.926  0.2020 -0.0289  0.6911
  786MOL0     N 3637   2.769   2.733  11.024 -0.0127 -0.2530  0.0263
  786MOL0     C 3638   2.834   2.847  11.066 -0.5252 -0.2306  0.2380
  786MOL0     C 3639   2.748   2.911  11.147  0.5700  0.4898 -0.5863
  786MOL0     C 3640   2.770   3.045  11.219 -1.2856  0.0448  0.5286
  786MOL0     C 3641   2.728   3.049  11.369 -0.6216  0.5433  0.8820
  786MOL0     C 3642   2.710   3.197  11.406 -0.0547 -0.1396 -0.1931
  786MOL0     C 3643   2.653   3.225  11.548 -0.3042 -0.0090 -0.4324
  786MOL0     O 3644   2.533   3.161  11.552  0.1007 -0.4940  0.0304
  786MOL0     C 3645   2.423   3.201  11.629 -0.0597  0.1977 -0.1329
  786MOL0     C 3646   2.417   3.314  11.716  1.1411 -0.8064  0.3979
  786MOL0     C 3647   2.295   3.347  11.790  0.2523  0.6671 -0.1444
  786MOL0     C 3648   2.183   3.266  11.770  0.3080  0.1730 -0.0043
  786MOL0     C 3649   2.051   3.295  11.830 -0.0083 -0.3928  0.0512
  786MOL0     O 3650   1.948   3.201  11.825  0.4555 -0.3432 -0.5610
  786MOL0     C 3651   1.819   3.250  11.856 -1.0189  0.4776  0.0529
  786MOL0     C 3652   1.783   3.280  11.983 -0.2454  0.0332 -0.2271
  786MOL0     C 3653   1.668   3.349  12.018  0.1649  0.8039  0.0734
  786MOL0     C 3654   1.576   3.374  11.913 -0.4270 -0.3810 -0.8882
  786MOL0     O 3655   1.451   3.380  11.971  0.4597  0.3329  0.1687
  786MOL0     C 3656   1.348   3.420  11.891  0.8576 -0.6020  0.8301
  786MOL0     C 3657   1.243   3.485  11.983 -1.3132  0.6172 -0.1604
  786MOL0     C 3658   1.159   3.374  12.055 -0.2434 -0.1633  0.4481
  786MOL0     C 3659   1.040   3.432  12.120  0.9703 -0.0474  0.1074
  786MOL0     C 3660   0.994   3.327  12.222  0.2255 -0.3644 -0.0545
  786MOL0     C 3661   0.869   3.383  12.304 -0.1503  0.8103 -0.6450
  786MOL0     C 3662   0.788   3.276  12.379 -0.0766  0.2665 -0.2349
  786MOL0     C 3663   0.660   3.341  12.427  0.3751  0.4891  0.9564
  786MOL0    Cl 3664   0.677   3.452  12.566 -0.4370 -0.2899  0.4276
  786MOL0     C 3665   1.617   3.359  11.786  0.3353  0.9678 -0.0474
  786MOL0     C 3666   1.732   3.292  11.751 -0.6334 -0.5368 -0.3115
  786MOL0     O 3667   2.040   3.409  11.883  0.0945 -0.1458 -0.5734
  786MOL0     C 3668   2.193   3.161  11.687 -0.5540  0.1959  0.1435
  786MOL0     C 3669   2.313   3.116  11.627 -0.6514  0.3705 -0.5205
  786MOL0     N 3670   2.628   2.838  11.149 -0.8422 -0.1348  1.1042
  786MOL0     N 3671   2.640   2.734  11.066 -0.5869 -0.2544 -0.9916
  786MOL0     C 3672   3.043   2.482   9.722  0.0468  0.4744  0.9234
  786MOL0     C 3673   3.086   2.531   9.601 -0.0984  0.1185  0.6490
  786MOL0     C 3674   3.269   2.739   9.244 -0.0058 -0.4005  0.1853
  786MOL0     C 3675   3.347   2.692   9.133  0.1053 -0.3629  0.3725
  786MOL0     C 3676   3.400   2.778   9.037  0.3133 -1.0236  0.1158
  786MOL0     C 3677   3.377   2.916   9.051  0.7809  0.2924 -0.2825
  786MOL0     O 3678   3.412   3.003   8.957  0.0963 -0.4776  0.3280
  786MOL0     C 3679   3.388   3.148   8.950 -0.1341  0.0687 -1.0592
  786MOL0     C 3680   3.424   3.209   8.814  0.6035  0.8357  0.9007
  786MOL0     C 3681   3.377   3.355   8.826 -0.5456  0.6454  0.3925
  786MOL0     C 3682   3.230   3.369   8.819  0.8403 -0.0047  0.1876
  786MOL0     C 3683   3.171   3.506   8.816  0.2868 -0.1762  0.4691
  786MOL0     C 3684   3.139   3.623   8.831  0.7656  0.9167 -0.0302
  786MOL0     C 3685   3.319   2.966   9.169  0.0641 -0.0989 -0.3735
  786MOL0     C 3686   3.257   2.883   9.259  0.1747 -0.3369 -0.7184
  786MOL0     H 3687   3.171   2.844   9.700  0.9736 -1.1861  1.9687
  786MOL0     H 3688   3.129   2.743   9.907 -1.5305  1.9912 -0.8704
  786MOL0     H 3689   2.959   2.668  10.057  0.5936 -1.3780 -1.3204
  786MOL0     H 3690   3.121   2.604  10.100  0.2374 -1.4029  2.8346
  786MOL0     H 3691   3.040   2.434  10.234  2.3765  3.1607  2.8127
  786MOL0     H 3692   2.865   2.465  10.187 -1.0237 -0.5238  1.7709
  786MOL0     H 3693   2.882   2.699  10.283 -2.2187 -1.8930 -0.6267
  786MOL0     H 3694   3.050   2.668  10.313  1.1395 -2.4033 -1.9109
  786MOL0     H 3695   2.804   2.502  10.433  0.0443 -1.1520  1.3267
  786MOL0     H 3696   2.978   2.485  10.471 -0.2157 -0.7741  0.9341
  786MOL0     H 3697   2.824   2.744  10.511  0.2164 -0.6203 -2.4327
  786MOL0     H 3698   2.989   2.701  10.559  1.6641 -0.8913 -1.0097
  786MOL0     H 3699   2.899   2.509  10.694 -1.4864 -0.7980 -1.2972
  786MOL0     H 3700   2.737   2.564  10.669 -0.1288  1.7716  0.7805
  786MOL0     H 3701   2.978   2.694  10.815  0.9049 -1.4610 -0.8870
  786MOL0     H 3702   2.829   2.800  10.782 -1.5404 -1.0026  0.1158
  786MOL0     H 3703   2.896   2.575  10.965 -0.0783 -1.4912 -1.0238
  786MOL0     H 3704   2.733   2.573  10.903  0.6586  0.3621 -2.4875
  786MOL0     H 3705   2.937   2.869  11.037 -1.1385  0.6114 -1.4402
  786MOL0     H 3706   2.708   3.114  11.161  1.2949  1.7458 -0.3607
  786MOL0     H 3707   2.874   3.079  11.223 -0.6963 -1.7612  3.2067
  786MOL0     H 3708   2.808   3.013  11.433  3.5177  0.9691 -3.4559
  786MOL0     H 3709   2.637   2.989  11.378  1.0226 -2.4660 -0.7058
  786MOL0     H 3710   2.807   3.246  11.399  1.1582 -2.3685 -0.1267
  786MOL0     H 3711   2.645   3.245  11.333 -0.0485 -0.4994 -0.4393
  786MOL0     H 3712   2.655   3.330  11.577  0.0564  0.1045 -0.8532
  786MOL0     H 3713   2.712   3.178  11.627  2.4116  1.6498 -1.3383
  786MOL0     H 3714   2.488   3.396  11.711  1.0903 -0.5415  2.8440
  786MOL0     H 3715   2.303   3.436  11.851 -2.3487 -0.5364  2.1551
  786MOL0     H 3716   1.857   3.252  12.058 -0.7078 -1.3287 -0.2619
  786MOL0     H 3717   1.648   3.351  12.124 -2.2773 -1.1830 -0.2458
  786MOL0     H 3718   1.301   3.339  11.835  2.1670 -2.1527  1.8920
  786MOL0     H 3719   1.372   3.501  11.820  0.8585  1.1171  2.6992
  786MOL0     H 3720   1.175   3.538  11.915 -3.1214 -0.7073  0.5492
  786MOL0     H 3721   1.294   3.551  12.055  0.9259  0.7584 -1.7557
  786MOL0     H 3722   1.222   3.341  12.138  1.9226  1.4429 -0.4617
  786MOL0     H 3723   1.139   3.284  11.996 -0.8551  1.8870 -2.7163
  786MOL0     H 3724   1.058   3.522  12.179  1.7554 -0.2969  0.2750
  786MOL0     H 3725   0.956   3.463  12.058  0.8566  1.8727  1.1643
  786MOL0     H 3726   1.081   3.317  12.289 -0.4219  0.7773  0.9962
  786MOL0     H 3727   0.974   3.230  12.175  0.9136  0.5659 -2.3604
  786MOL0     H 3728   0.823   3.429  12.216  1.2187  2.4278 -0.5720
  786MOL0     H 3729   0.901   3.454  12.382  1.1087 -0.0923 -0.3221
  786MOL0     H 3730   0.774   3.197  12.304  1.2303  2.4566 -3.0134
  786MOL0     H 3731   0.849   3.243  12.463 -1.4663  2.1819  1.6330
  786MOL0     H 3732   0.592   3.258  12.452  1.9311 -0.1399  3.4444
  786MOL0     H 3733   0.617   3.394  12.342  2.5093 -1.9886 -1.8907
  786MOL0     H 3734   1.545   3.359  11.705 -2.5092 -2.1597  2.1978
  786MOL0     H 3735   1.770   3.282  11.650  0.9035 -2.1927  0.3805
  786MOL0     H 3736   2.113   3.089  11.672 -2.2725  1.5619  2.2050
  786MOL0     H 3737   2.313   3.033  11.558  2.5774 -0.2852  0.1096
  786MOL0     H 3738   2.999   2.383   9.722 -0.8410  0.8621  0.7892
  786MOL0     H 3739   3.070   2.463   9.517 -0.2025 -2.1052  2.3694
  786MOL0     H 3740   3.359   2.584   9.135  0.1202 -0.4408 -1.8011
  786MOL0     H 3741   3.450   2.743   8.947  0.1490  0.1359 -0.4460
  786MOL0     H 3742   3.456   3.184   9.027  1.4821 -1.0506 -1.8987
  786MOL0     H 3743   3.284   3.164   8.977 -0.5777 -1.7419 -1.5317
  786MOL0     H 3744   3.531   3.211   8.791  0.5915  1.2235  0.8743
  786MOL0     H 3745   3.367   3.152   8.740  2.3364 -0.1867  0.2873
  786MOL0     H 3746   3.420   3.418   8.748  0.4773  0.7852  1.0432
  786MOL0     H 3747   3.413   3.393   8.922  0.4005 -1.7526  1.0645
  786MOL0     H 3748   3.190   3.312   8.733 -2.3443  2.5137 -0.1847
  786MOL0     H 3749   3.185   3.322   8.907 -1.5636  0.4047 -0.7299
  786MOL0     H 3750   3.100   3.722   8.824  4.3040  2.5160  0.6325
  786MOL0     H 3751   3.323   3.072   9.193 -1.7280  0.6717 -3.0501
  786MOL0     H 3752   3.186   2.927   9.328 -1.3606 -3.8354  0.1577
  787MOL0     O 3753   4.389   1.286   1.239 -0.5390  0.8787 -1.2948
  787MOL0     C 3754   4.295   1.207   1.266 -0.3661  0.3088  0.6568
  787MOL0     O 3755   4.297   1.071   1.255 -0.3266 -0.2137 -0.4888
  787MOL0     C 3756   4.382   1.008   1.168 -0.0987  1.0687 -0.4793
  787MOL0     C 3757   4.449   0.891   1.214  0.4435  0.0038  0.4664
  787MOL0     C 3758   4.524   0.809   1.126  0.2864 -0.1693  0.8112
  787MOL0     C 3759   4.544   0.856   0.994 -0.0222  0.5579  0.3081
  787MOL0     O 3760   4.616   0.788   0.899 -0.2438  0.0679  0.6240
  787MOL0     C 3761   4.706   0.683   0.947 -0.3626 -1.0421  0.4003
  787MOL0     C 3762   4.810   0.661   0.838 -0.4228 -0.4593  0.5431
  787MOL0     C 3763   4.929   0.576   0.867 -0.5237  0.9596 -0.3259
  787MOL0     C 3764   5.037   0.538   0.756  0.4250  0.2971  0.3663
  787MOL0     C 3765   5.169   0.496   0.825  0.2185 -0.4467 -1.3807
  787MOL0     C 3766   5.168   0.385   0.932 -0.7829  1.0751 -0.4708
  787MOL0     C 3767   5.315   0.343   0.971 -0.6194 -0.1645 -0.6760
  787MOL0     C 3768   5.307   0.291   1.116  0.3023  0.2786 -0.6550
  787MOL0     N 3769   5.222   0.166   1.123  0.0951 -0.1216 -0.0408
  787MOL0     C 3770   5.236   0.049   1.057  0.3718 -0.7271  0.3144
  787MOL0     C 3771   5.124  -0.023   1.085 -0.2193  0.5176 -0.6732
  787MOL0     C 3772   5.073  -0.157   1.036  0.3382 -1.0147  0.4006
  787MOL0     C 3773   5.127  -0.273   1.128  1.2033  1.2432  0.5656
  787MOL0     C 3774   5.271  -0.265   1.168  0.0294  0.9814  0.2069
  787MOL0     C 3775   5.372  -0.252   1.052  0.2650 -0.0964 -0.3725
  787MOL0     O 3776   5.485  -0.339   1.062  0.0045 -0.3073 -0.5769
  787MOL0     C 3777   5.565  -0.364   0.950 -0.2431 -0.6801  0.5600
  787MOL0     C 3778   5.660  -0.463   0.953 -0.0443  0.1670  0.4052
  787MOL0     C 3779   5.754  -0.496   0.845 -0.4413  1.0291 -0.3407
  787MOL0     C 3780   5.734  -0.444   0.723 -0.5567  0.0667 -1.6621
  787MOL0     C 3781   5.815  -0.476   0.609  0.0206  0.5130  0.9030
  787MOL0     O 3782   5.842  -0.604   0.599  0.4658 -0.9608  0.1633
  787MOL0     C 3783   5.895  -0.645   0.483  1.2284  0.3868  0.1446
  787MOL0     C 3784   6.029  -0.635   0.452 -0.1801  0.3102  0.3364
  787MOL0     C 3785   6.081  -0.695   0.339 -0.2207 -0.0984  0.6726
  787MOL0     C 3786   5.994  -0.743   0.244  0.0839 -0.2387 -0.9824
  787MOL0     O 3787   6.023  -0.787   0.118  0.1579 -0.5206 -0.6049
  787MOL0     C 3788   6.161  -0.802   0.097 -0.1558  0.4129  0.3253
  787MOL0     C 3789   6.190  -0.895  -0.017  0.1433 -0.1820  0.3490
  787MOL0     C 3790   6.124  -1.040  -0.008  0.0691 -0.2069  0.5475
  787MOL0     C 3791   6.163  -1.111  -0.133 -0.0216 -0.5935 -1.2163
  787MOL0     C 3792   6.105  -1.252  -0.152  0.2117  0.5242 -0.6548
  787MOL0     C 3793   5.951  -1.263  -0.157 -0.2098  0.0970 -0.7479
  787MOL0     C 3794   5.899  -1.389  -0.231  0.5866  0.4083 -0.1163
  787MOL0     C 3795   5.971  -1.527  -0.200 -0.7145  0.2427  0.2661
  787MOL0    Cl 3796   5.911  -1.655  -0.297  0.4674 -0.2510 -0.1497
  787MOL0     C 3797   5.860  -0.737   0.273  0.6583 -0.1982  0.4107
  787MOL0     C 3798   5.804  -0.690   0.393 -0.1534  0.2855  0.3377
  787MOL0     O 3799   5.848  -0.378   0.534 -0.1291  0.9043 -0.7253
  787MOL0     C 3800   5.644  -0.344   0.718  0.4501  0.8135  1.3109
  787MOL0     C 3801   5.565  -0.297   0.822  0.2557 -0.5681 -0.0452
  787MOL0     N 3802   5.065   0.037   1.189  0.4412 -0.1785 -0.6696
  787MOL0     N 3803   5.115   0.154   1.200  0.0891 -0.9670 -0.0224
  787MOL0     C 3804   4.483   0.971   0.947  0.6753  0.4255  0.0094
  787MOL0     C 3805   4.411   1.052   1.040  0.2288  0.1742  0.3451
  787MOL0     C 3806   4.167   1.260   1.326  0.4979  1.4559  0.7765
  787MOL0     C 3807   4.133   1.394   1.344 -0.9186 -0.1384  0.4506
  787MOL0     C 3808   4.016   1.436   1.403  0.8694  0.5179  0.4228
  787MOL0     C 3809   3.929   1.340   1.455 -0.5624 -0.0672  0.1564
  787MOL0     O 3810   3.823   1.378   1.534  0.4354  0.2076 -0.2092
  787MOL0     C 3811   3.705   1.412   1.458 -0.5098 -0.5311 -0.4275
  787MOL0     C 3812   3.647   1.303   1.367  0.7288  0.2662 -0.3300
  787MOL0     C 3813   3.506   1.332   1.296 -0.4375 -0.0825 -0.9469
  787MOL0     C 3814   3.525   1.390   1.150  0.3485 -0.9024 -1.0424
  787MOL0     C 3815   3.593   1.515   1.153  0.6483  0.5683 -0.0449
  787MOL0     C 3816   3.639   1.618   1.140  0.2002 -0.2882  0.3811
  787MOL0     C 3817   3.954   1.198   1.435 -0.2490  0.2794 -0.2108
  787MOL0     C 3818   4.074   1.163   1.373  0.6342  0.9615 -0.9680
  787MOL0     H 3819   4.426   0.869   1.317 -2.2218  0.3226  0.0207
  787MOL0     H 3820   4.570   0.717   1.161 -0.9724 -0.5399  1.6098
  787MOL0     H 3821   4.642   0.594   0.954  1.3341 -2.5609 -2.1613
  787MOL0     H 3822   4.743   0.720   1.043 -3.4801  0.4838  1.1558
  787MOL0     H 3823   4.836   0.764   0.812 -2.1752 -0.1697 -0.1887
  787MOL0     H 3824   4.762   0.616   0.750  3.5269  1.7429 -3.1176
  787MOL0     H 3825   4.899   0.475   0.896  3.5440 -0.4081 -0.1000
  787MOL0     H 3826   4.988   0.627   0.945  0.1665 -0.8577  0.3961
  787MOL0     H 3827   5.007   0.452   0.694  1.5820 -1.0169  1.5471
  787MOL0     H 3828   5.063   0.624   0.693  0.2999 -0.2971 -0.5191
  787MOL0     H 3829   5.205   0.587   0.874 -0.0433  0.5964 -3.0610
  787MOL0     H 3830   5.236   0.479   0.740  0.6268 -2.3991 -0.7114
  787MOL0     H 3831   5.115   0.297   0.893  0.1511  0.0118  0.6062
  787MOL0     H 3832   5.103   0.418   1.014 -0.1519  2.1209 -0.3671
  787MOL0     H 3833   5.354   0.264   0.906  3.3110 -1.5044  2.8471
  787MOL0     H 3834   5.381   0.429   0.955  0.3525 -1.0892 -1.8616
  787MOL0     H 3835   5.264   0.368   1.181  1.3037 -0.8685  1.4451
  787MOL0     H 3836   5.407   0.263   1.151 -0.7613 -3.6754 -0.3256
  787MOL0     H 3837   5.296   0.004   0.979  0.0194 -2.6362  1.0849
  787MOL0     H 3838   5.095  -0.177   0.930  0.6170 -0.8020  0.4208
  787MOL0     H 3839   4.963  -0.158   1.034  0.3247  0.4008 -0.3952
  787MOL0     H 3840   5.100  -0.366   1.078  1.2385  0.7720  1.4130
  787MOL0     H 3841   5.068  -0.266   1.220 -3.5540  2.8767 -2.2424
  787MOL0     H 3842   5.282  -0.187   1.244  0.4815  1.3975 -0.2858
  787MOL0     H 3843   5.301  -0.357   1.219 -0.5856  1.2517  1.0739
  787MOL0     H 3844   5.430  -0.162   1.075  0.6532 -0.5514  0.4703
  787MOL0     H 3845   5.325  -0.250   0.953 -1.5938 -1.4160  0.4369
  787MOL0     H 3846   5.656  -0.533   1.036 -2.4806 -1.0852 -0.6821
  787MOL0     H 3847   5.836  -0.567   0.842 -0.0036  1.5638 -2.1210
  787MOL0     H 3848   6.087  -0.582   0.527 -0.8668  5.7475 -2.4935
  787MOL0     H 3849   6.188  -0.684   0.321  0.2582  3.0981  4.1621
  787MOL0     H 3850   6.207  -0.851   0.183  1.9375 -0.6049 -1.2902
  787MOL0     H 3851   6.195  -0.700   0.074  0.6165  0.8927  3.1920
  787MOL0     H 3852   6.297  -0.916  -0.029  0.1642  1.3602 -3.7686
  787MOL0     H 3853   6.160  -0.844  -0.109 -3.1877  0.8112  1.8511
  787MOL0     H 3854   6.015  -1.036  -0.012 -0.1000 -3.2806 -2.1647
  787MOL0     H 3855   6.149  -1.085   0.088 -2.1972 -0.2830  1.1670
  787MOL0     H 3856   6.135  -1.051  -0.220  1.1184 -1.2137 -2.0476
  787MOL0     H 3857   6.273  -1.114  -0.136 -0.0214 -2.8672 -0.4574
  787MOL0     H 3858   6.130  -1.314  -0.066 -1.5061  1.9634  0.9824
  787MOL0     H 3859   6.144  -1.298  -0.243 -0.8615 -0.3115 -0.7067
  787MOL0     H 3860   5.902  -1.180  -0.210 -6.9407 -2.7250 -0.0358
  787MOL0     H 3861   5.899  -1.251  -0.061 -0.9282 -0.7172 -1.0164
  787MOL0     H 3862   5.794  -1.392  -0.202 -0.1127 -0.1601 -2.5101
  787MOL0     H 3863   5.910  -1.369  -0.338  0.0444 -0.2536 -0.2974
  787MOL0     H 3864   5.939  -1.550  -0.097 -2.3236  0.2015 -0.2070
  787MOL0     H 3865   6.078  -1.509  -0.211 -0.8845  1.6744  0.6286
  787MOL0     H 3866   5.805  -0.772   0.186  2.3618 -1.8961 -0.0510
  787MOL0     H 3867   5.697  -0.694   0.410  0.2355  0.3661  3.2883
  787MOL0     H 3868   5.618  -0.302   0.621 -0.1177 -1.0465  0.6170
  787MOL0     H 3869   5.479  -0.233   0.804 -2.0082 -3.1696  0.7349
  787MOL0     H 3870   4.502   1.001   0.845  2.1930 -1.3027 -0.2724
  787MOL0     H 3871   4.374   1.149   1.007 -0.5631 -0.2247  0.0263
  787MOL0     H 3872   4.200   1.474   1.313 -2.7553  0.5636 -2.0670
  787MOL0     H 3873   3.976   1.534   1.426 -1.5031 -0.7249  1.8920
  787MOL0     H 3874   3.741   1.493   1.395  3.5754 -1.5741  0.2998
  787MOL0     H 3875   3.638   1.459   1.531 -0.0228 -0.4218 -0.0443
  787MOL0     H 3876   3.723   1.289   1.289  1.7568  2.1144  0.2725
  787MOL0     H 3877   3.649   1.216   1.433  1.2924  2.3849  2.6912
  787MOL0     H 3878   3.459   1.405   1.361  1.1704 -0.8049  1.1381
  787MOL0     H 3879   3.444   1.242   1.291 -2.8720  1.3194  1.5069
  787MOL0     H 3880   3.579   1.317   1.089  0.5456  0.8874 -3.1554
  787MOL0     H 3881   3.424   1.413   1.117 -0.1956  2.0148  2.0272
  787MOL0     H 3882   3.691   1.708   1.112  4.3919 -1.8778  2.2654
  787MOL0     H 3883   3.879   1.135   1.482 -1.6111  2.2010  0.3426
  787MOL0     H 3884   4.094   1.056   1.375  0.3097  0.9030 -0.6959
  788MOL0     O 3885   9.493   5.910   7.351  0.8075 -0.6329  0.5602
  788MOL0     C 3886   9.579   5.986   7.377 -0.2903 -0.7929  0.7530
  788MOL0     O 3887   9.678   5.975   7.478 -0.4201 -0.0890  0.2996
  788MOL0     C 3888   9.692   5.867   7.560  0.4535  0.6546  0.1376
  788MOL0     C 3889   9.603   5.755   7.567 -0.9182 -0.8112  0.0720
  788MOL0     C 3890   9.617   5.665   7.675 -1.4647  1.2126  0.3213
  788MOL0     C 3891   9.725   5.659   7.768  0.3481 -0.8827 -0.2511
  788MOL0     O 3892   9.734   5.556   7.860 -0.3698 -0.3087  0.5294
  788MOL0     C 3893   9.842   5.561   7.956 -0.2474  0.9397 -0.1674
  788MOL0     C 3894   9.816   5.438   8.055 -0.1399 -0.3427  0.8974
  788MOL0     C 3895   9.955   5.393   8.110  0.0821 -0.0508 -0.3367
  788MOL0     C 3896   9.945   5.263   8.200  0.0802  0.0658 -0.4709
  788MOL0     C 3897  10.072   5.183   8.190 -0.2333  0.3722  1.1030
  788MOL0     C 3898  10.059   5.029   8.211 -1.0236 -0.0983 -0.2948
  788MOL0     C 3899   9.992   4.952   8.102 -0.4368 -0.6011  0.3146
  788MOL0     C 3900  10.066   4.953   7.972  0.4944  0.0393  1.0943
  788MOL0     N 3901  10.152   4.834   7.964  0.1086  0.5820 -0.6411
  788MOL0     C 3902  10.290   4.828   7.989 -0.4047 -0.5241  0.8226
  788MOL0     C 3903  10.326   4.703   8.026  0.1416 -0.7211  0.7975
  788MOL0     C 3904  10.462   4.649   8.064 -1.0338 -0.5340  0.2661
  788MOL0     C 3905  10.453   4.620   8.217 -0.6820 -0.7159 -0.0913
  788MOL0     C 3906  10.583   4.668   8.288 -0.1794  0.0168  0.3081
  788MOL0     C 3907  10.696   4.567   8.250  0.2414  0.4159 -0.6216
  788MOL0     O 3908  10.717   4.545   8.107 -0.4871 -0.1862 -0.3424
  788MOL0     C 3909  10.808   4.451   8.052  0.2298  1.0111 -0.4719
  788MOL0     C 3910  10.820   4.453   7.908  0.4494  0.7103 -0.9020
  788MOL0     C 3911  10.903   4.356   7.841  0.6325  0.1217 -0.5416
  788MOL0     C 3912  10.977   4.256   7.899 -0.6953  0.1128 -0.7296
  788MOL0     C 3913  11.065   4.169   7.821  0.2479  1.2707 -1.0230
  788MOL0     O 3914  11.127   4.065   7.893 -0.6805 -0.1650 -0.3296
  788MOL0     C 3915  11.256   4.017   7.854  0.5243  0.0627  0.6919
  788MOL0     C 3916  11.286   3.968   7.727  0.6400 -0.0896  0.2933
  788MOL0     C 3917  11.407   3.911   7.693  0.2140  0.0849  0.6210
  788MOL0     C 3918  11.511   3.910   7.787  0.0502  0.7788  0.7243
  788MOL0     O 3919  11.618   3.843   7.739  0.1132 -0.1964 -0.1148
  788MOL0     C 3920  11.738   3.843   7.818 -0.4892 -0.1410  0.2023
  788MOL0     C 3921  11.803   3.986   7.824  0.6224 -0.9779  0.7618
  788MOL0     C 3922  11.906   3.993   7.930 -0.1232 -0.5942  0.0211
  788MOL0     C 3923  11.968   4.137   7.938 -0.6096 -0.0219  1.1840
  788MOL0     C 3924  12.100   4.139   8.009  0.3030  0.6201  0.5687
  788MOL0     C 3925  12.166   4.282   8.016 -0.5056  1.0873 -0.7546
  788MOL0     C 3926  12.317   4.273   8.048  0.7200  0.7161  0.4253
  788MOL0     C 3927  12.399   4.401   8.036 -0.8889 -0.8087 -0.3442
  788MOL0    Cl 3928  12.578   4.354   8.046  0.1395  0.2460  0.6239
  788MOL0     C 3929  11.485   3.959   7.915  0.5534  0.0520 -0.1370
  788MOL0     C 3930  11.356   4.010   7.954  0.1002  0.6169  0.1974
  788MOL0     O 3931  11.086   4.191   7.706 -0.6971 -0.1651 -0.6670
  788MOL0     C 3932  10.976   4.258   8.036 -0.9276  0.5465  0.3502
  788MOL0     C 3933  10.890   4.352   8.116 -0.2295  0.4356  0.0305
  788MOL0     N 3934  10.207   4.628   8.019  0.7494 -0.1529  0.6683
  788MOL0     N 3935  10.109   4.702   7.982 -0.3653 -0.1066 -0.4306
  788MOL0     C 3936   9.816   5.760   7.741 -1.1639 -0.9734  0.4892
  788MOL0     C 3937   9.800   5.862   7.648 -0.2585  0.0810 -0.3183
  788MOL0     C 3938   9.571   6.108   7.298 -0.5733 -0.2394 -0.4849
  788MOL0     C 3939   9.683   6.192   7.297 -0.2443 -0.0654  0.8465
  788MOL0     C 3940   9.666   6.311   7.240 -0.1833  0.8270 -0.1668
  788MOL0     C 3941   9.544   6.357   7.184 -0.0965 -1.0857 -0.9956
  788MOL0     O 3942   9.533   6.483   7.118  0.3208  0.7509 -0.6464
  788MOL0     C 3943   9.407   6.552   7.129 -0.3312  0.2628  0.1503
  788MOL0     C 3944   9.384   6.628   7.255  0.5491 -0.2284 -0.2811
  788MOL0     C 3945   9.249   6.600   7.314  0.5377 -0.1703  0.6713
  788MOL0     C 3946   9.256   6.655   7.461  0.1512 -0.8690  0.1656
  788MOL0     C 3947   9.128   6.658   7.529  1.1613  1.2004  0.7875
  788MOL0     C 3948   9.027   6.649   7.603  0.2591 -0.0184 -0.5072
  788MOL0     C 3949   9.436   6.267   7.198 -0.5089  0.0893  0.1056
  788MOL0     C 3950   9.441   6.154   7.259 -0.1127  1.2827 -0.7576
  788MOL0     H 3951   9.515   5.746   7.503 -0.9208  1.8509 -0.4043
  788MOL0     H 3952   9.549   5.582   7.693  0.3885 -0.8631 -1.7159
  788MOL0     H 3953   9.843   5.654   8.014 -3.1371 -0.1436  1.8911
  788MOL0     H 3954   9.931   5.550   7.894 -1.5126 -2.3357 -1.6280
  788MOL0     H 3955   9.785   5.352   7.994 -0.4976  1.7468 -2.0431
  788MOL0     H 3956   9.732   5.463   8.122  1.2130 -2.1285  3.4269
  788MOL0     H 3957  10.000   5.475   8.166  0.5138  0.6491 -1.6735
  788MOL0     H 3958  10.011   5.372   8.019 -1.0775  0.1373 -1.1182
  788MOL0     H 3959   9.914   5.291   8.301  0.9036 -0.5498 -0.0389
  788MOL0     H 3960   9.856   5.210   8.163  2.8756 -3.6935 -2.5167
  788MOL0     H 3961  10.132   5.230   8.268  2.8085 -2.3424  0.6291
  788MOL0     H 3962  10.130   5.205   8.100 -0.2355  1.3103  1.3313
  788MOL0     H 3963   9.998   5.013   8.300 -2.9921 -2.2049 -1.9016
  788MOL0     H 3964  10.154   4.974   8.215 -1.4504 -0.9141 -1.0557
  788MOL0     H 3965   9.968   4.848   8.126  0.9251 -2.1288 -3.9196
  788MOL0     H 3966   9.896   4.999   8.082  1.2051  1.9556 -2.2211
  788MOL0     H 3967  10.136   5.037   7.966  1.3410 -0.5361  2.5434
  788MOL0     H 3968   9.991   4.951   7.892  2.2039  0.4471 -0.5849
  788MOL0     H 3969  10.358   4.911   8.003  0.6337 -1.2554  0.2596
  788MOL0     H 3970  10.542   4.712   8.025 -3.0581  2.6356  0.8189
  788MOL0     H 3971  10.468   4.548   8.021  3.4746 -0.0723 -0.6959
  788MOL0     H 3972  10.420   4.518   8.234 -2.7020 -0.3814 -1.6765
  788MOL0     H 3973  10.372   4.679   8.259 -0.3568 -0.7733  0.6275
  788MOL0     H 3974  10.614   4.768   8.255 -3.0820  0.4654 -1.3515
  788MOL0     H 3975  10.573   4.681   8.396  5.2697  0.8273  1.0235
  788MOL0     H 3976  10.664   4.473   8.296  1.0758  0.1070 -0.6425
  788MOL0     H 3977  10.794   4.596   8.290  1.3814 -1.9206 -1.4946
  788MOL0     H 3978  10.758   4.526   7.857 -2.2827  0.5090  1.8576
  788MOL0     H 3979  10.915   4.362   7.733 -0.2844 -3.8748 -1.0130
  788MOL0     H 3980  11.206   3.962   7.653 -0.0106  0.3410  0.9422
  788MOL0     H 3981  11.436   3.871   7.597  0.3023  0.8346  0.3251
  788MOL0     H 3982  11.804   3.773   7.766 -1.5857  0.1597 -1.6880
  788MOL0     H 3983  11.719   3.795   7.914 -1.7405 -1.1108 -0.4965
  788MOL0     H 3984  11.739   4.075   7.831  2.8624  0.8260 -0.3024
  788MOL0     H 3985  11.850   3.999   7.726 -2.7766 -1.5468 -1.1040
  788MOL0     H 3986  11.982   3.920   7.901  0.0209 -0.2328 -0.5080
  788MOL0     H 3987  11.863   3.968   8.028 -2.7937 -2.3251 -1.4911
  788MOL0     H 3988  11.992   4.162   7.834 -0.1216 -2.1018  0.7437
  788MOL0     H 3989  11.908   4.211   7.992 -0.1991 -0.5398  2.3986
  788MOL0     H 3990  12.159   4.071   7.946  4.1263  2.7041  1.5606
  788MOL0     H 3991  12.084   4.094   8.107  0.0947 -1.8417 -0.5155
  788MOL0     H 3992  12.113   4.334   8.096 -1.4289  0.5381 -0.9923
  788MOL0     H 3993  12.156   4.327   7.917  2.1320  0.3547 -1.4230
  788MOL0     H 3994  12.333   4.226   8.145  1.6859 -0.4554 -0.2644
  788MOL0     H 3995  12.356   4.193   7.983  1.2963 -1.5150  3.3285
  788MOL0     H 3996  12.380   4.472   8.117  0.8728  0.9074 -1.3650
  788MOL0     H 3997  12.373   4.446   7.940 -0.8769  0.1324  0.0827
  788MOL0     H 3998  11.569   3.963   7.984  1.0774  1.2844 -0.8186
  788MOL0     H 3999  11.357   4.042   8.057  0.9418 -2.0203  1.0844
  788MOL0     H 4000  11.035   4.183   8.086  0.2456  1.2128  0.0010
  788MOL0     H 4001  10.889   4.347   8.224  1.7992  2.0290  0.1579
  788MOL0     H 4002   9.893   5.765   7.817 -0.7007 -1.4458  0.0654
  788MOL0     H 4003   9.853   5.956   7.650 -1.7883  0.9772 -0.8230
  788MOL0     H 4004   9.772   6.158   7.348  0.5165  1.5756  0.6589
  788MOL0     H 4005   9.749   6.380   7.229  2.3211 -1.5594  2.3543
  788MOL0     H 4006   9.325   6.483   7.106  3.1224 -3.7842 -1.1955
  788MOL0     H 4007   9.409   6.621   7.045 -0.6286  0.7257  0.5115
  788MOL0     H 4008   9.460   6.609   7.332 -0.6845 -0.4351  0.9385
  788MOL0     H 4009   9.390   6.733   7.227 -1.2584  0.5504  1.8826
  788MOL0     H 4010   9.219   6.495   7.313  0.3673 -0.1546 -1.6906
  788MOL0     H 4011   9.171   6.653   7.259 -0.4713  2.9062  4.5819
  788MOL0     H 4012   9.322   6.599   7.528 -1.0577 -0.3811  1.8171
  788MOL0     H 4013   9.295   6.757   7.450  0.1500 -0.9328 -0.4691
  788MOL0     H 4014   8.942   6.627   7.663  1.1597  0.0616  0.8457
  788MOL0     H 4015   9.343   6.314   7.168 -0.8507  0.1971  1.2926
  788MOL0     H 4016   9.357   6.091   7.286  1.7647 -0.9057  0.3206
  789MOL0     O 4017   3.695   8.751  10.661 -0.2114  0.2077 -0.3314
  789MOL0     C 4018   3.776   8.685  10.729 -0.6826 -0.0779  0.1559
  789MOL0     O 4019   3.887   8.625  10.689  0.2623  0.2600 -0.5823
  789MOL0     C 4020   3.951   8.642  10.572 -1.2706 -0.4505 -0.2287
  789MOL0     C 4021   4.053   8.552  10.560  0.8141  0.1927  0.9214
  789MOL0     C 4022   4.141   8.570  10.449 -0.1899 -0.7703 -0.2496
  789MOL0     C 4023   4.125   8.653  10.337 -0.7189  0.5954  0.3325
  789MOL0     O 4024   4.199   8.652  10.220  0.9367 -0.2927 -0.3764
  789MOL0     C 4025   4.304   8.555  10.212  0.4436 -1.2575  0.0877
  789MOL0     C 4026   4.358   8.558  10.070  0.6795 -0.7460 -1.0418
  789MOL0     C 4027   4.495   8.501  10.059 -0.1000  0.9987  0.0401
  789MOL0     C 4028   4.548   8.504   9.914  0.7598 -0.0400  0.2624
  789MOL0     C 4029   4.613   8.642   9.893  0.0739 -0.1040 -0.6858
  789MOL0     C 4030   4.657   8.671   9.747  0.9267  1.0102  0.2085
  789MOL0     C 4031   4.756   8.792   9.734  0.2694 -0.9046  0.2092
  789MOL0     C 4032   4.789   8.829   9.583  0.0006 -0.4800 -0.0291
  789MOL0     N 4033   4.892   8.928   9.552 -0.3425 -0.7649  0.1155
  789MOL0     C 4034   4.917   8.988   9.430 -1.1897  0.8656 -0.6430
  789MOL0     C 4035   5.023   9.069   9.458  1.0151 -0.4980 -0.0906
  789MOL0     C 4036   5.096   9.149   9.361 -0.6736 -0.6618  0.1531
  789MOL0     C 4037   5.227   9.083   9.317 -1.0601 -0.3706  0.9115
  789MOL0     C 4038   5.290   9.156   9.198  0.1819 -0.4104  0.3627
  789MOL0     C 4039   5.428   9.092   9.182 -0.4002 -0.7544 -0.8333
  789MOL0     O 4040   5.500   9.186   9.097  0.1552  0.2191 -0.4678
  789MOL0     C 4041   5.598   9.113   9.029  0.1329 -0.2236 -0.2830
  789MOL0     C 4042   5.729   9.112   9.082 -1.0373 -0.4948  0.1208
  789MOL0     C 4043   5.832   9.059   9.008 -0.4763 -0.3146  1.3486
  789MOL0     C 4044   5.819   8.994   8.885  0.0464 -0.2430 -0.2375
  789MOL0     C 4045   5.944   8.951   8.811  0.9716 -0.0968 -0.2574
  789MOL0     O 4046   5.917   8.898   8.685  0.1912 -0.2089  0.0487
  789MOL0     C 4047   6.021   8.876   8.597 -0.2789  0.0352 -0.1458
  789MOL0     C 4048   6.019   8.757   8.522 -0.4302  0.5551  0.6787
  789MOL0     C 4049   6.124   8.724   8.425  0.3500  0.1709  0.5793
  789MOL0     C 4050   6.224   8.824   8.413 -0.4215  0.7611  1.5940
  789MOL0     O 4051   6.343   8.812   8.338  0.3977 -0.1903 -0.4852
  789MOL0     C 4052   6.367   8.688   8.269 -0.7566 -1.2372  0.5801
  789MOL0     C 4053   6.445   8.588   8.365  0.2473  0.2682 -0.1023
  789MOL0     C 4054   6.583   8.637   8.405  0.7026 -0.0328  0.5537
  789MOL0     C 4055   6.667   8.626   8.277 -0.1164 -0.7737  0.8294
  789MOL0     C 4056   6.821   8.632   8.328  0.0922 -0.3311  0.5880
  789MOL0     C 4057   6.908   8.642   8.209  0.2999 -0.2196  0.0602
  789MOL0     C 4058   7.059   8.630   8.242  1.2647 -0.3965 -0.0975
  789MOL0     C 4059   7.151   8.653   8.119  0.6313 -0.5238  0.0333
  789MOL0    Cl 4060   7.147   8.503   8.017 -0.1022  0.0646 -0.2140
  789MOL0     C 4061   6.217   8.942   8.481 -0.6856  0.3960 -0.4875
  789MOL0     C 4062   6.127   8.965   8.576  0.0264  0.3974  0.8328
  789MOL0     O 4063   6.048   8.951   8.872  0.2206 -0.0397  0.4846
  789MOL0     C 4064   5.684   8.970   8.846  0.6259  0.7504  0.3755
  789MOL0     C 4065   5.577   9.027   8.918 -1.0588  0.8431 -0.1592
  789MOL0     N 4066   5.056   9.066   9.586 -0.3170 -0.0700 -0.7347
  789MOL0     N 4067   4.982   8.977   9.640 -0.3764 -0.7115 -0.0748
  789MOL0     C 4068   4.019   8.745  10.349  0.8632 -1.1023 -0.7628
  789MOL0     C 4069   3.932   8.737  10.463  0.3550 -0.4179  0.3517
  789MOL0     C 4070   3.760   8.669  10.872  0.3611  0.8524  0.0307
  789MOL0     C 4071   3.663   8.750  10.945  0.1027  0.6744 -0.8095
  789MOL0     C 4072   3.638   8.723  11.082  0.2370 -0.5298  0.1538
  789MOL0     C 4073   3.692   8.609  11.152 -0.4918 -0.0365  0.7531
  789MOL0     O 4074   3.651   8.583  11.283 -0.1988  0.2092  0.9617
  789MOL0     C 4075   3.673   8.458  11.343  1.0303  0.9763 -0.7515
  789MOL0     C 4076   3.791   8.476  11.435 -0.5242  0.0698 -0.2504
  789MOL0     C 4077   3.768   8.462  11.580  0.5725 -0.3829 -0.0594
  789MOL0     C 4078   3.899   8.482  11.656  0.2245 -0.0868  1.0319
  789MOL0     C 4079   3.998   8.374  11.640  0.1285 -0.3364 -1.0517
  789MOL0     C 4080   4.070   8.277  11.617  0.3980 -0.6746  0.2984
  789MOL0     C 4081   3.797   8.547  11.078  0.6877 -0.9265 -0.5543
  789MOL0     C 4082   3.836   8.579  10.948 -0.6424  0.6005 -0.4871
  789MOL0     H 4083   4.074   8.472  10.630 -0.1401  0.6394  1.7533
  789MOL0     H 4084   4.216   8.492  10.448 -0.4566 -1.1381 -3.3822
  789MOL0     H 4085   4.285   8.453  10.247 -0.2772 -0.9725  0.5334
  789MOL0     H 4086   4.386   8.588  10.277  1.6398  0.2380 -2.0630
  789MOL0     H 4087   4.365   8.660  10.031 -1.5085 -0.6441 -1.2608
  789MOL0     H 4088   4.286   8.512  10.002 -0.5765 -0.8584  0.3369
  789MOL0     H 4089   4.494   8.397  10.093  1.3655  1.2254  0.8495
  789MOL0     H 4090   4.568   8.553  10.121  3.2891 -1.9589 -1.0954
  789MOL0     H 4091   4.622   8.426   9.898 -1.0802 -1.5594 -1.3808
  789MOL0     H 4092   4.465   8.496   9.843  2.5171  1.3862 -2.1102
  789MOL0     H 4093   4.703   8.656   9.954  3.1317  0.4419 -4.9009
  789MOL0     H 4094   4.544   8.721   9.927  2.5726  1.3792  1.2686
  789MOL0     H 4095   4.562   8.680   9.693 -0.7471 -1.4732  2.4444
  789MOL0     H 4096   4.716   8.587   9.710  3.5583  1.9473  1.9876
  789MOL0     H 4097   4.707   8.875   9.787  1.7577  0.1052  0.0626
  789MOL0     H 4098   4.849   8.773   9.789  0.2020 -2.0146 -0.0399
  789MOL0     H 4099   4.697   8.856   9.530  0.1643 -2.3943 -1.3967
  789MOL0     H 4100   4.809   8.735   9.530 -0.3758 -0.8518  0.4762
  789MOL0     H 4101   4.877   8.963   9.332 -1.1794 -0.9356 -0.2295
  789MOL0     H 4102   5.123   9.248   9.399  0.6039 -0.9869  0.1626
  789MOL0     H 4103   5.038   9.156   9.269  0.3448  3.0649 -0.3605
  789MOL0     H 4104   5.211   8.976   9.301 -2.1807 -0.6799  3.5664
  789MOL0     H 4105   5.295   9.090   9.402  2.3334  1.4785 -1.6866
  789MOL0     H 4106   5.232   9.123   9.111 -2.7620 -0.8084  2.3234
  789MOL0     H 4107   5.294   9.263   9.219  1.4403  0.0845 -2.1152
  789MOL0     H 4108   5.422   8.989   9.145  0.1398 -0.3665 -2.0548
  789MOL0     H 4109   5.483   9.077   9.275 -1.0662 -0.6526 -0.4198
  789MOL0     H 4110   5.754   9.178   9.164  1.0386 -0.0523 -0.7810
  789MOL0     H 4111   5.933   9.086   9.038 -0.1894  0.7649 -0.4358
  789MOL0     H 4112   5.934   8.691   8.534 -0.6848  0.7626  0.0578
  789MOL0     H 4113   6.116   8.637   8.361  0.4888  1.1390 -0.7888
  789MOL0     H 4114   6.432   8.724   8.189  1.9067  0.0325  3.1252
  789MOL0     H 4115   6.274   8.661   8.219 -0.0835 -1.0484 -0.8268
  789MOL0     H 4116   6.457   8.488   8.324 -1.1804  0.1097 -0.2037
  789MOL0     H 4117   6.383   8.563   8.452 -1.5625 -2.8696 -2.1265
  789MOL0     H 4118   6.617   8.568   8.482  1.1665 -0.6021 -0.1506
  789MOL0     H 4119   6.569   8.733   8.455 -0.0035  0.1977 -0.0724
  789MOL0     H 4120   6.657   8.531   8.223 -1.2643 -0.5397  0.5940
  789MOL0     H 4121   6.643   8.714   8.216  1.0584 -0.6227  0.5608
  789MOL0     H 4122   6.842   8.544   8.389  2.0851  0.9746  1.9117
  789MOL0     H 4123   6.844   8.716   8.394  0.0255 -0.9700  1.4489
  789MOL0     H 4124   6.893   8.740   8.162  1.2819  0.3049  0.7852
  789MOL0     H 4125   6.879   8.557   8.147  0.1683 -0.7856  0.8753
  789MOL0     H 4126   7.078   8.714   8.309 -0.7550  0.0756 -0.0465
  789MOL0     H 4127   7.070   8.530   8.284 -5.0188 -2.0164 -1.2299
  789MOL0     H 4128   7.253   8.667   8.158  1.4610  0.5784 -2.3289
  789MOL0     H 4129   7.123   8.738   8.056  1.8764  1.8575  2.4886
  789MOL0     H 4130   6.300   9.011   8.485 -0.9125  0.6326  0.3292
  789MOL0     H 4131   6.119   9.059   8.629 -2.0862  1.1999 -0.7614
  789MOL0     H 4132   5.659   8.928   8.749  0.3821  3.1143 -0.6682
  789MOL0     H 4133   5.475   9.029   8.882 -1.4909  0.8773  1.0196
  789MOL0     H 4134   4.010   8.823  10.275  3.2898  3.0706  2.8193
  789MOL0     H 4135   3.847   8.804  10.474  0.3871 -0.2624 -0.2714
  789MOL0     H 4136   3.634   8.835  10.884  0.3228  0.2833 -1.4577
  789MOL0     H 4137   3.578   8.789  11.144 -0.5861 -1.3472  0.2450
  789MOL0     H 4138   3.704   8.384  11.269 -0.0115 -1.9728  1.5442
  789MOL0     H 4139   3.590   8.422  11.404  2.0797  0.5435  0.4670
  789MOL0     H 4140   3.855   8.393  11.403  0.3718 -0.3262  2.3336
  789MOL0     H 4141   3.848   8.568  11.419  1.6680 -0.3297  3.9018
  789MOL0     H 4142   3.725   8.364  11.601  4.1592 -1.6688  2.0582
  789MOL0     H 4143   3.699   8.543  11.605  0.4717 -0.3530 -0.4157
  789MOL0     H 4144   3.933   8.582  11.627 -2.5248  0.9031  0.9225
  789MOL0     H 4145   3.872   8.489  11.762 -3.9848  0.7079  0.0703
  789MOL0     H 4146   4.150   8.214  11.583  0.1045 -1.3875  0.9210
  789MOL0     H 4147   3.854   8.467  11.125  0.4701 -0.8942 -0.2285
  789MOL0     H 4148   3.930   8.542  10.906  0.6558  3.0199  0.0858
  790MOL0     O 4149   9.431  10.899   9.047 -0.5247 -0.2694  0.2837
  790MOL0     C 4150   9.532  10.842   9.007 -0.4021  0.3529 -0.7637
  790MOL0     O 4151   9.570  10.709   9.041  0.7630  0.2974  0.4455
  790MOL0     C 4152   9.479  10.638   9.113 -0.4817 -0.8185  1.2085
  790MOL0     C 4153   9.534  10.540   9.194 -0.2929 -0.5011  0.1970
  790MOL0     C 4154   9.452  10.451   9.258  0.1549 -0.7247  0.5055
  790MOL0     C 4155   9.316  10.440   9.230 -0.3489  0.4612  0.0187
  790MOL0     O 4156   9.227  10.353   9.290 -0.7788  0.4742 -0.2111
  790MOL0     C 4157   9.157  10.401   9.410 -0.0185  1.6332  0.6563
  790MOL0     C 4158   9.244  10.460   9.518 -0.8155 -0.3630  0.4512
  790MOL0     C 4159   9.138  10.499   9.628  0.4453  0.5995  0.3740
  790MOL0     C 4160   9.070  10.638   9.610 -0.7279 -0.3615  0.5028
  790MOL0     C 4161   8.975  10.676   9.711  0.0048 -0.6110  0.1380
  790MOL0     C 4162   8.923  10.815   9.696  0.1359 -0.6000 -0.9279
  790MOL0     C 4163   8.835  10.854   9.810 -0.4620  0.4949  0.7145
  790MOL0     C 4164   8.768  10.987   9.781 -1.1749 -0.6411  1.8996
  790MOL0     N 4165   8.695  11.034   9.904  0.2754 -0.0665  0.2243
  790MOL0     C 4166   8.564  10.996   9.928  0.3166 -1.0358  0.2687
  790MOL0     C 4167   8.536  11.054  10.054 -0.2242  0.2277 -0.3621
  790MOL0     C 4168   8.405  11.062  10.134  0.5258  0.8831 -0.1849
  790MOL0     C 4169   8.281  11.064  10.041 -0.2791 -0.2677 -0.3675
  790MOL0     C 4170   8.289  11.174   9.943  0.9980  0.3339  0.1620
  790MOL0     C 4171   8.173  11.191   9.853  0.7685  1.0688  0.3594
  790MOL0     O 4172   8.046  11.160   9.908 -0.6340  0.9975  0.0533
  790MOL0     C 4173   7.936  11.172   9.825 -0.4936 -0.5604  0.3496
  790MOL0     C 4174   7.935  11.204   9.683  0.0575  0.6862  0.1248
  790MOL0     C 4175   7.812  11.185   9.622  0.2263 -0.6175 -0.0705
  790MOL0     C 4176   7.691  11.158   9.683  0.1026 -0.1901 -0.5561
  790MOL0     C 4177   7.561  11.166   9.610  1.0206  1.0385  0.6258
  790MOL0     O 4178   7.451  11.194   9.686 -0.6777 -0.0920 -0.0254
  790MOL0     C 4179   7.326  11.181   9.625 -0.5396 -1.0522 -0.7708
  790MOL0     C 4180   7.282  11.254   9.515 -0.6301 -0.3354  0.9276
  790MOL0     C 4181   7.148  11.239   9.457  0.3223  0.8959  0.3072
  790MOL0     C 4182   7.070  11.145   9.509  1.3736  0.8611  0.1495
  790MOL0     O 4183   6.940  11.114   9.460  0.0287 -0.0426  0.0278
  790MOL0     C 4184   6.924  11.119   9.318 -0.3269 -0.3864  0.8545
  790MOL0     C 4185   6.789  11.077   9.274  0.0838 -0.5421  0.0677
  790MOL0     C 4186   6.677  11.168   9.334 -0.7999  0.6099 -0.0387
  790MOL0     C 4187   6.547  11.128   9.260 -0.1571 -1.0757 -0.3914
  790MOL0     C 4188   6.422  11.212   9.307  0.0125  0.3306  0.6962
  790MOL0     C 4189   6.282  11.147   9.288  0.1105 -0.3745 -0.6341
  790MOL0     C 4190   6.185  11.248   9.335  0.0780  0.1631  0.4316
  790MOL0     C 4191   6.058  11.177   9.356  0.6803  0.0793  0.2418
  790MOL0    Cl 4192   5.978  11.140   9.188  0.2274 -0.1275  0.0096
  790MOL0     C 4193   7.098  11.087   9.627  0.2101 -0.4170  0.1605
  790MOL0     C 4194   7.224  11.109   9.686 -0.1956  0.5124 -0.5782
  790MOL0     O 4195   7.555  11.139   9.489 -0.3325  0.4801  0.2204
  790MOL0     C 4196   7.698  11.138   9.820  0.2083  0.4256 -0.4537
  790MOL0     C 4197   7.817  11.132   9.886  0.0668 -0.3669  1.0570
  790MOL0     N 4198   8.652  11.108  10.105 -0.3572 -0.0693 -1.0689
  790MOL0     N 4199   8.742  11.098  10.013  1.0048  1.1152 -0.6062
  790MOL0     C 4200   9.257  10.527   9.144 -0.9086 -0.3004  0.1306
  790MOL0     C 4201   9.343  10.620   9.084 -0.2127 -0.0859 -0.1570
  790MOL0     C 4202   9.628  10.921   8.928 -0.3273 -0.6508 -0.5952
  790MOL0     C 4203   9.766  10.889   8.946  0.7994  0.6218 -0.2717
  790MOL0     C 4204   9.862  10.988   8.915  1.2002  0.2945  0.4504
  790MOL0     C 4205   9.828  11.102   8.830 -0.0423  0.3421 -1.1467
  790MOL0     O 4206   9.906  11.203   8.790 -0.0863 -0.3830  0.0145
  790MOL0     C 4207  10.045  11.178   8.775 -0.8240  0.8968  0.2782
  790MOL0     C 4208  10.104  11.299   8.726  0.2402 -0.2868  0.0898
  790MOL0     C 4209  10.262  11.278   8.711  0.1869 -0.0187  0.2042
  790MOL0     C 4210  10.319  11.408   8.674 -0.8746 -0.2581  0.3746
  790MOL0     C 4211  10.465  11.411   8.692 -0.0739 -0.0343  0.5233
  790MOL0     C 4212  10.588  11.403   8.699 -0.4448  0.4922 -0.0642
  790MOL0     C 4213   9.687  11.118   8.808  0.2209 -0.1799 -0.4918
  790MOL0     C 4214   9.587  11.033   8.856  0.5668 -0.0189 -0.2016
  790MOL0     H 4215   9.642  10.549   9.204 -0.5200  1.0023  1.6310
  790MOL0     H 4216   9.491  10.378   9.329  0.3287 -0.0710  1.0946
  790MOL0     H 4217   9.093  10.317   9.440 -0.2078  1.0945 -1.1195
  790MOL0     H 4218   9.083  10.474   9.376 -1.6186 -0.6100 -0.9954
  790MOL0     H 4219   9.291  10.554   9.488 -0.1562 -0.2869  1.6804
  790MOL0     H 4220   9.321  10.390   9.552  0.1631  1.2467  1.6799
  790MOL0     H 4221   9.197  10.493   9.720  0.1945  1.3725  0.5900
  790MOL0     H 4222   9.064  10.419   9.641 -0.8590  1.1093 -2.8857
  790MOL0     H 4223   9.151  10.711   9.617  1.2442 -2.4684  0.8033
  790MOL0     H 4224   9.018  10.636   9.514  2.6459  0.5759 -1.5141
  790MOL0     H 4225   9.031  10.670   9.805  0.5153 -1.2153 -0.2013
  790MOL0     H 4226   8.888  10.610   9.712 -0.9734  0.6237  0.5990
  790MOL0     H 4227   8.866  10.831   9.604 -0.3294 -3.4677 -1.2191
  790MOL0     H 4228   9.007  10.885   9.693 -1.3696  1.2723 -1.0160
  790MOL0     H 4229   8.754  10.781   9.817 -1.5398  1.5938  0.0923
  790MOL0     H 4230   8.891  10.871   9.903  0.2046  1.8145  0.1050
  790MOL0     H 4231   8.702  10.983   9.695  0.9448 -0.2717  0.1614
  790MOL0     H 4232   8.835  11.069   9.753 -2.0798 -0.4786  0.0678
  790MOL0     H 4233   8.496  10.944   9.862 -0.8793  2.8216 -1.8577
  790MOL0     H 4234   8.398  11.143  10.206 -2.5170  0.2770  0.3330
  790MOL0     H 4235   8.403  10.968  10.190  0.5728  2.2667  2.2697
  790MOL0     H 4236   8.190  11.089  10.096 -0.7740 -1.2598 -0.7157
  790MOL0     H 4237   8.267  10.970   9.987  0.9586 -0.7075  0.0419
  790MOL0     H 4238   8.300  11.273   9.989 -1.3209  1.7274 -2.0047
  790MOL0     H 4239   8.374  11.164   9.875  0.4742 -2.4368 -0.1939
  790MOL0     H 4240   8.182  11.142   9.755 -1.7661 -2.1658  1.5422
  790MOL0     H 4241   8.172  11.294   9.816 -0.8723 -0.2499 -3.8199
  790MOL0     H 4242   8.023  11.231   9.626 -1.7616  3.6211 -1.5216
  790MOL0     H 4243   7.819  11.190   9.514  0.7606 -1.0048 -0.0598
  790MOL0     H 4244   7.355  11.316   9.464 -1.2032  0.8653  1.5219
  790MOL0     H 4245   7.122  11.291   9.366 -1.4574 -0.1373  0.1798
  790MOL0     H 4246   6.993  11.051   9.267 -0.7294 -0.0360 -0.1770
  790MOL0     H 4247   6.949  11.219   9.280  0.5744  0.7665  4.1001
  790MOL0     H 4248   6.763  10.979   9.316 -0.1316  0.3435  2.0851
  790MOL0     H 4249   6.787  11.063   9.165 -0.6809  0.9656 -0.1292
  790MOL0     H 4250   6.708  11.273   9.339 -1.8734  0.8858  1.6831
  790MOL0     H 4251   6.666  11.141   9.439 -1.5302 -2.7379 -0.8567
  790MOL0     H 4252   6.552  11.158   9.155 -0.3353  0.3769 -0.0074
  790MOL0     H 4253   6.532  11.020   9.261  1.6394 -1.3790  1.3803
  790MOL0     H 4254   6.422  11.317   9.277 -1.4460 -0.0851 -0.9696
  790MOL0     H 4255   6.436  11.227   9.414 -1.8214 -1.8731  1.3386
  790MOL0     H 4256   6.286  11.058   9.353 -2.3619 -0.7007 -0.8366
  790MOL0     H 4257   6.263  11.125   9.183  0.0243  1.4846 -1.0440
  790MOL0     H 4258   6.225  11.285   9.430 -1.7182 -0.2068  1.3653
  790MOL0     H 4259   6.162  11.331   9.267 -1.5796 -0.2644  0.4438
  790MOL0     H 4260   5.985  11.232   9.416 -2.7521 -3.5332 -0.2261
  790MOL0     H 4261   6.066  11.086   9.416 -1.0699 -0.6208 -0.5264
  790MOL0     H 4262   7.031  11.022   9.683 -0.5816  1.0593  0.9891
  790MOL0     H 4263   7.250  11.055   9.777 -0.1901  0.9571 -0.3128
  790MOL0     H 4264   7.608  11.108   9.873  1.2136  0.1907  1.1822
  790MOL0     H 4265   7.809  11.090   9.986 -1.9535 -1.4947  0.4641
  790MOL0     H 4266   9.151  10.511   9.125 -1.4855 -1.7715  3.7411
  790MOL0     H 4267   9.286  10.689   9.023  1.1395  3.2969  2.1174
  790MOL0     H 4268   9.786  10.800   9.005 -0.3433 -1.3253 -2.6607
  790MOL0     H 4269   9.963  10.962   8.944  0.7797 -0.2696  1.4493
  790MOL0     H 4270  10.066  11.101   8.700 -0.7003  1.1338  0.0713
  790MOL0     H 4271  10.101  11.145   8.864  2.0716  1.7083 -1.1149
  790MOL0     H 4272  10.067  11.311   8.624 -1.6659 -1.1599  0.6339
  790MOL0     H 4273  10.077  11.383   8.791 -1.3014 -2.2404  2.1485
  790MOL0     H 4274  10.271  11.197   8.638 -2.2254 -1.3328  1.2268
  790MOL0     H 4275  10.301  11.237   8.804 -1.1319  0.4130  0.9747
  790MOL0     H 4276  10.288  11.448   8.577  1.2051  4.1940  1.3386
  790MOL0     H 4277  10.283  11.476   8.751 -1.0382 -2.9203  2.8263
  790MOL0     H 4278  10.694  11.389   8.689 -0.1096  0.7163  2.5728
  790MOL0     H 4279   9.657  11.208   8.756 -2.4966  0.2460  1.5931
  790MOL0     H 4280   9.484  11.063   8.838  1.5919  5.7152  1.5274
  791MOL0     O 4281   2.614   9.028   6.190  0.2519 -0.6357  0.3174
  791MOL0     C 4282   2.543   8.940   6.240  0.4976 -0.3664 -0.5420
  791MOL0     O 4283   2.573   8.863   6.346  0.0029 -0.1949 -0.0932
  791MOL0     C 4284   2.707   8.854   6.373 -0.5362 -0.9578  0.3235
  791MOL0     C 4285   2.742   8.873   6.502 -0.4599  0.3436  0.5187
  791MOL0     C 4286   2.873   8.859   6.532  0.4289  0.7937  0.7036
  791MOL0     C 4287   2.970   8.822   6.432  0.1599  0.1583 -0.0578
  791MOL0     O 4288   3.101   8.800   6.463 -1.1200  0.4793  0.0427
  791MOL0     C 4289   3.193   8.887   6.396 -0.2773  0.0713  0.5918
  791MOL0     C 4290   3.322   8.810   6.351 -0.0258 -0.0649  0.0054
  791MOL0     C 4291   3.420   8.902   6.280 -0.2757  0.9013  0.2631
  791MOL0     C 4292   3.556   8.843   6.274  0.0458  0.0044 -0.4096
  791MOL0     C 4293   3.624   8.871   6.138 -0.4081 -0.8151  0.1709
  791MOL0     C 4294   3.756   8.799   6.134 -0.4222 -0.8093  0.8244
  791MOL0     C 4295   3.732   8.643   6.121  0.0625  0.1789  0.7440
  791MOL0     C 4296   3.863   8.555   6.123  0.7318 -0.4835 -0.0399
  791MOL0     N 4297   3.832   8.417   6.091  0.2065  0.7825 -0.1388
  791MOL0     C 4298   3.778   8.356   5.977  0.4134 -0.5175  0.2942
  791MOL0     C 4299   3.805   8.220   5.985 -1.0003  0.3906  0.0191
  791MOL0     C 4300   3.758   8.107   5.893  0.3691  0.1119 -0.2833
  791MOL0     C 4301   3.765   8.154   5.747 -0.4724  0.0770  0.1062
  791MOL0     C 4302   3.743   8.044   5.645  0.3378 -0.1921  0.2888
  791MOL0     C 4303   3.685   8.089   5.516 -0.4511 -0.7500  0.3930
  791MOL0     O 4304   3.781   8.163   5.439 -0.3110  0.3656  0.1421
  791MOL0     C 4305   3.743   8.229   5.318 -0.3913  0.3344 -0.2662
  791MOL0     C 4306   3.609   8.270   5.289  0.6244  0.1195  0.2841
  791MOL0     C 4307   3.581   8.353   5.180  0.8304 -0.9323  0.7215
  791MOL0     C 4308   3.686   8.392   5.094  0.2197  0.6170  0.7975
  791MOL0     C 4309   3.662   8.457   4.969  1.1219  0.1777  0.5438
  791MOL0     O 4310   3.535   8.424   4.915 -0.2287  0.2734 -0.4620
  791MOL0     C 4311   3.515   8.443   4.785 -0.0172 -0.6529  0.8414
  791MOL0     C 4312   3.401   8.518   4.754  0.2226  0.4761  0.4238
  791MOL0     C 4313   3.373   8.533   4.613  0.7918 -0.5552 -0.0325
  791MOL0     C 4314   3.456   8.471   4.508 -0.2287  0.3117 -1.4298
  791MOL0     O 4315   3.408   8.476   4.385  1.4497  0.4756 -0.0366
  791MOL0     C 4316   3.413   8.364   4.302 -0.4024  0.3597 -1.0857
  791MOL0     C 4317   3.317   8.394   4.186  0.3788  0.6248 -0.5009
  791MOL0     C 4318   3.259   8.265   4.137  0.0670  0.1988 -0.3164
  791MOL0     C 4319   3.111   8.251   4.163 -0.1385 -0.0162  0.2228
  791MOL0     C 4320   3.010   8.291   4.048 -1.1921  0.0303 -0.2439
  791MOL0     C 4321   3.039   8.431   3.993 -0.4477 -0.5196 -0.1882
  791MOL0     C 4322   2.942   8.455   3.875  0.1614  0.6367 -0.3545
  791MOL0     C 4323   2.932   8.601   3.840 -0.0016  0.1077  0.5630
  791MOL0    Cl 4324   2.810   8.615   3.716 -0.4651 -0.5310 -0.1258
  791MOL0     C 4325   3.564   8.393   4.554 -0.2016  0.5620 -0.0893
  791MOL0     C 4326   3.598   8.391   4.686 -0.5588  0.6493 -0.7047
  791MOL0     O 4327   3.748   8.528   4.913  0.3857  0.0657 -0.0365
  791MOL0     C 4328   3.813   8.362   5.126 -0.2541 -0.0887 -0.7493
  791MOL0     C 4329   3.841   8.280   5.239  0.0647  0.3300  0.4602
  791MOL0     N 4330   3.878   8.203   6.100 -0.2411  0.6137 -0.2340
  791MOL0     N 4331   3.888   8.313   6.166  1.0694  1.2593 -0.0259
  791MOL0     C 4332   2.939   8.814   6.295  0.9921  0.6309 -0.1200
  791MOL0     C 4333   2.802   8.829   6.272  0.1071  0.0159 -0.1537
  791MOL0     C 4334   2.411   8.922   6.180  0.1618  0.7370 -0.6533
  791MOL0     C 4335   2.324   8.827   6.234  0.1725 -0.5838 -0.3301
  791MOL0     C 4336   2.200   8.797   6.189  0.4155 -0.6548  0.3847
  791MOL0     C 4337   2.159   8.860   6.072  0.0977  0.9403 -0.1349
  791MOL0     O 4338   2.045   8.839   6.011  0.2916  0.5821 -0.1178
  791MOL0     C 4339   1.991   8.705   6.008 -0.3512 -0.9999 -0.6460
  791MOL0     C 4340   1.866   8.700   6.094 -0.3173  0.5131 -0.5694
  791MOL0     C 4341   1.804   8.557   6.100 -0.6018 -0.1523 -0.0736
  791MOL0     C 4342   1.688   8.560   6.195 -0.7376 -0.4362 -0.6762
  791MOL0     C 4343   1.618   8.432   6.190 -0.8873  0.5198  0.1830
  791MOL0     C 4344   1.568   8.324   6.181  0.7623  0.2311  0.9173
  791MOL0     C 4345   2.243   8.955   6.015  0.1381 -1.4355  0.7070
  791MOL0     C 4346   2.367   8.990   6.070  0.1183  0.1994 -0.2389
  791MOL0     H 4347   2.663   8.900   6.571 -1.0991 -2.2292  0.8743
  791MOL0     H 4348   2.921   8.881   6.627  1.4977 -0.5472  0.5099
  791MOL0     H 4349   3.228   8.960   6.469 -0.3361  0.4042  0.2899
  791MOL0     H 4350   3.143   8.950   6.321 -0.1021  2.9559  2.7246
  791MOL0     H 4351   3.293   8.719   6.299 -1.6110 -0.9702  2.3171
  791MOL0     H 4352   3.370   8.779   6.444  2.0229  0.8206 -0.6697
  791MOL0     H 4353   3.416   8.998   6.332  0.4435  0.4446  1.1943
  791MOL0     H 4354   3.368   8.909   6.184 -1.8906 -2.9381  0.6472
  791MOL0     H 4355   3.621   8.881   6.353  1.1975  0.2535 -1.4396
  791MOL0     H 4356   3.544   8.735   6.282  1.3323 -0.3370 -2.2902
  791MOL0     H 4357   3.632   8.978   6.119 -1.2074  0.1291  4.3794
  791MOL0     H 4358   3.567   8.824   6.057  2.1148 -2.2539 -0.9062
  791MOL0     H 4359   3.805   8.817   6.230 -2.0405 -1.2708  1.7799
  791MOL0     H 4360   3.803   8.844   6.046 -1.1560 -1.1664  0.2336
  791MOL0     H 4361   3.665   8.594   6.192  2.5978  0.5045  3.5356
  791MOL0     H 4362   3.684   8.639   6.022 -0.2746 -0.7591  0.9333
  791MOL0     H 4363   3.904   8.575   6.223 -3.2264 -0.4786  1.7938
  791MOL0     H 4364   3.934   8.598   6.052 -0.1325  3.6883  1.3161
  791MOL0     H 4365   3.709   8.410   5.913 -0.7389  1.1320  2.7923
  791MOL0     H 4366   3.652   8.080   5.901 -0.2953  2.9242  1.8510
  791MOL0     H 4367   3.817   8.016   5.904  1.0490  0.4147 -1.2668
  791MOL0     H 4368   3.870   8.184   5.738  0.3787 -1.6367  3.0350
  791MOL0     H 4369   3.689   8.230   5.725 -4.5491 -3.7327 -0.4303
  791MOL0     H 4370   3.841   7.998   5.632 -0.1384 -1.6493  1.5849
  791MOL0     H 4371   3.674   7.968   5.682  0.1540 -0.2139 -0.1012
  791MOL0     H 4372   3.592   8.139   5.545 -0.6134 -0.4784 -0.5556
  791MOL0     H 4373   3.650   8.000   5.462 -2.1862 -1.5983  2.7660
  791MOL0     H 4374   3.525   8.260   5.357  0.7173  0.3147  0.4278
  791MOL0     H 4375   3.477   8.374   5.158  0.5579 -1.7595  1.1541
  791MOL0     H 4376   3.334   8.562   4.826 -0.6649 -0.9126  0.4930
  791MOL0     H 4377   3.282   8.588   4.591 -0.5963 -1.7069  2.4141
  791MOL0     H 4378   3.395   8.278   4.368  0.0055  0.1198 -1.2854
  791MOL0     H 4379   3.508   8.353   4.249  0.1384 -1.1021  0.0831
  791MOL0     H 4380   3.369   8.446   4.105  0.4804  1.6049  0.1692
  791MOL0     H 4381   3.238   8.466   4.213 -1.5527 -2.1133  1.6985
  791MOL0     H 4382   3.320   8.178   4.164  3.1547  2.0977 -0.6785
  791MOL0     H 4383   3.269   8.259   4.029 -0.3102 -0.0794 -0.3376
  791MOL0     H 4384   3.079   8.149   4.187  0.8872 -0.7682 -1.4113
  791MOL0     H 4385   3.091   8.319   4.246  0.9513  3.1527 -1.9330
  791MOL0     H 4386   2.908   8.279   4.083 -0.7926  0.3150  1.0628
  791MOL0     H 4387   3.030   8.226   3.962  3.2845  3.5445 -2.3219
  791MOL0     H 4388   3.134   8.424   3.939 -1.6344 -0.2695 -2.4174
  791MOL0     H 4389   3.030   8.510   4.068 -0.1201  2.7538 -3.2840
  791MOL0     H 4390   2.975   8.407   3.782 -1.2918  0.1025 -0.6203
  791MOL0     H 4391   2.843   8.413   3.894  1.5434 -2.7751  0.0292
  791MOL0     H 4392   3.029   8.638   3.806 -0.4645  0.7404 -0.1079
  791MOL0     H 4393   2.900   8.668   3.921 -1.0879  0.2838  0.0029
  791MOL0     H 4394   3.638   8.354   4.485  2.0138  0.4204  2.2141
  791MOL0     H 4395   3.696   8.353   4.715 -1.2712  0.2171  1.2480
  791MOL0     H 4396   3.889   8.386   5.053 -1.7107  3.6799 -1.2292
  791MOL0     H 4397   3.946   8.254   5.252  0.1604  1.4706  2.2979
  791MOL0     H 4398   3.011   8.783   6.221  0.8781  0.0232  0.0231
  791MOL0     H 4399   2.770   8.800   6.173  0.5606  3.3061 -1.3821
  791MOL0     H 4400   2.350   8.771   6.324 -1.8158  0.4381  0.9535
  791MOL0     H 4401   2.150   8.727   6.256 -0.4794 -0.3942 -0.0065
  791MOL0     H 4402   2.061   8.630   6.046  1.2655  0.4277 -0.7290
  791MOL0     H 4403   1.959   8.674   5.908 -2.8518 -2.8377  0.5845
  791MOL0     H 4404   1.903   8.723   6.194  0.8860  1.2781 -1.1599
  791MOL0     H 4405   1.793   8.775   6.062 -1.2354 -0.0568  0.1345
  791MOL0     H 4406   1.877   8.487   6.142  0.3388  0.0978 -1.2307
  791MOL0     H 4407   1.767   8.528   6.001 -4.9218  0.8567  1.0573
  791MOL0     H 4408   1.718   8.569   6.300 -1.0526  1.3502 -0.7202
  791MOL0     H 4409   1.614   8.636   6.170 -1.3099 -0.0914  1.7805
  791MOL0     H 4410   1.509   8.235   6.177  3.4891 -1.6536 -0.1877
  791MOL0     H 4411   2.215   9.000   5.920 -0.8084 -1.5241  0.9377
  791MOL0     H 4412   2.412   9.073   6.017 -0.7663  0.2478 -0.9363
  792MOL0     O 4413   6.380   6.594   1.539  0.4358  0.2054 -0.5520
  792MOL0     C 4414   6.444   6.558   1.445 -1.0115  0.1728 -0.0637
  792MOL0     O 4415   6.586   6.563   1.434  1.0823 -1.0400 -0.5207
  792MOL0     C 4416   6.665   6.597   1.542  0.4574  0.3047 -0.0470
  792MOL0     C 4417   6.783   6.666   1.532 -0.3074  0.1675 -0.8828
  792MOL0     C 4418   6.872   6.700   1.638 -0.8666  0.9224  0.0028
  792MOL0     C 4419   6.839   6.666   1.770  0.7330  0.3726  0.0707
  792MOL0     O 4420   6.902   6.691   1.882  0.2012 -0.1050 -0.7374
  792MOL0     C 4421   7.048   6.705   1.877 -0.4980 -0.3720  0.5836
  792MOL0     C 4422   7.102   6.832   1.938 -0.8720  0.9799  0.1847
  792MOL0     C 4423   7.115   6.812   2.093 -0.0873 -0.0033  0.8608
  792MOL0     C 4424   7.191   6.922   2.175  0.3232  0.0048 -0.0772
  792MOL0     C 4425   7.281   6.853   2.279 -0.0795 -0.5927 -0.6521
  792MOL0     C 4426   7.336   6.943   2.398  0.6213 -0.8919 -0.2732
  792MOL0     C 4427   7.431   6.862   2.497 -0.4809 -0.8424  0.0642
  792MOL0     C 4428   7.577   6.855   2.444 -0.6119  0.1113  0.0566
  792MOL0     N 4429   7.646   6.985   2.464 -0.6457 -0.3525  0.0269
  792MOL0     C 4430   7.628   7.066   2.571 -0.1302  0.8230 -0.8139
  792MOL0     C 4431   7.692   7.182   2.543 -0.5566  0.6599 -0.0754
  792MOL0     C 4432   7.704   7.299   2.626 -0.0670  0.1943 -0.2429
  792MOL0     C 4433   7.576   7.361   2.667  0.6562 -1.6606 -0.9382
  792MOL0     C 4434   7.602   7.479   2.773  0.3252 -0.0227 -0.1398
  792MOL0     C 4435   7.496   7.598   2.762  0.4496 -0.1166 -1.3051
  792MOL0     O 4436   7.561   7.703   2.693  0.1578 -0.5756  0.5554
  792MOL0     C 4437   7.486   7.818   2.677 -1.0238 -0.1361 -0.0695
  792MOL0     C 4438   7.558   7.925   2.618  0.0939 -0.8012  0.2386
  792MOL0     C 4439   7.493   8.053   2.597  0.2584  0.6085 -0.4264
  792MOL0     C 4440   7.361   8.075   2.642  0.6049  0.3327 -0.4582
  792MOL0     C 4441   7.286   8.202   2.590 -1.1535 -0.2759  0.7496
  792MOL0     O 4442   7.153   8.198   2.594 -0.9260 -0.7849 -0.5488
  792MOL0     C 4443   7.086   8.303   2.531 -0.6044 -0.2847  0.1468
  792MOL0     C 4444   7.029   8.282   2.404  0.9842 -0.3353 -0.5542
  792MOL0     C 4445   6.957   8.381   2.340  1.0772  0.5182  0.3346
  792MOL0     C 4446   6.938   8.502   2.400 -0.4450  0.4622 -0.2543
  792MOL0     O 4447   6.855   8.591   2.341  0.8212  0.4093 -0.1179
  792MOL0     C 4448   6.716   8.553   2.330  0.0964  0.8191  0.9495
  792MOL0     C 4449   6.622   8.646   2.407  0.0937  0.6509 -0.0889
  792MOL0     C 4450   6.485   8.583   2.440  0.1751 -0.6314  0.1785
  792MOL0     C 4451   6.381   8.683   2.488 -0.1239 -0.3394 -0.6304
  792MOL0     C 4452   6.263   8.604   2.537 -0.0575 -0.4612  0.5153
  792MOL0     C 4453   6.146   8.693   2.589 -0.1857 -0.6268 -0.2544
  792MOL0     C 4454   6.011   8.623   2.597  1.0004  0.3218 -0.5102
  792MOL0     C 4455   5.904   8.714   2.659 -0.1318 -0.9276 -0.3165
  792MOL0    Cl 4456   5.869   8.866   2.560 -0.4424 -0.0345  0.0482
  792MOL0     C 4457   6.984   8.530   2.526  0.9405  0.4925 -0.1042
  792MOL0     C 4458   7.060   8.431   2.593  1.1669  0.5265  0.1719
  792MOL0     O 4459   7.355   8.299   2.560 -0.3777 -0.3956  0.1665
  792MOL0     C 4460   7.288   7.970   2.696 -0.3228 -0.3972  0.1140
  792MOL0     C 4461   7.349   7.843   2.709  0.1094  1.0039  0.8459
  792MOL0     N 4462   7.773   7.160   2.431 -0.5503 -0.2925 -0.1500
  792MOL0     N 4463   7.741   7.048   2.384  0.5357  0.1959 -0.4888
  792MOL0     C 4464   6.713   6.597   1.784  0.4716  0.9415  0.0680
  792MOL0     C 4465   6.630   6.564   1.676  0.4968 -0.6135  0.3401
  792MOL0     C 4466   6.379   6.497   1.329  0.4683 -0.8282 -0.0983
  792MOL0     C 4467   6.459   6.466   1.215 -0.1443 -0.0378 -0.2120
  792MOL0     C 4468   6.392   6.400   1.107 -0.6270  0.1358  0.2927
  792MOL0     C 4469   6.254   6.375   1.102 -0.3800 -0.0990 -0.3291
  792MOL0     O 4470   6.198   6.326   0.988  0.0948 -0.3052  0.4264
  792MOL0     C 4471   6.277   6.317   0.858 -0.0115 -0.1210 -0.4773
  792MOL0     C 4472   6.177   6.276   0.752  0.3980 -0.4204  0.1026
  792MOL0     C 4473   6.069   6.389   0.729  0.3378  0.2177  0.1126
  792MOL0     C 4474   5.974   6.351   0.615 -0.6043 -0.3034 -0.1956
  792MOL0     C 4475   5.905   6.463   0.558  0.7998 -1.0348 -0.8276
  792MOL0     C 4476   5.858   6.561   0.490 -0.6071  0.4836 -0.1312
  792MOL0     C 4477   6.174   6.413   1.211 -0.3338  0.2619 -0.2367
  792MOL0     C 4478   6.233   6.468   1.324 -0.3761  0.2941  0.1900
  792MOL0     H 4479   6.792   6.681   1.425 -2.2645  0.4113 -1.0498
  792MOL0     H 4480   6.968   6.744   1.615 -0.2884  1.1332  2.5195
  792MOL0     H 4481   7.082   6.708   1.773 -1.8396 -0.1021  0.1356
  792MOL0     H 4482   7.099   6.621   1.925 -0.1501  0.1009  1.0483
  792MOL0     H 4483   7.036   6.916   1.914  0.4847  1.2333 -3.2238
  792MOL0     H 4484   7.204   6.855   1.904 -0.8922  0.4453 -0.2464
  792MOL0     H 4485   7.169   6.717   2.095  0.0790  0.0598 -0.1388
  792MOL0     H 4486   7.015   6.812   2.136  0.3592 -1.0858  1.9639
  792MOL0     H 4487   7.253   6.984   2.109  0.7796 -2.4295 -2.0939
  792MOL0     H 4488   7.123   6.979   2.239  0.0672 -0.0301 -0.3169
  792MOL0     H 4489   7.365   6.800   2.233 -0.1753 -1.3997  0.0747
  792MOL0     H 4490   7.225   6.775   2.331 -2.3624  0.3397 -1.5786
  792MOL0     H 4491   7.252   6.982   2.456  2.1394  0.1281  1.3322
  792MOL0     H 4492   7.383   7.031   2.352 -2.8446  0.1936 -2.0908
  792MOL0     H 4493   7.433   6.893   2.602 -1.5698  1.6849 -0.6003
  792MOL0     H 4494   7.394   6.759   2.505 -0.4835 -0.9114 -0.7495
  792MOL0     H 4495   7.583   6.838   2.336  0.3899 -1.2904  0.3006
  792MOL0     H 4496   7.624   6.773   2.499 -0.2144  0.0490 -0.3681
  792MOL0     H 4497   7.574   7.039   2.661  1.5556 -2.3477 -0.6001
  792MOL0     H 4498   7.771   7.369   2.575 -1.5631  2.2323  0.4269
  792MOL0     H 4499   7.760   7.274   2.716  0.4040  0.2104 -0.5271
  792MOL0     H 4500   7.499   7.299   2.713  1.9223 -1.4748  1.6456
  792MOL0     H 4501   7.528   7.389   2.573  0.7094  0.9177 -0.2754
  792MOL0     H 4502   7.602   7.435   2.873 -0.0527  0.6236  0.1490
  792MOL0     H 4503   7.706   7.510   2.757  0.0515 -0.5095 -3.4478
  792MOL0     H 4504   7.468   7.623   2.865 -0.3777 -2.4942 -0.9020
  792MOL0     H 4505   7.409   7.558   2.711  0.0392 -2.3292  0.9502
  792MOL0     H 4506   7.664   7.915   2.596  0.4285 -0.7146  1.7092
  792MOL0     H 4507   7.542   8.136   2.547 -0.8238 -0.4655 -3.5480
  792MOL0     H 4508   7.054   8.194   2.346 -1.6257 -0.9762 -0.8237
  792MOL0     H 4509   6.902   8.356   2.250  0.3394  0.1932  0.8649
  792MOL0     H 4510   6.715   8.451   2.369  2.3394 -0.0080 -0.9237
  792MOL0     H 4511   6.695   8.559   2.222  3.4347  2.3779  0.2620
  792MOL0     H 4512   6.604   8.736   2.348 -0.2441  0.4433 -0.3065
  792MOL0     H 4513   6.669   8.675   2.501 -0.2050  3.6600 -0.7634
  792MOL0     H 4514   6.497   8.499   2.508  1.7731  0.6488  1.5520
  792MOL0     H 4515   6.442   8.532   2.353 -2.5639 -1.2741  1.7744
  792MOL0     H 4516   6.424   8.749   2.563 -0.5218  3.2636 -3.3130
  792MOL0     H 4517   6.364   8.753   2.406  0.1318  0.8955  0.3496
  792MOL0     H 4518   6.297   8.539   2.618  1.5959 -0.2134  0.0465
  792MOL0     H 4519   6.238   8.541   2.451  3.6538  0.9849 -1.8794
  792MOL0     H 4520   6.140   8.782   2.525 -2.9290 -0.4500  0.1232
  792MOL0     H 4521   6.170   8.728   2.689  0.6065 -3.3424  0.5874
  792MOL0     H 4522   5.979   8.597   2.496 -2.6819 -2.5255  1.1339
  792MOL0     H 4523   6.015   8.537   2.665  1.9275  0.1701 -0.7389
  792MOL0     H 4524   5.934   8.734   2.762 -1.2418  0.5485 -0.2462
  792MOL0     H 4525   5.817   8.650   2.645  1.0270 -2.5248 -0.5477
  792MOL0     H 4526   6.960   8.630   2.560 -0.7349  0.0952 -0.0333
  792MOL0     H 4527   7.094   8.438   2.696 -1.0510  3.6310  0.8169
  792MOL0     H 4528   7.181   7.975   2.714 -0.6005  1.8972 -1.7144
  792MOL0     H 4529   7.281   7.766   2.743  1.0114  0.3279  1.1436
  792MOL0     H 4530   6.679   6.568   1.883 -3.3178 -2.1123 -1.8531
  792MOL0     H 4531   6.539   6.509   1.695  1.0104 -0.9140  2.1970
  792MOL0     H 4532   6.567   6.476   1.208  0.1413 -1.1417  1.7237
  792MOL0     H 4533   6.461   6.359   1.034  1.3306  1.0517  1.5510
  792MOL0     H 4534   6.359   6.246   0.875  1.6666  2.0139  0.7996
  792MOL0     H 4535   6.323   6.410   0.824  2.6247 -0.1926  2.4921
  792MOL0     H 4536   6.234   6.254   0.662 -1.2204 -1.6005 -0.6680
  792MOL0     H 4537   6.123   6.185   0.781 -0.6261  0.0015 -0.4564
  792MOL0     H 4538   6.125   6.478   0.698  0.4696 -0.9950 -3.5206
  792MOL0     H 4539   6.009   6.411   0.818 -0.0330  3.1375 -0.7574
  792MOL0     H 4540   6.022   6.302   0.530  0.1563 -1.3798  0.8187
  792MOL0     H 4541   5.901   6.286   0.664 -2.1019  0.8074 -0.8873
  792MOL0     H 4542   5.835   6.652   0.438  2.6571  0.8821 -1.0674
  792MOL0     H 4543   6.068   6.396   1.227  0.1383  0.7075  4.8666
  792MOL0     H 4544   6.179   6.475   1.418  0.7154 -0.7797  0.9277
  793MOL0     O 4545   9.147   0.338   9.601  0.1231  0.0380 -0.6522
  793MOL0     C 4546   9.157   0.230   9.540  0.2429  0.3168  0.8113
  793MOL0     O 4547   9.057   0.170   9.469  0.3577  0.6175 -0.1994
  793MOL0     C 4548   8.929   0.220   9.465 -0.3845  0.1927  0.5444
  793MOL0     C 4549   8.859   0.307   9.557  1.2435  0.4214 -0.7776
  793MOL0     C 4550   8.735   0.361   9.517 -0.1725  0.0891 -0.0774
  793MOL0     C 4551   8.677   0.329   9.397 -0.3749  0.0369 -0.2254
  793MOL0     O 4552   8.549   0.381   9.375  0.7142  0.4538  0.6282
  793MOL0     C 4553   8.479   0.318   9.259 -0.2473 -0.4016 -0.7152
  793MOL0     C 4554   8.354   0.388   9.237  0.3644  0.4252 -0.5254
  793MOL0     C 4555   8.267   0.318   9.126 -0.5688 -0.2574  0.4854
  793MOL0     C 4556   8.147   0.403   9.102 -0.1989 -0.2038  0.5880
  793MOL0     C 4557   8.050   0.354   8.999  0.4404  0.7509  0.4717
  793MOL0     C 4558   7.921   0.436   8.996 -0.1658 -0.7056  0.5040
  793MOL0     C 4559   7.931   0.573   8.924 -0.3923  0.3083  0.5412
  793MOL0     C 4560   7.811   0.664   8.961  0.0175 -0.8928 -0.0356
  793MOL0     N 4561   7.832   0.802   8.912  0.1283 -0.3981  0.5684
  793MOL0     C 4562   7.838   0.838   8.777  0.4839 -0.7507 -0.1517
  793MOL0     C 4563   7.895   0.967   8.772 -0.1185  0.4667  0.1106
  793MOL0     C 4564   7.918   1.043   8.650  0.5543  0.7035 -0.0016
  793MOL0     C 4565   7.794   1.050   8.558 -0.5420 -0.4523  0.0866
  793MOL0     C 4566   7.826   1.146   8.448 -1.1088 -0.1340  0.2446
  793MOL0     C 4567   7.728   1.151   8.320 -0.7578  0.1942 -0.2180
  793MOL0     O 4568   7.605   1.212   8.355 -0.7948 -0.6343  0.0837
  793MOL0     C 4569   7.600   1.346   8.361  0.5089 -0.3151  0.8151
  793MOL0     C 4570   7.714   1.435   8.357 -0.0031  0.7745  0.3131
  793MOL0     C 4571   7.696   1.576   8.368 -0.1247  0.2045  0.1542
  793MOL0     C 4572   7.570   1.629   8.380 -0.2674 -0.4218 -0.2493
  793MOL0     C 4573   7.539   1.775   8.407  0.1815  0.5222 -0.1222
  793MOL0     O 4574   7.645   1.861   8.371 -0.3666 -0.8869  0.5028
  793MOL0     C 4575   7.644   1.992   8.414  0.1203  0.7515 -0.9503
  793MOL0     C 4576   7.645   2.015   8.551  0.2242 -0.0489  0.0115
  793MOL0     C 4577   7.646   2.156   8.585 -0.6803 -0.1080 -0.8296
  793MOL0     C 4578   7.649   2.260   8.493 -0.5735  0.3278  0.3717
  793MOL0     O 4579   7.668   2.392   8.526  0.3368 -0.3668 -0.1733
  793MOL0     C 4580   7.731   2.435   8.644 -1.1674 -0.2310 -0.2251
  793MOL0     C 4581   7.842   2.535   8.618 -0.1723 -0.4752 -0.5578
  793MOL0     C 4582   7.968   2.496   8.538  0.2707  0.8209 -0.7618
  793MOL0     C 4583   8.036   2.623   8.498 -0.0537 -0.6965  0.0370
  793MOL0     C 4584   8.178   2.581   8.463  1.2444 -0.6418 -0.2526
  793MOL0     C 4585   8.260   2.692   8.403 -0.4361 -0.3978 -0.0521
  793MOL0     C 4586   8.411   2.656   8.389  0.1055  1.0431  0.5273
  793MOL0     C 4587   8.495   2.770   8.323  0.8077  0.4587  0.4915
  793MOL0    Cl 4588   8.518   2.901   8.431 -0.3348  0.1044  0.2174
  793MOL0     C 4589   7.644   2.233   8.355 -0.0805  0.3735 -0.3532
  793MOL0     C 4590   7.658   2.095   8.316  1.0254  0.7867  0.9385
  793MOL0     O 4591   7.428   1.810   8.453 -0.1890  0.1632  0.3118
  793MOL0     C 4592   7.465   1.533   8.394 -0.7184 -0.0139 -0.3624
  793MOL0     C 4593   7.480   1.400   8.381  0.1409  0.3092  0.1375
  793MOL0     N 4594   7.903   1.004   8.910 -0.3040 -0.0605  0.9607
  793MOL0     N 4595   7.873   0.909   8.988 -1.4006 -0.7029  0.5453
  793MOL0     C 4596   8.742   0.242   9.306  0.6445 -0.5707 -0.1176
  793MOL0     C 4597   8.870   0.192   9.339 -0.0479  0.2966 -0.1541
  793MOL0     C 4598   9.296   0.162   9.555  0.3091  0.6278  0.1918
  793MOL0     C 4599   9.399   0.222   9.628 -0.0675 -0.7009 -0.1372
  793MOL0     C 4600   9.527   0.163   9.644 -0.2891  1.7844 -0.7906
  793MOL0     C 4601   9.554   0.034   9.592 -0.1637 -0.1152 -0.2921
  793MOL0     O 4602   9.672  -0.028   9.624 -0.3874 -0.0506 -0.4272
  793MOL0     C 4603   9.676  -0.167   9.609  0.2993 -0.1907  0.2588
  793MOL0     C 4604   9.803  -0.219   9.678 -0.2281  0.8150  1.4393
  793MOL0     C 4605   9.778  -0.211   9.829  0.4920 -0.1914  0.9352
  793MOL0     C 4606   9.862  -0.312   9.901 -0.5530 -0.4858  0.0799
  793MOL0     C 4607   9.797  -0.445   9.905 -0.7819  0.3597 -0.0609
  793MOL0     C 4608   9.741  -0.552   9.924  1.2097 -0.2348  0.1130
  793MOL0     C 4609   9.453  -0.026   9.507 -0.0368  0.3284  0.2244
  793MOL0     C 4610   9.331   0.041   9.489 -0.8435 -0.1266 -0.4409
  793MOL0     H 4611   8.899   0.345   9.650  2.1518 -2.7131  0.2236
  793MOL0     H 4612   8.678   0.422   9.586 -3.3548 -1.1546 -1.3858
  793MOL0     H 4613   8.459   0.212   9.277  2.3129 -0.8328 -0.0579
  793MOL0     H 4614   8.534   0.331   9.165 -2.6808 -0.2293 -2.1948
  793MOL0     H 4615   8.368   0.492   9.204  2.5048  0.1989 -0.5033
  793MOL0     H 4616   8.297   0.395   9.330 -0.7259 -0.2645 -1.1253
  793MOL0     H 4617   8.243   0.215   9.156  0.2450 -0.4534  0.5009
  793MOL0     H 4618   8.325   0.309   9.034  0.8172 -1.6704  1.4439
  793MOL0     H 4619   8.097   0.398   9.199  2.4630 -5.5276  2.0709
  793MOL0     H 4620   8.156   0.509   9.077 -1.3395 -0.2148  0.0814
  793MOL0     H 4621   8.012   0.255   9.029 -1.0374  1.6083  1.5803
  793MOL0     H 4622   8.098   0.337   8.902 -0.6859 -0.4654  0.0957
  793MOL0     H 4623   7.898   0.450   9.102  2.5946 -0.3070  1.1355
  793MOL0     H 4624   7.841   0.382   8.945 -0.1580  1.6407 -2.2758
  793MOL0     H 4625   8.021   0.628   8.953 -0.0102  0.2532 -0.4728
  793MOL0     H 4626   7.928   0.560   8.815 -2.4944 -0.8933  0.6906
  793MOL0     H 4627   7.791   0.674   9.068 -1.5810  3.4856 -0.5489
  793MOL0     H 4628   7.721   0.619   8.918 -1.8821 -0.6635  3.3652
  793MOL0     H 4629   7.803   0.793   8.685 -0.2816 -1.1456  0.3188
  793MOL0     H 4630   8.005   1.020   8.587  0.5809  2.4993 -0.6914
  793MOL0     H 4631   7.923   1.142   8.696 -1.6871 -0.3089  2.6474
  793MOL0     H 4632   7.706   1.082   8.614  0.2854  2.3935 -0.1251
  793MOL0     H 4633   7.779   0.957   8.501  3.5335  0.4628 -2.9874
  793MOL0     H 4634   7.822   1.247   8.490  0.1820  1.0685 -2.3087
  793MOL0     H 4635   7.928   1.124   8.416 -1.3307 -0.1466 -0.4755
  793MOL0     H 4636   7.717   1.048   8.285  3.1188  0.0495 -1.4907
  793MOL0     H 4637   7.772   1.201   8.233  0.5223 -0.5266  0.0014
  793MOL0     H 4638   7.810   1.392   8.331 -0.8119 -1.1221  0.2980
  793MOL0     H 4639   7.778   1.647   8.366 -0.0056  0.0948  0.9654
  793MOL0     H 4640   7.650   1.934   8.623 -0.2433 -0.2682 -0.1972
  793MOL0     H 4641   7.659   2.190   8.687 -1.3399 -1.3462 -0.3089
  793MOL0     H 4642   7.787   2.353   8.690  0.8761  0.8650 -0.6526
  793MOL0     H 4643   7.650   2.483   8.700 -2.4958 -0.2354 -2.0413
  793MOL0     H 4644   7.873   2.573   8.715 -1.4830  1.6030 -0.8678
  793MOL0     H 4645   7.801   2.623   8.568  0.9303 -0.0274 -0.6981
  793MOL0     H 4646   7.954   2.438   8.447  0.1911  0.6310 -0.6290
  793MOL0     H 4647   8.029   2.439   8.609  1.1474 -2.1436 -3.6562
  793MOL0     H 4648   7.993   2.674   8.411 -1.7460  2.7408  2.6852
  793MOL0     H 4649   8.047   2.701   8.573  0.1397 -0.1519 -0.5542
  793MOL0     H 4650   8.164   2.515   8.377  1.3083  1.0002 -1.5748
  793MOL0     H 4651   8.219   2.541   8.556 -2.1974  1.1501  2.2938
  793MOL0     H 4652   8.250   2.784   8.460 -0.7199 -0.0106 -0.7202
  793MOL0     H 4653   8.225   2.715   8.302  0.7098  5.0465  0.4854
  793MOL0     H 4654   8.448   2.630   8.489  1.2040 -1.1990 -0.3793
  793MOL0     H 4655   8.411   2.563   8.331 -5.3374  0.7680  0.4745
  793MOL0     H 4656   8.432   2.802   8.240  0.8915 -0.4819  0.0406
  793MOL0     H 4657   8.590   2.728   8.286  0.5149  1.3670 -1.3944
  793MOL0     H 4658   7.645   2.317   8.287  0.4291  3.0089  2.7016
  793MOL0     H 4659   7.670   2.075   8.210 -2.4667 -0.0090  0.5866
  793MOL0     H 4660   7.367   1.578   8.406 -0.1992  1.1588 -0.3927
  793MOL0     H 4661   7.390   1.340   8.378  0.9328 -0.9202  0.1382
  793MOL0     H 4662   8.697   0.227   9.209 -0.6811  2.6323 -0.1090
  793MOL0     H 4663   8.920   0.130   9.265  1.7781  0.4759  0.8739
  793MOL0     H 4664   9.389   0.313   9.687  3.6854  0.4593 -1.0361
  793MOL0     H 4665   9.601   0.206   9.712  0.6395 -2.2774  1.0781
  793MOL0     H 4666   9.681  -0.194   9.503  0.4721  0.1192  0.1848
  793MOL0     H 4667   9.583  -0.202   9.654  0.3674  3.4236  3.7434
  793MOL0     H 4668   9.794  -0.327   9.660 -3.0215  1.1371  0.3846
  793MOL0     H 4669   9.898  -0.176   9.647 -0.6819  2.2011  1.8959
  793MOL0     H 4670   9.674  -0.236   9.854  0.5801 -1.7066 -0.0507
  793MOL0     H 4671   9.789  -0.107   9.860  0.8280  0.1291 -0.1907
  793MOL0     H 4672   9.967  -0.312   9.870 -0.8906  1.2602 -1.1981
  793MOL0     H 4673   9.864  -0.285  10.008  2.1496 -1.0180  0.2462
  793MOL0     H 4674   9.711  -0.647   9.963 -0.9272 -0.8014 -2.5961
  793MOL0     H 4675   9.465  -0.121   9.456 -1.3471 -0.0561  0.6167
  793MOL0     H 4676   9.260  -0.016   9.431  0.1139  0.5414 -2.3318
  794MOL0     O 4677   6.126   8.911   7.098 -0.2129  0.1338  0.2593
  794MOL0     C 4678   6.154   8.919   7.218  0.9137  1.0592 -0.8933
  794MOL0     O 4679   6.273   8.927   7.277 -0.7622  0.1139 -0.4604
  794MOL0     C 4680   6.384   8.949   7.196 -0.7764  0.1670  0.3138
  794MOL0     C 4681   6.463   9.060   7.217  0.3366 -0.3857 -0.7006
  794MOL0     C 4682   6.581   9.077   7.139 -0.0282  0.5418  0.2536
  794MOL0     C 4683   6.614   8.980   7.047  0.5621 -1.1384  0.7745
  794MOL0     O 4684   6.728   8.999   6.976 -0.6057 -0.2819 -0.6280
  794MOL0     C 4685   6.732   8.976   6.833 -0.4321 -1.3404 -0.9441
  794MOL0     C 4686   6.647   9.082   6.763  0.2551  1.4728  0.2571
  794MOL0     C 4687   6.676   9.232   6.787 -0.1409  0.2414  0.3178
  794MOL0     C 4688   6.822   9.264   6.747  0.0356 -0.0055  0.4510
  794MOL0     C 4689   6.830   9.419   6.721  0.3553  0.1663 -0.0333
  794MOL0     C 4690   6.960   9.457   6.671 -0.2711  0.2253  0.5079
  794MOL0     C 4691   7.001   9.398   6.545 -0.3155  0.4783 -0.2951
  794MOL0     C 4692   7.126   9.472   6.492 -0.4221  0.1516 -0.3142
  794MOL0     N 4693   7.143   9.451   6.345  0.4407 -0.2846 -0.1239
  794MOL0     C 4694   7.167   9.542   6.249  0.5736 -1.3167 -0.6763
  794MOL0     C 4695   7.217   9.474   6.145  0.0510  0.3129 -0.1449
  794MOL0     C 4696   7.254   9.524   6.012 -0.1337  0.5799 -0.0300
  794MOL0     C 4697   7.274   9.675   6.013  0.4871 -0.6365 -0.0832
  794MOL0     C 4698   7.293   9.718   5.872  0.0492 -0.4279 -0.4399
  794MOL0     C 4699   7.262   9.867   5.863  0.8731  0.1259  0.8060
  794MOL0     O 4700   7.194   9.900   5.738 -1.1953  0.1166 -0.2671
  794MOL0     C 4701   7.267   9.959   5.639  0.0708  0.1874 -0.1105
  794MOL0     C 4702   7.411   9.958   5.626 -0.1998  0.6113  1.1779
  794MOL0     C 4703   7.472  10.045   5.532  0.4345  0.1488  0.4625
  794MOL0     C 4704   7.396  10.130   5.444  0.7893 -0.1418 -0.9616
  794MOL0     C 4705   7.461  10.230   5.344 -0.0689  0.2855  0.1736
  794MOL0     O 4706   7.596  10.235   5.329 -0.0220  0.0756  0.7465
  794MOL0     C 4707   7.659  10.316   5.233  0.1236 -0.2524 -0.1435
  794MOL0     C 4708   7.609  10.343   5.107  0.3023 -0.5069 -0.1357
  794MOL0     C 4709   7.679  10.422   5.017  0.3180 -0.4393 -0.2419
  794MOL0     C 4710   7.794  10.497   5.049  0.8900  0.3630  0.2186
  794MOL0     O 4711   7.850  10.588   4.958  0.0197  0.3581  0.3986
  794MOL0     C 4712   7.963  10.665   5.007 -0.7487  0.7718  0.2736
  794MOL0     C 4713   8.016  10.754   4.898  0.7569  0.5977 -0.5677
  794MOL0     C 4714   8.151  10.811   4.953 -0.2040 -0.4279  0.6182
  794MOL0     C 4715   8.233  10.885   4.841 -0.2609 -0.1169  0.8734
  794MOL0     C 4716   8.385  10.888   4.869 -0.6392  0.2871 -0.4072
  794MOL0     C 4717   8.472  10.960   4.761 -0.2574 -0.6264  0.2809
  794MOL0     C 4718   8.590  10.883   4.706 -1.3923  0.1729 -0.1856
  794MOL0     C 4719   8.549  10.770   4.607 -0.4641 -0.5132 -1.2656
  794MOL0    Cl 4720   8.658  10.765   4.468 -0.1213  0.2968  0.2391
  794MOL0     C 4721   7.835  10.476   5.179  0.4689 -0.1597  0.4163
  794MOL0     C 4722   7.767  10.395   5.272 -0.8988  0.1121  0.5704
  794MOL0     O 4723   7.386  10.309   5.286  0.3732 -0.6558 -0.4068
  794MOL0     C 4724   7.257  10.123   5.454 -0.2103 -0.7266 -0.1297
  794MOL0     C 4725   7.193  10.047   5.552  0.6285  0.8817  0.0649
  794MOL0     N 4726   7.215   9.345   6.170 -0.5865  0.1688 -0.0259
  794MOL0     N 4727   7.179   9.329   6.299 -0.2660  0.3350 -0.0898
  794MOL0     C 4728   6.523   8.878   7.013  0.0831 -0.2855  0.4677
  794MOL0     C 4729   6.409   8.861   7.089 -0.8038  0.0519  0.1654
  794MOL0     C 4730   6.044   8.882   7.308 -0.0259  0.7136  0.7856
  794MOL0     C 4731   6.064   8.893   7.449 -0.9316 -0.5115  0.3934
  794MOL0     C 4732   5.967   8.855   7.544 -1.0336 -0.8963  0.2463
  794MOL0     C 4733   5.848   8.802   7.491  0.8389 -0.6682  0.1816
  794MOL0     O 4734   5.750   8.773   7.580  0.0075 -0.1525 -0.9497
  794MOL0     C 4735   5.644   8.687   7.538  0.5257  0.6319 -0.3935
  794MOL0     C 4736   5.698   8.548   7.515  0.1485  1.2530 -1.2843
  794MOL0     C 4737   5.585   8.474   7.446  0.0113 -0.0476  0.0927
  794MOL0     C 4738   5.596   8.465   7.296  1.0696  0.2695  0.4777
  794MOL0     C 4739   5.484   8.378   7.229 -0.5720  0.4885  0.0971
  794MOL0     C 4740   5.390   8.316   7.177  0.3744 -0.7866 -0.7556
  794MOL0     C 4741   5.830   8.789   7.353 -0.0425 -0.3632 -0.5252
  794MOL0     C 4742   5.921   8.831   7.261 -0.9460 -0.2370  0.1485
  794MOL0     H 4743   6.447   9.140   7.288 -0.5672  0.9719 -2.3704
  794MOL0     H 4744   6.656   9.154   7.151  1.9664 -0.7311 -2.8504
  794MOL0     H 4745   6.700   8.874   6.811  0.2482 -1.9442  0.6768
  794MOL0     H 4746   6.834   8.983   6.795 -0.9925  0.0952 -2.2733
  794MOL0     H 4747   6.542   9.053   6.777  0.5652  0.4636  0.6494
  794MOL0     H 4748   6.653   9.066   6.655 -2.4169 -2.0844  0.4501
  794MOL0     H 4749   6.650   9.250   6.891  0.9660  0.7213  0.5188
  794MOL0     H 4750   6.606   9.293   6.729 -1.0110 -1.0046  0.0026
  794MOL0     H 4751   6.878   9.234   6.836 -2.0555  0.4077  1.9751
  794MOL0     H 4752   6.851   9.205   6.659 -0.9977  2.9279 -2.0233
  794MOL0     H 4753   6.816   9.470   6.817 -0.3185 -1.8411  0.9857
  794MOL0     H 4754   6.749   9.453   6.656  0.1978 -0.7764 -0.3516
  794MOL0     H 4755   7.033   9.437   6.749  0.0748 -2.6043 -0.4243
  794MOL0     H 4756   6.957   9.564   6.647 -0.8657 -0.5439 -3.6771
  794MOL0     H 4757   7.023   9.290   6.545 -1.7636  0.1595 -1.1591
  794MOL0     H 4758   6.919   9.404   6.473  0.7853  2.1447 -1.5039
  794MOL0     H 4759   7.217   9.432   6.538  0.8427 -1.2681 -3.6993
  794MOL0     H 4760   7.111   9.578   6.511 -0.8776  0.0271  0.0575
  794MOL0     H 4761   7.144   9.648   6.240  3.3674 -0.7421 -2.2398
  794MOL0     H 4762   7.172   9.498   5.945  0.9348  1.1905 -1.6244
  794MOL0     H 4763   7.343   9.472   5.978 -0.2559  1.7003 -2.2223
  794MOL0     H 4764   7.359   9.703   6.076 -0.2857 -0.2479  0.8234
  794MOL0     H 4765   7.184   9.717   6.059 -0.4237 -1.7110 -0.8413
  794MOL0     H 4766   7.398   9.705   5.842  0.5824 -0.0824  1.1591
  794MOL0     H 4767   7.223   9.667   5.806 -0.1112  0.5657 -1.0711
  794MOL0     H 4768   7.364   9.907   5.870  0.8516  0.3691 -0.0500
  794MOL0     H 4769   7.193   9.890   5.944 -1.2728 -4.4058  0.5624
  794MOL0     H 4770   7.481   9.902   5.687 -0.4465 -0.8915  0.1350
  794MOL0     H 4771   7.578  10.033   5.509  1.1372  2.8585  1.8979
  794MOL0     H 4772   7.515  10.293   5.083 -1.8311  1.4472  3.3773
  794MOL0     H 4773   7.640  10.450   4.920 -0.7732  0.1150  0.3375
  794MOL0     H 4774   8.048  10.600   5.027 -2.9135 -2.2129  0.4930
  794MOL0     H 4775   7.936  10.721   5.098  2.6163 -0.9270  2.5438
  794MOL0     H 4776   7.941  10.828   4.868  1.2484  0.4170 -2.3482
  794MOL0     H 4777   8.032  10.690   4.811 -1.7198  0.6417 -1.1529
  794MOL0     H 4778   8.201  10.720   4.989 -1.5794 -2.2133 -1.6385
  794MOL0     H 4779   8.133  10.887   5.029  0.8828  1.3395 -0.8091
  794MOL0     H 4780   8.219  10.833   4.745  2.9593  0.1871  0.1249
  794MOL0     H 4781   8.198  10.988   4.827 -1.3976 -0.4995  0.8046
  794MOL0     H 4782   8.429  10.791   4.891  1.2537  1.3317  0.6633
  794MOL0     H 4783   8.397  10.952   4.957 -2.9018  0.5033 -0.1964
  794MOL0     H 4784   8.508  11.052   4.808 -2.4777  2.7262 -3.8446
  794MOL0     H 4785   8.404  10.990   4.681 -0.9767 -0.8040  0.8160
  794MOL0     H 4786   8.676  10.939   4.668  0.8079 -0.8485  2.9241
  794MOL0     H 4787   8.636  10.831   4.790  1.3421  0.0704 -1.6353
  794MOL0     H 4788   8.447  10.779   4.567  0.1469  0.6859 -2.6273
  794MOL0     H 4789   8.553  10.674   4.659 -0.1851  0.3359  0.3536
  794MOL0     H 4790   7.922  10.531   5.212  2.4255 -1.0867 -2.7479
  794MOL0     H 4791   7.811  10.387   5.371 -1.7695  0.5138  1.0081
  794MOL0     H 4792   7.191  10.184   5.393  0.1396 -1.1558 -0.9655
  794MOL0     H 4793   7.085  10.042   5.549  0.6874 -0.7583 -0.6150
  794MOL0     H 4794   6.532   8.807   6.931  0.4130 -0.3467  0.5512
  794MOL0     H 4795   6.338   8.784   7.058  0.0370 -0.5001 -0.4367
  794MOL0     H 4796   6.161   8.930   7.481 -0.2800 -0.3246 -1.6055
  794MOL0     H 4797   5.970   8.854   7.652 -0.1233  0.9781  0.2610
  794MOL0     H 4798   5.584   8.735   7.460 -2.6747  0.8232  2.0023
  794MOL0     H 4799   5.577   8.665   7.621  0.5016 -3.2498 -1.2218
  794MOL0     H 4800   5.785   8.539   7.449 -1.0619 -2.4961 -2.6169
  794MOL0     H 4801   5.724   8.511   7.615 -1.3571 -3.4883 -2.3801
  794MOL0     H 4802   5.487   8.511   7.478  1.1187  0.3198  3.5228
  794MOL0     H 4803   5.584   8.371   7.484  1.3456 -0.1329 -0.0579
  794MOL0     H 4804   5.585   8.565   7.252  0.9440 -0.2661 -0.7714
  794MOL0     H 4805   5.694   8.420   7.277  0.6223 -1.2326  1.5754
  794MOL0     H 4806   5.313   8.256   7.132 -1.0149  0.1483  0.2932
  794MOL0     H 4807   5.740   8.739   7.318  0.5385 -2.4286  0.7481
  794MOL0     H 4808   5.920   8.813   7.154  1.5794 -0.4797  0.1059
  795MOL0     O 4809   0.957   7.991   9.109  0.1430  0.2386 -0.3824
  795MOL0     C 4810   0.925   7.972   8.993 -0.1890 -0.0467 -1.5017
  795MOL0     O 4811   0.900   7.852   8.933 -0.1419 -0.0872 -0.2667
  795MOL0     C 4812   0.913   7.727   8.986 -0.2597 -0.1036 -0.1793
  795MOL0     C 4813   0.843   7.622   8.923  0.6922  0.3930 -0.1069
  795MOL0     C 4814   0.849   7.498   8.980  1.4428  1.3031  0.1590
  795MOL0     C 4815   0.909   7.464   9.104 -0.0593 -0.1090  0.6231
  795MOL0     O 4816   0.912   7.332   9.143  0.0113 -0.1298 -1.0706
  795MOL0     C 4817   0.924   7.230   9.041  0.2946 -0.6122 -0.0242
  795MOL0     C 4818   0.907   7.099   9.118  0.8749 -0.4979 -0.4582
  795MOL0     C 4819   0.924   6.965   9.042 -0.4299  0.0061  0.1822
  795MOL0     C 4820   0.954   6.837   9.125  0.2585  0.8401  0.2659
  795MOL0     C 4821   0.926   6.713   9.038  0.6730  0.8803  0.0001
  795MOL0     C 4822   0.886   6.584   9.123  0.2618 -0.5011 -0.3089
  795MOL0     C 4823   0.735   6.576   9.170  1.0945 -0.2696 -0.2334
  795MOL0     C 4824   0.703   6.473   9.277  0.1502  0.5440  0.7791
  795MOL0     N 4825   0.678   6.352   9.200  0.2882  0.5243  0.7642
  795MOL0     C 4826   0.560   6.315   9.140 -0.1496 -0.3386  0.6183
  795MOL0     C 4827   0.584   6.191   9.090 -0.8984 -0.1121 -0.3094
  795MOL0     C 4828   0.483   6.120   9.014  0.0506  0.1002  0.0431
  795MOL0     C 4829   0.358   6.114   9.087  0.2260  0.3698  0.4533
  795MOL0     C 4830   0.246   6.151   8.993 -0.7103  1.1560 -0.4210
  795MOL0     C 4831   0.210   6.027   8.901 -0.1430 -0.7756 -0.6761
  795MOL0     O 4832   0.200   5.909   8.984 -0.4915 -0.1574 -0.4228
  795MOL0     C 4833   0.082   5.846   9.000 -0.7631  1.6590 -0.6221
  795MOL0     C 4834   0.034   5.828   9.131  0.1330  0.4907 -1.1763
  795MOL0     C 4835  -0.072   5.744   9.167 -0.4215  0.9460  0.0076
  795MOL0     C 4836  -0.137   5.678   9.065 -0.2222  0.0200 -0.2206
  795MOL0     C 4837  -0.237   5.566   9.089 -0.0119 -1.0281  0.0402
  795MOL0     O 4838  -0.228   5.497   9.208 -0.7938 -0.1851 -0.1545
  795MOL0     C 4839  -0.331   5.413   9.244 -0.3247  0.5124 -0.9682
  795MOL0     C 4840  -0.293   5.289   9.309  0.4313 -0.1998  0.5216
  795MOL0     C 4841  -0.399   5.199   9.339 -0.3346 -0.5168 -0.3270
  795MOL0     C 4842  -0.537   5.227   9.309 -0.4340 -0.2036  0.4514
  795MOL0     O 4843  -0.627   5.127   9.332 -0.2445  0.5265 -0.2295
  795MOL0     C 4844  -0.763   5.138   9.297 -0.4152 -0.6224  0.8499
  795MOL0     C 4845  -0.841   5.205   9.409 -0.8618 -0.3212  0.5972
  795MOL0     C 4846  -0.991   5.222   9.362 -0.1132  0.0575 -1.1153
  795MOL0     C 4847  -1.083   5.184   9.472 -1.0216 -0.9487  0.1982
  795MOL0     C 4848  -1.228   5.179   9.433  0.0568  0.5034  0.5950
  795MOL0     C 4849  -1.308   5.093   9.541 -0.5904  0.3953  0.6102
  795MOL0     C 4850  -1.440   5.069   9.474  0.4667  1.0499  0.2148
  795MOL0     C 4851  -1.541   5.035   9.595 -1.1783 -0.6596 -0.0509
  795MOL0    Cl 4852  -1.690   4.961   9.549 -0.3179 -0.1965 -0.2278
  795MOL0     C 4853  -0.566   5.348   9.250 -0.2636  0.0977 -0.2786
  795MOL0     C 4854  -0.465   5.436   9.225 -0.3466  0.0932 -0.4386
  795MOL0     O 4855  -0.322   5.554   9.000  0.9755 -0.0928  0.0974
  795MOL0     C 4856  -0.092   5.693   8.931 -0.9787  0.0609  0.4814
  795MOL0     C 4857   0.013   5.780   8.905 -0.2175  0.4537  0.2556
  795MOL0     N 4858   0.719   6.154   9.117 -0.0073 -0.2554 -0.4989
  795MOL0     N 4859   0.765   6.245   9.201  0.5144  0.4462  0.3284
  795MOL0     C 4860   0.969   7.574   9.171 -0.2938  0.3731 -0.1133
  795MOL0     C 4861   0.973   7.700   9.113 -0.1542  0.2099 -0.2148
  795MOL0     C 4862   0.894   8.094   8.917 -0.2502  0.7123  0.0460
  795MOL0     C 4863   0.945   8.218   8.964  0.2819 -0.1288 -0.1730
  795MOL0     C 4864   0.939   8.330   8.880 -0.0865 -0.1577  0.4614
  795MOL0     C 4865   0.875   8.329   8.762  0.2359 -0.8615 -0.4650
  795MOL0     O 4866   0.877   8.451   8.695 -0.5042 -0.2959  0.3855
  795MOL0     C 4867   0.833   8.455   8.555  0.3861 -0.4085 -0.8548
  795MOL0     C 4868   0.827   8.599   8.510 -0.4257 -0.4323  0.0034
  795MOL0     C 4869   0.775   8.611   8.366 -0.3523 -0.4564  0.4542
  795MOL0     C 4870   0.765   8.756   8.330  0.1566  0.3301  0.2911
  795MOL0     C 4871   0.891   8.838   8.342  0.5551  0.6936  0.2306
  795MOL0     C 4872   0.987   8.908   8.362 -0.1212 -0.2122 -0.3493
  795MOL0     C 4873   0.803   8.217   8.723 -0.6187 -0.0712  0.9230
  795MOL0     C 4874   0.806   8.102   8.803 -0.4372 -0.7434  0.1247
  795MOL0     H 4875   0.772   7.634   8.842  0.8570 -0.7937 -0.4472
  795MOL0     H 4876   0.777   7.427   8.941 -1.6886  3.5714  1.3313
  795MOL0     H 4877   1.017   7.233   8.984  1.1185  1.7182  1.3023
  795MOL0     H 4878   0.848   7.239   8.963 -0.9775  3.0313  1.4110
  795MOL0     H 4879   0.804   7.106   9.153  0.1395  0.2607 -2.6291
  795MOL0     H 4880   0.966   7.096   9.210 -3.6081 -3.1092  2.6980
  795MOL0     H 4881   1.007   6.977   8.972 -1.3312  2.1029 -0.5949
  795MOL0     H 4882   0.831   6.961   8.984  0.5912  2.2728 -1.7683
  795MOL0     H 4883   1.056   6.843   9.163  1.0194  2.5664 -1.8520
  795MOL0     H 4884   0.892   6.834   9.215 -1.7573  3.3593 -0.9178
  795MOL0     H 4885   1.025   6.705   8.994  0.6220  0.8146 -0.1023
  795MOL0     H 4886   0.854   6.734   8.958  0.4445 -0.0548 -0.0533
  795MOL0     H 4887   0.944   6.585   9.215 -0.1248  1.9047 -0.0277
  795MOL0     H 4888   0.906   6.500   9.056 -0.7207 -2.3776  1.6352
  795MOL0     H 4889   0.711   6.670   9.219  3.8871  0.5471 -0.2628
  795MOL0     H 4890   0.663   6.559   9.089 -0.7765  1.2149  1.0355
  795MOL0     H 4891   0.619   6.507   9.339 -0.2137  4.3164 -1.4908
  795MOL0     H 4892   0.791   6.451   9.339  1.6860 -0.6817 -1.7056
  795MOL0     H 4893   0.462   6.362   9.146 -0.4194 -0.9919  1.7317
  795MOL0     H 4894   0.522   6.020   8.990 -0.0081  0.3581 -1.2200
  795MOL0     H 4895   0.481   6.171   8.917  0.9677 -3.3880 -1.9822
  795MOL0     H 4896   0.352   6.179   9.174  0.5449  0.0351  0.7225
  795MOL0     H 4897   0.354   6.011   9.123 -0.3061 -0.0176 -0.6607
  795MOL0     H 4898   0.155   6.175   9.048 -2.1248 -1.8911 -1.2014
  795MOL0     H 4899   0.270   6.236   8.929  2.1079  0.1447 -0.8416
  795MOL0     H 4900   0.294   6.015   8.831 -0.1533  0.2590 -0.8912
  795MOL0     H 4901   0.130   6.048   8.829 -1.3786 -1.1973  0.5356
  795MOL0     H 4902   0.076   5.884   9.214  0.2187 -1.9546  0.5487
  795MOL0     H 4903  -0.106   5.720   9.268  3.9221 -2.0737  1.0681
  795MOL0     H 4904  -0.189   5.262   9.325  1.7320  3.7424 -0.0317
  795MOL0     H 4905  -0.367   5.106   9.386 -1.5289 -0.9848 -0.4233
  795MOL0     H 4906  -0.793   5.035   9.271  1.9834 -0.6078 -2.7288
  795MOL0     H 4907  -0.785   5.199   9.209 -0.9715 -0.7374  0.8992
  795MOL0     H 4908  -0.788   5.300   9.424 -1.2242 -0.4421  2.8883
  795MOL0     H 4909  -0.822   5.135   9.491  0.7064  1.7592  2.0917
  795MOL0     H 4910  -1.002   5.153   9.278  1.4288  0.0579 -1.3441
  795MOL0     H 4911  -1.012   5.323   9.326 -0.0469  0.1692 -0.8435
  795MOL0     H 4912  -1.040   5.092   9.513  4.9603  1.3700  0.1749
  795MOL0     H 4913  -1.072   5.257   9.552  1.5795 -0.6598 -0.3350
  795MOL0     H 4914  -1.242   5.128   9.337  0.9168 -1.1428  1.2975
  795MOL0     H 4915  -1.261   5.283   9.426 -0.3823  0.4801  1.9521
  795MOL0     H 4916  -1.308   5.151   9.633  2.2483  2.8509 -0.7487
  795MOL0     H 4917  -1.265   4.993   9.555 -1.9789 -0.4353 -0.7355
  795MOL0     H 4918  -1.475   5.158   9.422 -1.9193 -0.8417 -1.6513
  795MOL0     H 4919  -1.433   4.986   9.404 -0.6973 -0.6161  1.9543
  795MOL0     H 4920  -1.552   5.127   9.653  0.4926 -0.3377 -0.1922
  795MOL0     H 4921  -1.487   4.960   9.653 -0.9955 -1.9815 -1.8611
  795MOL0     H 4922  -0.669   5.383   9.252 -0.0645  0.7447  2.6031
  795MOL0     H 4923  -0.497   5.531   9.183 -1.9569 -0.6326 -0.9477
  795MOL0     H 4924  -0.141   5.649   8.845 -0.6216  5.1039 -2.6721
  795MOL0     H 4925   0.053   5.808   8.808 -0.5190  1.4181  0.4031
  795MOL0     H 4926   1.015   7.565   9.269  2.5988  1.4869 -1.2773
  795MOL0     H 4927   1.017   7.780   9.173 -2.4905  1.2996  0.1505
  795MOL0     H 4928   0.991   8.233   9.061 -1.6923  3.1227  0.3973
  795MOL0     H 4929   0.987   8.422   8.914  1.0723 -0.5605 -0.0505
  795MOL0     H 4930   0.727   8.428   8.562  0.3153  0.2888  2.1054
  795MOL0     H 4931   0.885   8.386   8.487 -0.0978 -0.0635 -1.5842
  795MOL0     H 4932   0.761   8.655   8.578  1.1182  1.1721  0.2368
  795MOL0     H 4933   0.928   8.641   8.508 -2.2585  4.9907  2.4167
  795MOL0     H 4934   0.686   8.551   8.342  0.7103 -0.5628 -3.9883
  795MOL0     H 4935   0.855   8.565   8.307  1.9378  3.6210  0.0545
  795MOL0     H 4936   0.724   8.760   8.229 -1.6719  3.3695  1.0347
  795MOL0     H 4937   0.693   8.792   8.403 -1.5932 -1.9511 -0.2014
  795MOL0     H 4938   1.067   8.973   8.389 -1.2326  0.3271  1.8795
  795MOL0     H 4939   0.729   8.210   8.644 -0.2318 -0.7265  0.6158
  795MOL0     H 4940   0.739   8.022   8.772 -2.0236  1.1015 -1.4547
  796MOL0     O 4941   6.635   7.422  11.305 -0.5659  0.2755 -0.4688
  796MOL0     C 4942   6.697   7.355  11.223 -0.1426  0.5081 -0.5075
  796MOL0     O 4943   6.643   7.261  11.143  0.1738  0.2273  0.3238
  796MOL0     C 4944   6.517   7.283  11.102  0.6050  0.6985 -0.4514
  796MOL0     C 4945   6.456   7.404  11.058  0.5983 -0.0804  0.3663
  796MOL0     C 4946   6.330   7.407  11.000  0.0875 -0.1753  0.5143
  796MOL0     C 4947   6.244   7.296  11.007 -0.8041  0.8479 -0.0434
  796MOL0     O 4948   6.121   7.310  10.964  0.0699 -0.0539 -0.3428
  796MOL0     C 4949   6.091   7.225  10.849  0.2454 -0.5393 -0.5517
  796MOL0     C 4950   6.173   7.266  10.728  0.0463  0.1884  0.6179
  796MOL0     C 4951   6.137   7.188  10.593  0.2277  0.1771 -0.9158
  796MOL0     C 4952   6.104   7.049  10.615 -0.1119 -0.6710 -0.9907
  796MOL0     C 4953   6.213   6.951  10.673 -0.6726  0.3220  0.0266
  796MOL0     C 4954   6.339   6.945  10.582  0.7946 -0.3081 -0.8023
  796MOL0     C 4955   6.428   6.820  10.596 -0.2565 -0.2959 -0.5136
  796MOL0     C 4956   6.559   6.836  10.674  0.5425  0.3176  0.0816
  796MOL0     N 4957   6.624   6.708  10.701  0.1127 -0.1428 -0.2235
  796MOL0     C 4958   6.683   6.630  10.612  0.2040 -0.7744 -0.4511
  796MOL0     C 4959   6.746   6.524  10.679  0.0957  0.2456  0.4084
  796MOL0     C 4960   6.836   6.419  10.613 -0.2851 -0.8056 -0.5609
  796MOL0     C 4961   6.986   6.420  10.646  1.2198 -0.3784  0.5642
  796MOL0     C 4962   7.063   6.546  10.596 -0.0893 -0.6315 -0.5190
  796MOL0     C 4963   7.061   6.657  10.702 -0.3881 -0.0856 -0.2692
  796MOL0     O 4964   7.144   6.779  10.667  0.0540  0.5518 -0.1400
  796MOL0     C 4965   7.104   6.866  10.565  0.0437  0.3848  0.0186
  796MOL0     C 4966   6.978   6.858  10.499 -0.8359  0.8865  0.1927
  796MOL0     C 4967   6.936   6.941  10.407  0.5190 -0.9709  0.4783
  796MOL0     C 4968   7.036   7.020  10.336  0.1940  0.4769 -1.1297
  796MOL0     C 4969   7.017   7.086  10.205 -0.5778 -0.1612 -0.9310
  796MOL0     O 4970   7.102   7.195  10.184  0.7912  0.1193 -0.7412
  796MOL0     C 4971   7.110   7.244  10.057 -0.0857  0.7100  0.3119
  796MOL0     C 4972   7.168   7.162   9.955  0.7665  0.5089  0.0816
  796MOL0     C 4973   7.152   7.205   9.820  0.1874 -1.5545  0.3320
  796MOL0     C 4974   7.090   7.324   9.783  0.3857 -0.7627  0.7252
  796MOL0     O 4975   7.074   7.350   9.643  0.3999 -0.0498 -0.5721
  796MOL0     C 4976   6.998   7.466   9.613  0.2919 -0.6681 -0.2292
  796MOL0     C 4977   6.952   7.489   9.473  1.4487 -0.3600  0.0311
  796MOL0     C 4978   6.859   7.381   9.423 -0.3816  0.8822  0.4625
  796MOL0     C 4979   6.710   7.409   9.447 -0.1057 -0.0735  0.4900
  796MOL0     C 4980   6.616   7.290   9.397 -0.8963 -0.2414 -0.6073
  796MOL0     C 4981   6.467   7.298   9.456 -0.1202 -0.6792  0.2597
  796MOL0     C 4982   6.462   7.286   9.609  0.7522  0.5118 -0.0521
  796MOL0     C 4983   6.346   7.373   9.673 -0.3541  0.3226 -0.6109
  796MOL0    Cl 4984   6.185   7.294   9.628 -0.0968 -0.1536  0.1551
  796MOL0     C 4985   7.035   7.403   9.885  0.1130 -0.7888 -0.7117
  796MOL0     C 4986   7.039   7.361  10.014 -0.4369 -0.1412 -0.0243
  796MOL0     O 4987   6.928   7.048  10.131 -0.5652 -0.5478 -0.7743
  796MOL0     C 4988   7.160   7.024  10.400  0.0634 -0.9428  0.2098
  796MOL0     C 4989   7.191   6.962  10.515  0.2846 -0.3078 -0.1966
  796MOL0     N 4990   6.738   6.546  10.813  0.6931  1.0449  0.6218
  796MOL0     N 4991   6.666   6.658  10.827  0.4171 -0.3084  1.5657
  796MOL0     C 4992   6.292   7.178  11.068  0.1397  0.0837  1.3188
  796MOL0     C 4993   6.429   7.168  11.103 -0.4777  0.1929  0.2328
  796MOL0     C 4994   6.846   7.347  11.239 -0.8158  0.9238 -0.5317
  796MOL0     C 4995   6.919   7.381  11.355  0.3279  1.2210 -1.1447
  796MOL0     C 4996   7.053   7.363  11.371  0.3439 -0.4477  0.7617
  796MOL0     C 4997   7.132   7.310  11.265 -0.0422 -1.1564 -0.7207
  796MOL0     O 4998   7.263   7.301  11.271  0.1049 -0.7411  0.4310
  796MOL0     C 4999   7.335   7.337  11.382  0.9973  0.7850 -1.1867
  796MOL0     C 5000   7.485   7.312  11.373 -0.2258  0.1691  0.4998
  796MOL0     C 5001   7.516   7.162  11.364  0.8953 -0.2435  0.1550
  796MOL0     C 5002   7.668   7.115  11.381 -0.4630 -0.1394  0.7580
  796MOL0     C 5003   7.683   6.978  11.329 -0.7781 -0.5939  0.3907
  796MOL0     C 5004   7.703   6.870  11.267 -0.4896 -0.4587 -0.2765
  796MOL0     C 5005   7.062   7.257  11.158  0.4760  0.2887 -0.3886
  796MOL0     C 5006   6.926   7.279  11.143 -0.2293 -0.2284 -0.0068
  796MOL0     H 5007   6.512   7.496  11.069  2.0187 -1.0794  2.0319
  796MOL0     H 5008   6.295   7.499  10.955  1.1722  0.8375  1.6619
  796MOL0     H 5009   5.984   7.240  10.832 -0.3340 -2.2319  1.2540
  796MOL0     H 5010   6.120   7.124  10.879  4.8531  1.0878  1.3428
  796MOL0     H 5011   6.279   7.245  10.743 -0.2020 -3.8484 -1.7142
  796MOL0     H 5012   6.156   7.371  10.702  0.0019  0.1037  0.2987
  796MOL0     H 5013   6.226   7.198  10.531 -0.3925  1.5697 -1.6384
  796MOL0     H 5014   6.051   7.234  10.544  0.0688 -0.0347 -0.8401
  796MOL0     H 5015   6.018   7.045  10.682 -3.5425 -3.3181 -5.0919
  796MOL0     H 5016   6.068   7.006  10.521 -1.1623  0.7995 -1.2832
  796MOL0     H 5017   6.160   6.855  10.670 -0.1836  0.0649 -0.4100
  796MOL0     H 5018   6.242   6.978  10.775 -3.0373 -1.1527  1.1993
  796MOL0     H 5019   6.396   7.036  10.603 -3.5512  2.4212  0.7181
  796MOL0     H 5020   6.305   6.941  10.478  0.3705 -2.8458 -0.6379
  796MOL0     H 5021   6.374   6.742  10.650 -2.5106 -0.2467 -2.5653
  796MOL0     H 5022   6.454   6.786  10.495  0.9345  0.7303 -0.5845
  796MOL0     H 5023   6.528   6.888  10.766 -0.6176 -2.0897  1.1466
  796MOL0     H 5024   6.628   6.903  10.623 -0.7662  2.3701  0.8455
  796MOL0     H 5025   6.696   6.659  10.508  2.4417  0.4979  0.1081
  796MOL0     H 5026   6.834   6.437  10.506  0.9729 -0.4229 -0.5362
  796MOL0     H 5027   6.781   6.325  10.627 -0.4982 -1.1516 -3.2962
  796MOL0     H 5028   7.028   6.333  10.594  1.5909 -0.9894  1.8329
  796MOL0     H 5029   7.007   6.403  10.752 -1.9890  0.8581  1.4947
  796MOL0     H 5030   7.170   6.533  10.580  0.7961  4.5928 -0.7921
  796MOL0     H 5031   7.025   6.566  10.496 -1.1988 -1.3288 -0.2534
  796MOL0     H 5032   7.098   6.616  10.796 -2.8240  0.5074  1.0136
  796MOL0     H 5033   6.959   6.688  10.724  0.3834  1.6789  0.9635
  796MOL0     H 5034   6.901   6.791  10.537  1.2180 -0.6852  1.8073
  796MOL0     H 5035   6.833   6.937  10.376  0.1951 -0.6036  1.4789
  796MOL0     H 5036   7.207   7.066   9.988  1.9112  0.5553 -1.0484
  796MOL0     H 5037   7.204   7.140   9.750  1.4367  0.7439 -1.0062
  796MOL0     H 5038   7.056   7.555   9.640 -1.7121  1.0155 -1.1971
  796MOL0     H 5039   6.907   7.465   9.674  1.4417  2.3574  1.7663
  796MOL0     H 5040   7.040   7.497   9.409  2.0546 -0.2477  0.8555
  796MOL0     H 5041   6.912   7.591   9.465  2.6272  0.2347  1.3407
  796MOL0     H 5042   6.884   7.285   9.468  0.0629 -0.4518 -2.4133
  796MOL0     H 5043   6.870   7.347   9.319 -0.6286 -3.0076  1.5559
  796MOL0     H 5044   6.697   7.448   9.548  0.2162  1.2239  0.0547
  796MOL0     H 5045   6.682   7.499   9.390  1.0920 -1.1254 -1.9146
  796MOL0     H 5046   6.657   7.194   9.430  0.5910  0.6946  0.3810
  796MOL0     H 5047   6.609   7.295   9.288 -3.0701  2.2927 -0.4685
  796MOL0     H 5048   6.412   7.218   9.406 -1.7748  0.8123 -0.4009
  796MOL0     H 5049   6.404   7.381   9.424  1.6300  0.3458 -0.7250
  796MOL0     H 5050   6.444   7.179   9.623 -0.5289  0.5659 -1.0107
  796MOL0     H 5051   6.551   7.312   9.666 -0.8677  2.5169  1.7321
  796MOL0     H 5052   6.349   7.475   9.633 -0.7322 -0.6642 -3.3927
  796MOL0     H 5053   6.356   7.361   9.782  0.3567 -0.9050 -0.7934
  796MOL0     H 5054   6.997   7.501   9.855  0.4910 -0.6500 -0.7553
  796MOL0     H 5055   6.986   7.421  10.087 -2.5927  0.8320 -2.2371
  796MOL0     H 5056   7.248   7.084  10.379  1.2712 -1.9719  2.1427
  796MOL0     H 5057   7.282   6.993  10.566  2.7403  2.4934 -5.4594
  796MOL0     H 5058   6.234   7.087  11.077  3.0728 -1.8521  1.5850
  796MOL0     H 5059   6.479   7.077  11.137 -2.1782 -0.6651  0.5423
  796MOL0     H 5060   6.863   7.413  11.442  1.8917 -1.0669  0.8302
  796MOL0     H 5061   7.094   7.378  11.470 -0.1050 -2.2877  1.2579
  796MOL0     H 5062   7.298   7.275  11.464  4.0964  1.5912  0.9747
  796MOL0     H 5063   7.326   7.445  11.398  2.5836  0.7838 -0.0906
  796MOL0     H 5064   7.528   7.360  11.285  0.8841 -0.6687  0.5463
  796MOL0     H 5065   7.534   7.351  11.463  1.0813 -1.5001  0.5839
  796MOL0     H 5066   7.486   7.122  11.266  0.6712  0.6041 -0.1318
  796MOL0     H 5067   7.453   7.109  11.436 -2.7129  1.3541 -1.5557
  796MOL0     H 5068   7.721   7.186  11.318 -0.5193 -0.9584 -0.2465
  796MOL0     H 5069   7.716   7.127  11.479 -1.1620  2.7702  0.8184
  796MOL0     H 5070   7.718   6.781  11.209  3.2171  0.9747 -1.8629
  796MOL0     H 5071   7.114   7.201  11.081 -0.9920  0.4435 -1.5385
  796MOL0     H 5072   6.891   7.246  11.046 -1.1686 -0.9245  0.5569
  797MOL0     O 5073   7.928  11.111   2.408 -0.1075  0.1052 -1.2840
  797MOL0     C 5074   8.036  11.111   2.468  0.2566 -0.5612  0.1699
  797MOL0     O 5075   8.067  11.180   2.577  0.0849  0.1917  0.0911
  797MOL0     C 5076   7.973  11.253   2.658  0.6305  1.3084  0.7286
  797MOL0     C 5077   7.829  11.257   2.647 -0.6398  0.1412 -0.1215
  797MOL0     C 5078   7.756  11.343   2.726 -0.1578  0.4801  0.5292
  797MOL0     C 5079   7.814  11.425   2.826  0.0346  1.0660 -0.1183
  797MOL0     O 5080   7.736  11.513   2.888  0.1065  0.6321  0.6808
  797MOL0     C 5081   7.796  11.625   2.943  1.1123  0.4228 -0.9343
  797MOL0     C 5082   7.700  11.720   3.006 -0.0538 -0.0579 -0.2631
  797MOL0     C 5083   7.656  11.674   3.149  0.7606 -0.3413 -0.8911
  797MOL0     C 5084   7.543  11.768   3.199 -0.0205  0.1049  0.1890
  797MOL0     C 5085   7.494  11.712   3.331  0.4650 -0.3313  0.8567
  797MOL0     C 5086   7.364  11.762   3.383  0.4160 -0.1425 -0.2011
  797MOL0     C 5087   7.357  11.911   3.410 -0.2595  0.5188  0.2647
  797MOL0     C 5088   7.251  11.949   3.506 -0.3488  1.0154  1.2238
  797MOL0     N 5089   7.286  11.914   3.643 -0.9851  0.5710 -0.3458
  797MOL0     C 5090   7.217  11.827   3.723 -1.0664 -0.1927 -0.4542
  797MOL0     C 5091   7.243  11.869   3.852  0.0659  0.5538  0.1503
  797MOL0     C 5092   7.167  11.820   3.971  0.9771  0.2583 -0.4728
  797MOL0     C 5093   7.014  11.797   3.922  0.0235 -0.2019  0.6052
  797MOL0     C 5094   6.930  11.764   4.048 -0.0647  0.1242 -0.6291
  797MOL0     C 5095   6.783  11.805   4.047 -0.8560  0.0172 -0.2154
  797MOL0     O 5096   6.774  11.947   4.038 -0.1892 -0.5442 -0.1551
  797MOL0     C 5097   6.644  12.004   4.053 -0.1818  0.5991  0.2431
  797MOL0     C 5098   6.524  11.929   4.072 -0.0802  0.7510 -0.6023
  797MOL0     C 5099   6.392  11.981   4.078 -0.2523  0.5302  0.2983
  797MOL0     C 5100   6.377  12.121   4.085  0.2405  0.0365  0.2316
  797MOL0     C 5101   6.243  12.168   4.122 -0.4447 -0.8730  1.1368
  797MOL0     O 5102   6.137  12.083   4.106 -0.4129 -0.3973 -0.1741
  797MOL0     C 5103   6.012  12.127   4.147 -0.5278  0.5105  0.7285
  797MOL0     C 5104   5.904  12.118   4.054  0.1578  0.8549  0.7146
  797MOL0     C 5105   5.784  12.189   4.083 -0.2488  0.0675  0.1309
  797MOL0     C 5106   5.776  12.269   4.193  0.2216 -0.6770  0.4370
  797MOL0     O 5107   5.655  12.336   4.197 -0.9264  0.1105  0.4850
  797MOL0     C 5108   5.573  12.271   4.288  0.1083  0.0420 -0.1816
  797MOL0     C 5109   5.422  12.316   4.265 -0.0254 -0.5832 -0.6584
  797MOL0     C 5110   5.328  12.219   4.346 -0.9065  0.1290  0.0942
  797MOL0     C 5111   5.173  12.224   4.295 -1.1090  0.2401  0.4136
  797MOL0     C 5112   5.127  12.368   4.291  0.0161  1.3624 -0.1396
  797MOL0     C 5113   5.114  12.434   4.426 -0.5431  0.9575 -0.3529
  797MOL0     C 5114   5.002  12.544   4.421 -0.2079 -0.0777 -0.5174
  797MOL0     C 5115   4.988  12.595   4.567 -0.0808  0.0610  0.2379
  797MOL0    Cl 5116   4.865  12.727   4.542  0.2957  0.3605  0.3376
  797MOL0     C 5117   5.880  12.272   4.291  0.1781 -0.2322 -0.0272
  797MOL0     C 5118   5.998  12.202   4.267  0.3672 -0.8484  0.2144
  797MOL0     O 5119   6.234  12.286   4.136  0.7603  0.3203  0.1076
  797MOL0     C 5120   6.493  12.201   4.060 -0.0662 -0.7246 -0.6030
  797MOL0     C 5121   6.623  12.143   4.047  0.6377 -0.2170 -0.1035
  797MOL0     N 5122   7.336  11.968   3.843 -0.0849 -0.4004  0.4805
  797MOL0     N 5123   7.364  11.996   3.716  0.7066  0.2640 -0.8759
  797MOL0     C 5124   7.957  11.406   2.850 -0.1493 -0.4285 -0.6409
  797MOL0     C 5125   8.030  11.331   2.757  0.2406 -0.1924 -0.3717
  797MOL0     C 5126   8.137  11.027   2.403 -0.8618  0.1374  0.1085
  797MOL0     C 5127   8.114  10.936   2.293 -0.6739 -0.0029 -0.3910
  797MOL0     C 5128   8.213  10.847   2.236 -0.2135  0.5873 -0.1567
  797MOL0     C 5129   8.343  10.884   2.249  0.2710 -0.8422  1.0403
  797MOL0     O 5130   8.437  10.827   2.168  0.0777 -0.0426 -0.0417
  797MOL0     C 5131   8.407  10.774   2.040  0.1778 -1.1660 -0.0986
  797MOL0     C 5132   8.394  10.624   2.049 -0.1239  0.0342 -0.8129
  797MOL0     C 5133   8.416  10.552   1.917 -0.2027 -1.1988 -0.7649
  797MOL0     C 5134   8.286  10.508   1.840 -0.3972 -0.5386  0.0957
  797MOL0     C 5135   8.219  10.623   1.791  0.3136 -0.5276  0.0036
  797MOL0     C 5136   8.158  10.725   1.754  0.2664  0.6961  0.4271
  797MOL0     C 5137   8.372  10.992   2.350  0.0171  0.2799 -0.2006
  797MOL0     C 5138   8.271  11.049   2.427 -0.3205  0.9299  0.7486
  797MOL0     H 5139   7.778  11.183   2.585  0.8319 -0.1179 -1.0712
  797MOL0     H 5140   7.649  11.339   2.710  0.3217 -4.3524 -4.4959
  797MOL0     H 5141   7.847  11.685   2.867  1.3697  1.1746 -0.1851
  797MOL0     H 5142   7.857  11.594   3.028  0.2473  2.5380  0.5491
  797MOL0     H 5143   7.616  11.718   2.936  0.3414  0.3562 -0.7490
  797MOL0     H 5144   7.733  11.824   3.013 -0.9044  0.2294 -0.4159
  797MOL0     H 5145   7.736  11.691   3.222 -1.1117 -0.8154  1.3817
  797MOL0     H 5146   7.621  11.570   3.149 -1.7269  0.4260 -2.0369
  797MOL0     H 5147   7.573  11.873   3.202  0.9148 -0.1016 -0.9172
  797MOL0     H 5148   7.469  11.751   3.121 -0.0563 -3.5919  0.8062
  797MOL0     H 5149   7.568  11.735   3.409 -1.6293 -5.1389  4.8217
  797MOL0     H 5150   7.487  11.603   3.339 -2.4099 -0.5387 -2.4299
  797MOL0     H 5151   7.337  11.702   3.471 -1.3107 -5.1942 -3.7249
  797MOL0     H 5152   7.287  11.742   3.308 -1.5420  0.3374  1.5636
  797MOL0     H 5153   7.451  11.955   3.445  0.6508 -0.0444 -1.3717
  797MOL0     H 5154   7.348  11.945   3.307 -0.6207 -1.6360 -0.4808
  797MOL0     H 5155   7.157  11.902   3.478 -0.8581  1.2453  2.4869
  797MOL0     H 5156   7.223  12.055   3.495 -3.3191  0.2689  0.7181
  797MOL0     H 5157   7.155  11.745   3.688 -0.2438 -1.1212  0.2334
  797MOL0     H 5158   7.177  11.901   4.045  1.2183 -1.0664  0.9917
  797MOL0     H 5159   7.191  11.722   4.013  0.4788  0.5637  0.5723
  797MOL0     H 5160   7.022  11.708   3.859  1.0630  1.3989 -1.6797
  797MOL0     H 5161   6.966  11.885   3.877 -2.1231 -1.3708  0.4484
  797MOL0     H 5162   6.925  11.659   4.076 -0.7025  0.2861 -0.1041
  797MOL0     H 5163   6.972  11.826   4.128 -0.3077 -0.7157  0.1614
  797MOL0     H 5164   6.731  11.765   4.135 -0.3547 -2.4063 -0.9568
  797MOL0     H 5165   6.724  11.758   3.969 -0.6648 -0.2169 -0.2225
  797MOL0     H 5166   6.531  11.822   4.084 -1.2842  0.8015  0.9539
  797MOL0     H 5167   6.308  11.913   4.084  0.2992 -0.0028  2.9018
  797MOL0     H 5168   5.916  12.072   3.956  0.0312  0.4646  0.8831
  797MOL0     H 5169   5.694  12.174   4.024  0.6776  0.1768 -1.3514
  797MOL0     H 5170   5.603  12.300   4.389  0.3980 -2.2189  0.4543
  797MOL0     H 5171   5.579  12.162   4.279  3.1132 -0.0717  1.7673
  797MOL0     H 5172   5.409  12.323   4.157  2.6157  1.0937 -0.9418
  797MOL0     H 5173   5.408  12.421   4.293 -1.1487 -0.0916 -2.8711
  797MOL0     H 5174   5.330  12.237   4.454  1.4194  3.0455 -0.3237
  797MOL0     H 5175   5.368  12.117   4.343 -1.0368  0.0834 -3.3454
  797MOL0     H 5176   5.179  12.182   4.195 -1.2812 -1.0753  0.9364
  797MOL0     H 5177   5.115  12.153   4.355  0.0383 -2.0352 -1.0574
  797MOL0     H 5178   5.026  12.358   4.249 -0.7287 -1.7718  2.0423
  797MOL0     H 5179   5.193  12.424   4.225 -0.5756  2.7238  0.3996
  797MOL0     H 5180   5.207  12.475   4.465  0.4516 -2.2534  0.9251
  797MOL0     H 5181   5.085  12.363   4.504  1.4722  0.6561  0.1698
  797MOL0     H 5182   5.039  12.618   4.349  2.1250  0.8607  1.5058
  797MOL0     H 5183   4.910  12.493   4.391 -0.5909 -1.0853  2.1054
  797MOL0     H 5184   5.081  12.636   4.609 -0.2095 -0.1469  0.7302
  797MOL0     H 5185   4.956  12.508   4.625 -0.0587 -0.0044  0.1533
  797MOL0     H 5186   5.872  12.318   4.389 -1.5852  0.8393 -0.6224
  797MOL0     H 5187   6.087  12.217   4.327  1.2836  0.3185 -1.3535
  797MOL0     H 5188   6.495  12.309   4.049  0.6108 -0.9480 -3.9621
  797MOL0     H 5189   6.701  12.216   4.029 -3.8850  4.7188 -2.2315
  797MOL0     H 5190   8.021  11.452   2.925 -0.7818 -0.5847  0.0108
  797MOL0     H 5191   8.136  11.342   2.774 -0.0192  3.5916 -0.2476
  797MOL0     H 5192   8.009  10.930   2.265 -0.9939  4.1822 -0.7901
  797MOL0     H 5193   8.184  10.771   2.164 -2.7683  0.1777  1.1767
  797MOL0     H 5194   8.489  10.795   1.971  0.8354  2.1121  1.5052
  797MOL0     H 5195   8.317  10.818   1.996 -0.5186 -0.9121  1.4990
  797MOL0     H 5196   8.459  10.580   2.125 -0.1818  1.9543  0.4320
  797MOL0     H 5197   8.295  10.600   2.089  0.3361 -2.8290 -1.1927
  797MOL0     H 5198   8.469  10.458   1.935  0.0045 -1.5738 -3.1007
  797MOL0     H 5199   8.472  10.609   1.843 -2.0326  0.5137 -0.9129
  797MOL0     H 5200   8.314  10.443   1.757 -1.3862 -1.9949  0.8570
  797MOL0     H 5201   8.217  10.458   1.909  2.3885 -1.3034  2.4909
  797MOL0     H 5202   8.121  10.822   1.726  0.1650  0.1497 -1.5091
  797MOL0     H 5203   8.474  11.022   2.371  0.0649 -0.0256  0.0157
  797MOL0     H 5204   8.286  11.123   2.506  3.8679  0.1775  0.8660
  798MOL0     O 5205   6.349   9.885   5.515  0.0394  0.3780 -0.5803
  798MOL0     C 5206   6.438   9.892   5.598  0.0011 -0.4223 -0.1486
  798MOL0     O 5207   6.561   9.944   5.565  0.4297  0.4292 -0.2300
  798MOL0     C 5208   6.598   9.972   5.435 -0.6642 -0.5736  1.0931
  798MOL0     C 5209   6.634   9.871   5.346  0.3358  0.1648  0.5473
  798MOL0     C 5210   6.686   9.904   5.216 -0.4229 -0.2332 -0.1055
  798MOL0     C 5211   6.692  10.043   5.174 -0.7612  0.2533  0.2676
  798MOL0     O 5212   6.728  10.096   5.051 -0.0136 -0.3418  0.1118
  798MOL0     C 5213   6.750  10.005   4.946 -0.2691  0.7493  0.5680
  798MOL0     C 5214   6.758  10.081   4.819 -1.0465 -1.4379 -0.8619
  798MOL0     C 5215   6.787   9.999   4.703  0.2759 -0.8050  0.8640
  798MOL0     C 5216   6.805  10.101   4.588 -0.6257 -0.5751  0.0410
  798MOL0     C 5217   6.910  10.212   4.595  0.0176 -0.8864  0.0210
  798MOL0     C 5218   7.047  10.150   4.626  0.0962 -0.6465 -0.4018
  798MOL0     C 5219   7.121  10.066   4.522 -0.5133  0.2449 -0.4169
  798MOL0     C 5220   7.250  10.009   4.566 -0.1036  0.8666  0.4150
  798MOL0     N 5221   7.303   9.939   4.455 -0.4718  0.1328  0.0267
  798MOL0     C 5222   7.281   9.800   4.418 -0.2286 -0.2786 -0.3418
  798MOL0     C 5223   7.360   9.775   4.306  0.0020 -0.5183  0.1516
  798MOL0     C 5224   7.366   9.643   4.234 -0.9225 -0.7571  0.1231
  798MOL0     C 5225   7.460   9.546   4.306 -0.3940 -0.4471 -1.0241
  798MOL0     C 5226   7.482   9.417   4.227 -0.5220 -0.5581 -0.3480
  798MOL0     C 5227   7.368   9.338   4.209  0.1873  0.4082  0.5312
  798MOL0     O 5228   7.312   9.290   4.337  0.1035 -0.9600 -0.3084
  798MOL0     C 5229   7.213   9.190   4.328  0.4682  0.1639  0.0888
  798MOL0     C 5230   7.170   9.144   4.455  0.7129  0.2303 -0.6503
  798MOL0     C 5231   7.070   9.051   4.457 -0.1162 -0.1544 -0.0968
  798MOL0     C 5232   6.996   9.014   4.347  0.6653 -0.8659  0.0181
  798MOL0     C 5233   6.896   8.904   4.352  0.1524  0.4755  0.2302
  798MOL0     O 5234   6.810   8.878   4.241 -1.1755 -0.1183  0.4518
  798MOL0     C 5235   6.703   8.796   4.259  0.8957  0.0866  0.8475
  798MOL0     C 5236   6.691   8.680   4.172  0.0171 -1.3304  0.8834
  798MOL0     C 5237   6.579   8.604   4.174  0.1829  0.3247  0.8003
  798MOL0     C 5238   6.473   8.630   4.265  0.1917  0.5583 -0.6027
  798MOL0     O 5239   6.372   8.541   4.303 -0.1385  0.1677  0.8710
  798MOL0     C 5240   6.287   8.481   4.196 -0.2517 -0.0103 -0.0262
  798MOL0     C 5241   6.161   8.411   4.247 -0.3751  0.3001  0.0580
  798MOL0     C 5242   6.084   8.340   4.133 -0.5839  0.4303  0.0400
  798MOL0     C 5243   5.960   8.274   4.193  0.2510  0.9660  0.5003
  798MOL0     C 5244   5.899   8.167   4.099 -0.9906 -0.3127 -0.3196
  798MOL0     C 5245   5.764   8.127   4.162 -0.2357  0.0757  0.7192
  798MOL0     C 5246   5.670   8.071   4.057 -0.7462  0.2013 -0.0873
  798MOL0     C 5247   5.560   8.000   4.123  0.7857  0.0571  0.6445
  798MOL0    Cl 5248   5.607   7.853   4.214 -0.0244  0.4285 -0.2238
  798MOL0     C 5249   6.484   8.738   4.348  0.4542  0.1988  0.1738
  798MOL0     C 5250   6.592   8.828   4.344 -1.0004  0.5158 -0.4302
  798MOL0     O 5251   6.905   8.838   4.446 -0.1020  0.1526 -0.7203
  798MOL0     C 5252   7.031   9.079   4.221 -0.6532  0.4204  0.5279
  798MOL0     C 5253   7.137   9.164   4.216 -0.3608 -0.3095  0.0737
  798MOL0     N 5254   7.412   9.899   4.265  0.3091 -0.4361  0.0210
  798MOL0     N 5255   7.376   9.994   4.356  0.3726  0.7045  0.7018
  798MOL0     C 5256   6.652  10.138   5.268  0.1108  0.4063 -0.1281
  798MOL0     C 5257   6.604  10.105   5.392 -0.4786 -0.6991 -0.3717
  798MOL0     C 5258   6.419   9.825   5.733 -0.5937  0.0990 -1.1598
  798MOL0     C 5259   6.524   9.840   5.830 -0.4151  1.0550 -0.5449
  798MOL0     C 5260   6.509   9.788   5.960 -0.0811  0.0353 -0.3947
  798MOL0     C 5261   6.388   9.725   6.000  1.0857 -0.2070 -0.1131
  798MOL0     O 5262   6.347   9.700   6.128 -0.8178  0.4298  0.6116
  798MOL0     C 5263   6.441   9.727   6.236  0.8834 -0.3891  0.7799
  798MOL0     C 5264   6.413   9.646   6.363 -0.3620  1.1085  0.3420
  798MOL0     C 5265   6.468   9.494   6.359  1.1599  1.1445  0.3431
  798MOL0     C 5266   6.368   9.393   6.303  0.5340 -0.0525 -0.6278
  798MOL0     C 5267   6.417   9.252   6.329 -0.1402  0.4726  1.0554
  798MOL0     C 5268   6.453   9.140   6.338 -0.4542  0.1495 -0.0167
  798MOL0     C 5269   6.287   9.707   5.903  0.1770  0.3202  0.8879
  798MOL0     C 5270   6.306   9.748   5.766 -0.2082  0.4893  0.3901
  798MOL0     H 5271   6.622   9.766   5.370  0.5845  0.4765  2.1722
  798MOL0     H 5272   6.704   9.818   5.153  0.5069 -0.6721  0.7367
  798MOL0     H 5273   6.666   9.935   4.940  1.1156 -0.8510 -3.6857
  798MOL0     H 5274   6.843   9.950   4.960 -1.6266 -1.3282  2.0450
  798MOL0     H 5275   6.819  10.167   4.849 -2.3811 -1.3003  1.6864
  798MOL0     H 5276   6.656  10.114   4.795 -0.1820  0.9906 -1.4997
  798MOL0     H 5277   6.702   9.933   4.684  0.3906 -1.1662  1.5949
  798MOL0     H 5278   6.877   9.938   4.716  1.4475  0.8640  0.9219
  798MOL0     H 5279   6.819  10.034   4.503 -2.3242 -0.5109 -0.3275
  798MOL0     H 5280   6.710  10.150   4.565 -1.0540 -1.1014  0.6477
  798MOL0     H 5281   6.898  10.281   4.679 -0.4871 -2.4555  1.2839
  798MOL0     H 5282   6.902  10.270   4.502  1.5120  1.8673  1.4831
  798MOL0     H 5283   7.046  10.102   4.725 -4.3978  0.2862  0.2219
  798MOL0     H 5284   7.108  10.241   4.630 -2.6951  1.4674 -2.3673
  798MOL0     H 5285   7.061   9.980   4.491 -3.1468  1.1265  1.8666
  798MOL0     H 5286   7.139  10.139   4.443  0.5800  2.2398  1.5671
  798MOL0     H 5287   7.218   9.947   4.651 -3.8794 -1.5116 -2.4304
  798MOL0     H 5288   7.314  10.095   4.589  1.2426 -0.2461  1.0001
  798MOL0     H 5289   7.221   9.726   4.470 -0.4090 -1.3070 -1.9224
  798MOL0     H 5290   7.422   9.669   4.143  0.5134  1.2326  1.4853
  798MOL0     H 5291   7.267   9.601   4.214 -1.8166  1.3119 -0.0144
  798MOL0     H 5292   7.412   9.515   4.400 -2.0130 -1.9229 -2.2543
  798MOL0     H 5293   7.553   9.599   4.326  0.2773 -2.6545  2.7361
  798MOL0     H 5294   7.511   9.440   4.124  1.4437 -0.0079  0.2696
  798MOL0     H 5295   7.558   9.362   4.284  2.5330  3.3132 -0.1787
  798MOL0     H 5296   7.402   9.249   4.155  0.8470 -0.7032  2.6549
  798MOL0     H 5297   7.293   9.376   4.139 -0.4010 -3.1747 -0.9902
  798MOL0     H 5298   7.228   9.182   4.538 -0.5332  2.5455 -0.7549
  798MOL0     H 5299   7.045   9.015   4.556 -0.6073  2.5205  0.8357
  798MOL0     H 5300   6.763   8.645   4.099 -0.3359  0.7514 -0.5598
  798MOL0     H 5301   6.584   8.519   4.106  5.8252 -0.9282  2.2293
  798MOL0     H 5302   6.349   8.410   4.141 -0.7742  2.3523 -4.0450
  798MOL0     H 5303   6.259   8.554   4.120 -3.4548  0.4185  1.3927
  798MOL0     H 5304   6.101   8.492   4.291  0.0225  0.5142  0.2167
  798MOL0     H 5305   6.184   8.347   4.333 -1.5010  2.1438  1.8339
  798MOL0     H 5306   6.135   8.252   4.092 -0.4048  0.9024 -0.7835
  798MOL0     H 5307   6.067   8.410   4.050  3.0631  0.5392 -0.7677
  798MOL0     H 5308   5.985   8.248   4.297  2.2806  0.5762 -0.0330
  798MOL0     H 5309   5.886   8.354   4.202  0.8780  1.8609 -1.6436
  798MOL0     H 5310   5.977   8.090   4.102  0.6601  0.9319 -4.3423
  798MOL0     H 5311   5.891   8.208   3.997 -0.2173  0.7319  0.0224
  798MOL0     H 5312   5.705   8.201   4.217 -2.3481  0.3428 -1.7069
  798MOL0     H 5313   5.774   8.041   4.229 -0.7701  1.3316  2.4665
  798MOL0     H 5314   5.640   8.144   3.981 -1.8880 -2.1224 -2.0503
  798MOL0     H 5315   5.722   7.992   4.001  0.9559  0.5154  0.9939
  798MOL0     H 5316   5.490   7.967   4.045 -0.9544 -1.7193  2.8172
  798MOL0     H 5317   5.505   8.065   4.192  2.9607  0.5828  1.9684
  798MOL0     H 5318   6.397   8.751   4.411 -0.5869  2.2193 -1.5815
  798MOL0     H 5319   6.580   8.916   4.406 -0.1958  1.0027 -0.9544
  798MOL0     H 5320   6.972   9.059   4.132 -0.2055  1.7978 -0.1211
  798MOL0     H 5321   7.145   9.211   4.119  0.3568 -0.2169  0.1691
  798MOL0     H 5322   6.655  10.242   5.238 -0.0301  0.6032  0.5146
  798MOL0     H 5323   6.566  10.185   5.455  1.0562 -0.7662  0.6875
  798MOL0     H 5324   6.612   9.896   5.798  0.7369 -1.2678 -1.7161
  798MOL0     H 5325   6.594   9.813   6.023 -1.1669  3.2011  0.0103
  798MOL0     H 5326   6.436   9.834   6.258 -2.0521 -0.1591 -0.4433
  798MOL0     H 5327   6.546   9.716   6.209  1.7969 -0.3406  3.9976
  798MOL0     H 5328   6.467   9.696   6.444  0.1280  5.8547 -2.5289
  798MOL0     H 5329   6.307   9.648   6.389 -0.8890 -1.9198 -1.1116
  798MOL0     H 5330   6.507   9.465   6.457  0.3033 -2.7201 -0.2925
  798MOL0     H 5331   6.561   9.482   6.303  0.7454 -0.8517  0.0067
  798MOL0     H 5332   6.266   9.410   6.339  1.2659  1.4504  0.8568
  798MOL0     H 5333   6.364   9.413   6.195 -1.3990 -0.3752 -0.6444
  798MOL0     H 5334   6.470   9.037   6.360 -0.0056  0.6553  2.3625
  798MOL0     H 5335   6.193   9.662   5.935 -0.4249  0.3267 -0.7655
  798MOL0     H 5336   6.227   9.733   5.693 -0.0438  1.1598  0.0710
  799MOL0     O 5337   5.936   3.041   3.213  0.3162 -0.6564  0.4810
  799MOL0     C 5338   5.965   3.059   3.094  0.1669 -0.8759 -0.0251
  799MOL0     O 5339   6.075   3.109   3.050 -0.0342 -0.2655 -0.2941
  799MOL0     C 5340   6.170   3.169   3.133 -0.5434  0.5553  0.1126
  799MOL0     C 5341   6.299   3.198   3.082  0.0160 -0.3561  0.4139
  799MOL0     C 5342   6.391   3.264   3.151 -1.2287 -0.4209  0.4784
  799MOL0     C 5343   6.376   3.300   3.278 -1.3198  0.9846 -1.0911
  799MOL0     O 5344   6.483   3.353   3.356 -0.2962 -0.3961 -0.1640
  799MOL0     C 5345   6.479   3.498   3.338  0.4524  0.4167  0.1977
  799MOL0     C 5346   6.597   3.563   3.416  0.3778  0.3319 -0.6281
  799MOL0     C 5347   6.739   3.498   3.360  0.0778  0.1025  0.9378
  799MOL0     C 5348   6.852   3.545   3.446 -0.1579  0.2361 -0.3764
  799MOL0     C 5349   6.968   3.439   3.440  0.2091 -0.1898  0.2175
  799MOL0     C 5350   7.097   3.486   3.495 -0.1672  0.3261 -0.0202
  799MOL0     C 5351   7.137   3.427   3.631  0.0590  0.5682 -0.3486
  799MOL0     C 5352   7.276   3.478   3.669  0.5481 -0.8525  0.0015
  799MOL0     N 5353   7.318   3.431   3.803 -0.8385  0.5261  0.2076
  799MOL0     C 5354   7.266   3.460   3.918  0.7158 -0.5944 -0.1769
  799MOL0     C 5355   7.352   3.408   4.009 -0.6342 -0.2817 -0.8407
  799MOL0     C 5356   7.338   3.415   4.164  0.0081  0.4641  0.4536
  799MOL0     C 5357   7.332   3.265   4.218  0.5351  0.0254  0.4428
  799MOL0     C 5358   7.364   3.231   4.369 -0.3020 -0.8916 -0.5533
  799MOL0     C 5359   7.482   3.315   4.420  0.5942  0.1367  0.3912
  799MOL0     O 5360   7.596   3.295   4.338  0.3161 -0.1476  0.3517
  799MOL0     C 5361   7.729   3.312   4.370  0.3191 -0.2235  0.2535
  799MOL0     C 5362   7.774   3.350   4.498 -0.9561  0.0708  0.2706
  799MOL0     C 5363   7.912   3.354   4.521  0.3904  0.8933  0.2384
  799MOL0     C 5364   8.004   3.300   4.424  0.2430 -0.5460  1.5006
  799MOL0     C 5365   8.148   3.291   4.447 -0.1092  0.4164  0.1742
  799MOL0     O 5366   8.208   3.355   4.546 -0.0502  0.2597  0.3601
  799MOL0     C 5367   8.346   3.329   4.572  0.8555 -0.6536 -0.4749
  799MOL0     C 5368   8.398   3.212   4.606  0.7148  1.0847 -0.3491
  799MOL0     C 5369   8.535   3.198   4.629  0.5410  0.4282  0.5770
  799MOL0     C 5370   8.616   3.307   4.599 -0.0870 -0.8243 -0.5844
  799MOL0     O 5371   8.757   3.312   4.611  0.2255 -1.3113  0.0660
  799MOL0     C 5372   8.826   3.199   4.662  0.2985  0.5121 -0.5446
  799MOL0     C 5373   8.969   3.238   4.646 -0.5981 -0.0485  0.1127
  799MOL0     C 5374   9.064   3.134   4.703 -0.1196 -0.2770 -0.3605
  799MOL0     C 5375   9.205   3.184   4.710 -0.0570  0.0907  0.2303
  799MOL0     C 5376   9.293   3.072   4.783  0.2254 -0.6468 -0.0426
  799MOL0     C 5377   9.258   3.068   4.931 -1.1656 -0.0746 -0.6855
  799MOL0     C 5378   9.363   2.976   4.994 -0.3785 -0.8135 -0.3972
  799MOL0     C 5379   9.325   2.960   5.143 -0.1629  0.1556 -0.4951
  799MOL0    Cl 5380   9.435   2.828   5.207  0.3474  0.0531 -0.0010
  799MOL0     C 5381   8.557   3.431   4.560 -0.7693  0.1492 -0.9928
  799MOL0     C 5382   8.424   3.439   4.555 -0.5422  0.5032 -0.1737
  799MOL0     O 5383   8.208   3.211   4.373 -0.3757  0.0007  0.2465
  799MOL0     C 5384   7.950   3.251   4.302 -0.1112  0.3909 -0.0397
  799MOL0     C 5385   7.819   3.264   4.277  0.9641  0.9199 -0.3584
  799MOL0     N 5386   7.454   3.346   3.943  0.9606  0.2331  0.3728
  799MOL0     N 5387   7.426   3.350   3.822 -0.0873  0.0198 -0.2603
  799MOL0     C 5388   6.258   3.272   3.339 -0.4528  0.0126  0.3365
  799MOL0     C 5389   6.153   3.222   3.262 -0.0937 -0.4993 -0.8706
  799MOL0     C 5390   5.872   3.017   2.986 -0.4703  0.3890  0.2132
  799MOL0     C 5391   5.908   3.018   2.847  0.4869 -0.0152 -0.0318
  799MOL0     C 5392   5.809   2.979   2.751 -0.0693  0.6314 -0.0336
  799MOL0     C 5393   5.695   2.916   2.795 -0.0050 -0.2138 -0.4738
  799MOL0     O 5394   5.606   2.872   2.700 -0.3267 -0.5032 -0.8236
  799MOL0     C 5395   5.664   2.828   2.574 -0.6666 -0.0783 -0.1871
  799MOL0     C 5396   5.582   2.716   2.534 -0.5912  0.6366 -0.2204
  799MOL0     C 5397   5.462   2.752   2.452  0.7944  0.2337 -0.4907
  799MOL0     C 5398   5.371   2.630   2.427 -0.1273 -0.5169  0.4121
  799MOL0     C 5399   5.432   2.556   2.315 -0.8996  0.1385  1.2029
  799MOL0     C 5400   5.494   2.511   2.225 -0.8958 -0.6446  0.0489
  799MOL0     C 5401   5.661   2.922   2.929  0.2794  0.5356 -0.6709
  799MOL0     C 5402   5.745   2.974   3.028  0.3125  0.6458  1.0586
  799MOL0     H 5403   6.327   3.167   2.982 -3.1870 -0.3791 -0.5923
  799MOL0     H 5404   6.482   3.284   3.095 -0.3804 -2.4596  1.0236
  799MOL0     H 5405   6.387   3.531   3.385  1.7747  1.2317  2.3693
  799MOL0     H 5406   6.481   3.519   3.230  0.1504  0.0120  0.1093
  799MOL0     H 5407   6.576   3.536   3.520 -1.7684  1.5723 -0.6805
  799MOL0     H 5408   6.597   3.672   3.409  0.3027  0.2440 -2.5966
  799MOL0     H 5409   6.750   3.519   3.253 -1.2214  0.0102  0.7668
  799MOL0     H 5410   6.737   3.389   3.372  1.8428  0.0326  0.9133
  799MOL0     H 5411   6.892   3.641   3.411 -0.9443  0.5289 -0.4973
  799MOL0     H 5412   6.810   3.564   3.545 -0.7019 -0.6992 -0.4189
  799MOL0     H 5413   6.987   3.413   3.335  0.7254 -1.5176  0.6217
  799MOL0     H 5414   6.929   3.352   3.494  0.3659  0.4547  1.4030
  799MOL0     H 5415   7.105   3.596   3.496 -1.3575  0.4173  1.2515
  799MOL0     H 5416   7.176   3.465   3.422 -0.6863 -0.1183 -0.4598
  799MOL0     H 5417   7.056   3.458   3.698  0.0031  0.6199 -0.4407
  799MOL0     H 5418   7.142   3.318   3.624  4.0220  0.7093 -2.6029
  799MOL0     H 5419   7.282   3.586   3.683  2.7534 -1.0229  0.7132
  799MOL0     H 5420   7.346   3.450   3.590 -0.8611 -1.1850 -1.1658
  799MOL0     H 5421   7.176   3.515   3.944  0.7798 -0.4463 -0.2679
  799MOL0     H 5422   7.247   3.473   4.179  0.8223  2.4496 -1.7641
  799MOL0     H 5423   7.427   3.461   4.207  0.3692 -0.7391  1.0576
  799MOL0     H 5424   7.404   3.209   4.157 -1.6487 -2.5415  0.0007
  799MOL0     H 5425   7.240   3.216   4.185  2.7254 -2.4400 -2.6298
  799MOL0     H 5426   7.291   3.260   4.444 -0.2504  0.7806 -1.1059
  799MOL0     H 5427   7.391   3.125   4.370 -2.4448 -1.5025  1.8228
  799MOL0     H 5428   7.508   3.275   4.519 -0.8564  3.4847  2.3297
  799MOL0     H 5429   7.449   3.418   4.437 -2.3267 -0.5059 -0.8102
  799MOL0     H 5430   7.714   3.388   4.581  1.2772  2.4620  0.9352
  799MOL0     H 5431   7.947   3.378   4.621  0.2035 -3.3398  1.4933
  799MOL0     H 5432   8.333   3.126   4.621  1.2171  0.4025 -1.8391
  799MOL0     H 5433   8.571   3.104   4.669 -1.4478 -0.1696  1.0445
  799MOL0     H 5434   8.802   3.109   4.605 -5.5121  1.3127  0.0022
  799MOL0     H 5435   8.797   3.164   4.762  1.5132 -3.1549 -1.3297
  799MOL0     H 5436   8.980   3.329   4.706 -0.4177 -0.3066  0.4694
  799MOL0     H 5437   8.989   3.268   4.543 -1.6090  1.9754  0.4602
  799MOL0     H 5438   9.059   3.039   4.649  2.3688  0.2175 -1.6113
  799MOL0     H 5439   9.028   3.115   4.805  0.6065 -1.3385 -0.2929
  799MOL0     H 5440   9.241   3.195   4.607 -0.7872 -1.0226 -0.1587
  799MOL0     H 5441   9.212   3.282   4.758 -0.5372  0.1697  0.1419
  799MOL0     H 5442   9.397   3.099   4.766 -0.0626 -1.2211 -3.2686
  799MOL0     H 5443   9.286   2.974   4.736  0.4357 -0.4427 -0.5106
  799MOL0     H 5444   9.158   3.027   4.950  0.2770 -3.6674 -0.0828
  799MOL0     H 5445   9.273   3.170   4.965 -2.3164 -0.5234  1.3590
  799MOL0     H 5446   9.362   2.878   4.945 -0.9453 -0.2985 -1.4512
  799MOL0     H 5447   9.462   3.023   4.992 -0.7986  0.0846 -0.6039
  799MOL0     H 5448   9.223   2.921   5.154  0.3153 -0.7899  0.9725
  799MOL0     H 5449   9.344   3.045   5.208 -0.9435  0.0775 -0.1580
  799MOL0     H 5450   8.608   3.524   4.540  1.3818 -0.2406  1.9761
  799MOL0     H 5451   8.384   3.535   4.527  2.9290  2.1018 -0.1615
  799MOL0     H 5452   8.013   3.224   4.218 -0.1443  2.7789 -0.9246
  799MOL0     H 5453   7.794   3.219   4.181 -0.1657 -2.0751  1.2162
  799MOL0     H 5454   6.246   3.302   3.443 -0.3865  0.1011  0.3181
  799MOL0     H 5455   6.059   3.211   3.314  0.3582 -2.8118 -0.4258
  799MOL0     H 5456   6.000   3.063   2.810  1.2207 -0.7012  0.9102
  799MOL0     H 5457   5.836   2.994   2.647  0.5475 -0.7331 -0.0949
  799MOL0     H 5458   5.767   2.791   2.581 -0.2762  0.9843 -0.0160
  799MOL0     H 5459   5.660   2.911   2.503 -2.1187 -0.3209 -0.4072
  799MOL0     H 5460   5.648   2.655   2.471 -0.3081  2.3400 -1.6497
  799MOL0     H 5461   5.539   2.661   2.619 -1.6062 -0.1190 -1.1865
  799MOL0     H 5462   5.476   2.815   2.363  1.4763  1.3226  0.3677
  799MOL0     H 5463   5.410   2.822   2.518  3.2400  1.1478  0.5668
  799MOL0     H 5464   5.351   2.569   2.515 -2.4546  0.6639  0.7918
  799MOL0     H 5465   5.279   2.673   2.387  0.8642  2.9963  1.5313
  799MOL0     H 5466   5.551   2.467   2.146  2.3418  3.8851 -0.4842
  799MOL0     H 5467   5.562   2.889   2.960 -1.0535  4.6806  0.1037
  799MOL0     H 5468   5.702   2.966   3.128 -3.4989 -2.0860 -0.5082
  800MOL0     O 5469   8.772  11.077   5.918 -0.6387 -0.1683  0.1771
  800MOL0     C 5470   8.857  11.148   5.974  0.6103  0.6954  0.4481
  800MOL0     O 5471   8.948  11.101   6.064 -0.3243  0.1472  0.3586
  800MOL0     C 5472   8.950  10.968   6.092 -0.4417 -0.2059  0.4473
  800MOL0     C 5473   8.841  10.893   6.137 -0.9454 -0.9809 -0.5879
  800MOL0     C 5474   8.856  10.755   6.146  0.4010 -0.6369 -1.5135
  800MOL0     C 5475   8.981  10.693   6.125  0.0715 -1.3729 -0.9115
  800MOL0     O 5476   9.004  10.563   6.146 -0.5252 -0.0166 -0.1667
  800MOL0     C 5477   8.902  10.496   6.226  0.1092 -0.3716  0.5241
  800MOL0     C 5478   8.962  10.355   6.274 -0.8825  0.5227 -1.1159
  800MOL0     C 5479   9.095  10.307   6.215  0.0691 -0.0920  0.1269
  800MOL0     C 5480   9.074  10.257   6.072 -0.4696 -0.1907  0.4661
  800MOL0     C 5481   9.222  10.263   6.011  0.4529 -0.1181  0.0048
  800MOL0     C 5482   9.234  10.392   5.941  0.8415 -0.2829  0.1210
  800MOL0     C 5483   9.377  10.428   5.891  0.3916 -0.3351 -0.2179
  800MOL0     C 5484   9.369  10.512   5.764 -0.1902 -1.4838  0.0699
  800MOL0     N 5485   9.503  10.538   5.725  1.1668 -0.2403 -0.7009
  800MOL0     C 5486   9.561  10.664   5.731  0.5164  0.4994  0.5640
  800MOL0     C 5487   9.696  10.640   5.708 -0.7159  0.1732 -0.6914
  800MOL0     C 5488   9.812  10.740   5.703 -0.0873  0.5610 -0.2359
  800MOL0     C 5489   9.808  10.829   5.825 -0.1484 -0.0420 -0.0574
  800MOL0     C 5490   9.846  10.749   5.948 -0.8289 -0.0071  0.6909
  800MOL0     C 5491   9.840  10.824   6.080  0.0680  0.3105  0.2641
  800MOL0     O 5492   9.697  10.847   6.114 -0.2578 -0.3113 -0.4276
  800MOL0     C 5493   9.647  10.980   6.121 -0.2964  0.9102 -1.3346
  800MOL0     C 5494   9.717  11.101   6.130 -0.3967  0.5692 -0.3780
  800MOL0     C 5495   9.642  11.231   6.124 -0.7108  0.9769  0.3212
  800MOL0     C 5496   9.504  11.231   6.122 -0.2007 -0.7407  1.5109
  800MOL0     C 5497   9.423  11.358   6.124  0.0797 -0.1623 -0.1543
  800MOL0     O 5498   9.484  11.482   6.161 -0.2772  0.6187  0.4097
  800MOL0     C 5499   9.395  11.588   6.209  0.0833  0.1347 -0.0767
  800MOL0     C 5500   9.411  11.720   6.158 -0.6833  0.1811 -0.4157
  800MOL0     C 5501   9.335  11.819   6.207  0.4929 -0.3084  1.1078
  800MOL0     C 5502   9.243  11.792   6.309  0.1596 -1.0591 -0.6242
  800MOL0     O 5503   9.159  11.881   6.358 -0.4660 -0.5130 -1.0444
  800MOL0     C 5504   9.059  11.920   6.267  0.2562  0.1869  0.2344
  800MOL0     C 5505   8.930  11.880   6.332  0.0231 -0.3255 -0.5180
  800MOL0     C 5506   8.802  11.949   6.271 -0.2316  0.7023 -1.2374
  800MOL0     C 5507   8.766  12.085   6.327  0.6973 -0.1707 -0.2257
  800MOL0     C 5508   8.612  12.112   6.337 -0.5232 -0.2796 -0.1947
  800MOL0     C 5509   8.524  12.079   6.215  0.3023 -0.0541 -0.0521
  800MOL0     C 5510   8.367  12.101   6.232 -0.1399  0.6553  0.3115
  800MOL0     C 5511   8.290  12.060   6.108 -0.0852  0.3903 -0.2223
  800MOL0    Cl 5512   8.118  12.042   6.141 -0.0003 -0.3063 -0.4262
  800MOL0     C 5513   9.229  11.665   6.357  0.6110 -0.2016 -0.1688
  800MOL0     C 5514   9.314  11.557   6.311 -0.0173  0.1642 -0.0079
  800MOL0     O 5515   9.303  11.334   6.108 -0.5550 -0.5967 -0.8062
  800MOL0     C 5516   9.441  11.109   6.118  0.1785  0.0186  0.7261
  800MOL0     C 5517   9.511  10.986   6.108 -0.5133  0.9856 -1.4435
  800MOL0     N 5518   9.711  10.507   5.688 -0.5481 -0.4598  0.0516
  800MOL0     N 5519   9.601  10.446   5.707  0.2832  0.1263  0.0630
  800MOL0     C 5520   9.089  10.772   6.087  0.0696  0.4896 -0.1382
  800MOL0     C 5521   9.076  10.909   6.078  0.7240 -0.0574 -0.2154
  800MOL0     C 5522   8.861  11.291   5.942  0.4228 -0.4305 -0.1903
  800MOL0     C 5523   8.969  11.380   5.972 -0.2191 -0.6469 -0.2316
  800MOL0     C 5524   8.978  11.512   5.941  0.1278  0.4421  0.3208
  800MOL0     C 5525   8.869  11.572   5.870 -0.8239 -0.0352 -0.3547
  800MOL0     O 5526   8.871  11.702   5.825 -0.1027  0.3955  0.6244
  800MOL0     C 5527   8.873  11.817   5.905  0.9460 -0.6070 -0.9715
  800MOL0     C 5528   8.855  11.939   5.819  1.1628 -0.5348 -0.4417
  800MOL0     C 5529   8.710  11.966   5.773 -1.1169  0.6642 -0.2478
  800MOL0     C 5530   8.605  12.010   5.875  0.0674 -0.3337  0.5009
  800MOL0     C 5531   8.496  11.909   5.874 -0.6787  0.4530  0.9245
  800MOL0     C 5532   8.427  11.809   5.886 -0.6614 -0.1404 -0.5590
  800MOL0     C 5533   8.759  11.487   5.850  0.3116 -0.2726 -1.2924
  800MOL0     C 5534   8.754  11.352   5.870 -0.3550 -0.6317  0.4141
  800MOL0     H 5535   8.739  10.929   6.141 -0.7693 -0.2221 -2.0117
  800MOL0     H 5536   8.764  10.701   6.169  0.6208 -0.5069 -0.2617
  800MOL0     H 5537   8.818  10.469   6.161  0.0032 -2.1695  1.3396
  800MOL0     H 5538   8.881  10.564   6.309 -0.1208  0.2465 -0.0237
  800MOL0     H 5539   8.878  10.285   6.274 -0.1967 -0.3223 -1.8256
  800MOL0     H 5540   8.989  10.362   6.380  1.8444 -0.1211 -1.6882
  800MOL0     H 5541   9.141  10.236   6.283 -1.7778  0.1533  1.7004
  800MOL0     H 5542   9.174  10.382   6.223  3.2894 -3.1883 -0.0330
  800MOL0     H 5543   9.055  10.150   6.087  0.2413 -0.5584 -1.1279
  800MOL0     H 5544   8.995  10.308   6.017 -0.7256  2.9882  3.4725
  800MOL0     H 5545   9.239  10.180   5.942  0.9094  1.2838 -1.6357
  800MOL0     H 5546   9.298  10.240   6.086  0.4493  1.3612  0.4870
  800MOL0     H 5547   9.191  10.466   6.008 -1.9875 -2.3567  0.7836
  800MOL0     H 5548   9.174  10.404   5.850  0.2241  3.1710  0.8635
  800MOL0     H 5549   9.433  10.480   5.968  0.1805 -0.7760  0.2461
  800MOL0     H 5550   9.428  10.334   5.867 -2.7655 -2.4208  0.5954
  800MOL0     H 5551   9.327  10.609   5.794  1.2957 -0.3399 -1.3302
  800MOL0     H 5552   9.308  10.459   5.691 -0.7030  0.9832 -1.4047
  800MOL0     H 5553   9.506  10.754   5.755 -3.7186 -1.5316 -0.4153
  800MOL0     H 5554   9.785  10.786   5.608 -3.1908 -4.0002 -1.8923
  800MOL0     H 5555   9.911  10.705   5.672 -0.9944  0.6097 -3.5046
  800MOL0     H 5556   9.708  10.873   5.830  0.1177  0.5903 -0.2860
  800MOL0     H 5557   9.881  10.909   5.811 -1.8170  1.3927 -1.0781
  800MOL0     H 5558   9.783  10.660   5.957  3.2271 -3.0199  3.1876
  800MOL0     H 5559   9.945  10.709   5.923 -1.0386 -0.3090  0.3316
  800MOL0     H 5560   9.894  10.919   6.076 -1.3318  1.1235  0.1591
  800MOL0     H 5561   9.891  10.788   6.171  0.0198  4.1891  2.0105
  800MOL0     H 5562   9.824  11.086   6.137 -0.7548 -2.7679 -0.5121
  800MOL0     H 5563   9.708  11.316   6.143  1.5977 -0.2772 -1.5433
  800MOL0     H 5564   9.481  11.750   6.081  1.2008  1.1272  1.5462
  800MOL0     H 5565   9.330  11.911   6.150 -0.0883 -2.5269 -2.7870
  800MOL0     H 5566   9.079  11.884   6.166 -1.7381  1.8768 -0.8428
  800MOL0     H 5567   9.056  12.028   6.251 -0.5957  0.0761 -0.4016
  800MOL0     H 5568   8.942  11.917   6.435  0.8632  1.4076 -1.1961
  800MOL0     H 5569   8.915  11.772   6.330 -0.1154 -0.3101 -0.3407
  800MOL0     H 5570   8.722  11.884   6.309  0.0747  0.4373 -1.0383
  800MOL0     H 5571   8.809  11.961   6.163  1.0106 -2.9030 -1.6931
  800MOL0     H 5572   8.806  12.094   6.429 -0.9394 -0.3861  0.4566
  800MOL0     H 5573   8.825  12.155   6.267 -0.3171 -0.9717 -2.2257
  800MOL0     H 5574   8.597  12.214   6.374  3.8522 -0.0347  1.4851
  800MOL0     H 5575   8.575  12.051   6.420 -0.7380 -0.0511 -0.1209
  800MOL0     H 5576   8.534  11.973   6.190 -1.2898  0.0419 -1.2287
  800MOL0     H 5577   8.554  12.127   6.122 -3.0048  1.5471 -0.4190
  800MOL0     H 5578   8.330  12.037   6.313  0.5686 -0.4179 -0.1883
  800MOL0     H 5579   8.345  12.206   6.255 -1.4013  0.4039  0.3172
  800MOL0     H 5580   8.324  11.962   6.075 -0.1137  0.7961 -1.5029
  800MOL0     H 5581   8.321  12.128   6.028 -3.9149  1.0992 -1.3211
  800MOL0     H 5582   9.157  11.640   6.434  3.2123 -0.9476  2.1971
  800MOL0     H 5583   9.290  11.456   6.342 -0.3919 -0.9808 -3.5114
  800MOL0     H 5584   9.333  11.110   6.130  0.3116  3.5616  3.0005
  800MOL0     H 5585   9.446  10.899   6.095  1.8933 -1.0467 -0.5868
  800MOL0     H 5586   9.185  10.726   6.065 -1.2577 -2.2027 -0.8751
  800MOL0     H 5587   9.142  10.981   6.031  0.0535 -1.0045 -2.7829
  800MOL0     H 5588   9.049  11.334   6.028  0.1394  0.2229 -0.0088
  800MOL0     H 5589   9.076  11.558   5.952  0.1138  0.1977  1.6527
  800MOL0     H 5590   8.962  11.817   5.969  0.2097 -0.8108  0.0732
  800MOL0     H 5591   8.790  11.817   5.977  0.7964 -0.8943 -1.1453
  800MOL0     H 5592   8.897  12.029   5.866  1.1167 -0.1631 -1.0904
  800MOL0     H 5593   8.914  11.932   5.726 -2.1016  0.4197 -2.7750
  800MOL0     H 5594   8.678  11.872   5.726 -1.1438  1.1908 -1.3176
  800MOL0     H 5595   8.718  12.031   5.686  0.5473 -1.2328 -1.5974
  800MOL0     H 5596   8.658  12.010   5.971 -1.4700 -0.7416  1.3952
  800MOL0     H 5597   8.551  12.103   5.856 -0.0556 -0.5271 -0.1294
  800MOL0     H 5598   8.377  11.716   5.875 -0.6288 -0.1631 -0.5152
  800MOL0     H 5599   8.664  11.530   5.820 -0.0008  0.5959  0.7128
  800MOL0     H 5600   8.656  11.311   5.848  0.7839 -3.1621 -0.2440
  801MOL0     O 5601   7.534   1.387   4.164 -0.1718 -0.3665 -0.4307
  801MOL0     C 5602   7.614   1.352   4.080  0.6596  0.3675 -0.0063
  801MOL0     O 5603   7.583   1.288   3.960 -0.0763 -0.2690  0.2411
  801MOL0     C 5604   7.462   1.228   3.929 -0.6212  0.2735  0.2886
  801MOL0     C 5605   7.472   1.135   3.825  0.2322 -0.2887 -0.5515
  801MOL0     C 5606   7.365   1.057   3.786  0.4844  0.6085 -0.1057
  801MOL0     C 5607   7.239   1.068   3.845 -0.0516 -0.2124 -0.7798
  801MOL0     O 5608   7.128   0.988   3.825 -0.0635 -0.3158  0.1903
  801MOL0     C 5609   7.139   0.862   3.758 -0.4212 -0.2120 -0.3631
  801MOL0     C 5610   6.996   0.805   3.758 -0.5723  0.3755 -0.1714
  801MOL0     C 5611   6.885   0.909   3.729  0.1056  0.6677  0.7892
  801MOL0     C 5612   6.747   0.844   3.707  0.2704 -0.2926 -0.2041
  801MOL0     C 5613   6.641   0.937   3.736 -0.0317  0.1490 -0.2469
  801MOL0     C 5614   6.497   0.881   3.714  0.1339  0.3302 -0.3873
  801MOL0     C 5615   6.386   0.987   3.734 -0.2468 -0.3889  0.1609
  801MOL0     C 5616   6.243   0.953   3.685 -0.8024  0.1019 -0.5090
  801MOL0     N 5617   6.153   1.047   3.744  0.4451  0.4965  0.0320
  801MOL0     C 5618   6.085   1.032   3.859  0.0829 -0.2157  0.0092
  801MOL0     C 5619   6.015   1.148   3.881 -0.5334 -0.5038 -0.0713
  801MOL0     C 5620   5.927   1.175   3.996  1.0400  0.4031  0.1154
  801MOL0     C 5621   5.893   1.328   4.010  0.6116 -0.2917  0.3853
  801MOL0     C 5622   5.861   1.361   4.155 -0.0877  0.5034  0.6353
  801MOL0     C 5623   5.965   1.331   4.257 -0.4023 -0.0627 -0.1583
  801MOL0     O 5624   5.925   1.401   4.377  0.2370  0.0381 -0.7501
  801MOL0     C 5625   5.791   1.378   4.434 -0.1486  0.3951  1.2064
  801MOL0     C 5626   5.743   1.471   4.525  0.1443  0.0280 -0.0650
  801MOL0     C 5627   5.621   1.474   4.580 -0.7493 -0.0705 -0.0341
  801MOL0     C 5628   5.543   1.355   4.572  0.4815 -0.1971  0.1903
  801MOL0     C 5629   5.423   1.341   4.661 -0.0600 -0.6653  0.4984
  801MOL0     O 5630   5.412   1.432   4.767  0.7113 -0.5961  0.2651
  801MOL0     C 5631   5.282   1.437   4.813  0.0174 -0.1537 -0.1890
  801MOL0     C 5632   5.181   1.494   4.736  0.7798 -0.0671 -0.0560
  801MOL0     C 5633   5.049   1.518   4.784  1.1101  0.4262  0.8401
  801MOL0     C 5634   5.015   1.471   4.911 -0.4285 -0.2806  0.0023
  801MOL0     O 5635   4.897   1.478   4.975  0.1774  0.0643 -0.4835
  801MOL0     C 5636   4.800   1.558   4.913 -0.0171  0.1403  0.0754
  801MOL0     C 5637   4.676   1.574   5.013  0.5881  0.4283 -0.1671
  801MOL0     C 5638   4.616   1.438   5.032  0.4164 -0.5444 -0.5434
  801MOL0     C 5639   4.495   1.453   5.128  0.6624 -0.5123 -0.3816
  801MOL0     C 5640   4.442   1.321   5.197 -1.0729 -0.4070 -0.1907
  801MOL0     C 5641   4.382   1.225   5.092  0.0831 -0.7171 -0.0311
  801MOL0     C 5642   4.363   1.080   5.140  0.2752  0.2307 -1.4529
  801MOL0     C 5643   4.273   0.986   5.069  0.5798 -0.2360 -0.2639
  801MOL0    Cl 5644   4.335   0.904   4.922 -0.0504 -0.1993  0.8597
  801MOL0     C 5645   5.117   1.422   4.994  0.2994 -0.4242  0.8034
  801MOL0     C 5646   5.253   1.402   4.942 -1.0817 -0.0199 -0.8255
  801MOL0     O 5647   5.348   1.247   4.635 -0.5704 -0.1073 -0.7817
  801MOL0     C 5648   5.596   1.245   4.498 -1.0867 -0.6528 -0.3304
  801MOL0     C 5649   5.717   1.257   4.425  0.7075  0.3783  0.4380
  801MOL0     N 5650   6.037   1.223   3.764  0.9409 -0.4074 -0.1332
  801MOL0     N 5651   6.112   1.162   3.677 -1.0457  0.2740  0.4455
  801MOL0     C 5652   7.225   1.168   3.941  0.1125  0.8488 -0.3418
  801MOL0     C 5653   7.338   1.239   3.988 -0.2282 -0.7170  0.6521
  801MOL0     C 5654   7.750   1.398   4.113 -0.1296 -0.8957 -1.1840
  801MOL0     C 5655   7.847   1.360   4.022  0.5423  0.7709 -1.1160
  801MOL0     C 5656   7.977   1.360   4.059 -0.0098 -0.8562  0.5444
  801MOL0     C 5657   8.014   1.417   4.182  1.0348 -0.0427 -0.5735
  801MOL0     O 5658   8.149   1.426   4.203 -0.1886 -0.2527  0.5296
  801MOL0     C 5659   8.203   1.505   4.311 -1.3825  0.3594  0.5684
  801MOL0     C 5660   8.358   1.512   4.312 -0.2259  0.2146  0.1831
  801MOL0     C 5661   8.408   1.372   4.362 -0.0895 -1.2123  0.6912
  801MOL0     C 5662   8.421   1.372   4.515  0.3963 -0.0811 -0.0784
  801MOL0     C 5663   8.480   1.254   4.567 -0.2581 -0.5576  0.5852
  801MOL0     C 5664   8.514   1.137   4.583 -0.4848  0.4537 -0.2062
  801MOL0     C 5665   7.916   1.471   4.269  1.0120  1.1715  0.1964
  801MOL0     C 5666   7.778   1.459   4.233 -0.8030  0.2037 -0.4860
  801MOL0     H 5667   7.561   1.126   3.765  1.4647 -2.6485  1.4151
  801MOL0     H 5668   7.366   0.986   3.704 -0.6843  0.8716 -0.3696
  801MOL0     H 5669   7.215   0.801   3.806 -0.8439 -0.2888  0.2246
  801MOL0     H 5670   7.182   0.865   3.658 -0.4610 -1.5215 -0.4377
  801MOL0     H 5671   6.972   0.757   3.853  0.4289  1.7350  0.8049
  801MOL0     H 5672   7.002   0.742   3.669 -1.9537 -0.2668  0.1547
  801MOL0     H 5673   6.916   0.952   3.634  3.2359 -2.4705  0.1948
  801MOL0     H 5674   6.890   0.986   3.807 -0.2092  1.4316  0.0681
  801MOL0     H 5675   6.732   0.803   3.607 -2.8160 -0.6004  0.2902
  801MOL0     H 5676   6.725   0.762   3.775 -0.5627 -0.2493 -0.4176
  801MOL0     H 5677   6.652   1.031   3.682 -0.7559  1.5923  1.9422
  801MOL0     H 5678   6.645   0.960   3.843 -1.0682 -0.2474 -0.1117
  801MOL0     H 5679   6.473   0.799   3.782  0.4691  0.2984 -0.3014
  801MOL0     H 5680   6.503   0.843   3.612  0.9390 -0.3895 -0.0916
  801MOL0     H 5681   6.381   1.002   3.843 -1.8370  3.5475 -0.3042
  801MOL0     H 5682   6.408   1.082   3.685  0.4885  0.7022  2.4541
  801MOL0     H 5683   6.219   0.853   3.721  2.8675 -0.3156  1.2229
  801MOL0     H 5684   6.244   0.974   3.578 -1.5086  2.1361 -0.1640
  801MOL0     H 5685   6.072   0.938   3.910  0.0998  0.0318  0.4763
  801MOL0     H 5686   5.989   1.147   4.082  1.5431  1.4690  0.1146
  801MOL0     H 5687   5.835   1.116   3.999  1.9116 -0.9865  0.0286
  801MOL0     H 5688   5.797   1.346   3.961 -0.1907 -1.1443  1.5695
  801MOL0     H 5689   5.968   1.397   3.971  1.1253 -0.7210  0.5902
  801MOL0     H 5690   5.845   1.470   4.160 -0.1354  0.5058  0.4138
  801MOL0     H 5691   5.771   1.304   4.175 -0.1363  0.2619 -0.2480
  801MOL0     H 5692   6.066   1.364   4.232 -1.4911  1.6743 -2.8391
  801MOL0     H 5693   5.964   1.223   4.272 -1.7075 -0.0977 -0.3303
  801MOL0     H 5694   5.811   1.553   4.544  0.7560 -0.2067 -1.1452
  801MOL0     H 5695   5.593   1.557   4.644  0.8081 -0.1989  0.8597
  801MOL0     H 5696   5.196   1.517   4.631 -0.2058 -4.1933 -1.3124
  801MOL0     H 5697   4.973   1.551   4.714  1.2279 -0.1820  0.4161
  801MOL0     H 5698   4.760   1.498   4.831  0.0953 -1.8579  1.4057
  801MOL0     H 5699   4.839   1.657   4.887 -1.4652  1.1342  1.4650
  801MOL0     H 5700   4.599   1.638   4.968 -2.3544 -2.4481  0.4041
  801MOL0     H 5701   4.701   1.616   5.111 -0.1291  0.9516 -0.1966
  801MOL0     H 5702   4.696   1.372   5.067 -1.0902 -2.2434 -0.1144
  801MOL0     H 5703   4.572   1.402   4.938  1.0894 -1.0974 -0.6520
  801MOL0     H 5704   4.526   1.522   5.207 -0.4979  0.4368 -0.7381
  801MOL0     H 5705   4.408   1.505   5.087  1.5705  2.1760  0.8691
  801MOL0     H 5706   4.365   1.335   5.274  0.1243 -0.6955  1.1057
  801MOL0     H 5707   4.523   1.268   5.248 -0.3880  1.0179  0.2526
  801MOL0     H 5708   4.427   1.216   4.993 -0.4690 -5.7623 -0.0765
  801MOL0     H 5709   4.282   1.267   5.076  0.3423  1.1440  2.5399
  801MOL0     H 5710   4.459   1.030   5.151  0.6795  1.0276 -1.3632
  801MOL0     H 5711   4.323   1.094   5.241 -0.6055  1.4438 -1.9453
  801MOL0     H 5712   4.179   1.036   5.047  1.4904  1.2643 -0.9596
  801MOL0     H 5713   4.248   0.903   5.136  2.6338 -1.4515 -0.8898
  801MOL0     H 5714   5.101   1.385   5.095  1.3138  1.7673  1.8339
  801MOL0     H 5715   5.319   1.343   5.005  1.3867  2.6014 -0.7749
  801MOL0     H 5716   5.552   1.146   4.485  1.0348 -1.3944 -2.4806
  801MOL0     H 5717   5.745   1.172   4.363 -1.1451  0.0126  0.0170
  801MOL0     H 5718   7.128   1.187   3.986  0.5996  0.8398  0.7428
  801MOL0     H 5719   7.334   1.282   4.088  3.2956 -1.5417  1.3114
  801MOL0     H 5720   7.822   1.329   3.921  3.7599 -0.5275 -1.6526
  801MOL0     H 5721   8.059   1.312   4.005  0.6561  1.0528 -0.2222
  801MOL0     H 5722   8.163   1.465   4.405  1.1759 -0.2304  1.5076
  801MOL0     H 5723   8.174   1.611   4.308  0.4598  0.8860 -2.2888
  801MOL0     H 5724   8.396   1.533   4.211 -3.8167  2.0044 -0.9510
  801MOL0     H 5725   8.407   1.588   4.374 -0.2118  0.0432  0.3852
  801MOL0     H 5726   8.500   1.360   4.304 -0.6563 -2.2110 -0.0318
  801MOL0     H 5727   8.331   1.298   4.339 -3.6173  1.8970  1.3594
  801MOL0     H 5728   8.474   1.461   4.550  1.9137  1.2297 -4.8960
  801MOL0     H 5729   8.326   1.385   4.568  1.1314  1.2825  0.9495
  801MOL0     H 5730   8.564   1.044   4.602 -0.3636  0.8856  1.8534
  801MOL0     H 5731   7.925   1.513   4.369  3.1594 -1.3974  1.2141
  801MOL0     H 5732   7.704   1.488   4.307 -0.2801  1.0654 -0.2812
  802MOL0     O 5733   4.299   6.782   2.392 -0.5183 -0.3566  0.4571
  802MOL0     C 5734   4.390   6.700   2.392  0.1246  0.2392  0.0350
  802MOL0     O 5735   4.458   6.665   2.502 -0.6652 -0.2130  0.5218
  802MOL0     C 5736   4.427   6.708   2.628 -0.7206  0.3852 -1.1947
  802MOL0     C 5737   4.534   6.736   2.721  0.1936  0.4083  0.3369
  802MOL0     C 5738   4.500   6.757   2.851 -0.3690  0.5703 -0.0597
  802MOL0     C 5739   4.365   6.765   2.895 -0.7154  0.4400 -0.4844
  802MOL0     O 5740   4.329   6.807   3.021 -0.4761 -0.0980  0.9518
  802MOL0     C 5741   4.407   6.912   3.071 -0.3057  0.7123 -0.5840
  802MOL0     C 5742   4.358   7.056   3.051  0.1315  0.9487  0.4919
  802MOL0     C 5743   4.368   7.090   2.897 -0.0585 -0.1535 -0.1648
  802MOL0     C 5744   4.392   7.238   2.860 -0.0568  0.3231  0.8048
  802MOL0     C 5745   4.291   7.333   2.925  0.4982 -0.5640  0.0817
  802MOL0     C 5746   4.155   7.335   2.850  1.0994  0.0591  0.4259
  802MOL0     C 5747   4.059   7.420   2.924  0.4840 -0.4954  0.3522
  802MOL0     C 5748   3.928   7.421   2.843  0.2523 -0.2522 -0.7633
  802MOL0     N 5749   3.821   7.518   2.898 -0.2523 -0.8214 -0.3530
  802MOL0     C 5750   3.775   7.639   2.860  0.1195  0.2586 -0.2539
  802MOL0     C 5751   3.654   7.665   2.921 -0.1560  0.8702 -0.3571
  802MOL0     C 5752   3.568   7.786   2.903 -0.4262 -0.2408 -0.2974
  802MOL0     C 5753   3.445   7.779   3.009  0.7354  0.2401  0.2243
  802MOL0     C 5754   3.340   7.654   2.976 -0.1467 -0.5244  0.2193
  802MOL0     C 5755   3.213   7.662   3.054  0.4879  0.6666 -0.4007
  802MOL0     O 5756   3.252   7.633   3.185 -0.2640  0.0138 -0.0849
  802MOL0     C 5757   3.152   7.640   3.281 -0.3078 -0.3723  0.4133
  802MOL0     C 5758   3.021   7.617   3.253  0.6681 -0.2960  1.3601
  802MOL0     C 5759   2.921   7.645   3.350  0.5219 -0.1347 -0.0628
  802MOL0     C 5760   2.949   7.687   3.480 -0.2050 -0.4537  0.3760
  802MOL0     C 5761   2.840   7.721   3.572  0.7664  0.9095  0.6092
  802MOL0     O 5762   2.879   7.784   3.683 -0.1415 -0.3104 -0.2119
  802MOL0     C 5763   2.796   7.820   3.787  0.3092 -0.7938 -0.0066
  802MOL0     C 5764   2.673   7.757   3.835 -0.6214  0.3252  0.6017
  802MOL0     C 5765   2.607   7.801   3.947 -0.1126 -0.3993  0.2573
  802MOL0     C 5766   2.649   7.920   4.009 -0.5560  0.8302  0.8241
  802MOL0     O 5767   2.586   7.958   4.125  0.5265  0.4204  0.9787
  802MOL0     C 5768   2.552   8.091   4.148 -0.2326  0.2269 -0.2888
  802MOL0     C 5769   2.595   8.131   4.293  0.0597 -0.3495 -0.3939
  802MOL0     C 5770   2.751   8.137   4.332  0.5230 -0.5421 -0.6033
  802MOL0     C 5771   2.780   8.169   4.481  0.7375  0.5460 -0.0333
  802MOL0     C 5772   2.918   8.238   4.499  0.0284 -0.2636 -0.1991
  802MOL0     C 5773   3.021   8.122   4.489  0.0265 -0.3318  0.5559
  802MOL0     C 5774   3.162   8.175   4.509 -0.1421  0.1017  1.2151
  802MOL0     C 5775   3.258   8.057   4.511  0.3519 -0.1818 -0.4425
  802MOL0    Cl 5776   3.402   8.105   4.602 -0.6919 -0.0554  0.0790
  802MOL0     C 5777   2.757   7.987   3.961  0.0552 -0.3781 -0.7137
  802MOL0     C 5778   2.842   7.932   3.864  0.4139 -0.4776 -0.2898
  802MOL0     O 5779   2.721   7.692   3.535 -0.0897  0.0918 -0.1708
  802MOL0     C 5780   3.088   7.699   3.516 -0.1902 -0.8460  0.3804
  802MOL0     C 5781   3.186   7.680   3.412  0.0476 -0.8192  0.6092
  802MOL0     N 5782   3.633   7.554   3.007  0.5637  0.0780  0.1709
  802MOL0     N 5783   3.742   7.480   2.999  0.4101  0.4399 -1.2298
  802MOL0     C 5784   4.262   6.747   2.806 -0.0440 -0.3109 -0.9894
  802MOL0     C 5785   4.293   6.722   2.672  0.5484 -0.0472  0.5839
  802MOL0     C 5786   4.460   6.668   2.264  1.1286 -0.7039 -0.5083
  802MOL0     C 5787   4.542   6.566   2.264 -0.5899  0.6418  0.8556
  802MOL0     C 5788   4.627   6.530   2.162  0.0010  0.1745  0.0067
  802MOL0     C 5789   4.613   6.603   2.040 -0.2044  1.0185 -1.5673
  802MOL0     O 5790   4.689   6.585   1.923 -0.0103  0.2128 -0.6927
  802MOL0     C 5791   4.785   6.489   1.931 -0.3311 -0.4772  0.0212
  802MOL0     C 5792   4.867   6.477   1.804  0.6595 -0.3857  0.7188
  802MOL0     C 5793   4.986   6.562   1.808 -0.5979 -0.7769  0.5656
  802MOL0     C 5794   5.100   6.498   1.895  0.2188  0.0781 -0.1760
  802MOL0     C 5795   5.148   6.370   1.843  0.6388  1.2001 -0.8804
  802MOL0     C 5796   5.187   6.265   1.796  0.4456  0.4637 -0.6875
  802MOL0     C 5797   4.528   6.705   2.027 -0.7769 -0.6900  0.2084
  802MOL0     C 5798   4.448   6.745   2.140 -0.7325  0.0324  0.5319
  802MOL0     H 5799   4.635   6.727   2.684  0.4015 -0.9721  1.1634
  802MOL0     H 5800   4.576   6.754   2.928 -3.7024 -0.5182  3.5560
  802MOL0     H 5801   4.512   6.890   3.054 -0.2616  0.2298  0.2743
  802MOL0     H 5802   4.413   6.900   3.179  0.9292  0.1489 -0.7036
  802MOL0     H 5803   4.416   7.123   3.115 -0.2989  0.5695  1.2936
  802MOL0     H 5804   4.253   7.055   3.081  0.2517 -4.7263  1.8879
  802MOL0     H 5805   4.273   7.054   2.855 -0.0824 -1.3188  0.8008
  802MOL0     H 5806   4.435   7.021   2.844  2.0951 -1.0236  3.3664
  802MOL0     H 5807   4.491   7.271   2.894  0.0144  1.3776 -0.3440
  802MOL0     H 5808   4.387   7.251   2.752  1.5884  0.1426  0.6803
  802MOL0     H 5809   4.328   7.435   2.922 -1.8343  0.4405  2.2243
  802MOL0     H 5810   4.271   7.302   3.028 -0.1549  1.4695  0.5951
  802MOL0     H 5811   4.109   7.236   2.843 -0.2237  0.6873  0.0340
  802MOL0     H 5812   4.181   7.371   2.750  0.5582 -1.4945 -0.3065
  802MOL0     H 5813   4.051   7.364   3.018  0.3352  1.3800  1.4961
  802MOL0     H 5814   4.112   7.515   2.934 -0.2803  0.0351 -0.5282
  802MOL0     H 5815   3.887   7.321   2.827 -1.0598  0.7413 -4.6273
  802MOL0     H 5816   3.956   7.458   2.744  2.8111 -0.8420 -0.3508
  802MOL0     H 5817   3.826   7.696   2.783  0.0593  0.0672 -0.4378
  802MOL0     H 5818   3.539   7.791   2.797 -2.2832 -0.9855  0.1297
  802MOL0     H 5819   3.637   7.869   2.918  0.7066 -1.3948  1.2111
  802MOL0     H 5820   3.396   7.877   3.005  3.5729  1.9040  2.3809
  802MOL0     H 5821   3.477   7.765   3.112 -0.4051 -1.7742  0.3551
  802MOL0     H 5822   3.311   7.683   2.874  0.7024 -1.9163 -0.4412
  802MOL0     H 5823   3.377   7.551   2.982 -0.2718 -0.7253 -1.7547
  802MOL0     H 5824   3.155   7.579   3.011  1.3501 -0.1755  0.0059
  802MOL0     H 5825   3.162   7.758   3.043  2.3933  1.7372 -0.4417
  802MOL0     H 5826   2.973   7.581   3.162  2.3147 -0.9940  0.7215
  802MOL0     H 5827   2.816   7.633   3.326  1.0339 -2.2566 -1.5256
  802MOL0     H 5828   2.622   7.685   3.773  1.2032  1.4320 -2.4474
  802MOL0     H 5829   2.511   7.766   3.982 -0.4600  2.0959  2.1112
  802MOL0     H 5830   2.446   8.102   4.127 -0.2458  0.3063 -0.1822
  802MOL0     H 5831   2.597   8.160   4.075 -2.0383  2.1257  0.2973
  802MOL0     H 5832   2.556   8.059   4.366  3.3294 -0.9593  0.9041
  802MOL0     H 5833   2.536   8.221   4.312 -2.3042 -2.1751  1.7966
  802MOL0     H 5834   2.793   8.213   4.265  2.9715 -1.4929 -0.2645
  802MOL0     H 5835   2.787   8.036   4.308  1.3095 -1.1966  2.7756
  802MOL0     H 5836   2.707   8.241   4.521  0.9899  0.0192  1.4406
  802MOL0     H 5837   2.760   8.072   4.529  0.1169  1.1135  0.9073
  802MOL0     H 5838   2.928   8.290   4.595  0.3912  1.0572 -0.9223
  802MOL0     H 5839   2.937   8.310   4.419 -1.5388 -1.9111 -2.1362
  802MOL0     H 5840   3.019   8.065   4.396  1.3534  1.1442 -0.4211
  802MOL0     H 5841   2.997   8.051   4.569 -0.1596  1.3404  2.0612
  802MOL0     H 5842   3.193   8.236   4.423 -0.2974  0.3481  1.3338
  802MOL0     H 5843   3.173   8.245   4.592  2.7279  3.8908 -1.9949
  802MOL0     H 5844   3.284   8.015   4.413  2.0093 -4.8678  1.7154
  802MOL0     H 5845   3.213   7.972   4.564 -0.6462 -0.6157 -1.8862
  802MOL0     H 5846   2.782   8.076   4.019 -0.8113 -0.8872  0.4997
  802MOL0     H 5847   2.920   7.997   3.825 -2.7511  4.3958  0.6325
  802MOL0     H 5848   3.112   7.731   3.617  1.6145 -2.8880  0.6714
  802MOL0     H 5849   3.288   7.696   3.444  0.9562 -1.4264 -1.8123
  802MOL0     H 5850   4.158   6.756   2.834 -0.7300 -3.2901 -2.1816
  802MOL0     H 5851   4.211   6.709   2.603  2.3531  1.5574 -2.0414
  802MOL0     H 5852   4.548   6.513   2.359 -1.0225  1.8060  1.5511
  802MOL0     H 5853   4.702   6.451   2.168 -0.3960 -0.4014 -1.8890
  802MOL0     H 5854   4.742   6.391   1.951  0.8954 -1.6905 -2.7428
  802MOL0     H 5855   4.852   6.514   2.013 -1.2375 -0.7083  0.8448
  802MOL0     H 5856   4.889   6.371   1.788  0.2324 -0.3574 -0.1386
  802MOL0     H 5857   4.814   6.500   1.711  2.2606 -3.5636 -1.1890
  802MOL0     H 5858   4.963   6.667   1.829  0.7039 -0.1113 -1.1566
  802MOL0     H 5859   5.018   6.569   1.704  0.4075 -0.4112  0.8880
  802MOL0     H 5860   5.188   6.563   1.895 -0.9080  1.6714 -0.1174
  802MOL0     H 5861   5.065   6.492   1.999  0.2892 -0.6674 -0.1849
  802MOL0     H 5862   5.225   6.196   1.723  3.3038  0.2957  0.7876
  802MOL0     H 5863   4.522   6.756   1.931  0.2524 -1.6433 -0.3806
  802MOL0     H 5864   4.388   6.833   2.125 -0.1630  0.0382 -2.3026
  803MOL0     O 5865   8.078   2.483   7.591  0.1167  0.4162 -0.2878
  803MOL0     C 5866   8.042   2.601   7.561 -0.1380 -0.5215 -0.5127
  803MOL0     O 5867   8.117   2.685   7.489  0.1871 -0.9143  0.8592
  803MOL0     C 5868   8.237   2.652   7.429  0.6525 -0.4421 -0.5638
  803MOL0     C 5869   8.335   2.587   7.509  0.1245 -0.4778 -0.2573
  803MOL0     C 5870   8.454   2.566   7.442 -0.4836  0.4851 -0.1545
  803MOL0     C 5871   8.487   2.599   7.313 -0.3386 -0.3197  0.6520
  803MOL0     O 5872   8.622   2.578   7.268 -0.1153 -0.3093  0.4274
  803MOL0     C 5873   8.718   2.677   7.320 -0.5252 -0.2284 -0.7050
  803MOL0     C 5874   8.843   2.660   7.246  0.7229  0.0818 -0.3304
  803MOL0     C 5875   8.911   2.523   7.282  0.4637  1.0971 -0.8292
  803MOL0     C 5876   9.044   2.510   7.213  0.4757  0.1936 -0.8051
  803MOL0     C 5877   9.157   2.565   7.295  0.1682 -1.3916  0.0542
  803MOL0     C 5878   9.291   2.590   7.219  0.2711 -0.5148  0.0491
  803MOL0     C 5879   9.392   2.485   7.215  0.5848  0.8380  0.2519
  803MOL0     C 5880   9.436   2.444   7.354  0.2212 -0.5885  0.5820
  803MOL0     N 5881   9.576   2.420   7.357 -0.1000  0.2983  0.8095
  803MOL0     C 5882   9.659   2.506   7.424 -0.2250 -0.2026 -0.6353
  803MOL0     C 5883   9.783   2.442   7.415 -0.0879 -0.8861  0.3325
  803MOL0     C 5884   9.917   2.498   7.452  0.1743  0.3544  0.9993
  803MOL0     C 5885   9.923   2.648   7.492  0.6021 -0.5854 -0.5944
  803MOL0     C 5886   9.907   2.740   7.381 -0.4353 -0.6830  0.4507
  803MOL0     C 5887   9.916   2.887   7.413 -0.0342 -0.1322  0.2426
  803MOL0     O 5888   9.825   2.936   7.521 -0.0921 -0.1217  0.3192
  803MOL0     C 5889   9.688   2.938   7.503  0.4535  0.5846  0.2513
  803MOL0     C 5890   9.604   2.933   7.620 -0.9575  0.0192 -0.6282
  803MOL0     C 5891   9.463   2.940   7.607  0.0680 -0.6553  0.1285
  803MOL0     C 5892   9.398   2.932   7.485  0.3207 -0.4773  0.0424
  803MOL0     C 5893   9.246   2.938   7.482  0.5168 -0.3632 -0.3245
  803MOL0     O 5894   9.166   2.942   7.601  0.1437  0.6063 -0.2159
  803MOL0     C 5895   9.026   2.932   7.586 -0.1508  0.1886 -0.1124
  803MOL0     C 5896   8.953   2.997   7.488  0.6224 -0.0464  0.1892
  803MOL0     C 5897   8.816   3.000   7.492  0.3489 -0.2224 -0.1216
  803MOL0     C 5898   8.743   2.945   7.595 -0.1963  0.0811 -0.7148
  803MOL0     O 5899   8.601   2.952   7.611 -0.3122 -0.9120 -0.3459
  803MOL0     C 5900   8.516   2.978   7.498  0.2260  0.5292  0.0275
  803MOL0     C 5901   8.364   2.969   7.525  0.1718  0.0891  0.2597
  803MOL0     C 5902   8.301   3.093   7.603 -0.1583  0.0604  0.3197
  803MOL0     C 5903   8.144   3.081   7.571  0.5247 -0.0942 -0.4924
  803MOL0     C 5904   8.065   3.182   7.670  0.0486 -0.5451 -0.2536
  803MOL0     C 5905   7.917   3.170   7.655 -0.4956  0.2939  0.1497
  803MOL0     C 5906   7.851   3.227   7.774 -0.3573  0.1111 -0.0656
  803MOL0     C 5907   7.712   3.190   7.780  0.6978 -0.1600 -0.5111
  803MOL0    Cl 5908   7.652   3.251   7.939 -0.1401 -0.0549 -0.6252
  803MOL0     C 5909   8.817   2.875   7.698  0.2688  0.5082 -0.1199
  803MOL0     C 5910   8.957   2.861   7.687 -0.3428 -0.6157  0.4388
  803MOL0     O 5911   9.201   2.915   7.367 -0.7777 -0.0623  0.4194
  803MOL0     C 5912   9.474   2.916   7.374 -0.8979  1.0698 -0.4749
  803MOL0     C 5913   9.619   2.930   7.391 -0.2556 -0.0249  0.6022
  803MOL0     N 5914   9.768   2.325   7.339  0.0389  0.1472  0.7393
  803MOL0     N 5915   9.644   2.311   7.308  0.2563 -0.0879 -0.2842
  803MOL0     C 5916   8.387   2.669   7.244  0.2463  0.8284  0.2604
  803MOL0     C 5917   8.264   2.689   7.295  0.6639 -0.4677  0.0786
  803MOL0     C 5918   7.911   2.650   7.614  0.2684  0.0542  0.2345
  803MOL0     C 5919   7.842   2.578   7.708  0.0503  0.1016  0.0689
  803MOL0     C 5920   7.721   2.630   7.756 -0.3566 -0.6101 -0.7405
  803MOL0     C 5921   7.669   2.748   7.716  0.4328 -0.1368  0.2834
  803MOL0     O 5922   7.544   2.792   7.753  0.6539  0.3323 -1.1101
  803MOL0     C 5923   7.489   2.730   7.867  0.2486  0.1584  0.6938
  803MOL0     C 5924   7.355   2.785   7.891 -1.0848 -0.6700 -1.2559
  803MOL0     C 5925   7.281   2.703   8.004 -1.1819 -0.0828  0.5264
  803MOL0     C 5926   7.342   2.715   8.138 -1.6652  0.2104  0.0436
  803MOL0     C 5927   7.269   2.650   8.245  1.0194 -1.1649 -0.3965
  803MOL0     C 5928   7.198   2.601   8.328  0.4971 -0.7690 -0.3918
  803MOL0     C 5929   7.741   2.834   7.623  0.4772 -0.1662  0.4870
  803MOL0     C 5930   7.860   2.778   7.570 -0.0852 -0.2306 -0.4620
  803MOL0     H 5931   8.322   2.562   7.614  0.4929  0.4438  0.0147
  803MOL0     H 5932   8.534   2.521   7.499 -3.0573 -2.0066  1.7999
  803MOL0     H 5933   8.731   2.671   7.428 -0.9857  0.4824 -0.6064
  803MOL0     H 5934   8.695   2.777   7.281  2.1332  1.3696  1.4764
  803MOL0     H 5935   8.905   2.749   7.263  2.3389 -1.3582  1.7216
  803MOL0     H 5936   8.816   2.656   7.140 -0.3698 -1.1904 -0.0254
  803MOL0     H 5937   8.855   2.432   7.259  0.2997  0.6188  1.2151
  803MOL0     H 5938   8.930   2.506   7.389  0.1427 -1.6440 -1.1309
  803MOL0     H 5939   9.067   2.405   7.191 -3.5836 -0.2135 -4.6533
  803MOL0     H 5940   9.038   2.552   7.112  0.6043  0.6754 -0.6116
  803MOL0     H 5941   9.176   2.503   7.384  4.4552  0.5812  0.7833
  803MOL0     H 5942   9.130   2.667   7.324 -0.6748 -1.3131 -0.9667
  803MOL0     H 5943   9.340   2.667   7.278 -2.3361  0.2690  1.3620
  803MOL0     H 5944   9.267   2.633   7.122 -1.6716  1.3894  1.2840
  803MOL0     H 5945   9.343   2.397   7.172 -0.5644  1.9692 -0.8068
  803MOL0     H 5946   9.475   2.506   7.147  0.2621  2.0300  0.2147
  803MOL0     H 5947   9.386   2.348   7.367 -0.4903 -0.4181 -0.7056
  803MOL0     H 5948   9.402   2.517   7.428 -0.2583  1.7220 -1.7812
  803MOL0     H 5949   9.626   2.597   7.474 -0.0698  1.2233 -3.0111
  803MOL0     H 5950   9.987   2.483   7.370  0.5040  1.5385  1.0513
  803MOL0     H 5951   9.954   2.435   7.534 -0.8993 -1.0469  0.4345
  803MOL0     H 5952  10.017   2.658   7.547  0.0834 -0.2690  0.2585
  803MOL0     H 5953   9.842   2.674   7.561  1.9855  1.8780  0.2350
  803MOL0     H 5954   9.978   2.715   7.301 -3.7849 -0.7541 -2.7757
  803MOL0     H 5955   9.814   2.740   7.324 -0.8219 -0.2983  1.0792
  803MOL0     H 5956   9.906   2.943   7.320  2.2828  2.2827  1.3294
  803MOL0     H 5957  10.017   2.910   7.448 -0.0882  0.6906 -0.1284
  803MOL0     H 5958   9.649   2.925   7.719 -1.7052 -1.2768 -0.3660
  803MOL0     H 5959   9.406   2.954   7.699  0.5875  0.4200  0.2940
  803MOL0     H 5960   8.999   3.049   7.405  0.0204  0.2931  0.0639
  803MOL0     H 5961   8.759   3.045   7.411  2.1734 -0.4924 -1.6037
  803MOL0     H 5962   8.543   2.897   7.429  0.5189 -2.2473  3.1650
  803MOL0     H 5963   8.545   3.075   7.455  0.6414 -0.8868 -3.2332
  803MOL0     H 5964   8.335   2.878   7.578 -2.4515 -0.0445 -1.2019
  803MOL0     H 5965   8.309   2.979   7.431  1.5167  5.1486 -0.3286
  803MOL0     H 5966   8.350   3.182   7.562  0.7057 -0.7411 -0.4474
  803MOL0     H 5967   8.314   3.096   7.711 -1.5408  1.6053  0.4867
  803MOL0     H 5968   8.123   3.122   7.472 -1.3404  2.2783  0.7973
  803MOL0     H 5969   8.109   2.978   7.582  0.8866 -0.1977 -0.3131
  803MOL0     H 5970   8.092   3.287   7.655 -0.6581 -0.3227 -0.0274
  803MOL0     H 5971   8.096   3.165   7.774  0.8973  2.9586  0.1936
  803MOL0     H 5972   7.886   3.065   7.647 -0.6449  0.4088 -0.9198
  803MOL0     H 5973   7.875   3.226   7.571 -1.0432  0.2730  0.4054
  803MOL0     H 5974   7.896   3.184   7.864  0.2830  0.9849  0.0404
  803MOL0     H 5975   7.875   3.333   7.763  2.2420 -0.3003  0.8432
  803MOL0     H 5976   7.693   3.083   7.773 -1.8395  0.0197  2.2469
  803MOL0     H 5977   7.655   3.217   7.690  2.0503  0.3629 -1.2529
  803MOL0     H 5978   8.760   2.834   7.781  2.1578  0.0044  1.0097
  803MOL0     H 5979   9.020   2.817   7.764 -0.9100 -1.5550  0.3875
  803MOL0     H 5980   9.427   2.912   7.276 -1.0791 -0.4922 -0.3443
  803MOL0     H 5981   9.670   2.925   7.295  0.2707 -0.8424  0.9111
  803MOL0     H 5982   8.420   2.704   7.147  1.1489 -2.0407 -0.5588
  803MOL0     H 5983   8.199   2.744   7.227  0.8829 -1.9901 -1.4338
  803MOL0     H 5984   7.881   2.481   7.738 -0.0433 -0.5259 -1.7007
  803MOL0     H 5985   7.683   2.557   7.827  1.9690 -4.1001 -2.7729
  803MOL0     H 5986   7.546   2.764   7.954  0.7734  2.5856 -0.5054
  803MOL0     H 5987   7.486   2.623   7.845  2.3709  0.3022 -0.4775
  803MOL0     H 5988   7.366   2.889   7.921 -2.2521 -0.4065 -1.6634
  803MOL0     H 5989   7.302   2.804   7.797  3.1127  2.6426 -3.2784
  803MOL0     H 5990   7.288   2.595   7.987 -0.7218 -0.1586  1.1617
  803MOL0     H 5991   7.180   2.745   8.008 -1.6163 -1.1628  1.6473
  803MOL0     H 5992   7.441   2.667   8.139  0.0582  3.4549  0.6737
  803MOL0     H 5993   7.352   2.819   8.171 -2.0802  0.1880  0.2451
  803MOL0     H 5994   7.129   2.580   8.407  1.3934  1.0158  0.9390
  803MOL0     H 5995   7.696   2.929   7.601 -0.2467 -0.6759 -0.2676
  803MOL0     H 5996   7.917   2.834   7.497 -0.3313 -0.3107 -0.7201
  804MOL0     O 5997   2.708   3.952   3.374  0.2098  0.0483  0.2406
  804MOL0     C 5998   2.686   3.917   3.261 -0.1031 -0.2868  0.7251
  804MOL0     O 5999   2.557   3.910   3.201  0.5698  0.3299 -0.4924
  804MOL0     C 6000   2.448   3.978   3.266  0.5236  0.7403 -0.5593
  804MOL0     C 6001   2.311   3.944   3.227  0.0519  0.1022 -1.1416
  804MOL0     C 6002   2.193   4.012   3.275  0.7400 -0.7147 -0.2504
  804MOL0     C 6003   2.209   4.117   3.367  1.0603 -0.1954  0.6491
  804MOL0     O 6004   2.114   4.199   3.424  0.4969 -0.4881  0.4510
  804MOL0     C 6005   1.980   4.225   3.360  0.2498 -0.6980  0.4297
  804MOL0     C 6006   1.871   4.291   3.459 -0.4732  1.1131  0.1630
  804MOL0     C 6007   1.742   4.317   3.381 -0.1806  0.5414  0.8861
  804MOL0     C 6008   1.621   4.360   3.463  0.2206 -0.0704 -0.5581
  804MOL0     C 6009   1.489   4.352   3.390 -0.5772 -1.2045  1.0183
  804MOL0     C 6010   1.376   4.396   3.477 -0.0664  0.1272  0.7276
  804MOL0     C 6011   1.241   4.381   3.409  0.0216 -1.6146  0.0054
  804MOL0     C 6012   1.134   4.432   3.503 -0.2422  0.0488 -0.6198
  804MOL0     N 6013   1.005   4.426   3.451  0.1406 -0.0696  0.7228
  804MOL0     C 6014   0.916   4.314   3.470 -0.8596 -0.0877 -0.2722
  804MOL0     C 6015   0.844   4.311   3.356 -0.0661 -0.2613  0.0578
  804MOL0     C 6016   0.746   4.206   3.326  1.1596 -1.1626 -0.1003
  804MOL0     C 6017   0.745   4.144   3.178  0.2332  0.3559  0.2658
  804MOL0     C 6018   0.857   4.194   3.087  0.2510 -0.4722 -0.3924
  804MOL0     C 6019   0.865   4.118   2.962  0.3194 -0.5385  1.0487
  804MOL0     O 6020   0.959   4.175   2.860  0.0054  0.7425 -0.4103
  804MOL0     C 6021   1.023   4.095   2.768  0.3986  1.4226 -0.4967
  804MOL0     C 6022   1.137   4.132   2.700  0.4056  0.0972 -1.2901
  804MOL0     C 6023   1.193   4.063   2.593 -0.2440 -0.3106 -0.1656
  804MOL0     C 6024   1.140   3.940   2.564  0.5908  0.4709  0.8262
  804MOL0     C 6025   1.203   3.865   2.445 -0.5772  0.5197 -0.9708
  804MOL0     O 6026   1.128   3.771   2.374  1.0429 -0.3141  0.6446
  804MOL0     C 6027   1.199   3.692   2.287  0.3522 -0.1729  0.2424
  804MOL0     C 6028   1.328   3.636   2.307  0.4831 -0.3125  0.3315
  804MOL0     C 6029   1.391   3.566   2.198 -0.6695  0.2060 -0.2974
  804MOL0     C 6030   1.336   3.550   2.071 -0.3540  0.3691  0.0275
  804MOL0     O 6031   1.416   3.480   1.986  0.0806  0.3901 -0.0375
  804MOL0     C 6032   1.358   3.431   1.864  0.0918 -0.3644  0.1809
  804MOL0     C 6033   1.373   3.523   1.747  0.2147 -0.3379  0.0333
  804MOL0     C 6034   1.345   3.460   1.601  0.4178 -0.0115  0.4965
  804MOL0     C 6035   1.452   3.349   1.559  0.7888  0.8146  0.6201
  804MOL0     C 6036   1.596   3.386   1.550 -0.7659  0.1353  0.5414
  804MOL0     C 6037   1.686   3.261   1.530 -0.2130  0.5921 -0.3153
  804MOL0     C 6038   1.645   3.152   1.426 -0.4211 -0.4237 -0.1279
  804MOL0     C 6039   1.711   3.016   1.450  1.2253 -0.3844  0.3876
  804MOL0    Cl 6040   1.645   2.895   1.320 -0.2685 -0.5984  0.5781
  804MOL0     C 6041   1.199   3.594   2.060 -0.0871 -0.0937  0.0467
  804MOL0     C 6042   1.138   3.665   2.161 -0.0264 -0.0997 -0.7964
  804MOL0     O 6043   1.319   3.904   2.415 -0.6031  0.3829  0.4009
  804MOL0     C 6044   1.026   3.893   2.632 -0.1630  0.4233 -0.7878
  804MOL0     C 6045   0.971   3.970   2.735  0.6564 -0.5792 -1.1728
  804MOL0     N 6046   0.865   4.430   3.287  0.6385  0.6949 -0.2350
  804MOL0     N 6047   0.962   4.496   3.337 -0.6038 -0.0430  0.5661
  804MOL0     C 6048   2.339   4.155   3.398 -1.5210  0.8678  0.5366
  804MOL0     C 6049   2.460   4.090   3.346  1.0225  0.6481 -0.0870
  804MOL0     C 6050   2.806   3.857   3.192 -1.1988  0.1692  1.1057
  804MOL0     C 6051   2.838   3.895   3.065 -0.3630 -0.6275 -0.9052
  804MOL0     C 6052   2.951   3.838   3.002  0.8665  0.7278  0.6100
  804MOL0     C 6053   3.030   3.741   3.060  0.0034  0.0812 -0.3338
  804MOL0     O 6054   3.144   3.665   3.014  0.0783  0.3467 -0.4381
  804MOL0     C 6055   3.169   3.674   2.874  0.5608 -0.0974  0.3783
  804MOL0     C 6056   3.298   3.601   2.831 -0.6594  0.7587  0.1074
  804MOL0     C 6057   3.300   3.450   2.820 -0.3183 -0.2375 -0.2365
  804MOL0     C 6058   3.248   3.404   2.683 -0.2540  1.7383 -0.1309
  804MOL0     C 6059   3.216   3.259   2.677  0.4671  0.5763  0.2229
  804MOL0     C 6060   3.190   3.144   2.682  0.7209  0.5379 -0.2375
  804MOL0     C 6061   2.999   3.714   3.195  0.2296  0.3330  0.9402
  804MOL0     C 6062   2.888   3.764   3.260 -0.0521 -0.4783  0.1831
  804MOL0     H 6063   2.297   3.855   3.166  1.0396  0.3778 -1.7959
  804MOL0     H 6064   2.090   3.991   3.247  1.2809 -0.8996 -2.1905
  804MOL0     H 6065   1.945   4.136   3.307  0.1281 -1.2779  1.4610
  804MOL0     H 6066   1.990   4.298   3.280 -1.6184  0.2524  1.0097
  804MOL0     H 6067   1.908   4.380   3.512  0.4427 -0.3916  2.1807
  804MOL0     H 6068   1.855   4.220   3.541 -2.7189  1.3049 -0.0412
  804MOL0     H 6069   1.718   4.224   3.330  2.2731 -0.6001  1.6690
  804MOL0     H 6070   1.775   4.392   3.309 -1.7928 -0.9841 -1.5720
  804MOL0     H 6071   1.593   4.284   3.537 -0.3687 -3.0167 -3.5466
  804MOL0     H 6072   1.660   4.446   3.517 -1.9532  2.3283 -2.5751
  804MOL0     H 6073   1.469   4.254   3.346  1.2533 -1.4077  0.5534
  804MOL0     H 6074   1.489   4.420   3.305  0.6047  1.5385  3.0712
  804MOL0     H 6075   1.396   4.500   3.505 -0.2341  0.4264 -0.2416
  804MOL0     H 6076   1.371   4.338   3.570 -2.0953  0.9026  1.1643
  804MOL0     H 6077   1.244   4.434   3.313 -1.4527  0.5542  1.0807
  804MOL0     H 6078   1.220   4.274   3.395 -2.4735 -1.5870  2.6463
  804MOL0     H 6079   1.144   4.538   3.530 -2.2545 -0.0496  0.7537
  804MOL0     H 6080   1.149   4.378   3.597 -0.2951 -0.0412 -0.6628
  804MOL0     H 6081   0.924   4.240   3.550 -0.5378 -0.1657 -0.3732
  804MOL0     H 6082   0.644   4.236   3.350  1.5005  0.0517 -0.0720
  804MOL0     H 6083   0.777   4.124   3.391  4.1563  0.5946  0.9124
  804MOL0     H 6084   0.659   4.176   3.119  1.1619 -3.7496 -3.8509
  804MOL0     H 6085   0.758   4.036   3.182  1.8231  0.5230  0.5178
  804MOL0     H 6086   0.841   4.299   3.063 -0.3042 -0.4741 -0.0503
  804MOL0     H 6087   0.953   4.190   3.139  0.0497 -1.6563 -0.0815
  804MOL0     H 6088   0.769   4.116   2.909 -0.7966 -3.5803  2.9179
  804MOL0     H 6089   0.899   4.016   2.979  3.2141 -0.8194 -4.3915
  804MOL0     H 6090   1.171   4.233   2.717 -2.3538  0.7497  1.2135
  804MOL0     H 6091   1.269   4.110   2.531 -0.6448  0.1178 -0.3386
  804MOL0     H 6092   1.380   3.638   2.402  0.2512  1.0704  0.4617
  804MOL0     H 6093   1.481   3.506   2.206 -0.9424  0.0489  3.7280
  804MOL0     H 6094   1.256   3.396   1.883  0.5070 -3.6178 -2.5703
  804MOL0     H 6095   1.420   3.343   1.844  2.4585  0.4567  3.2505
  804MOL0     H 6096   1.474   3.566   1.753 -0.5478  1.3477  2.7296
  804MOL0     H 6097   1.290   3.594   1.753 -1.6352 -2.4270  0.4173
  804MOL0     H 6098   1.342   3.541   1.528 -2.4442  0.6501  1.2120
  804MOL0     H 6099   1.249   3.407   1.592 -0.1175  1.3141 -3.2607
  804MOL0     H 6100   1.443   3.267   1.632 -0.7242  0.5920  0.2269
  804MOL0     H 6101   1.417   3.310   1.463 -0.3099  0.0891  1.2786
  804MOL0     H 6102   1.633   3.442   1.636 -0.1187  1.4429 -0.5462
  804MOL0     H 6103   1.620   3.446   1.462  1.1413 -1.6240 -0.2042
  804MOL0     H 6104   1.704   3.214   1.627  1.3388 -0.1241 -0.9177
  804MOL0     H 6105   1.783   3.291   1.491  0.0355 -1.3588 -1.3150
  804MOL0     H 6106   1.536   3.140   1.422 -0.4548 -0.2366  0.2203
  804MOL0     H 6107   1.682   3.191   1.331  0.9820 -0.8164  0.2284
  804MOL0     H 6108   1.686   2.973   1.548 -1.7833 -0.6300 -0.3695
  804MOL0     H 6109   1.819   3.020   1.438  1.4795 -3.4972  0.8001
  804MOL0     H 6110   1.154   3.588   1.962 -1.0331 -1.0197  0.5172
  804MOL0     H 6111   1.039   3.709   2.154  0.2749  0.7639  0.0453
  804MOL0     H 6112   0.977   3.801   2.600  1.6060 -0.5882 -0.7316
  804MOL0     H 6113   0.883   3.939   2.790  0.6638  0.6933 -0.4126
  804MOL0     H 6114   2.353   4.238   3.467  0.7789  2.1635 -1.3292
  804MOL0     H 6115   2.559   4.127   3.372  0.8385  0.1702  1.3806
  804MOL0     H 6116   2.767   3.964   3.021  0.5138  1.0062  0.1246
  804MOL0     H 6117   2.964   3.883   2.904 -1.0497 -0.9065 -0.4667
  804MOL0     H 6118   3.172   3.782   2.854  0.9773  0.2742  2.2821
  804MOL0     H 6119   3.075   3.635   2.833 -0.7348  0.0625  2.9948
  804MOL0     H 6120   3.334   3.652   2.741 -0.3710 -0.7722 -0.6654
  804MOL0     H 6121   3.370   3.627   2.910 -1.0000  1.4496  0.1990
  804MOL0     H 6122   3.244   3.405   2.903  1.6634  2.0615  2.5281
  804MOL0     H 6123   3.405   3.422   2.830 -0.3878 -1.1981 -1.7874
  804MOL0     H 6124   3.164   3.470   2.657 -2.8655 -1.6581 -1.0377
  804MOL0     H 6125   3.331   3.416   2.613 -1.0470 -1.9495 -1.9330
  804MOL0     H 6126   3.167   3.040   2.683 -0.2381  0.6637 -2.7222
  804MOL0     H 6127   3.057   3.637   3.244 -0.0738 -0.3635  0.2303
  804MOL0     H 6128   2.875   3.746   3.366  1.4676 -1.0041  0.2994
  805MOL0     O 6129  10.357   9.477   6.035  0.1233 -0.7395  0.0042
  805MOL0     C 6130  10.448   9.395   6.051  0.0769 -0.5870  0.2619
  805MOL0     O 6131  10.430   9.258   6.047 -0.4145  0.0160  0.0952
  805MOL0     C 6132  10.314   9.217   6.010  0.5558  0.4104  0.6663
  805MOL0     C 6133  10.230   9.153   6.112  0.8222  0.2084  0.0738
  805MOL0     C 6134  10.100   9.103   6.080  0.2084 -0.0430 -0.0077
  805MOL0     C 6135  10.057   9.121   5.948 -1.1897  0.2923 -0.0549
  805MOL0     O 6136   9.938   9.077   5.905 -1.1227  0.1071  0.0560
  805MOL0     C 6137   9.880   8.951   5.956 -0.7191 -0.2261  1.0855
  805MOL0     C 6138   9.727   8.930   5.954 -0.0313 -0.2739  0.9865
  805MOL0     C 6139   9.703   8.823   6.060 -0.1005 -0.4224  0.4803
  805MOL0     C 6140   9.546   8.806   6.082  0.0584 -0.6682 -0.0253
  805MOL0     C 6141   9.473   8.758   5.951 -0.0364 -0.4889  0.0096
  805MOL0     C 6142   9.327   8.734   5.975 -0.2529  0.6646 -0.9014
  805MOL0     C 6143   9.236   8.715   5.852  0.5736  0.1845  0.2481
  805MOL0     C 6144   9.295   8.627   5.749  0.4077  0.2100 -0.0849
  805MOL0     N 6145   9.189   8.580   5.659 -0.6878 -0.3883  0.6164
  805MOL0     C 6146   9.122   8.469   5.686  0.9390  0.0237 -0.1548
  805MOL0     C 6147   9.043   8.452   5.584  0.2832  0.4561 -0.6057
  805MOL0     C 6148   8.932   8.349   5.568 -0.5721 -0.1862 -0.0416
  805MOL0     C 6149   8.830   8.368   5.676 -0.5719 -0.0630  0.7136
  805MOL0     C 6150   8.693   8.305   5.641 -0.3737  0.0032 -0.9428
  805MOL0     C 6151   8.707   8.147   5.629  0.6311  0.2797 -0.0249
  805MOL0     O 6152   8.705   8.076   5.757  0.1479  0.7097 -0.3709
  805MOL0     C 6153   8.584   8.062   5.823  0.8122  0.1438 -0.7527
  805MOL0     C 6154   8.457   8.074   5.773 -0.1764 -0.3113  0.2239
  805MOL0     C 6155   8.338   8.051   5.860  0.8480 -0.3351  0.0901
  805MOL0     C 6156   8.349   8.017   5.995  0.1632  0.2022 -0.1675
  805MOL0     C 6157   8.219   8.010   6.072  0.1242  0.3681 -0.4238
  805MOL0     O 6158   8.105   8.051   6.008  0.0869 -0.3841 -0.6636
  805MOL0     C 6159   7.983   8.024   6.061 -0.1167  0.4663 -0.1315
  805MOL0     C 6160   7.884   8.128   6.074 -0.3030 -0.8825  0.2957
  805MOL0     C 6161   7.758   8.088   6.124 -0.0049 -0.5100  0.4512
  805MOL0     C 6162   7.724   7.963   6.168 -1.7513  0.2451 -0.4534
  805MOL0     O 6163   7.604   7.930   6.226  0.3508  0.0867  0.1697
  805MOL0     C 6164   7.534   8.040   6.284 -0.4352  0.0664 -0.0027
  805MOL0     C 6165   7.422   7.984   6.367  0.3896  0.0956  0.7849
  805MOL0     C 6166   7.464   7.897   6.485  0.5340  0.0728  0.0350
  805MOL0     C 6167   7.340   7.889   6.566  0.2677 -0.1198 -0.5097
  805MOL0     C 6168   7.342   7.785   6.678  0.1541 -1.0249 -0.5163
  805MOL0     C 6169   7.421   7.826   6.796  0.0280 -0.2391 -0.0783
  805MOL0     C 6170   7.439   7.717   6.900  0.0670 -0.4233 -0.0609
  805MOL0     C 6171   7.529   7.768   7.009 -1.4454 -0.6796  0.3082
  805MOL0    Cl 6172   7.682   7.676   7.011 -0.5804 -0.2352  0.5218
  805MOL0     C 6173   7.814   7.859   6.147  0.0211  0.2996  0.5592
  805MOL0     C 6174   7.939   7.890   6.087  0.0925 -0.6569 -0.5463
  805MOL0     O 6175   8.222   7.972   6.188  0.0845 -0.1429 -0.0452
  805MOL0     C 6176   8.485   7.997   6.040 -0.7619  0.2763  1.2097
  805MOL0     C 6177   8.594   8.020   5.953  0.9413 -0.0659 -0.4078
  805MOL0     N 6178   9.066   8.548   5.494  0.8855  0.5204 -0.0973
  805MOL0     N 6179   9.147   8.631   5.541  0.2648  0.0735  0.3419
  805MOL0     C 6180  10.135   9.192   5.853 -0.3147  0.4325  0.1426
  805MOL0     C 6181  10.266   9.226   5.876 -0.2441 -0.1500 -0.5660
  805MOL0     C 6182  10.588   9.445   6.061 -0.4063 -0.0381  0.7010
  805MOL0     C 6183  10.702   9.361   6.047 -0.1893 -0.5552  0.4658
  805MOL0     C 6184  10.828   9.406   6.065 -0.7546 -0.6947  0.0680
  805MOL0     C 6185  10.841   9.541   6.110 -0.1240 -0.2278 -0.6761
  805MOL0     O 6186  10.962   9.584   6.157  0.6297  0.3323 -0.5012
  805MOL0     C 6187  11.078   9.568   6.083 -0.3843  0.1691 -0.5051
  805MOL0     C 6188  11.091   9.669   5.970  0.1049  0.8077  0.0460
  805MOL0     C 6189  11.122   9.807   6.025 -0.5829 -0.5025 -0.3658
  805MOL0     C 6190  11.139   9.911   5.926 -0.0153  0.3458 -0.5146
  805MOL0     C 6191  11.157  10.050   5.981  0.4090 -0.5641 -0.4278
  805MOL0     C 6192  11.188  10.168   6.010 -0.0280 -0.8049 -0.8449
  805MOL0     C 6193  10.734   9.626   6.121  0.4178  0.1298  0.5310
  805MOL0     C 6194  10.609   9.588   6.090  0.2277  0.1823  0.8174
  805MOL0     H 6195  10.266   9.131   6.212 -2.9233 -4.0697  0.8057
  805MOL0     H 6196  10.046   9.057   6.162 -0.6863 -0.7731 -0.9793
  805MOL0     H 6197   9.925   8.925   6.052 -2.4659  0.0936  2.0217
  805MOL0     H 6198   9.913   8.874   5.886  1.6851  0.7798  1.0094
  805MOL0     H 6199   9.697   8.907   5.852 -3.1996 -0.6220  1.8834
  805MOL0     H 6200   9.682   9.021   5.997 -0.1925 -2.6434  6.8441
  805MOL0     H 6201   9.756   8.847   6.153  1.5099  0.5653 -0.6438
  805MOL0     H 6202   9.736   8.724   6.026  0.1300 -0.2694  0.2583
  805MOL0     H 6203   9.545   8.724   6.154  1.5249 -0.0686  0.7197
  805MOL0     H 6204   9.492   8.887   6.132 -1.8881 -1.2209 -1.1065
  805MOL0     H 6205   9.510   8.659   5.921 -1.5266 -0.5717 -1.6964
  805MOL0     H 6206   9.484   8.826   5.866 -0.2643  0.2390  0.5491
  805MOL0     H 6207   9.279   8.818   6.027  0.3438  0.9928 -0.8701
  805MOL0     H 6208   9.312   8.643   6.034 -0.0098  0.3450 -1.3312
  805MOL0     H 6209   9.132   8.697   5.884 -0.1040  3.2335  0.0259
  805MOL0     H 6210   9.238   8.813   5.804  0.8995  0.0569 -0.0018
  805MOL0     H 6211   9.340   8.541   5.800  3.2444  2.4989  1.6717
  805MOL0     H 6212   9.385   8.667   5.700 -0.0527  0.0187 -1.1076
  805MOL0     H 6213   9.121   8.402   5.772  0.9509 -2.6946 -2.1652
  805MOL0     H 6214   8.961   8.243   5.575  4.5014  1.0199  1.1220
  805MOL0     H 6215   8.886   8.368   5.471 -1.5275  1.6352  0.7277
  805MOL0     H 6216   8.813   8.476   5.686  0.7375  0.2712 -0.2631
  805MOL0     H 6217   8.870   8.339   5.774 -2.0765 -0.3926  1.2491
  805MOL0     H 6218   8.608   8.327   5.705  1.5068 -1.5637  2.3862
  805MOL0     H 6219   8.687   8.344   5.539 -0.1119 -0.0179 -0.9675
  805MOL0     H 6220   8.790   8.113   5.567  0.3844  1.0391 -0.7800
  805MOL0     H 6221   8.618   8.115   5.574  0.8373 -1.2484  0.4499
  805MOL0     H 6222   8.437   8.104   5.671 -3.5154 -1.2430  0.4733
  805MOL0     H 6223   8.238   8.061   5.819  0.5019 -0.2967  0.9202
  805MOL0     H 6224   7.900   8.232   6.050 -3.6888 -0.7446 -1.9420
  805MOL0     H 6225   7.682   8.166   6.129  2.8383  2.5571 -0.0874
  805MOL0     H 6226   7.492   8.106   6.207 -0.5702 -0.1721 -0.1334
  805MOL0     H 6227   7.605   8.103   6.339  0.0731 -0.8628  0.4401
  805MOL0     H 6228   7.366   7.912   6.306  0.3592 -0.1788  1.1306
  805MOL0     H 6229   7.353   8.062   6.400 -0.5920  2.2615 -5.1751
  805MOL0     H 6230   7.544   7.940   6.545  0.2767  0.1210  0.3430
  805MOL0     H 6231   7.501   7.799   6.452 -1.4106 -1.0537  1.0081
  805MOL0     H 6232   7.336   7.987   6.614  0.6123 -0.0374 -0.6490
  805MOL0     H 6233   7.256   7.859   6.502 -0.1789 -3.7844  1.4819
  805MOL0     H 6234   7.369   7.684   6.647 -0.2703 -1.4108  0.3674
  805MOL0     H 6235   7.244   7.775   6.724  0.6468 -1.0427  0.5598
  805MOL0     H 6236   7.386   7.913   6.852 -0.0513 -0.9056  0.9168
  805MOL0     H 6237   7.526   7.842   6.770  0.7039 -2.5272  0.9914
  805MOL0     H 6238   7.335   7.701   6.929  0.8278 -3.4648  1.5063
  805MOL0     H 6239   7.471   7.627   6.846 -3.6007 -1.5505 -0.6171
  805MOL0     H 6240   7.480   7.752   7.105 -0.4257 -1.2335  0.7575
  805MOL0     H 6241   7.555   7.874   7.001 -0.0668 -0.9106  1.3664
  805MOL0     H 6242   7.793   7.757   6.177  0.3507 -0.1150 -0.5549
  805MOL0     H 6243   8.014   7.813   6.072 -1.1699 -2.4396  1.7571
  805MOL0     H 6244   8.502   7.982   6.147 -0.8721  0.6789  1.2852
  805MOL0     H 6245   8.694   8.013   5.995  0.1306 -1.2699  1.4394
  805MOL0     H 6246  10.096   9.195   5.752  0.4970  0.0783 -0.1963
  805MOL0     H 6247  10.325   9.266   5.794 -0.4379  0.7430 -0.2697
  805MOL0     H 6248  10.679   9.259   6.016 -1.1401  0.0400 -0.8721
  805MOL0     H 6249  10.913   9.342   6.042  2.0015  2.2315  1.3899
  805MOL0     H 6250  11.079   9.468   6.039 -2.0803 -0.0145 -0.1792
  805MOL0     H 6251  11.166   9.581   6.147  0.7641  5.5043 -2.6001
  805MOL0     H 6252  11.171   9.641   5.902  1.2255  1.6351  0.9777
  805MOL0     H 6253  10.998   9.676   5.913 -0.5184 -0.4305  0.8431
  805MOL0     H 6254  11.214   9.793   6.082 -1.2054 -2.3632  0.2562
  805MOL0     H 6255  11.046   9.837   6.098  0.4112  1.8859 -0.2128
  805MOL0     H 6256  11.225   9.889   5.862  0.4382 -3.9541  1.3075
  805MOL0     H 6257  11.045   9.919   5.869 -0.6752  2.9393  0.7862
  805MOL0     H 6258  11.223  10.266   6.037  0.3094 -0.7508 -1.4527
  805MOL0     H 6259  10.758   9.728   6.149  1.2982  0.0765  0.0139
  805MOL0     H 6260  10.522   9.650   6.107 -1.6004 -1.3943 -2.1073
  806MOL0     O 6261   5.137   6.035   0.581  0.5526 -0.1522  0.0636
  806MOL0     C 6262   5.104   6.153   0.570  0.5328 -0.5066  0.8733
  806MOL0     O 6263   5.172   6.260   0.626  0.1855 -0.0685 -0.6148
  806MOL0     C 6264   5.303   6.237   0.666  0.7851  0.6967 -0.5241
  806MOL0     C 6265   5.331   6.141   0.768 -0.8139  0.1818  0.8533
  806MOL0     C 6266   5.454   6.142   0.833 -0.9880  0.0715 -0.0234
  806MOL0     C 6267   5.548   6.237   0.787  0.1890  1.4379  0.1755
  806MOL0     O 6268   5.669   6.252   0.843  0.4553  0.3917 -0.5691
  806MOL0     C 6269   5.686   6.230   0.982 -0.4367 -0.4013  0.3294
  806MOL0     C 6270   5.743   6.093   1.024 -0.3586 -1.2020  0.1579
  806MOL0     C 6271   5.871   6.060   0.936 -0.9111 -0.6054 -0.2634
  806MOL0     C 6272   5.937   5.925   0.978 -0.9257 -0.1077  0.2235
  806MOL0     C 6273   6.052   5.896   0.877  1.1579 -0.8089  0.0731
  806MOL0     C 6274   6.186   5.938   0.927 -0.6915  0.4098  0.2186
  806MOL0     C 6275   6.236   5.872   1.064  1.1100  0.6982 -0.8586
  806MOL0     C 6276   6.372   5.927   1.091  0.2468 -0.8167  0.2636
  806MOL0     N 6277   6.489   5.867   1.017 -0.1427 -1.0384 -1.0801
  806MOL0     C 6278   6.534   5.738   1.009 -0.2871  0.4668 -0.2850
  806MOL0     C 6279   6.623   5.729   0.906  1.0684  0.8520  0.4246
  806MOL0     C 6280   6.705   5.616   0.870 -0.1729  0.0801 -0.2479
  806MOL0     C 6281   6.832   5.620   0.967  0.4727  0.3026  0.2561
  806MOL0     C 6282   6.906   5.752   0.955 -0.1429 -0.4045  0.2515
  806MOL0     C 6283   6.981   5.752   0.824  0.4938  0.4501  0.1685
  806MOL0     O 6284   7.045   5.877   0.798 -0.3981  0.4485 -0.6355
  806MOL0     C 6285   7.176   5.884   0.853 -0.3111  0.9637 -0.5057
  806MOL0     C 6286   7.231   5.796   0.947 -0.2903  1.1560  0.0530
  806MOL0     C 6287   7.357   5.818   1.001 -0.2845 -1.3314 -0.2177
  806MOL0     C 6288   7.440   5.919   0.944 -0.3920 -0.6728 -0.2389
  806MOL0     C 6289   7.569   5.958   0.999 -0.0555 -0.6532 -0.2993
  806MOL0     O 6290   7.628   6.075   0.952  0.3992  0.2165  0.5872
  806MOL0     C 6291   7.759   6.105   0.980 -0.1135  0.2617 -0.7500
  806MOL0     C 6292   7.800   6.130   1.115  0.7002 -0.3881  0.7531
  806MOL0     C 6293   7.943   6.153   1.146  0.5512  0.0841  0.5385
  806MOL0     C 6294   8.031   6.148   1.036 -0.9772 -0.1667  0.0431
  806MOL0     O 6295   8.162   6.180   1.051 -0.2049 -0.5359  0.5934
  806MOL0     C 6296   8.206   6.250   1.168  0.1846 -0.2953  0.2660
  806MOL0     C 6297   8.360   6.270   1.162 -0.2921  0.1373 -0.5661
  806MOL0     C 6298   8.416   6.359   1.051  0.0829 -0.0721 -0.8585
  806MOL0     C 6299   8.570   6.369   1.053  0.3974 -0.4566  0.2656
  806MOL0     C 6300   8.644   6.402   1.189  0.7189  0.7532 -0.0972
  806MOL0     C 6301   8.792   6.383   1.182 -0.3694 -0.2256  0.7609
  806MOL0     C 6302   8.875   6.454   1.290 -0.4680  0.3391  0.8630
  806MOL0     C 6303   9.018   6.466   1.251  0.3593  0.9353 -0.4308
  806MOL0    Cl 6304   9.094   6.308   1.295 -0.3050 -0.3959 -0.2332
  806MOL0     C 6305   7.985   6.125   0.905 -0.2317  0.7360 -0.0905
  806MOL0     C 6306   7.856   6.088   0.880 -0.7483 -0.0862 -0.4956
  806MOL0     O 6307   7.613   5.880   1.087  0.2265 -0.3001  0.8018
  806MOL0     C 6308   7.374   6.011   0.856  0.0852 -0.1560  0.7514
  806MOL0     C 6309   7.242   5.998   0.813  0.3244  1.5187 -0.2363
  806MOL0     N 6310   6.646   5.848   0.853  0.3345 -0.5742 -0.1176
  806MOL0     N 6311   6.561   5.929   0.919  0.0854  0.3840  0.5281
  806MOL0     C 6312   5.515   6.325   0.684  0.1024 -0.2982  1.0042
  806MOL0     C 6313   5.390   6.326   0.621 -0.5258  1.2763  0.0383
  806MOL0     C 6314   4.988   6.176   0.486 -0.0016  0.3486 -0.5817
  806MOL0     C 6315   4.947   6.311   0.452 -0.5090  0.5918 -0.0194
  806MOL0     C 6316   4.846   6.339   0.366  0.7944  0.1570 -0.0839
  806MOL0     C 6317   4.774   6.234   0.311 -0.2869 -0.0397  0.0510
  806MOL0     O 6318   4.672   6.270   0.229 -0.2890 -0.6201 -0.8214
  806MOL0     C 6319   4.649   6.201   0.105 -0.6419  0.5618 -0.4862
  806MOL0     C 6320   4.699   6.295  -0.015  0.8222  0.0793 -0.3872
  806MOL0     C 6321   4.852   6.290  -0.049 -1.3048 -0.3560  0.1717
  806MOL0     C 6322   4.907   6.426  -0.074 -0.4267  0.8371  0.2412
  806MOL0     C 6323   5.038   6.441  -0.141 -0.5592 -1.6061  0.0913
  806MOL0     C 6324   5.153   6.463  -0.196  0.4526  0.3393  0.2549
  806MOL0     C 6325   4.807   6.102   0.334 -0.0019  0.0916 -0.2016
  806MOL0     C 6326   4.917   6.071   0.419  0.4322  0.1471 -1.1056
  806MOL0     H 6327   5.259   6.071   0.810 -0.0986 -1.1316 -0.0418
  806MOL0     H 6328   5.485   6.072   0.911 -0.6220 -0.0555 -0.2815
  806MOL0     H 6329   5.595   6.245   1.041  0.2154 -1.1271  1.5409
  806MOL0     H 6330   5.761   6.305   1.006 -2.5996  1.1423  2.7754
  806MOL0     H 6331   5.670   6.019   0.992 -0.8281 -0.8652  0.4492
  806MOL0     H 6332   5.762   6.096   1.132 -0.1023  0.6561  0.0839
  806MOL0     H 6333   5.946   6.139   0.944 -0.3037 -1.1503 -0.4023
  806MOL0     H 6334   5.838   6.055   0.832 -1.6600  0.5585 -0.1024
  806MOL0     H 6335   5.961   5.923   1.085  0.9778 -1.3230 -0.1917
  806MOL0     H 6336   5.858   5.849   0.983  0.6264 -2.0265 -2.3941
  806MOL0     H 6337   6.033   5.942   0.780  0.0532 -4.8794 -1.8335
  806MOL0     H 6338   6.061   5.788   0.865 -1.4449 -1.5005  3.0586
  806MOL0     H 6339   6.192   6.047   0.934 -0.1799  0.5717 -2.1568
  806MOL0     H 6340   6.250   5.904   0.845 -3.0806  3.4403 -3.1799
  806MOL0     H 6341   6.164   5.895   1.143  0.2556  1.9033 -1.9517
  806MOL0     H 6342   6.251   5.764   1.063  3.7635  0.9477  1.4189
  806MOL0     H 6343   6.382   5.915   1.199 -0.6396 -1.5217  0.2780
  806MOL0     H 6344   6.370   6.036   1.079  1.1153 -0.4534  2.7955
  806MOL0     H 6345   6.497   5.661   1.077 -3.6452  2.2989  0.1728
  806MOL0     H 6346   6.728   5.616   0.763 -0.7504  0.5251 -0.3760
  806MOL0     H 6347   6.657   5.520   0.890  4.2698 -2.2147  0.6372
  806MOL0     H 6348   6.888   5.528   0.949 -0.7676 -0.0177 -2.5547
  806MOL0     H 6349   6.797   5.610   1.070  1.7823 -1.5864  0.5739
  806MOL0     H 6350   6.844   5.840   0.977 -3.0247 -3.1666  4.8604
  806MOL0     H 6351   6.980   5.762   1.034 -0.5811  1.6571  0.4669
  806MOL0     H 6352   6.902   5.740   0.748 -0.7570  0.9192  1.3500
  806MOL0     H 6353   7.048   5.667   0.809  0.0357  0.5416 -3.3654
  806MOL0     H 6354   7.170   5.718   0.990 -0.1249 -0.3724 -2.2998
  806MOL0     H 6355   7.403   5.756   1.077 -0.7124 -0.3366  0.8864
  806MOL0     H 6356   7.728   6.132   1.196 -0.1484 -2.6376  0.1470
  806MOL0     H 6357   7.972   6.174   1.248 -3.0117  0.6745  1.5516
  806MOL0     H 6358   8.191   6.181   1.252 -0.2302 -1.3252 -0.6328
  806MOL0     H 6359   8.150   6.342   1.184  1.3189  0.2177  1.5645
  806MOL0     H 6360   8.421   6.180   1.164  0.3750  0.5928  1.3844
  806MOL0     H 6361   8.388   6.322   1.254 -0.8639 -0.8191  0.1670
  806MOL0     H 6362   8.378   6.461   1.064 -1.2508 -0.5506 -0.8313
  806MOL0     H 6363   8.380   6.317   0.956  1.4845  1.0848 -1.9546
  806MOL0     H 6364   8.607   6.269   1.026 -1.0455 -0.4895 -1.8104
  806MOL0     H 6365   8.581   6.453   0.984 -2.8508  1.9400  2.3721
  806MOL0     H 6366   8.615   6.331   1.267 -0.5413  1.7920  0.4243
  806MOL0     H 6367   8.625   6.508   1.208  3.2388  1.5949 -1.7506
  806MOL0     H 6368   8.817   6.434   1.089 -0.3066 -1.4426  0.0922
  806MOL0     H 6369   8.816   6.277   1.171  0.4735  0.0384 -0.0620
  806MOL0     H 6370   8.824   6.551   1.299 -2.1692 -0.4533  0.1758
  806MOL0     H 6371   8.869   6.399   1.385 -3.7052 -2.0756 -0.5788
  806MOL0     H 6372   9.066   6.552   1.299 -2.1482  1.3867  1.4946
  806MOL0     H 6373   9.022   6.466   1.142 -2.5731 -0.1700 -0.6151
  806MOL0     H 6374   8.054   6.131   0.822 -0.2936 -1.9173 -0.3899
  806MOL0     H 6375   7.811   6.061   0.785 -2.3257 -0.3954  0.2957
  806MOL0     H 6376   7.435   6.094   0.821 -1.9064  1.0966  0.0322
  806MOL0     H 6377   7.195   6.066   0.743 -0.1580  0.2534 -1.1677
  806MOL0     H 6378   5.594   6.394   0.654 -0.9787  0.3087 -0.6134
  806MOL0     H 6379   5.370   6.402   0.546  0.3445  2.6918  1.2092
  806MOL0     H 6380   5.003   6.389   0.502  1.6195 -1.4221  0.9386
  806MOL0     H 6381   4.820   6.443   0.345  0.7511 -0.3357 -2.8395
  806MOL0     H 6382   4.542   6.179   0.097 -0.8684  0.3451  2.2969
  806MOL0     H 6383   4.704   6.107   0.100  0.7534  1.3979 -1.7352
  806MOL0     H 6384   4.640   6.278  -0.106  1.1747 -1.7642 -0.3110
  806MOL0     H 6385   4.669   6.395   0.015  0.1798 -0.1174 -0.3629
  806MOL0     H 6386   4.866   6.224  -0.136  0.4779  2.3542 -1.7679
  806MOL0     H 6387   4.895   6.245   0.040 -1.2773  0.6866  0.7039
  806MOL0     H 6388   4.829   6.474  -0.134  0.5050 -1.2532 -2.8846
  806MOL0     H 6389   4.920   6.469   0.026 -3.2832 -0.1719  1.1582
  806MOL0     H 6390   5.247   6.475  -0.245 -0.6207  4.5418 -1.2763
  806MOL0     H 6391   4.749   6.022   0.289  0.7015  0.0884 -1.1280
  806MOL0     H 6392   4.936   5.966   0.439  2.5309  0.2408 -2.2602
  807MOL0     O 6393   3.435   6.965  11.143  0.0522  0.1769 -0.0820
  807MOL0     C 6394   3.359   7.036  11.075 -0.6774  0.3412 -0.6676
  807MOL0     O 6395   3.348   7.022  10.938 -0.0288 -0.9588 -0.8326
  807MOL0     C 6396   3.400   6.927  10.854  0.7751 -0.6599  0.3079
  807MOL0     C 6397   3.386   6.953  10.717  0.1011  0.9967  0.4861
  807MOL0     C 6398   3.408   6.855  10.623  0.3972  0.4372  0.1889
  807MOL0     C 6399   3.445   6.725  10.655  0.6548 -0.1976  0.8648
  807MOL0     O 6400   3.465   6.626  10.568  0.1630  0.2646 -0.6072
  807MOL0     C 6401   3.489   6.642  10.432  0.2920  1.2398  0.0930
  807MOL0     C 6402   3.492   6.501  10.359  0.1329 -1.0608  0.7260
  807MOL0     C 6403   3.509   6.518  10.215 -0.9719 -0.6908 -0.7382
  807MOL0     C 6404   3.535   6.389  10.138 -0.5708  0.9614  0.9289
  807MOL0     C 6405   3.613   6.398   9.998  0.0761 -0.3425 -0.4379
  807MOL0     C 6406   3.764   6.366  10.039  0.5039  0.4217  0.7505
  807MOL0     C 6407   3.848   6.349   9.913 -0.1036 -0.1077 -0.1503
  807MOL0     C 6408   3.959   6.248   9.928 -0.2005 -0.5265  0.8149
  807MOL0     N 6409   3.907   6.115   9.969 -0.7298  0.3731  0.1942
  807MOL0     C 6410   3.810   6.043   9.906 -0.4494 -0.0764  0.4112
  807MOL0     C 6411   3.794   5.924   9.972  0.3512  0.5663 -1.1222
  807MOL0     C 6412   3.715   5.807   9.942 -0.2700  0.1918 -0.0103
  807MOL0     C 6413   3.785   5.678   9.915 -0.4187 -0.0849  1.2445
  807MOL0     C 6414   3.897   5.701   9.803  0.4402 -0.9236  0.3078
  807MOL0     C 6415   3.986   5.580   9.765  0.3421 -0.1707  0.0165
  807MOL0     O 6416   3.898   5.489   9.693 -0.4081 -0.0345 -0.7413
  807MOL0     C 6417   3.941   5.360   9.672 -0.4897 -0.7149  0.0215
  807MOL0     C 6418   3.841   5.269   9.630 -1.1950  0.4597  0.6360
  807MOL0     C 6419   3.881   5.134   9.605  0.7193  0.6221 -0.8203
  807MOL0     C 6420   4.019   5.095   9.611  0.2210 -0.6099  0.4425
  807MOL0     C 6421   4.055   4.954   9.580 -0.3467 -0.4372  0.6294
  807MOL0     O 6422   3.961   4.857   9.595  0.0592  1.3062  0.2390
  807MOL0     C 6423   3.990   4.727   9.578 -0.6871  0.1791  0.2265
  807MOL0     C 6424   3.879   4.640   9.547 -0.1334 -0.6976  1.0635
  807MOL0     C 6425   3.900   4.517   9.504 -0.0532 -0.0705  0.1900
  807MOL0     C 6426   4.024   4.458   9.496 -0.4324 -0.1872 -0.0905
  807MOL0     O 6427   4.029   4.324   9.469 -0.0740  0.0196 -0.2751
  807MOL0     C 6428   4.155   4.264   9.431 -0.0673 -1.0382  0.8140
  807MOL0     C 6429   4.112   4.131   9.371  0.2458 -0.0763  0.6857
  807MOL0     C 6430   4.236   4.039   9.351  0.2114  0.9024  0.5542
  807MOL0     C 6431   4.202   3.923   9.259 -0.7408 -0.0282  1.1231
  807MOL0     C 6432   4.310   3.806   9.265 -0.1478  0.1685 -0.7718
  807MOL0     C 6433   4.300   3.679   9.175  0.7378  0.6709  1.0059
  807MOL0     C 6434   4.217   3.687   9.045  0.2245  0.2389 -0.0722
  807MOL0     C 6435   4.175   3.547   8.991  0.2398  0.4196  0.1559
  807MOL0    Cl 6436   4.302   3.413   8.979  0.4319  0.1763  0.3015
  807MOL0     C 6437   4.139   4.536   9.545 -0.4666  0.1376  1.2793
  807MOL0     C 6438   4.118   4.669   9.591 -0.1378  0.2633 -0.2655
  807MOL0     O 6439   4.166   4.936   9.527 -0.0867  0.7567 -0.6571
  807MOL0     C 6440   4.110   5.192   9.642 -0.0071 -0.1053  0.2895
  807MOL0     C 6441   4.073   5.324   9.679 -0.0812  0.0142 -0.3842
  807MOL0     N 6442   3.894   5.924  10.072 -0.2454 -0.2171  0.4592
  807MOL0     N 6443   3.955   6.032  10.070 -0.3347 -0.2621 -0.8982
  807MOL0     C 6444   3.465   6.694  10.787 -0.3830 -0.6192 -0.2376
  807MOL0     C 6445   3.442   6.793  10.886  0.6487  0.0013  0.0883
  807MOL0     C 6446   3.285   7.140  11.137  0.2213 -1.1505  0.7118
  807MOL0     C 6447   3.350   7.223  11.229  0.2057  0.6612 -0.2309
  807MOL0     C 6448   3.276   7.320  11.299  0.0892 -0.0153 -0.7708
  807MOL0     C 6449   3.137   7.332  11.285 -0.3890 -0.6700 -0.8070
  807MOL0     O 6450   3.082   7.443  11.355 -0.7765 -0.0004  0.4836
  807MOL0     C 6451   2.940   7.432  11.398 -0.0775 -0.8970  1.2425
  807MOL0     C 6452   2.921   7.504  11.531 -0.4925  0.2840 -0.1824
  807MOL0     C 6453   2.786   7.481  11.602 -0.1717 -0.6564 -0.0292
  807MOL0     C 6454   2.815   7.523  11.751  0.3508 -0.6711  1.0549
  807MOL0     C 6455   2.699   7.494  11.839  0.1523 -0.5754 -0.3903
  807MOL0     C 6456   2.600   7.469  11.901 -0.2915 -1.1350  0.3126
  807MOL0     C 6457   3.074   7.238  11.202 -0.4928  0.4197  0.8978
  807MOL0     C 6458   3.149   7.141  11.125  0.2145 -0.3351 -0.3060
  807MOL0     H 6459   3.347   7.053  10.698 -3.5211 -0.1205  1.1870
  807MOL0     H 6460   3.413   6.896  10.523  0.3517  1.3100  0.5370
  807MOL0     H 6461   3.584   6.696  10.422 -0.5123  3.0300  1.5934
  807MOL0     H 6462   3.410   6.695  10.379  1.4093  0.4006 -2.5930
  807MOL0     H 6463   3.398   6.448  10.376  0.5420 -2.1284 -0.2567
  807MOL0     H 6464   3.571   6.433  10.392  0.7874 -0.0187  1.3749
  807MOL0     H 6465   3.590   6.590  10.198 -2.2822  0.5591 -1.9719
  807MOL0     H 6466   3.420   6.571  10.180 -0.5184  1.6892  1.4082
  807MOL0     H 6467   3.572   6.316  10.210 -3.8243 -0.1098  1.7011
  807MOL0     H 6468   3.434   6.349  10.121 -0.5072  0.9709  0.5214
  807MOL0     H 6469   3.602   6.499   9.957  0.4751  2.3675  5.1662
  807MOL0     H 6470   3.588   6.312   9.936 -1.0506  1.9176 -3.3270
  807MOL0     H 6471   3.762   6.273  10.096 -2.4269  0.5549  1.0290
  807MOL0     H 6472   3.816   6.447  10.092  1.4627 -0.2735  0.8857
  807MOL0     H 6473   3.779   6.329   9.830 -2.8867  1.7002  1.5716
  807MOL0     H 6474   3.887   6.448   9.886 -1.1918  0.2017 -0.6660
  807MOL0     H 6475   4.033   6.273  10.004  1.5766 -0.3674 -0.8925
  807MOL0     H 6476   4.017   6.244   9.835  0.1959  0.9306  0.9636
  807MOL0     H 6477   3.756   6.063   9.815  0.4989 -1.0357 -0.3969
  807MOL0     H 6478   3.684   5.825   9.839  3.8311 -2.0029 -1.8695
  807MOL0     H 6479   3.624   5.796  10.003  0.1696 -2.6345  0.2600
  807MOL0     H 6480   3.707   5.609   9.884 -0.3158 -0.3868  1.6477
  807MOL0     H 6481   3.834   5.649  10.009  2.3531 -1.4901 -0.5133
  807MOL0     H 6482   3.839   5.732   9.716  2.5992  0.0129 -0.8744
  807MOL0     H 6483   3.961   5.783   9.837  0.4370 -1.4043  1.5325
  807MOL0     H 6484   4.021   5.533   9.857 -0.5998  2.0614  1.6019
  807MOL0     H 6485   4.067   5.611   9.698  0.1563 -0.8931 -0.5670
  807MOL0     H 6486   3.739   5.308   9.626 -0.7511  1.5126 -2.5310
  807MOL0     H 6487   3.806   5.067   9.563  0.2299  1.0667 -0.6637
  807MOL0     H 6488   3.776   4.675   9.544 -0.2725 -1.0886  1.1928
  807MOL0     H 6489   3.811   4.469   9.465 -0.0703  2.3095 -3.0228
  807MOL0     H 6490   4.211   4.236   9.521  0.8909 -0.3106  0.4649
  807MOL0     H 6491   4.219   4.322   9.364  2.1303 -2.6551  1.3838
  807MOL0     H 6492   4.057   4.136   9.277  0.4122 -0.7664  0.5459
  807MOL0     H 6493   4.049   4.086   9.448  0.6094  2.5267  2.6465
  807MOL0     H 6494   4.265   4.007   9.451 -0.5542 -1.0545  0.1858
  807MOL0     H 6495   4.317   4.092   9.299 -0.5110  1.7812  0.2870
  807MOL0     H 6496   4.107   3.876   9.287 -0.4731 -1.2874  0.0504
  807MOL0     H 6497   4.206   3.954   9.154 -1.6766  0.8947  1.3516
  807MOL0     H 6498   4.308   3.775   9.369 -3.5463  1.2736 -0.3803
  807MOL0     H 6499   4.411   3.841   9.240  2.1400 -2.6803  3.4426
  807MOL0     H 6500   4.254   3.593   9.225  2.9621 -0.5842  1.0108
  807MOL0     H 6501   4.403   3.645   9.161  0.1622 -0.7855  0.0684
  807MOL0     H 6502   4.127   3.747   9.061  0.0332  0.3535 -1.4709
  807MOL0     H 6503   4.273   3.741   8.968 -0.5594 -1.6055 -2.0443
  807MOL0     H 6504   4.129   3.567   8.893 -0.0618  4.1124  0.9042
  807MOL0     H 6505   4.095   3.515   9.058  0.5176  2.8677  1.7881
  807MOL0     H 6506   4.241   4.500   9.560 -0.3067 -1.8537 -2.9569
  807MOL0     H 6507   4.207   4.726   9.617 -0.0475 -0.5623  1.3831
  807MOL0     H 6508   4.215   5.162   9.636 -0.1441 -0.7611  1.0695
  807MOL0     H 6509   4.150   5.393   9.709 -0.6420  0.0857  0.9552
  807MOL0     H 6510   3.505   6.598  10.818  0.2493 -0.7367 -1.3727
  807MOL0     H 6511   3.459   6.756  10.986  1.3953 -3.7330 -1.2471
  807MOL0     H 6512   3.455   7.207  11.252 -0.2746 -0.8156  1.1624
  807MOL0     H 6513   3.340   7.388  11.354  0.7970  0.5663 -2.2581
  807MOL0     H 6514   2.901   7.330  11.401 -2.6952 -0.0022 -0.0278
  807MOL0     H 6515   2.883   7.482  11.319  3.4904  2.5322  0.5022
  807MOL0     H 6516   2.997   7.476  11.604 -2.3507  3.0209  3.0559
  807MOL0     H 6517   2.943   7.610  11.516  2.1061 -0.5185 -3.2082
  807MOL0     H 6518   2.739   7.382  11.600 -1.6871  0.0025  0.7131
  807MOL0     H 6519   2.717   7.553  11.557  1.0300  3.6466  4.2116
  807MOL0     H 6520   2.907   7.481  11.793  0.5373  1.3425  2.8636
  807MOL0     H 6521   2.826   7.632  11.757 -2.0901 -0.3275  0.3578
  807MOL0     H 6522   2.504   7.438  11.939 -0.0287 -2.1820  0.1590
  807MOL0     H 6523   2.969   7.256  11.182 -1.3170 -3.5591  0.7021
  807MOL0     H 6524   3.109   7.076  11.048 -0.7309 -0.5418  0.3432
  808MOL0     O 6525   2.961   6.490   0.251 -0.0449 -1.2142  0.3374
  808MOL0     C 6526   2.923   6.606   0.240 -0.0226  0.2353  0.6228
  808MOL0     O 6527   2.985   6.701   0.170 -1.1387  0.9404  0.5710
  808MOL0     C 6528   3.120   6.689   0.124  0.4118 -0.9977  0.1940
  808MOL0     C 6529   3.223   6.621   0.189  0.0985 -0.6006 -0.9919
  808MOL0     C 6530   3.353   6.608   0.129 -0.0912  0.2997  0.3462
  808MOL0     C 6531   3.378   6.671   0.006 -0.6532  0.4559 -0.4659
  808MOL0     O 6532   3.503   6.666  -0.051 -0.2057 -0.4973 -0.7816
  808MOL0     C 6533   3.612   6.713   0.033  1.0307 -0.0703  0.2558
  808MOL0     C 6534   3.745   6.691  -0.039 -0.3406  0.3847  0.4067
  808MOL0     C 6535   3.736   6.697  -0.190 -0.3992 -0.3356  0.2179
  808MOL0     C 6536   3.879   6.675  -0.241 -0.0331  0.5670 -0.0703
  808MOL0     C 6537   3.893   6.723  -0.386 -0.0432  1.2594  0.2211
  808MOL0     C 6538   3.819   6.642  -0.485  0.4253  0.3219 -0.5701
  808MOL0     C 6539   3.860   6.494  -0.486  0.2999 -0.4745  0.0768
  808MOL0     C 6540   3.768   6.405  -0.579 -0.7358 -0.0909 -0.0051
  808MOL0     N 6541   3.835   6.380  -0.707  0.0195  0.1119 -0.9969
  808MOL0     C 6542   3.934   6.283  -0.718  0.2963 -0.8933  0.0444
  808MOL0     C 6543   3.965   6.285  -0.854 -1.4578  0.0871  0.3302
  808MOL0     C 6544   4.060   6.193  -0.926  0.3398 -0.1581  0.5530
  808MOL0     C 6545   3.993   6.054  -0.929 -0.3660  0.9723 -0.1501
  808MOL0     C 6546   4.098   5.957  -0.993 -0.2313 -0.0285 -0.3464
  808MOL0     C 6547   4.044   5.817  -0.972 -0.9070  0.1047  0.5398
  808MOL0     O 6548   4.161   5.723  -0.977  0.5675 -0.5164 -0.6095
  808MOL0     C 6549   4.196   5.663  -1.094 -0.1405  0.1394  1.0782
  808MOL0     C 6550   4.171   5.718  -1.219 -0.7564  0.6610 -0.0904
  808MOL0     C 6551   4.228   5.655  -1.327 -0.6123  0.2946 -0.4274
  808MOL0     C 6552   4.297   5.527  -1.306 -0.2268 -0.2562  0.4316
  808MOL0     C 6553   4.359   5.455  -1.414 -0.7756  0.2897  0.4691
  808MOL0     O 6554   4.410   5.327  -1.393  0.0502 -0.2477  0.1420
  808MOL0     C 6555   4.439   5.243  -1.498 -0.2222 -0.7390  0.0502
  808MOL0     C 6556   4.378   5.119  -1.520 -0.3721  0.1355  0.8051
  808MOL0     C 6557   4.407   5.031  -1.617 -0.7414  0.2443  0.6290
  808MOL0     C 6558   4.518   5.043  -1.696  0.2930 -0.1080 -0.0958
  808MOL0     O 6559   4.554   4.947  -1.795  0.1328  0.3563  0.1644
  808MOL0     C 6560   4.499   4.814  -1.805  0.7845 -0.6003  0.0370
  808MOL0     C 6561   4.582   4.723  -1.894  0.2781 -0.0697 -0.9167
  808MOL0     C 6562   4.538   4.579  -1.897 -0.5137  0.0810 -0.2866
  808MOL0     C 6563   4.643   4.480  -1.944 -0.1136 -0.2917  0.7357
  808MOL0     C 6564   4.626   4.333  -1.910  0.1084  0.2250 -0.6816
  808MOL0     C 6565   4.729   4.249  -1.994  0.3082  0.5964 -0.0723
  808MOL0     C 6566   4.718   4.252  -2.148  0.0018 -0.0230 -0.0049
  808MOL0     C 6567   4.778   4.124  -2.198  0.7641  0.5024 -0.0346
  808MOL0    Cl 6568   4.812   4.133  -2.373 -0.3514 -0.4421  0.7109
  808MOL0     C 6569   4.590   5.161  -1.680 -0.3169  0.8644 -0.9193
  808MOL0     C 6570   4.550   5.256  -1.587 -1.0182  0.5664 -0.4777
  808MOL0     O 6571   4.342   5.505  -1.525 -0.8196 -0.3092  0.4125
  808MOL0     C 6572   4.303   5.462  -1.180  0.1463  0.2123 -0.7785
  808MOL0     C 6573   4.254   5.529  -1.075  0.8940 -0.3129 -0.2653
  808MOL0     N 6574   3.894   6.392  -0.924  0.1549  0.1387 -0.6286
  808MOL0     N 6575   3.819   6.437  -0.829  0.4853  0.4442  0.7370
  808MOL0     C 6576   3.281   6.736  -0.054  0.5225 -0.2613 -0.5806
  808MOL0     C 6577   3.155   6.751   0.001  1.0740  0.0812 -0.2740
  808MOL0     C 6578   2.798   6.636   0.322  0.3092 -0.2365  0.2438
  808MOL0     C 6579   2.736   6.767   0.319  1.0855 -0.7246 -0.3842
  808MOL0     C 6580   2.625   6.793   0.391 -0.0563 -0.0695 -0.7102
  808MOL0     C 6581   2.563   6.688   0.464  0.0546  0.1441  0.2123
  808MOL0     O 6582   2.446   6.701   0.540  0.5342 -0.2127  0.1198
  808MOL0     C 6583   2.364   6.830   0.527 -0.2263 -0.1887  0.6627
  808MOL0     C 6584   2.411   6.936   0.623  0.7727 -0.6397 -0.2535
  808MOL0     C 6585   2.372   7.084   0.601  0.5088  0.4218 -0.0594
  808MOL0     C 6586   2.238   7.112   0.534 -0.9523  0.6267  0.6673
  808MOL0     C 6587   2.124   7.054   0.594  1.3620 -0.0038 -0.9305
  808MOL0     C 6588   2.026   7.006   0.647  0.2188 -0.0545 -0.7827
  808MOL0     C 6589   2.619   6.560   0.468 -0.6787  0.1657  0.2563
  808MOL0     C 6590   2.734   6.528   0.390 -0.4680 -0.3640  0.4560
  808MOL0     H 6591   3.203   6.577   0.286  1.6063  0.8621  0.0411
  808MOL0     H 6592   3.422   6.536   0.170 -0.6469 -1.9906 -2.4444
  808MOL0     H 6593   3.619   6.662   0.129  2.1272 -0.1454  0.1491
  808MOL0     H 6594   3.583   6.817   0.045 -0.4655 -0.1229 -2.0983
  808MOL0     H 6595   3.801   6.602  -0.008 -0.4346 -0.9314 -2.8587
  808MOL0     H 6596   3.800   6.779  -0.004  3.8270 -2.5494  2.0181
  808MOL0     H 6597   3.690   6.794  -0.214 -1.3925 -0.6079  0.9487
  808MOL0     H 6598   3.658   6.635  -0.236 -0.1985 -0.5171  0.1208
  808MOL0     H 6599   3.937   6.752  -0.190 -2.0873 -0.1204  3.6551
  808MOL0     H 6600   3.906   6.569  -0.229  0.3121  0.5170 -1.1944
  808MOL0     H 6601   4.000   6.739  -0.406  0.1295 -0.5140 -0.5349
  808MOL0     H 6602   3.846   6.821  -0.393 -1.6714  0.4685 -0.4337
  808MOL0     H 6603   3.834   6.688  -0.583  1.8423 -0.7307 -0.8700
  808MOL0     H 6604   3.712   6.639  -0.460  0.0669 -0.1760 -2.0510
  808MOL0     H 6605   3.964   6.496  -0.518  1.0760 -0.8615  2.4289
  808MOL0     H 6606   3.870   6.448  -0.388 -1.0509 -0.9005  0.0346
  808MOL0     H 6607   3.671   6.453  -0.590 -0.6192  0.1026 -0.2032
  808MOL0     H 6608   3.746   6.309  -0.530 -1.7434 -0.7613 -1.6889
  808MOL0     H 6609   3.962   6.211  -0.642  0.0223 -2.4467 -1.2690
  808MOL0     H 6610   4.146   6.180  -0.860 -0.5534 -1.2089  1.5434
  808MOL0     H 6611   4.075   6.230  -1.028 -1.3794 -3.3062 -1.0057
  808MOL0     H 6612   3.900   6.056  -0.986  0.0773  1.2107 -0.8826
  808MOL0     H 6613   3.975   6.033  -0.823 -0.8655  1.5603 -0.1164
  808MOL0     H 6614   4.125   5.972  -1.098  0.2922 -0.0335 -0.2135
  808MOL0     H 6615   4.193   5.967  -0.941  0.4372  1.6692 -1.7841
  808MOL0     H 6616   3.981   5.790  -1.057  0.9042 -1.7075 -0.3116
  808MOL0     H 6617   3.983   5.818  -0.881 -1.4487 -0.6874  0.1934
  808MOL0     H 6618   4.126   5.816  -1.234 -0.4067  0.4710 -2.8804
  808MOL0     H 6619   4.237   5.724  -1.410  1.3540 -0.0598 -0.5490
  808MOL0     H 6620   4.292   5.096  -1.458 -3.2412  0.4386 -2.7257
  808MOL0     H 6621   4.338   4.949  -1.634 -1.0088  1.1277 -3.5635
  808MOL0     H 6622   4.398   4.830  -1.841  1.1759 -1.6755 -1.6617
  808MOL0     H 6623   4.491   4.765  -1.707  0.3513  1.6485  1.1794
  808MOL0     H 6624   4.686   4.733  -1.860 -0.1116 -0.4377  0.4349
  808MOL0     H 6625   4.579   4.769  -1.993  0.3406 -1.9307 -1.8249
  808MOL0     H 6626   4.444   4.565  -1.950 -0.0157  0.1258 -1.1994
  808MOL0     H 6627   4.523   4.552  -1.792  0.8945 -0.3195 -0.1634
  808MOL0     H 6628   4.666   4.490  -2.051 -2.1056 -2.4021  0.0256
  808MOL0     H 6629   4.734   4.508  -1.890 -1.5830  2.3333  2.0376
  808MOL0     H 6630   4.518   4.322  -1.925 -0.0241  1.8795 -1.2091
  808MOL0     H 6631   4.647   4.325  -1.803  0.9411 -0.8215 -0.9094
  808MOL0     H 6632   4.710   4.148  -1.956 -4.1620  1.5945  0.8624
  808MOL0     H 6633   4.827   4.287  -1.962  0.7691 -0.7335  0.1728
  808MOL0     H 6634   4.612   4.268  -2.168 -0.2872 -0.9597  0.7427
  808MOL0     H 6635   4.775   4.336  -2.188  1.1363  0.0293  1.6150
  808MOL0     H 6636   4.706   4.044  -2.178 -1.1017  2.1307  0.0855
  808MOL0     H 6637   4.874   4.100  -2.152  0.4408 -0.6681  0.0642
  808MOL0     H 6638   4.685   5.182  -1.728  0.1655  3.5481  0.9699
  808MOL0     H 6639   4.609   5.347  -1.581 -0.4504  0.1798 -0.1010
  808MOL0     H 6640   4.349   5.366  -1.161 -0.8694 -0.2007 -0.3287
  808MOL0     H 6641   4.249   5.474  -0.982 -1.3729  0.8863  0.4038
  808MOL0     H 6642   3.303   6.790  -0.146 -1.2585 -1.8806 -2.0515
  808MOL0     H 6643   3.084   6.816  -0.050 -0.2101 -1.8058 -1.0217
  808MOL0     H 6644   2.790   6.839   0.258  0.5950 -0.6418 -0.7277
  808MOL0     H 6645   2.584   6.894   0.396  0.1634 -0.0465  1.2829
  808MOL0     H 6646   2.256   6.814   0.533 -0.0442 -1.3746  1.0435
  808MOL0     H 6647   2.377   6.870   0.426  3.1162  0.3351  1.1853
  808MOL0     H 6648   2.357   6.910   0.715  0.8546  1.1005  0.3194
  808MOL0     H 6649   2.516   6.927   0.649  0.2681  0.7323  2.7773
  808MOL0     H 6650   2.459   7.138   0.562  0.8072 -0.3025 -0.4054
  808MOL0     H 6651   2.350   7.122   0.702 -0.0615 -1.5927  0.6182
  808MOL0     H 6652   2.230   7.221   0.533  1.5707  1.1703 -5.5545
  808MOL0     H 6653   2.237   7.086   0.428 -0.2370 -0.4221  0.9022
  808MOL0     H 6654   1.943   6.959   0.696 -0.7173  2.8401  0.6838
  808MOL0     H 6655   2.568   6.476   0.514  1.4677 -0.2614  2.0181
  808MOL0     H 6656   2.772   6.426   0.387 -0.6835 -0.4083 -1.4453
  809MOL0     O 6657   2.816   5.639   8.170 -0.6001  0.2459  0.0244
  809MOL0     C 6658   2.920   5.702   8.168 -1.3685 -0.0568 -0.5092
  809MOL0     O 6659   3.043   5.647   8.166 -0.3236 -0.4844  0.3725
  809MOL0     C 6660   3.059   5.507   8.152  0.0443 -0.2343  0.0957
  809MOL0     C 6661   3.174   5.451   8.222  0.0526 -0.0226  0.0645
  809MOL0     C 6662   3.183   5.316   8.254 -0.3347 -0.1395 -0.2886
  809MOL0     C 6663   3.092   5.218   8.194 -0.0614  0.0583 -0.6390
  809MOL0     O 6664   3.102   5.083   8.215 -0.1862 -0.5110  0.4438
  809MOL0     C 6665   3.233   5.037   8.195 -0.8342  1.3758 -0.0983
  809MOL0     C 6666   3.270   4.993   8.336  0.6011 -0.9136  0.4495
  809MOL0     C 6667   3.418   4.940   8.345 -0.1258  0.2127  0.2893
  809MOL0     C 6668   3.452   4.867   8.475  0.0901  0.5999 -0.0354
  809MOL0     C 6669   3.591   4.808   8.482 -0.0433 -1.0652  0.6174
  809MOL0     C 6670   3.610   4.714   8.598 -0.4191  0.6718 -0.1526
  809MOL0     C 6671   3.629   4.798   8.726  0.4404  0.0888 -0.2465
  809MOL0     C 6672   3.686   4.719   8.850  0.0544  1.0689  1.0262
  809MOL0     N 6673   3.822   4.658   8.820 -0.0151 -0.6650  0.0773
  809MOL0     C 6674   3.935   4.731   8.799 -0.7998 -0.1351 -0.3845
  809MOL0     C 6675   4.034   4.635   8.803 -0.2878 -0.1353 -0.6898
  809MOL0     C 6676   4.182   4.676   8.794 -0.2028  0.2970  1.0091
  809MOL0     C 6677   4.205   4.728   8.644  0.7999  0.6293  0.2066
  809MOL0     C 6678   4.346   4.691   8.595 -0.0410 -0.1174  0.1280
  809MOL0     C 6679   4.351   4.551   8.529  0.3088  0.6571  0.0492
  809MOL0     O 6680   4.288   4.455   8.619  0.6262  0.4573  0.2682
  809MOL0     C 6681   4.279   4.325   8.567  0.3744 -0.0158 -0.8974
  809MOL0     C 6682   4.332   4.285   8.449  0.3478  1.0132  0.4080
  809MOL0     C 6683   4.315   4.154   8.402  0.2022 -0.6180 -0.0892
  809MOL0     C 6684   4.242   4.065   8.477 -0.0686 -0.0025  0.0145
  809MOL0     C 6685   4.237   3.921   8.435  0.3288  0.3708  0.0046
  809MOL0     O 6686   4.223   3.908   8.302  0.7686  0.7461  0.2403
  809MOL0     C 6687   4.185   3.792   8.245 -0.2686  0.5226  0.7050
  809MOL0     C 6688   4.238   3.773   8.118  0.3880 -1.1390  0.7984
  809MOL0     C 6689   4.233   3.644   8.062  0.8748 -0.8664  0.7675
  809MOL0     C 6690   4.169   3.538   8.131  0.7550  0.2715  0.0824
  809MOL0     O 6691   4.164   3.413   8.071 -0.3374 -0.1444 -0.0375
  809MOL0     C 6692   4.117   3.298   8.140  0.3463 -1.4650 -0.1751
  809MOL0     C 6693   4.099   3.175   8.058  0.6221  0.0758 -0.2217
  809MOL0     C 6694   4.091   3.038   8.147 -0.0420 -0.8062 -1.7245
  809MOL0     C 6695   4.045   2.920   8.067  0.1554 -0.5737 -0.3502
  809MOL0     C 6696   4.013   2.789   8.138 -0.8499 -0.0114 -0.5384
  809MOL0     C 6697   3.919   2.694   8.067 -0.6807 -0.7348 -0.2714
  809MOL0     C 6698   3.879   2.558   8.126 -0.3219 -0.2662  0.0386
  809MOL0     C 6699   3.781   2.495   8.020  1.0433  0.3328  0.4994
  809MOL0    Cl 6700   3.685   2.374   8.104  0.0625  0.3238 -0.3314
  809MOL0     C 6701   4.112   3.564   8.259  0.3269  0.8184 -0.4319
  809MOL0     C 6702   4.108   3.696   8.309  0.1798  0.1232 -0.4128
  809MOL0     O 6703   4.245   3.835   8.523 -0.3768  0.1384  0.1799
  809MOL0     C 6704   4.204   4.108   8.604 -0.4539 -1.4420 -0.6242
  809MOL0     C 6705   4.222   4.239   8.650 -0.4150 -0.1089  0.0176
  809MOL0     N 6706   3.970   4.507   8.805 -0.7136 -0.1742 -0.7105
  809MOL0     N 6707   3.848   4.527   8.836 -0.3061 -0.0328 -0.0825
  809MOL0     C 6708   2.996   5.277   8.107  0.1512  0.7636 -0.1410
  809MOL0     C 6709   2.978   5.419   8.084 -0.5266  0.5389  0.5317
  809MOL0     C 6710   2.907   5.848   8.158  0.9567  0.0492 -0.3447
  809MOL0     C 6711   2.781   5.913   8.165  0.0994  0.7822  0.1046
  809MOL0     C 6712   2.770   6.048   8.151 -0.0497  0.4794  0.4234
  809MOL0     C 6713   2.879   6.142   8.141  0.1489 -0.0459 -0.3844
  809MOL0     O 6714   2.856   6.273   8.146 -0.1993 -0.6980 -0.5674
  809MOL0     C 6715   2.739   6.327   8.207 -0.8277  0.1557 -0.4384
  809MOL0     C 6716   2.752   6.470   8.272  0.0976  1.3687  0.0364
  809MOL0     C 6717   2.861   6.491   8.379  1.2592 -0.3130 -0.8979
  809MOL0     C 6718   2.938   6.620   8.353 -0.8787  0.6170  0.4676
  809MOL0     C 6719   3.038   6.651   8.453  0.4273  0.3987  0.5536
  809MOL0     C 6720   3.139   6.691   8.512 -0.0940  0.0039 -0.3188
  809MOL0     C 6721   3.006   6.084   8.136 -1.0361  0.8790  1.0369
  809MOL0     C 6722   3.021   5.942   8.147 -0.0062 -0.6219 -0.4763
  809MOL0     H 6723   3.246   5.509   8.280 -1.4024  0.8732  1.0365
  809MOL0     H 6724   3.258   5.285   8.326 -0.1536 -1.4064 -0.9897
  809MOL0     H 6725   3.309   5.110   8.165  0.1347  0.1705 -0.6631
  809MOL0     H 6726   3.236   4.950   8.129  0.4324  0.0942  1.5529
  809MOL0     H 6727   3.206   4.916   8.381 -0.3342  0.8984  2.3693
  809MOL0     H 6728   3.266   5.078   8.405 -2.1603  0.4463 -1.2356
  809MOL0     H 6729   3.493   5.020   8.341 -1.8839  1.9072 -1.4242
  809MOL0     H 6730   3.425   4.858   8.273 -1.5920 -0.0749  0.4315
  809MOL0     H 6731   3.440   4.931   8.563  0.0519  0.7335 -0.1367
  809MOL0     H 6732   3.371   4.796   8.496 -0.5807  1.7360  1.4099
  809MOL0     H 6733   3.656   4.896   8.477  1.2938 -2.0524 -3.5131
  809MOL0     H 6734   3.613   4.774   8.381 -1.2532 -0.2598  0.0505
  809MOL0     H 6735   3.701   4.653   8.588 -0.0280  1.0712  0.8293
  809MOL0     H 6736   3.521   4.651   8.607 -1.9786  2.8360  0.3135
  809MOL0     H 6737   3.700   4.878   8.703  1.1751 -0.5602 -0.2538
  809MOL0     H 6738   3.534   4.846   8.753  1.5791  1.2232  2.0929
  809MOL0     H 6739   3.622   4.633   8.874  1.5436 -1.7469 -3.6616
  809MOL0     H 6740   3.696   4.787   8.935  4.0970  1.0195  0.7696
  809MOL0     H 6741   3.949   4.838   8.803 -1.3712 -0.0707  0.0417
  809MOL0     H 6742   4.247   4.594   8.825 -0.8647 -0.2047  1.0915
  809MOL0     H 6743   4.204   4.762   8.857 -0.5606  0.2596  1.1897
  809MOL0     H 6744   4.211   4.837   8.652 -2.4548  1.0424 -1.5148
  809MOL0     H 6745   4.127   4.702   8.572  0.9320  1.7224 -0.3602
  809MOL0     H 6746   4.398   4.753   8.522  3.2158 -3.0728 -0.3297
  809MOL0     H 6747   4.408   4.683   8.685 -0.5747 -2.4898  0.3468
  809MOL0     H 6748   4.453   4.514   8.520 -0.4104 -1.4143 -0.0299
  809MOL0     H 6749   4.298   4.542   8.434 -0.2726 -1.3967  0.5206
  809MOL0     H 6750   4.391   4.347   8.382  1.7285 -1.8229 -1.1352
  809MOL0     H 6751   4.355   4.117   8.308 -1.8168 -2.4935 -0.2719
  809MOL0     H 6752   4.291   3.854   8.069  0.0203  0.7668  3.3050
  809MOL0     H 6753   4.274   3.608   7.969 -1.8491  1.9213 -1.7422
  809MOL0     H 6754   4.015   3.317   8.174  1.1705 -0.4061  1.8990
  809MOL0     H 6755   4.189   3.274   8.220  2.4377 -0.4579 -1.6633
  809MOL0     H 6756   4.182   3.166   7.987  0.4089 -2.0844 -0.2904
  809MOL0     H 6757   4.011   3.196   7.998  0.3038 -2.9205 -0.9989
  809MOL0     H 6758   4.015   3.056   8.223  2.3418  4.9391 -0.0957
  809MOL0     H 6759   4.187   3.011   8.192 -0.7427 -0.7789 -0.1767
  809MOL0     H 6760   3.949   2.945   8.020 -1.2868 -0.2681  2.5363
  809MOL0     H 6761   4.128   2.909   7.996 -0.1768  0.0313 -0.8474
  809MOL0     H 6762   3.952   2.821   8.224  1.0639  2.0060  0.1663
  809MOL0     H 6763   4.109   2.747   8.169  0.7666  0.9445 -3.8155
  809MOL0     H 6764   3.967   2.670   7.972  0.8980 -0.1010  0.3340
  809MOL0     H 6765   3.820   2.741   8.058 -1.4190 -2.3267 -0.7132
  809MOL0     H 6766   3.965   2.495   8.147 -1.5097 -2.9617 -2.3962
  809MOL0     H 6767   3.821   2.561   8.218  1.6102 -1.0619  1.3392
  809MOL0     H 6768   3.838   2.448   7.939 -3.6040  0.5588 -3.3884
  809MOL0     H 6769   3.706   2.556   7.968  1.6582 -1.5760 -2.9545
  809MOL0     H 6770   4.062   3.493   8.324 -1.4442  3.3543  1.1203
  809MOL0     H 6771   4.046   3.719   8.395  1.7989  2.4241  0.2395
  809MOL0     H 6772   4.163   4.030   8.667 -0.0001 -2.1101 -1.1404
  809MOL0     H 6773   4.184   4.262   8.749 -2.6988  1.8109 -1.1851
  809MOL0     H 6774   2.924   5.207   8.065 -0.6321 -0.4112  2.9077
  809MOL0     H 6775   2.894   5.449   8.023  1.6510 -0.4269 -3.3023
  809MOL0     H 6776   2.688   5.862   8.186 -1.8967  2.6569 -3.3840
  809MOL0     H 6777   2.666   6.080   8.157 -0.5163 -0.9230  0.2098
  809MOL0     H 6778   2.702   6.253   8.278 -1.2550 -1.5578 -2.3468
  809MOL0     H 6779   2.658   6.330   8.133 -1.2722  0.8775  0.0658
  809MOL0     H 6780   2.758   6.549   8.197 -1.3703  2.0017  0.5470
  809MOL0     H 6781   2.656   6.495   8.318 -1.1071  1.2573 -2.2760
  809MOL0     H 6782   2.924   6.403   8.397  0.4128 -1.0088 -1.2249
  809MOL0     H 6783   2.799   6.509   8.467 -0.4034 -0.4912 -1.9940
  809MOL0     H 6784   2.995   6.612   8.260 -0.6981 -2.4052  0.7658
  809MOL0     H 6785   2.872   6.708   8.350 -1.7239 -0.0227 -1.7070
  809MOL0     H 6786   3.224   6.734   8.561 -0.7159  2.0092 -0.8833
  809MOL0     H 6787   3.086   6.153   8.110  1.2882 -2.2574 -0.7463
  809MOL0     H 6788   3.113   5.884   8.151  0.9331  0.7838  3.3415
  810MOL0     O 6789   9.681   3.990   9.109 -0.0172 -0.3208 -0.3515
  810MOL0     C 6790   9.663   3.956   9.225 -0.6489  0.2880  0.2489
  810MOL0     O 6791   9.720   4.018   9.328  0.2760 -0.5465  0.1857
  810MOL0     C 6792   9.831   4.103   9.310 -0.6017 -0.1091 -0.2465
  810MOL0     C 6793   9.827   4.237   9.349  0.1893 -0.5614 -0.3277
  810MOL0     C 6794   9.945   4.311   9.345  0.0101  0.2841 -0.0754
  810MOL0     C 6795  10.064   4.247   9.301  0.0155 -0.7138 -0.2179
  810MOL0     O 6796  10.169   4.334   9.310 -0.0937 -0.7597 -0.1922
  810MOL0     C 6797  10.296   4.326   9.241 -1.3074  0.8692  0.3849
  810MOL0     C 6798  10.423   4.310   9.333  0.0492  0.4385  0.4213
  810MOL0     C 6799  10.560   4.300   9.260  0.5876  0.1231 -0.8613
  810MOL0     C 6800  10.601   4.408   9.164  0.7368 -0.0453 -0.2918
  810MOL0     C 6801  10.745   4.380   9.126 -0.2855  1.1062  0.7723
  810MOL0     C 6802  10.788   4.470   9.005  0.0158 -0.1390  0.4760
  810MOL0     C 6803  10.916   4.394   8.951 -0.1709 -0.3341 -0.0545
  810MOL0     C 6804  10.954   4.389   8.806 -0.5365  0.1440  0.4575
  810MOL0     N 6805  10.916   4.509   8.727 -0.7106 -0.8426 -0.5637
  810MOL0     C 6806  10.989   4.625   8.713 -0.3713 -0.4154 -0.3698
  810MOL0     C 6807  10.921   4.703   8.618 -0.9372  0.4750 -0.2089
  810MOL0     C 6808  10.969   4.830   8.564 -0.1679 -0.7929  0.3275
  810MOL0     C 6809  11.031   4.810   8.428 -0.8983  0.9688 -1.2746
  810MOL0     C 6810  11.058   4.939   8.361 -0.2507 -0.1545  0.0950
  810MOL0     C 6811  11.173   5.027   8.428  0.8660 -0.1409  0.0077
  810MOL0     O 6812  11.276   4.934   8.468 -0.6368 -0.7695  0.4616
  810MOL0     C 6813  11.391   4.980   8.527 -0.0898  0.9148  0.0541
  810MOL0     C 6814  11.473   4.878   8.581  0.2489 -0.1417  0.4295
  810MOL0     C 6815  11.595   4.916   8.636 -0.0047  1.1150 -0.0066
  810MOL0     C 6816  11.636   5.053   8.645  0.5719  0.9981 -0.0077
  810MOL0     C 6817  11.752   5.088   8.729 -0.2611 -0.9375 -0.0614
  810MOL0     O 6818  11.784   5.216   8.744 -0.0823  0.6269  0.3362
  810MOL0     C 6819  11.886   5.253   8.829  1.1885  0.1990 -0.0106
  810MOL0     C 6820  11.861   5.298   8.959  0.3003 -0.7774  0.4831
  810MOL0     C 6821  11.964   5.337   9.048  0.4305  0.3318 -0.2133
  810MOL0     C 6822  12.102   5.316   9.015 -0.1018  0.0066  0.7586
  810MOL0     O 6823  12.213   5.321   9.091 -0.1268 -0.0413 -0.3894
  810MOL0     C 6824  12.221   5.396   9.213  0.1183 -0.2112 -0.3545
  810MOL0     C 6825  12.293   5.531   9.200 -0.6234  0.3430 -1.1458
  810MOL0     C 6826  12.204   5.642   9.130 -0.4987  0.8111 -0.5303
  810MOL0     C 6827  12.281   5.775   9.111 -0.5833 -0.1526 -0.5570
  810MOL0     C 6828  12.370   5.817   9.224  0.2450  1.4922 -0.3064
  810MOL0     C 6829  12.419   5.960   9.201 -0.2570  0.6241  0.0510
  810MOL0     C 6830  12.564   5.962   9.254  0.0136 -0.2209  0.8962
  810MOL0     C 6831  12.619   6.105   9.264 -0.3235 -0.7343 -0.6933
  810MOL0    Cl 6832  12.662   6.179   9.105  0.1481  0.0335  0.3745
  810MOL0     C 6833  12.127   5.267   8.888 -0.3716  0.1768  0.4891
  810MOL0     C 6834  12.024   5.239   8.791 -0.7417  0.5528 -0.1681
  810MOL0     O 6835  11.820   4.992   8.767  0.2146 -0.3500 -0.6460
  810MOL0     C 6836  11.546   5.151   8.593 -0.6818 -0.3464  0.8277
  810MOL0     C 6837  11.431   5.111   8.538 -0.6209 -0.8143 -0.1935
  810MOL0     N 6838  10.806   4.635   8.590  0.9436 -0.3575 -0.2010
  810MOL0     N 6839  10.802   4.520   8.656  0.0364 -0.0227 -0.0821
  810MOL0     C 6840  10.068   4.117   9.250  0.3338 -0.1491  0.3903
  810MOL0     C 6841   9.949   4.051   9.253  0.4665  1.0081  1.4489
  810MOL0     C 6842   9.599   3.831   9.247  0.7390  0.5151  0.0917
  810MOL0     C 6843   9.605   3.727   9.143 -0.5209 -0.4727  0.1817
  810MOL0     C 6844   9.526   3.613   9.162  0.6302  0.5368  0.2350
  810MOL0     C 6845   9.435   3.604   9.265  0.2614  0.4652 -0.3692
  810MOL0     O 6846   9.360   3.491   9.287  0.2262 -0.2546  0.2139
  810MOL0     C 6847   9.335   3.402   9.170  0.6234  0.3180 -0.3419
  810MOL0     C 6848   9.248   3.469   9.071 -1.3245 -0.4809  0.6523
  810MOL0     C 6849   9.108   3.480   9.116 -0.3221  0.8242 -0.0380
  810MOL0     C 6850   9.022   3.562   9.020  0.1459 -0.7029 -0.0498
  810MOL0     C 6851   8.886   3.584   9.076 -0.2073 -0.4874  0.4863
  810MOL0     C 6852   8.770   3.607   9.106 -0.4552 -0.2152  1.4845
  810MOL0     C 6853   9.435   3.700   9.367  0.4225  0.2850 -0.1829
  810MOL0     C 6854   9.517   3.811   9.363  0.3121 -0.0851  0.2498
  810MOL0     H 6855   9.740   4.288   9.391  0.5419  0.5994 -0.9556
  810MOL0     H 6856   9.929   4.414   9.375  0.7061  0.8912 -1.6315
  810MOL0     H 6857  10.308   4.419   9.186  0.6435  0.5786  0.2446
  810MOL0     H 6858  10.289   4.245   9.168 -1.5988  3.1307 -2.2853
  810MOL0     H 6859  10.406   4.220   9.393  3.0724 -1.5822 -1.4750
  810MOL0     H 6860  10.421   4.400   9.395  1.4394  3.2558 -3.1892
  810MOL0     H 6861  10.554   4.202   9.213  3.5995 -1.3445  1.4322
  810MOL0     H 6862  10.640   4.297   9.336  2.0741 -1.5957 -2.4162
  810MOL0     H 6863  10.531   4.411   9.080  1.1542 -2.4142 -0.8098
  810MOL0     H 6864  10.598   4.502   9.219  1.9137  0.0206 -0.3137
  810MOL0     H 6865  10.757   4.273   9.106 -0.0613  0.8512  2.1337
  810MOL0     H 6866  10.810   4.406   9.210  1.4552 -1.1107  0.1967
  810MOL0     H 6867  10.825   4.563   9.049 -1.7797  0.0580  1.6967
  810MOL0     H 6868  10.716   4.481   8.924 -0.9909  0.2275  1.3944
  810MOL0     H 6869  10.995   4.442   9.010  0.9942 -1.4025 -0.7108
  810MOL0     H 6870  10.931   4.291   8.983  2.1441  0.7672  2.9312
  810MOL0     H 6871  10.908   4.307   8.749  0.3644 -0.7141  0.9525
  810MOL0     H 6872  11.060   4.366   8.792 -0.6758  0.3423 -1.2466
  810MOL0     H 6873  11.091   4.639   8.749 -0.8072 -2.1948  1.8304
  810MOL0     H 6874  11.035   4.874   8.639  0.1855 -2.2096  0.8721
  810MOL0     H 6875  10.884   4.898   8.550 -1.1805 -1.1825  3.8343
  810MOL0     H 6876  10.966   4.767   8.351  0.8999  2.6903 -3.9085
  810MOL0     H 6877  11.116   4.743   8.444 -1.3549  0.6033 -0.3391
  810MOL0     H 6878  11.086   4.918   8.258 -0.8758  1.0274 -0.3380
  810MOL0     H 6879  10.971   5.005   8.356 -0.4377 -0.1572  2.1958
  810MOL0     H 6880  11.129   5.076   8.516  0.6480  0.3098 -0.3535
  810MOL0     H 6881  11.188   5.111   8.360 -1.2702 -1.5388 -2.3657
  810MOL0     H 6882  11.432   4.778   8.590  0.1722 -0.0140  1.6678
  810MOL0     H 6883  11.661   4.835   8.663 -1.9463 -1.0196 -1.3053
  810MOL0     H 6884  11.756   5.316   8.982  0.1233  2.7537 -2.1696
  810MOL0     H 6885  11.960   5.393   9.140 -1.4866 -0.2042  0.0785
  810MOL0     H 6886  12.278   5.328   9.276  2.0068  0.7009 -1.0184
  810MOL0     H 6887  12.120   5.421   9.249 -1.6756 -4.6917 -1.6179
  810MOL0     H 6888  12.386   5.517   9.143  0.9871  0.4171  1.3357
  810MOL0     H 6889  12.314   5.566   9.301 -1.9389 -0.0771 -0.7108
  810MOL0     H 6890  12.119   5.661   9.197  0.0428  0.0328  0.4108
  810MOL0     H 6891  12.172   5.598   9.035  1.1120  0.0380 -0.7520
  810MOL0     H 6892  12.341   5.772   9.020  1.6972  1.4369  0.7838
  810MOL0     H 6893  12.195   5.842   9.097 -1.2887 -1.2021 -1.4130
  810MOL0     H 6894  12.452   5.745   9.233 -0.2717  1.1513  2.6361
  810MOL0     H 6895  12.315   5.812   9.318 -0.5331  1.6653 -0.7472
  810MOL0     H 6896  12.351   6.035   9.241 -2.4210 -0.9629 -0.4861
  810MOL0     H 6897  12.428   5.970   9.092  0.3901 -0.6313 -0.0338
  810MOL0     H 6898  12.570   5.919   9.354 -1.7299  2.5191  2.3245
  810MOL0     H 6899  12.634   5.904   9.193 -1.4931 -1.0661 -0.1040
  810MOL0     H 6900  12.714   6.112   9.317 -1.2426  1.5334  0.8022
  810MOL0     H 6901  12.540   6.166   9.309 -0.6192 -2.8744  1.9260
  810MOL0     H 6902  12.226   5.237   8.856 -2.2098 -2.8646 -3.0704
  810MOL0     H 6903  12.045   5.177   8.705  0.3322 -0.2630  0.6524
  810MOL0     H 6904  11.570   5.256   8.602  0.4620 -0.6144  1.1466
  810MOL0     H 6905  11.379   5.190   8.484 -0.4582  0.7382  1.7931
  810MOL0     H 6906  10.159   4.070   9.213  0.2520 -0.6082  0.7564
  810MOL0     H 6907   9.945   3.949   9.218  2.8834  0.6450  2.0861
  810MOL0     H 6908   9.650   3.710   9.046 -2.5329 -1.6879 -0.5816
  810MOL0     H 6909   9.539   3.537   9.086 -2.2185 -2.3516  2.3512
  810MOL0     H 6910   9.276   3.317   9.206 -1.4679  0.9109 -2.1715
  810MOL0     H 6911   9.432   3.361   9.142  0.5547 -2.6494  2.9224
  810MOL0     H 6912   9.291   3.568   9.050 -1.2473 -0.5698  0.3919
  810MOL0     H 6913   9.255   3.407   8.982  1.0650  0.3606  0.1668
  810MOL0     H 6914   9.115   3.521   9.217 -1.8872 -4.6429  2.6898
  810MOL0     H 6915   9.065   3.383   9.141  1.1196  0.2046  0.1147
  810MOL0     H 6916   9.071   3.653   8.984 -0.0293 -1.0165 -1.1470
  810MOL0     H 6917   9.008   3.505   8.927  1.6420 -2.4521  0.7461
  810MOL0     H 6918   8.666   3.628   9.119 -0.5282  0.8665 -0.4699
  810MOL0     H 6919   9.354   3.700   9.440 -1.1021  1.2402 -1.7785
  810MOL0     H 6920   9.515   3.889   9.438 -2.3429  0.4752 -0.3091
  811MOL0     O 6921   5.379   1.517   0.284  0.0597  0.0115 -0.5817
  811MOL0     C 6922   5.399   1.439   0.373 -0.4726  0.2256 -0.7386
  811MOL0     O 6923   5.310   1.379   0.459 -0.0966  0.3238  0.2800
  811MOL0     C 6924   5.177   1.400   0.447 -0.5136  0.1281  1.2567
  811MOL0     C 6925   5.091   1.296   0.403  0.3328 -0.4272  0.6792
  811MOL0     C 6926   4.955   1.315   0.394  0.0657 -0.4774 -0.0465
  811MOL0     C 6927   4.906   1.450   0.413 -0.4710  0.8005 -0.3751
  811MOL0     O 6928   4.777   1.486   0.396  0.7497 -0.5335  0.0614
  811MOL0     C 6929   4.715   1.426   0.286 -0.8495 -0.2464 -0.0533
  811MOL0     C 6930   4.597   1.340   0.324  0.0184  1.0269 -1.3318
  811MOL0     C 6931   4.494   1.327   0.213 -0.3705  0.1400  0.1460
  811MOL0     C 6932   4.380   1.235   0.252  0.0942  0.2871  1.1471
  811MOL0     C 6933   4.290   1.302   0.357  1.4406  0.1811  0.0746
  811MOL0     C 6934   4.162   1.230   0.390 -0.4109 -0.1147 -0.2261
  811MOL0     C 6935   4.048   1.260   0.296 -0.1936 -0.1249 -0.6643
  811MOL0     C 6936   4.005   1.412   0.313 -0.0668  0.5630  0.1013
  811MOL0     N 6937   3.875   1.420   0.253  0.7673  0.4255  0.2996
  811MOL0     C 6938   3.758   1.411   0.323 -1.4254  0.9723  0.0770
  811MOL0     C 6939   3.662   1.459   0.237  0.4828 -0.2144 -0.1719
  811MOL0     C 6940   3.518   1.459   0.279 -0.3599  0.7351 -0.2373
  811MOL0     C 6941   3.446   1.327   0.230 -0.2385 -0.6376 -0.0775
  811MOL0     C 6942   3.421   1.331   0.076 -0.4793 -0.7743 -0.6384
  811MOL0     C 6943   3.345   1.199   0.035 -0.1024 -0.3534 -0.6329
  811MOL0     O 6944   3.247   1.169   0.134  0.8275  0.3744 -0.4114
  811MOL0     C 6945   3.148   1.084   0.101 -1.1338  0.8851  0.7395
  811MOL0     C 6946   3.159   0.980   0.005 -0.1723  0.0334  0.5305
  811MOL0     C 6947   3.049   0.897  -0.026  0.6687 -0.2394 -0.0326
  811MOL0     C 6948   2.926   0.914   0.036  0.1903  0.0737 -0.2605
  811MOL0     C 6949   2.808   0.827   0.014  0.2937  0.5751  0.1486
  811MOL0     O 6950   2.830   0.736  -0.087 -0.0887 -0.0225  0.0675
  811MOL0     C 6951   2.726   0.653  -0.121  1.3632 -0.4665  0.0309
  811MOL0     C 6952   2.597   0.701  -0.165  0.3527  0.0287 -0.6985
  811MOL0     C 6953   2.496   0.609  -0.185  0.1094 -0.1766 -0.3336
  811MOL0     C 6954   2.512   0.470  -0.178 -0.3933  0.4965  0.0859
  811MOL0     O 6955   2.412   0.382  -0.187  0.2218 -0.4513  0.6516
  811MOL0     C 6956   2.406   0.284  -0.085  0.5611 -0.7311  1.3518
  811MOL0     C 6957   2.262   0.248  -0.041  0.0973  0.2420 -0.7384
  811MOL0     C 6958   2.185   0.142  -0.123  0.2980 -0.1866  0.7812
  811MOL0     C 6959   2.038   0.147  -0.085  0.6285 -0.7531 -0.1317
  811MOL0     C 6960   1.968   0.022  -0.140  0.1489 -1.0280 -0.6607
  811MOL0     C 6961   1.821   0.037  -0.094  0.5250 -0.4390 -0.6900
  811MOL0     C 6962   1.735  -0.076  -0.126 -0.8542  1.0032 -0.2579
  811MOL0     C 6963   1.675  -0.059  -0.270 -0.2525 -0.0875 -1.1714
  811MOL0    Cl 6964   1.532   0.053  -0.268  0.2743 -0.3333  0.0760
  811MOL0     C 6965   2.645   0.417  -0.141 -0.4067 -0.0007  0.0949
  811MOL0     C 6966   2.747   0.509  -0.120 -0.3869  0.3275 -0.3242
  811MOL0     O 6967   2.711   0.819   0.099 -0.3050 -0.3528  0.4425
  811MOL0     C 6968   2.917   1.016   0.129 -0.1153  0.7391  0.5916
  811MOL0     C 6969   3.023   1.099   0.159 -0.4111 -0.7321 -0.2148
  811MOL0     N 6970   3.722   1.509   0.128 -0.8403  0.1830 -0.9887
  811MOL0     N 6971   3.850   1.487   0.138  0.6666 -0.0942 -0.8153
  811MOL0     C 6972   4.989   1.555   0.441 -1.1180  0.2292 -0.7953
  811MOL0     C 6973   5.127   1.526   0.457  0.0938 -0.8269  1.2353
  811MOL0     C 6974   5.547   1.402   0.383  0.2584  0.5298  0.1391
  811MOL0     C 6975   5.590   1.323   0.490 -0.4397  0.2056  0.1279
  811MOL0     C 6976   5.727   1.292   0.518 -0.1095  0.9155  0.0687
  811MOL0     C 6977   5.823   1.331   0.422  1.0143 -0.2576  0.0412
  811MOL0     O 6978   5.954   1.301   0.435 -0.3189 -0.5843  0.2235
  811MOL0     C 6979   6.032   1.397   0.518  0.6577  0.5446 -0.3164
  811MOL0     C 6980   6.170   1.347   0.565 -0.0630  0.5478  1.0172
  811MOL0     C 6981   6.270   1.357   0.439 -0.9552 -0.5238 -0.0328
  811MOL0     C 6982   6.422   1.379   0.476 -0.2095 -0.0905  0.0525
  811MOL0     C 6983   6.469   1.262   0.550  0.5247 -0.1659 -0.0948
  811MOL0     C 6984   6.527   1.167   0.589 -0.1468  0.2173  0.0267
  811MOL0     C 6985   5.773   1.411   0.311 -0.1093 -0.0439  0.0671
  811MOL0     C 6986   5.640   1.435   0.294  1.2059 -0.6535  0.3076
  811MOL0     H 6987   5.140   1.202   0.377  1.4644  0.6180 -1.2973
  811MOL0     H 6988   4.905   1.229   0.351  0.5816 -2.2175  2.6183
  811MOL0     H 6989   4.787   1.374   0.223  0.2506  2.9770 -1.6690
  811MOL0     H 6990   4.681   1.514   0.231 -0.9637 -0.2301  0.0422
  811MOL0     H 6991   4.556   1.367   0.421 -2.4252 -1.0579 -1.6834
  811MOL0     H 6992   4.629   1.237   0.337 -2.4679  0.4521  1.3625
  811MOL0     H 6993   4.554   1.291   0.129 -1.6897 -0.8762 -0.4105
  811MOL0     H 6994   4.456   1.426   0.187  0.7998  1.1819  2.1240
  811MOL0     H 6995   4.331   1.203   0.160  2.8183 -2.2313  0.4100
  811MOL0     H 6996   4.421   1.143   0.294  0.7474  0.9342  1.9674
  811MOL0     H 6997   4.263   1.400   0.316 -0.5386  0.1611  1.1764
  811MOL0     H 6998   4.344   1.325   0.449  0.0798  1.3584  0.6320
  811MOL0     H 6999   4.137   1.260   0.492  2.0285 -2.6573  1.2590
  811MOL0     H 7000   4.182   1.123   0.394 -2.2370 -0.5836 -1.8597
  811MOL0     H 7001   4.073   1.241   0.192  1.2572 -0.6936 -0.2331
  811MOL0     H 7002   3.962   1.197   0.321  1.6398 -1.8620  1.7810
  811MOL0     H 7003   4.079   1.477   0.266  0.3617  1.9755  2.6063
  811MOL0     H 7004   3.997   1.440   0.418 -1.5605  0.6937 -0.0257
  811MOL0     H 7005   3.730   1.375   0.422 -3.0109  1.8363 -0.0238
  811MOL0     H 7006   3.468   1.548   0.240 -1.2739 -0.6177 -2.3594
  811MOL0     H 7007   3.525   1.466   0.388 -1.3536  0.9195 -0.1728
  811MOL0     H 7008   3.351   1.319   0.282 -0.1101 -1.6744  0.0111
  811MOL0     H 7009   3.500   1.238   0.264 -0.2259 -0.3973  0.5528
  811MOL0     H 7010   3.349   1.409   0.049 -1.1732 -0.8111  0.9663
  811MOL0     H 7011   3.521   1.327   0.032  0.2198 -1.8530  0.9521
  811MOL0     H 7012   3.424   1.124   0.035  0.8713  0.6302 -0.0374
  811MOL0     H 7013   3.298   1.205  -0.063 -2.7722  0.6421  0.6134
  811MOL0     H 7014   3.246   0.977  -0.060 -1.3401  0.8102 -1.1505
  811MOL0     H 7015   3.057   0.817  -0.100 -0.3352 -2.6649  2.3197
  811MOL0     H 7016   2.583   0.808  -0.178  0.1568 -0.1165 -1.8051
  811MOL0     H 7017   2.397   0.652  -0.197 -0.4849 -1.0426  1.1772
  811MOL0     H 7018   2.461   0.310   0.006 -0.7271  0.4689  1.8278
  811MOL0     H 7019   2.438   0.187  -0.125  0.3579  0.9890 -3.6853
  811MOL0     H 7020   2.203   0.340  -0.045 -0.5843 -0.1462  0.0320
  811MOL0     H 7021   2.267   0.215   0.063  0.5612  1.9566 -0.1846
  811MOL0     H 7022   2.229   0.043  -0.109  1.4780  0.3322  0.8626
  811MOL0     H 7023   2.188   0.169  -0.229 -0.6317 -3.0606 -0.0775
  811MOL0     H 7024   2.028   0.144   0.024 -1.7332 -0.3941 -0.3000
  811MOL0     H 7025   2.001   0.243  -0.124  1.0405 -0.1784  0.8552
  811MOL0     H 7026   2.005  -0.075  -0.106 -1.9298 -1.3914  0.8135
  811MOL0     H 7027   1.971   0.019  -0.249 -0.8732 -0.4085 -0.7146
  811MOL0     H 7028   1.782   0.127  -0.143  2.3234 -0.0621 -1.4925
  811MOL0     H 7029   1.822   0.039   0.015 -1.4490 -1.9787 -0.5724
  811MOL0     H 7030   1.801  -0.163  -0.135  0.6186  1.9811  0.7241
  811MOL0     H 7031   1.660  -0.093  -0.049 -1.4004 -0.6213 -1.0889
  811MOL0     H 7032   1.634  -0.149  -0.317  1.0321  0.0656 -2.6652
  811MOL0     H 7033   1.755  -0.019  -0.332 -0.9695 -0.6158 -2.4960
  811MOL0     H 7034   2.657   0.309  -0.131 -0.8988 -0.2177 -1.3530
  811MOL0     H 7035   2.846   0.468  -0.103 -1.3768 -1.7968  0.6764
  811MOL0     H 7036   2.817   1.025   0.169 -1.3716 -1.8227 -1.7063
  811MOL0     H 7037   3.014   1.188   0.220  1.4313  0.4491 -1.5673
  811MOL0     H 7038   4.946   1.655   0.451 -0.9669  0.0576  3.1145
  811MOL0     H 7039   5.187   1.615   0.472 -1.1294  0.4327 -0.8864
  811MOL0     H 7040   5.523   1.302   0.573  1.6919  3.1194  2.8605
  811MOL0     H 7041   5.751   1.233   0.607 -0.8126  4.0647  2.5555
  811MOL0     H 7042   5.974   1.416   0.609  3.4241  1.6571  1.3443
  811MOL0     H 7043   6.037   1.491   0.463 -0.6177 -0.6616 -2.6082
  811MOL0     H 7044   6.203   1.405   0.651 -1.2880 -0.1850  2.0129
  811MOL0     H 7045   6.170   1.242   0.595 -0.3298  0.2553  0.0346
  811MOL0     H 7046   6.227   1.435   0.375  1.0034  1.1254  0.5681
  811MOL0     H 7047   6.264   1.270   0.374  1.7841 -1.2113  0.5194
  811MOL0     H 7048   6.499   1.385   0.398 -0.4440 -2.0046 -0.3828
  811MOL0     H 7049   6.430   1.471   0.535  1.3767 -0.9014  1.1657
  811MOL0     H 7050   6.579   1.105   0.660 -0.2386  0.0602 -0.0413
  811MOL0     H 7051   5.835   1.437   0.226 -1.6801  3.3000 -0.2018
  811MOL0     H 7052   5.618   1.497   0.208  0.1898 -0.3094  0.8066
  812MOL0     O 7053   6.798   9.609   6.396 -0.4411  0.4776 -0.3622
  812MOL0     C 7054   6.830   9.709   6.340  0.6836 -0.5270  0.7627
  812MOL0     O 7055   6.861   9.828   6.400  0.7662 -0.4904 -0.5303
  812MOL0     C 7056   6.874   9.833   6.542 -1.0829 -0.0660  0.2292
  812MOL0     C 7057   6.997   9.879   6.597  0.0947 -0.1656 -0.2850
  812MOL0     C 7058   7.013   9.876   6.734 -0.4719 -0.3275  1.2696
  812MOL0     C 7059   6.897   9.848   6.818 -0.2483 -0.1954 -0.0693
  812MOL0     O 7060   6.934   9.851   6.946  0.2711 -0.3946 -0.1584
  812MOL0     C 7061   6.842   9.825   7.049 -0.7988  0.2184  0.1700
  812MOL0     C 7062   6.905   9.860   7.188 -0.7171  0.6653 -0.0776
  812MOL0     C 7063   6.950  10.003   7.181  0.3116  0.3545  0.2329
  812MOL0     C 7064   6.950  10.052   7.328  0.3274 -0.0858 -0.3334
  812MOL0     C 7065   7.040  10.172   7.339  0.2407  0.1999 -1.5842
  812MOL0     C 7066   6.999  10.285   7.250 -0.1825  0.2716  0.3826
  812MOL0     C 7067   7.083  10.409   7.275  0.8624  0.8282  0.0893
  812MOL0     C 7068   7.023  10.524   7.190  0.5831 -0.5999 -0.1020
  812MOL0     N 7069   6.899  10.563   7.250  0.5517 -0.3058  0.2656
  812MOL0     C 7070   6.779  10.543   7.187 -0.0319  0.6047 -0.0748
  812MOL0     C 7071   6.686  10.574   7.284 -0.0667 -0.3115  0.5840
  812MOL0     C 7072   6.535  10.561   7.268 -0.4593 -0.1818 -0.7479
  812MOL0     C 7073   6.496  10.410   7.249 -0.1908  0.4877  0.3995
  812MOL0     C 7074   6.500  10.319   7.378  0.4586 -0.6297 -0.7057
  812MOL0     C 7075   6.456  10.179   7.345 -0.3082 -0.1365  1.1704
  812MOL0     O 7076   6.560  10.094   7.285 -0.6493 -0.4431  0.8726
  812MOL0     C 7077   6.524  10.005   7.193 -0.1974 -0.1716  0.4502
  812MOL0     C 7078   6.464  10.046   7.070 -1.0132 -0.4908  0.7019
  812MOL0     C 7079   6.412   9.946   6.988 -0.5481 -0.0153 -0.5628
  812MOL0     C 7080   6.431   9.806   7.019  0.4050  0.4070  0.5893
  812MOL0     C 7081   6.394   9.698   6.923  0.2852 -0.2140 -0.2300
  812MOL0     O 7082   6.386   9.571   6.976 -0.7135 -0.2229 -0.3921
  812MOL0     C 7083   6.369   9.451   6.911  0.0254 -0.4515 -0.7173
  812MOL0     C 7084   6.367   9.442   6.769 -0.2075  0.3072 -0.4961
  812MOL0     C 7085   6.326   9.326   6.708 -0.0711  0.2838  0.0271
  812MOL0     C 7086   6.286   9.210   6.774  0.2884  0.3214 -0.2221
  812MOL0     O 7087   6.234   9.108   6.698 -0.0265  0.1638  0.5966
  812MOL0     C 7088   6.171   8.992   6.760  0.0201  0.2836 -0.1094
  812MOL0     C 7089   6.121   8.886   6.648  0.6927  0.5949 -0.5044
  812MOL0     C 7090   6.217   8.850   6.529 -0.2040  0.0439 -0.5611
  812MOL0     C 7091   6.370   8.846   6.567  0.1702  0.0358 -0.3333
  812MOL0     C 7092   6.455   8.790   6.459 -0.4035  0.6749  0.2048
  812MOL0     C 7093   6.445   8.644   6.443  0.3922  0.2692  0.7474
  812MOL0     C 7094   6.547   8.601   6.327  0.2301  0.4519  0.7751
  812MOL0     C 7095   6.530   8.459   6.280 -0.9533 -0.2868 -0.5947
  812MOL0    Cl 7096   6.675   8.408   6.178  0.2397 -0.2581  0.1317
  812MOL0     C 7097   6.294   9.218   6.919  0.7375 -0.0623  0.6627
  812MOL0     C 7098   6.333   9.338   6.985  0.6490 -0.8376  0.6036
  812MOL0     O 7099   6.389   9.726   6.808  0.3036 -0.1006  0.3294
  812MOL0     C 7100   6.467   9.776   7.145 -0.0146 -0.1562  0.1453
  812MOL0     C 7101   6.515   9.873   7.233 -0.4949  0.6783  0.2147
  812MOL0     N 7102   6.761  10.605   7.393 -0.6525  0.5144 -0.6820
  812MOL0     N 7103   6.889  10.593   7.373  0.2457 -0.3767  0.3980
  812MOL0     C 7104   6.771   9.822   6.756  0.1188  0.7405 -0.3311
  812MOL0     C 7105   6.762   9.811   6.618 -0.0223  0.2056 -0.0745
  812MOL0     C 7106   6.841   9.699   6.184  0.0958  0.0809 -0.6457
  812MOL0     C 7107   6.840   9.564   6.121  0.3905  0.3202 -0.3673
  812MOL0     C 7108   6.878   9.554   5.988  0.2785 -0.3415  0.4449
  812MOL0     C 7109   6.902   9.667   5.908 -0.4193 -0.0054 -1.1766
  812MOL0     O 7110   6.920   9.691   5.779  0.0248  1.3263 -0.2365
  812MOL0     C 7111   6.966   9.581   5.704  0.0202 -0.3840  0.0951
  812MOL0     C 7112   6.843   9.504   5.642  0.4799 -0.0560  0.7503
  812MOL0     C 7113   6.774   9.582   5.523 -0.0291  0.2964  0.8127
  812MOL0     C 7114   6.650   9.498   5.492 -0.3252  1.0768  0.2708
  812MOL0     C 7115   6.685   9.374   5.417  0.2256  0.9345  0.1477
  812MOL0     C 7116   6.707   9.268   5.366  0.1357 -0.5013  0.0650
  812MOL0     C 7117   6.902   9.791   5.979 -0.3709  0.3551  0.3260
  812MOL0     C 7118   6.878   9.804   6.111 -0.0627 -1.0035 -0.7295
  812MOL0     H 7119   7.090   9.897   6.545  0.2054 -0.2548 -0.1199
  812MOL0     H 7120   7.109   9.902   6.779  1.1544  1.0321 -2.5714
  812MOL0     H 7121   6.814   9.719   7.055  0.6053 -0.0970  4.1004
  812MOL0     H 7122   6.753   9.884   7.027 -0.9129 -0.1455 -0.3752
  812MOL0     H 7123   6.996   9.804   7.208  0.7166  2.5423 -0.9407
  812MOL0     H 7124   6.836   9.842   7.271  2.0470  1.9686  2.6659
  812MOL0     H 7125   6.877  10.072   7.139  0.7741  0.7830  0.1362
  812MOL0     H 7126   7.048  10.005   7.132 -1.4227 -1.9635 -3.8276
  812MOL0     H 7127   6.850  10.076   7.364  0.6550 -0.2390  0.7081
  812MOL0     H 7128   6.991   9.981   7.401 -3.1717  0.5708  2.5379
  812MOL0     H 7129   7.134  10.147   7.288  1.2254 -0.1913  0.3098
  812MOL0     H 7130   7.063  10.212   7.439  0.3644  2.1123 -2.3331
  812MOL0     H 7131   6.893  10.311   7.258 -0.8957 -1.1914 -2.7396
  812MOL0     H 7132   7.035  10.250   7.153  1.6939 -0.6341  1.3525
  812MOL0     H 7133   7.074  10.434   7.381 -1.8825 -1.4266  0.5142
  812MOL0     H 7134   7.188  10.391   7.251  0.2689 -1.3277 -1.1868
  812MOL0     H 7135   6.992  10.498   7.088 -3.2114 -1.1493  1.0336
  812MOL0     H 7136   7.092  10.608   7.195  0.1129 -0.2322  0.2027
  812MOL0     H 7137   6.759  10.480   7.101 -2.1626 -3.9546  3.3578
  812MOL0     H 7138   6.495  10.618   7.184 -4.3020 -0.2351  0.8456
  812MOL0     H 7139   6.477  10.607   7.349  2.2122  1.3855  0.3934
  812MOL0     H 7140   6.563  10.367   7.174 -0.3959 -0.4873  0.7563
  812MOL0     H 7141   6.398  10.408   7.201 -0.3716  3.3457  0.5275
  812MOL0     H 7142   6.605  10.319   7.407  0.2145  0.0743  0.2009
  812MOL0     H 7143   6.438  10.372   7.451  1.2715  0.4939 -0.7951
  812MOL0     H 7144   6.372  10.176   7.276 -0.0353 -0.3902  0.8446
  812MOL0     H 7145   6.419  10.129   7.435 -0.9167  0.7441  1.4270
  812MOL0     H 7146   6.471  10.150   7.040  2.7042 -0.1979  2.1363
  812MOL0     H 7147   6.369   9.981   6.894 -0.0368  1.1766 -0.3641
  812MOL0     H 7148   6.394   9.518   6.696  0.5815 -2.9488 -3.9337
  812MOL0     H 7149   6.301   9.329   6.602 -0.7468 -1.9704  0.0701
  812MOL0     H 7150   6.091   9.013   6.832  0.1304  2.5238 -0.5846
  812MOL0     H 7151   6.240   8.936   6.824 -2.7971 -0.1622  2.8521
  812MOL0     H 7152   6.027   8.912   6.598 -0.8666  1.5282  2.6271
  812MOL0     H 7153   6.092   8.796   6.703 -0.8826 -0.6554 -3.1843
  812MOL0     H 7154   6.215   8.910   6.438 -0.9365  1.6555  0.4764
  812MOL0     H 7155   6.182   8.749   6.505 -1.5788  0.1282  0.9118
  812MOL0     H 7156   6.394   8.952   6.580 -2.2181  0.8879 -2.2429
  812MOL0     H 7157   6.403   8.794   6.658 -1.6053 -1.7674 -0.6634
  812MOL0     H 7158   6.558   8.828   6.460  1.3532 -3.2903 -2.2379
  812MOL0     H 7159   6.420   8.824   6.361  1.4190  2.7539  0.1852
  812MOL0     H 7160   6.343   8.616   6.414  0.1540 -0.8963  2.5472
  812MOL0     H 7161   6.464   8.588   6.535  0.3452  1.5631  1.5749
  812MOL0     H 7162   6.540   8.662   6.237  2.8945 -1.5358 -0.9195
  812MOL0     H 7163   6.647   8.621   6.368 -0.1856 -0.0829  2.1190
  812MOL0     H 7164   6.432   8.443   6.234 -2.4564  0.3479  2.1714
  812MOL0     H 7165   6.528   8.389   6.364 -1.3830 -0.6773 -0.9255
  812MOL0     H 7166   6.277   9.130   6.979 -0.6676  0.7609  1.5313
  812MOL0     H 7167   6.349   9.334   7.093  2.3781  2.0617  0.5677
  812MOL0     H 7168   6.457   9.673   7.177  0.3440 -0.1077  0.4186
  812MOL0     H 7169   6.539   9.857   7.338 -1.1483  2.2853  0.6407
  812MOL0     H 7170   6.683   9.818   6.819  1.9982  0.5367  2.4607
  812MOL0     H 7171   6.665   9.810   6.569 -0.4315  0.4398  0.6971
  812MOL0     H 7172   6.818   9.482   6.188  1.5808  0.5807  0.3701
  812MOL0     H 7173   6.872   9.461   5.932 -2.8443 -1.0497  1.7509
  812MOL0     H 7174   7.024   9.510   5.764  0.8293  0.4675  0.3415
  812MOL0     H 7175   7.033   9.616   5.625 -0.0793  0.6151  0.4391
  812MOL0     H 7176   6.874   9.407   5.602 -1.8734 -0.5463 -0.0162
  812MOL0     H 7177   6.778   9.473   5.724 -0.7779 -3.3063 -1.3074
  812MOL0     H 7178   6.845   9.590   5.441  0.2662  1.7269  1.1750
  812MOL0     H 7179   6.747   9.684   5.555  2.3843  0.7157  1.7256
  812MOL0     H 7180   6.598   9.464   5.581  0.3969 -3.0182 -0.6840
  812MOL0     H 7181   6.585   9.559   5.428 -0.3138  2.2448  1.3228
  812MOL0     H 7182   6.729   9.178   5.312  0.6645 -0.6784  0.5687
  812MOL0     H 7183   6.933   9.880   5.925  2.8210 -0.0772  1.2572
  812MOL0     H 7184   6.891   9.903   6.154  3.0883 -1.6758  0.1253
  813MOL0     O 7185   2.989   4.301  10.071  0.1670 -0.3164  0.0038
  813MOL0     C 7186   3.018   4.345  10.185  0.3224 -0.1215 -0.2699
  813MOL0     O 7187   3.043   4.274  10.301 -0.7811 -0.8463 -0.2623
  813MOL0     C 7188   3.075   4.147  10.281 -1.0112 -0.4869 -0.0153
  813MOL0     C 7189   3.214   4.110  10.289  0.2475  0.2197 -0.2108
  813MOL0     C 7190   3.257   3.977  10.272 -0.2296 -0.3122  0.9825
  813MOL0     C 7191   3.154   3.884  10.258 -0.1292 -0.6608  0.5459
  813MOL0     O 7192   3.199   3.751  10.251 -0.4947 -0.2092  0.5845
  813MOL0     C 7193   3.133   3.655  10.330 -0.3182 -0.6103 -0.0011
  813MOL0     C 7194   3.191   3.514  10.328 -0.4888  0.2567  0.1994
  813MOL0     C 7195   3.218   3.453  10.185 -0.9938  0.6350 -2.1440
  813MOL0     C 7196   3.088   3.406  10.112 -0.2555 -0.6022  0.5929
  813MOL0     C 7197   3.100   3.432   9.964  0.0038 -0.1423  0.8369
  813MOL0     C 7198   3.187   3.339   9.900 -0.4406  0.3622 -0.7916
  813MOL0     C 7199   3.237   3.400   9.758 -0.1023  0.9796 -0.5683
  813MOL0     C 7200   3.342   3.314   9.691  0.4659  0.7241 -1.0009
  813MOL0     N 7201   3.393   3.365   9.571  0.8808 -2.0238 -0.1594
  813MOL0     C 7202   3.342   3.360   9.449  1.1739 -0.4302  0.1882
  813MOL0     C 7203   3.415   3.430   9.364 -0.1717 -0.9210  0.8948
  813MOL0     C 7204   3.384   3.444   9.215 -0.2109 -1.1576  0.5943
  813MOL0     C 7205   3.336   3.592   9.177  1.1076  0.6089  0.2465
  813MOL0     C 7206   3.438   3.694   9.186 -0.7652  0.5768  0.3312
  813MOL0     C 7207   3.374   3.829   9.153  0.9100 -0.7178 -0.5927
  813MOL0     O 7208   3.415   3.860   9.014  0.0230  0.6935 -0.7478
  813MOL0     C 7209   3.373   3.981   8.954 -0.8829  0.4544  0.3160
  813MOL0     C 7210   3.255   4.053   8.978  0.0088  0.2867 -0.2482
  813MOL0     C 7211   3.210   4.168   8.902 -0.6501  1.5910 -0.2112
  813MOL0     C 7212   3.297   4.218   8.804  0.7278 -0.2195  0.5466
  813MOL0     C 7213   3.265   4.343   8.725 -0.1400  0.2513 -0.9558
  813MOL0     O 7214   3.128   4.369   8.701  0.4997  0.6528  0.2157
  813MOL0     C 7215   3.086   4.479   8.629  0.2831  0.1993 -0.3536
  813MOL0     C 7216   3.002   4.455   8.513  1.0332 -0.9379 -0.0867
  813MOL0     C 7217   2.952   4.563   8.441  0.6940  0.1520  0.4845
  813MOL0     C 7218   3.002   4.688   8.471 -0.3599 -0.6315 -0.0951
  813MOL0     O 7219   2.967   4.797   8.399  0.9489 -0.2730  0.4409
  813MOL0     C 7220   2.889   4.893   8.469 -0.2506 -0.5560  0.0721
  813MOL0     C 7221   2.763   4.841   8.535  0.8306  0.0937 -0.7372
  813MOL0     C 7222   2.653   4.953   8.542  0.0474 -0.9336 -0.9064
  813MOL0     C 7223   2.533   4.897   8.613 -0.8593  0.3412  0.0079
  813MOL0     C 7224   2.430   4.999   8.679 -1.6172  0.3461  0.3405
  813MOL0     C 7225   2.343   5.072   8.572  0.5215 -0.0650  0.6571
  813MOL0     C 7226   2.251   5.170   8.640 -0.3065  0.3911  0.3085
  813MOL0     C 7227   2.139   5.226   8.557 -0.0123  0.5358  0.2985
  813MOL0    Cl 7228   2.188   5.290   8.398 -0.1037  0.2837  0.0889
  813MOL0     C 7229   3.097   4.710   8.569 -0.7172 -0.8781 -0.6461
  813MOL0     C 7230   3.135   4.607   8.653 -0.0079  0.4623  0.0563
  813MOL0     O 7231   3.355   4.418   8.687 -0.0565 -1.0680 -0.2278
  813MOL0     C 7232   3.420   4.152   8.780  0.2373  0.5726 -0.7238
  813MOL0     C 7233   3.454   4.042   8.854  0.0362 -0.2867 -0.5494
  813MOL0     N 7234   3.516   3.493   9.442 -0.7608  0.0127  0.3130
  813MOL0     N 7235   3.498   3.452   9.566 -0.0298 -0.1160  0.2452
  813MOL0     C 7236   3.017   3.918  10.258 -0.9765 -0.1470 -0.2655
  813MOL0     C 7237   2.983   4.053  10.260 -1.0283  0.8236 -0.0897
  813MOL0     C 7238   3.027   4.493  10.198  0.3450 -0.4379  0.2996
  813MOL0     C 7239   3.017   4.543  10.334  0.5169 -0.5572 -0.7904
  813MOL0     C 7240   3.048   4.683  10.367  0.0592  0.0002 -0.5475
  813MOL0     C 7241   3.078   4.773  10.265 -0.3995  0.8426 -0.6139
  813MOL0     O 7242   3.108   4.898  10.278 -0.1135  0.2487 -0.4029
  813MOL0     C 7243   3.169   4.948  10.405  0.2435 -0.1462 -0.1899
  813MOL0     C 7244   3.318   4.923  10.417  0.1279  0.2192  0.1093
  813MOL0     C 7245   3.406   4.960  10.296 -0.2168 -0.2806  1.0358
  813MOL0     C 7246   3.402   5.103  10.251 -0.9291 -1.2181 -0.0498
  813MOL0     C 7247   3.429   5.188  10.368 -0.3533  0.6076 -0.9948
  813MOL0     C 7248   3.441   5.255  10.472 -0.0332  0.6762 -0.3766
  813MOL0     C 7249   3.075   4.724  10.133  0.2099 -0.0968  0.6907
  813MOL0     C 7250   3.053   4.590  10.103  0.3122  1.3661 -0.1349
  813MOL0     H 7251   3.296   4.180  10.290  0.7189  0.0364 -4.6525
  813MOL0     H 7252   3.362   3.954  10.257  0.1579  0.0626  2.8672
  813MOL0     H 7253   3.028   3.649  10.298  0.1490 -1.2230 -1.5027
  813MOL0     H 7254   3.127   3.682  10.436 -0.9263 -0.6665 -0.0178
  813MOL0     H 7255   3.125   3.443  10.378 -1.5321  1.3042  0.3587
  813MOL0     H 7256   3.283   3.511  10.387 -1.0682  1.3339  1.2024
  813MOL0     H 7257   3.290   3.373  10.207  1.4113  3.1197 -0.2486
  813MOL0     H 7258   3.268   3.533  10.129  0.4541  2.7106  1.7528
  813MOL0     H 7259   3.078   3.298  10.122 -3.7051 -0.5121 -0.4463
  813MOL0     H 7260   2.996   3.450  10.152 -0.1742 -0.7457  0.9336
  813MOL0     H 7261   3.142   3.532   9.951 -0.9460  0.0933 -0.6539
  813MOL0     H 7262   2.999   3.432   9.923 -0.5906 -3.0247  2.0106
  813MOL0     H 7263   3.144   3.240   9.881 -1.6402  1.1576 -2.5947
  813MOL0     H 7264   3.276   3.326   9.962 -0.7949  5.1219  1.1183
  813MOL0     H 7265   3.158   3.409   9.683  0.4067 -2.7381 -1.7291
  813MOL0     H 7266   3.278   3.500   9.775  0.7717  0.2828  1.9720
  813MOL0     H 7267   3.295   3.217   9.670 -0.7431  0.9631  0.4548
  813MOL0     H 7268   3.427   3.315   9.760 -2.2623  1.1860  2.6510
  813MOL0     H 7269   3.247   3.322   9.414 -0.2925  2.5389  0.5902
  813MOL0     H 7270   3.313   3.369   9.179  0.8736 -3.0649  2.1753
  813MOL0     H 7271   3.479   3.423   9.164 -0.6100  0.3665 -0.8620
  813MOL0     H 7272   3.257   3.617   9.248  1.6004  1.9783  0.3565
  813MOL0     H 7273   3.294   3.591   9.076  1.1090 -0.3050  0.2487
  813MOL0     H 7274   3.471   3.688   9.291 -0.1285  1.2500  0.1821
  813MOL0     H 7275   3.527   3.681   9.123  0.0412  1.2831  1.2793
  813MOL0     H 7276   3.413   3.905   9.221 -0.3028 -0.9806  0.4220
  813MOL0     H 7277   3.265   3.818   9.152  0.9683 -1.3474 -1.1351
  813MOL0     H 7278   3.183   4.015   9.050  2.1023 -2.1799  0.7333
  813MOL0     H 7279   3.125   4.228   8.932 -1.1867  0.9273 -0.3895
  813MOL0     H 7280   2.982   4.354   8.480 -3.7363 -0.3602  0.2535
  813MOL0     H 7281   2.885   4.545   8.358  0.0786  1.4066  0.6923
  813MOL0     H 7282   2.852   4.954   8.386 -3.1820  2.5705  3.3474
  813MOL0     H 7283   2.932   4.963   8.542 -2.9824 -0.9166  2.1820
  813MOL0     H 7284   2.782   4.804   8.636  1.5531  1.3897 -0.3742
  813MOL0     H 7285   2.721   4.757   8.479  1.4683 -1.8613  1.5341
  813MOL0     H 7286   2.636   4.993   8.441  0.4465 -0.7374 -0.8996
  813MOL0     H 7287   2.701   5.034   8.597  1.2290  0.5941 -3.9218
  813MOL0     H 7288   2.481   4.842   8.534 -1.5902 -0.4043  0.9805
  813MOL0     H 7289   2.567   4.833   8.695  1.3747 -0.3584 -1.3538
  813MOL0     H 7290   2.498   5.066   8.731 -1.6234  0.8614 -0.3063
  813MOL0     H 7291   2.371   4.934   8.745 -0.4267 -1.1922 -0.0394
  813MOL0     H 7292   2.287   4.993   8.521  1.9427  1.0059 -2.8583
  813MOL0     H 7293   2.390   5.120   8.486 -1.7590  1.8566  0.3937
  813MOL0     H 7294   2.209   5.130   8.733 -4.1212  2.4492 -0.3244
  813MOL0     H 7295   2.314   5.257   8.661  3.2105 -1.2614 -2.3270
  813MOL0     H 7296   2.103   5.311   8.617  1.4046  0.5331  1.1905
  813MOL0     H 7297   2.058   5.157   8.533 -0.4693  1.9238 -2.4975
  813MOL0     H 7298   3.136   4.806   8.600 -1.5323 -0.5090 -0.7522
  813MOL0     H 7299   3.201   4.619   8.738  1.3715  0.0714 -0.9255
  813MOL0     H 7300   3.496   4.184   8.709  0.6362  0.6332 -0.2807
  813MOL0     H 7301   3.551   3.998   8.834 -0.8196 -1.1526 -3.1465
  813MOL0     H 7302   2.940   3.842  10.245 -0.9508 -0.2199  0.0029
  813MOL0     H 7303   2.879   4.085  10.256 -1.3537 -0.2358 -0.3160
  813MOL0     H 7304   2.982   4.479  10.414 -1.4369  1.9319  0.5243
  813MOL0     H 7305   3.052   4.719  10.469  0.6170  3.2324 -1.5707
  813MOL0     H 7306   3.115   4.911  10.493  4.1465 -2.9278  1.3368
  813MOL0     H 7307   3.153   5.056  10.410  1.6510  0.0671  0.0806
  813MOL0     H 7308   3.345   4.983  10.505  0.4747  1.3162 -0.7255
  813MOL0     H 7309   3.343   4.817  10.423  5.4819  1.1644 -0.7011
  813MOL0     H 7310   3.379   4.898  10.210  1.7970 -0.7777  0.7204
  813MOL0     H 7311   3.509   4.929  10.314 -0.2536 -1.2158 -0.2406
  813MOL0     H 7312   3.482   5.108  10.177 -1.7832  1.2404 -0.9171
  813MOL0     H 7313   3.304   5.125  10.207 -0.8273  2.9242  1.3468
  813MOL0     H 7314   3.448   5.310  10.564  0.5936  0.0994 -0.0710
  813MOL0     H 7315   3.081   4.793  10.049  0.6363  0.5553  1.2453
  813MOL0     H 7316   3.083   4.557  10.004  1.4681  0.0312  0.6228
  814MOL0     O 7317   0.305  10.265   3.282 -0.3830  0.1997  0.5515
  814MOL0     C 7318   0.311  10.241   3.406 -0.3730  0.2297  0.9915
  814MOL0     O 7319   0.209  10.194   3.478 -0.0692 -0.4370  0.7328
  814MOL0     C 7320   0.084  10.192   3.420  0.0682  0.3686 -0.0510
  814MOL0     C 7321   0.023  10.313   3.381 -0.0439 -0.1263 -1.1798
  814MOL0     C 7322  -0.112  10.313   3.350  0.6474 -0.5577  0.3794
  814MOL0     C 7323  -0.187  10.195   3.343  0.0241 -0.4458 -0.1291
  814MOL0     O 7324  -0.321  10.211   3.321  0.4037  0.1176 -0.2743
  814MOL0     C 7325  -0.402  10.101   3.279  0.6063 -0.6665  0.4788
  814MOL0     C 7326  -0.477  10.026   3.399 -0.6429 -0.5604 -0.5106
  814MOL0     C 7327  -0.528   9.898   3.348  0.3851  0.1332  0.0825
  814MOL0     C 7328  -0.669   9.896   3.304  1.3656 -0.6098  0.1316
  814MOL0     C 7329  -0.717  10.016   3.218 -0.1845  0.0210  0.6301
  814MOL0     C 7330  -0.869  10.023   3.200  0.0071 -0.1475 -0.2138
  814MOL0     C 7331  -0.922  10.140   3.112 -0.7016  0.3003  0.0045
  814MOL0     C 7332  -0.915  10.101   2.964 -0.2709 -0.7116 -0.6722
  814MOL0     N 7333  -1.023  10.007   2.937  0.7115  0.4835  0.2574
  814MOL0     C 7334  -1.164  10.025   2.920  0.5577 -0.7396  0.0846
  814MOL0     C 7335  -1.221   9.902   2.920  0.2380  0.5223  1.2511
  814MOL0     C 7336  -1.369   9.865   2.921 -0.2329 -0.4447  0.4822
  814MOL0     C 7337  -1.434   9.877   2.776 -0.1589 -0.7494 -0.7001
  814MOL0     C 7338  -1.544   9.779   2.744  0.3893 -0.9367 -0.7573
  814MOL0     C 7339  -1.656   9.772   2.842  0.0547 -0.0861 -0.2029
  814MOL0     O 7340  -1.744   9.671   2.796  0.2831  0.5311 -0.0363
  814MOL0     C 7341  -1.864   9.641   2.857 -0.4774  1.2947 -0.5717
  814MOL0     C 7342  -1.910   9.692   2.976 -0.0685 -1.0308  1.1774
  814MOL0     C 7343  -2.032   9.652   3.034  0.4438  0.5627  0.6901
  814MOL0     C 7344  -2.120   9.565   2.975  0.6254  0.3190  0.3938
  814MOL0     C 7345  -2.254   9.529   3.037 -0.8842  1.4806  0.1137
  814MOL0     O 7346  -2.287   9.584   3.161 -0.2968  0.2458 -0.1177
  814MOL0     C 7347  -2.397   9.524   3.218 -0.3576 -0.4917 -0.4808
  814MOL0     C 7348  -2.403   9.382   3.256  0.1095 -0.1569 -0.9903
  814MOL0     C 7349  -2.506   9.335   3.343 -0.8057 -0.4750 -0.1749
  814MOL0     C 7350  -2.613   9.414   3.373 -0.4082 -0.2625  0.3068
  814MOL0     O 7351  -2.723   9.380   3.456 -0.2597 -0.2274  0.4117
  814MOL0     C 7352  -2.707   9.258   3.522  0.4043  0.4522 -0.0204
  814MOL0     C 7353  -2.832   9.248   3.610  0.1727  0.1120  0.2344
  814MOL0     C 7354  -2.961   9.216   3.529  0.5929  0.5742 -0.5264
  814MOL0     C 7355  -3.087   9.238   3.622 -0.1350 -0.0494  0.1737
  814MOL0     C 7356  -3.093   9.135   3.739 -0.1131  0.4492 -0.3825
  814MOL0     C 7357  -3.100   8.991   3.691 -0.0449 -0.9072 -0.2026
  814MOL0     C 7358  -3.148   8.899   3.795 -0.1491  0.4740 -0.0847
  814MOL0     C 7359  -3.053   8.893   3.910 -0.1621 -1.1249  0.0603
  814MOL0    Cl 7360  -2.886   8.864   3.854  0.3510 -0.0830  0.1030
  814MOL0     C 7361  -2.604   9.544   3.324  0.2451 -0.2181 -0.3785
  814MOL0     C 7362  -2.506   9.600   3.252 -0.8856  0.6876 -0.5097
  814MOL0     O 7363  -2.318   9.446   2.976 -0.3820  0.3888  0.5086
  814MOL0     C 7364  -2.079   9.510   2.858  1.3284  0.6234 -0.1412
  814MOL0     C 7365  -1.957   9.550   2.800  0.4987  0.5748  1.0172
  814MOL0     N 7366  -1.115   9.812   2.927 -0.3024  0.1964  0.0360
  814MOL0     N 7367  -0.998   9.879   2.920  0.6104  0.0757 -0.3352
  814MOL0     C 7368  -0.123  10.079   3.372 -0.4310 -0.6178 -0.3879
  814MOL0     C 7369   0.008  10.080   3.421  0.0891  0.3706 -0.2670
  814MOL0     C 7370   0.443  10.237   3.477 -0.0213 -0.3482  0.3058
  814MOL0     C 7371   0.561  10.298   3.413 -0.1409  0.0736  0.6046
  814MOL0     C 7372   0.685  10.307   3.476 -0.1454  0.4370 -0.0724
  814MOL0     C 7373   0.706  10.231   3.591 -0.1852 -0.4943 -0.0586
  814MOL0     O 7374   0.834  10.199   3.637 -0.5946 -0.2017  0.5600
  814MOL0     C 7375   0.948  10.284   3.597 -0.6875  0.4990 -0.9755
  814MOL0     C 7376   1.067  10.229   3.684  1.3058 -0.3594 -0.1719
  814MOL0     C 7377   1.125  10.100   3.639  0.0704  0.2178 -0.7144
  814MOL0     C 7378   1.219  10.049   3.754  0.3941  0.3251  0.0568
  814MOL0     C 7379   1.343  10.130   3.777 -0.1784 -0.6515 -0.4149
  814MOL0     C 7380   1.449  10.197   3.788 -0.2490  0.0986 -0.1490
  814MOL0     C 7381   0.589  10.174   3.653 -0.4470 -0.0995 -0.7854
  814MOL0     C 7382   0.457  10.173   3.595 -0.6166  0.4694 -0.4320
  814MOL0     H 7383   0.070  10.411   3.385  1.1180 -0.7075  0.8141
  814MOL0     H 7384  -0.163  10.407   3.328  1.5446 -0.7153 -2.8598
  814MOL0     H 7385  -0.349  10.040   3.205  1.6137 -0.3014  0.8900
  814MOL0     H 7386  -0.490  10.149   3.236  0.9385  1.2016  1.7848
  814MOL0     H 7387  -0.542  10.091   3.459  0.2401 -1.1975  1.2046
  814MOL0     H 7388  -0.396   9.999   3.468  0.0740  1.7727 -0.3351
  814MOL0     H 7389  -0.518   9.820   3.425  0.6660 -0.5077 -0.5965
  814MOL0     H 7390  -0.455   9.854   3.280 -1.3774 -3.2094  0.1220
  814MOL0     H 7391  -0.682   9.806   3.244  0.1765  0.9667 -2.1109
  814MOL0     H 7392  -0.721   9.894   3.400  0.8894  2.4719  0.0490
  814MOL0     H 7393  -0.657  10.023   3.127  1.4023  2.6271  1.7470
  814MOL0     H 7394  -0.693  10.107   3.273  1.2598  0.7640 -1.1376
  814MOL0     H 7395  -0.906  10.031   3.303 -0.4129  2.7367 -0.4987
  814MOL0     H 7396  -0.912   9.933   3.157  1.0332 -0.6986 -0.1171
  814MOL0     H 7397  -1.027  10.163   3.136 -0.1833  1.2954  1.4929
  814MOL0     H 7398  -0.862  10.230   3.125  0.7896 -0.6300 -0.2720
  814MOL0     H 7399  -0.815  10.065   2.937 -0.4852 -0.9832 -1.1165
  814MOL0     H 7400  -0.931  10.196   2.911  1.9648  1.2634  1.8387
  814MOL0     H 7401  -1.211  10.121   2.898  0.3721 -1.4688 -3.1649
  814MOL0     H 7402  -1.414   9.920   3.005  2.6316  0.3998  1.6038
  814MOL0     H 7403  -1.383   9.762   2.956 -1.4171 -0.8973 -1.2004
  814MOL0     H 7404  -1.351   9.870   2.705  0.2441 -2.7792 -0.0821
  814MOL0     H 7405  -1.485   9.974   2.769 -0.0630 -0.6707 -0.3074
  814MOL0     H 7406  -1.595   9.817   2.655 -0.1804 -1.0312 -0.4790
  814MOL0     H 7407  -1.504   9.679   2.726 -1.7361 -1.8851 -0.5183
  814MOL0     H 7408  -1.703   9.870   2.842  1.4602  0.6488 -2.0208
  814MOL0     H 7409  -1.617   9.746   2.941 -0.7839 -2.8403 -0.4873
  814MOL0     H 7410  -1.850   9.763   3.031  0.4054 -0.6174  0.1467
  814MOL0     H 7411  -2.073   9.701   3.122 -1.0750 -1.3848  1.1304
  814MOL0     H 7412  -2.323   9.311   3.239 -0.4961 -0.6360 -1.9891
  814MOL0     H 7413  -2.494   9.238   3.391  1.3336 -0.1836  0.0102
  814MOL0     H 7414  -2.619   9.234   3.581  0.2726  0.1435  0.0562
  814MOL0     H 7415  -2.707   9.178   3.448 -1.1296 -0.3950  0.8351
  814MOL0     H 7416  -2.832   9.347   3.655  1.6401 -0.5406  1.7785
  814MOL0     H 7417  -2.826   9.172   3.689  2.8614  1.1582  1.1359
  814MOL0     H 7418  -2.949   9.117   3.485 -1.6070  0.5251 -1.1321
  814MOL0     H 7419  -2.965   9.284   3.444 -4.5202 -1.3245 -2.1754
  814MOL0     H 7420  -3.078   9.337   3.668  0.8904 -0.5831  1.1893
  814MOL0     H 7421  -3.170   9.228   3.552  1.2299  0.1396 -1.5559
  814MOL0     H 7422  -3.186   9.157   3.793 -2.8457 -3.9992 -2.6599
  814MOL0     H 7423  -3.005   9.141   3.802  1.7263 -0.4237 -2.7203
  814MOL0     H 7424  -3.013   8.951   3.638  1.1819  1.0150  0.2452
  814MOL0     H 7425  -3.174   8.995   3.611  0.3618  1.1096 -0.5405
  814MOL0     H 7426  -3.247   8.930   3.827 -0.3558 -1.9851  1.9317
  814MOL0     H 7427  -3.150   8.797   3.756  2.9074  0.5683 -0.7966
  814MOL0     H 7428  -3.083   8.818   3.983  1.0317 -0.9485  0.7567
  814MOL0     H 7429  -3.056   8.991   3.958 -1.7519 -0.8172 -0.6127
  814MOL0     H 7430  -2.687   9.606   3.355 -0.5385 -2.0218  1.3887
  814MOL0     H 7431  -2.504   9.705   3.223 -0.7703  1.6906  2.7631
  814MOL0     H 7432  -2.144   9.436   2.813  0.3352  0.6526  1.1765
  814MOL0     H 7433  -1.934   9.509   2.703 -0.3686  3.5092 -0.5522
  814MOL0     H 7434  -0.171   9.981   3.365 -4.5022  0.9425  2.1834
  814MOL0     H 7435   0.054   9.987   3.454  0.9506  1.2261  1.0191
  814MOL0     H 7436   0.542  10.332   3.312  2.4011  1.7296  0.5940
  814MOL0     H 7437   0.757  10.364   3.418  0.9698 -2.2115 -1.4923
  814MOL0     H 7438   0.946  10.391   3.621 -0.4691  0.7569 -2.0633
  814MOL0     H 7439   0.974  10.262   3.493 -0.1191 -1.1632 -0.5055
  814MOL0     H 7440   1.148  10.301   3.663  1.3218  0.7521  3.0772
  814MOL0     H 7441   1.062  10.239   3.793 -0.2445  0.1206 -0.2606
  814MOL0     H 7442   1.174  10.116   3.543  0.8026  2.0127 -0.0817
  814MOL0     H 7443   1.036  10.036   3.632 -0.2277  0.3683  1.1714
  814MOL0     H 7444   1.163  10.016   3.842 -1.5960  1.3638 -0.7339
  814MOL0     H 7445   1.257   9.954   3.713  0.1361 -1.1690  3.0009
  814MOL0     H 7446   1.537  10.253   3.810  0.5444 -1.9242  2.3931
  814MOL0     H 7447   0.606  10.115   3.743  2.5407 -0.0320 -1.1998
  814MOL0     H 7448   0.372  10.116   3.633 -1.4548  2.4414  0.8078
  815MOL0     O 7449   6.260   7.894   4.140  0.5995 -0.4672 -0.5185
  815MOL0     C 7450   6.310   8.003   4.114  0.7312  0.0015  0.8742
  815MOL0     O 7451   6.299   8.071   4.000 -0.2711  0.1192 -0.2944
  815MOL0     C 7452   6.264   8.025   3.877  1.1302 -0.7826  0.1653
  815MOL0     C 7453   6.248   8.118   3.786  0.6396  0.3486  0.4210
  815MOL0     C 7454   6.207   8.096   3.657 -0.0890  0.5482  0.0411
  815MOL0     C 7455   6.163   7.968   3.620  0.2582  0.8964 -0.1248
  815MOL0     O 7456   6.102   7.953   3.493  0.7135 -0.5715  0.8781
  815MOL0     C 7457   6.107   7.822   3.425  0.1036 -1.9364 -1.1628
  815MOL0     C 7458   6.181   7.852   3.309  0.0111  0.4666  1.4776
  815MOL0     C 7459   6.182   7.732   3.218 -0.5867  0.3724 -0.3131
  815MOL0     C 7460   6.068   7.723   3.122  0.6741 -0.2363  0.4929
  815MOL0     C 7461   6.064   7.612   3.010  0.3764 -1.2365 -1.6567
  815MOL0     C 7462   6.024   7.483   3.093 -0.3548  0.3498 -0.5229
  815MOL0     C 7463   5.992   7.352   3.019 -0.1310  0.5945 -0.1121
  815MOL0     C 7464   6.117   7.297   2.950 -0.5935  0.2328 -0.6217
  815MOL0     N 7465   6.090   7.199   2.848 -0.6080  0.0811  0.8327
  815MOL0     C 7466   6.030   7.072   2.856  0.3862 -0.9276  1.0920
  815MOL0     C 7467   6.002   7.044   2.721  0.0284 -0.2771 -0.3888
  815MOL0     C 7468   5.901   6.943   2.675  0.3566  1.4755  0.5203
  815MOL0     C 7469   5.757   6.967   2.723 -0.0652 -0.0097  0.1266
  815MOL0     C 7470   5.661   6.865   2.653 -0.7093  0.2937 -0.3861
  815MOL0     C 7471   5.676   6.719   2.708 -0.1236 -0.1466 -0.6838
  815MOL0     O 7472   5.731   6.634   2.600  0.9191 -0.2876  0.3087
  815MOL0     C 7473   5.839   6.568   2.641 -0.0755 -0.3531 -0.0544
  815MOL0     C 7474   5.966   6.578   2.600 -0.5896  0.6033 -0.7034
  815MOL0     C 7475   6.078   6.508   2.650  0.7644 -1.1817  0.0499
  815MOL0     C 7476   6.062   6.425   2.756 -0.3713 -0.0973  0.0863
  815MOL0     C 7477   6.171   6.347   2.821 -0.3983  0.1706  0.7099
  815MOL0     O 7478   6.290   6.333   2.748  0.3263 -0.2480  0.2754
  815MOL0     C 7479   6.404   6.263   2.782 -0.3372  0.0441  0.1278
  815MOL0     C 7480   6.424   6.219   2.910 -0.3133  0.7048 -0.3694
  815MOL0     C 7481   6.536   6.145   2.947 -0.2672  0.4115  0.9783
  815MOL0     C 7482   6.631   6.093   2.846  0.6659 -0.5847 -0.1635
  815MOL0     O 7483   6.734   6.001   2.864 -0.3705 -0.6160  0.3286
  815MOL0     C 7484   6.763   5.947   2.994  0.4401 -0.3673 -0.0156
  815MOL0     C 7485   6.853   5.824   2.998 -0.0239  0.2632  0.6800
  815MOL0     C 7486   6.988   5.846   3.070 -0.5350  0.4776  0.3864
  815MOL0     C 7487   7.100   5.917   2.982 -0.8509 -1.0085  0.0873
  815MOL0     C 7488   7.245   5.918   3.028 -0.2507  0.2580 -0.7474
  815MOL0     C 7489   7.355   5.969   2.923 -0.2371  0.1037 -0.0723
  815MOL0     C 7490   7.499   5.937   2.965 -0.3297  0.6256 -0.1273
  815MOL0     C 7491   7.592   5.965   2.849  0.1098  0.0457  0.6412
  815MOL0    Cl 7492   7.767   5.910   2.893  0.3205  0.1281  0.0263
  815MOL0     C 7493   6.608   6.146   2.718  0.0245 -0.3919  0.6440
  815MOL0     C 7494   6.498   6.231   2.686  0.2697  0.3513  0.1658
  815MOL0     O 7495   6.146   6.302   2.935  0.5495 -0.4041  0.3424
  815MOL0     C 7496   5.926   6.406   2.798 -0.5517  0.4451 -0.8139
  815MOL0     C 7497   5.816   6.477   2.740 -0.1815  0.1532  0.1864
  815MOL0     N 7498   6.064   7.144   2.646 -1.1635  0.1472 -0.4886
  815MOL0     N 7499   6.097   7.244   2.718 -1.1695  0.4922 -0.4406
  815MOL0     C 7500   6.169   7.865   3.722 -0.7154 -0.3006  0.1321
  815MOL0     C 7501   6.232   7.892   3.841  0.9652 -0.1540 -0.0036
  815MOL0     C 7502   6.376   8.064   4.231 -0.2356 -0.2281  0.2172
  815MOL0     C 7503   6.480   8.157   4.207  0.0044 -0.1106 -0.3014
  815MOL0     C 7504   6.542   8.221   4.307  0.7515 -0.8437 -0.8806
  815MOL0     C 7505   6.507   8.197   4.441 -0.1619 -0.3489  0.5343
  815MOL0     O 7506   6.546   8.269   4.549 -1.0216 -0.2030 -0.2564
  815MOL0     C 7507   6.644   8.372   4.537 -0.0899 -1.5337 -0.4419
  815MOL0     C 7508   6.648   8.442   4.673  0.5078  0.0248 -0.4157
  815MOL0     C 7509   6.510   8.502   4.696  0.5717  0.4167 -0.6329
  815MOL0     C 7510   6.498   8.586   4.821 -0.7706  1.1807 -0.5354
  815MOL0     C 7511   6.548   8.500   4.933  0.6802 -0.2717 -0.4654
  815MOL0     C 7512   6.555   8.428   5.029 -0.1050  0.6002  0.4850
  815MOL0     C 7513   6.406   8.099   4.464  0.2137  0.3774 -0.3761
  815MOL0     C 7514   6.341   8.029   4.363  0.0846 -0.5584 -0.4657
  815MOL0     H 7515   6.279   8.218   3.814 -0.4923  0.3138  1.9579
  815MOL0     H 7516   6.194   8.171   3.579  0.7265  0.9970  0.3295
  815MOL0     H 7517   6.003   7.802   3.399 -0.1365 -2.8069  0.3792
  815MOL0     H 7518   6.142   7.746   3.495 -0.4138  0.3392  1.7612
  815MOL0     H 7519   6.285   7.882   3.328  0.2429  2.7334 -2.3346
  815MOL0     H 7520   6.142   7.935   3.250  1.0774 -1.1508 -1.7887
  815MOL0     H 7521   6.189   7.635   3.267 -1.8986  0.0960 -0.6469
  815MOL0     H 7522   6.271   7.738   3.155 -0.1054 -0.3569  0.2897
  815MOL0     H 7523   5.972   7.708   3.171 -0.7872  1.6604 -1.6132
  815MOL0     H 7524   6.043   7.816   3.070 -0.3143 -0.6735  0.1647
  815MOL0     H 7525   6.163   7.599   2.965  2.1401  0.2391  1.4706
  815MOL0     H 7526   5.994   7.642   2.932  0.9834  0.9960 -1.4029
  815MOL0     H 7527   5.942   7.504   3.162 -0.4462 -0.8958 -0.2256
  815MOL0     H 7528   6.109   7.461   3.158 -0.5544 -1.7964 -0.9223
  815MOL0     H 7529   5.951   7.280   3.090  0.0946 -0.2373 -0.8095
  815MOL0     H 7530   5.922   7.378   2.939 -2.8972  0.4145  2.0811
  815MOL0     H 7531   6.181   7.256   3.030 -0.1682 -1.4360 -1.7579
  815MOL0     H 7532   6.176   7.375   2.901 -0.5226  0.8068  0.3504
  815MOL0     H 7533   5.989   7.019   2.941 -2.2058 -1.7132 -0.5513
  815MOL0     H 7534   5.929   6.844   2.713 -0.4947  1.1187  0.2580
  815MOL0     H 7535   5.898   6.935   2.566 -0.1677  1.1507  0.5515
  815MOL0     H 7536   5.719   7.065   2.694 -1.7794 -1.4460 -2.9749
  815MOL0     H 7537   5.750   6.963   2.833 -0.2677  2.5227  0.2498
  815MOL0     H 7538   5.560   6.905   2.667 -0.3923  0.6779  0.9350
  815MOL0     H 7539   5.659   6.873   2.544 -0.3067 -0.3700 -0.4442
  815MOL0     H 7540   5.585   6.671   2.744  0.6993  2.0232  5.3536
  815MOL0     H 7541   5.746   6.725   2.792  0.8848  0.2601 -1.5286
  815MOL0     H 7542   5.982   6.632   2.508  2.8279 -1.1052 -1.2793
  815MOL0     H 7543   6.177   6.519   2.606  0.3061  0.2812 -0.6832
  815MOL0     H 7544   6.356   6.235   2.993 -3.2711  0.1447 -2.5246
  815MOL0     H 7545   6.541   6.125   3.054  3.1933 -1.4040  0.6068
  815MOL0     H 7546   6.674   5.922   3.052 -0.1981  0.1841 -0.7376
  815MOL0     H 7547   6.811   6.031   3.045 -0.0949  0.6873 -1.2210
  815MOL0     H 7548   6.874   5.818   2.891 -3.1916  3.4053 -0.3063
  815MOL0     H 7549   6.804   5.739   3.047  0.1165 -0.6383 -0.6923
  815MOL0     H 7550   7.023   5.744   3.087  0.9654  0.1129 -3.7554
  815MOL0     H 7551   6.974   5.885   3.172  2.8582 -0.2856  1.2701
  815MOL0     H 7552   7.098   5.876   2.880 -3.2983 -0.1940 -0.2727
  815MOL0     H 7553   7.071   6.021   2.959  3.9974  0.1187 -2.1991
  815MOL0     H 7554   7.274   5.815   3.050  0.7541  0.7118  0.1344
  815MOL0     H 7555   7.235   5.970   3.123 -4.7699  1.1905 -1.4915
  815MOL0     H 7556   7.339   6.071   2.888 -1.2835  0.1639  0.5374
  815MOL0     H 7557   7.331   5.915   2.831 -2.2448 -2.2368  1.6762
  815MOL0     H 7558   7.510   5.986   3.062 -0.0592 -2.4601  1.5300
  815MOL0     H 7559   7.514   5.831   2.990  3.2253  0.9594 -0.2596
  815MOL0     H 7560   7.587   6.073   2.831  0.9259 -0.3201 -2.2439
  815MOL0     H 7561   7.564   5.908   2.760  1.5049 -0.1111  0.2732
  815MOL0     H 7562   6.669   6.125   2.631  2.0581  2.0179  1.3831
  815MOL0     H 7563   6.467   6.259   2.586 -1.1823  0.8588  0.7407
  815MOL0     H 7564   5.914   6.343   2.886  0.9129  1.1695 -0.0670
  815MOL0     H 7565   5.718   6.456   2.781 -0.7319 -0.8116 -1.5192
  815MOL0     H 7566   6.133   7.763   3.708 -2.0788 -0.6283  4.5622
  815MOL0     H 7567   6.237   7.813   3.915 -0.6893  0.8870  1.2677
  815MOL0     H 7568   6.506   8.182   4.105 -2.0615 -1.6136 -1.2490
  815MOL0     H 7569   6.611   8.298   4.273  0.8440 -0.4463  0.1844
  815MOL0     H 7570   6.622   8.444   4.459 -1.6198 -1.3783  0.0903
  815MOL0     H 7571   6.738   8.319   4.522 -0.1352 -1.1764 -2.1361
  815MOL0     H 7572   6.687   8.373   4.749  1.9691  1.1647 -0.0949
  815MOL0     H 7573   6.716   8.523   4.648  1.0062 -1.4139 -4.6698
  815MOL0     H 7574   6.436   8.422   4.710  0.6523  0.7068  1.8685
  815MOL0     H 7575   6.483   8.568   4.613 -0.3075  2.7626  1.3757
  815MOL0     H 7576   6.549   8.682   4.813 -0.7717  1.1565 -0.8488
  815MOL0     H 7577   6.391   8.596   4.845 -0.5377 -2.7951  3.5612
  815MOL0     H 7578   6.546   8.362   5.113 -3.7318  0.2275 -0.0318
  815MOL0     H 7579   6.384   8.081   4.568  1.0652  0.9871 -0.0794
  815MOL0     H 7580   6.265   7.957   4.393 -1.2061  0.8801 -0.1379
  816MOL0     O 7581   0.243   6.302   9.491  0.2062 -0.6687  0.4117
  816MOL0     C 7582   0.185   6.210   9.546 -0.2607 -0.2472 -0.6355
  816MOL0     O 7583   0.203   6.158   9.677 -0.2154  0.3248  0.4341
  816MOL0     C 7584   0.310   6.210   9.754  0.3817  0.2593  0.7878
  816MOL0     C 7585   0.371   6.121   9.835  0.4630 -0.1658  1.1441
  816MOL0     C 7586   0.476   6.163   9.913  0.1816 -0.1034 -0.4267
  816MOL0     C 7587   0.533   6.288   9.905  0.1741 -0.2145  0.0537
  816MOL0     O 7588   0.644   6.338   9.967 -0.1822  0.1055 -0.0036
  816MOL0     C 7589   0.709   6.259  10.072 -0.3194 -0.2311  0.5592
  816MOL0     C 7590   0.846   6.328  10.122  0.4375  0.5115 -0.4307
  816MOL0     C 7591   0.819   6.456  10.209 -0.1443  0.5625  0.7937
  816MOL0     C 7592   0.929   6.555  10.209 -0.6797  0.3741 -0.8489
  816MOL0     C 7593   1.012   6.544  10.344  0.1630  0.5645  0.5689
  816MOL0     C 7594   1.112   6.652  10.337  0.6137 -0.3260 -0.1403
  816MOL0     C 7595   1.251   6.607  10.291 -0.0232 -0.3687  0.1789
  816MOL0     C 7596   1.339   6.526  10.394 -0.1943  0.6875 -0.2077
  816MOL0     N 7597   1.334   6.380  10.395  0.2635  0.2212  0.5364
  816MOL0     C 7598   1.283   6.306  10.501 -1.0222  0.5922 -0.4774
  816MOL0     C 7599   1.301   6.175  10.453 -0.1989 -0.3268  0.4092
  816MOL0     C 7600   1.260   6.057  10.536  0.2963  0.4310  0.1761
  816MOL0     C 7601   1.155   5.975  10.457 -0.0142 -0.3968  0.1403
  816MOL0     C 7602   1.148   5.830  10.500 -0.0869  0.3769  0.2792
  816MOL0     C 7603   1.260   5.737  10.448  0.7787 -0.4070  0.6686
  816MOL0     O 7604   1.241   5.738  10.307  0.2510 -0.0502  0.1286
  816MOL0     C 7605   1.167   5.643  10.240 -0.3321 -0.4587 -0.4366
  816MOL0     C 7606   1.182   5.632  10.098  0.1708  0.1803  0.2187
  816MOL0     C 7607   1.098   5.550  10.021 -0.5937  1.1242  1.1502
  816MOL0     C 7608   1.003   5.469  10.085 -0.0343  1.4409  0.5755
  816MOL0     C 7609   0.933   5.357  10.013 -0.4611 -0.6803  0.3958
  816MOL0     O 7610   0.826   5.297  10.076 -0.5784  0.4451 -0.5353
  816MOL0     C 7611   0.776   5.172  10.023 -0.2450 -0.1952 -0.4858
  816MOL0     C 7612   0.790   5.050  10.105 -0.5236 -0.3950 -0.2376
  816MOL0     C 7613   0.731   4.933  10.062  0.4812  1.2177 -0.5777
  816MOL0     C 7614   0.654   4.930   9.939  0.2905 -0.9060  0.2191
  816MOL0     O 7615   0.580   4.821   9.889 -0.0691 -0.4302 -0.3142
  816MOL0     C 7616   0.528   4.731   9.983 -0.6880  0.1877 -1.1733
  816MOL0     C 7617   0.496   4.606   9.905  1.1620 -1.1507 -0.2086
  816MOL0     C 7618   0.474   4.484   9.995  0.4461  0.3815  0.0844
  816MOL0     C 7619   0.446   4.366   9.915  1.2536  0.0298 -0.3131
  816MOL0     C 7620   0.423   4.231  10.006 -0.8252 -1.3303  0.6392
  816MOL0     C 7621   0.393   4.107   9.928 -0.4769  0.3173  0.0100
  816MOL0     C 7622   0.526   4.020   9.937  0.0718 -0.1285  0.7680
  816MOL0     C 7623   0.514   3.881   9.856  0.1502 -0.1491 -0.1192
  816MOL0    Cl 7624   0.502   3.913   9.677  0.2967 -0.5758  0.7647
  816MOL0     C 7625   0.633   5.050   9.867 -0.4057 -0.2305  0.4204
  816MOL0     C 7626   0.692   5.173   9.913  1.0215 -0.2683  0.5596
  816MOL0     O 7627   0.980   5.313   9.910 -0.8320 -0.9765  0.5470
  816MOL0     C 7628   0.996   5.474  10.227  0.6770 -0.2074  0.4047
  816MOL0     C 7629   1.071   5.561  10.305 -0.0119 -0.6433 -0.3253
  816MOL0     N 7630   1.364   6.176  10.333  1.1652  0.3816 -0.2597
  816MOL0     N 7631   1.373   6.295  10.288  0.6310 -0.9347 -0.1054
  816MOL0     C 7632   0.460   6.382   9.823 -0.1875  0.5288  0.6589
  816MOL0     C 7633   0.346   6.345   9.756  0.7050 -0.0528 -0.3607
  816MOL0     C 7634   0.061   6.171   9.466  0.2432  0.6977 -0.2911
  816MOL0     C 7635   0.033   6.199   9.340 -0.1677 -0.0573  0.5463
  816MOL0     C 7636  -0.086   6.170   9.273 -0.7095  0.1274 -0.4141
  816MOL0     C 7637  -0.187   6.100   9.343 -0.6725 -0.4704 -0.8620
  816MOL0     O 7638  -0.283   6.033   9.270 -0.0899 -0.7287  0.2950
  816MOL0     C 7639  -0.403   5.999   9.330  0.4563 -0.2668 -0.5759
  816MOL0     C 7640  -0.497   5.965   9.213  1.6009 -0.7161  0.8896
  816MOL0     C 7641  -0.445   5.836   9.147  0.2851  0.2029  0.9292
  816MOL0     C 7642  -0.566   5.784   9.062 -0.4279 -0.0495  0.0092
  816MOL0     C 7643  -0.665   5.706   9.140  0.2441  0.6340  0.5419
  816MOL0     C 7644  -0.754   5.638   9.194 -0.1679 -0.5206  0.1204
  816MOL0     C 7645  -0.170   6.080   9.481 -0.2128  0.3096  0.1183
  816MOL0     C 7646  -0.040   6.112   9.534  1.0671  0.6700 -0.2082
  816MOL0     H 7647   0.334   6.020   9.849  1.1242 -0.3672  1.5135
  816MOL0     H 7648   0.530   6.089   9.972 -1.3006  1.9006  3.8395
  816MOL0     H 7649   0.728   6.159  10.031 -1.6944  0.1828 -1.2203
  816MOL0     H 7650   0.637   6.236  10.150 -0.4731 -0.1719  0.4347
  816MOL0     H 7651   0.921   6.345  10.044  1.5582  0.9254  0.6913
  816MOL0     H 7652   0.894   6.256  10.189 -0.7826 -0.6013 -0.7058
  816MOL0     H 7653   0.783   6.441  10.312 -0.3141  3.6060  1.2703
  816MOL0     H 7654   0.736   6.506  10.157 -3.8341 -4.7025  0.7965
  816MOL0     H 7655   0.996   6.554  10.123  2.0629  0.9863  1.1223
  816MOL0     H 7656   0.880   6.652  10.205 -1.7162 -0.1503 -1.1910
  816MOL0     H 7657   1.069   6.451  10.355 -0.6169 -0.3257 -2.2728
  816MOL0     H 7658   0.949   6.554  10.433 -0.1238  0.5986  0.3629
  816MOL0     H 7659   1.134   6.691  10.437 -2.8388 -1.5782  1.2636
  816MOL0     H 7660   1.077   6.736  10.277  3.2383  2.0511  1.4399
  816MOL0     H 7661   1.262   6.566  10.190 -0.2064 -0.9798  0.3997
  816MOL0     H 7662   1.304   6.703  10.289  1.1835 -0.8905  2.8181
  816MOL0     H 7663   1.323   6.572  10.492  2.2162  0.5679  0.2990
  816MOL0     H 7664   1.438   6.543  10.350 -1.0340  0.2998 -2.4091
  816MOL0     H 7665   1.250   6.340  10.598 -1.4454  0.0873 -0.4361
  816MOL0     H 7666   1.214   6.098  10.626  0.5241  0.3079  0.3475
  816MOL0     H 7667   1.345   5.991  10.553  0.6171  0.4239 -1.3172
  816MOL0     H 7668   1.172   5.983  10.349 -1.1875  1.4560  0.0432
  816MOL0     H 7669   1.054   6.018  10.457 -0.7561 -1.8542 -2.5682
  816MOL0     H 7670   1.129   5.811  10.606 -0.0427  1.1500  0.4280
  816MOL0     H 7671   1.054   5.800  10.452  1.7267 -1.0342 -2.7044
  816MOL0     H 7672   1.248   5.633  10.479 -1.1481 -0.2302  0.5834
  816MOL0     H 7673   1.357   5.781  10.472  1.9144 -1.4140 -1.6828
  816MOL0     H 7674   1.253   5.709  10.069 -1.3613  1.7025  0.3473
  816MOL0     H 7675   1.117   5.537   9.916  0.3731  0.9450  1.3432
  816MOL0     H 7676   0.827   5.054  10.208 -2.2329 -3.7838  0.6852
  816MOL0     H 7677   0.751   4.844  10.119  2.8538  2.4224  0.6180
  816MOL0     H 7678   0.449   4.776  10.043 -1.0166 -1.7251 -0.1085
  816MOL0     H 7679   0.603   4.699  10.056  1.0023 -1.0760 -3.3439
  816MOL0     H 7680   0.565   4.589   9.821 -2.0980  1.0610 -3.6053
  816MOL0     H 7681   0.398   4.629   9.863  1.9182  4.0593  0.2413
  816MOL0     H 7682   0.386   4.507  10.057 -1.5395  3.4343 -3.4497
  816MOL0     H 7683   0.557   4.464  10.062  0.8365  0.8492 -0.2519
  816MOL0     H 7684   0.356   4.388   9.856  0.8615  1.9121  0.9020
  816MOL0     H 7685   0.521   4.356   9.836 -0.2869  1.9842 -2.1436
  816MOL0     H 7686   0.349   4.263  10.080  0.9043  2.0986  1.0765
  816MOL0     H 7687   0.504   4.215  10.078  1.3973  3.5369 -0.4156
  816MOL0     H 7688   0.362   4.119   9.824  0.2958 -5.0587 -1.1635
  816MOL0     H 7689   0.313   4.048   9.972 -1.3487  1.6041  0.1935
  816MOL0     H 7690   0.614   4.075   9.903  0.5458 -0.0689  2.0106
  816MOL0     H 7691   0.558   3.998  10.039 -1.4777 -1.8937  0.9318
  816MOL0     H 7692   0.434   3.821   9.899  0.8648 -0.5835  0.6519
  816MOL0     H 7693   0.615   3.840   9.871  0.7193  1.5221  0.9712
  816MOL0     H 7694   0.571   5.040   9.778  0.7666  2.0602 -0.7253
  816MOL0     H 7695   0.696   5.273   9.870  3.7706 -1.1186 -1.4715
  816MOL0     H 7696   0.930   5.404  10.279  2.1061 -0.2813  2.2352
  816MOL0     H 7697   1.052   5.569  10.411 -0.9853  3.1674 -0.6450
  816MOL0     H 7698   0.496   6.485   9.820  0.7549  0.1949 -1.9039
  816MOL0     H 7699   0.292   6.425   9.706 -1.2332 -2.5088 -2.4837
  816MOL0     H 7700   0.113   6.251   9.288  2.1560 -1.1920  2.7502
  816MOL0     H 7701  -0.099   6.208   9.172 -1.9204  1.9608  0.4011
  816MOL0     H 7702  -0.442   6.087   9.382  2.0961  0.8642 -1.1851
  816MOL0     H 7703  -0.388   5.919   9.403 -1.3469  0.8904  1.1741
  816MOL0     H 7704  -0.589   5.933   9.262  1.2426  0.1202  0.7643
  816MOL0     H 7705  -0.506   6.045   9.140  3.6110 -1.7874 -0.6637
  816MOL0     H 7706  -0.414   5.758   9.217  0.3636  0.1997  0.8923
  816MOL0     H 7707  -0.361   5.866   9.084  2.0257 -0.1597  2.9728
  816MOL0     H 7708  -0.628   5.866   9.024 -1.3532 -0.5843  0.3205
  816MOL0     H 7709  -0.531   5.727   8.976 -1.1266 -0.4406 -0.0223
  816MOL0     H 7710  -0.843   5.593   9.236 -1.1823 -0.2857 -1.6625
  816MOL0     H 7711  -0.241   6.030   9.547  0.5522 -0.3175  0.4862
  816MOL0     H 7712  -0.030   6.098   9.641  2.3341  4.2750  0.3006
  817MOL0     O 7713   8.078   2.721   3.192  0.3041  0.2379 -0.5814
  817MOL0     C 7714   8.020   2.613   3.207 -0.7325 -1.0366 -0.3070
  817MOL0     O 7715   7.986   2.559   3.328 -0.6049  0.4706 -0.3586
  817MOL0     C 7716   8.006   2.629   3.445 -0.8806  0.0334  0.2978
  817MOL0     C 7717   8.129   2.646   3.505  0.3222 -1.0622 -0.3998
  817MOL0     C 7718   8.132   2.738   3.610 -0.3593 -0.0358  0.1201
  817MOL0     C 7719   8.025   2.818   3.646 -0.7032  0.2055  0.5570
  817MOL0     O 7720   8.020   2.913   3.746 -0.3679  0.1390 -0.0707
  817MOL0     C 7721   8.132   2.906   3.830 -0.3040 -0.1315  0.1298
  817MOL0     C 7722   8.103   3.015   3.935  0.0782  0.2629  0.6866
  817MOL0     C 7723   8.218   3.029   4.038  1.1062  0.1286  0.7793
  817MOL0     C 7724   8.211   2.918   4.144  0.3961  0.1975  0.1050
  817MOL0     C 7725   8.334   2.940   4.229  0.5433  0.0169  0.1969
  817MOL0     C 7726   8.331   2.856   4.354  1.0333  0.8690 -0.9126
  817MOL0     C 7727   8.479   2.810   4.394 -0.0853  0.3738  0.9691
  817MOL0     C 7728   8.591   2.908   4.363 -0.1034 -0.1444  0.0823
  817MOL0     N 7729   8.719   2.866   4.420 -0.8600  0.0614 -0.5984
  817MOL0     C 7730   8.827   2.822   4.351 -0.2267 -0.1830  0.0196
  817MOL0     C 7731   8.923   2.808   4.444  0.6484 -0.2188 -0.7192
  817MOL0     C 7732   9.067   2.764   4.419  0.3691 -0.3293  0.2369
  817MOL0     C 7733   9.086   2.652   4.324  0.7916  0.2304  0.0807
  817MOL0     C 7734   9.107   2.679   4.179 -0.5885  0.3729  0.2185
  817MOL0     C 7735   9.095   2.542   4.094  0.6143  0.1632 -0.0118
  817MOL0     O 7736   8.972   2.478   4.139  0.0439  0.3972  0.4005
  817MOL0     C 7737   8.846   2.518   4.094  0.0873 -0.0426 -0.7511
  817MOL0     C 7738   8.819   2.626   3.998  0.5152 -0.2457  0.6732
  817MOL0     C 7739   8.689   2.659   3.968  0.5601 -0.0667 -0.5520
  817MOL0     C 7740   8.581   2.591   4.035  0.8185 -0.2196  0.4218
  817MOL0     C 7741   8.432   2.628   4.003 -0.1038  0.5812  0.1445
  817MOL0     O 7742   8.327   2.556   4.073  0.3241  0.0013  0.7338
  817MOL0     C 7743   8.204   2.561   4.017 -0.5880 -0.1541  0.3581
  817MOL0     C 7744   8.096   2.572   4.109 -0.1178  0.9198  0.5172
  817MOL0     C 7745   7.965   2.558   4.069  0.2090 -0.3484  0.9068
  817MOL0     C 7746   7.936   2.531   3.937 -0.3076  1.1531 -0.0954
  817MOL0     O 7747   7.804   2.538   3.897  0.2350 -0.4391  0.1574
  817MOL0     C 7748   7.766   2.509   3.759  0.5847  0.6165  0.1530
  817MOL0     C 7749   7.638   2.584   3.733  0.0009  1.3082 -0.0590
  817MOL0     C 7750   7.548   2.502   3.639 -0.3851 -0.2698 -0.2109
  817MOL0     C 7751   7.477   2.595   3.540  0.2029 -0.0610  0.0031
  817MOL0     C 7752   7.364   2.528   3.457 -0.7574 -0.7743 -0.1667
  817MOL0     C 7753   7.240   2.513   3.552 -0.3120  1.1833  0.4211
  817MOL0     C 7754   7.142   2.415   3.482  0.5819  0.0764  0.4431
  817MOL0     C 7755   7.083   2.480   3.357  0.9557  0.0394  0.5882
  817MOL0    Cl 7756   6.903   2.450   3.351 -0.4094 -0.2438  0.2419
  817MOL0     C 7757   8.047   2.500   3.851  0.1033 -0.0681  0.7858
  817MOL0     C 7758   8.183   2.525   3.881 -0.6609 -0.6466  0.4176
  817MOL0     O 7759   8.424   2.697   3.906  0.4534 -0.5162 -0.8792
  817MOL0     C 7760   8.601   2.483   4.121  1.0456  0.5106  0.1056
  817MOL0     C 7761   8.730   2.449   4.152  0.1573 -0.3825 -0.3902
  817MOL0     N 7762   8.872   2.845   4.571 -0.0796  0.2591 -0.1613
  817MOL0     N 7763   8.751   2.882   4.554 -0.6556  0.1387  0.1312
  817MOL0     C 7764   7.904   2.800   3.586 -0.5308 -0.0614 -0.2542
  817MOL0     C 7765   7.893   2.706   3.482 -0.2706 -0.7228 -0.6631
  817MOL0     C 7766   7.963   2.545   3.091  0.2372  0.5309  0.2759
  817MOL0     C 7767   7.927   2.611   2.980  0.4095  0.1785 -0.0742
  817MOL0     C 7768   7.867   2.551   2.872  0.0482  0.0928  0.0677
  817MOL0     C 7769   7.850   2.403   2.869  0.9419 -0.5342 -0.1170
  817MOL0     O 7770   7.795   2.344   2.761 -0.1098  0.7427  0.1833
  817MOL0     C 7771   7.782   2.195   2.774  0.2135 -0.3427 -0.3755
  817MOL0     C 7772   7.703   2.162   2.647 -1.5876  0.9135  0.5835
  817MOL0     C 7773   7.775   2.143   2.507  0.8179 -1.0704 -0.5910
  817MOL0     C 7774   7.789   2.269   2.430 -0.6660 -0.5009 -0.5659
  817MOL0     C 7775   7.658   2.327   2.422 -0.4973  0.2552  0.2143
  817MOL0     C 7776   7.542   2.372   2.427 -0.1050  0.7811 -1.2487
  817MOL0     C 7777   7.889   2.338   2.986  0.3257  0.0154 -0.0307
  817MOL0     C 7778   7.951   2.402   3.092  0.4667 -1.0672  0.0654
  817MOL0     H 7779   8.215   2.585   3.477 -1.1222 -3.1610 -0.5063
  817MOL0     H 7780   8.225   2.731   3.666 -1.4172 -0.6596  1.8682
  817MOL0     H 7781   8.225   2.941   3.784  0.1221 -0.0289  1.0370
  817MOL0     H 7782   8.145   2.806   3.870  1.7501 -0.0194 -0.1481
  817MOL0     H 7783   8.003   3.004   3.978 -0.4538  0.3261 -0.5068
  817MOL0     H 7784   8.107   3.102   3.869  0.4991 -1.9689 -2.4361
  817MOL0     H 7785   8.194   3.125   4.084 -1.9223  0.7795 -1.8342
  817MOL0     H 7786   8.321   3.037   4.002  0.9090 -1.3296 -0.2064
  817MOL0     H 7787   8.116   2.927   4.197  0.4575 -1.2829  0.5057
  817MOL0     H 7788   8.225   2.832   4.078 -0.9444 -0.9643  1.2726
  817MOL0     H 7789   8.349   3.047   4.249 -1.6526  0.5600 -0.8240
  817MOL0     H 7790   8.416   2.908   4.164  1.7272 -3.8259  3.1828
  817MOL0     H 7791   8.268   2.770   4.332  0.6303  1.2570 -1.2928
  817MOL0     H 7792   8.275   2.899   4.438  3.0736 -0.6535  1.3639
  817MOL0     H 7793   8.467   2.778   4.498 -0.1744 -0.0658  0.8266
  817MOL0     H 7794   8.496   2.716   4.340 -1.5471  2.4229 -3.4695
  817MOL0     H 7795   8.581   3.008   4.407  4.3236  0.1987  0.8374
  817MOL0     H 7796   8.603   2.925   4.256  4.6255 -0.1732  0.4027
  817MOL0     H 7797   8.818   2.810   4.244 -0.3969 -1.0337  0.1201
  817MOL0     H 7798   9.126   2.735   4.507  0.6573 -0.8260 -0.1132
  817MOL0     H 7799   9.130   2.841   4.375  3.7443 -2.7546  0.4097
  817MOL0     H 7800   8.992   2.596   4.332 -0.0710  1.7694  1.4857
  817MOL0     H 7801   9.172   2.594   4.357  0.6469  0.9696  1.8513
  817MOL0     H 7802   9.028   2.749   4.153 -1.9172 -2.0494 -2.8974
  817MOL0     H 7803   9.211   2.711   4.168  0.4261 -2.1279  1.5384
  817MOL0     H 7804   9.187   2.484   4.108  0.0173 -0.4670  1.5632
  817MOL0     H 7805   9.082   2.575   3.991 -0.7870  3.9550  1.2028
  817MOL0     H 7806   8.905   2.677   3.956  0.4804  0.5372  1.5236
  817MOL0     H 7807   8.678   2.733   3.890  3.3205 -0.1695 -1.1185
  817MOL0     H 7808   8.103   2.619   4.207 -1.4755 -0.3977  1.2938
  817MOL0     H 7809   7.884   2.571   4.139 -1.1146  0.2927 -0.6810
  817MOL0     H 7810   7.749   2.403   3.741  0.2605  0.5886  0.6147
  817MOL0     H 7811   7.835   2.550   3.685 -0.6968  1.7937 -0.4267
  817MOL0     H 7812   7.656   2.688   3.706  2.4401  0.9117 -0.2034
  817MOL0     H 7813   7.592   2.582   3.832  0.2773 -2.0672  0.1345
  817MOL0     H 7814   7.481   2.450   3.708  2.5754  0.3079  3.3953
  817MOL0     H 7815   7.604   2.426   3.584  2.8165  1.4000  0.4953
  817MOL0     H 7816   7.445   2.683   3.596  2.2694  0.2872  0.7307
  817MOL0     H 7817   7.554   2.631   3.472  0.8362 -2.2570 -0.5429
  817MOL0     H 7818   7.386   2.428   3.418 -0.1161  0.5150 -3.4390
  817MOL0     H 7819   7.344   2.606   3.383 -1.7189 -1.3789 -0.5632
  817MOL0     H 7820   7.181   2.604   3.569 -1.8798  1.1943 -3.7977
  817MOL0     H 7821   7.272   2.470   3.647 -3.2312 -1.6981  0.2696
  817MOL0     H 7822   7.187   2.317   3.463 -2.1598 -2.2549  4.5254
  817MOL0     H 7823   7.060   2.383   3.546  1.8904 -3.7900  0.4406
  817MOL0     H 7824   7.122   2.445   3.261 -2.2780 -1.0546 -0.4309
  817MOL0     H 7825   7.079   2.589   3.345 -0.9768 -0.2209 -1.8129
  817MOL0     H 7826   8.032   2.471   3.747  1.1502  0.5891  0.4372
  817MOL0     H 7827   8.268   2.500   3.819  0.4178  0.3166  1.4667
  817MOL0     H 7828   8.512   2.441   4.168 -0.0675  3.9548  1.4497
  817MOL0     H 7829   8.758   2.377   4.229  0.7717  2.1165  1.8699
  817MOL0     H 7830   7.818   2.859   3.614  1.2946  2.0029  1.4158
  817MOL0     H 7831   7.799   2.688   3.431 -1.1241 -1.7201  1.1736
  817MOL0     H 7832   7.941   2.719   2.981  1.8219  0.0390 -1.0378
  817MOL0     H 7833   7.848   2.618   2.789  0.7799  1.2132  0.7719
  817MOL0     H 7834   7.715   2.193   2.861  0.7911  1.3199  0.1446
  817MOL0     H 7835   7.875   2.142   2.791  0.5323  0.6219  1.0254
  817MOL0     H 7836   7.670   2.060   2.670 -4.2205  1.0126 -2.0973
  817MOL0     H 7837   7.605   2.211   2.640 -1.2242  1.6123  0.3019
  817MOL0     H 7838   7.720   2.067   2.450 -1.4361  0.0792 -0.0925
  817MOL0     H 7839   7.876   2.107   2.524 -0.3512 -4.1441  0.6328
  817MOL0     H 7840   7.855   2.344   2.477  0.3520  0.5355 -3.4430
  817MOL0     H 7841   7.823   2.260   2.327 -1.5098  1.5015 -1.0722
  817MOL0     H 7842   7.438   2.400   2.426 -1.2414 -2.3848  2.5870
  817MOL0     H 7843   7.881   2.231   3.000 -0.6047  0.0389 -0.3286
  817MOL0     H 7844   7.989   2.356   3.182 -0.9624  0.5350  1.5770
  818MOL0     O 7845   3.070   7.552   8.912 -0.1476  0.7650 -0.3795
  818MOL0     C 7846   3.069   7.525   8.793  0.3284  0.6329  0.7992
  818MOL0     O 7847   3.092   7.400   8.739  0.2243 -0.7602 -0.1886
  818MOL0     C 7848   3.118   7.286   8.824 -0.0961 -0.5467 -0.0427
  818MOL0     C 7849   3.082   7.170   8.771  0.0720 -0.6590 -0.1875
  818MOL0     C 7850   3.107   7.058   8.841  0.5641  0.0773 -1.0370
  818MOL0     C 7851   3.152   7.060   8.972 -0.2663  0.1236  0.0765
  818MOL0     O 7852   3.172   6.939   9.039 -0.4476 -1.0304 -0.6226
  818MOL0     C 7853   3.292   6.921   9.114 -0.5304  0.0385 -0.3440
  818MOL0     C 7854   3.339   6.775   9.100  0.5091 -0.6307  0.1956
  818MOL0     C 7855   3.366   6.731   8.959  0.2425  0.4891  0.4136
  818MOL0     C 7856   3.240   6.694   8.876  0.4475 -0.2340 -0.3403
  818MOL0     C 7857   3.200   6.547   8.916 -1.1218 -0.7657 -0.5976
  818MOL0     C 7858   3.072   6.494   8.856 -0.2749  0.0454  0.1656
  818MOL0     C 7859   2.950   6.572   8.892 -0.4597  0.4202 -0.2364
  818MOL0     C 7860   2.901   6.589   9.037  0.4171 -0.3692  0.3299
  818MOL0     N 7861   2.815   6.480   9.074 -0.4250  0.2029 -0.0017
  818MOL0     C 7862   2.736   6.484   9.187 -0.7276 -0.2298 -0.2192
  818MOL0     C 7863   2.690   6.358   9.208  0.4556  0.0294  0.1656
  818MOL0     C 7864   2.590   6.320   9.317 -0.3100 -0.4162 -0.3299
  818MOL0     C 7865   2.649   6.218   9.407  0.4949  0.1745  0.2219
  818MOL0     C 7866   2.776   6.262   9.486 -0.0104 -0.1185  0.4936
  818MOL0     C 7867   2.744   6.295   9.630 -0.2767  0.0537 -0.8116
  818MOL0     O 7868   2.635   6.384   9.641  1.1425 -0.3469  0.1718
  818MOL0     C 7869   2.668   6.515   9.623  0.4212 -0.9456  0.2534
  818MOL0     C 7870   2.563   6.602   9.673 -1.1463  0.6307 -0.2751
  818MOL0     C 7871   2.581   6.741   9.661  0.9787  0.6275 -0.7767
  818MOL0     C 7872   2.700   6.793   9.610 -0.4704 -0.5635  0.5575
  818MOL0     C 7873   2.713   6.943   9.593  0.2416  0.0057  0.1812
  818MOL0     O 7874   2.599   7.016   9.588 -0.5254 -0.3119 -0.3097
  818MOL0     C 7875   2.616   7.145   9.551  0.0667 -0.2447 -0.4322
  818MOL0     C 7876   2.646   7.238   9.656  0.3474  0.1206 -0.6543
  818MOL0     C 7877   2.659   7.365   9.621 -0.0478 -0.5332 -0.2994
  818MOL0     C 7878   2.631   7.413   9.488 -0.5828  0.2032 -0.3565
  818MOL0     O 7879   2.649   7.541   9.432 -0.2304 -0.1493 -0.4958
  818MOL0     C 7880   2.761   7.616   9.473 -1.0124 -1.0934 -0.5704
  818MOL0     C 7881   2.767   7.753   9.389 -0.2623  0.3510  0.3436
  818MOL0     C 7882   2.656   7.852   9.431  0.2449  1.1314 -0.6671
  818MOL0     C 7883   2.651   7.975   9.334 -0.0045  0.5390 -0.0191
  818MOL0     C 7884   2.570   8.099   9.378  0.9145  0.8587  0.2594
  818MOL0     C 7885   2.416   8.053   9.409 -0.8883 -1.1807  0.3922
  818MOL0     C 7886   2.355   7.984   9.293  1.1870  1.0872  0.0813
  818MOL0     C 7887   2.198   7.992   9.305  0.8340 -0.2115  0.7045
  818MOL0    Cl 7888   2.150   8.135   9.223  0.6797  0.0698  0.4198
  818MOL0     C 7889   2.596   7.324   9.392 -0.2151  0.0000  0.9601
  818MOL0     C 7890   2.597   7.187   9.423  0.4100  0.0827 -0.2412
  818MOL0     O 7891   2.828   6.990   9.590 -0.3637 -0.6683 -0.5567
  818MOL0     C 7892   2.811   6.712   9.592  0.0296 -0.3509  0.5326
  818MOL0     C 7893   2.788   6.574   9.587  1.3512 -0.3007 -0.6926
  818MOL0     N 7894   2.737   6.283   9.101 -0.4131  0.3496 -0.2778
  818MOL0     N 7895   2.816   6.354   9.028  0.0384  0.3317 -0.2687
  818MOL0     C 7896   3.201   7.179   9.022  0.3432 -0.6700 -0.1241
  818MOL0     C 7897   3.184   7.292   8.946  0.6706 -0.1680  0.8674
  818MOL0     C 7898   3.032   7.639   8.709  0.0645  0.8978 -0.4645
  818MOL0     C 7899   2.978   7.614   8.582  0.4374 -0.3239  0.2313
  818MOL0     C 7900   2.957   7.719   8.496  1.0528  0.2775 -0.2455
  818MOL0     C 7901   2.975   7.852   8.528  0.3126  0.0929  0.6765
  818MOL0     O 7902   2.946   7.958   8.447 -0.4218  0.7999  0.8929
  818MOL0     C 7903   2.913   7.936   8.310  0.3822  0.3964  0.3615
  818MOL0     C 7904   2.919   8.062   8.228 -0.0866 -0.5058  0.2733
  818MOL0     C 7905   2.793   8.145   8.244 -0.3425 -0.4566  0.4738
  818MOL0     C 7906   2.827   8.299   8.227  0.0853 -0.3022  0.2681
  818MOL0     C 7907   2.720   8.383   8.274  0.0507  0.6440  0.6754
  818MOL0     C 7908   2.625   8.464   8.285 -0.2348  0.4363  0.0113
  818MOL0     C 7909   3.013   7.878   8.662  0.1152 -0.5037  0.3024
  818MOL0     C 7910   3.037   7.775   8.757  0.2806  1.3184  0.1568
  818MOL0     H 7911   3.050   7.174   8.667 -0.7771  0.3548  0.0992
  818MOL0     H 7912   3.087   6.962   8.793 -0.1742 -0.2460 -0.1140
  818MOL0     H 7913   3.264   6.947   9.216  0.3026  1.7108 -0.5113
  818MOL0     H 7914   3.375   6.985   9.083  0.7891 -0.8716  1.1370
  818MOL0     H 7915   3.262   6.703   9.132 -1.9730  0.7915 -2.1533
  818MOL0     H 7916   3.429   6.762   9.160  0.7414 -1.8331 -0.3762
  818MOL0     H 7917   3.419   6.636   8.968 -2.3016 -1.0100  0.5297
  818MOL0     H 7918   3.427   6.808   8.912  0.2067  2.3667  3.1952
  818MOL0     H 7919   3.158   6.762   8.900 -0.2273 -0.6790 -1.3155
  818MOL0     H 7920   3.255   6.696   8.768 -1.1471  0.3162 -0.5703
  818MOL0     H 7921   3.190   6.537   9.024  0.5422  0.3689 -0.2972
  818MOL0     H 7922   3.291   6.499   8.881  0.0220  1.3594 -0.7347
  818MOL0     H 7923   3.059   6.391   8.891  1.2067 -0.1758  0.1406
  818MOL0     H 7924   3.077   6.489   8.747 -4.3284  0.2593 -0.1706
  818MOL0     H 7925   2.984   6.669   8.855  3.1988  0.2883  2.3484
  818MOL0     H 7926   2.858   6.537   8.844 -1.9859  0.0961  2.6754
  818MOL0     H 7927   2.850   6.685   9.042  0.4173 -0.0547 -3.3108
  818MOL0     H 7928   2.983   6.588   9.110  1.6768  2.5451 -0.9191
  818MOL0     H 7929   2.701   6.570   9.242 -2.9819  1.3471 -3.7478
  818MOL0     H 7930   2.499   6.284   9.269 -1.1218 -1.4887  1.9036
  818MOL0     H 7931   2.552   6.400   9.382 -0.6677 -2.0952  1.6257
  818MOL0     H 7932   2.680   6.131   9.348  3.2069  1.3507 -0.2224
  818MOL0     H 7933   2.567   6.187   9.472  1.1961 -1.3216  0.4292
  818MOL0     H 7934   2.834   6.169   9.489  0.0648 -0.0747  0.4139
  818MOL0     H 7935   2.833   6.338   9.431 -1.3147  0.0499 -0.6734
  818MOL0     H 7936   2.836   6.327   9.679 -0.1747 -3.2140  1.4337
  818MOL0     H 7937   2.709   6.204   9.680 -0.0152  0.1548 -0.4412
  818MOL0     H 7938   2.474   6.563   9.721  0.8251 -3.7198  0.3216
  818MOL0     H 7939   2.498   6.804   9.689 -0.9608 -1.4174 -1.5765
  818MOL0     H 7940   2.657   7.193   9.754  0.7606  0.4729 -0.5390
  818MOL0     H 7941   2.698   7.436   9.693 -4.4035 -0.6132  2.4892
  818MOL0     H 7942   2.851   7.558   9.449 -1.7488 -2.5909  0.1439
  818MOL0     H 7943   2.763   7.636   9.581  1.2714 -1.1797 -0.5513
  818MOL0     H 7944   2.751   7.736   9.282 -3.6168  1.4086  0.5608
  818MOL0     H 7945   2.868   7.796   9.398  1.1793 -3.0411  2.2943
  818MOL0     H 7946   2.673   7.878   9.535  1.7377  0.0975 -0.6329
  818MOL0     H 7947   2.558   7.804   9.438  1.3601 -0.9475  2.1716
  818MOL0     H 7948   2.752   8.009   9.310  0.6846 -0.5821  1.1384
  818MOL0     H 7949   2.606   7.931   9.245  1.6644 -0.3889 -0.4434
  818MOL0     H 7950   2.581   8.179   9.305  3.2419  1.8626  1.5886
  818MOL0     H 7951   2.611   8.145   9.468  0.8660 -2.5369  2.1826
  818MOL0     H 7952   2.353   8.141   9.428 -1.3272 -1.1528 -1.0873
  818MOL0     H 7953   2.412   7.986   9.495 -2.8181 -1.9733 -0.2738
  818MOL0     H 7954   2.386   8.034   9.201  2.9415  1.7656  1.0006
  818MOL0     H 7955   2.394   7.882   9.304  2.7689  1.7714  1.0933
  818MOL0     H 7956   2.166   8.001   9.409 -2.3838  1.4854 -0.2845
  818MOL0     H 7957   2.153   7.902   9.262  0.9183  0.1046 -0.0526
  818MOL0     H 7958   2.581   7.343   9.287  1.4911 -5.9716 -0.7764
  818MOL0     H 7959   2.559   7.114   9.353  0.2827 -1.9084  1.7909
  818MOL0     H 7960   2.908   6.744   9.554 -0.4134 -1.1681 -1.4216
  818MOL0     H 7961   2.865   6.516   9.538  1.6874 -1.3082  0.9502
  818MOL0     H 7962   3.239   7.185   9.124  1.3605 -4.1921 -0.1736
  818MOL0     H 7963   3.226   7.386   8.981 -0.2388 -0.0537  1.6659
  818MOL0     H 7964   2.948   7.514   8.552 -0.4394 -0.8739  2.7642
  818MOL0     H 7965   2.906   7.689   8.405  0.3320 -0.3953  0.3676
  818MOL0     H 7966   2.819   7.881   8.303  0.3029  0.4506  0.9441
  818MOL0     H 7967   2.998   7.880   8.269 -0.7795 -1.4076  0.2947
  818MOL0     H 7968   3.007   8.117   8.262  0.7676 -0.1570 -2.2896
  818MOL0     H 7969   2.913   8.044   8.120 -2.4098  1.0272  0.0714
  818MOL0     H 7970   2.762   8.142   8.349  3.4668 -1.3293  1.7339
  818MOL0     H 7971   2.716   8.100   8.180 -0.5850 -0.7221  0.9458
  818MOL0     H 7972   2.921   8.332   8.271 -0.8464  1.3969  1.0632
  818MOL0     H 7973   2.834   8.305   8.118  1.5842 -1.6806  0.2454
  818MOL0     H 7974   2.543   8.520   8.325  0.6290  2.4667 -0.8731
  818MOL0     H 7975   3.026   7.981   8.694 -1.8153 -0.7422  2.0818
  818MOL0     H 7976   3.065   7.787   8.861 -1.2744 -0.3097  0.8162
  819MOL0     O 7977   3.939   5.979   8.593 -0.3375 -0.4704 -0.0850
  819MOL0     C 7978   4.009   6.086   8.587  0.8243  0.6513 -0.1095
  819MOL0     O 7979   4.005   6.173   8.484  0.1298 -0.1945 -0.9880
  819MOL0     C 7980   3.953   6.152   8.363  0.8305  0.1388  0.7494
  819MOL0     C 7981   3.953   6.259   8.272 -0.2230 -0.5877 -0.6270
  819MOL0     C 7982   3.890   6.250   8.145 -0.5613 -0.5962 -0.3398
  819MOL0     C 7983   3.824   6.141   8.111  0.7552 -0.5171  0.3632
  819MOL0     O 7984   3.745   6.152   7.994  0.1123 -0.0335 -0.2937
  819MOL0     C 7985   3.712   6.037   7.916 -0.3214  0.5426 -0.5456
  819MOL0     C 7986   3.589   6.039   7.819  0.2119  0.2279 -1.0126
  819MOL0     C 7987   3.621   6.126   7.693  0.3022  0.0738 -0.1520
  819MOL0     C 7988   3.493   6.123   7.596  0.6669 -0.5416  0.5041
  819MOL0     C 7989   3.524   6.191   7.463  0.0948 -0.2460 -0.2234
  819MOL0     C 7990   3.523   6.346   7.467  0.2144  0.2906 -0.6151
  819MOL0     C 7991   3.560   6.398   7.330 -0.4820  0.1608 -0.4146
  819MOL0     C 7992   3.584   6.554   7.325 -0.2903 -0.0157 -0.5704
  819MOL0     N 7993   3.456   6.605   7.294 -0.5528 -0.1433 -1.0826
  819MOL0     C 7994   3.385   6.575   7.177 -0.3230  0.8697  0.4544
  819MOL0     C 7995   3.257   6.607   7.197  0.0882 -0.7909 -0.1429
  819MOL0     C 7996   3.141   6.609   7.099 -0.4651 -0.3660 -0.2878
  819MOL0     C 7997   3.103   6.754   7.065 -0.4772  0.7456 -0.8185
  819MOL0     C 7998   3.019   6.762   6.939  0.1681  0.9433  0.2742
  819MOL0     C 7999   2.957   6.899   6.936 -0.3770  0.0995 -0.8597
  819MOL0     O 8000   2.861   6.908   6.832  0.3083  0.3567  0.1788
  819MOL0     C 8001   2.800   7.023   6.789 -0.4481 -0.9677 -0.2926
  819MOL0     C 8002   2.817   7.137   6.868  0.1050  0.1220  0.7932
  819MOL0     C 8003   2.745   7.252   6.831  0.0973  0.0229 -0.0215
  819MOL0     C 8004   2.640   7.251   6.740  0.0676 -0.5434  0.2655
  819MOL0     C 8005   2.547   7.368   6.714 -0.7806  0.1207 -0.0654
  819MOL0     O 8006   2.469   7.342   6.602  0.1437 -0.0799  0.0794
  819MOL0     C 8007   2.355   7.410   6.594 -0.0447 -1.2545 -0.3413
  819MOL0     C 8008   2.239   7.347   6.639 -0.0572 -0.1395  0.0965
  819MOL0     C 8009   2.121   7.429   6.625 -0.1243 -0.0433 -0.7165
  819MOL0     C 8010   2.115   7.563   6.584 -0.6309  0.3718  0.7250
  819MOL0     O 8011   1.993   7.626   6.581  0.1624 -0.1612 -0.0171
  819MOL0     C 8012   1.975   7.753   6.515  0.4407  0.3085 -0.0178
  819MOL0     C 8013   1.823   7.773   6.500  0.9677  0.5366  0.1625
  819MOL0     C 8014   1.771   7.835   6.621  1.1036  0.2886 -0.3738
  819MOL0     C 8015   1.617   7.808   6.628 -0.4628 -0.0478  0.2914
  819MOL0     C 8016   1.528   7.865   6.744 -0.5032  0.3849  0.5793
  819MOL0     C 8017   1.392   7.826   6.705  0.4854  0.6109 -0.3734
  819MOL0     C 8018   1.365   7.678   6.692 -0.0290  0.0385 -0.3617
  819MOL0     C 8019   1.219   7.645   6.723  0.7485 -0.5760 -0.0365
  819MOL0    Cl 8020   1.121   7.728   6.602 -0.2588  0.0536  0.2093
  819MOL0     C 8021   2.235   7.616   6.541 -0.3744 -0.1549  0.0599
  819MOL0     C 8022   2.350   7.538   6.550 -0.5758  0.0931  0.0491
  819MOL0     O 8023   2.560   7.480   6.769 -0.6113  0.1640  0.3419
  819MOL0     C 8024   2.630   7.125   6.661  0.0754  0.9933 -0.8088
  819MOL0     C 8025   2.713   7.020   6.683  0.2794 -0.2602 -0.3534
  819MOL0     N 8026   3.252   6.665   7.322  0.0510  0.3262  0.2629
  819MOL0     N 8027   3.365   6.659   7.374  0.2663  0.4961 -1.3112
  819MOL0     C 8028   3.826   6.028   8.193 -0.2729 -0.6559 -0.9212
  819MOL0     C 8029   3.878   6.042   8.323  0.1198 -0.1458 -0.2524
  819MOL0     C 8030   4.092   6.115   8.705  0.0855 -0.2425  1.0069
  819MOL0     C 8031   4.106   6.019   8.811  0.5963 -0.4599  0.5043
  819MOL0     C 8032   4.167   6.056   8.931 -0.2352 -0.0156  0.4830
  819MOL0     C 8033   4.247   6.169   8.934  0.4144 -0.1589 -0.0582
  819MOL0     O 8034   4.305   6.204   9.047  0.0622  0.0476 -0.7410
  819MOL0     C 8035   4.451   6.190   9.045 -0.0991 -0.3018  0.0452
  819MOL0     C 8036   4.504   6.140   9.182 -0.0890  0.0600 -0.0325
  819MOL0     C 8037   4.458   5.998   9.222 -0.5695 -0.6064 -0.8620
  819MOL0     C 8038   4.523   5.973   9.363  0.4311 -1.1224  0.2032
  819MOL0     C 8039   4.497   5.831   9.403 -0.0141  1.6120  0.0814
  819MOL0     C 8040   4.467   5.710   9.411 -0.5953 -0.3840 -0.0323
  819MOL0     C 8041   4.248   6.254   8.823 -0.2454 -1.1443 -0.6817
  819MOL0     C 8042   4.168   6.232   8.707 -1.2201 -0.1740  0.1912
  819MOL0     H 8043   4.001   6.350   8.306  2.5254 -2.2571  0.3776
  819MOL0     H 8044   3.870   6.341   8.090 -0.3243  1.5204  2.8252
  819MOL0     H 8045   3.700   5.951   7.982 -0.3482  0.5758 -0.5075
  819MOL0     H 8046   3.799   6.017   7.853 -0.2247 -0.1426 -0.2083
  819MOL0     H 8047   3.506   6.089   7.870  2.6073  5.2026 -1.3641
  819MOL0     H 8048   3.579   5.932   7.800  1.0453  0.0117 -0.2889
  819MOL0     H 8049   3.714   6.098   7.643  0.4340  0.9415 -0.4053
  819MOL0     H 8050   3.654   6.223   7.730 -0.9138 -0.2313  1.8631
  819MOL0     H 8051   3.462   6.021   7.570 -3.8635  0.9668 -0.9455
  819MOL0     H 8052   3.407   6.170   7.644 -1.3059 -1.6785 -1.7235
  819MOL0     H 8053   3.440   6.171   7.395 -1.0534 -0.4103  1.1806
  819MOL0     H 8054   3.619   6.144   7.436  0.3293  0.2228 -0.2237
  819MOL0     H 8055   3.601   6.368   7.541 -2.0881  2.3054  1.3975
  819MOL0     H 8056   3.433   6.393   7.507  0.7814  4.4746 -3.5670
  819MOL0     H 8057   3.655   6.355   7.296 -0.8996  1.3705 -3.3689
  819MOL0     H 8058   3.490   6.369   7.252 -1.9190 -0.7449  1.1454
  819MOL0     H 8059   3.667   6.572   7.256  0.6679 -1.6531  0.0944
  819MOL0     H 8060   3.618   6.598   7.419 -1.0132 -0.2274 -0.1989
  819MOL0     H 8061   3.430   6.542   7.084  2.0235  3.9716  0.3152
  819MOL0     H 8062   3.056   6.562   7.151 -2.0959  2.5742 -0.1139
  819MOL0     H 8063   3.163   6.552   7.008  0.4492  0.1366 -0.3975
  819MOL0     H 8064   3.195   6.814   7.065  0.9578 -1.3402 -2.2047
  819MOL0     H 8065   3.058   6.803   7.152  1.8509  1.1359  0.2601
  819MOL0     H 8066   3.069   6.751   6.843  0.2705  0.7455  0.3484
  819MOL0     H 8067   2.943   6.682   6.943  4.5260 -3.6855  0.5654
  819MOL0     H 8068   3.039   6.972   6.936  0.8043 -1.1841 -0.4557
  819MOL0     H 8069   2.904   6.921   7.029 -0.4938 -1.3938 -0.5634
  819MOL0     H 8070   2.893   7.143   6.945 -0.3032  0.3953  1.1809
  819MOL0     H 8071   2.783   7.338   6.885  2.3591 -0.3589 -0.8838
  819MOL0     H 8072   2.241   7.242   6.665  1.0067  0.1326  1.2331
  819MOL0     H 8073   2.025   7.385   6.649  0.4083 -0.7649  0.1430
  819MOL0     H 8074   2.023   7.761   6.417 -0.4466  1.5116 -0.3717
  819MOL0     H 8075   2.024   7.825   6.583 -1.3518  0.5109  1.1099
  819MOL0     H 8076   1.778   7.676   6.477 -0.5926  1.8187 -2.9430
  819MOL0     H 8077   1.805   7.831   6.408  2.5461  1.2173  0.2569
  819MOL0     H 8078   1.788   7.943   6.623  0.8849  0.3184  0.3267
  819MOL0     H 8079   1.808   7.781   6.709  2.3846 -2.6276 -2.5440
  819MOL0     H 8080   1.572   7.830   6.531  0.8297 -2.5525 -0.9561
  819MOL0     H 8081   1.628   7.701   6.648  1.4982  0.2146  0.8785
  819MOL0     H 8082   1.536   7.974   6.755  0.9691  0.1913  1.8423
  819MOL0     H 8083   1.567   7.836   6.842  0.1228  0.2536  0.2955
  819MOL0     H 8084   1.381   7.870   6.605  1.3607 -2.4139 -1.9359
  819MOL0     H 8085   1.321   7.867   6.777  0.0021  3.1904 -2.1812
  819MOL0     H 8086   1.397   7.645   6.593  0.6745  0.8070 -0.3986
  819MOL0     H 8087   1.423   7.614   6.758 -2.1856 -2.5900 -0.8286
  819MOL0     H 8088   1.185   7.688   6.818 -0.5514  2.7957 -1.8807
  819MOL0     H 8089   1.205   7.536   6.729 -1.5336 -0.3399 -0.2938
  819MOL0     H 8090   2.247   7.708   6.484 -4.9967  0.0101 -1.0215
  819MOL0     H 8091   2.441   7.576   6.506 -0.6988  0.0148 -0.2740
  819MOL0     H 8092   2.563   7.117   6.575  0.2977  0.4839 -0.9396
  819MOL0     H 8093   2.710   6.926   6.628  0.0797 -0.0455 -0.7115
  819MOL0     H 8094   3.766   5.938   8.183  0.0507 -0.7152 -2.5436
  819MOL0     H 8095   3.858   5.960   8.391 -1.5709 -0.5608 -1.1919
  819MOL0     H 8096   4.042   5.931   8.808  0.1398 -0.1184 -0.1621
  819MOL0     H 8097   4.161   5.985   9.012  1.1630 -0.2415  0.4044
  819MOL0     H 8098   4.493   6.289   9.027 -1.8740  0.4325 -0.2415
  819MOL0     H 8099   4.488   6.126   8.964 -2.5586 -0.3794 -1.1173
  819MOL0     H 8100   4.613   6.143   9.169 -0.1133 -2.1833 -1.3871
  819MOL0     H 8101   4.482   6.208   9.264 -0.0796 -0.0994  0.1019
  819MOL0     H 8102   4.510   5.939   9.146  0.7060 -0.0333 -0.4441
  819MOL0     H 8103   4.349   5.982   9.223 -0.6309 -0.2701  1.2894
  819MOL0     H 8104   4.631   5.990   9.368  0.1015  3.7494 -2.4938
  819MOL0     H 8105   4.492   6.049   9.436 -0.1430 -0.4233 -0.7450
  819MOL0     H 8106   4.442   5.607   9.429  1.2535 -0.7152  0.8048
  819MOL0     H 8107   4.310   6.343   8.822 -2.3153  0.4171  0.9100
  819MOL0     H 8108   4.168   6.304   8.626  0.8576 -1.7512 -1.3179
  820MOL0     O 8109   2.232   6.649   7.955 -0.3470 -0.1055 -0.1659
  820MOL0     C 8110   2.266   6.654   8.074  0.0213 -0.5258  0.5512
  820MOL0     O 8111   2.382   6.703   8.121  0.5612 -0.1670 -0.5788
  820MOL0     C 8112   2.494   6.701   8.053 -0.5525 -0.2685  1.3427
  820MOL0     C 8113   2.602   6.775   8.109  0.3231  1.1392 -0.0788
  820MOL0     C 8114   2.723   6.783   8.052 -0.2026  0.0316 -0.1734
  820MOL0     C 8115   2.754   6.732   7.927  0.2038  0.6590 -0.0232
  820MOL0     O 8116   2.882   6.739   7.882 -0.3647  0.0285 -0.4350
  820MOL0     C 8117   2.913   6.809   7.764 -0.0839 -0.5829 -0.6153
  820MOL0     C 8118   3.061   6.845   7.753 -0.4246  0.3105 -0.6237
  820MOL0     C 8119   3.105   6.985   7.750  0.1357 -0.7659 -0.0369
  820MOL0     C 8120   3.254   7.008   7.725 -0.3699 -0.4396 -0.0492
  820MOL0     C 8121   3.307   7.145   7.768  0.0655 -0.1966 -0.1020
  820MOL0     C 8122   3.232   7.260   7.705 -0.2956 -0.1860 -0.1292
  820MOL0     C 8123   3.285   7.403   7.730 -0.7963  0.0946  0.1639
  820MOL0     C 8124   3.407   7.431   7.648  0.5927  0.3350  0.8272
  820MOL0     N 8125   3.467   7.568   7.672 -0.3784  0.9184 -0.4671
  820MOL0     C 8126   3.435   7.687   7.624 -0.0511  1.0182  0.9708
  820MOL0     C 8127   3.531   7.766   7.669 -0.5265 -0.2159 -0.3461
  820MOL0     C 8128   3.533   7.917   7.633 -0.6715  0.0819  0.1327
  820MOL0     C 8129   3.643   7.952   7.536 -0.6099  0.0482 -0.2064
  820MOL0     C 8130   3.652   7.864   7.409  0.8727 -0.2880 -0.1114
  820MOL0     C 8131   3.717   7.951   7.303  0.3244  0.6131 -0.0511
  820MOL0     O 8132   3.841   8.009   7.349  0.2658  0.2438  0.7597
  820MOL0     C 8133   3.878   8.131   7.306  0.6157 -0.7416 -0.3407
  820MOL0     C 8134   3.825   8.189   7.188  0.5967  0.8760 -0.3740
  820MOL0     C 8135   3.884   8.307   7.149  0.8147 -0.6502 -0.2680
  820MOL0     C 8136   3.990   8.368   7.213 -0.8129 -0.8536 -0.0233
  820MOL0     C 8137   4.040   8.494   7.161 -0.9907  0.1466  0.6234
  820MOL0     O 8138   4.007   8.530   7.029 -0.2664  0.2898 -0.4829
  820MOL0     C 8139   4.047   8.660   6.985 -0.2155  0.8192 -0.0786
  820MOL0     C 8140   4.186   8.694   6.978 -0.4796  0.1357  0.3761
  820MOL0     C 8141   4.224   8.824   6.946 -0.1366  1.1477 -0.5287
  820MOL0     C 8142   4.128   8.922   6.912 -0.0234  0.2662 -0.4192
  820MOL0     O 8143   4.162   9.042   6.858 -0.3730 -0.2985 -0.0209
  820MOL0     C 8144   4.245   9.035   6.744 -0.2729  0.7527  0.1670
  820MOL0     C 8145   4.228   9.172   6.688 -0.4800  0.2832 -0.9673
  820MOL0     C 8146   4.302   9.274   6.778  0.4322  1.3012 -0.3538
  820MOL0     C 8147   4.310   9.412   6.710  0.3945  0.3981 -0.3606
  820MOL0     C 8148   4.170   9.488   6.729  0.0406  0.1395  0.4411
  820MOL0     C 8149   4.186   9.635   6.699  0.3956 -0.2036  0.1537
  820MOL0     C 8150   4.078   9.729   6.755  0.2788  0.0546  0.2123
  820MOL0     C 8151   3.949   9.727   6.674  0.9276 -0.5011  0.8108
  820MOL0    Cl 8152   3.978   9.816   6.522  0.0147 -0.7257 -0.3242
  820MOL0     C 8153   3.997   8.881   6.908  0.2627  0.6948  0.2685
  820MOL0     C 8154   3.956   8.754   6.945  0.5869  0.4039 -0.7221
  820MOL0     O 8155   4.108   8.562   7.241  0.9754  0.2069  0.4666
  820MOL0     C 8156   4.051   8.309   7.326  0.2898  0.3480  0.7022
  820MOL0     C 8157   3.985   8.191   7.368 -0.4331  0.5342 -0.1341
  820MOL0     N 8158   3.622   7.699   7.738  0.2559  0.4896 -0.6022
  820MOL0     N 8159   3.577   7.579   7.760 -0.4274  0.5074  0.4902
  820MOL0     C 8160   2.653   6.659   7.860  0.1217 -0.1295  1.0889
  820MOL0     C 8161   2.524   6.640   7.923 -0.3800  0.1471 -1.0886
  820MOL0     C 8162   2.162   6.620   8.166  0.0076 -0.0763  0.0418
  820MOL0     C 8163   2.166   6.682   8.293  0.2360 -0.6070 -0.1659
  820MOL0     C 8164   2.069   6.658   8.396 -0.9796 -0.3536  0.0043
  820MOL0     C 8165   1.971   6.572   8.373 -0.1617  0.1447 -1.0469
  820MOL0     O 8166   1.885   6.558   8.478 -0.5705 -0.5383  0.6283
  820MOL0     C 8167   1.795   6.451   8.464 -1.0401 -0.4477 -0.1331
  820MOL0     C 8168   1.739   6.430   8.604  0.0374  0.4445  0.2897
  820MOL0     C 8169   1.670   6.559   8.662 -0.0536  0.1928  0.8747
  820MOL0     C 8170   1.570   6.545   8.779  0.6743 -0.7303  0.4154
  820MOL0     C 8171   1.631   6.575   8.910 -1.1286  0.1254 -0.1087
  820MOL0     C 8172   1.683   6.586   9.019  0.6989  0.2104  0.4794
  820MOL0     C 8173   1.975   6.501   8.253 -0.4224 -0.7822 -0.7646
  820MOL0     C 8174   2.064   6.518   8.153 -0.5941  0.0874 -0.0146
  820MOL0     H 8175   2.573   6.819   8.204 -1.1045  0.0677  0.0339
  820MOL0     H 8176   2.803   6.834   8.103 -0.8012 -0.1310  0.9656
  820MOL0     H 8177   2.858   6.904   7.764  1.3285  0.3722 -3.7340
  820MOL0     H 8178   2.875   6.754   7.677  0.9453  0.2592 -1.6245
  820MOL0     H 8179   3.093   6.810   7.654 -1.2965 -0.5917 -0.6042
  820MOL0     H 8180   3.103   6.786   7.835 -2.7572  0.2626  0.6188
  820MOL0     H 8181   3.086   7.031   7.847 -0.4289 -0.0836 -0.4621
  820MOL0     H 8182   3.040   7.030   7.675  0.6329  0.0406  0.0137
  820MOL0     H 8183   3.301   6.929   7.784  0.3860 -0.4059 -0.5950
  820MOL0     H 8184   3.281   6.983   7.622  1.0967  1.6623 -0.2253
  820MOL0     H 8185   3.410   7.143   7.729  0.3874 -0.4244  0.7503
  820MOL0     H 8186   3.319   7.151   7.876  0.6241 -1.2500 -0.0886
  820MOL0     H 8187   3.128   7.253   7.739 -0.5935 -1.8754 -1.2515
  820MOL0     H 8188   3.222   7.246   7.597 -0.6292  1.9360 -0.4163
  820MOL0     H 8189   3.211   7.482   7.713 -1.1540 -0.5095 -1.3277
  820MOL0     H 8190   3.319   7.409   7.833  1.5836  0.4012 -0.5865
  820MOL0     H 8191   3.380   7.422   7.542  0.4978 -0.7016  0.9292
  820MOL0     H 8192   3.480   7.361   7.690 -0.3921  0.9096  3.7349
  820MOL0     H 8193   3.364   7.711   7.545  1.2622  1.0014 -0.2501
  820MOL0     H 8194   3.557   7.974   7.724 -3.0937 -0.5764  1.2688
  820MOL0     H 8195   3.441   7.950   7.584  0.3543  0.7102 -1.4418
  820MOL0     H 8196   3.731   7.933   7.599 -1.6842 -3.5500  0.4072
  820MOL0     H 8197   3.631   8.054   7.498  0.4772  0.7430  1.2244
  820MOL0     H 8198   3.709   7.772   7.426 -0.1158 -0.7812  0.5855
  820MOL0     H 8199   3.547   7.836   7.406  0.6341  0.1476  2.3404
  820MOL0     H 8200   3.643   8.028   7.281  0.8941  1.7712  1.8166
  820MOL0     H 8201   3.726   7.900   7.207 -0.9313  1.4229 -0.6101
  820MOL0     H 8202   3.743   8.154   7.126 -2.0048 -1.1053  3.7452
  820MOL0     H 8203   3.843   8.354   7.060 -1.8001 -0.1908  1.0731
  820MOL0     H 8204   4.272   8.629   6.994  3.2845  3.8578 -2.3907
  820MOL0     H 8205   4.327   8.857   6.947 -0.6505  2.9192  0.6008
  820MOL0     H 8206   4.215   8.962   6.669  2.6116  0.6502 -1.0153
  820MOL0     H 8207   4.347   9.001   6.764 -0.1911  1.6292  1.3283
  820MOL0     H 8208   4.121   9.198   6.690  0.0750  2.9442  1.8298
  820MOL0     H 8209   4.266   9.164   6.585  0.5145 -0.2622 -0.5654
  820MOL0     H 8210   4.403   9.233   6.784 -0.0065  0.1116 -0.8005
  820MOL0     H 8211   4.262   9.289   6.879  0.1362  0.9975 -0.4233
  820MOL0     H 8212   4.389   9.466   6.764  1.1683 -2.1258  1.2306
  820MOL0     H 8213   4.332   9.394   6.605  0.5960 -0.5355 -0.1661
  820MOL0     H 8214   4.118   9.480   6.825 -2.1863  3.4286 -0.3351
  820MOL0     H 8215   4.104   9.445   6.653  0.1370 -1.1881  1.0678
  820MOL0     H 8216   4.194   9.660   6.593 -2.8927 -0.9186 -0.3850
  820MOL0     H 8217   4.278   9.662   6.751 -0.0886 -2.1123  2.1891
  820MOL0     H 8218   4.068   9.696   6.859 -2.9632 -0.6152 -0.2026
  820MOL0     H 8219   4.110   9.833   6.749 -1.4517  0.6021 -0.0548
  820MOL0     H 8220   3.870   9.780   6.728  1.7095  2.2005 -0.5133
  820MOL0     H 8221   3.928   9.626   6.639 -1.0420  0.9909 -2.9479
  820MOL0     H 8222   3.913   8.946   6.886 -1.2188 -1.1909  0.0992
  820MOL0     H 8223   3.849   8.742   6.947  0.5950 -0.0852 -2.1005
  820MOL0     H 8224   4.137   8.355   7.374  1.8685 -0.4976 -1.1575
  820MOL0     H 8225   4.033   8.133   7.446 -0.2458 -0.8145 -1.2046
  820MOL0     H 8226   2.663   6.608   7.764 -1.0461 -3.7775  2.7328
  820MOL0     H 8227   2.446   6.585   7.872  0.9845 -0.2795 -2.8412
  820MOL0     H 8228   2.242   6.746   8.338 -2.0503 -0.5240  4.0714
  820MOL0     H 8229   2.062   6.706   8.493 -1.3650 -1.2208  0.4097
  820MOL0     H 8230   1.838   6.354   8.437 -1.3608 -0.6312  0.0047
  820MOL0     H 8231   1.709   6.469   8.398 -1.8999 -0.9365  0.8253
  820MOL0     H 8232   1.669   6.346   8.591  0.7370 -0.2248  0.7944
  820MOL0     H 8233   1.815   6.384   8.668  1.4912  0.5296 -1.2956
  820MOL0     H 8234   1.615   6.606   8.580  0.4878  0.8236  0.8639
  820MOL0     H 8235   1.745   6.629   8.699  1.7966 -1.4866  0.4299
  820MOL0     H 8236   1.501   6.625   8.753 -2.1108 -3.2218 -0.3475
  820MOL0     H 8237   1.502   6.460   8.782 -1.6639  1.0698  1.4224
  820MOL0     H 8238   1.743   6.576   9.107 -0.3023 -1.0286  1.0748
  820MOL0     H 8239   1.896   6.432   8.224 -0.1677 -0.6957 -1.6973
  820MOL0     H 8240   2.078   6.464   8.059  1.5157  1.5381 -0.5918
  821MOL0     O 8241   7.669  10.274   6.429  0.1964 -0.2720  0.7815
  821MOL0     C 8242   7.699  10.366   6.508 -0.6631  0.6091  0.5855
  821MOL0     O 8243   7.634  10.486   6.501 -0.1296 -0.8036  0.9185
  821MOL0     C 8244   7.517  10.494   6.421 -0.3992  0.2936  0.2495
  821MOL0     C 8245   7.505  10.555   6.293 -0.1837 -0.0658 -0.2080
  821MOL0     C 8246   7.382  10.560   6.230  0.1809  0.2600 -0.8619
  821MOL0     C 8247   7.264  10.496   6.290 -0.5261 -0.5350 -0.0601
  821MOL0     O 8248   7.141  10.482   6.239 -0.4748 -0.4465 -1.0515
  821MOL0     C 8249   7.123  10.521   6.102 -0.2985  0.4430  0.1460
  821MOL0     C 8250   6.993  10.471   6.047 -0.3117 -0.0127  0.8120
  821MOL0     C 8251   6.873  10.552   6.098  1.4102  0.1995 -0.0079
  821MOL0     C 8252   6.755  10.534   6.004  1.1121  0.0246  0.1220
  821MOL0     C 8253   6.612  10.579   6.039 -0.5789 -0.1712 -0.6929
  821MOL0     C 8254   6.611  10.719   6.103 -0.7139 -0.8585  0.2303
  821MOL0     C 8255   6.641  10.827   5.996 -0.2176  0.5191  0.2249
  821MOL0     C 8256   6.621  10.966   6.048  0.5328  0.1048  0.5721
  821MOL0     N 8257   6.678  11.068   5.963  0.4670 -0.3422  0.4687
  821MOL0     C 8258   6.658  11.090   5.826  0.3461 -0.0747  0.4076
  821MOL0     C 8259   6.747  11.186   5.788 -0.6451 -0.4427 -0.5008
  821MOL0     C 8260   6.752  11.253   5.655  0.2493 -0.5856 -0.3458
  821MOL0     C 8261   6.655  11.376   5.653 -0.2648 -0.0665 -0.0555
  821MOL0     C 8262   6.672  11.448   5.515  0.6652 -0.5214 -0.4608
  821MOL0     C 8263   6.550  11.543   5.505  0.6714 -0.0560  0.5209
  821MOL0     O 8264   6.437  11.474   5.443 -0.1320  0.3074 -0.6980
  821MOL0     C 8265   6.323  11.537   5.414 -0.5527 -0.3869  0.0528
  821MOL0     C 8266   6.295  11.660   5.465  0.0923 -0.3864 -0.4898
  821MOL0     C 8267   6.170  11.714   5.439 -0.6532  0.3399 -0.8147
  821MOL0     C 8268   6.071  11.649   5.364  0.2984 -0.9123 -0.0839
  821MOL0     C 8269   5.937  11.709   5.327  0.1137  0.8690 -1.5995
  821MOL0     O 8270   5.854  11.639   5.244 -0.1007 -0.2824  0.1340
  821MOL0     C 8271   5.750  11.709   5.176 -0.4401  0.3770  0.7359
  821MOL0     C 8272   5.639  11.629   5.141  0.4241 -0.0671  0.3591
  821MOL0     C 8273   5.535  11.678   5.066 -0.3671 -0.3066  0.0738
  821MOL0     C 8274   5.536  11.817   5.030  0.2022  0.0465  0.0291
  821MOL0     O 8275   5.434  11.873   4.967  0.3007  0.9894  0.2507
  821MOL0     C 8276   5.382  11.991   5.020  0.0951 -0.0843 -0.0370
  821MOL0     C 8277   5.241  11.970   5.086 -0.4826 -0.3722  0.8149
  821MOL0     C 8278   5.260  11.903   5.223 -0.6694  0.2973  0.2095
  821MOL0     C 8279   5.114  11.879   5.286  0.0543  0.0073 -0.0447
  821MOL0     C 8280   5.108  11.796   5.419 -0.8991  0.5927  0.9062
  821MOL0     C 8281   5.219  11.827   5.515 -0.4975 -0.1424  0.0622
  821MOL0     C 8282   5.211  11.968   5.568  0.3292  0.5635 -0.2837
  821MOL0     C 8283   5.246  11.959   5.719 -0.3679 -0.4180  0.5259
  821MOL0    Cl 8284   5.102  11.904   5.803  0.1636 -0.2186  0.1075
  821MOL0     C 8285   5.644  11.892   5.071 -0.2169 -0.3417 -1.2203
  821MOL0     C 8286   5.754  11.840   5.141  0.9499  0.4334 -0.3593
  821MOL0     O 8287   5.913  11.815   5.384 -0.9382 -1.0202  1.0739
  821MOL0     C 8288   6.104  11.531   5.296  0.4858  0.6985 -0.6691
  821MOL0     C 8289   6.231  11.472   5.329 -0.1006 -0.2430  1.2294
  821MOL0     N 8290   6.825  11.213   5.900  0.2351 -0.4184  0.2241
  821MOL0     N 8291   6.778  11.152   6.006 -0.0267  0.3619 -0.1343
  821MOL0     C 8292   7.281  10.445   6.418  0.2212 -0.2422  0.1821
  821MOL0     C 8293   7.403  10.452   6.482  1.0636  0.0966  0.4704
  821MOL0     C 8294   7.835  10.364   6.564  0.5423 -0.0317 -0.0347
  821MOL0     C 8295   7.931  10.262   6.535  0.8285 -0.2331 -0.3689
  821MOL0     C 8296   8.054  10.257   6.585 -0.4428 -0.3338 -0.0008
  821MOL0     C 8297   8.090  10.358   6.682 -0.3459  0.7548  0.3800
  821MOL0     O 8298   8.215  10.338   6.739  0.2368 -0.5420  0.0514
  821MOL0     C 8299   8.251  10.419   6.848 -0.8205  0.7533 -0.5356
  821MOL0     C 8300   8.388  10.382   6.906  0.6880  0.4068 -0.6943
  821MOL0     C 8301   8.415  10.234   6.933  0.2979 -0.7821 -0.0012
  821MOL0     C 8302   8.325  10.166   7.031 -0.1513  0.3293 -0.7785
  821MOL0     C 8303   8.334  10.229   7.167  0.5239 -0.7515  0.0400
  821MOL0     C 8304   8.329  10.274   7.275 -0.2696 -0.0123 -0.5484
  821MOL0     C 8305   8.004  10.460   6.707 -0.6600  0.9726  0.3052
  821MOL0     C 8306   7.877  10.465   6.647  0.2664  0.0460  0.6157
  821MOL0     H 8307   7.596  10.595   6.250 -1.1239  2.2351 -0.2022
  821MOL0     H 8308   7.384  10.620   6.140 -1.4296  0.7510 -0.5963
  821MOL0     H 8309   7.201  10.484   6.035  0.4984  0.9463  0.7783
  821MOL0     H 8310   7.123  10.630   6.087  2.2971  0.6699  1.3316
  821MOL0     H 8311   6.988  10.362   6.056 -0.9806 -0.4244 -2.8029
  821MOL0     H 8312   7.004  10.486   5.939  2.8435 -2.2038  0.6857
  821MOL0     H 8313   6.902  10.658   6.091 -1.4860  1.1150  0.3641
  821MOL0     H 8314   6.848  10.523   6.201  0.3690  0.9239 -0.0363
  821MOL0     H 8315   6.778  10.579   5.907  1.5378  1.9203  1.0719
  821MOL0     H 8316   6.738  10.426   5.993 -2.0856  0.4374 -0.0691
  821MOL0     H 8317   6.572  10.511   6.115  4.3568 -1.6704  0.9592
  821MOL0     H 8318   6.557  10.573   5.945 -1.1795 -0.3334 -0.3456
  821MOL0     H 8319   6.693  10.728   6.175 -2.1823 -0.0881  1.8740
  821MOL0     H 8320   6.520  10.744   6.158 -0.5000 -1.2759  0.7817
  821MOL0     H 8321   6.747  10.824   5.972 -0.1175 -0.0080  0.7228
  821MOL0     H 8322   6.586  10.795   5.907 -0.5558 -0.0179  0.6209
  821MOL0     H 8323   6.653  10.978   6.152  1.2253 -1.1673  0.5230
  821MOL0     H 8324   6.513  10.980   6.052  0.2686 -1.7566  1.1357
  821MOL0     H 8325   6.592  11.032   5.761  1.9710 -0.6267 -0.8267
  821MOL0     H 8326   6.720  11.182   5.579 -2.1685  2.8225 -2.8147
  821MOL0     H 8327   6.857  11.280   5.640  0.3779 -0.4200  0.7660
  821MOL0     H 8328   6.676  11.440   5.739 -1.9425 -1.3345  1.3739
  821MOL0     H 8329   6.549  11.351   5.663 -0.3932 -1.2109 -3.2161
  821MOL0     H 8330   6.761  11.511   5.518  0.6385 -0.4974  2.3223
  821MOL0     H 8331   6.680  11.375   5.434  1.6779 -0.8578 -0.0752
  821MOL0     H 8332   6.578  11.630   5.444  0.4961  1.7364  2.8297
  821MOL0     H 8333   6.526  11.586   5.603 -1.6108 -1.1143  0.4749
  821MOL0     H 8334   6.361  11.720   5.526  1.4923 -4.5714  2.5851
  821MOL0     H 8335   6.143  11.810   5.483 -2.9348 -0.3974 -0.4781
  821MOL0     H 8336   5.642  11.521   5.158  0.1887 -0.4556 -1.7830
  821MOL0     H 8337   5.450  11.617   5.037  1.1351 -2.2794 -0.4186
  821MOL0     H 8338   5.373  12.066   4.940  4.7725 -2.5856 -3.4028
  821MOL0     H 8339   5.440  12.049   5.092 -0.2683  1.4929 -0.9530
  821MOL0     H 8340   5.174  11.916   5.020 -0.8769  0.7730  0.2515
  821MOL0     H 8341   5.194  12.065   5.112 -0.2237  1.3576 -3.9728
  821MOL0     H 8342   5.326  11.965   5.285  0.6472  1.0159 -1.7985
  821MOL0     H 8343   5.302  11.803   5.212  3.1422  1.9503 -2.6669
  821MOL0     H 8344   5.058  11.969   5.311 -0.8291 -1.0978  2.2841
  821MOL0     H 8345   5.054  11.814   5.221  0.9080 -2.4318  1.4597
  821MOL0     H 8346   5.109  11.689   5.395  0.2932  1.3785 -3.2188
  821MOL0     H 8347   5.012  11.815   5.469 -0.3672  1.8194  1.5085
  821MOL0     H 8348   5.313  11.809   5.461 -1.0439 -0.5958 -0.7643
  821MOL0     H 8349   5.215  11.749   5.592 -1.2467 -0.4506 -0.2738
  821MOL0     H 8350   5.287  12.027   5.516  2.4492 -2.1950 -0.5479
  821MOL0     H 8351   5.112  12.007   5.544  0.1861  0.7268  0.5521
  821MOL0     H 8352   5.273  12.059   5.754 -0.2865 -0.7282  1.3721
  821MOL0     H 8353   5.332  11.898   5.745 -0.1440 -0.1192  0.4916
  821MOL0     H 8354   5.657  11.998   5.051 -1.5060  0.4612  1.7166
  821MOL0     H 8355   5.842  11.903   5.150  1.3507 -0.2021  0.3395
  821MOL0     H 8356   6.026  11.492   5.233 -0.4798  0.4853  0.6132
  821MOL0     H 8357   6.231  11.371   5.288 -2.9865 -0.7418  2.2298
  821MOL0     H 8358   7.200  10.400   6.474  0.7081 -1.4651 -0.0731
  821MOL0     H 8359   7.415  10.409   6.581  2.7174 -2.4432 -0.7403
  821MOL0     H 8360   7.903  10.177   6.474 -2.8042 -0.3029  1.1271
  821MOL0     H 8361   8.112  10.167   6.567 -0.8756 -1.0151  1.7809
  821MOL0     H 8362   8.178  10.401   6.928 -2.6554 -2.9733 -2.7736
  821MOL0     H 8363   8.261  10.525   6.823  0.8262  0.6272 -0.5025
  821MOL0     H 8364   8.469  10.434   6.854  1.7208  0.0219  0.5052
  821MOL0     H 8365   8.401  10.430   7.003 -0.3198 -0.2230 -0.2226
  821MOL0     H 8366   8.520  10.232   6.964 -0.8004  1.4380  4.7878
  821MOL0     H 8367   8.409  10.179   6.839 -0.9435 -1.8456  0.6637
  821MOL0     H 8368   8.219  10.166   7.003 -1.4769 -0.4162  3.5232
  821MOL0     H 8369   8.357  10.061   7.032 -0.0030  0.3497 -1.8025
  821MOL0     H 8370   8.322  10.324   7.369 -0.0503 -0.0177 -0.5277
  821MOL0     H 8371   8.039  10.540   6.771  0.7459  0.9888 -0.4527
  821MOL0     H 8372   7.816  10.552   6.670  1.2484  1.2686 -1.1180
  822MOL0     O 8373   2.817   3.014   5.482 -0.7396 -0.0183 -0.4672
  822MOL0     C 8374   2.891   2.919   5.469  0.3796  0.4299 -0.0444
  822MOL0     O 8375   2.858   2.792   5.435  0.1190  0.3137 -0.1977
  822MOL0     C 8376   2.732   2.743   5.428  0.0356  0.0790 -0.2869
  822MOL0     C 8377   2.701   2.649   5.335  0.6451 -0.6037  1.4312
  822MOL0     C 8378   2.571   2.596   5.321  0.5225  0.2586  0.4667
  822MOL0     C 8379   2.465   2.648   5.401 -0.7916  0.3748 -0.6189
  822MOL0     O 8380   2.360   2.557   5.398  0.5531  0.0164 -0.2149
  822MOL0     C 8381   2.277   2.559   5.518 -0.7184 -0.5189  0.0073
  822MOL0     C 8382   2.149   2.475   5.505  0.7054  0.7538 -0.2761
  822MOL0     C 8383   2.058   2.525   5.390  0.3901  0.7436  0.4509
  822MOL0     C 8384   1.917   2.448   5.368 -0.1333 -0.0953  0.5171
  822MOL0     C 8385   1.942   2.294   5.355  0.1002 -0.2653  0.8603
  822MOL0     C 8386   1.811   2.221   5.330 -0.7541 -0.3080  0.7857
  822MOL0     C 8387   1.831   2.072   5.306 -1.3221 -0.0183 -0.4350
  822MOL0     C 8388   1.952   2.031   5.209 -0.6261 -0.7182 -0.2917
  822MOL0     N 8389   2.097   2.046   5.279 -0.6066  0.1108 -0.3982
  822MOL0     C 8390   2.206   2.134   5.237  0.6802  0.3566 -0.8290
  822MOL0     C 8391   2.303   2.110   5.330 -0.6984  0.5909 -0.6768
  822MOL0     C 8392   2.436   2.193   5.315  0.3522  0.2975 -0.2276
  822MOL0     C 8393   2.561   2.099   5.303  0.6368 -0.8855  0.2755
  822MOL0     C 8394   2.664   2.151   5.408  0.1153  0.8301 -0.4035
  822MOL0     C 8395   2.706   2.295   5.381 -0.4723 -0.9239 -0.0870
  822MOL0     O 8396   2.798   2.335   5.472 -0.9624 -0.7681 -0.3878
  822MOL0     C 8397   2.930   2.356   5.449 -0.6243  0.4887  0.0313
  822MOL0     C 8398   3.007   2.382   5.559  0.1471 -0.0146 -0.3515
  822MOL0     C 8399   3.141   2.417   5.548  0.2464  0.1205 -0.4791
  822MOL0     C 8400   3.210   2.403   5.431 -0.8057  0.6873 -0.8676
  822MOL0     C 8401   3.351   2.435   5.441  0.0304 -0.3099 -0.7127
  822MOL0     O 8402   3.399   2.498   5.545  0.2513 -0.2163 -0.5715
  822MOL0     C 8403   3.518   2.559   5.561 -0.5527 -0.1816 -0.6683
  822MOL0     C 8404   3.537   2.631   5.677  0.5101 -0.5329  0.3003
  822MOL0     C 8405   3.665   2.678   5.718 -0.2672 -0.4310  0.2855
  822MOL0     C 8406   3.781   2.670   5.638 -0.6851 -0.2319  0.3355
  822MOL0     O 8407   3.913   2.706   5.664 -0.6295  0.6327 -0.2501
  822MOL0     C 8408   3.949   2.728   5.801  0.3992  0.8353 -0.0848
  822MOL0     C 8409   4.090   2.800   5.814 -0.1210 -0.2666  0.4133
  822MOL0     C 8410   4.072   2.953   5.779  0.2870 -0.3039 -0.3577
  822MOL0     C 8411   4.198   3.025   5.728  0.4295  1.3695  0.5860
  822MOL0     C 8412   4.156   3.164   5.661 -0.3586 -0.2469  0.0957
  822MOL0     C 8413   4.255   3.271   5.710  0.3867  0.1818  1.1028
  822MOL0     C 8414   4.200   3.414   5.690  0.7248  0.5152  0.7706
  822MOL0     C 8415   4.128   3.450   5.561 -1.0478  0.4789  0.3056
  822MOL0    Cl 8416   4.240   3.439   5.414 -0.4578 -0.3889 -0.2382
  822MOL0     C 8417   3.749   2.602   5.514  0.1709 -0.7033  0.6970
  822MOL0     C 8418   3.628   2.546   5.475 -0.0160 -0.9564  0.3736
  822MOL0     O 8419   3.406   2.416   5.332 -0.1122  0.3957 -0.5313
  822MOL0     C 8420   3.134   2.359   5.321  0.1678 -0.8058 -0.5428
  822MOL0     C 8421   2.996   2.341   5.330  0.0784  1.0514  0.0449
  822MOL0     N 8422   2.254   2.018   5.429 -0.3109  0.0238 -0.3166
  822MOL0     N 8423   2.129   1.979   5.396  0.0243 -0.5707 -0.5001
  822MOL0     C 8424   2.496   2.742   5.495 -0.0562  0.2850  0.3028
  822MOL0     C 8425   2.632   2.792   5.514  0.5687  0.3180  0.8727
  822MOL0     C 8426   3.036   2.943   5.464  0.7285  0.5645 -1.2958
  822MOL0     C 8427   3.128   2.840   5.486 -0.4188  0.1468 -0.0592
  822MOL0     C 8428   3.266   2.871   5.482 -0.9686 -0.2330  0.3163
  822MOL0     C 8429   3.309   3.006   5.460  0.4616 -0.2803  0.2844
  822MOL0     O 8430   3.440   3.045   5.446  0.0394 -0.1622  0.5154
  822MOL0     C 8431   3.538   2.950   5.500 -0.1365  0.2678  0.7720
  822MOL0     C 8432   3.678   3.006   5.520  0.0666 -0.4218  0.0109
  822MOL0     C 8433   3.725   3.094   5.402  0.6379  0.0578 -0.0441
  822MOL0     C 8434   3.874   3.107   5.429 -0.2885 -0.2650  0.2808
  822MOL0     C 8435   3.939   3.206   5.343 -0.1925  0.2264  0.9989
  822MOL0     C 8436   3.978   3.292   5.264 -0.1703  0.2690 -0.3974
  822MOL0     C 8437   3.211   3.111   5.439  0.4253 -0.0091 -0.1088
  822MOL0     C 8438   3.078   3.078   5.443  0.0957 -1.1822  0.0083
  822MOL0     H 8439   2.780   2.618   5.267 -1.5681  1.3455 -2.4105
  822MOL0     H 8440   2.549   2.528   5.239 -3.2279 -1.8085  2.8772
  822MOL0     H 8441   2.253   2.663   5.538  1.1660  0.1249 -0.8497
  822MOL0     H 8442   2.339   2.519   5.599 -2.2621  1.8620  2.5111
  822MOL0     H 8443   2.089   2.475   5.597 -1.7706 -0.0034 -1.7953
  822MOL0     H 8444   2.175   2.372   5.480 -1.4389  0.8910 -3.5766
  822MOL0     H 8445   2.110   2.526   5.294 -3.2595  2.9829 -1.7465
  822MOL0     H 8446   2.039   2.632   5.404  1.4286  1.4984 -2.9104
  822MOL0     H 8447   1.853   2.460   5.455  1.8267  0.2332  1.9946
  822MOL0     H 8448   1.853   2.483   5.286 -1.5058  2.0742  2.3892
  822MOL0     H 8449   1.987   2.262   5.449 -1.9643 -0.4055  1.8648
  822MOL0     H 8450   2.016   2.295   5.274 -0.9123  1.8940 -0.1145
  822MOL0     H 8451   1.775   2.263   5.236  0.5794 -3.8204 -1.4534
  822MOL0     H 8452   1.745   2.229   5.417  1.3557  0.9442  2.3709
  822MOL0     H 8453   1.851   2.023   5.402  0.8387 -2.7152 -2.1133
  822MOL0     H 8454   1.732   2.041   5.272 -1.8083  2.1401 -1.1859
  822MOL0     H 8455   1.951   2.097   5.122 -0.2800  0.7910  0.7949
  822MOL0     H 8456   1.927   1.930   5.176 -1.8682 -0.6593  0.4181
  822MOL0     H 8457   2.200   2.207   5.156  1.8794  1.4081 -0.0076
  822MOL0     H 8458   2.434   2.260   5.402  0.8751 -1.6595  1.3790
  822MOL0     H 8459   2.430   2.258   5.228 -0.1621  1.1714  0.4452
  822MOL0     H 8460   2.603   2.101   5.202 -0.8958 -3.7633 -0.5503
  822MOL0     H 8461   2.541   1.993   5.322 -1.0512 -0.3972  1.5354
  822MOL0     H 8462   2.623   2.136   5.508 -2.6027  0.6803 -1.4328
  822MOL0     H 8463   2.749   2.083   5.408  0.7379  1.5833  0.9071
  822MOL0     H 8464   2.627   2.368   5.402  1.7338  0.2803  6.4636
  822MOL0     H 8465   2.735   2.304   5.276  0.3841  2.4623  0.3344
  822MOL0     H 8466   2.955   2.394   5.654  0.2654 -1.0433 -0.1454
  822MOL0     H 8467   3.192   2.454   5.637  2.5442  1.8067 -2.3563
  822MOL0     H 8468   3.454   2.639   5.746 -0.6181 -0.7562 -0.9791
  822MOL0     H 8469   3.673   2.709   5.822  1.0754 -0.4152  0.1985
  822MOL0     H 8470   3.951   2.635   5.858 -3.1144 -0.1842 -1.3219
  822MOL0     H 8471   3.882   2.801   5.848  1.6682  3.3941 -2.0000
  822MOL0     H 8472   4.152   2.749   5.739  1.5484 -0.5451  1.9069
  822MOL0     H 8473   4.145   2.789   5.908  1.3885 -0.8242 -0.4942
  822MOL0     H 8474   4.035   2.996   5.872 -0.4074 -0.7467 -0.4141
  822MOL0     H 8475   4.008   2.972   5.693 -1.3461  1.6206  1.1992
  822MOL0     H 8476   4.271   3.048   5.806 -0.0718  0.9343  1.1815
  822MOL0     H 8477   4.241   2.960   5.651 -1.6878  2.3586 -1.5612
  822MOL0     H 8478   4.056   3.193   5.695  0.9359  3.4358  1.2996
  822MOL0     H 8479   4.149   3.162   5.552  2.6145  2.1607 -0.2978
  822MOL0     H 8480   4.358   3.260   5.676  0.0210 -0.8894  0.3008
  822MOL0     H 8481   4.251   3.268   5.820  1.6626  2.3197  1.2558
  822MOL0     H 8482   4.131   3.440   5.770 -2.3854 -0.7012 -1.3089
  822MOL0     H 8483   4.282   3.487   5.687 -0.5541  1.9633 -1.3145
  822MOL0     H 8484   4.106   3.557   5.563  3.1306  1.7155 -3.4859
  822MOL0     H 8485   4.034   3.396   5.552 -0.8031  0.2533 -0.9963
  822MOL0     H 8486   3.836   2.600   5.448  0.2091  2.3031  0.5246
  822MOL0     H 8487   3.615   2.509   5.373 -0.9800  2.6593 -0.9736
  822MOL0     H 8488   3.184   2.346   5.226 -0.6374 -0.0364 -1.0813
  822MOL0     H 8489   2.933   2.307   5.248 -3.2725 -1.3461  3.2909
  822MOL0     H 8490   2.425   2.769   5.572  0.1507  1.9412 -0.0493
  822MOL0     H 8491   2.664   2.863   5.589  0.5356  0.8740  0.3659
  822MOL0     H 8492   3.100   2.737   5.504 -1.1964  0.4277  0.4068
  822MOL0     H 8493   3.344   2.796   5.477 -2.2766 -1.7921  2.0700
  822MOL0     H 8494   3.545   2.858   5.442 -0.7913  1.1409 -0.7327
  822MOL0     H 8495   3.502   2.916   5.598  0.8509  1.9646  1.7739
  822MOL0     H 8496   3.671   3.051   5.620 -3.0220 -1.3516  0.3128
  822MOL0     H 8497   3.748   2.925   5.540  0.2212 -0.0515  1.0390
  822MOL0     H 8498   3.675   3.189   5.419  1.9130  0.9226 -0.9257
  822MOL0     H 8499   3.685   3.044   5.314 -4.0212 -2.9027  3.2611
  822MOL0     H 8500   3.890   3.132   5.534  0.7446  2.7691 -0.5161
  822MOL0     H 8501   3.924   3.015   5.397 -1.1952 -0.1004 -1.8277
  822MOL0     H 8502   4.016   3.364   5.193  0.6248  1.2717  1.0063
  822MOL0     H 8503   3.238   3.214   5.420 -2.8851  0.8109 -0.8730
  822MOL0     H 8504   3.003   3.154   5.427 -1.1520 -2.5462 -0.8633
  823MOL0     O 8505  11.306   2.148   7.015  0.1416  0.5256  0.2966
  823MOL0     C 8506  11.343   2.097   6.909  0.3175  0.7320 -0.3983
  823MOL0     O 8507  11.305   2.129   6.785  0.2302 -0.8049 -0.3779
  823MOL0     C 8508  11.229   2.242   6.788 -0.3884 -0.4351  1.4256
  823MOL0     C 8509  11.308   2.353   6.749 -0.3207  0.4687  0.1784
  823MOL0     C 8510  11.254   2.478   6.729  0.4232 -0.0626  0.1747
  823MOL0     C 8511  11.125   2.507   6.775  1.0209  0.6537  0.1567
  823MOL0     O 8512  11.055   2.626   6.779  0.1664 -0.3618 -0.2793
  823MOL0     C 8513  11.123   2.747   6.792  1.2565  0.3659 -0.3001
  823MOL0     C 8514  11.027   2.863   6.788 -0.3996 -0.5170  0.1455
  823MOL0     C 8515  10.909   2.865   6.692  1.1427 -0.8336  0.4569
  823MOL0     C 8516  10.941   2.847   6.544 -0.3299 -0.0689 -0.0981
  823MOL0     C 8517  10.812   2.832   6.461 -0.5158 -0.5150  0.1445
  823MOL0     C 8518  10.716   2.942   6.488  0.3249 -1.1161 -0.3007
  823MOL0     C 8519  10.584   2.949   6.407 -0.1635 -0.0999 -0.7333
  823MOL0     C 8520  10.598   2.981   6.254  0.3119 -0.9823 -0.0479
  823MOL0     N 8521  10.475   2.962   6.182  0.0031  0.7562 -0.5534
  823MOL0     C 8522  10.456   2.866   6.080  0.7205 -0.1373  0.8359
  823MOL0     C 8523  10.327   2.891   6.040 -0.8335 -0.1347 -0.8124
  823MOL0     C 8524  10.249   2.820   5.943  0.8223  0.3040 -0.1580
  823MOL0     C 8525  10.117   2.884   5.897  0.5921 -0.0653 -0.1273
  823MOL0     C 8526  10.028   2.777   5.838  0.8716 -0.3269 -0.4144
  823MOL0     C 8527  10.000   2.809   5.689 -0.2879  1.0214 -0.8935
  823MOL0     O 8528   9.937   2.700   5.616  0.2506  0.1666 -0.2220
  823MOL0     C 8529   9.797   2.702   5.602 -0.0624 -0.0935  0.0747
  823MOL0     C 8530   9.703   2.756   5.691  0.9981 -0.1128 -0.2769
  823MOL0     C 8531   9.564   2.756   5.655  0.3288 -0.2483 -0.9091
  823MOL0     C 8532   9.523   2.699   5.532  1.2442  0.3753  0.1816
  823MOL0     C 8533   9.378   2.699   5.500 -0.0619  0.2025  0.4519
  823MOL0     O 8534   9.306   2.808   5.554 -0.1840 -0.1143  0.1659
  823MOL0     C 8535   9.179   2.852   5.512 -0.2636  0.1252  0.1784
  823MOL0     C 8536   9.115   2.824   5.395  0.0357  0.0839  0.1447
  823MOL0     C 8537   8.996   2.880   5.361  0.3647  1.0852  0.8134
  823MOL0     C 8538   8.932   2.977   5.434  0.0855 -0.3809 -0.3709
  823MOL0     O 8539   8.810   3.034   5.417  0.3491 -0.3647 -0.1017
  823MOL0     C 8540   8.751   3.010   5.290 -0.8058  0.6088  0.3203
  823MOL0     C 8541   8.612   3.059   5.298  1.0601  0.4138 -0.4986
  823MOL0     C 8542   8.550   3.007   5.175 -0.1004  0.7123  0.1646
  823MOL0     C 8543   8.417   3.073   5.150 -0.9468 -0.6922  0.2290
  823MOL0     C 8544   8.421   3.214   5.091 -0.6845  0.0829  0.2062
  823MOL0     C 8545   8.287   3.257   5.039  0.2771  0.8584  1.2790
  823MOL0     C 8546   8.302   3.390   4.976  0.4813  0.5231  0.1799
  823MOL0     C 8547   8.177   3.451   4.928  1.0391 -0.1150 -1.4188
  823MOL0    Cl 8548   8.072   3.507   5.067 -0.0503  0.0820  0.1882
  823MOL0     C 8549   9.005   3.017   5.549 -0.0024  0.5460 -0.2932
  823MOL0     C 8550   9.122   2.948   5.589  0.0183 -0.3473 -0.0984
  823MOL0     O 8551   9.342   2.617   5.421 -0.2797  0.7527  0.1264
  823MOL0     C 8552   9.613   2.643   5.442 -1.1441 -0.4443  0.0752
  823MOL0     C 8553   9.752   2.651   5.479  0.0283 -0.5518 -0.1832
  823MOL0     N 8554  10.289   3.013   6.092  0.4564  0.7900  0.4642
  823MOL0     N 8555  10.376   3.054   6.172 -0.5090 -0.6253 -0.2005
  823MOL0     C 8556  11.047   2.399   6.821  0.3612  0.8390  0.3446
  823MOL0     C 8557  11.103   2.269   6.836  0.0883  0.0105  0.2038
  823MOL0     C 8558  11.456   1.995   6.911 -0.2857  0.1607 -1.0848
  823MOL0     C 8559  11.486   1.923   7.029 -0.0594 -0.3174 -0.4258
  823MOL0     C 8560  11.600   1.848   7.057  0.5726  0.1477  0.5579
  823MOL0     C 8561  11.677   1.820   6.940 -0.6474 -0.1752  0.4168
  823MOL0     O 8562  11.784   1.743   6.935 -1.0069  0.3615  0.7763
  823MOL0     C 8563  11.757   1.606   6.960 -0.4556 -0.1319 -0.1952
  823MOL0     C 8564  11.885   1.537   6.968 -0.3215  0.5802  0.3788
  823MOL0     C 8565  11.877   1.389   6.962 -0.2544  0.5011  0.4007
  823MOL0     C 8566  12.004   1.319   6.916  0.5587  0.4235 -0.9740
  823MOL0     C 8567  12.001   1.171   6.949  0.9912 -0.8134  0.3652
  823MOL0     C 8568  12.010   1.060   6.996 -0.2490  0.2607  0.1516
  823MOL0     C 8569  11.645   1.871   6.812 -0.1832 -0.1716  0.0108
  823MOL0     C 8570  11.533   1.958   6.798 -0.1045 -1.0685 -0.0169
  823MOL0     H 8571  11.407   2.334   6.709  0.4535  0.4351  2.0547
  823MOL0     H 8572  11.302   2.560   6.677  0.9770  1.6735  3.1790
  823MOL0     H 8573  11.180   2.760   6.700 -2.2854 -0.9885 -2.8877
  823MOL0     H 8574  11.184   2.742   6.883  1.0265 -1.2510 -0.2189
  823MOL0     H 8575  11.073   2.956   6.755 -3.2297  1.0223  0.2603
  823MOL0     H 8576  10.986   2.876   6.888 -0.5243  0.4343 -0.0253
  823MOL0     H 8577  10.851   2.957   6.706  1.3355 -0.6068 -0.2184
  823MOL0     H 8578  10.845   2.785   6.732  2.2842 -0.9197  2.2277
  823MOL0     H 8579  10.988   2.939   6.508 -0.4570  1.6531  3.6008
  823MOL0     H 8580  11.011   2.765   6.527 -1.8054 -1.4416  0.1959
  823MOL0     H 8581  10.761   2.736   6.470 -0.9207 -0.4461 -1.1135
  823MOL0     H 8582  10.837   2.858   6.357 -3.1936  1.5742 -0.0964
  823MOL0     H 8583  10.782   3.028   6.479  1.0274 -1.5753  0.3607
  823MOL0     H 8584  10.685   2.934   6.592  2.0011 -2.7172  0.1266
  823MOL0     H 8585  10.548   2.846   6.401  0.2404 -0.1539 -4.0322
  823MOL0     H 8586  10.521   3.028   6.448  1.0647  0.1189  0.8165
  823MOL0     H 8587  10.691   2.936   6.217  0.2108 -1.8767  0.7396
  823MOL0     H 8588  10.606   3.088   6.236  2.5184 -1.1970 -0.6593
  823MOL0     H 8589  10.519   2.787   6.041  0.4412 -1.3417  2.7010
  823MOL0     H 8590  10.224   2.727   5.995 -1.4005 -1.2107 -3.6325
  823MOL0     H 8591  10.301   2.800   5.850 -0.9412 -2.2111 -0.6968
  823MOL0     H 8592  10.129   2.969   5.830 -4.1914  1.1326  0.1788
  823MOL0     H 8593  10.066   2.934   5.980  3.4127 -2.3249  3.3034
  823MOL0     H 8594  10.061   2.675   5.863 -0.7333 -0.8205 -0.1668
  823MOL0     H 8595   9.925   2.779   5.874  1.0258  0.2076  0.0230
  823MOL0     H 8596  10.099   2.830   5.647  0.3835 -1.5086 -0.7242
  823MOL0     H 8597   9.946   2.904   5.688 -0.8651  0.8432  2.2797
  823MOL0     H 8598   9.743   2.808   5.778  2.6243  0.7062 -1.4519
  823MOL0     H 8599   9.484   2.782   5.723 -0.3031 -0.3609 -1.5998
  823MOL0     H 8600   9.143   2.742   5.330  0.2351  0.2478  0.0230
  823MOL0     H 8601   8.966   2.846   5.263  3.7229 -1.6468  0.5525
  823MOL0     H 8602   8.753   2.905   5.258  1.6653  0.5933  0.3892
  823MOL0     H 8603   8.797   3.069   5.211 -0.6066 -0.8812 -0.7174
  823MOL0     H 8604   8.610   3.168   5.305  1.1854  0.4344 -0.7841
  823MOL0     H 8605   8.542   3.018   5.372 -0.6438  0.1643 -2.1605
  823MOL0     H 8606   8.545   2.898   5.177  0.7738  0.6767  0.8970
  823MOL0     H 8607   8.612   3.031   5.088  1.0876 -2.1041  0.1244
  823MOL0     H 8608   8.359   3.013   5.079 -2.0019 -0.2290  0.6818
  823MOL0     H 8609   8.359   3.088   5.241 -2.6729 -0.0907 -0.9122
  823MOL0     H 8610   8.501   3.220   5.017 -1.1474  1.9116 -0.1845
  823MOL0     H 8611   8.450   3.282   5.172 -1.9871 -0.1182  0.8784
  823MOL0     H 8612   8.221   3.257   5.126 -1.7597 -1.0804 -0.1613
  823MOL0     H 8613   8.244   3.183   4.970  0.7704  0.0089  1.8541
  823MOL0     H 8614   8.354   3.458   5.045 -1.6531  1.7759  0.6298
  823MOL0     H 8615   8.360   3.370   4.886 -0.4795  1.1683 -0.5954
  823MOL0     H 8616   8.118   3.385   4.864 -2.6694 -0.3965  1.8995
  823MOL0     H 8617   8.205   3.532   4.859  0.9691  1.4143  0.2548
  823MOL0     H 8618   8.964   3.092   5.616 -1.7607  0.6512 -1.4040
  823MOL0     H 8619   9.149   2.973   5.691 -1.2926 -0.9212  0.4083
  823MOL0     H 8620   9.590   2.606   5.343  1.9172 -0.6301 -0.6720
  823MOL0     H 8621   9.835   2.611   5.423 -0.7714 -3.2434  0.4078
  823MOL0     H 8622  10.943   2.416   6.850  0.9057  4.4141  0.6279
  823MOL0     H 8623  11.046   2.183   6.870  1.7193 -1.2696 -0.2018
  823MOL0     H 8624  11.438   1.956   7.121 -0.2559 -1.5594 -0.0752
  823MOL0     H 8625  11.639   1.804   7.148  0.5036 -1.8290 -0.3167
  823MOL0     H 8626  11.705   1.571   6.871  2.3278 -1.1524 -1.5412
  823MOL0     H 8627  11.698   1.586   7.050  0.1213  0.3587  0.3091
  823MOL0     H 8628  11.953   1.568   6.888  1.9562  0.9656  2.3377
  823MOL0     H 8629  11.927   1.566   7.065 -1.7324  0.7994  0.9404
  823MOL0     H 8630  11.795   1.367   6.892 -0.2675  0.6259  0.3770
  823MOL0     H 8631  11.850   1.350   7.060  0.4153 -0.6913  0.1408
  823MOL0     H 8632  12.012   1.334   6.808  0.2929  0.7411 -0.9517
  823MOL0     H 8633  12.089   1.364   6.967  1.9548 -2.5757 -0.4162
  823MOL0     H 8634  12.033   0.966   7.041 -0.9312 -0.3239 -0.6975
  823MOL0     H 8635  11.705   1.851   6.724  0.7149  2.6197 -0.1129
  823MOL0     H 8636  11.512   2.011   6.706  3.1116  2.5428  1.0366
  824MOL0     O 8637   9.083   4.977   4.608 -0.2449  0.3776 -0.7044
  824MOL0     C 8638   9.113   4.935   4.492 -1.0853 -0.3484 -0.4185
  824MOL0     O 8639   9.023   4.897   4.397 -0.2228 -0.1843 -0.0879
  824MOL0     C 8640   8.898   4.851   4.445 -0.1685  0.6145 -0.5400
  824MOL0     C 8641   8.885   4.715   4.494  0.5773 -0.5246 -0.3404
  824MOL0     C 8642   8.755   4.672   4.535  0.1782 -0.1704 -0.3325
  824MOL0     C 8643   8.647   4.761   4.521 -0.4982  0.0138  0.1214
  824MOL0     O 8644   8.522   4.732   4.564 -0.3222  0.8371 -0.1799
  824MOL0     C 8645   8.495   4.614   4.651  0.3259  0.5243  0.4415
  824MOL0     C 8646   8.362   4.637   4.730  0.9633  0.1199  0.1199
  824MOL0     C 8647   8.356   4.775   4.800 -0.0359 -0.4911 -0.2361
  824MOL0     C 8648   8.466   4.779   4.912  0.1087  0.6935 -0.4944
  824MOL0     C 8649   8.461   4.922   4.971  0.4269 -0.3976 -0.0919
  824MOL0     C 8650   8.589   4.947   5.051  0.0314 -1.1153  0.9343
  824MOL0     C 8651   8.586   5.079   5.112 -0.4874  0.7212  0.1786
  824MOL0     C 8652   8.704   5.108   5.213  1.5265 -0.5420 -0.3224
  824MOL0     N 8653   8.698   5.248   5.265  0.3129 -0.3426 -0.7508
  824MOL0     C 8654   8.757   5.353   5.200 -0.6671 -1.3422 -0.5822
  824MOL0     C 8655   8.760   5.450   5.297  0.3164  1.2796  0.4212
  824MOL0     C 8656   8.814   5.587   5.271  0.4388  0.1820 -0.1765
  824MOL0     C 8657   8.848   5.661   5.401  0.2457 -0.3631  0.2739
  824MOL0     C 8658   8.838   5.821   5.392 -0.5805  0.7217 -0.3243
  824MOL0     C 8659   8.953   5.884   5.304 -0.0750  0.3314  0.2059
  824MOL0     O 8660   8.951   6.020   5.326  0.6098 -0.2966  1.1680
  824MOL0     C 8661   9.052   6.080   5.264 -0.8764  0.7231  0.1312
  824MOL0     C 8662   9.169   6.080   5.333  0.0639 -0.5108 -0.4145
  824MOL0     C 8663   9.281   6.149   5.286 -0.3242 -0.1480  0.0472
  824MOL0     C 8664   9.270   6.229   5.173 -0.4211 -0.0427  0.3008
  824MOL0     C 8665   9.394   6.280   5.109  0.7635  0.0653 -1.1607
  824MOL0     O 8666   9.513   6.247   5.157  0.1363 -0.2098 -0.2666
  824MOL0     C 8667   9.607   6.341   5.133 -0.2746  0.5553  0.0506
  824MOL0     C 8668   9.699   6.326   5.028  0.6350  0.4047  0.8126
  824MOL0     C 8669   9.811   6.416   5.028  0.1748  0.4269  0.6074
  824MOL0     C 8670   9.833   6.526   5.124  0.1493  0.3659  0.1612
  824MOL0     O 8671   9.924   6.624   5.140 -0.0323 -1.1473  0.0944
  824MOL0     C 8672  10.055   6.591   5.099 -0.7443  0.7639 -0.2343
  824MOL0     C 8673  10.146   6.703   5.157 -0.0316 -0.0666 -0.6236
  824MOL0     C 8674  10.144   6.722   5.305  0.5751 -0.1792 -0.8762
  824MOL0     C 8675  10.238   6.827   5.359 -0.0008 -0.4634 -0.1160
  824MOL0     C 8676  10.384   6.782   5.377  0.1826 -0.6408  1.1842
  824MOL0     C 8677  10.486   6.888   5.397 -0.0263 -1.0825  0.2211
  824MOL0     C 8678  10.462   6.982   5.525 -0.8466 -0.7325 -0.1973
  824MOL0     C 8679  10.590   7.066   5.559  0.6112 -0.1813  0.0859
  824MOL0    Cl 8680  10.720   6.945   5.596 -0.1257  0.0607 -0.2961
  824MOL0     C 8681   9.729   6.535   5.218 -0.2084 -0.2990  0.0602
  824MOL0     C 8682   9.618   6.451   5.218 -0.3009  0.0683 -0.2452
  824MOL0     O 8683   9.378   6.355   5.014  0.6073  0.1071 -0.8585
  824MOL0     C 8684   9.145   6.241   5.107 -0.0760 -0.1747  0.2055
  824MOL0     C 8685   9.041   6.159   5.150  0.3701  0.3490 -0.5353
  824MOL0     N 8686   8.692   5.398   5.405  0.4576  0.6947  0.2071
  824MOL0     N 8687   8.665   5.275   5.389  0.6304 -0.6465  0.0706
  824MOL0     C 8688   8.662   4.893   4.467 -0.9828 -0.3206  0.2460
  824MOL0     C 8689   8.787   4.933   4.422 -0.0880  0.3766 -1.4272
  824MOL0     C 8690   9.247   4.972   4.450 -0.4399  0.3407  0.2465
  824MOL0     C 8691   9.365   4.943   4.527  1.2443  0.3587 -0.1936
  824MOL0     C 8692   9.481   4.988   4.484  0.3256  0.0001 -0.0249
  824MOL0     C 8693   9.508   5.059   4.366  0.5730 -0.0149  0.2436
  824MOL0     O 8694   9.626   5.107   4.326 -0.0211 -0.0253  0.5309
  824MOL0     C 8695   9.738   5.101   4.420  0.6028 -0.0139  0.4678
  824MOL0     C 8696   9.861   5.156   4.356  0.2594  0.0951  0.2153
  824MOL0     C 8697   9.976   5.153   4.450  0.2085 -0.6837 -0.9574
  824MOL0     C 8698  10.100   5.221   4.393  0.6630  1.3443  0.2031
  824MOL0     C 8699  10.194   5.264   4.501 -0.2010  0.8036  0.7944
  824MOL0     C 8700  10.267   5.303   4.584 -0.5637  0.7093 -1.0496
  824MOL0     C 8701   9.395   5.072   4.282 -0.3181 -1.1936  0.3038
  824MOL0     C 8702   9.264   5.023   4.321  0.2982 -0.1640 -0.9458
  824MOL0     H 8703   8.973   4.653   4.504  1.4194 -0.2784 -4.5956
  824MOL0     H 8704   8.734   4.568   4.559  0.6478  0.0950  1.3455
  824MOL0     H 8705   8.573   4.595   4.726 -0.8891  2.5162  2.3245
  824MOL0     H 8706   8.481   4.526   4.588  1.3025  0.7969 -0.1930
  824MOL0     H 8707   8.352   4.550   4.795  1.0425  0.1845  0.2187
  824MOL0     H 8708   8.275   4.646   4.663  0.0735  0.6760  1.3092
  824MOL0     H 8709   8.257   4.795   4.842  0.5395  0.3860  0.7652
  824MOL0     H 8710   8.371   4.856   4.728 -1.1378  0.6047  0.7205
  824MOL0     H 8711   8.447   4.705   4.990  2.4773 -1.2034 -1.6127
  824MOL0     H 8712   8.567   4.758   4.875 -0.8851 -0.3640 -2.8053
  824MOL0     H 8713   8.374   4.922   5.037  0.5009  0.7758  0.0336
  824MOL0     H 8714   8.451   5.006   4.901 -0.9753 -0.9630 -0.6148
  824MOL0     H 8715   8.673   4.945   4.981 -0.0584  4.5622  0.1943
  824MOL0     H 8716   8.605   4.875   5.132  0.1646 -2.2697 -0.0881
  824MOL0     H 8717   8.588   5.153   5.031 -0.9448  0.1502 -0.3616
  824MOL0     H 8718   8.490   5.083   5.165  0.4051  1.9087  1.7891
  824MOL0     H 8719   8.798   5.097   5.158  1.0970 -1.1587 -0.9473
  824MOL0     H 8720   8.699   5.035   5.294 -2.2983  1.3199  1.3525
  824MOL0     H 8721   8.804   5.354   5.102  1.1959  2.9568  0.1374
  824MOL0     H 8722   8.740   5.645   5.214  2.0836  1.3850 -1.1819
  824MOL0     H 8723   8.903   5.576   5.208  2.1651  0.5306  2.0737
  824MOL0     H 8724   8.951   5.634   5.426 -0.2894 -3.6561 -0.6419
  824MOL0     H 8725   8.787   5.634   5.487  2.8144  0.5209  2.5425
  824MOL0     H 8726   8.741   5.856   5.357 -0.2090  2.3009  0.1219
  824MOL0     H 8727   8.839   5.860   5.495 -1.3004 -1.1791  0.4424
  824MOL0     H 8728   8.939   5.850   5.201  5.6514 -2.4859 -0.0331
  824MOL0     H 8729   9.048   5.837   5.328 -0.4844  0.0280  1.3304
  824MOL0     H 8730   9.174   6.035   5.432 -1.7937 -4.9594 -2.0676
  824MOL0     H 8731   9.366   6.141   5.353  1.4126 -1.9379 -2.2335
  824MOL0     H 8732   9.703   6.238   4.964  3.1048  1.3792 -0.5164
  824MOL0     H 8733   9.878   6.414   4.943 -0.7079  3.5234 -0.3087
  824MOL0     H 8734  10.055   6.582   4.990 -2.6275 -2.2816 -0.0957
  824MOL0     H 8735  10.086   6.491   5.128 -2.2676  0.0489 -0.9499
  824MOL0     H 8736  10.132   6.802   5.113  1.8238  1.0342  1.0801
  824MOL0     H 8737  10.249   6.675   5.130  0.1773 -2.5016  2.1232
  824MOL0     H 8738  10.170   6.626   5.349 -0.1435 -0.9823 -2.1381
  824MOL0     H 8739  10.045   6.738   5.349  0.1219 -0.9563 -1.5769
  824MOL0     H 8740  10.246   6.914   5.293  1.2631  2.3742  3.4538
  824MOL0     H 8741  10.214   6.859   5.461  2.9606  2.5031 -0.1895
  824MOL0     H 8742  10.418   6.720   5.294 -1.4681 -1.8409  1.3470
  824MOL0     H 8743  10.387   6.710   5.460 -0.7766 -1.3523  0.6352
  824MOL0     H 8744  10.505   6.942   5.304 -2.4777  1.0998  0.8640
  824MOL0     H 8745  10.582   6.837   5.414 -0.0328 -1.0457  0.3769
  824MOL0     H 8746  10.373   7.044   5.510 -0.3508  0.5730  1.7580
  824MOL0     H 8747  10.435   6.920   5.610  2.0678 -0.0239  1.3874
  824MOL0     H 8748  10.566   7.130   5.644  3.3676 -0.1837  0.9536
  824MOL0     H 8749  10.607   7.138   5.479 -0.1141 -1.6391 -1.4572
  824MOL0     H 8750   9.731   6.595   5.308  2.3173 -0.2298  0.0136
  824MOL0     H 8751   9.540   6.445   5.293 -3.2472 -2.6198 -3.1881
  824MOL0     H 8752   9.122   6.299   5.019 -1.2957  1.9632  1.8360
  824MOL0     H 8753   8.944   6.158   5.100 -0.6417 -1.3703  1.2940
  824MOL0     H 8754   8.573   4.954   4.455 -0.1899  1.1662  1.6010
  824MOL0     H 8755   8.801   5.032   4.378  0.8827  0.1713 -1.6024
  824MOL0     H 8756   9.347   4.893   4.622 -0.6379 -0.1547 -0.7699
  824MOL0     H 8757   9.569   4.971   4.546  3.0644  0.4799 -3.4839
  824MOL0     H 8758   9.750   4.996   4.451  1.8617 -0.2333 -0.6472
  824MOL0     H 8759   9.719   5.172   4.501  1.1291 -1.0119  1.4932
  824MOL0     H 8760   9.877   5.104   4.262 -1.8537  0.8284 -0.6046
  824MOL0     H 8761   9.846   5.261   4.329  3.9214  0.9902  1.1318
  824MOL0     H 8762  10.003   5.048   4.468 -0.0931 -0.5733  0.2044
  824MOL0     H 8763   9.940   5.203   4.540  0.7425 -0.9868 -0.5691
  824MOL0     H 8764  10.143   5.151   4.321 -0.8290  0.2360  0.3388
  824MOL0     H 8765  10.072   5.314   4.342 -2.2678  0.5596  0.1510
  824MOL0     H 8766  10.331   5.323   4.668  0.6471 -1.5493 -1.3514
  824MOL0     H 8767   9.420   5.140   4.201  2.5614 -0.4096  1.7218
  824MOL0     H 8768   9.175   5.032   4.261 -2.2870 -0.0112  2.6168
  825MOL0     O 8769   2.913   1.789   2.251  0.0999  0.0128 -0.0317
  825MOL0     C 8770   2.919   1.671   2.241  0.4709  0.7170 -0.4096
  825MOL0     O 8771   3.020   1.595   2.286 -0.3780 -0.2423  0.3076
  825MOL0     C 8772   3.116   1.639   2.367 -1.3729 -0.0898 -0.7559
  825MOL0     C 8773   3.240   1.671   2.328  0.2873  0.1790  0.1569
  825MOL0     C 8774   3.324   1.737   2.409 -0.6849  1.0219  0.3577
  825MOL0     C 8775   3.292   1.779   2.535 -0.5338  0.3888 -0.3614
  825MOL0     O 8776   3.370   1.848   2.630  0.6977 -0.6201 -0.4957
  825MOL0     C 8777   3.494   1.910   2.594  0.4339 -0.1393 -0.4996
  825MOL0     C 8778   3.569   1.958   2.722 -0.2906  1.4415  0.5136
  825MOL0     C 8779   3.492   2.083   2.785 -0.4346  0.3021  0.0253
  825MOL0     C 8780   3.537   2.217   2.720 -0.2042 -0.1817  0.5902
  825MOL0     C 8781   3.690   2.240   2.703 -1.0361 -0.4629 -0.1837
  825MOL0     C 8782   3.778   2.205   2.826 -0.2881 -0.1475  0.5897
  825MOL0     C 8783   3.930   2.228   2.782 -0.5486 -0.7598  0.7448
  825MOL0     C 8784   3.973   2.366   2.723 -0.4542  0.4771 -0.5145
  825MOL0     N 8785   3.944   2.485   2.794 -0.6716 -0.6191 -0.5664
  825MOL0     C 8786   3.853   2.579   2.751 -1.2941 -0.1385 -0.4749
  825MOL0     C 8787   3.844   2.674   2.852 -0.8884  0.2602  0.4245
  825MOL0     C 8788   3.770   2.805   2.843 -0.4570  0.3943  0.3776
  825MOL0     C 8789   3.835   2.896   2.726  0.2397 -0.4828 -0.4913
  825MOL0     C 8790   3.989   2.900   2.713 -0.2990  0.0298 -0.1488
  825MOL0     C 8791   4.052   2.967   2.840 -0.9529 -0.3452  0.4783
  825MOL0     O 8792   4.059   3.107   2.837  0.7435  0.6583 -0.3426
  825MOL0     C 8793   4.112   3.175   2.944  0.6198  0.4591  0.4860
  825MOL0     C 8794   4.168   3.296   2.899 -0.6994 -0.0407  0.0036
  825MOL0     C 8795   4.232   3.373   2.993 -0.0696 -0.1388  0.2671
  825MOL0     C 8796   4.242   3.336   3.127  0.2695 -0.5956  0.7011
  825MOL0     C 8797   4.324   3.414   3.225  0.2667  0.5349 -0.1101
  825MOL0     O 8798   4.327   3.385   3.358  0.0746  0.6541 -1.0811
  825MOL0     C 8799   4.363   3.475   3.453 -0.1268  0.2093  0.1466
  825MOL0     C 8800   4.349   3.619   3.448  0.4731  0.5872 -0.6160
  825MOL0     C 8801   4.402   3.693   3.559 -0.5669 -0.5829  0.0414
  825MOL0     C 8802   4.456   3.636   3.674 -0.5214  0.3234 -0.3980
  825MOL0     O 8803   4.507   3.701   3.779  0.3511 -0.4985  0.5766
  825MOL0     C 8804   4.511   3.851   3.769  0.3575  0.1755  0.1359
  825MOL0     C 8805   4.587   3.896   3.899  0.0585  0.1028  0.9132
  825MOL0     C 8806   4.584   4.046   3.894  0.3161  0.1682  0.7089
  825MOL0     C 8807   4.704   4.099   3.970 -0.3358  0.1195 -0.0761
  825MOL0     C 8808   4.748   4.239   3.922  0.6833  0.0220 -0.6153
  825MOL0     C 8809   4.864   4.291   3.996 -0.1077 -0.3155  0.3830
  825MOL0     C 8810   4.942   4.404   3.936  0.5123  0.6547 -0.4475
  825MOL0     C 8811   4.873   4.538   3.908  0.6199 -0.3518  0.6545
  825MOL0    Cl 8812   4.782   4.595   4.060  0.4158 -0.2230  0.3039
  825MOL0     C 8813   4.458   3.502   3.672 -0.4957  0.0264  0.4280
  825MOL0     C 8814   4.430   3.414   3.562  0.4561 -0.5532 -0.0591
  825MOL0     O 8815   4.396   3.498   3.174  0.4202  0.6483  0.2194
  825MOL0     C 8816   4.178   3.219   3.173 -0.2479  0.7394  0.1587
  825MOL0     C 8817   4.126   3.135   3.078 -0.2485  0.6568 -0.9005
  825MOL0     N 8818   3.945   2.630   2.939  0.0049 -0.2858 -1.0336
  825MOL0     N 8819   3.984   2.518   2.914 -0.0754  0.1904  0.0390
  825MOL0     C 8820   3.167   1.735   2.583  0.2962 -0.2798  0.0561
  825MOL0     C 8821   3.087   1.656   2.505 -0.1476 -0.0560 -0.4593
  825MOL0     C 8822   2.808   1.602   2.159  1.0514 -0.3128 -0.5762
  825MOL0     C 8823   2.825   1.469   2.118  0.6378 -0.9049 -0.2560
  825MOL0     C 8824   2.722   1.406   2.041  0.3766  0.0278  0.0167
  825MOL0     C 8825   2.613   1.472   1.993  0.8908  0.6288  0.8509
  825MOL0     O 8826   2.510   1.420   1.914  0.0925  0.3716  1.0765
  825MOL0     C 8827   2.468   1.287   1.945  0.3402 -0.9395  0.7797
  825MOL0     C 8828   2.362   1.252   1.842  0.2547  0.4732 -1.3855
  825MOL0     C 8829   2.336   1.102   1.846 -0.0230  0.0383  0.4567
  825MOL0     C 8830   2.246   1.059   1.723 -0.0442  0.7935 -0.6742
  825MOL0     C 8831   2.295   0.930   1.675 -0.2378  0.5985 -0.1020
  825MOL0     C 8832   2.363   0.836   1.651 -0.3909  0.7825 -0.0181
  825MOL0     C 8833   2.599   1.605   2.030 -1.0201  0.0280  0.2324
  825MOL0     C 8834   2.697   1.673   2.113 -0.3210 -0.8101  0.3340
  825MOL0     H 8835   3.264   1.650   2.224 -0.4329 -2.1875  0.4069
  825MOL0     H 8836   3.426   1.762   2.380 -0.5157  1.9522  1.6835
  825MOL0     H 8837   3.480   1.983   2.514  3.8921 -1.2213 -2.2749
  825MOL0     H 8838   3.557   1.827   2.559  1.6473 -0.3830  2.0589
  825MOL0     H 8839   3.675   1.977   2.701 -0.5127  0.0823 -2.4558
  825MOL0     H 8840   3.572   1.881   2.800  0.4873  1.8542  0.9004
  825MOL0     H 8841   3.508   2.100   2.892 -2.4380  1.0468  0.2592
  825MOL0     H 8842   3.383   2.072   2.787 -0.4525  0.5304  0.3824
  825MOL0     H 8843   3.516   2.211   2.613  0.8898  0.4473  0.3272
  825MOL0     H 8844   3.481   2.296   2.770 -3.6523 -1.2145 -1.3054
  825MOL0     H 8845   3.721   2.343   2.679  0.2447 -0.6764  0.4583
  825MOL0     H 8846   3.721   2.181   2.616 -2.2276  0.0323 -0.9709
  825MOL0     H 8847   3.765   2.099   2.849  0.0664 -0.5993 -1.1076
  825MOL0     H 8848   3.742   2.264   2.911 -2.0558  2.2858 -1.6772
  825MOL0     H 8849   3.992   2.224   2.872 -0.7767  0.6642  1.0023
  825MOL0     H 8850   3.969   2.146   2.722  0.0042  0.0837 -0.0763
  825MOL0     H 8851   3.927   2.384   2.626 -1.2118  0.2327 -0.2127
  825MOL0     H 8852   4.082   2.367   2.718  0.0422 -0.1060  4.6294
  825MOL0     H 8853   3.804   2.570   2.654  1.4133 -5.6822 -1.7194
  825MOL0     H 8854   3.768   2.865   2.934 -0.7111  1.2240 -0.1718
  825MOL0     H 8855   3.664   2.794   2.820 -0.1541  1.9295 -2.1315
  825MOL0     H 8856   3.799   2.998   2.738  2.1324  0.2161 -0.4056
  825MOL0     H 8857   3.800   2.868   2.626  0.6370  0.8178 -1.0184
  825MOL0     H 8858   4.023   2.797   2.700 -0.1049  0.2826 -2.0594
  825MOL0     H 8859   4.024   2.955   2.624  0.2312  0.8606  0.5567
  825MOL0     H 8860   4.157   2.937   2.838 -0.8096  0.1139  0.9737
  825MOL0     H 8861   3.999   2.926   2.926  0.5071 -0.0348  1.5572
  825MOL0     H 8862   4.151   3.319   2.794 -2.7708 -0.0460  0.2818
  825MOL0     H 8863   4.272   3.466   2.954 -1.2710  0.5498  0.6566
  825MOL0     H 8864   4.291   3.668   3.370 -1.5087  1.0762  1.0978
  825MOL0     H 8865   4.403   3.801   3.543  2.5653 -0.3208  1.2973
  825MOL0     H 8866   4.409   3.889   3.767 -1.0592 -3.2314 -2.3885
  825MOL0     H 8867   4.567   3.876   3.678 -0.9817 -1.5593 -1.2357
  825MOL0     H 8868   4.688   3.856   3.910 -0.2101 -0.7730  0.3334
  825MOL0     H 8869   4.536   3.864   3.991 -0.4456  0.6881  0.8443
  825MOL0     H 8870   4.487   4.070   3.939 -0.6036 -0.1921 -1.0104
  825MOL0     H 8871   4.587   4.077   3.790 -2.1239 -2.2370 -0.2070
  825MOL0     H 8872   4.681   4.105   4.077 -1.3197  0.0362 -0.2650
  825MOL0     H 8873   4.793   4.039   3.952 -0.0836 -0.1304  1.7605
  825MOL0     H 8874   4.673   4.318   3.934  1.5103  0.8984 -1.0504
  825MOL0     H 8875   4.778   4.227   3.817  0.7368  1.4011 -0.7731
  825MOL0     H 8876   4.935   4.209   4.010  2.7524  1.9021 -0.2858
  825MOL0     H 8877   4.841   4.330   4.096  3.4595  0.6529  0.9757
  825MOL0     H 8878   5.022   4.428   4.006 -0.9291  1.9716  0.8198
  825MOL0     H 8879   4.982   4.367   3.841 -1.8281 -2.0462 -0.5198
  825MOL0     H 8880   4.797   4.531   3.829  0.2755  2.8599  0.5659
  825MOL0     H 8881   4.951   4.612   3.887 -0.1339 -0.1151 -1.6159
  825MOL0     H 8882   4.509   3.450   3.753  3.1769  0.5032 -1.3811
  825MOL0     H 8883   4.434   3.306   3.562  4.5523 -0.5342  0.6795
  825MOL0     H 8884   4.180   3.180   3.274 -1.2863 -0.0666 -0.1173
  825MOL0     H 8885   4.095   3.040   3.120  2.1603  0.0499 -0.3350
  825MOL0     H 8886   3.144   1.749   2.688 -1.6496 -2.7539  0.0426
  825MOL0     H 8887   2.987   1.628   2.536  0.4135 -1.1897  0.4362
  825MOL0     H 8888   2.917   1.411   2.120  0.0810 -1.8116 -0.6693
  825MOL0     H 8889   2.746   1.306   2.008  3.1186  0.6206 -0.0514
  825MOL0     H 8890   2.429   1.302   2.046  0.2740  2.5287  0.3668
  825MOL0     H 8891   2.540   1.205   1.953  0.1553 -1.0445  1.4487
  825MOL0     H 8892   2.274   1.312   1.867 -0.5146 -1.6500  1.4996
  825MOL0     H 8893   2.404   1.281   1.745 -1.0509  1.7144 -1.6145
  825MOL0     H 8894   2.266   1.083   1.927 -0.5308 -1.3052 -0.2621
  825MOL0     H 8895   2.425   1.039   1.863  0.6111  0.8798  0.3110
  825MOL0     H 8896   2.140   1.049   1.750 -0.0216 -1.8193 -1.2857
  825MOL0     H 8897   2.255   1.136   1.647  2.7056  0.9815 -0.2549
  825MOL0     H 8898   2.425   0.755   1.617 -2.5050 -0.1842 -1.8339
  825MOL0     H 8899   2.509   1.658   1.999  0.3248  3.0901  1.2477
  825MOL0     H 8900   2.687   1.778   2.136 -1.3352 -0.1105 -2.7354
  826MOL0     O 8901   9.001   8.449   9.463  0.0654  0.4481  0.6835
  826MOL0     C 8902   9.123   8.460   9.449 -0.0621 -0.7029  0.0372
  826MOL0     O 8903   9.184   8.532   9.348 -0.1525 -0.0984 -0.7063
  826MOL0     C 8904   9.120   8.640   9.276  0.2740 -0.1677  0.7296
  826MOL0     C 8905   9.166   8.688   9.147  0.1792 -0.2223 -0.2556
  826MOL0     C 8906   9.103   8.800   9.090 -0.1998  0.7111  0.3266
  826MOL0     C 8907   9.006   8.876   9.162  0.0112 -0.2602  0.0237
  826MOL0     O 8908   8.972   8.992   9.091 -0.3878 -0.6282 -0.0256
  826MOL0     C 8909   8.853   9.056   9.113  0.1619  1.0039  0.2787
  826MOL0     C 8910   8.826   9.155   8.994  0.3178  0.0865  0.0023
  826MOL0     C 8911   8.691   9.225   9.010  0.3381  0.7292  0.7981
  826MOL0     C 8912   8.629   9.280   8.880 -0.7380 -0.8717 -0.8985
  826MOL0     C 8913   8.498   9.341   8.916  0.6860 -0.2481  0.3825
  826MOL0     C 8914   8.423   9.353   8.780 -0.4530 -0.0367  0.0078
  826MOL0     C 8915   8.319   9.464   8.801  0.4225 -0.4839  0.0918
  826MOL0     C 8916   8.211   9.458   8.702 -0.2703  0.2180  0.3041
  826MOL0     N 8917   8.119   9.581   8.693 -0.1510  0.3496  0.4018
  826MOL0     C 8918   8.156   9.706   8.644 -0.0237  1.1719  0.4843
  826MOL0     C 8919   8.036   9.769   8.659 -0.2167 -0.6949 -0.1311
  826MOL0     C 8920   8.002   9.905   8.598  0.6111  0.5024 -0.8062
  826MOL0     C 8921   7.849   9.919   8.557 -0.5904  0.5350 -0.3279
  826MOL0     C 8922   7.816   9.838   8.428  0.5806  0.0873  1.4834
  826MOL0     C 8923   7.890   9.889   8.304 -0.1914  0.2630 -0.4196
  826MOL0     O 8924   7.878   9.793   8.199 -0.0805  0.3717 -0.7744
  826MOL0     C 8925   7.962   9.687   8.208  0.4891 -0.1670  0.2783
  826MOL0     C 8926   8.073   9.682   8.298  0.1789 -0.9173  0.2024
  826MOL0     C 8927   8.152   9.568   8.298 -0.6196 -1.2502  0.0921
  826MOL0     C 8928   8.152   9.473   8.197  0.0299 -0.3809 -0.2433
  826MOL0     C 8929   8.253   9.363   8.197  0.8368  1.0359  0.7442
  826MOL0     O 8930   8.230   9.247   8.129  0.1668  0.6616  0.4713
  826MOL0     C 8931   8.334   9.177   8.074 -1.1214  0.2486  0.4129
  826MOL0     C 8932   8.323   9.036   8.070 -0.3553  0.1306 -0.4743
  826MOL0     C 8933   8.440   8.964   8.017 -0.0484  0.1173 -0.0989
  826MOL0     C 8934   8.556   9.027   7.976  0.8119  0.3523 -1.3472
  826MOL0     O 8935   8.656   8.933   7.954  0.1358  0.1278 -0.1095
  826MOL0     C 8936   8.766   8.975   7.870 -0.2965 -0.1489  0.1113
  826MOL0     C 8937   8.845   8.851   7.817 -0.7557 -0.0604 -0.1125
  826MOL0     C 8938   8.981   8.902   7.739  0.1410  0.5253 -0.4893
  826MOL0     C 8939   8.972   9.002   7.626  0.2665 -0.0661 -0.0522
  826MOL0     C 8940   9.112   9.017   7.555 -0.1840 -0.3488  0.2111
  826MOL0     C 8941   9.098   9.110   7.437  0.0465  0.5091  0.0639
  826MOL0     C 8942   8.997   9.074   7.324  0.7894  0.0411  0.1178
  826MOL0     C 8943   8.988   9.172   7.206  0.5707 -1.1119 -0.9272
  826MOL0    Cl 8944   8.855   9.143   7.083 -0.1082 -0.2662  0.1894
  826MOL0     C 8945   8.562   9.165   7.973  0.1295  0.1433 -0.2966
  826MOL0     C 8946   8.449   9.235   8.020  0.0338  0.6297 -0.2792
  826MOL0     O 8947   8.350   9.388   8.259 -0.2114  0.0927 -0.1155
  826MOL0     C 8948   8.044   9.479   8.107 -0.5790 -0.3411 -0.7937
  826MOL0     C 8949   7.950   9.577   8.117 -0.5901 -0.6574  0.6536
  826MOL0     N 8950   7.934   9.683   8.693  0.4043 -0.3633 -0.7933
  826MOL0     N 8951   7.986   9.568   8.731  0.4506 -1.3189 -0.2088
  826MOL0     C 8952   8.963   8.838   9.284  0.4087  0.0764 -0.0802
  826MOL0     C 8953   9.016   8.717   9.328  0.4591  1.0651  0.1548
  826MOL0     C 8954   9.219   8.402   9.548 -0.7642  0.9903 -0.9720
  826MOL0     C 8955   9.352   8.435   9.569 -0.9783 -0.4143  0.4085
  826MOL0     C 8956   9.435   8.359   9.660  0.2876  0.2257  0.0673
  826MOL0     C 8957   9.395   8.240   9.725 -0.4077 -0.4331 -0.4548
  826MOL0     O 8958   9.469   8.165   9.811  0.7317  0.0124 -0.5887
  826MOL0     C 8959   9.602   8.197   9.864 -0.3555 -0.7964  0.9099
  826MOL0     C 8960   9.591   8.305   9.977 -0.8232  0.5175 -0.3219
  826MOL0     C 8961   9.472   8.286  10.079  0.3321  1.1123  1.2054
  826MOL0     C 8962   9.505   8.371  10.198  0.0742  0.7672 -0.7160
  826MOL0     C 8963   9.457   8.322  10.325 -0.3759  0.4813  0.0043
  826MOL0     C 8964   9.405   8.278  10.426 -0.5584 -0.3285 -0.4161
  826MOL0     C 8965   9.262   8.208   9.696 -0.1672  0.7793  0.1647
  826MOL0     C 8966   9.177   8.284   9.616 -0.3593  0.9723 -0.0997
  826MOL0     H 8967   9.246   8.640   9.093 -0.4181  0.1397 -1.5097
  826MOL0     H 8968   9.139   8.835   8.994 -0.0005  0.7824  0.4267
  826MOL0     H 8969   8.866   9.107   9.209  1.8961  0.4322  0.3653
  826MOL0     H 8970   8.773   8.984   9.130  0.9230  0.1368  0.2368
  826MOL0     H 8971   8.848   9.099   8.902  0.1744  3.2607 -2.1055
  826MOL0     H 8972   8.903   9.232   9.001 -1.3723  1.7651  0.9752
  826MOL0     H 8973   8.703   9.316   9.069  2.2546  1.0525 -0.0430
  826MOL0     H 8974   8.610   9.164   9.052 -1.9123  0.3431 -3.4586
  826MOL0     H 8975   8.695   9.357   8.839 -2.9366  1.2626 -0.6842
  826MOL0     H 8976   8.607   9.200   8.808  0.0032 -0.5943 -1.4408
  826MOL0     H 8977   8.516   9.440   8.960 -2.7656 -0.3461  2.4343
  826MOL0     H 8978   8.436   9.296   8.994  0.1324 -0.9748 -0.4637
  826MOL0     H 8979   8.377   9.260   8.745  0.4445 -0.7462  0.6920
  826MOL0     H 8980   8.491   9.379   8.699 -0.9863 -0.7956 -0.6946
  826MOL0     H 8981   8.271   9.451   8.898  0.9437 -1.5989  0.2179
  826MOL0     H 8982   8.370   9.561   8.793 -2.0663  1.0366  1.5111
  826MOL0     H 8983   8.147   9.370   8.713  1.4815 -1.1484 -0.0014
  826MOL0     H 8984   8.260   9.445   8.605  0.5478  1.1041  0.5877
  826MOL0     H 8985   8.247   9.728   8.590  0.6095 -1.2670  0.4448
  826MOL0     H 8986   8.069   9.930   8.516  2.8328  2.2751  1.4186
  826MOL0     H 8987   8.025   9.985   8.668  3.1435 -1.2435  0.5199
  826MOL0     H 8988   7.830  10.026   8.544  0.4619  1.2802  3.3534
  826MOL0     H 8989   7.776   9.891   8.633 -1.3968  3.6147  0.1950
  826MOL0     H 8990   7.848   9.735   8.441  1.3659  0.0337 -0.6232
  826MOL0     H 8991   7.708   9.841   8.413  0.6743  0.6391  0.8501
  826MOL0     H 8992   7.987   9.933   8.329  0.1160  1.3240 -3.1608
  826MOL0     H 8993   7.837   9.980   8.275  1.8401  1.4586 -0.5392
  826MOL0     H 8994   8.089   9.755   8.377  2.5610 -1.2520  0.1054
  826MOL0     H 8995   8.233   9.575   8.369 -0.3702  1.4203 -0.3693
  826MOL0     H 8996   8.238   8.976   8.102  1.3692 -0.1655  4.4187
  826MOL0     H 8997   8.437   8.857   8.001  3.5806  0.2233 -2.5721
  826MOL0     H 8998   8.836   9.035   7.929  1.5342 -3.9751  2.2598
  826MOL0     H 8999   8.724   9.030   7.786 -2.4138 -1.0020  0.5308
  826MOL0     H 9000   8.792   8.796   7.740  1.2603 -0.0764 -1.5610
  826MOL0     H 9001   8.871   8.779   7.895 -4.6086  1.8907  3.3952
  826MOL0     H 9002   9.019   8.811   7.692 -4.7618 -2.5202  0.7326
  826MOL0     H 9003   9.057   8.937   7.809  0.1663 -2.0033  0.8582
  826MOL0     H 9004   8.888   8.957   7.572  0.5778 -2.0174  1.0122
  826MOL0     H 9005   8.941   9.099   7.666 -0.7874 -0.7918  0.9254
  826MOL0     H 9006   9.165   8.925   7.528  0.7192  0.2036  0.0469
  826MOL0     H 9007   9.182   9.071   7.620  0.4818  1.9250 -2.2007
  826MOL0     H 9008   9.191   9.121   7.380 -0.1033 -0.0961 -0.3102
  826MOL0     H 9009   9.067   9.207   7.475 -1.3918  0.7634 -1.6113
  826MOL0     H 9010   9.026   8.977   7.282 -1.6680 -0.6272 -0.1740
  826MOL0     H 9011   8.898   9.059   7.368  0.2049 -0.2075 -1.2423
  826MOL0     H 9012   9.084   9.192   7.158  1.0253 -2.1263 -0.4528
  826MOL0     H 9013   8.971   9.267   7.258  0.9537 -2.3518  1.6155
  826MOL0     H 9014   8.632   9.234   7.929 -1.8431  0.8525 -2.5240
  826MOL0     H 9015   8.455   9.343   8.013  0.4170  0.4802 -3.9024
  826MOL0     H 9016   8.029   9.396   8.038 -1.7277 -1.2430  0.4758
  826MOL0     H 9017   7.862   9.579   8.053  1.1119  1.1190 -1.8313
  826MOL0     H 9018   8.877   8.877   9.336 -0.0399  1.4492 -1.7496
  826MOL0     H 9019   8.975   8.686   9.424  3.1056  0.9724  1.3263
  826MOL0     H 9020   9.397   8.518   9.516 -0.8932 -1.4586 -1.2308
  826MOL0     H 9021   9.524   8.405   9.701 -0.8679  0.7563  2.1427
  826MOL0     H 9022   9.658   8.235   9.777 -1.5968  0.0934  0.4768
  826MOL0     H 9023   9.656   8.109   9.900  4.3796  0.8612 -1.2574
  826MOL0     H 9024   9.682   8.302  10.038 -1.4472  1.8794  0.7514
  826MOL0     H 9025   9.576   8.408   9.943 -3.7357  0.0298 -0.8046
  826MOL0     H 9026   9.470   8.183  10.116 -2.0285  0.4268 -0.6059
  826MOL0     H 9027   9.373   8.305  10.035  1.6460 -2.4023 -4.1565
  826MOL0     H 9028   9.610   8.398  10.212  0.1306  0.3979 -0.4167
  826MOL0     H 9029   9.460   8.470  10.181  1.3771  1.1521 -2.1490
  826MOL0     H 9030   9.364   8.248  10.520  2.4758 -2.1087  0.4627
  826MOL0     H 9031   9.218   8.122   9.745  1.7168  0.2117  0.9377
  826MOL0     H 9032   9.080   8.243   9.589  0.5837 -0.7685 -0.9845
  827MOL0     O 9033   0.027   2.031   5.587  0.4172 -0.9310 -0.3665
  827MOL0     C 9034   0.016   2.152   5.577  0.4588 -0.1293  0.0305
  827MOL0     O 9035   0.120   2.245   5.596 -0.1444 -0.0439 -0.0143
  827MOL0     C 9036   0.246   2.184   5.591 -0.0659 -0.3429  0.3582
  827MOL0     C 9037   0.286   2.125   5.712 -0.9057 -0.2602 -0.9108
  827MOL0     C 9038   0.419   2.088   5.720  0.3343 -0.5037 -0.0203
  827MOL0     C 9039   0.506   2.076   5.616 -0.1222 -0.5803 -0.0394
  827MOL0     O 9040   0.635   2.039   5.647  1.3262  0.5478 -0.0432
  827MOL0     C 9041   0.733   2.032   5.549 -0.1060  0.2706 -0.7897
  827MOL0     C 9042   0.766   1.902   5.476  0.1689 -0.8680 -0.0641
  827MOL0     C 9043   0.783   1.774   5.551  0.3823  0.5197  0.0151
  827MOL0     C 9044   0.825   1.657   5.444  0.3223  0.4212 -0.2658
  827MOL0     C 9045   0.813   1.515   5.501  0.0958  1.0496  0.2143
  827MOL0     C 9046   0.670   1.472   5.517  1.0085 -0.6575  0.0722
  827MOL0     C 9047   0.569   1.496   5.397  0.3211 -0.5546 -0.6035
  827MOL0     C 9048   0.461   1.597   5.436 -0.1649 -0.5178  0.5163
  827MOL0     N 9049   0.363   1.601   5.324 -0.1699 -0.5945 -0.4496
  827MOL0     C 9050   0.361   1.694   5.225 -0.3045  0.4862 -0.6127
  827MOL0     C 9051   0.246   1.670   5.156  0.4818  0.1081  0.7952
  827MOL0     C 9052   0.233   1.721   5.017  0.4354 -0.0943 -0.0510
  827MOL0     C 9053   0.087   1.756   4.978  0.6067 -0.3944 -0.2315
  827MOL0     C 9054   0.005   1.638   4.938 -0.2380 -0.3036  0.7640
  827MOL0     C 9055  -0.146   1.655   4.924 -0.0367  0.6396 -0.2199
  827MOL0     O 9056  -0.200   1.527   4.885 -0.0507  0.6501  0.2801
  827MOL0     C 9057  -0.336   1.520   4.849  0.2648  0.4635 -0.7497
  827MOL0     C 9058  -0.417   1.636   4.816 -0.1558  0.4372  0.1048
  827MOL0     C 9059  -0.550   1.625   4.779  0.1021  0.6059  0.2687
  827MOL0     C 9060  -0.596   1.489   4.757 -0.3432 -0.8235 -0.1343
  827MOL0     C 9061  -0.735   1.483   4.713  0.3590  0.0467  0.4755
  827MOL0     O 9062  -0.773   1.600   4.655 -0.5192 -0.0981 -0.0028
  827MOL0     C 9063  -0.883   1.605   4.585 -0.0087 -0.5819 -0.1056
  827MOL0     C 9064  -0.891   1.563   4.453  0.3017 -0.0993  0.3790
  827MOL0     C 9065  -1.008   1.594   4.385 -1.1276  0.6536 -0.6474
  827MOL0     C 9066  -1.121   1.649   4.446 -0.3546  0.9636  0.4009
  827MOL0     O 9067  -1.249   1.665   4.396  0.0520  0.2810 -0.1770
  827MOL0     C 9068  -1.262   1.648   4.253  0.4969 -0.2552  0.1291
  827MOL0     C 9069  -1.398   1.702   4.214 -0.5777 -1.2023  0.0976
  827MOL0     C 9070  -1.519   1.608   4.245  0.0912  0.6825  0.9036
  827MOL0     C 9071  -1.643   1.654   4.166  0.1688  0.1285  0.0647
  827MOL0     C 9072  -1.692   1.790   4.218 -0.0336  0.1480  0.4945
  827MOL0     C 9073  -1.777   1.849   4.114  0.1449 -0.3163  1.3566
  827MOL0     C 9074  -1.859   1.966   4.170  0.7581 -0.7318 -0.3828
  827MOL0     C 9075  -1.885   2.058   4.060 -0.4323  0.0859  0.5110
  827MOL0    Cl 9076  -2.004   1.984   3.953 -0.2317  0.0172 -0.0049
  827MOL0     C 9077  -1.102   1.685   4.571 -0.3777  0.6373  0.2674
  827MOL0     C 9078  -0.993   1.676   4.642  0.0259  0.8012 -1.1641
  827MOL0     O 9079  -0.810   1.381   4.724 -0.2742  0.6436  0.5481
  827MOL0     C 9080  -0.520   1.378   4.775 -0.1638  0.7323  0.3432
  827MOL0     C 9081  -0.393   1.398   4.830 -0.1717  0.1327 -0.2324
  827MOL0     N 9082   0.169   1.573   5.227 -0.0115 -0.6137  0.0049
  827MOL0     N 9083   0.234   1.544   5.331  0.0142 -0.4666 -0.3649
  827MOL0     C 9084   0.456   2.126   5.496  0.2361 -0.3415  0.4355
  827MOL0     C 9085   0.333   2.191   5.484  0.8882 -0.2210  0.5130
  827MOL0     C 9086  -0.119   2.192   5.529 -0.1316  0.1515 -0.3182
  827MOL0     C 9087  -0.226   2.101   5.499  0.3197  0.6223 -0.5184
  827MOL0     C 9088  -0.357   2.142   5.475  1.0952  0.0028 -0.2117
  827MOL0     C 9089  -0.393   2.277   5.475  0.4415 -0.3836 -0.6445
  827MOL0     O 9090  -0.525   2.305   5.454 -0.0661  0.4190 -0.6047
  827MOL0     C 9091  -0.576   2.437   5.486 -0.8143 -0.1215  0.0032
  827MOL0     C 9092  -0.726   2.439   5.456  0.7579  0.0479 -0.9921
  827MOL0     C 9093  -0.750   2.412   5.306  0.2033  0.2603  0.7645
  827MOL0     C 9094  -0.700   2.537   5.217  0.0042  0.3409 -0.2959
  827MOL0     C 9095  -0.740   2.509   5.079  1.4610  0.2256  0.1851
  827MOL0     C 9096  -0.780   2.515   4.961  0.4581 -0.3995  0.3488
  827MOL0     C 9097  -0.288   2.370   5.496  0.2937 -0.3589 -0.8884
  827MOL0     C 9098  -0.156   2.330   5.535 -0.7116 -0.4209  1.1268
  827MOL0     H 9099   0.221   2.132   5.799  2.1275  2.5705  1.3830
  827MOL0     H 9100   0.458   2.057   5.816 -1.5174 -4.1941 -0.2830
  827MOL0     H 9101   0.824   2.061   5.601 -0.2303  0.5400 -0.7208
  827MOL0     H 9102   0.724   2.120   5.485  2.4681  0.0700 -1.5366
  827MOL0     H 9103   0.859   1.925   5.423  0.5039 -0.8611  0.5217
  827MOL0     H 9104   0.686   1.876   5.406  0.6784 -2.3383 -0.1397
  827MOL0     H 9105   0.688   1.760   5.603  0.2276  0.0732 -0.3811
  827MOL0     H 9106   0.859   1.782   5.628 -1.3610  1.9621  1.6626
  827MOL0     H 9107   0.787   1.661   5.341 -1.2945 -3.4022  0.0266
  827MOL0     H 9108   0.933   1.667   5.438  0.2771  1.4184  0.3800
  827MOL0     H 9109   0.862   1.510   5.598 -2.4211  0.3117  1.5279
  827MOL0     H 9110   0.861   1.441   5.436  0.4774  1.7498 -0.3162
  827MOL0     H 9111   0.641   1.507   5.617  0.0015 -0.0889 -0.4040
  827MOL0     H 9112   0.670   1.365   5.539  1.6579 -0.1934  2.6933
  827MOL0     H 9113   0.614   1.526   5.302 -0.1604 -1.7612 -1.2383
  827MOL0     H 9114   0.524   1.398   5.380  3.1463 -1.7709 -1.7898
  827MOL0     H 9115   0.496   1.698   5.459  0.3110 -0.9316  1.6979
  827MOL0     H 9116   0.413   1.568   5.530 -1.2610  1.9502  0.8288
  827MOL0     H 9117   0.448   1.749   5.190 -0.4446 -0.6114 -2.9242
  827MOL0     H 9118   0.276   1.649   4.946 -0.6864 -1.2673  0.4236
  827MOL0     H 9119   0.288   1.815   5.016 -2.3560  1.6530  0.1748
  827MOL0     H 9120   0.091   1.822   4.891 -0.6566  0.8707  0.6294
  827MOL0     H 9121   0.028   1.816   5.047  0.0315 -0.2991 -0.8010
  827MOL0     H 9122   0.043   1.583   4.852 -0.7441 -2.1959  1.7026
  827MOL0     H 9123   0.021   1.561   5.014 -1.1358 -1.1977  0.0641
  827MOL0     H 9124  -0.152   1.721   4.836  0.8597  2.5421  1.0847
  827MOL0     H 9125  -0.201   1.691   5.011 -0.9511  0.0180 -0.5298
  827MOL0     H 9126  -0.370   1.732   4.835  1.0324 -0.0346 -0.3721
  827MOL0     H 9127  -0.603   1.718   4.763 -1.2757 -0.2270 -0.1919
  827MOL0     H 9128  -0.810   1.508   4.406 -1.7369 -3.4968  0.5052
  827MOL0     H 9129  -1.009   1.573   4.278  2.1025  1.6842 -0.9890
  827MOL0     H 9130  -1.246   1.541   4.235  0.4099 -0.6529  2.1154
  827MOL0     H 9131  -1.191   1.715   4.205 -0.4664  1.3413  0.8516
  827MOL0     H 9132  -1.399   1.712   4.105 -0.2291 -1.5133  0.0656
  827MOL0     H 9133  -1.408   1.805   4.250 -1.7590 -0.8163 -1.2161
  827MOL0     H 9134  -1.552   1.612   4.349 -0.8322  0.5386  0.6247
  827MOL0     H 9135  -1.481   1.506   4.236  1.8081  1.0453  3.0050
  827MOL0     H 9136  -1.613   1.660   4.061 -0.3163 -1.2785 -0.1861
  827MOL0     H 9137  -1.727   1.584   4.160 -1.6080  2.0621  1.1553
  827MOL0     H 9138  -1.611   1.859   4.244 -0.9877  1.4835  0.0402
  827MOL0     H 9139  -1.747   1.760   4.308 -0.1179 -4.8776 -0.9193
  827MOL0     H 9140  -1.849   1.781   4.065 -0.3833  1.5797 -0.6440
  827MOL0     H 9141  -1.712   1.887   4.035 -1.6168  1.8143  0.8397
  827MOL0     H 9142  -1.953   1.939   4.219  1.7474 -3.2641  0.2247
  827MOL0     H 9143  -1.807   2.013   4.254 -2.9158 -0.6686  2.1181
  827MOL0     H 9144  -1.792   2.091   4.011 -2.0247  2.8518 -0.9358
  827MOL0     H 9145  -1.925   2.149   4.106  0.8522  0.7575  0.3603
  827MOL0     H 9146  -1.193   1.725   4.614 -1.3362 -0.0227 -1.0853
  827MOL0     H 9147  -0.997   1.725   4.739  0.8573 -0.9735 -0.1852
  827MOL0     H 9148  -0.562   1.282   4.750  0.8446  0.4667 -0.3962
  827MOL0     H 9149  -0.320   1.319   4.846 -0.1025  0.3259  0.4321
  827MOL0     H 9150   0.513   2.119   5.404  1.8584  0.2321  1.3491
  827MOL0     H 9151   0.308   2.229   5.386 -0.6381  1.8418  1.6263
  827MOL0     H 9152  -0.205   1.995   5.498  2.6613  1.0281 -2.4721
  827MOL0     H 9153  -0.424   2.059   5.455  2.0323 -1.3476  1.9071
  827MOL0     H 9154  -0.539   2.520   5.426 -1.8158 -0.1899 -0.7246
  827MOL0     H 9155  -0.548   2.460   5.589  2.3910  1.0764 -1.0165
  827MOL0     H 9156  -0.764   2.362   5.524 -0.2845  0.4289 -1.1194
  827MOL0     H 9157  -0.780   2.527   5.491 -1.4779 -2.3860  2.2538
  827MOL0     H 9158  -0.858   2.409   5.285  0.6605  1.0533 -2.1481
  827MOL0     H 9159  -0.699   2.323   5.267  2.1085  1.2328  0.9240
  827MOL0     H 9160  -0.754   2.627   5.248  1.0793  1.5088 -1.6553
  827MOL0     H 9161  -0.594   2.554   5.238 -0.6158 -0.9613  5.4984
  827MOL0     H 9162  -0.787   2.542   4.857  2.8913  0.4334  0.3484
  827MOL0     H 9163  -0.306   2.474   5.469 -0.2212 -0.7336 -2.0790
  827MOL0     H 9164  -0.076   2.402   5.544  0.2726 -1.3597  0.1199
  828MOL0     O 9165  10.248  10.901   8.591 -0.0971  0.8775  0.3978
  828MOL0     C 9166  10.246  10.838   8.700  0.3068 -0.2625 -1.4436
  828MOL0     O 9167  10.141  10.761   8.760  0.2550  0.0476 -0.7262
  828MOL0     C 9168  10.016  10.735   8.703 -0.0187 -0.9623 -0.0774
  828MOL0     C 9169   9.957  10.806   8.600 -0.0521 -0.3959 -0.4232
  828MOL0     C 9170   9.832  10.763   8.551  0.4022 -0.0539 -0.1693
  828MOL0     C 9171   9.749  10.669   8.622 -0.9074 -0.8708 -0.6765
  828MOL0     O 9172   9.620  10.633   8.584  0.2535  0.4590 -0.2307
  828MOL0     C 9173   9.543  10.723   8.508 -0.0785  0.5938  0.3860
  828MOL0     C 9174   9.394  10.686   8.527 -0.3585 -0.4668  0.6614
  828MOL0     C 9175   9.339  10.725   8.655 -1.3537  0.3712  0.4016
  828MOL0     C 9176   9.185  10.682   8.653 -0.4210 -0.0141  0.3799
  828MOL0     C 9177   9.112  10.711   8.787  0.1635 -0.0599 -0.9705
  828MOL0     C 9178   8.961  10.688   8.765 -0.1355 -0.7466  0.3506
  828MOL0     C 9179   8.890  10.666   8.896  0.1987 -0.8437 -0.3370
  828MOL0     C 9180   8.860  10.799   8.959  0.4310  1.1608  0.1487
  828MOL0     N 9181   8.832  10.766   9.100 -0.0912  0.1537 -0.3072
  828MOL0     C 9182   8.708  10.771   9.154  0.3026 -0.2016 -0.3187
  828MOL0     C 9183   8.723  10.700   9.266  0.0038  1.2650  0.2527
  828MOL0     C 9184   8.617  10.682   9.370  0.2516  0.6072 -0.2670
  828MOL0     C 9185   8.566  10.810   9.425 -0.7562 -0.3597  0.3668
  828MOL0     C 9186   8.454  10.787   9.530 -0.4125  0.6211  0.7003
  828MOL0     C 9187   8.400  10.922   9.581 -0.3845  0.4708  0.6917
  828MOL0     O 9188   8.283  10.904   9.657  0.2758 -0.3867 -0.3044
  828MOL0     C 9189   8.159  10.908   9.595 -0.2352 -1.2500 -1.5087
  828MOL0     C 9190   8.134  10.904   9.456 -0.4291 -0.8486 -0.6525
  828MOL0     C 9191   8.006  10.900   9.406  0.2070 -0.6668 -0.0120
  828MOL0     C 9192   7.895  10.890   9.488  0.1090  0.4940 -0.3055
  828MOL0     C 9193   7.756  10.884   9.421  0.2871  0.6047  0.2741
  828MOL0     O 9194   7.673  10.822   9.508  0.3192 -0.5735 -0.2482
  828MOL0     C 9195   7.545  10.796   9.464 -0.1094 -0.2090 -1.2581
  828MOL0     C 9196   7.437  10.841   9.534  0.0648  0.0163 -1.3039
  828MOL0     C 9197   7.307  10.800   9.503  0.2740  0.0439 -0.0167
  828MOL0     C 9198   7.279  10.717   9.395  0.2126  0.0735 -0.0578
  828MOL0     O 9199   7.157  10.663   9.377  0.3681  0.1562  0.1524
  828MOL0     C 9200   7.043  10.743   9.394  0.5287  0.6415  0.3586
  828MOL0     C 9201   6.928  10.684   9.311 -0.4270 -0.7352  0.9691
  828MOL0     C 9202   6.951  10.689   9.156  0.0227 -0.7392 -0.3053
  828MOL0     C 9203   6.826  10.647   9.091  1.2126  0.1848 -0.4256
  828MOL0     C 9204   6.815  10.688   8.941 -0.3208 -0.5305 -0.1107
  828MOL0     C 9205   6.824  10.841   8.915  0.5751  0.2397  1.0131
  828MOL0     C 9206   6.800  10.878   8.768  0.0049  0.3507  0.0781
  828MOL0     C 9207   6.655  10.912   8.747  0.0565 -0.3453  0.7771
  828MOL0    Cl 9208   6.633  11.000   8.594 -0.1503 -0.1741  0.0292
  828MOL0     C 9209   7.392  10.663   9.324 -0.6484 -0.3320 -0.0461
  828MOL0     C 9210   7.523  10.699   9.363  0.0923  1.2818  0.3218
  828MOL0     O 9211   7.734  10.931   9.313  1.0261 -0.3026  0.7569
  828MOL0     C 9212   7.912  10.878   9.629 -0.0858 -0.7757  0.0993
  828MOL0     C 9213   8.041  10.896   9.682 -0.1917  0.4069  0.0099
  828MOL0     N 9214   8.858  10.672   9.289  0.3335  0.3447 -0.4859
  828MOL0     N 9215   8.924  10.714   9.185  0.2484  0.2075  1.4320
  828MOL0     C 9216   9.808  10.598   8.723  0.3931  0.2674  0.6387
  828MOL0     C 9217   9.934  10.631   8.759 -0.0335  0.6093 -0.1931
  828MOL0     C 9218  10.369  10.844   8.786  0.2405  1.1901 -0.6595
  828MOL0     C 9219  10.500  10.842   8.725 -1.3350  1.0756 -0.2750
  828MOL0     C 9220  10.617  10.858   8.809 -0.3511  0.7564 -1.1968
  828MOL0     C 9221  10.601  10.892   8.949  0.0806  0.7091  0.4919
  828MOL0     O 9222  10.708  10.937   9.019 -0.1755  0.7231  0.3188
  828MOL0     C 9223  10.699  11.011   9.145 -0.8812 -0.5555 -0.2511
  828MOL0     C 9224  10.698  10.910   9.260  1.0294 -0.6837  0.2506
  828MOL0     C 9225  10.803  10.810   9.265 -0.3265 -0.3848  0.0087
  828MOL0     C 9226  10.792  10.742   9.395  0.3343  0.2234  0.0272
  828MOL0     C 9227  10.905  10.648   9.389 -0.2296 -0.7290 -0.4751
  828MOL0     C 9228  10.988  10.558   9.373 -0.1414  0.0311 -0.0181
  828MOL0     C 9229  10.472  10.902   9.004  0.0705 -0.9255 -0.4753
  828MOL0     C 9230  10.359  10.868   8.929 -0.5296  0.6942  0.2296
  828MOL0     H 9231  10.015  10.884   8.552  0.2622 -0.1751  0.3038
  828MOL0     H 9232   9.774  10.800   8.468 -4.8782 -3.9080  1.2406
  828MOL0     H 9233   9.569  10.718   8.402 -2.8646  0.6936 -0.3833
  828MOL0     H 9234   9.564  10.827   8.535  2.8557  0.4772 -1.0414
  828MOL0     H 9235   9.388  10.578   8.509 -0.8678 -0.2002 -0.9074
  828MOL0     H 9236   9.332  10.739   8.454  0.7262  1.2633  0.9547
  828MOL0     H 9237   9.343  10.833   8.674  1.7138  1.0654 -2.9863
  828MOL0     H 9238   9.388  10.669   8.735  0.3332  1.3224  0.0986
  828MOL0     H 9239   9.123  10.741   8.585 -2.3204  2.3592  3.8354
  828MOL0     H 9240   9.193  10.578   8.621  4.1517  0.0982  0.4381
  828MOL0     H 9241   9.129  10.813   8.822 -1.8869 -0.2350  0.6940
  828MOL0     H 9242   9.147  10.650   8.871  0.3137  1.5189  0.1606
  828MOL0     H 9243   8.938  10.607   8.695  2.9008 -2.3243  1.0301
  828MOL0     H 9244   8.915  10.774   8.713  0.6726 -1.3874 -1.5017
  828MOL0     H 9245   8.794  10.622   8.867  0.0079  0.8687 -2.6987
  828MOL0     H 9246   8.943  10.602   8.967  1.8643  0.8901  0.0707
  828MOL0     H 9247   8.775  10.826   8.895  1.4173 -0.2101 -1.8628
  828MOL0     H 9248   8.939  10.873   8.945  1.3418  0.1800 -0.0207
  828MOL0     H 9249   8.632  10.834   9.108  1.4923  1.9711  0.5438
  828MOL0     H 9250   8.662  10.613   9.443  0.1709  0.4168 -0.3955
  828MOL0     H 9251   8.528  10.626   9.338  0.0912  0.7393 -0.0558
  828MOL0     H 9252   8.523  10.877   9.350  0.9958 -1.1376 -1.3986
  828MOL0     H 9253   8.650  10.862   9.471  2.4126 -2.8229 -2.1899
  828MOL0     H 9254   8.364  10.738   9.491 -0.5148  0.4288  1.1732
  828MOL0     H 9255   8.483  10.735   9.621 -1.8189  0.4403  1.0699
  828MOL0     H 9256   8.384  10.992   9.498  0.3462  0.0669  0.2011
  828MOL0     H 9257   8.472  10.978   9.642  0.9986  1.2401 -1.5519
  828MOL0     H 9258   8.219  10.905   9.388  0.6317  0.8584  0.6087
  828MOL0     H 9259   7.980  10.904   9.300 -3.2898 -2.0649  0.6633
  828MOL0     H 9260   7.463  10.901   9.621  0.9276 -2.2987  0.1025
  828MOL0     H 9261   7.226  10.839   9.563  1.4681  0.2232  1.5495
  828MOL0     H 9262   7.064  10.846   9.362 -1.2729  2.1756  3.6349
  828MOL0     H 9263   7.008  10.739   9.497  1.1221 -0.1919  0.5324
  828MOL0     H 9264   6.837  10.736   9.341 -0.3872  0.3215 -0.5955
  828MOL0     H 9265   6.902  10.586   9.351 -2.4488 -0.4594  0.4458
  828MOL0     H 9266   7.031  10.625   9.120  0.9547  0.2835 -0.1116
  828MOL0     H 9267   6.966  10.794   9.129 -1.9253 -0.0805  0.9381
  828MOL0     H 9268   6.802  10.544   9.119  2.8886 -0.1340 -0.0523
  828MOL0     H 9269   6.745  10.711   9.127 -0.7954 -2.4193 -0.0388
  828MOL0     H 9270   6.712  10.653   8.924  0.1426 -2.8742  1.3473
  828MOL0     H 9271   6.880  10.621   8.884 -1.8758 -2.6674  0.4574
  828MOL0     H 9272   6.924  10.879   8.938  0.8368 -0.4640  1.0866
  828MOL0     H 9273   6.757  10.896   8.981 -0.6475  0.0102  0.0046
  828MOL0     H 9274   6.866  10.963   8.749 -0.8643  1.7243  2.7464
  828MOL0     H 9275   6.825  10.799   8.695 -0.0902  2.2020 -2.0612
  828MOL0     H 9276   6.621  10.983   8.824 -1.1621  0.5931 -0.5670
  828MOL0     H 9277   6.594  10.821   8.741 -0.8545  0.2815  0.2171
  828MOL0     H 9278   7.381  10.600   9.237  2.2533  0.9328 -1.4449
  828MOL0     H 9279   7.605  10.673   9.298 -0.7759  2.7739 -1.4627
  828MOL0     H 9280   7.827  10.888   9.695  1.0425  2.3522  1.2448
  828MOL0     H 9281   8.050  10.876   9.788 -1.6698  2.0661  0.5189
  828MOL0     H 9282   9.748  10.522   8.772  0.6809  0.3575  1.1385
  828MOL0     H 9283   9.967  10.565   8.838 -1.7343  2.2395  2.0266
  828MOL0     H 9284  10.510  10.840   8.617 -1.1026  1.6288 -0.2642
  828MOL0     H 9285  10.719  10.862   8.771  0.3469  1.7008  0.6749
  828MOL0     H 9286  10.615  11.081   9.137 -2.0407 -1.6484  1.6751
  828MOL0     H 9287  10.789  11.068   9.170 -0.3697 -1.5880  0.3182
  828MOL0     H 9288  10.697  10.960   9.357  0.8557  0.7277 -0.4501
  828MOL0     H 9289  10.605  10.853   9.256  0.3009  0.1101  3.2242
  828MOL0     H 9290  10.905  10.848   9.254 -0.9721  0.9870 -1.9030
  828MOL0     H 9291  10.794  10.733   9.188  2.4244  1.7005 -2.6516
  828MOL0     H 9292  10.794  10.810   9.480 -0.8045  1.1348 -0.6421
  828MOL0     H 9293  10.698  10.687   9.406 -0.3774  1.5025  0.5129
  828MOL0     H 9294  11.050  10.473   9.352 -1.9050 -1.2032 -0.5218
  828MOL0     H 9295  10.446  10.914   9.108  2.8779 -2.4681  0.5180
  828MOL0     H 9296  10.257  10.883   8.963 -0.1751 -2.4056  3.2935
  829MOL0     O 9297   0.197   7.103   8.316  0.4432  0.2348 -0.5910
  829MOL0     C 9298   0.237   7.028   8.225  0.0109 -0.2693 -0.0034
  829MOL0     O 9299   0.184   6.909   8.183  0.4846 -0.2862 -0.5106
  829MOL0     C 9300   0.092   6.852   8.268  0.7900  0.0079 -0.7435
  829MOL0     C 9301  -0.037   6.835   8.225 -1.2545 -0.7139 -0.3257
  829MOL0     C 9302  -0.131   6.759   8.291  0.9778  0.0126 -0.4750
  829MOL0     C 9303  -0.092   6.695   8.410 -0.0823 -0.0838  1.1308
  829MOL0     O 9304  -0.173   6.627   8.490  0.2727 -0.1089  0.1658
  829MOL0     C 9305  -0.315   6.662   8.490  0.0984 -0.4114 -1.0898
  829MOL0     C 9306  -0.361   6.652   8.641  0.1198 -0.4059  0.3861
  829MOL0     C 9307  -0.501   6.678   8.655 -0.5045 -0.4549  0.3710
  829MOL0     C 9308  -0.567   6.637   8.784 -1.0609 -0.0150  0.3798
  829MOL0     C 9309  -0.717   6.660   8.784 -0.0895  0.5829 -0.1623
  829MOL0     C 9310  -0.790   6.588   8.897  0.1419 -0.3095 -0.5881
  829MOL0     C 9311  -0.779   6.431   8.892  0.7474 -0.1051 -0.4975
  829MOL0     C 9312  -0.891   6.379   8.985  1.1184  0.2501 -0.1276
  829MOL0     N 9313  -0.896   6.230   8.980  0.7234 -0.6086  0.5773
  829MOL0     C 9314  -0.969   6.140   8.902 -0.5688 -0.0639 -0.0294
  829MOL0     C 9315  -0.905   6.021   8.903  0.4460 -0.3186  0.1263
  829MOL0     C 9316  -0.940   5.895   8.836  0.1475  1.5343 -0.5453
  829MOL0     C 9317  -1.078   5.836   8.896 -0.0293 -0.1850 -0.4251
  829MOL0     C 9318  -1.067   5.779   9.046  0.0561 -0.1158  0.0265
  829MOL0     C 9319  -1.199   5.726   9.093  0.3475  0.2351 -0.7109
  829MOL0     O 9320  -1.264   5.624   9.011  0.6180 -0.4795 -0.2792
  829MOL0     C 9321  -1.387   5.591   9.055 -0.0430  1.6629 -0.0476
  829MOL0     C 9322  -1.501   5.686   9.060 -0.0753 -0.7638 -0.3729
  829MOL0     C 9323  -1.626   5.653   9.096  0.5670  0.8948  0.0496
  829MOL0     C 9324  -1.634   5.517   9.145  0.2772 -0.3545  1.2658
  829MOL0     C 9325  -1.764   5.460   9.177  0.3218 -0.2534  0.1141
  829MOL0     O 9326  -1.771   5.350   9.242  0.0675  0.4952 -0.8120
  829MOL0     C 9327  -1.894   5.306   9.301  0.4694  0.9760 -1.0349
  829MOL0     C 9328  -1.873   5.231   9.416  0.4419  0.1926 -0.5511
  829MOL0     C 9329  -1.986   5.163   9.468 -0.0588  0.6511 -0.1828
  829MOL0     C 9330  -2.109   5.168   9.407 -0.2191  0.3149  0.5675
  829MOL0     O 9331  -2.212   5.093   9.458  0.2482 -0.7838 -0.0690
  829MOL0     C 9332  -2.343   5.112   9.386 -0.6254 -0.0413 -0.4256
  829MOL0     C 9333  -2.439   5.033   9.482  0.6792 -0.0795 -0.1161
  829MOL0     C 9334  -2.422   4.885   9.492 -0.6614  0.7983 -0.6363
  829MOL0     C 9335  -2.423   4.807   9.362  0.2397 -0.3113  0.3218
  829MOL0     C 9336  -2.430   4.661   9.377 -0.1559  0.7880  0.0222
  829MOL0     C 9337  -2.436   4.594   9.242  0.1511 -0.3213  0.1806
  829MOL0     C 9338  -2.573   4.604   9.169  0.3071 -0.1348  0.1419
  829MOL0     C 9339  -2.656   4.472   9.179  0.0712 -0.0424 -0.2142
  829MOL0    Cl 9340  -2.703   4.429   9.339  0.3596 -0.8977  0.1547
  829MOL0     C 9341  -2.119   5.244   9.291 -0.1668 -0.4248 -0.6788
  829MOL0     C 9342  -2.014   5.316   9.241 -0.3112  0.2221  0.1621
  829MOL0     O 9343  -1.857   5.514   9.120  0.2371 -0.1468 -0.0220
  829MOL0     C 9344  -1.527   5.436   9.165 -0.3295  0.0447  0.2396
  829MOL0     C 9345  -1.405   5.465   9.111  1.0128  0.3625 -0.1221
  829MOL0     N 9346  -0.811   6.031   8.998 -0.5714  0.8831 -0.7356
  829MOL0     N 9347  -0.798   6.151   9.043 -0.4227 -0.4119 -0.7042
  829MOL0     C 9348   0.042   6.709   8.454  0.1902  0.7353  0.7428
  829MOL0     C 9349   0.137   6.781   8.380  0.9192 -0.2811  0.5841
  829MOL0     C 9350   0.332   7.091   8.128 -0.2572  0.2176  0.9642
  829MOL0     C 9351   0.427   7.184   8.172 -1.0363  0.4374 -1.3125
  829MOL0     C 9352   0.522   7.242   8.085  0.4958 -0.0798 -0.2688
  829MOL0     C 9353   0.529   7.188   7.954  0.5359 -0.0102  0.1301
  829MOL0     O 9354   0.612   7.239   7.854  0.1646 -0.4439  0.0543
  829MOL0     C 9355   0.710   7.344   7.876 -0.6014 -0.1503 -0.1685
  829MOL0     C 9356   0.772   7.375   7.741 -0.4389  0.5508  0.2603
  829MOL0     C 9357   0.919   7.408   7.745 -0.5713  0.1078  0.6669
  829MOL0     C 9358   0.977   7.462   7.617 -0.3624 -0.3050  0.5273
  829MOL0     C 9359   0.934   7.381   7.500 -1.5556  0.0070  0.8361
  829MOL0     C 9360   0.905   7.322   7.404  0.7885  0.4727  0.2970
  829MOL0     C 9361   0.443   7.092   7.909  1.2465  0.4482  0.6350
  829MOL0     C 9362   0.349   7.036   7.995  0.8292  0.1832  0.4015
  829MOL0     H 9363  -0.060   6.869   8.125  0.1668 -1.2072 -0.8380
  829MOL0     H 9364  -0.228   6.737   8.246 -0.6515 -0.4840  2.9719
  829MOL0     H 9365  -0.376   6.586   8.440  0.3809 -1.0460 -0.4909
  829MOL0     H 9366  -0.331   6.765   8.457  1.7276 -0.5236 -2.3426
  829MOL0     H 9367  -0.295   6.727   8.685  3.9184 -3.6049  0.7888
  829MOL0     H 9368  -0.337   6.559   8.694 -3.1048 -0.6790  1.5902
  829MOL0     H 9369  -0.541   6.617   8.573  0.7781  0.7604 -1.2422
  829MOL0     H 9370  -0.513   6.784   8.631  2.0051 -0.0945  0.4088
  829MOL0     H 9371  -0.542   6.530   8.787  3.5191  0.5029 -4.6498
  829MOL0     H 9372  -0.500   6.671   8.864  1.1267  0.3200 -1.4942
  829MOL0     H 9373  -0.756   6.614   8.693 -2.7485 -3.4895  2.7092
  829MOL0     H 9374  -0.740   6.767   8.796 -1.8559  0.0325  2.0590
  829MOL0     H 9375  -0.893   6.623   8.888  1.1689  3.0866 -0.4331
  829MOL0     H 9376  -0.751   6.618   8.995 -1.8456  0.3920  0.0479
  829MOL0     H 9377  -0.789   6.397   8.789 -0.8572 -1.0965 -0.0457
  829MOL0     H 9378  -0.680   6.401   8.926 -0.3533 -0.2598  2.9571
  829MOL0     H 9379  -0.988   6.430   8.975  0.0425 -1.3741  1.4656
  829MOL0     H 9380  -0.861   6.403   9.088 -3.3099  0.8415  1.2570
  829MOL0     H 9381  -1.061   6.166   8.850 -0.2073 -0.0252 -0.6573
  829MOL0     H 9382  -0.864   5.818   8.853 -0.5127  1.5367  3.2860
  829MOL0     H 9383  -0.974   5.898   8.732 -1.0631 -0.8766 -0.3062
  829MOL0     H 9384  -1.111   5.761   8.823  1.6767 -0.8509 -0.5643
  829MOL0     H 9385  -1.146   5.921   8.901  0.0119 -0.2304  2.4197
  829MOL0     H 9386  -0.984   5.710   9.063 -0.1843 -0.0352  1.6382
  829MOL0     H 9387  -1.029   5.866   9.100  0.0497  0.1221 -0.3507
  829MOL0     H 9388  -1.260   5.817   9.092  1.4134  0.9668 -0.9503
  829MOL0     H 9389  -1.189   5.684   9.193  2.3057  0.0551 -0.9266
  829MOL0     H 9390  -1.474   5.782   9.018  2.6506 -0.4512  1.8391
  829MOL0     H 9391  -1.704   5.729   9.093 -0.3903  0.3083  4.1446
  829MOL0     H 9392  -1.774   5.193   9.439  0.6315 -1.3465 -3.4018
  829MOL0     H 9393  -1.963   5.096   9.551 -1.1869  0.0178 -0.3702
  829MOL0     H 9394  -2.345   5.072   9.284  1.2674  1.7134 -1.2213
  829MOL0     H 9395  -2.369   5.218   9.390 -0.3406  0.0589 -1.2084
  829MOL0     H 9396  -2.543   5.049   9.452  0.0097 -0.8401  1.6097
  829MOL0     H 9397  -2.438   5.078   9.582 -2.3684 -0.7420  0.3217
  829MOL0     H 9398  -2.503   4.841   9.550  0.2033 -2.8468 -1.8648
  829MOL0     H 9399  -2.332   4.855   9.547  1.7599 -1.1409 -5.0281
  829MOL0     H 9400  -2.509   4.850   9.311 -0.0666  1.6267  2.3374
  829MOL0     H 9401  -2.338   4.837   9.301 -0.2527 -1.3675 -0.9292
  829MOL0     H 9402  -2.507   4.620   9.443 -0.3279  0.3067 -0.4724
  829MOL0     H 9403  -2.340   4.622   9.426 -0.8369  1.8999  2.2763
  829MOL0     H 9404  -2.409   4.491   9.270  1.0894  0.0389  0.6410
  829MOL0     H 9405  -2.362   4.637   9.174  0.7356  0.6556  1.3912
  829MOL0     H 9406  -2.629   4.685   9.216 -1.4769 -0.7348 -0.8664
  829MOL0     H 9407  -2.563   4.635   9.065 -0.1171  1.8132  0.6321
  829MOL0     H 9408  -2.592   4.388   9.152 -1.7050 -0.6760 -2.8841
  829MOL0     H 9409  -2.750   4.470   9.124 -0.3302 -0.6289  0.4821
  829MOL0     H 9410  -2.209   5.247   9.231  0.4468  1.2129 -1.5999
  829MOL0     H 9411  -2.033   5.368   9.147  2.3524  0.0368 -0.5371
  829MOL0     H 9412  -1.546   5.336   9.203 -1.6157  0.2329  0.1349
  829MOL0     H 9413  -1.332   5.386   9.116 -0.2556 -0.8969 -0.6615
  829MOL0     H 9414   0.074   6.666   8.548  0.2928  0.3509  0.5357
  829MOL0     H 9415   0.241   6.789   8.409  0.9302  1.3681  0.1860
  829MOL0     H 9416   0.425   7.201   8.280 -0.6818 -3.8267 -0.4804
  829MOL0     H 9417   0.590   7.320   8.118 -0.3136  0.5384 -0.0479
  829MOL0     H 9418   0.786   7.306   7.945  1.9908 -1.1347 -3.3266
  829MOL0     H 9419   0.685   7.442   7.919  0.0722  0.6727 -1.6097
  829MOL0     H 9420   0.763   7.289   7.674 -5.7961 -0.6649  2.0537
  829MOL0     H 9421   0.711   7.446   7.685 -0.7531  1.2134  1.4153
  829MOL0     H 9422   0.979   7.322   7.775 -2.9416 -3.3285 -3.3877
  829MOL0     H 9423   0.935   7.477   7.828 -0.5521  3.3889 -1.8339
  829MOL0     H 9424   0.950   7.567   7.599  1.3770 -0.1540 -1.5613
  829MOL0     H 9425   1.084   7.441   7.626  0.1962  0.3890 -3.0034
  829MOL0     H 9426   0.889   7.265   7.314 -1.6424  2.4779 -0.6673
  829MOL0     H 9427   0.446   7.057   7.807  1.5678  1.6467  0.2244
  829MOL0     H 9428   0.287   6.953   7.963  1.4337 -0.3801  0.6682
  830MOL0     O 9429   3.473   1.817   0.362 -0.2267 -0.7382  0.6313
  830MOL0     C 9430   3.429   1.793   0.476  0.6449  0.3515 -0.0862
  830MOL0     O 9431   3.301   1.802   0.516  1.0838 -0.6049 -0.4639
  830MOL0     C 9432   3.222   1.880   0.435 -0.3649  1.1912  0.4434
  830MOL0     C 9433   3.127   1.804   0.360  0.6438 -1.3656 -0.2174
  830MOL0     C 9434   3.039   1.879   0.274 -0.2323 -0.0005 -0.6648
  830MOL0     C 9435   3.039   2.020   0.275  0.3530  0.1518 -0.4129
  830MOL0     O 9436   2.971   2.105   0.194  0.9139  0.3104  0.4481
  830MOL0     C 9437   2.830   2.078   0.159  0.1887 -0.0120  0.0022
  830MOL0     C 9438   2.771   2.190   0.068  0.0777 -0.1263  0.3175
  830MOL0     C 9439   2.742   2.316   0.142  0.6487 -0.2849 -0.7988
  830MOL0     C 9440   2.679   2.419   0.044 -0.6634 -0.5191 -0.5051
  830MOL0     C 9441   2.601   2.531   0.114 -0.7433 -0.4032  1.0868
  830MOL0     C 9442   2.481   2.576   0.025 -0.0721 -0.7918 -0.4300
  830MOL0     C 9443   2.396   2.667   0.114 -1.3884 -1.4302 -0.6134
  830MOL0     C 9444   2.315   2.747   0.014  1.1558  0.2160  0.2725
  830MOL0     N 9445   2.198   2.811   0.077 -0.6676  0.2394  0.7616
  830MOL0     C 9446   2.106   2.749   0.157 -0.6681  0.9001 -0.6047
  830MOL0     C 9447   1.994   2.831   0.174  0.9099 -0.0561  0.7091
  830MOL0     C 9448   1.872   2.795   0.261  1.0350 -0.3645  0.6353
  830MOL0     C 9449   1.764   2.902   0.250 -0.2159 -0.3210  0.5241
  830MOL0     C 9450   1.683   2.881   0.117  0.6516  0.1498  0.9662
  830MOL0     C 9451   1.566   2.988   0.113 -0.3278  0.2765  0.7990
  830MOL0     O 9452   1.621   3.123   0.127  0.0075  0.8614  0.4848
  830MOL0     C 9453   1.662   3.183   0.005  0.1823 -0.3209 -0.2725
  830MOL0     C 9454   1.789   3.219  -0.025 -0.8948  0.6299 -0.0735
  830MOL0     C 9455   1.820   3.290  -0.144  0.1137 -0.3444 -0.8664
  830MOL0     C 9456   1.730   3.309  -0.249  0.0360 -0.3192 -0.2555
  830MOL0     C 9457   1.769   3.379  -0.379 -0.5987  0.2718 -0.3645
  830MOL0     O 9458   1.670   3.378  -0.479 -0.4457 -0.6370 -0.7886
  830MOL0     C 9459   1.697   3.441  -0.594 -0.6490  0.5115 -0.1368
  830MOL0     C 9460   1.796   3.406  -0.685  0.2963  0.0178  0.3586
  830MOL0     C 9461   1.817   3.485  -0.796 -0.5257 -0.7615 -0.0235
  830MOL0     C 9462   1.741   3.599  -0.810  0.0259  0.2336  0.1622
  830MOL0     O 9463   1.764   3.684  -0.913  0.2675  0.6011  0.9464
  830MOL0     C 9464   1.902   3.729  -0.912  0.1960 -0.1128 -0.0074
  830MOL0     C 9465   1.937   3.828  -0.799 -0.0193 -0.1700 -0.1895
  830MOL0     C 9466   1.833   3.948  -0.786 -0.0521 -0.9537  0.3806
  830MOL0     C 9467   1.812   4.020  -0.921  0.0822  0.1254  0.8105
  830MOL0     C 9468   1.719   4.137  -0.892  0.1443 -0.6851  0.0684
  830MOL0     C 9469   1.667   4.187  -1.027 -0.7343  0.3488 -0.0824
  830MOL0     C 9470   1.568   4.303  -1.009 -0.1105 -0.0488  0.1852
  830MOL0     C 9471   1.562   4.379  -1.140  1.0227 -0.5311  0.1717
  830MOL0    Cl 9472   1.409   4.470  -1.150 -0.1172  0.0348  0.5636
  830MOL0     C 9473   1.652   3.636  -0.718 -0.1632  0.8177 -0.0222
  830MOL0     C 9474   1.622   3.555  -0.610 -0.3313 -0.1562  0.7877
  830MOL0     O 9475   1.880   3.436  -0.384  0.8116 -0.2302  0.2634
  830MOL0     C 9476   1.600   3.267  -0.217  0.8143 -0.2250 -0.0694
  830MOL0     C 9477   1.564   3.212  -0.090 -0.0004  0.7267  0.6770
  830MOL0     N 9478   2.016   2.940   0.101 -0.5185 -0.2180 -0.6799
  830MOL0     N 9479   2.137   2.926   0.045 -0.1560  0.4523  0.4107
  830MOL0     C 9480   3.130   2.087   0.358 -0.1895 -1.1323  0.1760
  830MOL0     C 9481   3.221   2.019   0.439  0.2954  0.5384  0.4770
  830MOL0     C 9482   3.528   1.739   0.572 -0.3756 -0.7035  0.0640
  830MOL0     C 9483   3.653   1.699   0.524  0.2703 -0.1446 -0.1910
  830MOL0     C 9484   3.757   1.651   0.613 -0.0368  0.0827 -0.3034
  830MOL0     C 9485   3.736   1.648   0.759 -0.2503 -0.7772 -0.7789
  830MOL0     O 9486   3.823   1.614   0.860 -0.2542  0.6714  0.3942
  830MOL0     C 9487   3.948   1.544   0.826 -0.8024 -0.6243  0.4101
  830MOL0     C 9488   4.038   1.508   0.948  0.0539 -1.4270 -0.4672
  830MOL0     C 9489   4.108   1.633   1.008 -0.8991 -0.7293  0.1589
  830MOL0     C 9490   4.008   1.720   1.094  0.1499 -0.3320  0.0013
  830MOL0     C 9491   4.083   1.825   1.157  0.3504 -1.1595 -0.6010
  830MOL0     C 9492   4.154   1.916   1.190  0.4736 -0.1192  0.2927
  830MOL0     C 9493   3.610   1.692   0.800  0.9833 -0.0128 -0.1387
  830MOL0     C 9494   3.507   1.742   0.708 -0.2362 -0.5925 -0.5041
  830MOL0     H 9495   3.123   1.695   0.364 -1.7895 -1.4681 -2.7039
  830MOL0     H 9496   2.967   1.831   0.208 -2.3469  1.5155  0.4177
  830MOL0     H 9497   2.773   2.059   0.251 -0.7275 -1.4162 -0.8268
  830MOL0     H 9498   2.806   1.987   0.105 -3.5541  0.3347  0.8209
  830MOL0     H 9499   2.688   2.159   0.004 -0.8681  2.0410  0.4197
  830MOL0     H 9500   2.848   2.207  -0.009  0.0151 -2.8038 -0.4438
  830MOL0     H 9501   2.832   2.365   0.182 -0.3003  1.0741 -0.2511
  830MOL0     H 9502   2.675   2.295   0.226  0.2824 -3.5214 -1.7862
  830MOL0     H 9503   2.756   2.466  -0.019 -0.6092  2.2231  1.4395
  830MOL0     H 9504   2.602   2.375  -0.020 -2.1103 -0.8276  1.3771
  830MOL0     H 9505   2.669   2.613   0.139 -1.6527  2.0098 -3.2895
  830MOL0     H 9506   2.553   2.490   0.203 -1.3259 -3.8129 -0.6078
  830MOL0     H 9507   2.418   2.493  -0.008 -0.7885  0.3474 -2.0117
  830MOL0     H 9508   2.522   2.620  -0.067  0.5767 -2.2088 -0.8430
  830MOL0     H 9509   2.331   2.612   0.183 -0.0514 -1.4061  0.7226
  830MOL0     H 9510   2.453   2.740   0.173 -0.6361 -0.6375 -2.2581
  830MOL0     H 9511   2.277   2.670  -0.053 -1.4123  0.4812  1.3174
  830MOL0     H 9512   2.376   2.814  -0.048  1.5634 -2.4988 -2.4471
  830MOL0     H 9513   2.110   2.654   0.208  3.5394  0.2646 -1.7297
  830MOL0     H 9514   1.896   2.786   0.367  2.2998 -1.8466  0.2505
  830MOL0     H 9515   1.820   2.702   0.237 -0.7045  1.2875 -2.8697
  830MOL0     H 9516   1.803   3.004   0.257 -0.8649 -0.1855  3.2854
  830MOL0     H 9517   1.696   2.886   0.334  0.0731  0.5474  0.9328
  830MOL0     H 9518   1.749   2.898   0.032  0.8502  1.9494  1.4484
  830MOL0     H 9519   1.640   2.782   0.097  0.5668  0.1120  1.3249
  830MOL0     H 9520   1.493   2.981   0.195 -0.2439  3.7446  1.3189
  830MOL0     H 9521   1.514   2.969   0.019  0.3732 -1.6610  0.7668
  830MOL0     H 9522   1.862   3.191   0.050 -1.8923  1.1718  1.1226
  830MOL0     H 9523   1.919   3.330  -0.162  0.1835 -0.6885 -1.2425
  830MOL0     H 9524   1.850   3.312  -0.680 -0.0015 -0.5671 -4.0880
  830MOL0     H 9525   1.886   3.447  -0.870 -0.8244  0.5028 -0.9756
  830MOL0     H 9526   1.902   3.784  -1.006 -4.5383 -0.1054 -0.2196
  830MOL0     H 9527   1.969   3.648  -0.940 -0.7236 -0.4134 -1.4096
  830MOL0     H 9528   2.036   3.866  -0.827  1.2322 -2.3000  1.0265
  830MOL0     H 9529   1.933   3.771  -0.705 -4.8759 -1.1673 -0.7496
  830MOL0     H 9530   1.879   4.019  -0.716 -1.3483 -1.5482  1.9005
  830MOL0     H 9531   1.740   3.929  -0.731 -2.8338 -0.2148 -3.6416
  830MOL0     H 9532   1.906   4.045  -0.971  0.0609 -0.0212  0.6933
  830MOL0     H 9533   1.775   3.952  -0.999  0.9078 -1.3982  1.6873
  830MOL0     H 9534   1.775   4.212  -0.835  0.5639 -2.2901  1.8450
  830MOL0     H 9535   1.627   4.109  -0.839 -1.1756  3.5174  0.4461
  830MOL0     H 9536   1.611   4.106  -1.075 -0.3043  0.5458 -0.9368
  830MOL0     H 9537   1.748   4.227  -1.089 -2.2450  1.7873 -1.2099
  830MOL0     H 9538   1.471   4.264  -0.978  0.6700 -2.0301  0.3102
  830MOL0     H 9539   1.601   4.373  -0.931 -0.2114  0.0842  0.1094
  830MOL0     H 9540   1.593   4.318  -1.225  0.2630 -2.9638  1.5527
  830MOL0     H 9541   1.629   4.465  -1.147 -2.8679  2.8019  0.1859
  830MOL0     H 9542   1.589   3.717  -0.755 -1.4623 -0.5015 -0.8315
  830MOL0     H 9543   1.542   3.580  -0.541 -1.4498 -2.4838  0.4134
  830MOL0     H 9544   1.515   3.290  -0.281 -0.5555 -0.8598  1.4410
  830MOL0     H 9545   1.461   3.193  -0.062 -0.5791  1.3237 -0.9113
  830MOL0     H 9546   3.130   2.195   0.352 -2.4957 -1.1872 -2.3366
  830MOL0     H 9547   3.299   2.072   0.494  0.4295  3.7453 -2.4890
  830MOL0     H 9548   3.663   1.689   0.417 -2.6907  1.3345 -0.7013
  830MOL0     H 9549   3.852   1.622   0.569  1.0461 -1.7657  2.8725
  830MOL0     H 9550   3.998   1.613   0.757 -0.5169  1.0373  2.1993
  830MOL0     H 9551   3.938   1.458   0.759  1.1670 -0.6336  0.0817
  830MOL0     H 9552   3.980   1.452   1.022 -1.6083  0.3466 -0.3327
  830MOL0     H 9553   4.118   1.438   0.923  3.2832  2.3219 -1.7123
  830MOL0     H 9554   4.149   1.697   0.929  2.7403 -3.8500 -0.7469
  830MOL0     H 9555   4.197   1.609   1.066 -0.8775  1.4753  1.1626
  830MOL0     H 9556   3.937   1.770   1.028 -0.2236  0.3709  0.9266
  830MOL0     H 9557   3.963   1.646   1.160  1.1375 -1.0952 -0.1539
  830MOL0     H 9558   4.227   1.994   1.201 -0.3594  0.9116 -1.0976
  830MOL0     H 9559   3.592   1.685   0.907  1.4133  0.3034 -0.0419
  830MOL0     H 9560   3.418   1.783   0.755  1.7739  0.8609  2.2492
  831MOL0     O 9561   1.909   4.001   4.289 -0.0114  0.5284  0.1353
  831MOL0     C 9562   1.883   4.112   4.338 -0.1322 -1.1424  0.6504
  831MOL0     O 9563   1.974   4.208   4.365 -0.6294 -0.8359  0.0369
  831MOL0     C 9564   2.106   4.176   4.371  1.0031 -0.5961 -0.8579
  831MOL0     C 9565   2.196   4.275   4.332 -0.4442  1.1789 -0.7831
  831MOL0     C 9566   2.332   4.253   4.362 -0.1006 -0.9917  0.4835
  831MOL0     C 9567   2.378   4.146   4.432 -0.6747  0.1376  0.2572
  831MOL0     O 9568   2.508   4.136   4.486  0.4486  0.1511 -0.0227
  831MOL0     C 9569   2.616   4.155   4.395  0.5746 -0.2258 -0.4264
  831MOL0     C 9570   2.609   4.062   4.281 -0.2610  1.5021  0.1145
  831MOL0     C 9571   2.726   4.065   4.181  0.1628 -0.0066 -0.4744
  831MOL0     C 9572   2.858   4.041   4.246  0.0294  0.2053 -0.5177
  831MOL0     C 9573   2.970   4.066   4.151  0.7365 -0.1717 -0.4524
  831MOL0     C 9574   3.109   4.021   4.200 -0.2295 -0.4144 -0.0754
  831MOL0     C 9575   3.206   3.980   4.089 -0.4428 -0.2932 -0.2093
  831MOL0     C 9576   3.183   3.844   4.032 -0.0435  0.2736 -0.1501
  831MOL0     N 9577   3.292   3.810   3.937 -0.1827  0.2738  0.3580
  831MOL0     C 9578   3.308   3.680   3.902  1.3820  0.2511  0.1345
  831MOL0     C 9579   3.416   3.672   3.828  0.3012  1.0322  0.4086
  831MOL0     C 9580   3.489   3.548   3.763  0.8527 -0.1453  0.2549
  831MOL0     C 9581   3.431   3.513   3.622  0.8960 -0.1110 -0.1583
  831MOL0     C 9582   3.491   3.602   3.510  0.1132  0.5554 -0.1057
  831MOL0     C 9583   3.420   3.570   3.372  0.1677 -0.5381 -0.7128
  831MOL0     O 9584   3.471   3.441   3.338  0.5263 -0.4644 -0.3462
  831MOL0     C 9585   3.406   3.356   3.254 -0.0600  0.9732 -0.2539
  831MOL0     C 9586   3.271   3.356   3.218 -0.2679 -0.2340 -0.0235
  831MOL0     C 9587   3.214   3.262   3.137  0.5605 -1.1283  0.1280
  831MOL0     C 9588   3.290   3.154   3.090 -0.4256 -0.2915 -0.4790
  831MOL0     C 9589   3.227   3.046   3.014  0.3793 -0.4418 -0.1701
  831MOL0     O 9590   3.089   3.049   3.017  0.0328  0.5610  0.5084
  831MOL0     C 9591   3.014   2.950   2.958  0.2414 -1.0245  0.1488
  831MOL0     C 9592   3.049   2.860   2.851  0.8167  0.7218  0.2562
  831MOL0     C 9593   2.965   2.750   2.805 -0.8564  0.4442 -0.0765
  831MOL0     C 9594   2.847   2.724   2.881  0.7890 -0.4306  0.1455
  831MOL0     O 9595   2.768   2.626   2.845 -0.5803  0.2658 -0.1540
  831MOL0     C 9596   2.834   2.499   2.856 -0.2316 -0.4821  0.2659
  831MOL0     C 9597   2.745   2.391   2.780 -0.2451  0.2449  0.7183
  831MOL0     C 9598   2.610   2.377   2.854  0.7178 -0.7348  0.6320
  831MOL0     C 9599   2.530   2.276   2.770  0.3968  0.1420 -0.4362
  831MOL0     C 9600   2.404   2.218   2.827  0.3140  0.5197 -0.3919
  831MOL0     C 9601   2.414   2.166   2.970 -0.1032  0.7571 -0.1813
  831MOL0     C 9602   2.283   2.088   3.010  0.1139  0.1286 -0.0844
  831MOL0     C 9603   2.243   1.970   2.919 -0.1511 -0.3744  0.1463
  831MOL0    Cl 9604   2.078   1.911   2.936  0.6486 -0.4492 -0.7139
  831MOL0     C 9605   2.811   2.819   2.982 -0.3083 -0.6074 -0.5937
  831MOL0     C 9606   2.888   2.928   3.016 -0.6767 -0.3433  0.1920
  831MOL0     O 9607   3.297   2.977   2.942  0.4653 -0.4095 -0.2974
  831MOL0     C 9608   3.427   3.157   3.108  0.2310 -0.8630  0.3463
  831MOL0     C 9609   3.489   3.251   3.195  0.1373  0.2993  0.5335
  831MOL0     N 9610   3.477   3.796   3.811 -0.3419  0.3791  0.6625
  831MOL0     N 9611   3.398   3.877   3.880 -0.5143  0.2706  0.5779
  831MOL0     C 9612   2.284   4.045   4.475  0.1167 -0.6805 -0.1258
  831MOL0     C 9613   2.149   4.072   4.451  0.5364 -0.1279  0.5760
  831MOL0     C 9614   1.738   4.147   4.371 -0.3406 -0.3895 -0.1504
  831MOL0     C 9615   1.642   4.077   4.305  0.1393 -0.9047  0.6830
  831MOL0     C 9616   1.508   4.115   4.322  0.0327 -0.3305  1.1749
  831MOL0     C 9617   1.472   4.229   4.389  0.2124 -0.5173 -0.1012
  831MOL0     O 9618   1.340   4.261   4.387  0.0538  0.8508 -0.7541
  831MOL0     C 9619   1.291   4.359   4.465  1.6238  0.1401 -0.0981
  831MOL0     C 9620   1.143   4.336   4.473  0.0217  0.2643  0.8001
  831MOL0     C 9621   1.051   4.447   4.515  0.0409  0.0623  0.9172
  831MOL0     C 9622   0.918   4.393   4.557 -0.2916 -0.5739  0.2581
  831MOL0     C 9623   0.844   4.312   4.463 -0.1351  0.4616 -0.0724
  831MOL0     C 9624   0.770   4.253   4.387 -0.0765 -0.6247  0.4824
  831MOL0     C 9625   1.576   4.309   4.448 -0.0158 -1.0305  0.2432
  831MOL0     C 9626   1.712   4.265   4.439 -0.3027 -0.4496  0.6751
  831MOL0     H 9627   2.153   4.365   4.289 -0.2230  2.8624  2.2621
  831MOL0     H 9628   2.395   4.326   4.311 -2.5809  1.8651  1.2395
  831MOL0     H 9629   2.697   4.135   4.465  0.9636 -0.0422 -0.8193
  831MOL0     H 9630   2.628   4.257   4.358 -0.8131 -0.7813 -2.6289
  831MOL0     H 9631   2.519   4.077   4.222 -1.8978  2.5250  2.6857
  831MOL0     H 9632   2.602   3.960   4.320 -1.5509  1.9794  1.2053
  831MOL0     H 9633   2.731   4.170   4.150 -0.2060 -0.1668 -1.1081
  831MOL0     H 9634   2.708   4.010   4.088 -2.9334  1.9167 -1.1655
  831MOL0     H 9635   2.877   4.105   4.333  1.7489  0.2534 -0.8816
  831MOL0     H 9636   2.867   3.935   4.275  1.2186  0.7463  1.2656
  831MOL0     H 9637   2.974   4.173   4.131 -3.8608 -0.2197 -3.0118
  831MOL0     H 9638   2.949   4.008   4.061  0.0857 -1.4086  0.4622
  831MOL0     H 9639   3.099   3.934   4.266  2.9974 -1.6250 -0.9727
  831MOL0     H 9640   3.159   4.103   4.253  1.1852  0.4591 -2.5407
  831MOL0     H 9641   3.198   4.058   4.013 -0.6644 -0.8983 -0.8132
  831MOL0     H 9642   3.308   3.990   4.128 -0.3410 -2.9750  0.3956
  831MOL0     H 9643   3.084   3.842   3.985  0.5005  1.7126 -1.4351
  831MOL0     H 9644   3.183   3.762   4.104 -1.2442  1.3173  1.0871
  831MOL0     H 9645   3.243   3.599   3.933  3.0194 -1.6049 -1.0411
  831MOL0     H 9646   3.474   3.479   3.846 -0.2853  2.9011  2.8003
  831MOL0     H 9647   3.597   3.557   3.748  0.8999 -1.2856 -0.1691
  831MOL0     H 9648   3.323   3.523   3.638  1.2086 -0.4605  2.6968
  831MOL0     H 9649   3.456   3.407   3.609 -2.7225 -1.4491  2.2905
  831MOL0     H 9650   3.483   3.709   3.531  0.2437 -0.0144  3.4436
  831MOL0     H 9651   3.597   3.580   3.494 -0.5866 -0.7474 -4.3002
  831MOL0     H 9652   3.463   3.643   3.302  0.4293 -0.3029 -0.3152
  831MOL0     H 9653   3.313   3.585   3.362  0.6972  2.9428 -2.5919
  831MOL0     H 9654   3.205   3.433   3.259 -2.7514 -1.9491 -0.5417
  831MOL0     H 9655   3.108   3.280   3.129  0.7666  2.6345  2.8864
  831MOL0     H 9656   3.138   2.882   2.793  0.6743 -0.8753 -0.5989
  831MOL0     H 9657   2.996   2.699   2.715 -0.5474 -0.8415  0.7342
  831MOL0     H 9658   2.850   2.471   2.960 -1.0875  3.6201  1.6608
  831MOL0     H 9659   2.940   2.494   2.830 -0.0926  0.4305  0.6427
  831MOL0     H 9660   2.793   2.293   2.792 -1.6391 -1.4506 -4.6470
  831MOL0     H 9661   2.740   2.416   2.674  0.4475 -1.9156  0.1259
  831MOL0     H 9662   2.565   2.477   2.852  1.3957 -0.4123 -2.0711
  831MOL0     H 9663   2.616   2.338   2.956 -0.8635  0.9905  1.4451
  831MOL0     H 9664   2.504   2.322   2.675 -0.8784  1.0923  0.3463
  831MOL0     H 9665   2.606   2.198   2.757  1.7247  1.4949 -0.9815
  831MOL0     H 9666   2.378   2.137   2.757  1.9113  0.0128 -0.4348
  831MOL0     H 9667   2.325   2.294   2.825  0.7575  0.9852 -0.4017
  831MOL0     H 9668   2.432   2.247   3.042  0.3419  0.4122  0.1026
  831MOL0     H 9669   2.503   2.104   2.984  1.5552  3.0918  0.1598
  831MOL0     H 9670   2.280   2.047   3.112 -0.5410 -2.5145 -1.0702
  831MOL0     H 9671   2.197   2.155   3.005  2.2591  3.0175 -0.2445
  831MOL0     H 9672   2.313   1.888   2.934 -1.0034 -1.7069 -2.4289
  831MOL0     H 9673   2.233   2.001   2.814 -3.8415 -2.1522 -0.2097
  831MOL0     H 9674   2.717   2.808   3.034 -1.3756  2.7461 -1.5358
  831MOL0     H 9675   2.865   2.983   3.107 -1.4804  0.2579 -0.3589
  831MOL0     H 9676   3.492   3.085   3.058  1.7839 -0.5212  1.7712
  831MOL0     H 9677   3.596   3.252   3.214  0.4182  3.9532 -0.4202
  831MOL0     H 9678   2.320   3.954   4.523  0.8773 -0.2375  0.1703
  831MOL0     H 9679   2.079   4.002   4.495  1.1044 -0.5583  0.7987
  831MOL0     H 9680   1.677   3.990   4.250  1.3707 -0.9743  1.5599
  831MOL0     H 9681   1.428   4.084   4.256 -0.3321  2.1466  0.3418
  831MOL0     H 9682   1.307   4.459   4.423  1.6891 -0.8730 -2.6985
  831MOL0     H 9683   1.326   4.362   4.568 -0.6641 -3.1658  0.9467
  831MOL0     H 9684   1.105   4.314   4.373  0.3903  0.8591  0.5213
  831MOL0     H 9685   1.121   4.254   4.541 -1.0480  0.4871  0.7442
  831MOL0     H 9686   1.031   4.517   4.433 -1.3850 -1.5916 -0.2230
  831MOL0     H 9687   1.085   4.495   4.607  1.1488  1.7225 -0.2996
  831MOL0     H 9688   0.934   4.336   4.649  2.7981 -1.5556 -0.7900
  831MOL0     H 9689   0.860   4.481   4.587  1.1024  0.7097 -0.6735
  831MOL0     H 9690   0.710   4.205   4.313  2.8987 -2.2792 -1.0528
  831MOL0     H 9691   1.552   4.400   4.501  1.9011 -1.4202  1.8951
  831MOL0     H 9692   1.786   4.324   4.493 -1.6894  1.4184  0.6305
  832MOL0     O 9693   9.128   9.146   2.385 -0.7163  0.4824  0.5896
  832MOL0     C 9694   9.098   9.161   2.500  0.5627  0.0160  0.0859
  832MOL0     O 9695   9.179   9.218   2.591  0.3659 -0.5477  0.2698
  832MOL0     C 9696   9.316   9.202   2.572  0.5829 -0.4884  0.0066
  832MOL0     C 9697   9.391   9.147   2.679 -0.2705 -0.0409  0.9585
  832MOL0     C 9698   9.533   9.143   2.665  0.0371 -0.3032 -0.1022
  832MOL0     C 9699   9.601   9.189   2.558  0.4132 -0.1412 -0.0682
  832MOL0     O 9700   9.736   9.164   2.543  0.0169 -0.5861 -0.7232
  832MOL0     C 9701   9.753   9.046   2.459 -1.1223 -0.5010  0.1325
  832MOL0     C 9702   9.894   9.018   2.433 -0.2043  0.2491 -0.7814
  832MOL0     C 9703   9.981   9.007   2.562  0.3889 -1.1191 -0.1579
  832MOL0     C 9704   9.947   8.894   2.663  0.1435  1.0532  0.3963
  832MOL0     C 9705  10.069   8.833   2.717 -0.7716  0.9216 -0.5990
  832MOL0     C 9706  10.058   8.746   2.852 -0.3653  1.1780  0.3915
  832MOL0     C 9707   9.970   8.623   2.845  0.6084  0.0828  0.7214
  832MOL0     C 9708   9.986   8.540   2.713  0.3133 -0.6275  0.3457
  832MOL0     N 9709   9.897   8.421   2.720  0.1730 -0.0591 -0.5185
  832MOL0     C 9710   9.774   8.412   2.785 -0.6033 -0.6678  0.6377
  832MOL0     C 9711   9.729   8.284   2.777 -0.0523  0.4853 -0.2255
  832MOL0     C 9712   9.592   8.236   2.820 -0.7529 -0.8815  0.0918
  832MOL0     C 9713   9.553   8.108   2.754  0.1268 -0.8551  0.2320
  832MOL0     C 9714   9.416   8.072   2.784  0.0107 -0.1881  0.7170
  832MOL0     C 9715   9.384   7.921   2.767 -0.3673 -0.3103  0.9517
  832MOL0     O 9716   9.386   7.880   2.626  0.1804 -0.0088  0.1544
  832MOL0     C 9717   9.271   7.833   2.577 -0.0550  0.0360  0.7779
  832MOL0     C 9718   9.171   7.765   2.649 -0.1970  0.2381  0.1406
  832MOL0     C 9719   9.041   7.749   2.597 -0.2541  0.6319  0.9091
  832MOL0     C 9720   9.013   7.787   2.462 -0.8827  1.2506  0.5695
  832MOL0     C 9721   8.869   7.771   2.414 -0.7924  0.6987  0.7710
  832MOL0     O 9722   8.837   7.843   2.304 -0.2653 -0.1683 -0.3512
  832MOL0     C 9723   8.711   7.836   2.246  0.1429 -0.4167  0.0230
  832MOL0     C 9724   8.691   7.888   2.120  0.0912  0.4800 -1.2951
  832MOL0     C 9725   8.566   7.897   2.065  0.0640 -0.5180 -0.6839
  832MOL0     C 9726   8.446   7.854   2.123 -0.0633 -0.6048  0.3829
  832MOL0     O 9727   8.326   7.870   2.058 -0.3040 -0.0121 -1.0980
  832MOL0     C 9728   8.228   7.762   2.077 -0.8114 -0.3318  0.3276
  832MOL0     C 9729   8.120   7.790   1.971 -0.1107 -1.0368 -0.2033
  832MOL0     C 9730   7.994   7.720   1.990 -0.2885  0.6959  1.2464
  832MOL0     C 9731   7.876   7.756   1.893 -0.5924 -1.4488  0.4281
  832MOL0     C 9732   7.768   7.657   1.924 -0.0251 -0.0201 -0.2143
  832MOL0     C 9733   7.633   7.709   1.868  0.5286 -0.2201 -0.4328
  832MOL0     C 9734   7.525   7.606   1.885  0.5207  0.4231  0.4403
  832MOL0     C 9735   7.383   7.662   1.893  0.5525 -0.3819  0.3418
  832MOL0    Cl 9736   7.240   7.569   1.961 -0.7670 -0.1251  0.5037
  832MOL0     C 9737   8.469   7.803   2.251 -0.7373 -0.1263  0.1679
  832MOL0     C 9738   8.593   7.794   2.319  0.2453 -0.1248  0.6301
  832MOL0     O 9739   8.797   7.691   2.480  0.0496 -0.0515  0.9109
  832MOL0     C 9740   9.116   7.842   2.386 -0.0124 -0.8201  0.6707
  832MOL0     C 9741   9.240   7.876   2.449 -0.4631  1.1110 -1.0243
  832MOL0     N 9742   9.830   8.214   2.704 -0.2049  0.6427 -0.0919
  832MOL0     N 9743   9.931   8.297   2.680 -0.1500  0.3711 -0.3228
  832MOL0     C 9744   9.526   9.261   2.457  0.7392  0.1302 -0.3340
  832MOL0     C 9745   9.387   9.266   2.460 -1.3240  0.3821  0.0700
  832MOL0     C 9746   8.963   9.116   2.544 -0.2249 -0.0746  0.6332
  832MOL0     C 9747   8.888   9.028   2.460 -0.7438 -0.1088 -0.5039
  832MOL0     C 9748   8.770   8.970   2.511  0.6104 -0.3375 -0.1245
  832MOL0     C 9749   8.714   9.022   2.630  0.4174  0.3049 -0.3747
  832MOL0     O 9750   8.590   8.985   2.685 -0.7483 -0.1498  0.0709
  832MOL0     C 9751   8.494   8.910   2.604 -0.1608  0.3621 -1.1705
  832MOL0     C 9752   8.451   8.996   2.485  0.2857  0.1004  0.0495
  832MOL0     C 9753   8.374   9.131   2.513  0.1300 -0.7206 -0.5831
  832MOL0     C 9754   8.463   9.251   2.538 -0.5093  0.4435  0.2865
  832MOL0     C 9755   8.554   9.272   2.424 -0.4351 -0.0469 -0.6044
  832MOL0     C 9756   8.594   9.303   2.314 -0.0937  0.0733  0.2034
  832MOL0     C 9757   8.777   9.121   2.708  0.8156  0.3371  0.1680
  832MOL0     C 9758   8.902   9.165   2.664  0.2235  0.9438  0.4761
  832MOL0     H 9759   9.339   9.114   2.768 -0.5767 -0.0153  0.7915
  832MOL0     H 9760   9.593   9.097   2.743 -0.5393  0.3762  0.7539
  832MOL0     H 9761   9.693   9.054   2.368 -1.1450  0.9258  0.2473
  832MOL0     H 9762   9.722   8.955   2.511  2.2423  0.2689  4.0611
  832MOL0     H 9763   9.927   9.101   2.369  0.4222 -1.3990 -2.7110
  832MOL0     H 9764   9.920   8.921   2.391  2.6978  0.2157  0.8410
  832MOL0     H 9765   9.975   9.106   2.608 -4.9197 -0.4691 -1.5210
  832MOL0     H 9766  10.082   8.998   2.523  1.1149  0.0747  1.3536
  832MOL0     H 9767   9.904   8.937   2.754 -1.2721 -1.7855  1.1786
  832MOL0     H 9768   9.871   8.823   2.629  1.5545 -0.0497 -0.5465
  832MOL0     H 9769  10.138   8.913   2.742  0.5554 -0.0762 -0.9685
  832MOL0     H 9770  10.105   8.768   2.636  2.5130 -2.5010  3.1641
  832MOL0     H 9771  10.039   8.804   2.943  3.8258  1.4286  1.3044
  832MOL0     H 9772  10.160   8.711   2.866  0.5567  4.0108  1.5357
  832MOL0     H 9773   9.998   8.548   2.920  0.7002  0.4936  1.0989
  832MOL0     H 9774   9.868   8.662   2.859  0.9822  3.3339 -3.6723
  832MOL0     H 9775  10.091   8.516   2.695  1.5880  3.0517  1.9130
  832MOL0     H 9776   9.970   8.591   2.618  3.9837  1.7679  0.8047
  832MOL0     H 9777   9.709   8.490   2.823 -0.2984  0.1774 -0.5211
  832MOL0     H 9778   9.517   8.314   2.810 -0.1200 -0.0557  1.4292
  832MOL0     H 9779   9.600   8.226   2.929 -4.2281 -1.1518  0.4189
  832MOL0     H 9780   9.618   8.023   2.772  2.2353  0.1013 -2.2022
  832MOL0     H 9781   9.552   8.129   2.646  1.0591  1.1206  0.5679
  832MOL0     H 9782   9.403   8.099   2.889  1.6968 -1.6307  1.3441
  832MOL0     H 9783   9.352   8.130   2.716  0.8271 -1.0386 -0.8353
  832MOL0     H 9784   9.295   7.897   2.826 -0.4494 -1.3489  0.4417
  832MOL0     H 9785   9.458   7.857   2.816  0.1910 -1.8222 -1.6599
  832MOL0     H 9786   9.199   7.735   2.750  0.3994 -0.1134 -0.1214
  832MOL0     H 9787   8.963   7.709   2.660  0.0925  0.4292  1.2186
  832MOL0     H 9788   8.775   7.934   2.069 -1.0965  2.8547 -1.2773
  832MOL0     H 9789   8.564   7.925   1.960  0.5533 -1.9866 -1.1138
  832MOL0     H 9790   8.186   7.764   2.178  2.0637  0.4132  1.6082
  832MOL0     H 9791   8.281   7.672   2.044 -1.7540 -0.5713 -0.5979
  832MOL0     H 9792   8.163   7.773   1.872  0.5035 -0.8270  0.0213
  832MOL0     H 9793   8.090   7.896   1.977  0.4373 -0.8958  0.0766
  832MOL0     H 9794   7.967   7.729   2.096 -1.0493  1.0583  1.0282
  832MOL0     H 9795   8.008   7.612   1.976 -3.6041  0.2390  0.6217
  832MOL0     H 9796   7.856   7.863   1.907  2.7741 -1.0100  3.7796
  832MOL0     H 9797   7.902   7.749   1.787 -3.0607  1.1083 -0.4813
  832MOL0     H 9798   7.754   7.654   2.032 -0.2529 -1.1870 -0.2730
  832MOL0     H 9799   7.800   7.566   1.873  0.0130 -0.3857  0.4602
  832MOL0     H 9800   7.647   7.743   1.765  3.8117  0.1309  0.0372
  832MOL0     H 9801   7.603   7.798   1.925  2.8234  1.6294 -1.9658
  832MOL0     H 9802   7.530   7.541   1.797  2.1218 -0.4361  1.1245
  832MOL0     H 9803   7.542   7.548   1.976  1.4042  3.2445  2.1855
  832MOL0     H 9804   7.360   7.684   1.789  0.0408  0.5145  0.6368
  832MOL0     H 9805   7.378   7.756   1.949 -0.2012 -1.2257  1.7734
  832MOL0     H 9806   8.381   7.755   2.292 -0.4673 -2.2564 -1.5717
  832MOL0     H 9807   8.587   7.745   2.416 -0.9759 -0.5578  0.3569
  832MOL0     H 9808   9.104   7.878   2.284  0.1885 -0.2123  0.8567
  832MOL0     H 9809   9.308   7.938   2.391 -1.4662  1.9104 -1.3841
  832MOL0     H 9810   9.582   9.300   2.373  1.0289 -0.5549 -0.4606
  832MOL0     H 9811   9.351   9.326   2.377  2.1983  3.6557  0.5982
  832MOL0     H 9812   8.928   8.992   2.365  3.5564 -1.2181  1.4612
  832MOL0     H 9813   8.719   8.893   2.454  1.2882 -1.3723  0.6283
  832MOL0     H 9814   8.398   8.901   2.656  0.2597  0.7063 -0.3013
  832MOL0     H 9815   8.528   8.812   2.571 -0.4530  0.0771 -0.6494
  832MOL0     H 9816   8.533   9.006   2.413  0.2200 -1.4810 -0.2809
  832MOL0     H 9817   8.388   8.922   2.434  2.1403 -2.5027  1.2924
  832MOL0     H 9818   8.307   9.116   2.598  0.5206  1.8772  0.2767
  832MOL0     H 9819   8.313   9.160   2.426  2.9754  1.8710 -1.9312
  832MOL0     H 9820   8.409   9.342   2.566  2.9000  2.6561  0.2441
  832MOL0     H 9821   8.515   9.238   2.634 -1.1314  1.7868  0.8421
  832MOL0     H 9822   8.634   9.344   2.223 -0.0640 -1.3026 -0.4313
  832MOL0     H 9823   8.729   9.165   2.795  1.7128  2.4204 -0.3123
  832MOL0     H 9824   8.957   9.221   2.738  1.5482  0.4107 -0.0657
  833MOL0     O 9825   1.431   4.496   5.500 -0.0695 -0.2802  0.3637
  833MOL0     C 9826   1.352   4.471   5.408  0.2403  0.5295  0.2773
  833MOL0     O 9827   1.255   4.550   5.354  0.0587  0.7855  0.4867
  833MOL0     C 9828   1.218   4.665   5.412  0.2999  0.2803  0.1512
  833MOL0     C 9829   1.291   4.775   5.383  0.5606  0.5032  1.1650
  833MOL0     C 9830   1.251   4.902   5.436  0.2555 -0.3359 -0.4185
  833MOL0     C 9831   1.136   4.921   5.503  0.1034 -0.4055 -0.4033
  833MOL0     O 9832   1.098   5.041   5.549 -0.1007 -0.0886  0.1041
  833MOL0     C 9833   1.178   5.122   5.627 -0.1415  0.2484  0.9454
  833MOL0     C 9834   1.094   5.249   5.664  0.4484  0.1647 -0.0861
  833MOL0     C 9835   1.002   5.304   5.558 -0.0794 -0.1373 -0.1505
  833MOL0     C 9836   0.859   5.240   5.564 -0.4730  0.8818 -0.2859
  833MOL0     C 9837   0.751   5.306   5.481  0.1165 -0.8328  0.8044
  833MOL0     C 9838   0.617   5.237   5.486 -0.7819  0.1088  1.0308
  833MOL0     C 9839   0.530   5.298   5.376  0.5654 -0.2485 -0.3542
  833MOL0     C 9840   0.454   5.423   5.429 -0.3986 -0.0034 -0.6949
  833MOL0     N 9841   0.345   5.448   5.343  0.1044 -0.4858 -0.9919
  833MOL0     C 9842   0.216   5.428   5.383  0.7827  0.3937  0.9524
  833MOL0     C 9843   0.145   5.488   5.281  0.6185 -0.0325 -0.3104
  833MOL0     C 9844   0.001   5.474   5.283  1.6759  0.7285  0.3034
  833MOL0     C 9845  -0.068   5.591   5.340  0.4444 -0.4174 -1.1022
  833MOL0     C 9846  -0.221   5.570   5.364  0.3968  0.6575  0.1675
  833MOL0     C 9847  -0.294   5.692   5.412  0.1069 -0.8032  0.6330
  833MOL0     O 9848  -0.421   5.634   5.461 -0.0485  0.4122  0.2807
  833MOL0     C 9849  -0.542   5.663   5.390 -0.1663  1.0019  0.5573
  833MOL0     C 9850  -0.561   5.698   5.259 -0.6348  0.2428 -0.5820
  833MOL0     C 9851  -0.685   5.725   5.200 -0.5447 -0.7203 -1.3696
  833MOL0     C 9852  -0.802   5.693   5.280 -0.4423  0.9126  0.8466
  833MOL0     C 9853  -0.934   5.727   5.225 -0.2716  0.1111 -0.2449
  833MOL0     O 9854  -1.046   5.691   5.296  0.2278  0.4736  0.6706
  833MOL0     C 9855  -1.166   5.697   5.216 -0.8933 -0.4057 -0.3651
  833MOL0     C 9856  -1.219   5.817   5.188 -0.4306  0.2905  0.6923
  833MOL0     C 9857  -1.334   5.821   5.110  0.0682 -0.0866  0.5061
  833MOL0     C 9858  -1.402   5.707   5.058 -0.4504 -1.1909 -1.2780
  833MOL0     O 9859  -1.517   5.703   4.983  0.1200  0.4232  0.1137
  833MOL0     C 9860  -1.617   5.809   5.007 -0.3059  0.0077 -0.1264
  833MOL0     C 9861  -1.753   5.766   4.942  0.1934  0.2252  0.2841
  833MOL0     C 9862  -1.874   5.858   4.979 -1.1727  0.0080 -0.3167
  833MOL0     C 9863  -1.995   5.819   4.906  0.5643  0.6424 -0.0058
  833MOL0     C 9864  -2.130   5.844   4.986  0.2880 -0.8257  0.8803
  833MOL0     C 9865  -2.250   5.910   4.909  0.2248  0.4142 -0.0597
  833MOL0     C 9866  -2.297   5.835   4.789 -0.6846 -0.1258 -0.9639
  833MOL0     C 9867  -2.325   5.683   4.829 -0.3412  0.1165  1.6036
  833MOL0    Cl 9868  -2.466   5.667   4.940 -0.1097 -0.0309 -0.0392
  833MOL0     C 9869  -1.341   5.581   5.083 -0.3902  0.8001  0.3328
  833MOL0     C 9870  -1.227   5.578   5.170 -0.1614  0.0943 -0.1689
  833MOL0     O 9871  -0.929   5.793   5.118 -0.6112  0.4377  0.0214
  833MOL0     C 9872  -0.779   5.651   5.413  0.1735 -0.4958  0.4655
  833MOL0     C 9873  -0.656   5.636   5.467 -0.4853  0.0994 -0.2144
  833MOL0     N 9874   0.232   5.520   5.179  0.4186 -0.3835  0.1151
  833MOL0     N 9875   0.355   5.493   5.212  0.4333 -0.2918 -1.0288
  833MOL0     C 9876   1.052   4.810   5.520 -0.3040 -0.3080 -0.3233
  833MOL0     C 9877   1.091   4.682   5.465 -0.6656  1.5832 -0.0108
  833MOL0     C 9878   1.359   4.333   5.345 -0.3743  0.5757  0.2634
  833MOL0     C 9879   1.262   4.294   5.250  0.1961 -0.4305 -0.0169
  833MOL0     C 9880   1.269   4.166   5.195  0.6687 -0.1070  0.7730
  833MOL0     C 9881   1.382   4.083   5.221  0.2507 -0.5789  0.7782
  833MOL0     O 9882   1.384   3.962   5.164  0.9026  0.4324  0.6792
  833MOL0     C 9883   1.503   3.892   5.143  0.0500  0.8203  0.5721
  833MOL0     C 9884   1.492   3.808   5.018 -0.4860  0.8128  0.3031
  833MOL0     C 9885   1.425   3.685   5.049 -0.2958  0.7526  0.8299
  833MOL0     C 9886   1.412   3.590   4.923 -0.3427 -1.4501 -0.7253
  833MOL0     C 9887   1.312   3.652   4.830  0.7027 -0.3897  0.0746
  833MOL0     C 9888   1.238   3.704   4.751 -0.5726 -0.2875  0.0659
  833MOL0     C 9889   1.474   4.120   5.316 -0.3534 -0.2804  1.1215
  833MOL0     C 9890   1.467   4.245   5.377  0.5412  0.0186 -0.3966
  833MOL0     H 9891   1.382   4.761   5.325 -1.0544 -2.0480 -0.9724
  833MOL0     H 9892   1.305   4.988   5.399  1.5251 -2.0244 -2.8133
  833MOL0     H 9893   1.279   5.151   5.597 -0.4363  0.6241  0.2981
  833MOL0     H 9894   1.191   5.055   5.713 -0.1561 -0.7509  0.1853
  833MOL0     H 9895   1.159   5.336   5.677 -0.4951  0.8236  0.3685
  833MOL0     H 9896   1.034   5.236   5.755 -0.5508  1.9351 -0.4373
  833MOL0     H 9897   1.042   5.296   5.457 -2.6091 -1.4946 -1.1143
  833MOL0     H 9898   0.992   5.412   5.576  2.1664  0.0098  0.5621
  833MOL0     H 9899   0.868   5.138   5.525  5.1229  0.9441  0.1358
  833MOL0     H 9900   0.823   5.238   5.668  4.1112 -0.0719  1.5474
  833MOL0     H 9901   0.784   5.318   5.378 -1.4883 -1.0839  0.2230
  833MOL0     H 9902   0.741   5.412   5.507  0.2192  0.7149 -4.4226
  833MOL0     H 9903   0.561   5.240   5.580 -1.3781 -0.3699  0.6915
  833MOL0     H 9904   0.633   5.130   5.472 -0.6241 -0.0054  1.9854
  833MOL0     H 9905   0.584   5.326   5.286 -0.7678  1.6697 -0.6157
  833MOL0     H 9906   0.460   5.223   5.338 -0.6364  0.2697  0.7374
  833MOL0     H 9907   0.522   5.509   5.440  0.7891 -0.9694 -0.2314
  833MOL0     H 9908   0.408   5.396   5.524 -1.8459  0.5799 -1.2113
  833MOL0     H 9909   0.180   5.387   5.476  1.2464 -1.7798  0.2290
  833MOL0     H 9910  -0.028   5.386   5.341 -0.1856 -0.3555 -2.1070
  833MOL0     H 9911  -0.031   5.449   5.182  0.0240  0.5242  0.8397
  833MOL0     H 9912  -0.048   5.674   5.270 -3.5419 -0.0296 -2.0347
  833MOL0     H 9913  -0.018   5.604   5.436  0.8804  0.9470 -1.4777
  833MOL0     H 9914  -0.271   5.529   5.275 -1.0328 -2.4926  2.2350
  833MOL0     H 9915  -0.221   5.491   5.440  1.9674  1.6816  1.2813
  833MOL0     H 9916  -0.303   5.768   5.333  1.7402  0.3904  1.5397
  833MOL0     H 9917  -0.254   5.738   5.502  0.2523  2.3900 -0.9204
  833MOL0     H 9918  -0.466   5.709   5.207 -0.8400  0.5767 -0.8879
  833MOL0     H 9919  -0.686   5.766   5.099 -0.2928  0.3385 -0.9497
  833MOL0     H 9920  -1.169   5.904   5.229  1.4717 -1.8851  3.3717
  833MOL0     H 9921  -1.374   5.922   5.105  2.7648  1.0776  0.6519
  833MOL0     H 9922  -1.597   5.903   4.954 -1.9900 -1.7427 -4.2318
  833MOL0     H 9923  -1.633   5.817   5.115 -2.4229  0.6009 -0.4459
  833MOL0     H 9924  -1.776   5.666   4.979 -2.7166  0.9537  0.7615
  833MOL0     H 9925  -1.745   5.769   4.833  3.0009 -3.3383  0.2305
  833MOL0     H 9926  -1.859   5.951   4.925  0.7894 -1.8987 -3.3627
  833MOL0     H 9927  -1.890   5.864   5.087 -1.3514  2.8759 -0.4411
  833MOL0     H 9928  -2.007   5.882   4.817 -3.4962 -1.0245 -0.8450
  833MOL0     H 9929  -1.980   5.714   4.880  1.7306  0.5247  1.0629
  833MOL0     H 9930  -2.102   5.916   5.064  1.4462 -1.5640  1.1737
  833MOL0     H 9931  -2.162   5.758   5.045 -0.8582 -0.2066  1.1935
  833MOL0     H 9932  -2.216   6.008   4.876 -0.1106  0.6190  0.1961
  833MOL0     H 9933  -2.335   5.915   4.978  1.9468  1.1395  2.1153
  833MOL0     H 9934  -2.390   5.880   4.753 -1.0809  1.7552  2.1056
  833MOL0     H 9935  -2.218   5.841   4.713 -1.8047  0.8171 -2.1097
  833MOL0     H 9936  -2.242   5.622   4.868 -0.0928  0.5436  1.7549
  833MOL0     H 9937  -2.358   5.636   4.736 -0.1203  2.9510 -0.0247
  833MOL0     H 9938  -1.402   5.492   5.070  0.5820 -0.2197  2.2055
  833MOL0     H 9939  -1.175   5.489   5.204  2.1573  1.4978  0.1602
  833MOL0     H 9940  -0.870   5.645   5.471 -0.9302  0.0021 -1.1542
  833MOL0     H 9941  -0.651   5.612   5.572 -1.3000  0.3019 -0.1230
  833MOL0     H 9942   0.955   4.827   5.567 -0.4951 -0.5363 -0.6291
  833MOL0     H 9943   1.016   4.605   5.487  2.2723 -1.8282 -1.0017
  833MOL0     H 9944   1.177   4.360   5.243 -0.0354 -0.5465  1.5298
  833MOL0     H 9945   1.195   4.128   5.125  0.3192 -1.2704  1.7346
  833MOL0     H 9946   1.525   3.829   5.230 -2.0332 -0.3392  0.3255
  833MOL0     H 9947   1.583   3.962   5.119  0.8099  0.6818  2.4827
  833MOL0     H 9948   1.432   3.861   4.943 -1.3870 -1.6118 -0.7809
  833MOL0     H 9949   1.596   3.799   4.985 -0.6162 -0.1321  0.1175
  833MOL0     H 9950   1.330   3.697   5.104  0.9996 -1.8491  3.9891
  833MOL0     H 9951   1.491   3.642   5.125  0.5341  1.1119  0.3298
  833MOL0     H 9952   1.508   3.572   4.875  1.1256  0.6021  1.2468
  833MOL0     H 9953   1.363   3.497   4.954 -0.4450 -1.1606  0.0006
  833MOL0     H 9954   1.189   3.757   4.672  4.1006  2.5303 -1.3782
  833MOL0     H 9955   1.550   4.047   5.342  2.1664  3.1820  4.5873
  833MOL0     H 9956   1.522   4.272   5.466 -1.8247 -0.7733  1.4159
  834MOL0     O 9957  10.807   0.024   3.840 -0.3414 -0.0158  0.1398
  834MOL0     C 9958  10.906   0.090   3.826  0.0859 -0.0868 -0.5383
  834MOL0     O 9959  11.033   0.065   3.872  0.1786 -0.3170 -0.3406
  834MOL0     C 9960  11.051  -0.017   3.980  0.1199 -0.0205  0.3529
  834MOL0     C 9961  11.031  -0.158   3.972  0.4831 -0.1172  0.1334
  834MOL0     C 9962  11.073  -0.252   4.061 -0.4095 -0.2840  0.5380
  834MOL0     C 9963  11.117  -0.202   4.184 -0.1598  0.2915  0.4293
  834MOL0     O 9964  11.144  -0.287   4.290  0.0017  0.4956  0.1210
  834MOL0     C 9965  11.031  -0.354   4.344 -0.2191 -0.2262  0.4310
  834MOL0     C 9966  11.023  -0.343   4.500 -0.1922  0.5133 -0.2650
  834MOL0     C 9967  10.949  -0.222   4.550  0.2989 -0.0011  0.6702
  834MOL0     C 9968  10.923  -0.227   4.706 -0.6083 -0.4077  0.9007
  834MOL0     C 9969  10.867  -0.099   4.767 -0.2903  0.3919 -0.2257
  834MOL0     C 9970  10.717  -0.104   4.752  0.3087  0.4856 -0.4489
  834MOL0     C 9971  10.635   0.016   4.813 -0.9960 -0.5968  0.0338
  834MOL0     C 9972  10.664   0.028   4.961 -0.6249  0.6289  0.4262
  834MOL0     N 9973  10.555   0.097   5.034  0.5172 -0.0511 -0.5621
  834MOL0     C 9974  10.420   0.125   4.998  0.5201 -0.2287  0.1118
  834MOL0     C 9975  10.364   0.171   5.111 -0.4803  0.4371 -0.0356
  834MOL0     C 9976  10.232   0.230   5.140 -0.2944  1.6655  0.1770
  834MOL0     C 9977  10.126   0.120   5.177 -0.4493 -0.5647 -0.0531
  834MOL0     C 9978   9.994   0.198   5.207 -0.1811 -0.7461  0.6225
  834MOL0     C 9979   9.870   0.117   5.248  0.9860  0.7482  0.8345
  834MOL0     O 9980   9.781   0.201   5.324 -0.1708 -0.4698  0.0266
  834MOL0     C 9981   9.662   0.238   5.276  0.1709  0.4369  0.2568
  834MOL0     C 9982   9.636   0.378   5.273  0.3575  0.3697  0.2600
  834MOL0     C 9983   9.503   0.426   5.244  0.1560 -0.2109 -0.5394
  834MOL0     C 9984   9.402   0.331   5.215 -0.2084 -1.0575  0.5742
  834MOL0     C 9985   9.264   0.384   5.197  0.1967  0.4439 -0.6214
  834MOL0     O 9986   9.220   0.488   5.268 -0.0236  0.2168  0.1678
  834MOL0     C 9987   9.092   0.528   5.260  0.3968 -0.7472  1.2409
  834MOL0     C 9988   9.017   0.551   5.152  0.7294 -0.1362  0.2569
  834MOL0     C 9989   8.881   0.595   5.154 -0.7190 -0.0805  0.1586
  834MOL0     C 9990   8.822   0.620   5.284 -0.0616 -0.0036 -0.0993
  834MOL0     O 9991   8.702   0.671   5.296  0.2314 -0.0953 -0.4814
  834MOL0     C 9992   8.695   0.816   5.297 -0.1131  0.6629  0.1677
  834MOL0     C 9993   8.563   0.873   5.349  0.4044  0.4285 -0.1322
  834MOL0     C 9994   8.507   0.828   5.493  0.0935 -0.2259  0.0471
  834MOL0     C 9995   8.368   0.893   5.518 -0.5605 -0.0689 -0.2724
  834MOL0     C 9996   8.319   0.856   5.654 -0.5210  0.3641 -0.3611
  834MOL0     C 9997   8.173   0.920   5.680  0.3189  0.1947  1.3728
  834MOL0     C 9998   8.130   0.928   5.821  0.4956 -0.1388 -0.5631
  834MOL0     C 9999   8.193   1.043   5.896 -0.6368  0.2055 -0.5007
  834MOL0    Cl10000   8.190   1.021   6.064  0.2560 -0.2708 -0.0847
  834MOL0     C10001   8.897   0.596   5.396 -0.9025 -0.1492  0.6689
  834MOL0     C10002   9.033   0.556   5.386 -0.5735  0.4800  0.2324
  834MOL0     O10003   9.194   0.304   5.138 -0.2665 -0.2346  0.1143
  834MOL0     C10004   9.434   0.196   5.217 -0.9726  0.6288 -0.0463
  834MOL0     C10005   9.560   0.147   5.240  0.0205  0.1145  0.4557
  834MOL0     N10006  10.446   0.149   5.213 -0.6055 -0.2323 -0.5124
  834MOL0     N10007  10.558   0.106   5.171 -0.3735 -0.1081 -0.1289
  834MOL0     C10008  11.135  -0.066   4.196 -0.0052 -0.4990  0.1503
  834MOL0     C10009  11.115   0.027   4.094  0.1770  0.6117 -0.2554
  834MOL0     C10010  10.882   0.220   3.763  0.1187  0.4533  0.9058
  834MOL0     C10011  10.986   0.320   3.769 -0.4589  0.1335 -1.1374
  834MOL0     C10012  10.966   0.448   3.709 -0.3626  0.5341 -0.0579
  834MOL0     C10013  10.845   0.477   3.654  0.6347 -0.4306  0.1032
  834MOL0     O10014  10.812   0.603   3.609  0.8294 -0.5062 -0.0882
  834MOL0     C10015  10.896   0.668   3.518 -0.6476  0.0054 -0.6550
  834MOL0     C10016  10.982   0.773   3.579  1.0224 -0.1380 -0.7921
  834MOL0     C10017  10.898   0.884   3.638  0.1650  0.0016 -0.5703
  834MOL0     C10018  10.927   1.028   3.594  0.7685  0.9119  0.5556
  834MOL0     C10019  10.912   1.047   3.443 -0.1264  0.2029  0.1443
  834MOL0     C10020  10.914   1.063   3.327 -1.0840  0.5309  0.4651
  834MOL0     C10021  10.742   0.384   3.661  0.0101  0.1004  0.2030
  834MOL0     C10022  10.767   0.253   3.706  0.0204  0.6668 -0.9694
  834MOL0     H10023  10.981  -0.203   3.887 -0.9663 -2.4233  2.0866
  834MOL0     H10024  11.089  -0.357   4.043  2.0664  0.3615 -1.6970
  834MOL0     H10025  11.033  -0.460   4.316  0.6480 -0.1186  0.0607
  834MOL0     H10026  10.939  -0.318   4.296 -0.5066 -3.4458 -1.8270
  834MOL0     H10027  11.127  -0.353   4.534 -1.1183 -1.4054  2.3056
  834MOL0     H10028  10.975  -0.436   4.530  0.4548  0.1008 -0.4988
  834MOL0     H10029  10.847  -0.205   4.515 -0.3390  3.7838  3.7200
  834MOL0     H10030  10.992  -0.124   4.529  0.5131 -0.0913  0.6767
  834MOL0     H10031  10.873  -0.317   4.743  0.9572 -0.8616  2.0449
  834MOL0     H10032  11.018  -0.214   4.759 -0.8092  1.8403  0.8001
  834MOL0     H10033  10.904  -0.011   4.713  0.7360 -0.0349 -0.2431
  834MOL0     H10034  10.899  -0.085   4.870 -1.3256  1.2830 -0.0116
  834MOL0     H10035  10.684  -0.194   4.804  2.4640 -0.5738 -0.8193
  834MOL0     H10036  10.687  -0.111   4.647 -1.5129 -1.6071  0.1436
  834MOL0     H10037  10.661   0.112   4.767 -2.0900 -1.1653 -1.9130
  834MOL0     H10038  10.534   0.001   4.774 -1.5393 -1.1242  1.5659
  834MOL0     H10039  10.760   0.078   4.971 -1.0566  1.2691  1.5728
  834MOL0     H10040  10.672  -0.073   5.001  1.9322  0.4939 -0.2460
  834MOL0     H10041  10.386   0.124   4.895  1.2385 -1.4583 -0.1274
  834MOL0     H10042  10.203   0.279   5.047 -2.7853 -0.5344 -0.3156
  834MOL0     H10043  10.241   0.300   5.223 -1.1864  1.8137  0.1586
  834MOL0     H10044  10.160   0.080   5.272  0.7385  0.0524 -0.2041
  834MOL0     H10045  10.112   0.047   5.097  0.3578  1.6579 -2.3564
  834MOL0     H10046  10.027   0.270   5.283  1.5873 -0.8360 -0.0038
  834MOL0     H10047   9.959   0.260   5.125  0.5922  0.5735  1.2579
  834MOL0     H10048   9.915   0.049   5.321 -1.1212 -1.8500 -0.1147
  834MOL0     H10049   9.822   0.060   5.168  2.0675  0.6966  0.2019
  834MOL0     H10050   9.719   0.443   5.298  3.7009 -2.7563 -1.7473
  834MOL0     H10051   9.483   0.532   5.243  1.3170  0.0364  0.1820
  834MOL0     H10052   9.076   0.551   5.061 -0.2021  3.6590 -0.5684
  834MOL0     H10053   8.847   0.640   5.061  0.6845 -0.4580 -0.5624
  834MOL0     H10054   8.723   0.854   5.199  0.3945  0.4307  0.2139
  834MOL0     H10055   8.770   0.860   5.364 -0.8028 -1.0118  2.1737
  834MOL0     H10056   8.490   0.857   5.269 -1.3276  0.0355  1.4480
  834MOL0     H10057   8.553   0.982   5.354 -3.0901  0.3066 -1.6051
  834MOL0     H10058   8.575   0.858   5.574  3.1975 -2.0155 -1.7119
  834MOL0     H10059   8.502   0.721   5.513 -2.8987  0.0849  1.5001
  834MOL0     H10060   8.387   1.001   5.524  1.4782 -0.3690  5.8897
  834MOL0     H10061   8.298   0.866   5.439  2.2365  1.4843 -3.5462
  834MOL0     H10062   8.389   0.894   5.730 -0.6985 -1.0237  0.5407
  834MOL0     H10063   8.313   0.748   5.669 -1.7828  0.2487 -1.6016
  834MOL0     H10064   8.097   0.852   5.643 -0.2971  2.2823 -1.5482
  834MOL0     H10065   8.150   1.022   5.648 -2.3106  0.6837  4.3444
  834MOL0     H10066   8.025   0.951   5.839  0.6061 -1.1276  1.8070
  834MOL0     H10067   8.142   0.830   5.868 -0.5155  0.2390  0.5529
  834MOL0     H10068   8.144   1.137   5.870  0.0892  0.2296 -1.8919
  834MOL0     H10069   8.299   1.053   5.873 -0.5045  1.8143  0.6753
  834MOL0     H10070   8.863   0.618   5.497  0.1805 -1.3965  1.3342
  834MOL0     H10071   9.086   0.529   5.476 -0.1251  0.5893  0.0005
  834MOL0     H10072   9.355   0.121   5.219  0.6757 -1.1904  1.7054
  834MOL0     H10073   9.574   0.040   5.235  2.1977  0.4107 -1.5722
  834MOL0     H10074  11.187  -0.041   4.288 -0.6005  1.3951  0.0075
  834MOL0     H10075  11.121   0.135   4.106 -0.3301  0.5431  0.7605
  834MOL0     H10076  11.085   0.314   3.814 -2.0494  0.1859  2.7457
  834MOL0     H10077  11.047   0.521   3.709  0.5976 -0.4881  0.7728
  834MOL0     H10078  10.833   0.707   3.438  1.1167 -2.0375 -3.2196
  834MOL0     H10079  10.963   0.594   3.474 -1.3366 -0.5081 -0.8523
  834MOL0     H10080  11.041   0.732   3.662 -1.2716 -0.3042  0.8774
  834MOL0     H10081  11.048   0.806   3.499 -1.6347  0.1148 -3.0359
  834MOL0     H10082  10.904   0.868   3.746 -0.0472 -3.2535 -0.9244
  834MOL0     H10083  10.799   0.848   3.607  0.8878 -1.6300 -1.1067
  834MOL0     H10084  10.844   1.090   3.629 -1.3392  0.2753 -2.8175
  834MOL0     H10085  11.027   1.054   3.629  1.8179 -0.8542 -0.9688
  834MOL0     H10086  10.910   1.080   3.221 -1.9576  0.7417  0.5286
  834MOL0     H10087  10.642   0.404   3.624  0.5375  0.8504 -0.8726
  834MOL0     H10088  10.686   0.180   3.706  0.2557  0.3544  0.9626
  835MOL0     O10089   5.705   6.806   0.284  0.3772  0.6002  0.2301
  835MOL0     C10090   5.731   6.872   0.188  1.1165  1.1573  0.5974
  835MOL0     O10091   5.640   6.935   0.106 -0.4829  0.4139 -0.3169
  835MOL0     C10092   5.504   6.959   0.129 -0.6727 -1.1651 -0.5990
  835MOL0     C10093   5.410   6.879   0.197 -0.2338  0.1737 -0.4442
  835MOL0     C10094   5.272   6.916   0.205 -0.3017  1.0615  0.1308
  835MOL0     C10095   5.242   7.049   0.160  1.1952  0.3462 -0.7120
  835MOL0     O10096   5.123   7.119   0.172 -0.2155 -0.4232  0.6276
  835MOL0     C10097   5.020   7.054   0.238 -0.9340 -0.1061  0.0031
  835MOL0     C10098   4.939   7.162   0.303 -0.7314 -0.4205  0.4135
  835MOL0     C10099   4.833   7.230   0.211  0.0943  0.3628 -0.3509
  835MOL0     C10100   4.746   7.330   0.284  0.5337  0.2279 -0.1211
  835MOL0     C10101   4.635   7.405   0.202  0.5682 -0.2797  0.1984
  835MOL0     C10102   4.685   7.470   0.067  0.1487 -0.8709  0.1523
  835MOL0     C10103   4.563   7.549  -0.002 -0.2028  0.4718 -0.0420
  835MOL0     C10104   4.414   7.488   0.003  0.0172  0.3113 -0.6317
  835MOL0     N10105   4.410   7.347  -0.044 -0.4812  0.8210 -0.4415
  835MOL0     C10106   4.417   7.320  -0.174 -0.0975 -0.1646 -0.5928
  835MOL0     C10107   4.396   7.186  -0.181 -0.1028  0.5893 -0.0327
  835MOL0     C10108   4.397   7.108  -0.309  0.5697  0.2338 -0.0487
  835MOL0     C10109   4.280   7.144  -0.399  0.2730  0.2552  0.2958
  835MOL0     C10110   4.269   7.049  -0.519 -0.3883 -1.0040  0.3776
  835MOL0     C10111   4.204   6.923  -0.474 -0.7560  0.6162 -0.1430
  835MOL0     O10112   4.164   6.851  -0.592  0.1780  0.8214  0.5152
  835MOL0     C10113   4.237   6.745  -0.630  0.1747  0.1535 -0.4651
  835MOL0     C10114   4.375   6.754  -0.628  0.8222  1.3132 -0.1689
  835MOL0     C10115   4.449   6.646  -0.670 -0.3774  0.6043  0.9735
  835MOL0     C10116   4.407   6.532  -0.733  0.4707  0.7574  0.0752
  835MOL0     C10117   4.501   6.434  -0.806  0.4435 -0.4769  0.2663
  835MOL0     O10118   4.638   6.467  -0.813  0.5446 -0.2722 -0.5198
  835MOL0     C10119   4.738   6.377  -0.835 -0.2723 -0.2166  0.0115
  835MOL0     C10120   4.740   6.256  -0.753  0.7990 -0.8546 -0.0084
  835MOL0     C10121   4.851   6.174  -0.758 -0.2092 -0.6720 -0.0534
  835MOL0     C10122   4.961   6.191  -0.835  0.9313 -0.5660 -0.4140
  835MOL0     O10123   5.064   6.102  -0.831 -0.4850 -0.8733 -0.0104
  835MOL0     C10124   5.140   6.079  -0.949  0.0168  0.6859 -0.1022
  835MOL0     C10125   5.186   5.937  -0.959 -0.6503  0.4193  0.4573
  835MOL0     C10126   5.313   5.918  -0.869 -0.1947  0.2634 -0.5925
  835MOL0     C10127   5.359   5.775  -0.890  0.5999  0.4058 -0.1745
  835MOL0     C10128   5.486   5.751  -0.804 -1.0172  0.0505  0.0854
  835MOL0     C10129   5.542   5.611  -0.820 -0.4422 -0.0291  0.6007
  835MOL0     C10130   5.666   5.589  -0.748  0.4005  0.5109 -0.8419
  835MOL0     C10131   5.743   5.452  -0.768 -0.5698  0.1758 -0.1852
  835MOL0    Cl10132   5.674   5.315  -0.674  0.4203  0.0936  0.2422
  835MOL0     C10133   4.957   6.305  -0.921  0.6718 -0.3544 -0.1292
  835MOL0     C10134   4.848   6.399  -0.920 -0.5116 -0.0014  0.2732
  835MOL0     O10135   4.447   6.323  -0.836  0.3341 -0.5554  0.3658
  835MOL0     C10136   4.268   6.532  -0.757  0.1078 -0.2842 -0.0208
  835MOL0     C10137   4.188   6.635  -0.703 -0.0726 -0.1838 -0.0628
  835MOL0     N10138   4.366   7.144  -0.050  0.4165  0.6431  0.8155
  835MOL0     N10139   4.384   7.241   0.038  0.3433 -0.4052  0.4839
  835MOL0     C10140   5.341   7.125   0.096  0.1728 -0.6264  0.8633
  835MOL0     C10141   5.468   7.081   0.072  0.9912  0.1147  0.4807
  835MOL0     C10142   5.866   6.853   0.135 -0.3036  0.4264  0.2225
  835MOL0     C10143   5.905   6.920   0.014 -0.4302 -0.1283  0.5828
  835MOL0     C10144   6.037   6.908  -0.033 -0.2289 -0.6478  0.4820
  835MOL0     C10145   6.138   6.850   0.034  0.5936  0.9134  0.1227
  835MOL0     O10146   6.255   6.863  -0.029 -0.0052  0.3446 -0.9599
  835MOL0     C10147   6.357   6.769  -0.012 -0.6081 -0.7886  0.1362
  835MOL0     C10148   6.378   6.680  -0.132  0.2144  1.0516  0.6966
  835MOL0     C10149   6.453   6.769  -0.252  0.0335 -0.8017  0.8952
  835MOL0     C10150   6.342   6.812  -0.354 -0.1773  0.0406  0.4040
  835MOL0     C10151   6.284   6.698  -0.429 -0.4926  0.3438 -0.4950
  835MOL0     C10152   6.246   6.604  -0.491  0.1800  1.0768 -0.6550
  835MOL0     C10153   6.108   6.779   0.154  0.3437  0.7766  0.4666
  835MOL0     C10154   5.976   6.788   0.203 -1.0907  0.1591 -0.2553
  835MOL0     H10155   5.437   6.780   0.233  2.9719  0.3850 -1.8928
  835MOL0     H10156   5.202   6.851   0.256  1.6231 -1.9951 -0.8424
  835MOL0     H10157   5.046   6.987   0.321  0.8835 -0.4302 -0.7696
  835MOL0     H10158   4.960   6.994   0.169  1.6029 -0.5697 -1.9601
  835MOL0     H10159   5.005   7.224   0.365 -0.9121  2.5154 -2.0630
  835MOL0     H10160   4.890   7.112   0.387  1.1511  1.8834  3.0730
  835MOL0     H10161   4.763   7.166   0.156 -2.5732  1.4255  1.6294
  835MOL0     H10162   4.883   7.290   0.134  0.0512  0.9638  0.0917
  835MOL0     H10163   4.705   7.278   0.371 -0.9715  4.0691  1.7010
  835MOL0     H10164   4.805   7.411   0.328 -2.1609  2.8567 -1.0009
  835MOL0     H10165   4.586   7.487   0.255  0.0334  1.3573 -2.6535
  835MOL0     H10166   4.563   7.327   0.174 -0.9948 -0.4060  3.9153
  835MOL0     H10167   4.722   7.383   0.013  1.1310 -0.3435 -0.0338
  835MOL0     H10168   4.768   7.537   0.091  0.0538 -1.0382  0.9956
  835MOL0     H10169   4.543   7.637   0.060  0.2858  0.6469 -0.1308
  835MOL0     H10170   4.589   7.570  -0.106  2.9297  0.5228  0.6638
  835MOL0     H10171   4.345   7.536  -0.066  0.4535 -3.2715 -3.8385
  835MOL0     H10172   4.360   7.488   0.098  0.1492 -0.3971 -0.5516
  835MOL0     H10173   4.441   7.399  -0.245 -0.7270  1.8773  1.3656
  835MOL0     H10174   4.387   7.003  -0.283 -0.5670  0.7465  1.6950
  835MOL0     H10175   4.498   7.124  -0.350 -0.2197 -1.3359 -2.9124
  835MOL0     H10176   4.293   7.249  -0.429  1.3167 -0.0215 -0.2483
  835MOL0     H10177   4.189   7.135  -0.338  1.0813  0.1933  1.5164
  835MOL0     H10178   4.198   7.100  -0.584  1.6165 -0.2638 -1.3486
  835MOL0     H10179   4.363   7.042  -0.575 -0.2996  1.2893  0.1469
  835MOL0     H10180   4.110   6.944  -0.423 -0.3665  1.7837  0.1282
  835MOL0     H10181   4.271   6.862  -0.412  1.3392  2.1334 -0.7852
  835MOL0     H10182   4.429   6.839  -0.587  0.7792  2.0732 -1.6163
  835MOL0     H10183   4.556   6.659  -0.659 -0.2879 -1.1421  2.6452
  835MOL0     H10184   4.653   6.219  -0.699 -0.6353  1.6048 -0.4888
  835MOL0     H10185   4.844   6.087  -0.693 -0.6271 -0.0423  0.7630
  835MOL0     H10186   5.225   6.149  -0.951  0.9419 -0.4049 -0.4170
  835MOL0     H10187   5.091   6.097  -1.045 -3.3694  1.8353  1.6858
  835MOL0     H10188   5.214   5.910  -1.061  1.5724  1.3803  0.7735
  835MOL0     H10189   5.113   5.863  -0.925  1.0112 -1.2785  0.4983
  835MOL0     H10190   5.303   5.943  -0.763  3.1526 -2.0336  0.4190
  835MOL0     H10191   5.395   5.983  -0.901  1.8046 -0.3552  2.8451
  835MOL0     H10192   5.285   5.709  -0.845 -0.8288  1.9433 -0.1813
  835MOL0     H10193   5.366   5.745  -0.994 -0.1550  3.4213 -1.2163
  835MOL0     H10194   5.474   5.780  -0.700 -1.4902 -1.8300  0.5948
  835MOL0     H10195   5.566   5.812  -0.848 -1.2305 -0.0745 -0.4912
  835MOL0     H10196   5.564   5.594  -0.926 -0.1392 -1.3890  0.8594
  835MOL0     H10197   5.469   5.532  -0.801  0.0822 -0.7686 -0.3589
  835MOL0     H10198   5.726   5.680  -0.750 -2.9700  2.9155  0.0113
  835MOL0     H10199   5.633   5.576  -0.644  0.5192 -1.6774 -1.0286
  835MOL0     H10200   5.842   5.463  -0.725 -0.1303 -1.6033 -0.6277
  835MOL0     H10201   5.749   5.430  -0.875 -0.2871  1.4149 -0.4370
  835MOL0     H10202   5.042   6.332  -0.982  1.0016 -2.2501 -0.5831
  835MOL0     H10203   4.864   6.501  -0.953 -2.9437  0.3022 -0.1371
  835MOL0     H10204   4.216   6.456  -0.813 -1.0533  0.7967 -0.4337
  835MOL0     H10205   4.081   6.628  -0.719 -0.1593 -1.9264  1.0162
  835MOL0     H10206   5.307   7.224   0.068  1.6158  0.5538  2.8873
  835MOL0     H10207   5.531   7.153   0.020 -2.3567  1.0714 -2.6357
  835MOL0     H10208   5.841   6.995  -0.032 -0.8548 -0.6550  0.2945
  835MOL0     H10209   6.072   6.956  -0.124  2.8186  1.6247  2.6707
  835MOL0     H10210   6.348   6.704   0.076  1.5780  1.5557  2.2434
  835MOL0     H10211   6.448   6.826   0.007 -1.7770  1.1646  0.1554
  835MOL0     H10212   6.440   6.595  -0.103  0.5956  1.5604  1.4088
  835MOL0     H10213   6.277   6.643  -0.155  0.1107  1.2502  0.8273
  835MOL0     H10214   6.513   6.701  -0.314  1.2122  1.9135 -1.1454
  835MOL0     H10215   6.502   6.861  -0.218  0.0703 -0.4894  0.0079
  835MOL0     H10216   6.271   6.873  -0.297  1.1361  0.2934  1.8255
  835MOL0     H10217   6.385   6.877  -0.430  0.8880 -1.5972 -0.4649
  835MOL0     H10218   6.213   6.519  -0.547 -0.4083 -0.8166  2.3323
  835MOL0     H10219   6.193   6.735   0.204 -0.8325 -2.9621 -0.4919
  835MOL0     H10220   5.945   6.752   0.300 -0.7526  1.1161  0.2195
  836MOL0     O10221   3.363   9.205   2.032  0.0603  0.2572  0.2805
  836MOL0     C10222   3.275   9.291   2.035  0.1637  0.0490  0.5609
  836MOL0     O10223   3.290   9.425   2.079  0.1746  0.2425 -0.2329
  836MOL0     C10224   3.411   9.466   2.131 -0.4950  0.0170  0.0489
  836MOL0     C10225   3.477   9.581   2.080 -1.0327 -0.3815 -0.3032
  836MOL0     C10226   3.606   9.618   2.112 -0.6612  0.6088  0.9369
  836MOL0     C10227   3.677   9.543   2.196 -0.2184  0.0760  0.2161
  836MOL0     O10228   3.813   9.581   2.203  0.3867  0.4948  0.7858
  836MOL0     C10229   3.902   9.533   2.311  0.0049  0.0000 -0.1593
  836MOL0     C10230   3.975   9.643   2.399 -0.5879 -0.3743 -0.0689
  836MOL0     C10231   4.114   9.596   2.446  0.0437 -0.7428 -0.6628
  836MOL0     C10232   4.098   9.485   2.554  0.2902 -0.2243  0.5252
  836MOL0     C10233   4.024   9.541   2.682 -0.1413  0.9473 -0.8344
  836MOL0     C10234   4.036   9.450   2.805 -0.3880  0.2101 -0.4431
  836MOL0     C10235   3.985   9.311   2.799 -0.4758 -1.0216  0.6695
  836MOL0     C10236   3.857   9.273   2.727  0.7837  0.0215 -0.0623
  836MOL0     N10237   3.820   9.135   2.755  0.2526 -0.0809 -0.5359
  836MOL0     C10238   3.879   9.018   2.703 -0.7593  0.2211  1.4855
  836MOL0     C10239   3.835   8.916   2.774 -1.0262  0.7008  1.1874
  836MOL0     C10240   3.865   8.759   2.762  0.1802 -0.0939 -0.5411
  836MOL0     C10241   4.008   8.716   2.783 -0.1712  0.1203  0.2613
  836MOL0     C10242   4.019   8.560   2.780  0.9788 -0.0329 -0.3193
  836MOL0     C10243   4.162   8.510   2.777 -0.5645  0.0057 -0.2425
  836MOL0     O10244   4.270   8.592   2.723 -0.5056  0.2626  0.7364
  836MOL0     C10245   4.403   8.551   2.742  0.3339 -0.1267  0.9026
  836MOL0     C10246   4.440   8.432   2.799 -0.5328  0.0109  0.3450
  836MOL0     C10247   4.570   8.390   2.782 -0.2580 -0.0406  0.0852
  836MOL0     C10248   4.670   8.469   2.730 -0.7469 -0.0716  0.4999
  836MOL0     C10249   4.812   8.425   2.703 -0.1351  0.2929 -0.3914
  836MOL0     O10250   4.830   8.293   2.725  0.0591  0.1230 -0.3601
  836MOL0     C10251   4.964   8.255   2.716 -0.2335 -0.3243  0.1735
  836MOL0     C10252   5.029   8.234   2.597 -0.7187 -0.4854  0.3846
  836MOL0     C10253   5.163   8.194   2.588 -0.7693 -0.8866 -0.0551
  836MOL0     C10254   5.233   8.159   2.702 -0.8266 -0.4241  0.1699
  836MOL0     O10255   5.364   8.113   2.683 -0.7674  0.2883 -0.0753
  836MOL0     C10256   5.466   8.185   2.756  0.0577 -0.8141  0.1449
  836MOL0     C10257   5.541   8.272   2.660  1.1024  0.4550  0.2398
  836MOL0     C10258   5.608   8.189   2.539 -0.5031 -0.1463 -0.4693
  836MOL0     C10259   5.751   8.142   2.584  1.2001 -0.5075  0.1313
  836MOL0     C10260   5.743   8.014   2.662 -0.1382  0.1144 -0.9609
  836MOL0     C10261   5.659   7.907   2.598  0.4877  0.6241 -0.0570
  836MOL0     C10262   5.630   7.798   2.708 -0.3973 -0.7119  0.1610
  836MOL0     C10263   5.735   7.690   2.720 -1.0633 -0.2535 -0.0351
  836MOL0    Cl10264   5.683   7.570   2.841 -0.0529 -0.0274 -0.1917
  836MOL0     C10265   5.176   8.189   2.827 -0.5468  0.3646  0.5318
  836MOL0     C10266   5.039   8.235   2.832 -1.3099 -0.0155 -0.6325
  836MOL0     O10267   4.904   8.496   2.673 -0.4449  0.1520  0.0733
  836MOL0     C10268   4.635   8.592   2.684  0.1221  0.4274 -0.1603
  836MOL0     C10269   4.499   8.641   2.690 -0.3828 -0.6562  0.4191
  836MOL0     N10270   3.747   8.965   2.859  0.3052 -0.0194  0.5324
  836MOL0     N10271   3.737   9.090   2.850 -0.0399 -0.1387 -0.3853
  836MOL0     C10272   3.620   9.421   2.255 -0.2352 -0.4234 -0.2829
  836MOL0     C10273   3.485   9.384   2.221  0.0967 -0.7255 -0.1674
  836MOL0     C10274   3.141   9.249   1.996 -0.3138 -0.7580 -0.2584
  836MOL0     C10275   3.045   9.344   1.936  0.2326 -0.0347 -0.4156
  836MOL0     C10276   2.927   9.290   1.882 -0.1783  0.4806 -0.3142
  836MOL0     C10277   2.888   9.153   1.899 -0.4614  0.0830  0.1364
  836MOL0     O10278   2.774   9.108   1.838  0.0134  0.6718  0.4384
  836MOL0     C10279   2.656   9.188   1.858  0.1329  0.9168 -0.6969
  836MOL0     C10280   2.614   9.253   1.731  0.3690 -0.4771  0.4512
  836MOL0     C10281   2.582   9.127   1.638 -0.0746  0.0375  0.1636
  836MOL0     C10282   2.537   9.168   1.501  0.7906 -1.2043  0.3696
  836MOL0     C10283   2.421   9.265   1.498 -0.4358 -0.0429  0.4568
  836MOL0     C10284   2.323   9.339   1.491  0.3014  0.7026 -0.5183
  836MOL0     C10285   2.983   9.068   1.953  0.6076 -0.2826  0.1835
  836MOL0     C10286   3.106   9.115   1.998 -0.2448 -0.6678  0.0484
  836MOL0     H10287   3.425   9.649   2.013 -1.0891  0.5790  0.6900
  836MOL0     H10288   3.661   9.695   2.059  0.9481 -0.3396  1.1549
  836MOL0     H10289   3.983   9.475   2.266  1.1930  0.7859  0.9019
  836MOL0     H10290   3.848   9.470   2.382  0.2094 -0.0595 -0.0578
  836MOL0     H10291   3.909   9.666   2.483 -2.0669 -3.9977 -0.0568
  836MOL0     H10292   3.993   9.733   2.339 -4.4849  0.7062  0.1096
  836MOL0     H10293   4.172   9.677   2.491  0.4223  0.2993 -2.9092
  836MOL0     H10294   4.172   9.560   2.360  1.1287  0.6449 -0.5389
  836MOL0     H10295   4.044   9.396   2.521 -0.5481  0.7358 -0.7740
  836MOL0     H10296   4.197   9.446   2.577  0.4947 -1.9930 -2.8313
  836MOL0     H10297   3.918   9.561   2.665 -0.6573  0.4834  1.4858
  836MOL0     H10298   4.079   9.629   2.715  1.7833 -0.3517 -0.4224
  836MOL0     H10299   3.983   9.494   2.890 -0.7191  1.7605 -1.4105
  836MOL0     H10300   4.137   9.448   2.846  0.7297 -1.3751 -3.0171
  836MOL0     H10301   4.059   9.247   2.749  0.2766  1.0433 -1.0224
  836MOL0     H10302   3.979   9.280   2.903  0.3852 -2.1306  0.4146
  836MOL0     H10303   3.869   9.305   2.623  1.9757  1.3566  0.4378
  836MOL0     H10304   3.779   9.332   2.776 -1.1519 -0.9672 -1.8087
  836MOL0     H10305   3.947   9.005   2.620 -2.0557 -0.2836  0.4679
  836MOL0     H10306   3.828   8.732   2.663  0.0798  1.0928 -0.8438
  836MOL0     H10307   3.806   8.708   2.838  1.8450 -0.8796  0.2974
  836MOL0     H10308   4.049   8.763   2.872 -0.7664  1.7144 -0.2702
  836MOL0     H10309   4.073   8.746   2.700  2.3620  0.2017  2.1622
  836MOL0     H10310   3.971   8.518   2.869  2.5909 -0.8202  0.2176
  836MOL0     H10311   3.970   8.520   2.690 -1.4411 -1.7136  1.5972
  836MOL0     H10312   4.164   8.407   2.739  1.0782  0.4114 -1.3465
  836MOL0     H10313   4.185   8.492   2.883 -1.8530  1.6523  0.3534
  836MOL0     H10314   4.370   8.357   2.834  1.7627 -3.7139 -2.2815
  836MOL0     H10315   4.603   8.298   2.829  1.2870  0.0586 -0.7434
  836MOL0     H10316   4.974   8.259   2.507 -3.2694 -1.5620  1.5427
  836MOL0     H10317   5.212   8.201   2.491 -1.9589 -1.6042 -0.7289
  836MOL0     H10318   5.536   8.122   2.813 -0.2530 -1.8565 -0.6050
  836MOL0     H10319   5.421   8.258   2.824 -0.7706  0.3307 -1.5865
  836MOL0     H10320   5.619   8.336   2.702 -1.9066  3.4845  1.7035
  836MOL0     H10321   5.469   8.336   2.608 -0.7743 -3.3267 -2.3263
  836MOL0     H10322   5.644   8.256   2.460  0.1085 -0.6000 -0.5917
  836MOL0     H10323   5.534   8.121   2.496 -1.8266 -0.3304  1.9443
  836MOL0     H10324   5.807   8.140   2.490 -0.7176 -0.8232 -1.0665
  836MOL0     H10325   5.792   8.214   2.655 -2.7140  0.0005  2.1839
  836MOL0     H10326   5.697   8.038   2.759 -0.0065  0.0101 -0.8719
  836MOL0     H10327   5.844   7.977   2.683 -0.6131  0.7787  3.4163
  836MOL0     H10328   5.716   7.867   2.514  0.6636  2.0679 -0.6533
  836MOL0     H10329   5.556   7.927   2.568  0.1315 -1.3986 -0.2816
  836MOL0     H10330   5.627   7.847   2.806  0.4934  0.1227 -0.2129
  836MOL0     H10331   5.529   7.758   2.700 -1.4024  1.2405  2.1087
  836MOL0     H10332   5.833   7.724   2.757 -0.3041  0.1981 -2.2863
  836MOL0     H10333   5.744   7.640   2.623 -1.8423 -1.1444  0.3379
  836MOL0     H10334   5.233   8.174   2.918  1.4229 -1.1530 -0.8549
  836MOL0     H10335   4.989   8.272   2.921 -0.8182 -0.7270 -0.0496
  836MOL0     H10336   4.708   8.667   2.656 -0.4639  2.5523  3.3429
  836MOL0     H10337   4.473   8.738   2.648 -2.3625 -1.5576 -0.5551
  836MOL0     H10338   3.672   9.364   2.332 -0.3527  1.2450  1.0899
  836MOL0     H10339   3.444   9.293   2.262 -0.0906 -0.5484  0.0352
  836MOL0     H10340   3.070   9.449   1.935  1.6731 -0.2479  2.2186
  836MOL0     H10341   2.865   9.363   1.831 -2.4116 -1.3014 -0.3239
  836MOL0     H10342   2.678   9.265   1.933  1.7054  0.2771 -0.4828
  836MOL0     H10343   2.564   9.137   1.890  0.0391  1.1998 -0.5016
  836MOL0     H10344   2.523   9.311   1.750 -1.0268 -1.6717 -2.1123
  836MOL0     H10345   2.691   9.318   1.687  1.0672  0.1885  2.5200
  836MOL0     H10346   2.511   9.059   1.685  0.2707  0.9430  2.1079
  836MOL0     H10347   2.676   9.074   1.620  0.7114  1.8214 -1.3153
  836MOL0     H10348   2.623   9.229   1.470 -0.0686 -0.2948 -0.2734
  836MOL0     H10349   2.513   9.088   1.430  2.2903 -0.0240 -1.5946
  836MOL0     H10350   2.235   9.400   1.487 -0.4877 -0.4608 -2.2086
  836MOL0     H10351   2.962   8.966   1.982 -1.7081  0.5270  1.6278
  836MOL0     H10352   3.177   9.040   2.031 -2.2417 -2.1845  1.1694
  837MOL0     O10353   3.016  10.814   0.860 -0.7615  0.3619  0.8497
  837MOL0     C10354   3.099  10.765   0.783 -0.3069  0.4339  0.4294
  837MOL0     O10355   3.083  10.653   0.702 -0.3592  0.1722  0.5849
  837MOL0     C10356   2.966  10.586   0.720 -0.3180  0.0475  0.7982
  837MOL0     C10357   2.849  10.651   0.692 -0.5915  0.2099  0.3279
  837MOL0     C10358   2.731  10.578   0.693  0.2533 -0.2508  0.3338
  837MOL0     C10359   2.736  10.443   0.730  0.0907  0.7649 -0.1873
  837MOL0     O10360   2.619  10.380   0.727  0.0978 -0.0448  0.2832
  837MOL0     C10361   2.599  10.273   0.818  0.6249  0.1052  0.7760
  837MOL0     C10362   2.443  10.280   0.825  0.4051  0.3246 -0.3378
  837MOL0     C10363   2.398  10.205   0.944 -0.4736  0.0373  0.0954
  837MOL0     C10364   2.257  10.178   0.956 -0.1367  0.8643 -0.8261
  837MOL0     C10365   2.175  10.294   0.965 -0.2376  0.1982  0.0857
  837MOL0     C10366   2.018  10.270   0.990 -0.5488 -0.4893 -0.7286
  837MOL0     C10367   1.973  10.257   1.146 -0.5993  0.8215  0.8009
  837MOL0     C10368   1.825  10.293   1.176  0.3051  0.2322  0.5018
  837MOL0     N10369   1.786  10.281   1.315  0.6749 -0.2148 -1.0683
  837MOL0     C10370   1.864  10.305   1.431 -0.4765 -0.4935  0.3467
  837MOL0     C10371   1.777  10.280   1.532 -0.1306  0.0484  0.7109
  837MOL0     C10372   1.820  10.274   1.669  0.4660  0.5585 -0.2969
  837MOL0     C10373   1.831  10.122   1.712  0.3179  0.7408 -0.2497
  837MOL0     C10374   1.942  10.057   1.632 -0.1211  0.3744 -0.2835
  837MOL0     C10375   1.956   9.914   1.661  0.5982 -0.1572  1.2344
  837MOL0     O10376   1.995   9.889   1.793 -0.2764 -0.5609 -0.4777
  837MOL0     C10377   2.040   9.761   1.831 -1.0068 -1.1994  0.9062
  837MOL0     C10378   2.054   9.735   1.958  0.2163 -0.1163 -0.6756
  837MOL0     C10379   2.081   9.606   2.005 -0.2478 -0.2961  0.7395
  837MOL0     C10380   2.103   9.493   1.923  0.6750  0.3176  0.6425
  837MOL0     C10381   2.135   9.361   1.976  0.7313 -0.3553 -0.6663
  837MOL0     O10382   2.134   9.259   1.888  0.0920 -0.6047 -0.0305
  837MOL0     C10383   2.158   9.137   1.948 -0.4055 -0.0773  0.4011
  837MOL0     C10384   2.278   9.080   1.913  0.4701 -0.6159 -0.3576
  837MOL0     C10385   2.301   8.954   1.968 -0.2296 -0.3326 -0.1444
  837MOL0     C10386   2.204   8.892   2.051 -0.4581 -0.1697 -0.5352
  837MOL0     O10387   2.233   8.765   2.086  0.5941  0.5685 -0.0719
  837MOL0     C10388   2.131   8.704   2.161  0.0807 -0.4475 -0.9248
  837MOL0     C10389   2.166   8.561   2.199 -0.3221  0.2416 -1.1360
  837MOL0     C10390   2.163   8.466   2.078 -0.7781 -0.4833  0.1589
  837MOL0     C10391   2.178   8.318   2.112  0.1872 -1.0222  0.0998
  837MOL0     C10392   2.175   8.224   1.987  0.6717 -0.1773 -0.8308
  837MOL0     C10393   2.201   8.083   2.041  0.5266  0.4821  0.2792
  837MOL0     C10394   2.207   7.979   1.931 -0.1010 -0.2927 -0.5913
  837MOL0     C10395   2.282   7.853   1.974 -0.2710  0.5607  0.0630
  837MOL0    Cl10396   2.266   7.748   1.820 -0.3108 -0.0981  0.3028
  837MOL0     C10397   2.087   8.956   2.083  0.0601  0.0213 -1.3189
  837MOL0     C10398   2.062   9.080   2.027 -0.4942  0.5687 -0.4882
  837MOL0     O10399   2.172   9.356   2.098 -0.2171  0.3967  0.5728
  837MOL0     C10400   2.085   9.519   1.786  0.1393 -0.0309 -0.0023
  837MOL0     C10401   2.051   9.646   1.744 -0.3493 -0.5426  0.1112
  837MOL0     N10402   1.655  10.226   1.475 -0.2947  0.2969 -0.2463
  837MOL0     N10403   1.662  10.236   1.346 -0.2297  0.8997  0.6420
  837MOL0     C10404   2.856  10.381   0.769 -0.4998 -0.1130 -1.3573
  837MOL0     C10405   2.971  10.459   0.772  0.1228  0.2394  0.4620
  837MOL0     C10406   3.231  10.835   0.760 -0.3709 -0.1610 -0.2699
  837MOL0     C10407   3.315  10.814   0.646  0.5047  0.8101 -0.0554
  837MOL0     C10408   3.428  10.895   0.616  0.5088  0.4278 -0.0779
  837MOL0     C10409   3.459  10.996   0.702 -0.5703 -0.2360 -0.5237
  837MOL0     O10410   3.579  11.077   0.670 -0.1986  0.3937  0.7189
  837MOL0     C10411   3.625  11.186   0.750  0.1809 -0.6242 -0.3703
  837MOL0     C10412   3.725  11.288   0.681 -0.1583  0.4858 -0.1164
  837MOL0     C10413   3.643  11.340   0.556 -1.3193  0.4773 -0.7340
  837MOL0     C10414   3.703  11.465   0.498  0.2630  0.3682  1.2546
  837MOL0     C10415   3.833  11.428   0.438  0.3948 -0.0476  0.1767
  837MOL0     C10416   3.935  11.386   0.403  0.2312 -0.1986 -0.5988
  837MOL0     C10417   3.383  11.016   0.817  0.3357  0.0983 -0.0993
  837MOL0     C10418   3.269  10.937   0.840 -0.5492  0.1976 -0.2626
  837MOL0     H10419   2.858  10.756   0.667 -0.9947  0.5711  1.6578
  837MOL0     H10420   2.643  10.629   0.655  2.1093  0.3004 -3.9090
  837MOL0     H10421   2.651  10.294   0.912 -0.0458  1.6077  0.8332
  837MOL0     H10422   2.620  10.179   0.766 -3.2528 -1.0161  0.8736
  837MOL0     H10423   2.404  10.245   0.729  1.2361  0.9721 -0.9254
  837MOL0     H10424   2.429  10.387   0.841  0.3337  0.0353  1.8316
  837MOL0     H10425   2.421  10.275   1.025  0.0306  1.1058 -0.9448
  837MOL0     H10426   2.454  10.113   0.966  0.1239  0.0303 -1.3218
  837MOL0     H10427   2.218  10.127   0.868 -0.1813  2.1847 -1.5957
  837MOL0     H10428   2.230  10.124   1.047  2.9395 -1.4340 -1.1374
  837MOL0     H10429   2.183  10.346   0.869 -1.4012  1.6918  0.7571
  837MOL0     H10430   2.214  10.369   1.035 -1.9168  1.7428 -0.5586
  837MOL0     H10431   1.975  10.181   0.944 -2.2729  0.0598 -0.2363
  837MOL0     H10432   1.977  10.364   0.952  2.2349  1.4901  0.7157
  837MOL0     H10433   1.980  10.149   1.159  1.6364  0.6345 -1.3019
  837MOL0     H10434   2.048  10.308   1.207  0.9703  2.5889 -2.3979
  837MOL0     H10435   1.771  10.220   1.116  1.7269 -0.0914 -0.4417
  837MOL0     H10436   1.807  10.395   1.138 -0.8265 -0.3987 -0.7393
  837MOL0     H10437   1.965  10.344   1.427 -0.5449 -0.4162 -1.8239
  837MOL0     H10438   1.756  10.326   1.740  2.8039  3.0665  0.1576
  837MOL0     H10439   1.925  10.306   1.676  1.0567 -1.2933  0.1021
  837MOL0     H10440   1.740  10.065   1.692  0.4879  0.7828 -1.2224
  837MOL0     H10441   1.842  10.120   1.820 -0.0418  0.9162 -0.2113
  837MOL0     H10442   1.917  10.064   1.526  2.0157 -0.5953 -0.9183
  837MOL0     H10443   2.034  10.112   1.656  0.0204 -0.1660  0.4383
  837MOL0     H10444   2.022   9.868   1.587  0.3375 -1.8042  1.9921
  837MOL0     H10445   1.856   9.873   1.645  0.8840 -0.5659  0.4307
  837MOL0     H10446   2.051   9.813   2.034  1.5334 -0.0684 -0.6482
  837MOL0     H10447   2.086   9.587   2.112  0.2411 -1.5437  0.5063
  837MOL0     H10448   2.350   9.115   1.839  0.0290 -0.0230 -0.5090
  837MOL0     H10449   2.398   8.909   1.950  0.3279  1.4773 -2.0634
  837MOL0     H10450   2.036   8.708   2.107 -0.9174 -2.6730  0.4722
  837MOL0     H10451   2.114   8.750   2.259  3.1481 -1.2276  0.0920
  837MOL0     H10452   2.083   8.543   2.267 -1.2652  1.5024 -1.8954
  837MOL0     H10453   2.257   8.553   2.259 -0.3202 -1.1142 -1.3002
  837MOL0     H10454   2.247   8.492   2.013 -3.6162  0.9212 -3.2512
  837MOL0     H10455   2.072   8.491   2.023 -0.9399  0.1739  0.7051
  837MOL0     H10456   2.278   8.308   2.153  0.1273  0.1933  0.5938
  837MOL0     H10457   2.105   8.283   2.185 -2.6004  1.4967 -1.2285
  837MOL0     H10458   2.254   8.259   1.919  0.4820  4.1772  0.8271
  837MOL0     H10459   2.076   8.217   1.942 -0.7082  2.2972  1.5300
  837MOL0     H10460   2.118   8.058   2.106  1.0122  1.4691  1.3167
  837MOL0     H10461   2.292   8.082   2.103  0.7115  2.2995  0.1015
  837MOL0     H10462   2.109   7.951   1.890  0.3718 -2.6884 -0.2595
  837MOL0     H10463   2.268   8.013   1.847  2.1984 -2.5268  0.0495
  837MOL0     H10464   2.227   7.810   2.058  1.4340 -0.1405  0.8800
  837MOL0     H10465   2.388   7.859   2.000 -0.3699  1.5431  0.2983
  837MOL0     H10466   2.012   8.922   2.153  1.0654  0.6352  0.1006
  837MOL0     H10467   1.965   9.127   2.038 -1.6942 -1.7243 -0.4987
  837MOL0     H10468   2.091   9.437   1.715 -1.5302 -1.9586  1.9443
  837MOL0     H10469   2.038   9.660   1.637 -0.5764 -1.5392  0.0012
  837MOL0     H10470   2.870  10.276   0.792  0.9526  0.4513  0.6341
  837MOL0     H10471   3.062  10.407   0.801 -0.3175 -1.8639 -1.5664
  837MOL0     H10472   3.285  10.738   0.575 -1.3307 -0.3561  1.8563
  837MOL0     H10473   3.476  10.878   0.520 -0.3746  0.0311 -0.4592
  837MOL0     H10474   3.677  11.157   0.842  0.5503 -0.0566 -0.3978
  837MOL0     H10475   3.537  11.249   0.766 -1.2703 -1.8342 -2.9049
  837MOL0     H10476   3.762  11.366   0.747  1.2856  2.4448 -3.0259
  837MOL0     H10477   3.818  11.236   0.659 -1.5005 -1.7854 -0.7479
  837MOL0     H10478   3.549  11.379   0.595 -0.0800  1.4107  1.4921
  837MOL0     H10479   3.630  11.268   0.474 -0.5515 -0.0301 -0.4227
  837MOL0     H10480   3.651  11.501   0.409  1.2625  1.1423  0.9649
  837MOL0     H10481   3.708  11.543   0.575 -0.3850  0.1522  1.5277
  837MOL0     H10482   4.032  11.353   0.373 -0.0730 -2.7429  0.8980
  837MOL0     H10483   3.409  11.089   0.894  0.7561  0.5078 -0.6149
  837MOL0     H10484   3.212  10.964   0.928  0.3132 -2.7765  1.3444
  838MOL0     O10485   4.690   2.175   3.139 -1.3338 -0.7034  0.1076
  838MOL0     C10486   4.716   2.203   3.024 -0.2016  0.5914 -0.2278
  838MOL0     O10487   4.824   2.177   2.962 -0.1607 -0.1236  0.1606
  838MOL0     C10488   4.941   2.162   3.029 -0.0953  0.3018 -0.0358
  838MOL0     C10489   5.028   2.066   2.977  0.7700 -0.1403  0.6108
  838MOL0     C10490   5.159   2.061   3.032 -0.6303  0.7602 -0.8382
  838MOL0     C10491   5.197   2.138   3.152  0.7472  0.2218 -0.4078
  838MOL0     O10492   5.329   2.129   3.190  0.2994 -0.5207 -0.0791
  838MOL0     C10493   5.370   2.210   3.299  0.1276  0.5779  0.2555
  838MOL0     C10494   5.488   2.142   3.362 -0.2470  0.0545  0.6716
  838MOL0     C10495   5.601   2.113   3.254 -0.4993  0.4732 -0.5279
  838MOL0     C10496   5.724   2.056   3.329  0.0738 -0.0420 -0.3224
  838MOL0     C10497   5.832   2.030   3.221 -0.1944  0.0943  0.6387
  838MOL0     C10498   5.966   2.005   3.283  0.1047 -0.8925 -0.6523
  838MOL0     C10499   6.059   2.005   3.161  0.6129 -0.1610  0.2404
  838MOL0     C10500   6.194   1.937   3.209  0.0213  0.4603  0.3889
  838MOL0     N10501   6.285   1.918   3.092 -0.3236  1.3294 -0.5083
  838MOL0     C10502   6.306   1.793   3.034 -1.0854  0.8397 -0.1488
  838MOL0     C10503   6.363   1.818   2.911  0.2875 -0.7155  0.3932
  838MOL0     C10504   6.402   1.723   2.809 -0.7080 -1.0517  0.1748
  838MOL0     C10505   6.542   1.661   2.836  0.1609  0.6527  0.4383
  838MOL0     C10506   6.660   1.763   2.846 -1.1152 -0.3459  0.9079
  838MOL0     C10507   6.662   1.868   2.737  0.0789 -0.1932 -0.1015
  838MOL0     O10508   6.664   1.803   2.606 -0.2804  0.4088 -0.5953
  838MOL0     C10509   6.678   1.867   2.492 -1.1059  0.1189  0.6631
  838MOL0     C10510   6.690   2.006   2.476  0.6728  0.2186 -0.1187
  838MOL0     C10511   6.695   2.068   2.355 -0.3765  0.7825 -0.1273
  838MOL0     C10512   6.704   1.993   2.239  0.9992  0.5496  0.7241
  838MOL0     C10513   6.727   2.069   2.119  0.9120  0.3085 -0.1591
  838MOL0     O10514   6.802   2.185   2.125 -0.6300 -0.2561  0.1032
  838MOL0     C10515   6.879   2.229   2.020  0.3659  0.0514  0.1464
  838MOL0     C10516   6.889   2.365   1.991  0.0507  1.0060 -0.5687
  838MOL0     C10517   6.972   2.412   1.884 -0.1961  0.0181 -0.5282
  838MOL0     C10518   7.052   2.322   1.824  0.3090 -1.1245 -0.6680
  838MOL0     O10519   7.155   2.365   1.741 -0.2602  0.7260 -0.1657
  838MOL0     C10520   7.207   2.497   1.766  0.4500  0.0748 -0.4716
  838MOL0     C10521   7.339   2.512   1.709 -0.8110  0.4205 -0.3148
  838MOL0     C10522   7.449   2.447   1.801 -1.0209  0.3075  0.3194
  838MOL0     C10523   7.435   2.309   1.861  0.2345  0.2164 -0.0370
  838MOL0     C10524   7.582   2.284   1.912  0.5085 -0.6968 -1.0366
  838MOL0     C10525   7.588   2.155   1.987  0.3980  1.4675  0.0040
  838MOL0     C10526   7.720   2.126   2.060  0.2074  0.7800  0.3241
  838MOL0     C10527   7.724   1.989   2.138 -0.2821  0.4633 -0.1985
  838MOL0    Cl10528   7.575   1.949   2.233 -0.3646  0.0640  0.5438
  838MOL0     C10529   7.040   2.181   1.849 -1.1927 -0.2630  0.9858
  838MOL0     C10530   6.961   2.136   1.949  0.1504  0.5641  0.5930
  838MOL0     O10531   6.678   2.019   2.018 -0.2832  0.7256 -0.4175
  838MOL0     C10532   6.694   1.852   2.244  0.9137  0.6572  0.7068
  838MOL0     C10533   6.689   1.796   2.372  0.2393  0.3795 -0.0316
  838MOL0     N10534   6.374   1.952   2.896  0.3375 -0.3890  0.0825
  838MOL0     N10535   6.329   2.006   2.996 -0.3919  0.0895 -0.0899
  838MOL0     C10536   5.102   2.232   3.196  0.0364 -0.6292 -0.4388
  838MOL0     C10537   4.981   2.245   3.141 -0.5726 -0.7151  0.3346
  838MOL0     C10538   4.606   2.258   2.941  0.3381 -0.4826  0.0590
  838MOL0     C10539   4.616   2.282   2.795  0.3392  0.0686 -0.3503
  838MOL0     C10540   4.515   2.352   2.725 -0.8809  0.6170 -0.1931
  838MOL0     C10541   4.416   2.414   2.807  1.2845  0.5518  1.1164
  838MOL0     O10542   4.332   2.504   2.742  0.3520 -0.5860 -0.1401
  838MOL0     C10543   4.302   2.631   2.804 -0.3523 -0.4062  0.3229
  838MOL0     C10544   4.410   2.710   2.872 -0.1742 -0.5667  0.3573
  838MOL0     C10545   4.531   2.723   2.769 -1.5596 -0.3107 -0.2883
  838MOL0     C10546   4.663   2.778   2.839 -0.1546  0.8333 -0.7216
  838MOL0     C10547   4.740   2.662   2.913 -0.2319  0.3556 -0.2298
  838MOL0     C10548   4.789   2.568   2.960 -0.1408  0.6227  1.1498
  838MOL0     C10549   4.396   2.380   2.938 -0.6457 -0.2481 -0.7679
  838MOL0     C10550   4.494   2.305   3.004  0.4692  0.8873 -0.6609
  838MOL0     H10551   4.988   1.994   2.906  1.8852 -0.9930  0.8166
  838MOL0     H10552   5.232   1.997   2.984 -0.9125  1.2321 -1.9326
  838MOL0     H10553   5.295   2.218   3.377 -3.0047 -0.7320 -2.3667
  838MOL0     H10554   5.380   2.312   3.263 -0.6430  0.7262  0.4418
  838MOL0     H10555   5.464   2.053   3.422 -0.0728 -0.4262  0.0449
  838MOL0     H10556   5.527   2.220   3.428 -0.8586  2.3966 -1.5751
  838MOL0     H10557   5.607   2.205   3.195 -2.9609  0.0694 -1.5378
  838MOL0     H10558   5.560   2.034   3.191 -0.5827  0.5578 -0.5792
  838MOL0     H10559   5.761   2.118   3.411 -1.1510 -0.4299  0.5487
  838MOL0     H10560   5.699   1.966   3.385  2.6284  0.2227  1.4019
  838MOL0     H10561   5.843   2.113   3.150  0.9437 -0.5384  0.0454
  838MOL0     H10562   5.816   1.942   3.157  1.9724  0.1833 -0.1055
  838MOL0     H10563   5.950   1.911   3.336 -3.1532  1.5819  3.4741
  838MOL0     H10564   5.992   2.087   3.351  1.2068 -0.0499 -2.0508
  838MOL0     H10565   6.016   1.945   3.080 -2.6847  0.5455  1.3244
  838MOL0     H10566   6.074   2.109   3.129  2.9977 -0.6000 -0.2311
  838MOL0     H10567   6.179   1.839   3.257  1.4505 -1.0004 -1.9336
  838MOL0     H10568   6.255   1.995   3.277  0.7331 -0.3218  0.4380
  838MOL0     H10569   6.294   1.694   3.077 -0.2277 -0.4688 -2.6869
  838MOL0     H10570   6.415   1.768   2.710  1.4506 -1.3412  0.2936
  838MOL0     H10571   6.330   1.640   2.804 -0.1621 -1.5004 -0.4672
  838MOL0     H10572   6.566   1.596   2.751  4.1698  2.5046 -0.0939
  838MOL0     H10573   6.542   1.594   2.922  0.5722  1.3410  0.9852
  838MOL0     H10574   6.656   1.820   2.940 -2.4141  1.6467 -0.2862
  838MOL0     H10575   6.758   1.715   2.842 -1.9791 -2.1639  0.4257
  838MOL0     H10576   6.752   1.930   2.747 -1.3252  2.1888 -1.2558
  838MOL0     H10577   6.572   1.930   2.744  0.4769  1.2407 -4.5841
  838MOL0     H10578   6.691   2.074   2.560 -0.7671  1.5886 -1.1656
  838MOL0     H10579   6.708   2.175   2.346  2.1871  0.6752  1.3421
  838MOL0     H10580   6.837   2.438   2.052 -0.2224 -1.6214  2.5856
  838MOL0     H10581   6.977   2.520   1.882  1.5983 -0.0484 -1.4157
  838MOL0     H10582   7.222   2.511   1.874 -1.8539  1.9263 -0.3015
  838MOL0     H10583   7.142   2.578   1.731 -1.7220  0.2335  3.3833
  838MOL0     H10584   7.365   2.618   1.701  0.9771 -0.0888 -2.0092
  838MOL0     H10585   7.343   2.475   1.606 -0.6198 -1.2206  0.2558
  838MOL0     H10586   7.468   2.506   1.891  2.1420 -2.1413  1.4420
  838MOL0     H10587   7.545   2.459   1.750 -1.2584  0.4837 -0.0938
  838MOL0     H10588   7.355   2.298   1.935 -0.7961 -0.3878 -1.2109
  838MOL0     H10589   7.402   2.243   1.780 -1.9723 -0.4142  1.2829
  838MOL0     H10590   7.618   2.367   1.974 -1.1055  0.0530 -1.0366
  838MOL0     H10591   7.653   2.288   1.829 -1.2422  4.0072 -2.6557
  838MOL0     H10592   7.559   2.075   1.918 -0.1072 -0.4489  2.3048
  838MOL0     H10593   7.511   2.151   2.065  2.7070  1.7151  2.4617
  838MOL0     H10594   7.804   2.140   1.992  2.1233  5.5563  3.2018
  838MOL0     H10595   7.747   2.209   2.125  3.0365 -0.7184  1.2065
  838MOL0     H10596   7.810   1.989   2.204  0.6351 -1.4740 -1.3183
  838MOL0     H10597   7.741   1.908   2.066  1.0731  0.9907 -0.5049
  838MOL0     H10598   7.098   2.120   1.780 -2.7607 -1.9013  1.0177
  838MOL0     H10599   6.956   2.031   1.975  0.2101  1.0676  2.9170
  838MOL0     H10600   6.693   1.792   2.154 -0.1799  3.3554 -1.2175
  838MOL0     H10601   6.716   1.690   2.373 -0.9639 -0.0537  3.8251
  838MOL0     H10602   5.131   2.301   3.275  0.3313 -0.9181 -0.2906
  838MOL0     H10603   4.915   2.324   3.175 -2.2506 -1.9231  0.0301
  838MOL0     H10604   4.709   2.258   2.744  2.8459  4.9755  1.2635
  838MOL0     H10605   4.533   2.363   2.619 -0.7008 -0.7776 -0.3242
  838MOL0     H10606   4.226   2.607   2.879  1.7310 -2.9011  1.8162
  838MOL0     H10607   4.265   2.701   2.729  3.3986  2.1922  0.6091
  838MOL0     H10608   4.386   2.813   2.899  0.1830  0.4404 -2.7584
  838MOL0     H10609   4.435   2.653   2.962  2.2220  3.4451  2.5225
  838MOL0     H10610   4.511   2.797   2.691  3.4351  3.4181  1.3793
  838MOL0     H10611   4.562   2.631   2.720 -1.8168  0.5977 -2.2259
  838MOL0     H10612   4.730   2.835   2.773  1.2356  2.1471  1.6782
  838MOL0     H10613   4.627   2.853   2.909 -0.7625  0.0678 -0.1923
  838MOL0     H10614   4.831   2.472   2.985  0.4001 -0.0204 -1.8446
  838MOL0     H10615   4.317   2.415   3.003  0.4661 -2.5886  2.0833
  838MOL0     H10616   4.485   2.281   3.110 -0.5141  0.9442 -0.7185
  839MOL0     O10617  10.421   5.647   0.444  0.7844 -0.5958  0.7022
  839MOL0     C10618  10.390   5.700   0.549 -0.0805 -0.2377  0.1037
  839MOL0     O10619  10.267   5.749   0.584  0.1238  0.1495 -0.0489
  839MOL0     C10620  10.188   5.781   0.472  0.6519 -0.7329  0.5755
  839MOL0     C10621  10.215   5.894   0.390 -0.2845 -0.0223 -1.1628
  839MOL0     C10622  10.121   5.937   0.297  0.2816 -0.2636 -0.1975
  839MOL0     C10623  10.005   5.862   0.272 -1.0593  0.3793 -0.1717
  839MOL0     O10624   9.916   5.909   0.183  0.4234  0.2351 -0.0687
  839MOL0     C10625   9.781   5.924   0.224  0.5981  0.5463 -0.4209
  839MOL0     C10626   9.692   5.981   0.110  0.4834  0.4017  0.1789
  839MOL0     C10627   9.594   6.086   0.168 -0.6741 -1.0181 -0.4387
  839MOL0     C10628   9.503   6.141   0.056  0.0632 -0.1216  0.7528
  839MOL0     C10629   9.461   6.288   0.077 -0.4855  0.3541 -0.9013
  839MOL0     C10630   9.382   6.287   0.214 -0.2118 -1.1075  0.4881
  839MOL0     C10631   9.251   6.370   0.185 -0.7425 -0.6026  0.1656
  839MOL0     C10632   9.151   6.383   0.302  0.0133  0.2531 -0.5668
  839MOL0     N10633   9.025   6.315   0.270 -0.3761 -0.7841  0.4505
  839MOL0     C10634   9.012   6.186   0.292 -0.2374 -0.5408  1.3857
  839MOL0     C10635   8.880   6.166   0.287 -0.2707  1.0126 -0.1766
  839MOL0     C10636   8.823   6.029   0.300  0.1391 -0.2370 -0.0972
  839MOL0     C10637   8.678   6.023   0.325 -0.4718 -1.2043  0.1381
  839MOL0     C10638   8.640   6.089   0.458 -0.6525 -0.4442  0.7160
  839MOL0     C10639   8.500   6.060   0.530 -0.2181 -0.2661 -0.3942
  839MOL0     O10640   8.395   6.101   0.442 -0.7195 -0.5086  0.0615
  839MOL0     C10641   8.269   6.062   0.468  0.3229 -0.3652 -0.3650
  839MOL0     C10642   8.217   5.941   0.413 -0.3173  0.1240  0.9452
  839MOL0     C10643   8.090   5.921   0.421  0.5922  0.2085 -0.0826
  839MOL0     C10644   8.005   6.022   0.477 -0.0863  0.1775 -0.3120
  839MOL0     C10645   7.863   5.992   0.476 -0.0562  0.1351  0.1071
  839MOL0     O10646   7.822   5.870   0.517  0.2067 -0.3013  0.2358
  839MOL0     C10647   7.692   5.841   0.494 -0.1184  0.1994 -1.0863
  839MOL0     C10648   7.647   5.781   0.372 -0.1701 -0.8606  0.6651
  839MOL0     C10649   7.517   5.744   0.343  0.3460  0.0879 -0.2202
  839MOL0     C10650   7.421   5.771   0.436 -0.2339 -0.1875 -0.2880
  839MOL0     O10651   7.293   5.748   0.395  0.5467  0.2418  0.9016
  839MOL0     C10652   7.185   5.813   0.465 -0.2082 -0.5407 -0.2772
  839MOL0     C10653   7.059   5.841   0.375  0.7050 -0.0352 -0.5662
  839MOL0     C10654   6.938   5.896   0.456 -0.6579 -0.1897  0.3548
  839MOL0     C10655   6.805   5.898   0.382  0.6920  1.1837  0.2712
  839MOL0     C10656   6.689   5.897   0.491 -0.0357  1.2301  0.3441
  839MOL0     C10657   6.569   5.808   0.451 -1.0218  0.0777  0.3146
  839MOL0     C10658   6.451   5.798   0.554 -0.0445  0.2592 -0.2738
  839MOL0     C10659   6.364   5.925   0.537  0.2682 -0.3598  0.1623
  839MOL0    Cl10660   6.304   5.943   0.369  0.0433 -0.0691  0.2428
  839MOL0     C10661   7.465   5.820   0.558 -1.0063 -0.4799 -0.8751
  839MOL0     C10662   7.596   5.847   0.592  0.5906 -0.6965  0.3107
  839MOL0     O10663   7.792   6.092   0.460  0.3520  0.5735 -0.6003
  839MOL0     C10664   8.053   6.145   0.524 -0.4411  0.1427  0.0909
  839MOL0     C10665   8.190   6.166   0.512 -0.2768  0.5069  1.0527
  839MOL0     N10666   8.813   6.287   0.253  0.0234  0.4647  0.4465
  839MOL0     N10667   8.901   6.375   0.252  0.7133 -0.0468  0.4816
  839MOL0     C10668   9.969   5.759   0.367  0.5846  0.6422  0.7725
  839MOL0     C10669  10.066   5.712   0.459  0.3962 -0.7423  0.0060
  839MOL0     C10670  10.493   5.693   0.656 -0.3982  0.6485  0.7855
  839MOL0     C10671  10.611   5.632   0.635  0.6814  0.5219  0.2056
  839MOL0     C10672  10.714   5.619   0.740  0.3897  0.0403  0.2565
  839MOL0     C10673  10.685   5.679   0.866 -1.0959 -0.0457 -0.3970
  839MOL0     O10674  10.778   5.658   0.958 -0.2734  0.3651  0.1049
  839MOL0     C10675  10.776   5.730   1.076  0.6037  0.3087 -0.0548
  839MOL0     C10676  10.911   5.746   1.145 -0.3359 -0.7565 -0.1100
  839MOL0     C10677  11.001   5.617   1.129 -0.6735 -0.6576  0.3512
  839MOL0     C10678  11.074   5.591   1.260 -0.6476  0.6833  0.8645
  839MOL0     C10679  11.202   5.516   1.245  0.3529  0.6699  0.4120
  839MOL0     C10680  11.303   5.459   1.221  1.7049  0.2942 -0.3835
  839MOL0     C10681  10.562   5.746   0.880 -0.7185  0.8575 -0.2122
  839MOL0     C10682  10.462   5.749   0.785  0.3313  0.0459  0.3629
  839MOL0     H10683  10.307   5.951   0.404 -1.2305  1.1603  0.6129
  839MOL0     H10684  10.161   6.018   0.237  0.6594  1.2356  1.9897
  839MOL0     H10685   9.766   5.976   0.318 -1.7022 -3.9593  2.0024
  839MOL0     H10686   9.739   5.826   0.249  2.3263 -0.0201  0.4591
  839MOL0     H10687   9.626   5.901   0.076  2.2606 -0.6212 -0.9932
  839MOL0     H10688   9.753   6.020   0.028  1.9051 -2.1981 -0.1080
  839MOL0     H10689   9.654   6.168   0.208  1.7160 -1.8974 -1.9905
  839MOL0     H10690   9.524   6.039   0.237 -1.4830 -0.6112 -0.9659
  839MOL0     H10691   9.572   6.155  -0.028  3.3554 -2.7287  2.7785
  839MOL0     H10692   9.419   6.076   0.030  0.4784 -0.7887  1.0748
  839MOL0     H10693   9.406   6.328  -0.009 -2.1246 -0.4881 -0.2839
  839MOL0     H10694   9.550   6.352   0.078  0.2009 -0.5725 -1.5928
  839MOL0     H10695   9.432   6.330   0.301  1.1807 -0.4695 -0.5786
  839MOL0     H10696   9.345   6.189   0.243 -4.3835  0.4922  1.2666
  839MOL0     H10697   9.283   6.472   0.161 -2.4418  1.3883  4.9573
  839MOL0     H10698   9.200   6.316   0.106 -0.4362 -1.7777  0.7468
  839MOL0     H10699   9.141   6.492   0.308 -0.9005  0.1088  1.0718
  839MOL0     H10700   9.205   6.348   0.391  2.6437 -3.0057 -3.1695
  839MOL0     H10701   9.094   6.116   0.303  0.8826  0.9663  3.1731
  839MOL0     H10702   8.880   5.976   0.376 -0.7903 -2.3500 -0.7694
  839MOL0     H10703   8.842   5.991   0.199 -0.4014 -0.2819 -0.1877
  839MOL0     H10704   8.652   5.918   0.310 -0.1502 -1.2974  0.2302
  839MOL0     H10705   8.630   6.080   0.245  1.2767 -0.7401 -0.6299
  839MOL0     H10706   8.718   6.084   0.534 -0.1952 -0.0880  0.2806
  839MOL0     H10707   8.627   6.195   0.434 -0.8307 -0.7248 -0.5205
  839MOL0     H10708   8.491   6.108   0.628  0.9601  1.5978 -1.1404
  839MOL0     H10709   8.501   5.952   0.544 -1.7601 -0.3958 -1.0790
  839MOL0     H10710   8.285   5.869   0.368 -0.5197  0.8222 -0.5518
  839MOL0     H10711   8.054   5.827   0.381  1.1053 -0.8868  1.8869
  839MOL0     H10712   7.711   5.772   0.285 -0.4313 -3.8696  0.6892
  839MOL0     H10713   7.479   5.695   0.253  1.2067  0.6763 -0.9284
  839MOL0     H10714   7.211   5.909   0.510 -1.8001 -1.7011  3.5525
  839MOL0     H10715   7.150   5.747   0.544  2.7062  0.9750  2.5092
  839MOL0     H10716   7.027   5.740   0.347  0.1058  0.3354 -1.2560
  839MOL0     H10717   7.080   5.896   0.283  2.7712 -1.5076 -1.0382
  839MOL0     H10718   6.969   5.993   0.495  1.4633  0.3982 -2.4117
  839MOL0     H10719   6.928   5.830   0.542 -0.9555 -1.0341 -0.3138
  839MOL0     H10720   6.805   5.980   0.309  0.2051 -0.7652 -2.0637
  839MOL0     H10721   6.802   5.804   0.325  2.1140 -0.8681  3.2866
  839MOL0     H10722   6.656   5.996   0.522  1.1626  1.6604  0.3096
  839MOL0     H10723   6.726   5.852   0.584 -1.2281 -6.3287 -2.1324
  839MOL0     H10724   6.613   5.708   0.441 -2.7317 -0.4942 -2.3287
  839MOL0     H10725   6.537   5.834   0.350 -2.0232 -1.2830  0.2426
  839MOL0     H10726   6.390   5.709   0.537 -2.2451  0.9205  3.1496
  839MOL0     H10727   6.483   5.792   0.659 -2.8864 -0.5897  0.6223
  839MOL0     H10728   6.428   6.011   0.558  2.6449 -1.5830 -1.5693
  839MOL0     H10729   6.280   5.915   0.606  0.7584 -2.3964  0.5283
  839MOL0     H10730   7.395   5.855   0.634 -0.6324 -0.3116 -0.6032
  839MOL0     H10731   7.635   5.872   0.689  6.3194 -2.9010 -1.0412
  839MOL0     H10732   7.983   6.221   0.560 -0.7012 -0.2619  0.4495
  839MOL0     H10733   8.227   6.265   0.539  2.0413 -0.3096  1.0368
  839MOL0     H10734   9.874   5.708   0.355  1.1684 -0.1980 -0.4320
  839MOL0     H10735  10.046   5.624   0.519 -0.1834  0.5626  1.7990
  839MOL0     H10736  10.629   5.584   0.539 -1.1763 -0.2731  0.2131
  839MOL0     H10737  10.807   5.565   0.733  1.0822  0.5197  3.9984
  839MOL0     H10738  10.714   5.663   1.138  0.4759 -2.1571 -2.6662
  839MOL0     H10739  10.736   5.832   1.070  1.5251  0.8435  1.8905
  839MOL0     H10740  10.980   5.825   1.115  0.8823 -0.2373  3.6490
  839MOL0     H10741  10.885   5.775   1.247  3.0745  0.3228  0.5503
  839MOL0     H10742  11.064   5.633   1.041 -2.4865  0.1378 -0.8706
  839MOL0     H10743  10.959   5.520   1.101  3.6899 -1.9711 -2.6654
  839MOL0     H10744  11.108   5.684   1.307  3.5289 -0.2802  0.1551
  839MOL0     H10745  11.015   5.534   1.333  0.0574  0.4521  1.2693
  839MOL0     H10746  11.405   5.425   1.215  1.9086  0.1122  2.5668
  839MOL0     H10747  10.525   5.785   0.975  0.6900 -1.0759  1.1975
  839MOL0     H10748  10.365   5.796   0.803 -0.1438 -1.0773  0.8354
  840MOL0     O10749   0.788  10.993   2.293 -0.3971 -0.1183 -0.5981
  840MOL0     C10750   0.808  11.113   2.283  0.4432 -0.1736 -0.3049
  840MOL0     O10751   0.765  11.180   2.174 -0.1786 -0.3902  0.3059
  840MOL0     C10752   0.816  11.137   2.055 -0.5411 -0.0242  0.3157
  840MOL0     C10753   0.777  11.024   1.997 -0.9994  0.2205 -0.5167
  840MOL0     C10754   0.839  10.979   1.876  0.3526  0.0125 -0.8359
  840MOL0     C10755   0.937  11.052   1.808  0.4019 -0.4026 -0.0700
  840MOL0     O10756   0.993  11.026   1.687 -0.7507 -0.2148  0.4310
  840MOL0     C10757   1.054  10.899   1.685 -0.5020  0.3373  0.1196
  840MOL0     C10758   1.092  10.875   1.540 -0.5247 -0.1587  0.5550
  840MOL0     C10759   0.963  10.845   1.453 -0.6393  0.4511 -0.9553
  840MOL0     C10760   1.008  10.842   1.313  0.7216 -0.2702  0.7288
  840MOL0     C10761   0.893  10.820   1.216  0.5772  0.1991  0.1777
  840MOL0     C10762   0.856  10.668   1.186 -0.0319  0.0511  0.6840
  840MOL0     C10763   0.777  10.656   1.059  1.2040 -0.6636 -0.0167
  840MOL0     C10764   0.757  10.509   1.020  0.3349 -0.6974 -0.5860
  840MOL0     N10765   0.716  10.491   0.886 -1.3327  0.3812 -0.0425
  840MOL0     C10766   0.777  10.398   0.796  0.2722  0.1065  1.2891
  840MOL0     C10767   0.711  10.416   0.678  0.3343  0.7759  0.8458
  840MOL0     C10768   0.751  10.369   0.538  0.6458 -0.7086  0.0231
  840MOL0     C10769   0.722  10.222   0.509  0.6974  0.3690 -0.2613
  840MOL0     C10770   0.741  10.130   0.634 -1.2548 -0.5894 -0.6236
  840MOL0     C10771   0.684   9.992   0.599  0.7232 -0.0959 -0.0414
  840MOL0     O10772   0.713   9.895   0.712  0.3012  0.3968  0.6926
  840MOL0     C10773   0.676   9.765   0.702  0.0463 -0.3379  0.0290
  840MOL0     C10774   0.719   9.684   0.802  0.4923 -0.4630  0.2683
  840MOL0     C10775   0.667   9.551   0.815  0.1423 -0.0332 -0.7906
  840MOL0     C10776   0.577   9.490   0.716 -0.0720 -0.0307 -0.2448
  840MOL0     C10777   0.510   9.352   0.726 -0.0364  0.4364  0.1540
  840MOL0     O10778   0.495   9.296   0.847 -0.3456  0.2195 -0.2732
  840MOL0     C10779   0.424   9.185   0.878 -0.0115  0.8357  0.0396
  840MOL0     C10780   0.335   9.192   0.982  0.5388 -0.3021  0.3136
  840MOL0     C10781   0.245   9.087   0.998 -0.6749  0.3526  0.2952
  840MOL0     C10782   0.245   8.974   0.917  0.0040 -0.7760 -0.1290
  840MOL0     O10783   0.137   8.893   0.918  0.0994  0.0702  0.1765
  840MOL0     C10784   0.009   8.959   0.883 -0.5490  0.0358 -0.0128
  840MOL0     C10785  -0.085   8.837   0.904 -0.2019  0.2633  0.2701
  840MOL0     C10786  -0.213   8.839   0.826 -0.2498 -0.2585 -0.1661
  840MOL0     C10787  -0.292   8.705   0.836 -0.1496  0.9451  0.9320
  840MOL0     C10788  -0.447   8.697   0.804 -0.9935  0.7373 -0.7198
  840MOL0     C10789  -0.504   8.566   0.855 -0.0370  0.5015  0.2997
  840MOL0     C10790  -0.513   8.545   1.006  1.6969  0.1871 -0.8998
  840MOL0     C10791  -0.588   8.406   1.029  0.0882 -0.4190 -0.6874
  840MOL0    Cl10792  -0.753   8.431   0.989 -0.1672  0.1650 -0.0463
  840MOL0     C10793   0.338   8.959   0.816  0.2263  0.0307  0.3626
  840MOL0     C10794   0.431   9.065   0.797  0.6819 -0.2313  1.0099
  840MOL0     O10795   0.474   9.300   0.619 -0.1910 -0.0021  0.3576
  840MOL0     C10796   0.539   9.579   0.614 -0.9294  0.5188  0.5027
  840MOL0     C10797   0.592   9.710   0.605 -0.1717 -0.3659 -0.0796
  840MOL0     N10798   0.609  10.509   0.695 -0.4881  0.2730  0.6091
  840MOL0     N10799   0.620  10.551   0.817 -0.0503 -0.2406  0.3667
  840MOL0     C10800   0.955  11.177   1.861 -1.1906  0.1775 -0.3731
  840MOL0     C10801   0.894  11.225   1.977 -0.3521 -0.2712  0.1782
  840MOL0     C10802   0.858  11.190   2.396 -0.7015 -0.3626 -0.7017
  840MOL0     C10803   0.895  11.327   2.374  0.0599 -0.5430 -0.7173
  840MOL0     C10804   0.965  11.389   2.477 -0.8987 -1.0976 -0.1072
  840MOL0     C10805   0.978  11.332   2.610 -1.2387  0.0214 -0.2288
  840MOL0     O10806   1.029  11.392   2.719 -0.5516  0.4836  0.4055
  840MOL0     C10807   1.116  11.509   2.720 -0.0251 -0.5318  0.4301
  840MOL0     C10808   1.185  11.520   2.855 -0.7800 -1.5235 -0.7904
  840MOL0     C10809   1.295  11.427   2.854 -0.1041 -0.0867 -0.7461
  840MOL0     C10810   1.370  11.406   2.988 -0.1218 -1.0111 -0.1172
  840MOL0     C10811   1.366  11.266   3.039 -0.3017 -0.3123  0.1108
  840MOL0     C10812   1.366  11.156   3.075 -0.0965  0.1284  0.4997
  840MOL0     C10813   0.935  11.202   2.629 -0.0030 -0.1705  0.0860
  840MOL0     C10814   0.891  11.132   2.525  1.7411 -0.0569  0.1667
  840MOL0     H10815   0.708  10.965   2.056  0.7919 -1.5247 -0.0677
  840MOL0     H10816   0.808  10.883   1.834 -0.0471 -1.4332  2.4302
  840MOL0     H10817   0.994  10.823   1.736  1.0195  0.4601  2.1939
  840MOL0     H10818   1.147  10.913   1.742 -0.7285  2.2274  0.0853
  840MOL0     H10819   1.154  10.786   1.530 -2.6384 -1.5702 -0.6543
  840MOL0     H10820   1.144  10.962   1.498  0.5880 -0.9217  0.3096
  840MOL0     H10821   0.885  10.918   1.473  0.0945  1.5792 -2.0530
  840MOL0     H10822   0.918  10.751   1.485 -4.2746  2.5516  0.5966
  840MOL0     H10823   1.041  10.944   1.293 -0.5385  0.0132 -0.0516
  840MOL0     H10824   1.090  10.772   1.296  0.8922  0.4019 -1.5849
  840MOL0     H10825   0.924  10.869   1.123 -0.3130 -0.7891 -0.6728
  840MOL0     H10826   0.801  10.867   1.253  0.0328 -0.2357 -0.5973
  840MOL0     H10827   0.794  10.611   1.256 -0.4572 -0.4802 -0.1126
  840MOL0     H10828   0.945  10.606   1.201 -2.7121 -3.5509  3.7383
  840MOL0     H10829   0.677  10.701   1.067  0.7144 -1.5502 -0.8506
  840MOL0     H10830   0.833  10.711   0.984 -0.4675  2.1944  0.6858
  840MOL0     H10831   0.684  10.463   1.086 -0.8929  0.7633 -0.8553
  840MOL0     H10832   0.849  10.452   1.039  0.2716 -0.3204  0.9419
  840MOL0     H10833   0.871  10.345   0.808 -0.9145 -1.8512  2.8359
  840MOL0     H10834   0.858  10.391   0.523  0.6080 -0.4630  0.1059
  840MOL0     H10835   0.694  10.435   0.471 -1.5411 -0.9181  1.5899
  840MOL0     H10836   0.779  10.189   0.423 -2.4889 -0.5842 -2.1724
  840MOL0     H10837   0.614  10.213   0.494  0.7117  1.2529 -0.9895
  840MOL0     H10838   0.848  10.110   0.648 -1.4056 -1.2560 -0.4116
  840MOL0     H10839   0.704  10.178   0.725  3.8045  1.8271  0.5315
  840MOL0     H10840   0.732   9.953   0.508 -0.8517 -0.8024 -0.6152
  840MOL0     H10841   0.579  10.001   0.569 -0.0798 -2.8682  1.5863
  840MOL0     H10842   0.784   9.722   0.880 -1.2149 -2.5759  2.8932
  840MOL0     H10843   0.682   9.490   0.904 -1.0399 -1.2188 -1.3694
  840MOL0     H10844   0.338   9.250   1.074 -2.2614 -2.7087  2.1017
  840MOL0     H10845   0.181   9.099   1.086 -1.1686 -2.1174  0.3379
  840MOL0     H10846   0.010   8.989   0.778 -0.9607 -0.5023 -0.1729
  840MOL0     H10847  -0.009   9.035   0.959  1.5941  0.4680  0.1263
  840MOL0     H10848  -0.099   8.826   1.012  1.4333 -3.2990  0.2674
  840MOL0     H10849  -0.038   8.745   0.866 -1.9659 -0.1665 -1.0205
  840MOL0     H10850  -0.172   8.843   0.725  0.9420  3.3241  0.3330
  840MOL0     H10851  -0.275   8.925   0.855 -0.1579 -0.2904  0.1251
  840MOL0     H10852  -0.258   8.643   0.753  0.9453  2.2496  0.3670
  840MOL0     H10853  -0.270   8.654   0.930  0.8885 -0.7076 -0.1505
  840MOL0     H10854  -0.468   8.706   0.697 -0.3951 -0.7567 -0.9933
  840MOL0     H10855  -0.493   8.784   0.850 -2.3056 -0.5652  0.5201
  840MOL0     H10856  -0.449   8.485   0.805  0.7063  1.5729 -0.6568
  840MOL0     H10857  -0.608   8.573   0.823 -0.1918  4.0507  1.1973
  840MOL0     H10858  -0.417   8.536   1.058  2.2772 -3.9872 -2.2956
  840MOL0     H10859  -0.570   8.631   1.044 -0.1991 -1.4372  0.1304
  840MOL0     H10860  -0.575   8.391   1.137  1.3945 -1.3012 -0.9358
  840MOL0     H10861  -0.535   8.324   0.981  1.8515  1.4695 -2.1930
  840MOL0     H10862   0.329   8.869   0.756 -1.8077  0.8032 -0.5703
  840MOL0     H10863   0.500   9.051   0.715 -0.6452  0.0136 -0.1994
  840MOL0     H10864   0.475   9.538   0.536  3.2109 -0.8587 -2.5209
  840MOL0     H10865   0.542   9.771   0.531 -0.9180 -0.3744  0.4101
  840MOL0     H10866   1.022  11.250   1.817 -1.7898  0.5765 -0.6419
  840MOL0     H10867   0.900  11.328   2.010 -4.3579  0.2746 -0.3222
  840MOL0     H10868   0.886  11.370   2.275  0.2066 -4.0334 -2.4030
  840MOL0     H10869   1.029  11.472   2.450 -2.1068 -0.4842 -1.1863
  840MOL0     H10870   1.049  11.595   2.705  1.7902  1.0731  1.0940
  840MOL0     H10871   1.177  11.503   2.629  0.8172  1.9823  0.7504
  840MOL0     H10872   1.218  11.622   2.873  2.3980 -2.2978 -1.5683
  840MOL0     H10873   1.128  11.511   2.948 -0.6418 -0.2347 -0.5637
  840MOL0     H10874   1.369  11.477   2.791 -1.2878 -2.2772 -4.2147
  840MOL0     H10875   1.264  11.332   2.808 -1.3035 -0.3022  0.4301
  840MOL0     H10876   1.474  11.434   2.968 -0.2201 -0.8191 -0.3565
  840MOL0     H10877   1.327  11.466   3.070 -0.1041  0.4768 -1.1564
  840MOL0     H10878   1.371  11.059   3.120  0.6853 -0.2300 -0.3222
  840MOL0     H10879   0.960  11.149   2.721 -1.5928 -1.3445 -0.1110
  840MOL0     H10880   0.862  11.028   2.538 -0.4387  0.3968 -0.7099
  841MOL0     O10881  10.981   9.839   7.069 -0.5089 -0.2034  0.2533
  841MOL0     C10882  10.912   9.879   7.160  0.5767 -0.7567 -0.3947
  841MOL0     O10883  10.956   9.897   7.290  0.3615 -0.3076  0.5687
  841MOL0     C10884  11.071   9.838   7.346  0.2011  0.4496  1.4755
  841MOL0     C10885  11.191   9.844   7.265 -0.1319  0.0511 -1.8466
  841MOL0     C10886  11.309   9.803   7.326  0.1952 -0.4525  0.2915
  841MOL0     C10887  11.308   9.740   7.454  0.1607 -0.0058 -0.3418
  841MOL0     O10888  11.415   9.686   7.517 -0.5435  0.0681  0.2243
  841MOL0     C10889  11.514   9.631   7.426 -1.2171 -0.9676 -1.1192
  841MOL0     C10890  11.593   9.521   7.501  0.2326 -0.7589  0.2629
  841MOL0     C10891  11.712   9.449   7.427 -0.2506  0.6468 -0.1321
  841MOL0     C10892  11.790   9.357   7.531 -0.0160  1.4179 -0.8573
  841MOL0     C10893  11.904   9.296   7.448  0.0805 -0.0251 -0.3837
  841MOL0     C10894  11.843   9.181   7.370 -0.3259  0.4406  0.2684
  841MOL0     C10895  11.937   9.104   7.282 -0.0327 -1.2225  0.2301
  841MOL0     C10896  12.008   8.989   7.356  1.0574 -0.2118  0.1790
  841MOL0     N10897  12.124   8.930   7.285  0.0020  0.4594 -0.0374
  841MOL0     C10898  12.119   8.837   7.183  0.2721  0.1648  1.0341
  841MOL0     C10899  12.252   8.825   7.147 -0.1143  0.8082  0.0684
  841MOL0     C10900  12.330   8.735   7.051  0.8621 -0.5364 -0.5846
  841MOL0     C10901  12.376   8.612   7.128  0.2492 -0.0351 -0.3660
  841MOL0     C10902  12.423   8.508   7.018 -1.0771 -0.7741  0.0061
  841MOL0     C10903  12.312   8.445   6.935 -0.2276  0.8286 -0.4635
  841MOL0     O10904  12.218   8.373   7.016 -0.8359 -0.7491  0.6740
  841MOL0     C10905  12.124   8.294   6.949 -0.5530 -0.3747  0.6139
  841MOL0     C10906  12.107   8.303   6.811 -0.2201 -0.8572  0.4723
  841MOL0     C10907  12.006   8.228   6.740  0.0084 -0.3133 -0.8665
  841MOL0     C10908  11.920   8.148   6.814 -0.3131 -0.5230 -0.5640
  841MOL0     C10909  11.820   8.066   6.747  0.4180  0.5325 -0.1045
  841MOL0     O10910  11.781   8.101   6.628 -0.5988  0.3902 -0.5796
  841MOL0     C10911  11.693   8.031   6.556  0.3800  0.4999 -0.2265
  841MOL0     C10912  11.729   8.009   6.426 -0.3248  0.2530  0.3065
  841MOL0     C10913  11.659   7.938   6.335 -0.3958 -0.0097  1.0556
  841MOL0     C10914  11.535   7.887   6.371  1.4647  0.1219 -0.4586
  841MOL0     O10915  11.455   7.811   6.291 -0.4872  0.0603  0.6942
  841MOL0     C10916  11.463   7.845   6.146 -0.2555  0.3818 -0.1748
  841MOL0     C10917  11.343   7.776   6.066 -0.1385 -0.3187  0.2481
  841MOL0     C10918  11.400   7.750   5.920  0.1856  0.0530 -0.9247
  841MOL0     C10919  11.299   7.691   5.825 -1.2325  0.1786  0.1516
  841MOL0     C10920  11.162   7.750   5.824  1.2431 -0.7958 -0.8706
  841MOL0     C10921  11.150   7.898   5.802 -0.2063 -0.5842 -0.4078
  841MOL0     C10922  11.016   7.957   5.749  0.2247  0.1593  0.3545
  841MOL0     C10923  10.978   8.105   5.785 -1.2133 -0.4983  0.8800
  841MOL0    Cl10924  11.073   8.220   5.676  0.3508 -0.4974 -0.0417
  841MOL0     C10925  11.493   7.899   6.501 -0.6874  0.2056  0.2650
  841MOL0     C10926  11.574   7.965   6.595  0.5757 -0.4484  0.8760
  841MOL0     O10927  11.780   7.968   6.807  0.1250 -0.0283 -0.1048
  841MOL0     C10928  11.935   8.149   6.952 -0.1572  0.7747 -0.4631
  841MOL0     C10929  12.037   8.222   7.020  0.4135  0.0593  0.4399
  841MOL0     N10930  12.330   8.912   7.214 -0.1588  0.0431  0.0855
  841MOL0     N10931  12.256   8.979   7.292  0.2188 -0.5595  0.4504
  841MOL0     C10932  11.192   9.747   7.529  0.9750  0.1540  0.3382
  841MOL0     C10933  11.075   9.804   7.481 -0.6438 -0.2236 -1.1639
  841MOL0     C10934  10.773   9.911   7.124  0.1252 -0.1151  0.3310
  841MOL0     C10935  10.721   9.897   7.000  0.3912 -0.4919  1.0599
  841MOL0     C10936  10.600   9.960   6.980 -0.6264  0.6041  0.4280
  841MOL0     C10937  10.527  10.041   7.070 -0.1823  0.8099  0.2917
  841MOL0     O10938  10.408  10.097   7.031  0.1142 -0.1057  0.4585
  841MOL0     C10939  10.363  10.195   7.122 -0.9069  0.2802  0.4781
  841MOL0     C10940  10.245  10.273   7.068  0.6310  0.4392  0.4140
  841MOL0     C10941  10.192  10.369   7.183  0.3695 -1.0176  0.2879
  841MOL0     C10942  10.129  10.297   7.307 -0.4267  0.2879 -0.9066
  841MOL0     C10943  10.220  10.271   7.421 -0.8739 -0.4278 -0.2645
  841MOL0     C10944  10.305  10.244   7.511 -0.1098 -0.1521 -0.2023
  841MOL0     C10945  10.584  10.049   7.199 -1.1795 -0.2303 -0.0834
  841MOL0     C10946  10.702   9.980   7.222  0.3638  0.1863  0.5461
  841MOL0     H10947  11.195   9.881   7.163 -3.1588  0.0507 -2.0541
  841MOL0     H10948  11.406   9.818   7.279 -1.2835 -0.9923 -3.2357
  841MOL0     H10949  11.590   9.702   7.394  1.6881 -2.8081  1.2137
  841MOL0     H10950  11.468   9.580   7.341 -1.0030 -0.8566 -1.2994
  841MOL0     H10951  11.521   9.446   7.536 -0.9974  1.3849  2.5873
  841MOL0     H10952  11.642   9.569   7.585  0.7396  0.3454 -0.6344
  841MOL0     H10953  11.768   9.533   7.385 -1.2258  1.7524  0.6868
  841MOL0     H10954  11.664   9.398   7.343  2.4347  0.4945 -1.6767
  841MOL0     H10955  11.833   9.424   7.605 -1.5075  0.3899  1.0378
  841MOL0     H10956  11.732   9.280   7.583 -0.0313  1.9091 -0.1281
  841MOL0     H10957  11.986   9.259   7.509 -0.1096 -0.7876 -0.5882
  841MOL0     H10958  11.941   9.367   7.374 -0.2910 -0.7759 -1.3085
  841MOL0     H10959  11.777   9.218   7.291  0.7631 -0.3108 -1.0585
  841MOL0     H10960  11.790   9.112   7.436 -0.0621  1.0693  1.1493
  841MOL0     H10961  11.878   9.054   7.205  1.0506 -1.6840 -0.3141
  841MOL0     H10962  12.011   9.169   7.235  0.9531 -1.3538  1.5512
  841MOL0     H10963  11.939   8.913   7.394  0.3335 -0.4906 -1.6111
  841MOL0     H10964  12.058   9.027   7.446  0.5682 -0.5022  0.5741
  841MOL0     H10965  12.039   8.764   7.169  1.1561 -0.7375  0.5165
  841MOL0     H10966  12.420   8.788   7.019  2.0603 -2.4802 -0.5610
  841MOL0     H10967  12.273   8.707   6.962 -0.7707 -0.7477  0.4799
  841MOL0     H10968  12.299   8.571   7.193 -3.0468  2.2593 -2.5374
  841MOL0     H10969  12.461   8.637   7.192 -1.7330  0.7322  2.0974
  841MOL0     H10970  12.496   8.544   6.944  2.1233 -3.9954  1.2741
  841MOL0     H10971  12.479   8.429   7.069 -0.1036  0.0966  0.3113
  841MOL0     H10972  12.356   8.363   6.877 -2.3379  0.1755 -1.2328
  841MOL0     H10973  12.256   8.513   6.870 -1.8474 -1.0929 -1.1716
  841MOL0     H10974  12.172   8.361   6.746  0.5198 -1.8515  0.2917
  841MOL0     H10975  11.988   8.215   6.633  1.3846 -3.5367 -0.8095
  841MOL0     H10976  11.821   8.060   6.399 -1.4669  0.1909 -4.5096
  841MOL0     H10977  11.703   7.921   6.237 -0.7121  0.3546  0.8490
  841MOL0     H10978  11.553   7.816   6.091 -1.2753 -2.2984 -0.6191
  841MOL0     H10979  11.464   7.953   6.129 -2.9024  0.0875 -3.0406
  841MOL0     H10980  11.253   7.838   6.058  1.1029  1.2854 -3.3542
  841MOL0     H10981  11.306   7.681   6.104 -1.5222 -0.6387 -1.7231
  841MOL0     H10982  11.494   7.694   5.929 -1.6748 -3.7087 -2.7168
  841MOL0     H10983  11.422   7.846   5.872 -5.3386  1.4871 -1.2560
  841MOL0     H10984  11.355   7.700   5.732 -1.6348  0.2322 -0.0881
  841MOL0     H10985  11.293   7.584   5.847 -1.0423  0.4870  1.8479
  841MOL0     H10986  11.097   7.724   5.909  1.3931 -4.9526 -1.7988
  841MOL0     H10987  11.109   7.698   5.744  1.6814 -2.7406  0.0435
  841MOL0     H10988  11.227   7.913   5.725 -1.1544 -1.8613 -1.6475
  841MOL0     H10989  11.179   7.947   5.896 -4.6735  0.2775  0.7508
  841MOL0     H10990  11.007   7.952   5.640  0.4900 -0.4372  0.3607
  841MOL0     H10991  10.952   7.884   5.799 -0.1659  1.7674  2.3085
  841MOL0     H10992  11.000   8.123   5.891  0.8317  2.6072  0.0557
  841MOL0     H10993  10.875   8.121   5.755 -0.1674  0.7315 -2.5158
  841MOL0     H10994  11.400   7.857   6.537 -1.9885  0.9675 -1.9769
  841MOL0     H10995  11.537   7.970   6.696 -0.2979  1.8556  0.5200
  841MOL0     H10996  11.860   8.094   7.008 -0.4468 -1.0122 -2.4725
  841MOL0     H10997  12.025   8.234   7.127 -0.4826  2.7498  0.1125
  841MOL0     H10998  11.188   9.689   7.622 -0.5247 -0.4538 -0.0725
  841MOL0     H10999  10.993   9.805   7.551  0.4294  0.6128  0.1213
  841MOL0     H11000  10.779   9.861   6.915 -2.8369 -2.2611 -0.5734
  841MOL0     H11001  10.549   9.948   6.885  1.3189 -2.1434 -0.3906
  841MOL0     H11002  10.436  10.273   7.142 -1.8172  1.2995 -0.0688
  841MOL0     H11003  10.333  10.149   7.217  0.5796  2.0659  1.8945
  841MOL0     H11004  10.288  10.315   6.976  2.2670 -1.7001  0.1279
  841MOL0     H11005  10.173  10.192   7.053  2.2003 -1.1904  1.3242
  841MOL0     H11006  10.120  10.435   7.133 -1.1585 -1.3329  1.9821
  841MOL0     H11007  10.273  10.434   7.217  0.2657 -0.9546  0.4119
  841MOL0     H11008  10.060  10.367   7.355  0.7959  2.0300 -1.5643
  841MOL0     H11009  10.073  10.205   7.290  1.4871 -0.9137 -1.0740
  841MOL0     H11010  10.376  10.216   7.586 -0.7703  0.8924  0.8460
  841MOL0     H11011  10.542  10.109   7.279  0.5623 -0.7321  1.2740
  841MOL0     H11012  10.756   9.987   7.316  0.2104 -0.7332  0.7126
  842MOL0     O11013   9.629   4.666   3.893  0.8127  0.5443 -0.0500
  842MOL0     C11014   9.630   4.721   4.002  0.8651 -0.6778  0.1011
  842MOL0     O11015   9.520   4.756   4.076  0.0576 -0.4575  0.0394
  842MOL0     C11016   9.389   4.730   4.041  0.4390 -0.5594 -0.4476
  842MOL0     C11017   9.333   4.740   3.911 -0.9443  0.0833  0.2066
  842MOL0     C11018   9.195   4.723   3.891  1.0217  0.3128 -0.4724
  842MOL0     C11019   9.103   4.709   3.994  0.4911  0.0586 -0.3217
  842MOL0     O11020   8.965   4.711   3.971  0.0040  0.8935  0.4602
  842MOL0     C11021   8.887   4.794   4.061 -0.3480  0.6666 -0.1046
  842MOL0     C11022   8.741   4.814   4.032 -0.6849 -0.2990  0.3470
  842MOL0     C11023   8.713   4.908   3.913 -0.9163 -0.0572  0.5111
  842MOL0     C11024   8.573   4.990   3.916  1.0606  0.7533  0.1974
  842MOL0     C11025   8.458   4.896   3.866  0.8850 -0.7547 -0.2959
  842MOL0     C11026   8.325   4.974   3.878 -0.3402  0.2391 -0.9523
  842MOL0     C11027   8.319   5.092   3.785 -0.6209 -0.2543  1.0013
  842MOL0     C11028   8.178   5.158   3.782 -0.3190  0.0267 -0.5103
  842MOL0     N11029   8.170   5.278   3.696 -0.4879  0.6008  1.1617
  842MOL0     C11030   8.250   5.401   3.694  0.8160 -0.3023  0.8585
  842MOL0     C11031   8.190   5.480   3.593  0.4524 -0.5946  0.0790
  842MOL0     C11032   8.226   5.611   3.529  0.3892 -0.1624  0.0754
  842MOL0     C11033   8.143   5.721   3.586 -0.0119 -0.0362  0.6946
  842MOL0     C11034   8.192   5.741   3.736  0.1999  0.8559  0.2180
  842MOL0     C11035   8.123   5.848   3.807  0.7706 -0.2477  0.5653
  842MOL0     O11036   8.160   5.984   3.770 -0.6017 -0.6618  0.5515
  842MOL0     C11037   8.287   6.024   3.799 -0.4494 -0.7061 -0.1476
  842MOL0     C11038   8.321   6.153   3.757 -0.8361  0.1634  0.5421
  842MOL0     C11039   8.451   6.207   3.787  0.0695 -0.0593  0.7986
  842MOL0     C11040   8.542   6.127   3.862 -0.1376  0.3923  0.4673
  842MOL0     C11041   8.674   6.182   3.900 -0.0185  0.5306  0.0226
  842MOL0     O11042   8.739   6.110   3.994 -0.2831 -0.1327  0.8718
  842MOL0     C11043   8.847   6.181   4.050  0.1278  0.4263  0.2694
  842MOL0     C11044   8.837   6.265   4.162  0.2077 -0.4939 -0.2137
  842MOL0     C11045   8.942   6.323   4.225 -0.5652  0.2917 -0.4657
  842MOL0     C11046   9.067   6.304   4.178 -0.7614  0.4728  0.0289
  842MOL0     O11047   9.166   6.383   4.243  0.1421 -0.1664 -0.1652
  842MOL0     C11048   9.302   6.324   4.243 -0.4523 -0.0746 -0.5435
  842MOL0     C11049   9.402   6.432   4.274 -0.5264  0.0320  0.5959
  842MOL0     C11050   9.544   6.387   4.286  0.0932  0.0273  0.0282
  842MOL0     C11051   9.657   6.486   4.331  0.1846 -0.2785 -0.1985
  842MOL0     C11052   9.695   6.455   4.474 -1.1666 -0.3980 -0.1912
  842MOL0     C11053   9.765   6.577   4.543  0.6357 -0.1817 -0.1864
  842MOL0     C11054   9.784   6.546   4.694 -0.1665 -0.4095 -0.2262
  842MOL0     C11055   9.891   6.641   4.742 -0.2659  0.1655 -0.3502
  842MOL0    Cl11056  10.047   6.595   4.677  0.2100 -0.0705  0.1654
  842MOL0     C11057   9.084   6.239   4.047  0.5733  0.5189 -0.1751
  842MOL0     C11058   8.970   6.177   3.987 -0.9146 -0.5571 -0.2120
  842MOL0     O11059   8.704   6.297   3.858 -0.6259  0.3578 -0.2798
  842MOL0     C11060   8.503   6.003   3.910  0.5225 -0.3951  0.7119
  842MOL0     C11061   8.380   5.957   3.875 -0.5286  0.1359 -0.8576
  842MOL0     N11062   8.088   5.404   3.528 -1.2733 -0.0689  0.7802
  842MOL0     N11063   8.080   5.290   3.594  0.9179 -0.0089  0.4295
  842MOL0     C11064   9.152   4.688   4.123 -1.0195 -0.5021 -1.2341
  842MOL0     C11065   9.297   4.706   4.143  0.6166  0.0420 -0.1988
  842MOL0     C11066   9.760   4.758   4.060  0.0944 -0.3616  0.5049
  842MOL0     C11067   9.882   4.741   3.974  0.4910 -0.6562  0.3210
  842MOL0     C11068  10.008   4.777   4.026  0.5682  0.0848 -0.0197
  842MOL0     C11069  10.018   4.822   4.159  0.2798 -0.4952  0.7622
  842MOL0     O11070  10.141   4.852   4.223 -0.3468 -0.4110 -0.0064
  842MOL0     C11071  10.267   4.829   4.159  0.3924  0.4881  0.0593
  842MOL0     C11072  10.331   4.708   4.227 -0.8466  0.1836  0.2518
  842MOL0     C11073  10.268   4.571   4.203 -0.0445 -0.5221  0.5147
  842MOL0     C11074  10.336   4.461   4.288  0.8861 -0.5052  0.1817
  842MOL0     C11075  10.314   4.483   4.434  0.9185 -0.7280 -0.1112
  842MOL0     C11076  10.285   4.513   4.545  1.1920 -0.7094  0.5175
  842MOL0     C11077   9.911   4.827   4.243 -0.3800 -0.1432 -0.9288
  842MOL0     C11078   9.781   4.800   4.198  0.0060 -0.0267 -0.3147
  842MOL0     H11079   9.403   4.762   3.832  2.6096 -1.0628  2.7418
  842MOL0     H11080   9.156   4.721   3.790  1.6268 -4.3454 -0.8271
  842MOL0     H11081   8.923   4.895   4.082  0.6161  0.2273  0.4450
  842MOL0     H11082   8.888   4.746   4.160  0.6326  0.9756  0.0453
  842MOL0     H11083   8.699   4.864   4.120  2.3953 -0.9090  2.3295
  842MOL0     H11084   8.707   4.710   4.023  0.9178 -0.8874  0.6603
  842MOL0     H11085   8.717   4.849   3.822 -2.1353  4.7008 -3.0373
  842MOL0     H11086   8.795   4.980   3.905  0.4067 -1.5537  0.1762
  842MOL0     H11087   8.559   5.017   4.021  0.9006 -1.5891  0.8425
  842MOL0     H11088   8.586   5.081   3.857  1.0303  0.4498 -0.2847
  842MOL0     H11089   8.457   4.811   3.936 -0.4610 -1.3644 -1.0174
  842MOL0     H11090   8.487   4.863   3.766  3.2412  0.8761 -0.2282
  842MOL0     H11091   8.325   5.002   3.984  3.3405 -2.8913  0.0882
  842MOL0     H11092   8.240   4.908   3.857  0.5841 -1.2969 -0.0621
  842MOL0     H11093   8.383   5.177   3.810  2.5824 -1.7015 -1.5174
  842MOL0     H11094   8.359   5.058   3.689  1.2953 -2.7666  2.5425
  842MOL0     H11095   8.155   5.201   3.880 -2.1464 -3.5152  0.7782
  842MOL0     H11096   8.104   5.079   3.766  1.4344 -2.6751  3.2587
  842MOL0     H11097   8.335   5.433   3.752  0.4945 -1.6454  2.1411
  842MOL0     H11098   8.204   5.609   3.422 -1.4241 -1.1453  0.4275
  842MOL0     H11099   8.333   5.631   3.538  0.4265 -0.4082  0.1917
  842MOL0     H11100   8.035   5.708   3.579 -0.1434 -0.9609  3.1116
  842MOL0     H11101   8.164   5.814   3.533 -0.6618 -0.8541 -1.0454
  842MOL0     H11102   8.153   5.652   3.785 -2.4485  1.8503  0.0612
  842MOL0     H11103   8.301   5.749   3.747  0.2136  1.0457 -0.0468
  842MOL0     H11104   8.132   5.841   3.916 -2.9672 -1.5298  0.9509
  842MOL0     H11105   8.015   5.833   3.796  0.5919 -0.9677  2.7720
  842MOL0     H11106   8.266   6.210   3.683 -1.0322 -0.7957 -0.0595
  842MOL0     H11107   8.475   6.299   3.734 -1.4411 -0.6561 -1.0506
  842MOL0     H11108   8.740   6.286   4.206  0.0578  2.3076 -1.6700
  842MOL0     H11109   8.933   6.369   4.323 -1.6505 -1.3888  0.2564
  842MOL0     H11110   9.323   6.275   4.147  2.2723  0.4100 -0.2720
  842MOL0     H11111   9.314   6.249   4.321  1.7100 -1.0306 -1.7129
  842MOL0     H11112   9.368   6.488   4.361 -2.2985  2.3009 -1.3897
  842MOL0     H11113   9.412   6.493   4.183  2.1047 -0.0590  0.7527
  842MOL0     H11114   9.569   6.350   4.186 -1.3224  1.5364 -0.9379
  842MOL0     H11115   9.550   6.298   4.349  1.3714  1.2172  1.6750
  842MOL0     H11116   9.752   6.476   4.277 -1.0472  0.9490 -2.7799
  842MOL0     H11117   9.623   6.588   4.313  0.7182 -0.0996 -0.2000
  842MOL0     H11118   9.768   6.374   4.471  1.3019  1.7251 -0.6417
  842MOL0     H11119   9.602   6.423   4.523 -1.8019 -1.0841 -1.7690
  842MOL0     H11120   9.695   6.660   4.527 -2.5185 -2.9361 -1.8231
  842MOL0     H11121   9.857   6.606   4.492 -0.4614  0.3606 -1.9321
  842MOL0     H11122   9.691   6.567   4.748  0.9966 -1.0203  2.1638
  842MOL0     H11123   9.807   6.441   4.717  4.0189  0.0596 -1.5272
  842MOL0     H11124   9.888   6.638   4.851 -2.5967  1.5190 -0.2994
  842MOL0     H11125   9.864   6.742   4.709  1.5001 -0.0488 -2.7431
  842MOL0     H11126   9.178   6.236   3.993 -1.3810  0.6452 -3.9150
  842MOL0     H11127   8.983   6.131   3.890 -0.2147 -1.3416  0.2372
  842MOL0     H11128   8.578   5.954   3.972  0.9756  1.6475  1.8381
  842MOL0     H11129   8.364   5.865   3.929 -1.2358 -0.4169 -1.9756
  842MOL0     H11130   9.080   4.675   4.203  1.9352 -0.3366  1.6868
  842MOL0     H11131   9.331   4.711   4.246  0.2721  1.3741 -0.1361
  842MOL0     H11132   9.875   4.708   3.872  3.1808  1.1619 -0.5761
  842MOL0     H11133  10.083   4.768   3.948 -0.0126 -0.4072 -0.5297
  842MOL0     H11134  10.322   4.919   4.187  2.0160 -1.3405  3.3820
  842MOL0     H11135  10.268   4.826   4.050  2.8897  2.2937 -0.0551
  842MOL0     H11136  10.437   4.699   4.205 -0.5382 -0.1182  1.7545
  842MOL0     H11137  10.326   4.740   4.331 -1.3669 -1.2623  0.7009
  842MOL0     H11138  10.271   4.545   4.097  3.0653  0.3038  0.3225
  842MOL0     H11139  10.161   4.575   4.227 -0.4607 -1.9488 -0.9320
  842MOL0     H11140  10.288   4.367   4.261  0.9010  0.2367 -2.7713
  842MOL0     H11141  10.444   4.466   4.268  0.5837  2.6353 -1.3033
  842MOL0     H11142  10.272   4.526   4.651  0.4497 -1.9790  0.6043
  842MOL0     H11143   9.931   4.850   4.348  0.6860 -1.3884 -0.8282
  842MOL0     H11144   9.697   4.818   4.265  1.0611  3.5488  0.2752
  843MOL0     O11145   1.195   0.003   1.518  0.0993 -0.4202  0.5894
  843MOL0     C11146   1.260  -0.102   1.497  0.5422  0.2256 -0.2180
  843MOL0     O11147   1.211  -0.201   1.417  0.0503  0.1652  0.2828
  843MOL0     C11148   1.101  -0.169   1.345 -0.9344  0.5855  0.0675
  843MOL0     C11149   0.974  -0.149   1.406  0.5190  0.9287  0.6288
  843MOL0     C11150   0.869  -0.111   1.333  0.4527 -0.6000 -0.4192
  843MOL0     C11151   0.878  -0.076   1.193  0.1729  0.4808  0.1236
  843MOL0     O11152   0.762  -0.028   1.136 -0.1185 -0.4404  0.9081
  843MOL0     C11153   0.768   0.028   0.998 -0.1828  0.1117  0.1142
  843MOL0     C11154   0.649   0.125   0.977  0.0488 -0.0880  0.3768
  843MOL0     C11155   0.623   0.183   0.833 -0.7601 -0.0162  0.6682
  843MOL0     C11156   0.594   0.077   0.730  0.5803  0.0103  0.5298
  843MOL0     C11157   0.536   0.156   0.605  0.2325  0.9895  0.3031
  843MOL0     C11158   0.452   0.069   0.515 -0.0330 -0.0885  0.8516
  843MOL0     C11159   0.525  -0.055   0.466 -0.6635 -0.5604  0.2568
  843MOL0     C11160   0.652  -0.007   0.385 -0.1349  1.1597  1.0423
  843MOL0     N11161   0.670  -0.097   0.270 -0.6301  0.9460  0.1107
  843MOL0     C11162   0.716  -0.224   0.281 -0.0788  0.6909  0.6055
  843MOL0     C11163   0.704  -0.261   0.151 -1.0967 -0.8441  0.2551
  843MOL0     C11164   0.755  -0.402   0.110 -0.0008 -0.4524  0.2803
  843MOL0     C11165   0.671  -0.514   0.175  0.1317  0.8057  0.0280
  843MOL0     C11166   0.520  -0.501   0.148 -0.8153  0.4472  0.3087
  843MOL0     C11167   0.432  -0.619   0.164  0.7306 -0.5018  0.0389
  843MOL0     O11168   0.443  -0.671   0.301  0.1501 -0.0431  0.1097
  843MOL0     C11169   0.375  -0.784   0.318  0.8998  0.4672  0.0780
  843MOL0     C11170   0.403  -0.844   0.435 -0.1475 -0.4408 -0.1582
  843MOL0     C11171   0.367  -0.978   0.463 -0.4353 -0.3294 -1.0112
  843MOL0     C11172   0.292  -1.052   0.376  0.2732 -0.4144  0.7566
  843MOL0     C11173   0.245  -1.184   0.417 -0.8508  0.8441  0.3911
  843MOL0     O11174   0.321  -1.264   0.492  0.5789 -0.1893 -0.9348
  843MOL0     C11175   0.278  -1.398   0.517 -0.2442 -0.3751 -0.1995
  843MOL0     C11176   0.317  -1.496   0.430 -0.0981  0.0713  0.1499
  843MOL0     C11177   0.274  -1.634   0.443 -0.5658  0.5359 -0.9560
  843MOL0     C11178   0.199  -1.667   0.552  0.6130  0.5254 -1.1839
  843MOL0     O11179   0.185  -1.802   0.581  0.1974 -1.0575  0.1880
  843MOL0     C11180   0.124  -1.839   0.704  0.2762 -0.4535  0.5148
  843MOL0     C11181   0.134  -1.984   0.748 -0.5808 -0.0895  0.5975
  843MOL0     C11182   0.047  -2.082   0.661  0.0814  0.1268 -0.7761
  843MOL0     C11183  -0.103  -2.073   0.692 -0.1206  0.8715 -0.2347
  843MOL0     C11184  -0.181  -2.157   0.594 -0.4290  0.5281 -0.1487
  843MOL0     C11185  -0.323  -2.182   0.659 -0.2684 -0.4725 -0.3007
  843MOL0     C11186  -0.414  -2.286   0.578 -0.2605 -0.4031  0.5920
  843MOL0     C11187  -0.450  -2.243   0.435  0.7745  0.3244  0.3283
  843MOL0    Cl11188  -0.580  -2.351   0.369 -0.1516  0.3057 -0.0252
  843MOL0     C11189   0.152  -1.566   0.635  0.5522 -0.6876  0.7493
  843MOL0     C11190   0.192  -1.432   0.618 -1.1025 -0.3760 -0.7172
  843MOL0     O11191   0.131  -1.213   0.389  0.0349  0.3420  1.2738
  843MOL0     C11192   0.252  -0.985   0.264  0.0263 -0.1449 -0.2624
  843MOL0     C11193   0.287  -0.852   0.231 -0.7826  0.2156 -0.5953
  843MOL0     N11194   0.653  -0.152   0.075 -0.1762  0.6611  0.3623
  843MOL0     N11195   0.621  -0.061   0.147 -0.0864 -0.3476 -0.3750
  843MOL0     C11196   0.998  -0.111   1.131 -1.0385 -0.5383  0.0193
  843MOL0     C11197   1.107  -0.156   1.204 -0.3542  0.0682 -0.6858
  843MOL0     C11198   1.388  -0.119   1.570 -0.1666  0.0334 -0.7375
  843MOL0     C11199   1.405  -0.249   1.631  0.0514 -0.3469 -0.2995
  843MOL0     C11200   1.529  -0.275   1.696 -0.2755 -0.6544  0.1572
  843MOL0     C11201   1.641  -0.183   1.679  0.2568  0.1858  0.7052
  843MOL0     O11202   1.760  -0.222   1.735 -0.0229  0.1469  0.2580
  843MOL0     C11203   1.862  -0.120   1.734 -0.2463  0.7057 -0.4645
  843MOL0     C11204   1.975  -0.180   1.816 -0.2310  1.6489  0.2394
  843MOL0     C11205   1.942  -0.164   1.965 -0.1853  0.3920  0.3756
  843MOL0     C11206   2.030  -0.244   2.056  0.2959  0.2410  0.5484
  843MOL0     C11207   2.169  -0.199   2.067 -0.0117  0.7589  0.2301
  843MOL0     C11208   2.291  -0.164   2.070  1.1723 -0.1528  0.8069
  843MOL0     C11209   1.623  -0.071   1.601 -0.5234  0.5564  0.2396
  843MOL0     C11210   1.498  -0.037   1.553  0.3582  0.2725 -0.2390
  843MOL0     H11211   0.968  -0.148   1.515  1.9158  6.0006  0.9071
  843MOL0     H11212   0.782  -0.082   1.391  1.0402  1.3592 -0.4390
  843MOL0     H11213   0.763  -0.049   0.921 -1.8657  2.1200 -1.9499
  843MOL0     H11214   0.861   0.080   0.972  0.4959 -1.8117 -1.5023
  843MOL0     H11215   0.649   0.197   1.059  2.3777  0.5257 -0.0897
  843MOL0     H11216   0.563   0.060   0.994  1.3395 -1.8292  0.5732
  843MOL0     H11217   0.714   0.238   0.810  0.7174 -2.3561  0.5703
  843MOL0     H11218   0.544   0.257   0.846 -0.8659 -0.1829  0.9758
  843MOL0     H11219   0.687   0.032   0.692  0.8686  1.0748 -0.0587
  843MOL0     H11220   0.519   0.001   0.755  1.0092 -0.4874  0.3370
  843MOL0     H11221   0.613   0.206   0.546  1.1435 -1.5626 -0.8104
  843MOL0     H11222   0.467   0.230   0.648  0.4994  0.5203  1.5796
  843MOL0     H11223   0.414   0.121   0.427 -2.5704 -3.2339 -0.1046
  843MOL0     H11224   0.363   0.030   0.566 -3.1938  1.3192 -3.0345
  843MOL0     H11225   0.561  -0.116   0.550  1.2244 -1.4611 -1.1327
  843MOL0     H11226   0.465  -0.120   0.401 -0.9064 -2.0896  1.9153
  843MOL0     H11227   0.738   0.022   0.447 -0.9066  5.1378  0.5125
  843MOL0     H11228   0.631   0.088   0.335  0.6922  0.6133 -0.3877
  843MOL0     H11229   0.760  -0.286   0.359  3.2126  1.0960 -0.7384
  843MOL0     H11230   0.861  -0.413   0.133  0.1775 -1.5506 -0.9731
  843MOL0     H11231   0.758  -0.425   0.003 -0.9254 -1.6299  0.4876
  843MOL0     H11232   0.683  -0.528   0.282  1.7425  1.9166  0.0150
  843MOL0     H11233   0.719  -0.605   0.139 -1.1382 -0.3970  1.2548
  843MOL0     H11234   0.489  -0.424   0.220 -0.5319  2.3828 -1.5335
  843MOL0     H11235   0.497  -0.453   0.052  0.6524 -0.3135 -0.4570
  843MOL0     H11236   0.445  -0.699   0.090 -0.1208 -2.5059  1.9391
  843MOL0     H11237   0.333  -0.582   0.140  0.7794 -0.8754 -0.7590
  843MOL0     H11238   0.459  -0.782   0.504 -0.7079  0.3687 -0.4120
  843MOL0     H11239   0.393  -1.017   0.562  1.4370  0.0563 -1.2983
  843MOL0     H11240   0.393  -1.467   0.357 -0.4552  1.6815  0.3845
  843MOL0     H11241   0.284  -1.701   0.358  3.0511 -0.1411 -0.1713
  843MOL0     H11242   0.024  -1.796   0.692  0.7359  0.1964 -1.4038
  843MOL0     H11243   0.181  -1.788   0.782 -0.8545  0.4994  0.7535
  843MOL0     H11244   0.112  -1.995   0.854 -1.9990  0.5180  0.3853
  843MOL0     H11245   0.239  -2.016   0.746 -0.1797  1.0846  1.6436
  843MOL0     H11246   0.091  -2.181   0.677  1.5840  0.9392  0.4228
  843MOL0     H11247   0.053  -2.056   0.555 -1.4461 -3.0037 -1.7451
  843MOL0     H11248  -0.112  -2.125   0.787 -1.7136 -1.8923 -1.7663
  843MOL0     H11249  -0.144  -1.971   0.700 -0.5834  0.5885  1.1893
  843MOL0     H11250  -0.113  -2.242   0.598  0.6886  1.4452  1.7280
  843MOL0     H11251  -0.184  -2.109   0.495  5.0784  0.4852 -0.6898
  843MOL0     H11252  -0.376  -2.087   0.666  2.8063  1.4860 -1.4534
  843MOL0     H11253  -0.311  -2.229   0.757 -2.0168 -2.0187 -0.7668
  843MOL0     H11254  -0.368  -2.385   0.570 -0.8153 -0.5218 -1.5419
  843MOL0     H11255  -0.507  -2.299   0.634  0.5128  0.8166  2.2729
  843MOL0     H11256  -0.359  -2.252   0.375 -0.2413  3.1709 -1.8752
  843MOL0     H11257  -0.467  -2.136   0.451  3.1929  0.4155  3.3756
  843MOL0     H11258   0.074  -1.588   0.708  0.3711 -1.0640  0.4418
  843MOL0     H11259   0.166  -1.349   0.684 -1.7037  0.8178 -2.4063
  843MOL0     H11260   0.175  -1.029   0.202  0.4608  0.2522 -1.1093
  843MOL0     H11261   0.249  -0.807   0.140 -1.2372  1.6615  0.2773
  843MOL0     H11262   0.999  -0.101   1.023  1.6351  0.9057  0.0819
  843MOL0     H11263   1.207  -0.156   1.163  0.3837  2.6869  0.8821
  843MOL0     H11264   1.319  -0.312   1.650 -0.9927  1.3214  0.8382
  843MOL0     H11265   1.554  -0.362   1.756 -1.7647 -1.0006  0.3303
  843MOL0     H11266   1.828  -0.024   1.775 -3.9358 -0.8222  0.3972
  843MOL0     H11267   1.896  -0.110   1.631  0.4721 -1.6075 -0.4905
  843MOL0     H11268   2.003  -0.282   1.788  2.5014  2.7089 -1.1943
  843MOL0     H11269   2.063  -0.122   1.788  0.8278 -0.2190 -0.4769
  843MOL0     H11270   1.836  -0.189   1.976 -0.7830  2.5713 -0.0026
  843MOL0     H11271   1.940  -0.058   1.990 -2.0114 -0.2570  3.5831
  843MOL0     H11272   1.982  -0.253   2.154 -3.0011 -0.3826 -0.9814
  843MOL0     H11273   2.031  -0.345   2.013 -2.4833  0.0550  0.7347
  843MOL0     H11274   2.395  -0.142   2.075  2.1982 -2.2896 -4.2383
  843MOL0     H11275   1.698   0.006   1.586  2.4543 -2.1790  0.1345
  843MOL0     H11276   1.485   0.053   1.494  4.2165 -0.1452 -2.0522
  844MOL0     O11277   7.491  11.320   7.267  0.1445 -0.3865  0.0340
  844MOL0     C11278   7.535  11.412   7.329 -0.3032  1.0594  0.6387
  844MOL0     O11279   7.506  11.441   7.460 -0.0568 -0.4804  0.6409
  844MOL0     C11280   7.401  11.384   7.532  0.2939 -0.6097 -0.0999
  844MOL0     C11281   7.382  11.248   7.557 -0.7185  0.0358  0.0041
  844MOL0     C11282   7.286  11.210   7.655  0.3950 -0.0483  0.6230
  844MOL0     C11283   7.201  11.305   7.710  0.7089  0.0251 -0.2688
  844MOL0     O11284   7.100  11.252   7.798  1.0207 -0.7194  0.0808
  844MOL0     C11285   7.144  11.210   7.929 -0.3051 -0.2041  0.3351
  844MOL0     C11286   7.059  11.243   8.045  0.6528 -0.7710 -0.1704
  844MOL0     C11287   6.914  11.212   8.031  0.9200  0.2061  0.2872
  844MOL0     C11288   6.836  11.266   8.155  0.0862 -1.0161  0.4681
  844MOL0     C11289   6.710  11.178   8.163  0.1760  0.3163  0.0604
  844MOL0     C11290   6.646  11.237   8.285  0.4885 -0.5308  0.1016
  844MOL0     C11291   6.506  11.172   8.304 -0.6675  0.6493  0.7243
  844MOL0     C11292   6.437  11.260   8.406 -0.8153 -0.2172 -0.1008
  844MOL0     N11293   6.299  11.228   8.428 -0.0868 -0.0146 -0.0225
  844MOL0     C11294   6.237  11.109   8.384 -0.3703 -0.1335 -0.8736
  844MOL0     C11295   6.110  11.130   8.424  1.3354  0.2823  0.6509
  844MOL0     C11296   5.999  11.039   8.433  0.7002 -0.7315 -0.8639
  844MOL0     C11297   5.973  10.981   8.291  0.0697  1.0278 -0.3866
  844MOL0     C11298   5.877  10.862   8.301  0.0258  0.0762 -0.1552
  844MOL0     C11299   5.735  10.912   8.336 -1.1403 -0.0114  0.1300
  844MOL0     O11300   5.657  10.795   8.325  0.1402 -0.3069 -0.1402
  844MOL0     C11301   5.525  10.796   8.353 -0.9203 -0.4374 -0.6461
  844MOL0     C11302   5.450  10.912   8.390 -0.3828  0.5621  0.0559
  844MOL0     C11303   5.320  10.908   8.403  0.1503  0.0543  0.2430
  844MOL0     C11304   5.243  10.790   8.377  0.4637  1.2870  0.3412
  844MOL0     C11305   5.093  10.792   8.377  0.1919 -0.3419  0.9465
  844MOL0     O11306   5.030  10.668   8.352 -0.0129 -0.4507  0.1928
  844MOL0     C11307   4.891  10.655   8.360 -1.1068 -1.1592  0.2418
  844MOL0     C11308   4.813  10.712   8.462 -0.4546 -0.0937 -0.3683
  844MOL0     C11309   4.677  10.699   8.471  0.0511  0.3652  0.0842
  844MOL0     C11310   4.612  10.635   8.364 -0.0717  0.1416 -0.1301
  844MOL0     O11311   4.475  10.635   8.370 -0.4477 -0.8004 -0.0897
  844MOL0     C11312   4.408  10.580   8.260  0.6408  0.2190  0.0722
  844MOL0     C11313   4.263  10.590   8.309 -1.3205  0.5872 -0.8296
  844MOL0     C11314   4.160  10.574   8.202 -0.2722  0.0613  0.0386
  844MOL0     C11315   4.161  10.432   8.136 -0.3639 -1.1649 -0.1344
  844MOL0     C11316   4.027  10.406   8.070  0.2788 -0.9942 -0.0792
  844MOL0     C11317   4.029  10.270   7.994  0.1200  0.2727 -0.5665
  844MOL0     C11318   4.144  10.245   7.892  0.5584  0.4635 -0.6204
  844MOL0     C11319   4.115  10.132   7.791  0.1376 -1.2895  0.2600
  844MOL0    Cl11320   3.955  10.147   7.728  0.0429  0.2075 -0.1080
  844MOL0     C11321   4.689  10.574   8.260 -0.7837  0.1050 -0.4355
  844MOL0     C11322   4.832  10.590   8.250 -0.1792 -0.0829  0.1674
  844MOL0     O11323   5.051  10.905   8.411  0.9525 -0.5413  0.4109
  844MOL0     C11324   5.320  10.669   8.352 -0.8387  0.1757  0.5914
  844MOL0     C11325   5.464  10.676   8.332 -0.1096 -0.5956 -0.2242
  844MOL0     N11326   6.095  11.264   8.467  0.5940  0.5008 -0.6068
  844MOL0     N11327   6.210  11.318   8.478  0.2169 -1.2019  0.0981
  844MOL0     C11328   7.215  11.442   7.683  0.7308 -0.3271 -0.0719
  844MOL0     C11329   7.314  11.478   7.598 -0.0790 -0.5494  0.2282
  844MOL0     C11330   7.652  11.480   7.267  0.2503  0.3653 -0.5275
  844MOL0     C11331   7.730  11.567   7.350  0.6169 -0.4808 -0.1443
  844MOL0     C11332   7.840  11.632   7.285  0.0192 -0.7823  0.2021
  844MOL0     C11333   7.876  11.615   7.145 -0.0735 -0.1792  0.5386
  844MOL0     O11334   7.999  11.661   7.105  0.7731 -0.1463 -1.1388
  844MOL0     C11335   8.022  11.663   6.963  0.2478 -0.9078  0.0240
  844MOL0     C11336   8.120  11.772   6.927 -1.2171  0.3737 -0.1404
  844MOL0     C11337   8.256  11.762   7.007 -0.8239  0.3643 -0.1799
  844MOL0     C11338   8.323  11.620   7.009 -0.0606  0.2677  0.2552
  844MOL0     C11339   8.454  11.630   7.066  0.5887  0.2044  0.2406
  844MOL0     C11340   8.556  11.653   7.123  0.2920 -0.0426  1.0445
  844MOL0     C11341   7.789  11.532   7.074  0.2423  0.4287 -0.6044
  844MOL0     C11342   7.682  11.463   7.137 -0.8325  0.3255 -0.3417
  844MOL0     H11343   7.445  11.179   7.503  1.3102 -0.2127  2.5570
  844MOL0     H11344   7.273  11.104   7.673 -0.3945 -0.1087 -0.2043
  844MOL0     H11345   7.232  11.273   7.948 -0.3231  0.0175 -0.2890
  844MOL0     H11346   7.179  11.107   7.929  0.6081  0.0908 -0.3752
  844MOL0     H11347   7.062  11.350   8.066  0.3245 -0.8884  0.5128
  844MOL0     H11348   7.095  11.184   8.130 -0.0874 -2.6389 -1.0889
  844MOL0     H11349   6.905  11.103   8.023 -1.8136  0.4493 -1.3089
  844MOL0     H11350   6.868  11.249   7.939 -0.5440  1.7617  1.5757
  844MOL0     H11351   6.892  11.272   8.248  1.7056  0.9170 -0.5465
  844MOL0     H11352   6.817  11.371   8.128  0.7957 -0.7385  1.0198
  844MOL0     H11353   6.722  11.070   8.173 -2.6546 -0.3203 -2.1624
  844MOL0     H11354   6.648  11.190   8.073 -2.2960 -2.5276  1.2423
  844MOL0     H11355   6.621  11.343   8.275 -1.7133 -0.7969  1.8862
  844MOL0     H11356   6.706  11.227   8.376 -0.1951  0.9366  0.7564
  844MOL0     H11357   6.452  11.169   8.210  2.1374 -1.4311 -0.9796
  844MOL0     H11358   6.521  11.068   8.332 -1.3154 -0.1046 -1.5812
  844MOL0     H11359   6.433  11.362   8.366 -0.2652 -0.0041  0.3783
  844MOL0     H11360   6.504  11.262   8.492  1.5293 -0.1023 -1.8173
  844MOL0     H11361   6.273  11.015   8.342 -1.4893 -0.3804 -1.3193
  844MOL0     H11362   5.911  11.085   8.478  1.9201 -1.4582  2.5275
  844MOL0     H11363   6.032  10.963   8.504 -0.6225  0.8817  1.6019
  844MOL0     H11364   6.069  10.946   8.252  0.1663 -0.1947  0.8939
  844MOL0     H11365   5.946  11.059   8.219  0.1078 -1.2371 -3.0466
  844MOL0     H11366   5.881  10.814   8.203  1.7862  0.5919 -0.3760
  844MOL0     H11367   5.918  10.784   8.366  5.5053  0.8254 -2.1719
  844MOL0     H11368   5.707  10.981   8.256 -1.1675 -1.3802 -1.0812
  844MOL0     H11369   5.726  10.963   8.433  1.2278 -1.1930  1.0369
  844MOL0     H11370   5.503  11.007   8.397  1.9105 -0.1924 -4.0497
  844MOL0     H11371   5.281  11.007   8.423 -1.5702 -0.7553  1.0323
  844MOL0     H11372   4.864  10.776   8.534 -1.8552  1.4221 -0.6719
  844MOL0     H11373   4.621  10.750   8.549 -0.0314 -0.1198  0.3422
  844MOL0     H11374   4.426  10.474   8.241  0.0004  0.1553 -0.1987
  844MOL0     H11375   4.406  10.650   8.177 -2.9146 -0.9435 -1.0341
  844MOL0     H11376   4.242  10.681   8.366  1.4199 -1.0941  3.3159
  844MOL0     H11377   4.258  10.507   8.381 -1.0327 -2.2692 -3.8775
  844MOL0     H11378   4.177  10.658   8.134 -1.3195  0.1173 -0.1752
  844MOL0     H11379   4.057  10.594   8.234 -1.3791  0.1529 -3.2511
  844MOL0     H11380   4.242  10.449   8.065 -2.3097  1.0887 -1.9728
  844MOL0     H11381   4.179  10.356   8.212 -1.7151 -0.6818  0.7037
  844MOL0     H11382   4.012  10.484   7.995 -0.5803 -1.3411 -0.2755
  844MOL0     H11383   3.939  10.399   8.136 -1.5357 -2.1270 -2.4708
  844MOL0     H11384   3.931  10.252   7.949  0.9350 -2.9842 -1.2684
  844MOL0     H11385   4.033  10.184   8.061 -0.1309  2.3168  2.2630
  844MOL0     H11386   4.160  10.331   7.827 -0.5838  0.6117 -0.7191
  844MOL0     H11387   4.242  10.228   7.938  0.8944  1.9317 -0.7612
  844MOL0     H11388   4.123  10.030   7.830  0.0596 -0.7766  1.7074
  844MOL0     H11389   4.190  10.153   7.714  0.4205 -0.2926  0.7870
  844MOL0     H11390   4.635  10.522   8.180 -1.9676 -0.3170  0.6037
  844MOL0     H11391   4.897  10.543   8.177  0.0407 -0.3065  0.5048
  844MOL0     H11392   5.279  10.571   8.335  0.4636 -0.0762 -1.3657
  844MOL0     H11393   5.529  10.591   8.314  0.3828 -0.4410  0.7569
  844MOL0     H11394   7.155  11.519   7.729 -2.0319 -1.6503 -1.2216
  844MOL0     H11395   7.331  11.582   7.574  4.9508 -0.9969  0.7919
  844MOL0     H11396   7.725  11.592   7.456  1.1703 -0.9656  0.0008
  844MOL0     H11397   7.913  11.683   7.347 -0.4589  1.7497 -1.1773
  844MOL0     H11398   7.939  11.684   6.895  2.1751 -1.6223 -2.7234
  844MOL0     H11399   8.057  11.567   6.926 -0.8383 -1.8177  1.2642
  844MOL0     H11400   8.138  11.761   6.820 -2.7792  0.2359 -0.4156
  844MOL0     H11401   8.079  11.873   6.941 -4.4968 -1.0850  1.8865
  844MOL0     H11402   8.234  11.780   7.113 -0.2277  1.9262 -0.2984
  844MOL0     H11403   8.319  11.845   6.975 -1.9023  0.7831 -1.2971
  844MOL0     H11404   8.272  11.556   7.081 -1.5339  1.6900  0.5249
  844MOL0     H11405   8.339  11.572   6.912 -0.4994  1.4541 -0.4172
  844MOL0     H11406   8.656  11.659   7.162 -0.3079 -2.1235  3.1094
  844MOL0     H11407   7.809  11.507   6.970 -0.9852  0.3005 -0.8289
  844MOL0     H11408   7.611  11.410   7.074 -1.7907 -0.1787  1.1108
  845MOL0     O11409   8.276   0.660   4.308  0.1275 -0.3320 -1.2085
  845MOL0     C11410   8.347   0.644   4.402 -0.5237 -0.1165 -0.0427
  845MOL0     O11411   8.308   0.641   4.530 -0.2963 -0.2641  0.4154
  845MOL0     C11412   8.173   0.656   4.570 -0.2508  0.0405 -0.0451
  845MOL0     C11413   8.125   0.565   4.656 -1.2702 -0.6186  0.9719
  845MOL0     C11414   8.000   0.590   4.714 -0.7530  0.1426 -0.3245
  845MOL0     C11415   7.929   0.702   4.672  0.4811  0.4970 -0.7399
  845MOL0     O11416   7.821   0.721   4.743 -0.5541  0.0092  0.3547
  845MOL0     C11417   7.705   0.701   4.650  0.2487  0.7809  0.8427
  845MOL0     C11418   7.579   0.722   4.721 -0.3718 -0.2864 -0.1530
  845MOL0     C11419   7.551   0.633   4.839 -0.6124  0.8912 -0.0858
  845MOL0     C11420   7.418   0.670   4.903  1.0076  0.3386  0.0644
  845MOL0     C11421   7.413   0.606   5.038 -1.2065 -0.4386 -0.3560
  845MOL0     C11422   7.284   0.629   5.119 -1.2046  0.8998 -0.1055
  845MOL0     C11423   7.254   0.770   5.179 -0.6372  0.0273 -0.3999
  845MOL0     C11424   7.332   0.791   5.313 -0.6172 -0.1978  0.6276
  845MOL0     N11425   7.295   0.927   5.359  0.0489  0.2665 -0.8029
  845MOL0     C11426   7.332   1.054   5.320 -0.0960  0.1552  0.1432
  845MOL0     C11427   7.282   1.133   5.410 -0.2850  0.2128 -0.5009
  845MOL0     C11428   7.277   1.284   5.417 -0.0631 -0.0672 -1.5313
  845MOL0     C11429   7.413   1.350   5.388 -0.7534 -0.9715  0.2752
  845MOL0     C11430   7.522   1.306   5.488 -0.0178 -0.1122 -0.7633
  845MOL0     C11431   7.542   1.374   5.619  0.4675 -0.1208 -0.0228
  845MOL0     O11432   7.659   1.349   5.699  0.6697  0.3158  0.4463
  845MOL0     C11433   7.783   1.398   5.654 -0.2722 -0.5208 -0.4409
  845MOL0     C11434   7.805   1.501   5.555 -0.0704  0.7403 -0.3891
  845MOL0     C11435   7.925   1.531   5.495 -0.1588 -0.5074  0.2513
  845MOL0     C11436   8.036   1.457   5.536  0.2085 -0.0755  0.3841
  845MOL0     C11437   8.174   1.485   5.481 -0.1830 -0.0022  0.4523
  845MOL0     O11438   8.256   1.394   5.519  0.3830  1.1693 -0.5092
  845MOL0     C11439   8.388   1.388   5.479  0.0554 -0.7324  0.2898
  845MOL0     C11440   8.452   1.290   5.547 -0.7844 -0.2843 -0.2642
  845MOL0     C11441   8.582   1.260   5.510  0.0387 -0.2373  0.8508
  845MOL0     C11442   8.651   1.332   5.408 -0.4062 -0.9705  0.1616
  845MOL0     O11443   8.779   1.300   5.359 -0.3336 -0.7128  0.3694
  845MOL0     C11444   8.842   1.177   5.402 -0.5391 -1.0050 -0.3407
  845MOL0     C11445   8.954   1.153   5.313 -0.6202  0.3292 -0.4370
  845MOL0     C11446   9.074   1.248   5.319  0.6799  0.1626 -0.2037
  845MOL0     C11447   9.181   1.212   5.211  0.2400  0.7360  0.4291
  845MOL0     C11448   9.324   1.225   5.266 -0.4821  0.7532  0.9982
  845MOL0     C11449   9.413   1.145   5.176 -0.0189  1.2363  0.3246
  845MOL0     C11450   9.563   1.184   5.203  0.0155  0.1708  0.0555
  845MOL0     C11451   9.656   1.156   5.085 -0.4888  0.1251 -0.1281
  845MOL0    Cl11452   9.802   1.251   5.138 -0.0225 -0.6753  0.3479
  845MOL0     C11453   8.586   1.435   5.340  0.2970 -0.1602 -0.3170
  845MOL0     C11454   8.459   1.460   5.376  0.1477 -0.6280 -0.5701
  845MOL0     O11455   8.196   1.578   5.410 -0.3148  0.3727  0.1510
  845MOL0     C11456   8.018   1.359   5.645  0.5154 -0.8285  0.3406
  845MOL0     C11457   7.891   1.330   5.703  0.3396 -0.5317 -0.2394
  845MOL0     N11458   7.229   1.057   5.518 -0.0418 -0.1674  0.6539
  845MOL0     N11459   7.236   0.933   5.484  0.6732 -0.7008 -0.2838
  845MOL0     C11460   7.980   0.792   4.579  0.9943  0.4673  0.2418
  845MOL0     C11461   8.101   0.769   4.532  0.1273 -0.3391  0.8825
  845MOL0     C11462   8.482   0.589   4.375 -0.6565 -0.9756 -0.0934
  845MOL0     C11463   8.566   0.553   4.485  0.0351  0.0515  0.3266
  845MOL0     C11464   8.702   0.515   4.470  0.2422 -0.6771 -0.4917
  845MOL0     C11465   8.760   0.516   4.342  0.0677  0.6593 -0.2805
  845MOL0     O11466   8.893   0.485   4.327 -0.4444 -0.8570 -0.2192
  845MOL0     C11467   8.941   0.356   4.334  0.0230  0.6476 -0.9348
  845MOL0     C11468   9.072   0.347   4.248  0.6002  0.3656 -0.8517
  845MOL0     C11469   9.178   0.421   4.313 -0.6977 -1.1434 -0.6722
  845MOL0     C11470   9.299   0.396   4.235 -0.0538 -0.4281 -0.5017
  845MOL0     C11471   9.366   0.268   4.258  0.1535  0.3186  0.4126
  845MOL0     C11472   9.401   0.157   4.265 -0.9063  1.5481  0.4094
  845MOL0     C11473   8.674   0.549   4.232 -0.1389  0.4555  0.4019
  845MOL0     C11474   8.534   0.586   4.244 -0.3153  0.3724 -0.3320
  845MOL0     H11475   8.192   0.481   4.674  3.2011  2.2557 -0.6262
  845MOL0     H11476   7.945   0.520   4.775 -3.6799  0.7312 -2.1198
  845MOL0     H11477   7.703   0.599   4.610  4.4270  0.4086  1.1528
  845MOL0     H11478   7.708   0.764   4.561  2.5303 -1.9071 -1.1240
  845MOL0     H11479   7.491   0.717   4.656 -0.7484 -1.0371  0.4030
  845MOL0     H11480   7.600   0.824   4.753  2.1558 -1.3457  1.9335
  845MOL0     H11481   7.632   0.637   4.912 -1.4901 -4.3845  1.6002
  845MOL0     H11482   7.560   0.528   4.810 -0.5348  0.4047  1.6209
  845MOL0     H11483   7.404   0.777   4.918  1.5153  0.5168 -0.6518
  845MOL0     H11484   7.332   0.633   4.847  1.1490 -2.6552  1.6113
  845MOL0     H11485   7.485   0.655   5.104 -1.4613 -1.5025  0.7692
  845MOL0     H11486   7.430   0.498   5.032 -0.0193 -0.2079 -1.8163
  845MOL0     H11487   7.297   0.563   5.205 -0.4754  0.7882 -0.3006
  845MOL0     H11488   7.194   0.609   5.059 -0.9846  3.2382 -1.3363
  845MOL0     H11489   7.271   0.848   5.104 -0.0709  1.3839  1.0927
  845MOL0     H11490   7.148   0.790   5.197 -0.7728 -1.3980  0.5100
  845MOL0     H11491   7.438   0.802   5.293 -0.8765  2.5850  0.4959
  845MOL0     H11492   7.316   0.713   5.389 -0.4970 -0.1693  0.6820
  845MOL0     H11493   7.389   1.077   5.230  2.4654 -0.8388  1.4292
  845MOL0     H11494   7.237   1.308   5.516 -0.0328 -1.3206 -1.1911
  845MOL0     H11495   7.197   1.322   5.353  0.1145  0.2386 -1.5726
  845MOL0     H11496   7.391   1.457   5.384 -0.7123 -0.9676  0.1560
  845MOL0     H11497   7.442   1.324   5.286  1.6916  0.5344  0.4975
  845MOL0     H11498   7.530   1.197   5.488  3.6524 -0.0957 -4.3168
  845MOL0     H11499   7.616   1.331   5.438  0.2440  0.6035  0.0686
  845MOL0     H11500   7.458   1.356   5.688 -0.7166  0.4110 -1.2761
  845MOL0     H11501   7.548   1.481   5.599  1.8077 -0.0911  0.4539
  845MOL0     H11502   7.721   1.557   5.514  0.4652  0.4079 -2.0340
  845MOL0     H11503   7.924   1.608   5.418 -1.1849  1.3978  2.0564
  845MOL0     H11504   8.401   1.244   5.631  2.2815  0.8360  2.4419
  845MOL0     H11505   8.633   1.179   5.560  1.9899  0.5767  0.2830
  845MOL0     H11506   8.777   1.089   5.402  0.3574 -1.8022  2.9600
  845MOL0     H11507   8.889   1.198   5.498 -0.2444 -0.4286 -0.6039
  845MOL0     H11508   8.911   1.127   5.216 -5.0140 -1.5341  1.7267
  845MOL0     H11509   9.000   1.059   5.344 -1.1112  0.8534  2.1141
  845MOL0     H11510   9.119   1.248   5.419 -0.7667  0.5131  0.4776
  845MOL0     H11511   9.030   1.348   5.307 -4.6299 -1.2035  3.8044
  845MOL0     H11512   9.174   1.105   5.189  0.2034  0.3598  2.1443
  845MOL0     H11513   9.175   1.279   5.125  1.7923  0.8133  0.3498
  845MOL0     H11514   9.326   1.182   5.366 -1.6821 -2.6901 -0.2991
  845MOL0     H11515   9.354   1.330   5.274  2.8312 -0.0357  0.2692
  845MOL0     H11516   9.399   1.178   5.073 -0.0799  1.4700  0.4073
  845MOL0     H11517   9.396   1.038   5.190 -3.4267  1.4445 -1.1923
  845MOL0     H11518   9.572   1.287   5.239 -1.7228  1.4716 -2.8713
  845MOL0     H11519   9.596   1.123   5.287 -1.0384 -0.7973 -0.2080
  845MOL0     H11520   9.624   1.194   4.988  4.3646  1.2227 -1.6160
  845MOL0     H11521   9.670   1.048   5.082 -0.2050  0.0676  1.8086
  845MOL0     H11522   8.622   1.502   5.263 -4.3135  2.1299 -0.8008
  845MOL0     H11523   8.402   1.543   5.336  0.4658  0.7227  1.6070
  845MOL0     H11524   8.103   1.304   5.684  0.7587 -0.2865  0.5708
  845MOL0     H11525   7.871   1.264   5.787 -1.1442 -0.0874 -0.2177
  845MOL0     H11526   7.921   0.881   4.562 -1.9662 -1.8033 -2.4914
  845MOL0     H11527   8.149   0.834   4.460 -3.3148  2.2827  0.6891
  845MOL0     H11528   8.525   0.546   4.585  2.3363  1.2624  1.4445
  845MOL0     H11529   8.764   0.481   4.553 -2.7677  0.0383  2.2482
  845MOL0     H11530   8.862   0.286   4.303  0.9553 -0.1877 -1.4775
  845MOL0     H11531   8.975   0.325   4.433 -1.0524  1.6644 -0.2152
  845MOL0     H11532   9.101   0.243   4.228 -1.1947 -0.8224  2.1397
  845MOL0     H11533   9.052   0.371   4.143  0.3318 -1.7414 -1.3289
  845MOL0     H11534   9.183   0.392   4.418  1.0220  0.7316 -0.1664
  845MOL0     H11535   9.155   0.527   4.324 -1.6397 -1.2025 -1.8540
  845MOL0     H11536   9.282   0.379   4.128  0.2447 -3.5939 -0.1346
  845MOL0     H11537   9.365   0.481   4.253  0.9585 -0.6918 -2.6853
  845MOL0     H11538   9.421   0.053   4.279 -1.7968  1.1602 -0.9515
  845MOL0     H11539   8.711   0.556   4.130 -3.1132  0.6641 -0.7475
  845MOL0     H11540   8.483   0.632   4.160  2.6579 -0.5163 -2.8120
  846MOL0     O11541   3.496   7.159   8.088  0.2754 -0.0100 -0.5705
  846MOL0     C11542   3.572   7.254   8.117  0.5835 -0.1266 -0.0336
  846MOL0     O11543   3.536   7.375   8.167  0.1521  0.5086  0.6821
  846MOL0     C11544   3.407   7.428   8.169 -0.4447  0.3342 -0.3985
  846MOL0     C11545   3.301   7.380   8.096 -0.0879  0.0127  0.5292
  846MOL0     C11546   3.172   7.432   8.100 -0.1378  0.7762 -0.8324
  846MOL0     C11547   3.150   7.543   8.174  1.3524  1.2804  0.3331
  846MOL0     O11548   3.026   7.607   8.165 -0.2388  0.6026  0.1592
  846MOL0     C11549   2.937   7.574   8.057 -0.0565  0.3693 -0.3935
  846MOL0     C11550   2.833   7.688   8.028  0.5610 -0.0855  0.3863
  846MOL0     C11551   2.750   7.637   7.906 -1.1408 -1.1464 -0.0361
  846MOL0     C11552   2.660   7.758   7.857  0.1804 -0.3981 -1.1938
  846MOL0     C11553   2.604   7.749   7.716  0.8378 -0.5479  0.1606
  846MOL0     C11554   2.513   7.634   7.673 -0.4950  0.2846 -0.0746
  846MOL0     C11555   2.406   7.605   7.774 -0.5283 -0.2172 -1.3041
  846MOL0     C11556   2.323   7.487   7.721  0.5184 -0.0649 -0.0473
  846MOL0     N11557   2.193   7.519   7.643 -0.5763  0.1741 -0.0691
  846MOL0     C11558   2.070   7.454   7.651  0.2581 -0.6073 -0.6606
  846MOL0     C11559   1.993   7.494   7.548 -0.0887 -0.2594  0.1365
  846MOL0     C11560   1.854   7.446   7.505 -0.1143  0.3467  0.5202
  846MOL0     C11561   1.739   7.546   7.528 -0.1239  1.5646 -0.1104
  846MOL0     C11562   1.695   7.533   7.683  0.0308  0.5166 -0.0045
  846MOL0     C11563   1.562   7.593   7.708 -0.9262  0.3043  0.4225
  846MOL0     O11564   1.503   7.541   7.829  0.3068  0.2360  0.0313
  846MOL0     C11565   1.414   7.431   7.814 -0.3257  0.1457  0.6783
  846MOL0     C11566   1.423   7.348   7.702  0.9541  0.0448 -0.3238
  846MOL0     C11567   1.319   7.249   7.684 -0.3550 -0.1911 -0.3456
  846MOL0     C11568   1.240   7.209   7.789  1.5786  1.2348  0.6509
  846MOL0     C11569   1.141   7.097   7.777 -0.1302 -0.8113 -0.3077
  846MOL0     O11570   1.140   7.018   7.894  0.1877  0.1384  0.0185
  846MOL0     C11571   1.031   6.935   7.910 -0.1115 -0.3621  0.4309
  846MOL0     C11572   1.051   6.792   7.935  0.5994 -0.2661 -0.4904
  846MOL0     C11573   0.948   6.712   7.925 -0.4375  0.4372  0.3412
  846MOL0     C11574   0.818   6.748   7.910 -0.3769 -0.0126  0.4368
  846MOL0     O11575   0.703   6.675   7.884  0.0723  0.6942 -0.3561
  846MOL0     C11576   0.723   6.541   7.849  0.5739  1.2550 -0.3460
  846MOL0     C11577   0.601   6.496   7.762 -1.0010 -0.5615 -0.7665
  846MOL0     C11578   0.583   6.351   7.710  0.1868  0.7789 -0.0273
  846MOL0     C11579   0.651   6.318   7.579 -0.4251 -0.5367 -0.3474
  846MOL0     C11580   0.624   6.172   7.527 -0.1471 -0.7083 -1.0080
  846MOL0     C11581   0.560   6.169   7.391 -0.3092 -0.9025 -0.2522
  846MOL0     C11582   0.530   6.027   7.342  0.3003  0.7187  1.2893
  846MOL0     C11583   0.655   5.951   7.300 -0.6286  0.2823  0.3741
  846MOL0    Cl11584   0.624   5.772   7.284  0.1980 -0.2355 -0.2162
  846MOL0     C11585   0.792   6.885   7.897 -0.4617 -0.2562 -0.0387
  846MOL0     C11586   0.896   6.977   7.896  0.4334  0.4315 -0.1288
  846MOL0     O11587   1.064   7.101   7.683 -0.1534  0.6986  0.5224
  846MOL0     C11588   1.242   7.279   7.914  0.1394 -0.3866 -0.1696
  846MOL0     C11589   1.322   7.399   7.913 -0.4973 -0.4625 -0.4692
  846MOL0     N11590   2.069   7.590   7.488  0.3837 -0.0559  0.5214
  846MOL0     N11591   2.184   7.600   7.532  0.2720 -0.7720  0.5073
  846MOL0     C11592   3.258   7.591   8.248  0.1920 -0.6430  0.1436
  846MOL0     C11593   3.385   7.534   8.250 -0.2514 -0.4880  0.3870
  846MOL0     C11594   3.718   7.243   8.086 -0.0379 -0.5896  0.3168
  846MOL0     C11595   3.774   7.114   8.089 -0.0845 -0.3116  0.7577
  846MOL0     C11596   3.915   7.086   8.082 -0.2104  0.1766 -0.1834
  846MOL0     C11597   4.004   7.194   8.086  0.0338  0.8503  1.3967
  846MOL0     O11598   4.135   7.175   8.074 -0.5507  0.2892 -0.0990
  846MOL0     C11599   4.222   7.221   8.177 -0.1206  0.0789  0.1347
  846MOL0     C11600   4.211   7.156   8.316  0.1059  0.2669  0.3647
  846MOL0     C11601   4.320   7.196   8.416  0.1135 -0.4591 -0.6229
  846MOL0     C11602   4.328   7.353   8.425  0.6556  0.5379  0.6674
  846MOL0     C11603   4.203   7.424   8.463  0.5844  0.4299  0.4052
  846MOL0     C11604   4.098   7.494   8.475 -0.5965  0.7794  0.1577
  846MOL0     C11605   3.953   7.323   8.067  0.7591  0.3433 -1.7078
  846MOL0     C11606   3.812   7.349   8.072  0.3141  0.7939  0.3688
  846MOL0     H11607   3.323   7.295   8.032 -0.3722  0.7963 -0.6463
  846MOL0     H11608   3.093   7.394   8.036 -0.8669  1.4829 -0.3698
  846MOL0     H11609   2.880   7.484   8.083 -1.4131  1.3673  0.2273
  846MOL0     H11610   2.993   7.553   7.965  0.6456  1.5609 -0.2595
  846MOL0     H11611   2.889   7.781   8.015 -2.6114  2.0385  0.8622
  846MOL0     H11612   2.768   7.710   8.113  1.0372  0.6703  0.5573
  846MOL0     H11613   2.688   7.550   7.932 -1.3391 -2.2305 -3.5808
  846MOL0     H11614   2.818   7.610   7.825 -1.1302  1.8848 -1.1620
  846MOL0     H11615   2.575   7.773   7.925  0.1035  0.2982 -1.4388
  846MOL0     H11616   2.723   7.846   7.874  1.3939 -1.3369 -0.6968
  846MOL0     H11617   2.698   7.743   7.660  3.2312 -1.1973  3.8424
  846MOL0     H11618   2.540   7.833   7.692  0.0472 -1.3506 -0.6026
  846MOL0     H11619   2.579   7.548   7.656  0.7988  0.7410  2.2980
  846MOL0     H11620   2.464   7.653   7.577  2.1425 -0.0565 -1.5857
  846MOL0     H11621   2.443   7.584   7.875 -0.3182  0.7220 -1.1748
  846MOL0     H11622   2.348   7.692   7.807 -1.3697 -2.7026  5.1437
  846MOL0     H11623   2.292   7.425   7.805 -0.8779 -0.6519 -0.9481
  846MOL0     H11624   2.376   7.415   7.659 -2.7641 -0.1181 -3.1760
  846MOL0     H11625   2.035   7.376   7.718 -3.0103 -0.7675 -2.3795
  846MOL0     H11626   1.835   7.348   7.549  3.4397 -0.4657  0.5100
  846MOL0     H11627   1.882   7.423   7.402  1.1715 -2.5736  1.4280
  846MOL0     H11628   1.654   7.517   7.465 -0.0521  1.2562 -0.0693
  846MOL0     H11629   1.767   7.651   7.514 -0.4240  1.2737 -3.6726
  846MOL0     H11630   1.681   7.428   7.712 -1.8128  1.0200  1.0865
  846MOL0     H11631   1.771   7.573   7.750 -1.0556  1.9692  0.4005
  846MOL0     H11632   1.496   7.580   7.622 -0.1328  0.8143 -0.2807
  846MOL0     H11633   1.594   7.696   7.725  2.0959 -0.6238  0.8381
  846MOL0     H11634   1.499   7.349   7.625 -1.8203 -0.8000 -3.2818
  846MOL0     H11635   1.319   7.187   7.595 -0.7297 -0.3730 -0.2236
  846MOL0     H11636   1.154   6.759   7.938  0.8008  0.2954  3.2806
  846MOL0     H11637   0.969   6.606   7.934  1.8641  0.6218 -1.7782
  846MOL0     H11638   0.723   6.470   7.933 -1.6244 -0.4282 -1.6431
  846MOL0     H11639   0.810   6.530   7.785 -0.3999 -1.3920 -1.3725
  846MOL0     H11640   0.596   6.565   7.678 -1.1133  0.6841  0.2273
  846MOL0     H11641   0.509   6.525   7.815 -0.1330  1.4051 -0.2218
  846MOL0     H11642   0.476   6.330   7.696  0.0135  1.6809 -0.1154
  846MOL0     H11643   0.618   6.290   7.793 -0.6496  1.6102  0.9708
  846MOL0     H11644   0.604   6.396   7.518 -1.8348  0.6018  2.0240
  846MOL0     H11645   0.761   6.326   7.576 -0.3838  1.1045  2.2765
  846MOL0     H11646   0.575   6.112   7.603 -2.1936  0.2584 -1.4856
  846MOL0     H11647   0.724   6.132   7.508  0.7949  1.3849 -0.8246
  846MOL0     H11648   0.628   6.223   7.325 -0.4219  0.5929  0.8056
  846MOL0     H11649   0.471   6.232   7.397  0.9536  0.8549  1.4386
  846MOL0     H11650   0.463   5.974   7.409 -4.0207 -2.4169 -4.5680
  846MOL0     H11651   0.475   6.027   7.247  1.1796 -1.4222  0.7335
  846MOL0     H11652   0.727   5.962   7.382 -2.6525  2.9377  1.9606
  846MOL0     H11653   0.691   5.999   7.208 -2.7525  2.4622  0.5691
  846MOL0     H11654   0.688   6.907   7.876 -1.4735 -1.8307  2.7106
  846MOL0     H11655   0.874   7.080   7.871 -1.4530  0.4202  1.2204
  846MOL0     H11656   1.176   7.265   7.999  1.3762  2.1763  1.3294
  846MOL0     H11657   1.334   7.449   8.008 -0.5983  1.1216 -1.2657
  846MOL0     H11658   3.246   7.680   8.308  0.8841  0.6554 -1.5851
  846MOL0     H11659   3.471   7.577   8.300  1.3321 -2.9810 -0.0156
  846MOL0     H11660   3.711   7.027   8.101  0.2658 -0.9268 -1.4168
  846MOL0     H11661   3.957   6.986   8.081 -1.1973 -0.2584  0.4178
  846MOL0     H11662   4.201   7.327   8.192  0.7940  0.0373  2.0746
  846MOL0     H11663   4.325   7.211   8.140 -0.1391 -1.1751  0.3539
  846MOL0     H11664   4.117   7.176   8.368  0.5870 -1.3739  1.9572
  846MOL0     H11665   4.221   7.048   8.307  2.8248  0.3112  1.8790
  846MOL0     H11666   4.420   7.161   8.389  0.7304  0.6140  0.2104
  846MOL0     H11667   4.298   7.153   8.513  3.2350  0.0214  0.4267
  846MOL0     H11668   4.394   7.373   8.509  1.2385 -0.6679  0.5278
  846MOL0     H11669   4.361   7.394   8.329 -1.7640 -3.4307 -2.1904
  846MOL0     H11670   4.019   7.567   8.473 -0.4145  0.9499 -1.1494
  846MOL0     H11671   4.005   7.411   8.029  1.4594  0.4576 -0.5213
  846MOL0     H11672   3.764   7.444   8.048  1.9643  1.6361  0.2300
  847MOL0     O11673   6.930   0.733   7.970 -0.2038  0.3804  1.2601
  847MOL0     C11674   6.966   0.844   8.000  0.9610  0.4087  1.6233
  847MOL0     O11675   7.017   0.940   7.910 -0.0102 -0.2036 -0.1607
  847MOL0     C11676   7.050   0.884   7.788  0.5141 -0.1204  0.2995
  847MOL0     C11677   6.971   0.806   7.707 -0.3972  0.2804  0.0312
  847MOL0     C11678   7.017   0.781   7.578 -0.8164  0.6932  0.9909
  847MOL0     C11679   7.147   0.823   7.529 -0.6687  1.0353 -0.4928
  847MOL0     O11680   7.204   0.793   7.415  0.1200 -0.6809 -0.1058
  847MOL0     C11681   7.124   0.725   7.317  0.0561 -0.3543 -0.1305
  847MOL0     C11682   7.222   0.707   7.194 -0.6203  0.3557 -0.7735
  847MOL0     C11683   7.296   0.839   7.177  0.3131 -0.5415 -0.1366
  847MOL0     C11684   7.417   0.842   7.079  0.2409  0.1238  1.4094
  847MOL0     C11685   7.391   0.817   6.931 -1.3660  0.4217 -0.0960
  847MOL0     C11686   7.523   0.792   6.848  1.1167  0.8455  0.8499
  847MOL0     C11687   7.496   0.730   6.715  0.1088  0.0551 -0.4980
  847MOL0     C11688   7.435   0.817   6.608  0.3816 -0.3081  0.6960
  847MOL0     N11689   7.306   0.875   6.634 -0.0030  0.1653  0.2219
  847MOL0     C11690   7.271   0.990   6.685  0.2160  1.1063 -0.9038
  847MOL0     C11691   7.138   0.968   6.716 -0.8988 -0.6375 -0.5792
  847MOL0     C11692   7.040   1.069   6.786 -0.1803 -0.4728 -0.0690
  847MOL0     C11693   7.000   1.012   6.931 -0.3146  0.4263  0.0571
  847MOL0     C11694   6.908   1.103   7.023 -1.0806  0.3419  1.0401
  847MOL0     C11695   6.883   1.049   7.166  0.3853 -0.7801  0.0496
  847MOL0     O11696   6.823   1.155   7.240 -0.2499  0.7709 -0.0276
  847MOL0     C11697   6.749   1.116   7.350  0.2906 -0.3707  0.4906
  847MOL0     C11698   6.784   0.998   7.418 -0.5863  0.7304 -0.4820
  847MOL0     C11699   6.719   0.970   7.537 -0.5198 -0.4792  0.2034
  847MOL0     C11700   6.635   1.065   7.598  0.1806 -0.5070  0.1931
  847MOL0     C11701   6.571   1.034   7.724 -0.0517 -1.1145  0.2028
  847MOL0     O11702   6.608   0.914   7.795 -0.1833  0.0700  0.7787
  847MOL0     C11703   6.546   0.904   7.921  0.8266  0.1257 -0.2250
  847MOL0     C11704   6.604   0.940   8.041  0.3511  0.1155  0.0009
  847MOL0     C11705   6.539   0.926   8.160  0.6563  0.4390  0.4146
  847MOL0     C11706   6.416   0.862   8.170 -0.8070 -0.3462  0.2769
  847MOL0     O11707   6.365   0.826   8.286  0.9293  0.0316 -0.0555
  847MOL0     C11708   6.393   0.876   8.413  0.6164  0.3234 -0.3836
  847MOL0     C11709   6.349   1.017   8.439 -0.3861  0.1943  1.1572
  847MOL0     C11710   6.340   1.054   8.589 -1.4369 -0.3715  0.1103
  847MOL0     C11711   6.264   0.948   8.674 -0.0334 -0.5016 -0.2731
  847MOL0     C11712   6.279   0.977   8.825 -0.4996  0.0329  0.4310
  847MOL0     C11713   6.223   1.109   8.879 -0.0221 -0.1394  0.3400
  847MOL0     C11714   6.064   1.100   8.878 -0.5219  0.7176  0.4695
  847MOL0     C11715   6.015   1.219   8.963 -0.1613  0.3870  0.0716
  847MOL0    Cl11716   6.104   1.376   8.945  0.5019  0.0898  0.3905
  847MOL0     C11717   6.355   0.820   8.049  0.3915 -0.8099  0.6482
  847MOL0     C11718   6.418   0.842   7.923 -0.1240  0.1670 -0.1504
  847MOL0     O11719   6.492   1.118   7.773  0.5866 -0.0050  0.0725
  847MOL0     C11720   6.606   1.177   7.527 -0.0634  0.2331  0.1224
  847MOL0     C11721   6.665   1.208   7.408 -0.8038 -0.5634  0.7963
  847MOL0     N11722   7.100   0.838   6.675  0.0953  0.2852 -0.1545
  847MOL0     N11723   7.209   0.788   6.622 -0.3114 -0.1235 -0.6646
  847MOL0     C11724   7.215   0.904   7.619 -0.4439  0.1415  0.6132
  847MOL0     C11725   7.169   0.938   7.743  0.6227  0.4506  0.4183
  847MOL0     C11726   6.929   0.888   8.134 -0.9599  0.4181 -0.2922
  847MOL0     C11727   6.842   0.826   8.236 -0.2378  0.6838 -0.1209
  847MOL0     C11728   6.842   0.870   8.367  0.5183  0.4957 -0.1379
  847MOL0     C11729   6.912   0.977   8.414  0.2520 -0.8292 -0.6286
  847MOL0     O11730   6.893   1.000   8.546 -0.7808 -0.2463  1.5417
  847MOL0     C11731   6.955   1.123   8.600 -0.9114 -0.3212  0.6246
  847MOL0     C11732   6.868   1.149   8.723 -0.3634 -0.1057 -0.4198
  847MOL0     C11733   6.931   1.265   8.812 -0.3946 -0.1555 -0.1345
  847MOL0     C11734   6.882   1.263   8.958 -0.1698 -1.0199  0.5003
  847MOL0     C11735   6.735   1.297   8.963 -0.6364  0.3627  0.7190
  847MOL0     C11736   6.614   1.307   8.956 -0.0595  0.2084 -0.0320
  847MOL0     C11737   6.978   1.051   8.319  0.3070 -0.8025  0.1356
  847MOL0     C11738   7.009   0.993   8.187  0.9209 -0.8495  0.6539
  847MOL0     H11739   6.878   0.765   7.744 -1.7968  2.6363 -0.6780
  847MOL0     H11740   6.954   0.737   7.501  1.9492  0.6831 -1.4234
  847MOL0     H11741   7.040   0.789   7.290 -0.0368 -0.2211  0.4626
  847MOL0     H11742   7.085   0.632   7.360 -3.7615  1.3067  0.3607
  847MOL0     H11743   7.181   0.677   7.097  5.4519  0.0441 -3.7025
  847MOL0     H11744   7.292   0.629   7.226 -1.6266  0.9862  3.6994
  847MOL0     H11745   7.342   0.878   7.268  3.1810  1.6063 -2.3078
  847MOL0     H11746   7.221   0.914   7.150 -0.3141 -1.3305 -0.6337
  847MOL0     H11747   7.450   0.946   7.070  2.6078 -0.7426 -2.4229
  847MOL0     H11748   7.500   0.779   7.111  3.3192  2.8097 -0.6001
  847MOL0     H11749   7.353   0.910   6.889  1.5762  2.6368  1.7667
  847MOL0     H11750   7.312   0.742   6.921 -0.3876 -1.0094  1.9675
  847MOL0     H11751   7.592   0.732   6.908 -0.6720 -0.8745  1.2664
  847MOL0     H11752   7.570   0.889   6.830  0.8097  0.8957  0.2670
  847MOL0     H11753   7.598   0.706   6.683  0.1365  1.4454 -1.5183
  847MOL0     H11754   7.439   0.638   6.732  0.3811  0.0809  0.6626
  847MOL0     H11755   7.427   0.759   6.516 -1.3151  1.1015 -0.0978
  847MOL0     H11756   7.503   0.900   6.587  1.1396 -1.7988 -3.9798
  847MOL0     H11757   7.328   1.078   6.710 -1.3746  1.3461  2.3750
  847MOL0     H11758   6.941   1.076   6.740 -0.4286  3.2095  0.7415
  847MOL0     H11759   7.074   1.171   6.805 -5.1141  0.6607  5.6031
  847MOL0     H11760   7.091   0.989   6.987 -2.1059  1.8056  3.8890
  847MOL0     H11761   6.960   0.913   6.907 -1.0959  0.7235  0.0754
  847MOL0     H11762   6.959   1.200   7.023  0.8775 -0.5527 -2.0306
  847MOL0     H11763   6.810   1.116   6.977  0.0813 -1.9611 -2.4306
  847MOL0     H11764   6.978   1.019   7.212  0.9629 -0.0890 -0.6766
  847MOL0     H11765   6.824   0.957   7.159 -0.5643 -0.6037  3.5810
  847MOL0     H11766   6.839   0.921   7.365 -1.8463  0.4677 -1.4458
  847MOL0     H11767   6.743   0.876   7.587  0.8824 -0.1752  0.1384
  847MOL0     H11768   6.700   0.986   8.021 -0.8836  2.0933 -1.8084
  847MOL0     H11769   6.592   0.961   8.248 -1.1928  0.7713  1.4596
  847MOL0     H11770   6.497   0.858   8.440  1.6319  2.1521 -2.7040
  847MOL0     H11771   6.331   0.811   8.476  1.1823  2.0555  2.1201
  847MOL0     H11772   6.252   1.022   8.388  0.4796 -3.1142 -1.1128
  847MOL0     H11773   6.416   1.098   8.409  0.0200  1.0075  3.9622
  847MOL0     H11774   6.299   1.154   8.608 -1.2004 -0.5702  1.8021
  847MOL0     H11775   6.445   1.060   8.619 -0.5234 -0.7583 -2.6366
  847MOL0     H11776   6.165   0.920   8.637  0.3070 -1.6830 -0.3566
  847MOL0     H11777   6.315   0.851   8.668  1.4201  0.1517  0.7997
  847MOL0     H11778   6.386   0.979   8.848 -0.3806 -0.1007 -0.0940
  847MOL0     H11779   6.231   0.895   8.879 -0.1931 -0.3568  0.1164
  847MOL0     H11780   6.261   1.191   8.818  0.3766 -0.6121 -0.0544
  847MOL0     H11781   6.248   1.122   8.985 -1.3089 -0.1243  0.6532
  847MOL0     H11782   6.018   1.107   8.780  3.2355  0.9696 -1.4519
  847MOL0     H11783   6.022   1.009   8.923 -2.8872  1.2914 -0.4214
  847MOL0     H11784   6.019   1.208   9.072  0.1663  1.5717  0.1873
  847MOL0     H11785   5.907   1.230   8.950 -0.3851  1.5556  2.4105
  847MOL0     H11786   6.256   0.775   8.046  0.6426 -1.3356 -0.0884
  847MOL0     H11787   6.378   0.804   7.829 -0.8264  1.8201 -0.5481
  847MOL0     H11788   6.532   1.247   7.566 -1.0171 -0.2537 -0.7837
  847MOL0     H11789   6.643   1.305   7.364  1.5519 -0.2083  0.2650
  847MOL0     H11790   7.316   0.937   7.593 -0.2973 -1.8601 -1.7938
  847MOL0     H11791   7.230   0.994   7.812  0.6415  1.4090 -0.3559
  847MOL0     H11792   6.772   0.749   8.205  0.3807  0.1722 -0.2675
  847MOL0     H11793   6.795   0.798   8.433 -2.0897  1.1992 -1.1399
  847MOL0     H11794   6.946   1.206   8.529 -0.6988 -0.1447  0.8055
  847MOL0     H11795   7.062   1.105   8.615 -0.9297 -1.7088 -0.6125
  847MOL0     H11796   6.764   1.166   8.693 -1.3846 -1.9282  1.8175
  847MOL0     H11797   6.866   1.057   8.781  2.7844  0.3230  0.5311
  847MOL0     H11798   6.908   1.359   8.762 -0.8686  0.7782  1.7538
  847MOL0     H11799   7.039   1.253   8.821 -0.3067  0.7297  0.0546
  847MOL0     H11800   6.901   1.168   9.008  1.0379 -0.6032  0.8566
  847MOL0     H11801   6.946   1.326   9.021  1.3600 -2.4036  0.4011
  847MOL0     H11802   6.510   1.334   8.953  0.2250  1.6995  1.8834
  847MOL0     H11803   7.029   1.142   8.348  0.2551 -0.8500  0.3734
  847MOL0     H11804   7.073   1.048   8.118 -0.4241  0.1079  0.1154
  848MOL0     O11805  10.757  10.965   8.489  0.2324  0.2722  0.6541
  848MOL0     C11806  10.715  11.079   8.483  0.8284  0.2786 -0.3336
  848MOL0     O11807  10.788  11.186   8.539 -0.2269 -0.2934 -0.4269
  848MOL0     C11808  10.907  11.166   8.597 -0.0402  0.0552  0.0223
  848MOL0     C11809  10.916  11.070   8.707 -0.1461 -0.7531 -0.1493
  848MOL0     C11810  11.044  11.045   8.760 -0.5461  0.0120 -0.3130
  848MOL0     C11811  11.163  11.100   8.709 -0.0180  0.3073 -0.2216
  848MOL0     O11812  11.288  11.070   8.765  1.1017 -0.4177  0.2316
  848MOL0     C11813  11.392  10.999   8.694 -0.3884  0.3172  0.2378
  848MOL0     C11814  11.461  10.931   8.804 -0.4009  0.2158  0.6148
  848MOL0     C11815  11.525  10.794   8.765 -0.5129  0.3476 -0.0035
  848MOL0     C11816  11.421  10.686   8.782  0.0048  0.3981  0.2782
  848MOL0     C11817  11.448  10.545   8.727  0.3845 -1.0688  0.7667
  848MOL0     C11818  11.321  10.470   8.703 -0.1812  0.0168  0.6605
  848MOL0     C11819  11.344  10.328   8.676 -0.6895 -0.3093  0.7581
  848MOL0     C11820  11.432  10.305   8.550  0.1125  0.6753  0.2134
  848MOL0     N11821  11.378  10.180   8.487 -0.3962 -0.4461 -0.0171
  848MOL0     C11822  11.437  10.053   8.500 -0.5008 -0.0302 -0.5785
  848MOL0     C11823  11.352   9.969   8.444 -0.8068  0.1314 -0.3797
  848MOL0     C11824  11.365   9.817   8.450 -0.4622  0.1866 -0.2431
  848MOL0     C11825  11.358   9.756   8.311 -0.2759  0.2444  0.0115
  848MOL0     C11826  11.368   9.604   8.309 -0.6147 -0.6733  0.0090
  848MOL0     C11827  11.408   9.529   8.191 -0.2847  0.2627 -0.0889
  848MOL0     O11828  11.539   9.573   8.142  0.5665 -0.0274  0.2818
  848MOL0     C11829  11.622   9.473   8.111 -0.7708  0.2095 -0.8115
  848MOL0     C11830  11.657   9.462   7.980 -0.3091 -0.2384  0.2676
  848MOL0     C11831  11.764   9.377   7.956  0.4837 -0.6470  0.2686
  848MOL0     C11832  11.838   9.304   8.053  0.5024 -1.1950  0.4813
  848MOL0     C11833  11.963   9.233   8.022  0.2768 -0.6784  0.6002
  848MOL0     O11834  11.967   9.159   7.898  0.5376  0.0540  0.3926
  848MOL0     C11835  12.081   9.081   7.888  0.1829 -0.3108 -0.4165
  848MOL0     C11836  12.147   9.082   7.766  0.2366 -0.2359  0.4704
  848MOL0     C11837  12.236   8.992   7.737 -0.3493  1.1453 -0.3630
  848MOL0     C11838  12.292   8.906   7.836  1.2621 -0.2247 -0.1013
  848MOL0     O11839  12.389   8.802   7.811  0.1454  0.0043 -0.6413
  848MOL0     C11840  12.419   8.777   7.671  0.4464 -0.7696 -0.0464
  848MOL0     C11841  12.484   8.631   7.652 -0.2028  1.1314  0.3049
  848MOL0     C11842  12.599   8.609   7.754  0.8865 -0.1999 -0.5039
  848MOL0     C11843  12.730   8.695   7.708  0.3633  0.0517 -0.5336
  848MOL0     C11844  12.845   8.691   7.800  0.7718  0.1445  0.8308
  848MOL0     C11845  12.956   8.796   7.765 -0.1826  0.3346 -0.2418
  848MOL0     C11846  13.062   8.817   7.873  0.3235  0.2986 -0.3453
  848MOL0     C11847  13.183   8.896   7.813  0.6987  0.2742 -0.6120
  848MOL0    Cl11848  13.150   9.070   7.792  0.4878 -0.5754 -0.1028
  848MOL0     C11849  12.232   8.908   7.963 -0.9008 -0.3015  0.2194
  848MOL0     C11850  12.121   8.994   7.984 -0.6338  0.0458 -0.5153
  848MOL0     O11851  12.061   9.251   8.104  0.5161  0.5044 -0.8392
  848MOL0     C11852  11.787   9.320   8.186  0.8192  0.9174  0.1895
  848MOL0     C11853  11.681   9.401   8.218 -0.3827  0.0913  0.2240
  848MOL0     N11854  11.258  10.040   8.375 -1.4090  0.0060  0.4914
  848MOL0     N11855  11.273  10.169   8.401 -0.1754  0.2144 -0.8710
  848MOL0     C11856  11.159  11.183   8.600  0.2937 -0.4813  0.4085
  848MOL0     C11857  11.033  11.228   8.553  0.5125  0.2210 -0.3249
  848MOL0     C11858  10.573  11.112   8.430 -0.2755 -0.9909 -0.2639
  848MOL0     C11859  10.535  11.247   8.415  0.0634 -0.5305  0.1605
  848MOL0     C11860  10.412  11.281   8.345 -0.4816 -0.2116 -0.3920
  848MOL0     C11861  10.320  11.189   8.316 -0.7186 -0.8585  0.7432
  848MOL0     O11862  10.205  11.220   8.258  0.1925  0.4140 -0.4562
  848MOL0     C11863  10.093  11.184   8.331  0.2199 -1.2255  0.1864
  848MOL0     C11864   9.994  11.294   8.318 -1.1856 -0.5118  0.9342
  848MOL0     C11865   9.851  11.280   8.390 -0.2152  0.2532  0.3879
  848MOL0     C11866   9.790  11.137   8.396 -0.0195  0.1237 -0.1729
  848MOL0     C11867   9.755  11.091   8.261  0.0870  0.6158  0.2203
  848MOL0     C11868   9.722  11.045   8.155 -0.4342 -0.5940  0.8425
  848MOL0     C11869  10.352  11.052   8.338 -0.1826 -0.1493  0.4768
  848MOL0     C11870  10.480  11.013   8.394 -0.3586 -0.2350  1.1926
  848MOL0     H11871  10.823  11.032   8.748 -0.7388 -1.4203 -1.9982
  848MOL0     H11872  11.058  10.968   8.834  1.0470  2.2753  1.8826
  848MOL0     H11873  11.466  11.061   8.643 -4.4405  4.4388 -1.3425
  848MOL0     H11874  11.361  10.933   8.613  3.0597  0.5797 -1.4788
  848MOL0     H11875  11.389  10.906   8.882  0.0030 -0.3656  0.8140
  848MOL0     H11876  11.545  10.988   8.845  0.5840 -1.6929  1.4332
  848MOL0     H11877  11.610  10.781   8.833 -1.0303 -2.9380  0.1821
  848MOL0     H11878  11.572  10.796   8.666  0.6391 -0.5867  0.4926
  848MOL0     H11879  11.402  10.677   8.890  2.4228  0.0015  0.7215
  848MOL0     H11880  11.329  10.719   8.734 -0.6289 -0.5366  0.8118
  848MOL0     H11881  11.513  10.487   8.794  0.2737 -0.2351  1.6148
  848MOL0     H11882  11.500  10.571   8.634  0.6693 -1.5274  0.7961
  848MOL0     H11883  11.257  10.521   8.630  1.1420 -0.3566 -0.8226
  848MOL0     H11884  11.274  10.469   8.801 -1.7908 -2.8597 -0.0212
  848MOL0     H11885  11.390  10.281   8.763  0.1438 -1.1481 -0.1152
  848MOL0     H11886  11.249  10.285   8.643  1.1262 -1.1318 -4.2489
  848MOL0     H11887  11.529  10.277   8.592 -0.2697 -2.4602 -0.7316
  848MOL0     H11888  11.437  10.385   8.476  2.0752 -0.2133 -0.6924
  848MOL0     H11889  11.516  10.018   8.566 -1.7097  0.6746  1.3234
  848MOL0     H11890  11.283   9.773   8.506  0.9450 -5.1956 -1.8520
  848MOL0     H11891  11.450   9.794   8.515 -0.8214  2.6436  1.2487
  848MOL0     H11892  11.436   9.790   8.241 -1.4637 -1.9178 -2.5641
  848MOL0     H11893  11.258   9.785   8.276 -1.4455 -3.3925 -0.0919
  848MOL0     H11894  11.449   9.583   8.380 -0.3811  1.8387  0.6008
  848MOL0     H11895  11.273   9.574   8.355 -2.1515  2.7552 -0.5875
  848MOL0     H11896  11.352   9.560   8.102  0.8949 -0.1156 -0.9862
  848MOL0     H11897  11.403   9.420   8.199  1.5982 -0.1645 -3.1871
  848MOL0     H11898  11.624   9.527   7.900  0.4581 -1.9190 -1.4747
  848MOL0     H11899  11.797   9.385   7.853  0.2860  1.2317  0.3035
  848MOL0     H11900  12.120   9.150   7.686  2.2183 -0.3699 -0.3477
  848MOL0     H11901  12.275   8.977   7.636 -1.0130  0.5837 -0.5454
  848MOL0     H11902  12.479   8.859   7.631  1.4606 -1.7722 -0.6289
  848MOL0     H11903  12.324   8.785   7.617  1.7614  0.4865 -2.3747
  848MOL0     H11904  12.532   8.623   7.554  1.5916  2.1606  1.0582
  848MOL0     H11905  12.408   8.552   7.664  1.2403 -0.6278 -1.3267
  848MOL0     H11906  12.621   8.503   7.765 -1.8219 -0.7477  0.3969
  848MOL0     H11907  12.572   8.646   7.853  0.5534 -0.1583 -0.6083
  848MOL0     H11908  12.750   8.668   7.604 -2.8737 -0.2802 -1.1739
  848MOL0     H11909  12.704   8.801   7.707  0.0699 -0.0205 -1.3113
  848MOL0     H11910  12.894   8.594   7.790  1.5169  0.2167  3.3064
  848MOL0     H11911  12.802   8.715   7.897  0.1131  3.5538 -0.1568
  848MOL0     H11912  12.900   8.883   7.731 -3.9389 -1.4935  0.6819
  848MOL0     H11913  13.008   8.753   7.679  0.2681 -1.0448  0.6809
  848MOL0     H11914  13.027   8.870   7.963  0.6924  0.3822 -0.2495
  848MOL0     H11915  13.098   8.719   7.905 -0.7358 -0.7786 -2.2647
  848MOL0     H11916  13.205   8.843   7.720  0.3321 -1.5045  0.2799
  848MOL0     H11917  13.265   8.880   7.884 -0.1997 -0.5334  0.2777
  848MOL0     H11918  12.275   8.846   8.041 -0.4605 -0.0609  0.1665
  848MOL0     H11919  12.061   8.999   8.075 -1.5731  2.8960 -1.2021
  848MOL0     H11920  11.840   9.278   8.272  1.8250  0.3407 -0.6931
  848MOL0     H11921  11.643   9.425   8.317 -3.8642 -2.5759 -0.2529
  848MOL0     H11922  11.248  11.230   8.559  0.9616 -0.8456  1.3913
  848MOL0     H11923  11.048  11.298   8.472  1.1815 -1.1204 -1.4086
  848MOL0     H11924  10.599  11.329   8.446  0.5083 -0.5818 -0.6161
  848MOL0     H11925  10.397  11.385   8.320 -1.2058 -0.3978 -0.7889
  848MOL0     H11926  10.097  11.185   8.441  0.6860  0.7367  0.1850
  848MOL0     H11927  10.060  11.092   8.283  1.4216 -1.6805  0.1979
  848MOL0     H11928  10.032  11.387   8.361 -1.0965  0.6775 -1.5345
  848MOL0     H11929   9.975  11.314   8.212 -3.7454 -0.2686  1.3666
  848MOL0     H11930   9.791  11.361   8.346 -1.0897 -1.7431 -2.3693
  848MOL0     H11931   9.862  11.302   8.497 -2.6954 -0.4762  0.8461
  848MOL0     H11932   9.845  11.062   8.454 -1.3080 -0.1019  0.7873
  848MOL0     H11933   9.698  11.147   8.454  0.4500  0.0517  0.5929
  848MOL0     H11934   9.681  11.013   8.061 -2.2767  0.8451  1.1039
  848MOL0     H11935  10.278  10.974   8.325 -1.1596  0.6765  0.9589
  848MOL0     H11936  10.500  10.911   8.425  1.6687 -0.0461  0.6279
  849MOL0     O11937   3.810   9.292   4.658  0.7016 -0.5019  0.2834
  849MOL0     C11938   3.742   9.382   4.605 -0.0969 -0.3315 -0.2745
  849MOL0     O11939   3.698   9.392   4.476 -0.5770  0.3304  0.6831
  849MOL0     C11940   3.727   9.286   4.383 -0.7695 -1.0209 -0.2791
  849MOL0     C11941   3.694   9.155   4.393  0.7277 -0.5836 -0.2860
  849MOL0     C11942   3.738   9.062   4.296 -0.3304 -0.3908  0.4354
  849MOL0     C11943   3.799   9.111   4.177  0.2407 -0.6065 -0.0803
  849MOL0     O11944   3.829   9.028   4.080  0.8607  0.6734  0.6854
  849MOL0     C11945   3.721   8.980   3.992  0.0855  0.0186 -0.8026
  849MOL0     C11946   3.581   9.061   3.977  0.1244  0.5683  0.2233
  849MOL0     C11947   3.506   9.010   3.847 -0.5470  0.2235  0.8715
  849MOL0     C11948   3.363   9.060   3.836 -0.7079 -0.3695  0.9739
  849MOL0     C11949   3.309   9.028   3.698 -0.0616 -0.5097  0.0696
  849MOL0     C11950   3.265   8.884   3.683 -0.1023  0.6760  0.4565
  849MOL0     C11951   3.208   8.878   3.539  0.0162 -0.1348 -0.8038
  849MOL0     C11952   3.147   8.743   3.507  0.6484  0.9292 -0.6791
  849MOL0     N11953   3.227   8.626   3.554  0.0209 -0.6726  0.3542
  849MOL0     C11954   3.351   8.596   3.493  0.4317  0.5529 -0.1936
  849MOL0     C11955   3.406   8.510   3.583 -0.4481 -0.5634  0.0258
  849MOL0     C11956   3.551   8.455   3.581 -0.2225  0.6570 -0.0184
  849MOL0     C11957   3.589   8.368   3.704  0.1447  0.1708  0.9316
  849MOL0     C11958   3.643   8.459   3.816  0.4552 -0.4185 -0.7656
  849MOL0     C11959   3.546   8.564   3.874 -0.0588  0.5394 -0.0999
  849MOL0     O11960   3.620   8.609   3.985  0.3957 -0.2855 -0.2366
  849MOL0     C11961   3.555   8.660   4.097 -0.2778  0.2055  0.5799
  849MOL0     C11962   3.427   8.710   4.090 -0.9622  0.6077 -0.2494
  849MOL0     C11963   3.362   8.774   4.200  0.1321  0.6108  0.6201
  849MOL0     C11964   3.426   8.781   4.324  0.1744  0.2129 -0.2142
  849MOL0     C11965   3.376   8.850   4.440  0.1253 -0.5981 -0.0584
  849MOL0     O11966   3.239   8.840   4.467  0.3597 -0.0793  0.7404
  849MOL0     C11967   3.193   8.906   4.574 -0.2375 -0.2416  0.3111
  849MOL0     C11968   3.092   9.001   4.561  0.0705  0.9837 -0.4225
  849MOL0     C11969   3.032   9.058   4.677 -0.3450 -0.4628  0.5157
  849MOL0     C11970   3.072   9.021   4.800 -0.6492 -0.2900 -0.5056
  849MOL0     O11971   2.986   9.063   4.900  0.5732  0.2903  0.2791
  849MOL0     C11972   2.978   8.967   5.012 -0.3452  0.1010 -0.4218
  849MOL0     C11973   2.857   8.994   5.106 -0.2486 -0.0589 -0.1972
  849MOL0     C11974   2.731   8.934   5.054  0.4293  0.1863 -0.1494
  849MOL0     C11975   2.618   8.975   5.143  0.2973  0.1399 -0.2764
  849MOL0     C11976   2.475   8.939   5.096 -0.1660  0.2575  1.0454
  849MOL0     C11977   2.367   8.968   5.195  0.7796 -0.1407 -0.0456
  849MOL0     C11978   2.233   8.945   5.136 -0.0948  0.8975 -0.4530
  849MOL0     C11979   2.123   9.021   5.208 -0.1603  0.4917 -0.5920
  849MOL0    Cl11980   2.093   9.178   5.126 -0.3438 -0.2181  0.0924
  849MOL0     C11981   3.183   8.924   4.819  0.6365 -0.0262 -0.5097
  849MOL0     C11982   3.234   8.869   4.698  0.1344 -0.1317  0.0304
  849MOL0     O11983   3.444   8.939   4.488  0.5696  0.1967 -0.7212
  849MOL0     C11984   3.563   8.728   4.337  0.4106  0.9107  0.8771
  849MOL0     C11985   3.613   8.665   4.224  0.0934  0.7530 -0.6977
  849MOL0     N11986   3.318   8.494   3.693 -0.5895  0.9099 -0.2660
  849MOL0     N11987   3.215   8.570   3.676 -0.0289  0.0017  0.1218
  849MOL0     C11988   3.827   9.248   4.169 -0.4755 -0.7899  0.7188
  849MOL0     C11989   3.785   9.336   4.264  0.1166 -0.2151  1.2439
  849MOL0     C11990   3.697   9.477   4.711  0.2425  0.0620  0.5302
  849MOL0     C11991   3.622   9.583   4.676 -0.1086  1.0240  0.5754
  849MOL0     C11992   3.606   9.684   4.764  0.2757 -1.2011  0.7165
  849MOL0     C11993   3.648   9.689   4.895  0.4701 -0.1364 -0.1673
  849MOL0     O11994   3.613   9.787   4.985  0.8681 -0.9567 -0.1479
  849MOL0     C11995   3.646   9.784   5.124 -0.8052 -0.0786  0.2111
  849MOL0     C11996   3.597   9.910   5.195  0.1364 -0.2565 -0.1440
  849MOL0     C11997   3.444   9.914   5.182  0.0848 -0.0529 -1.0969
  849MOL0     C11998   3.363  10.010   5.276 -0.7455 -0.5410 -0.9882
  849MOL0     C11999   3.387  10.152   5.256 -0.8435 -0.4474 -0.4021
  849MOL0     C12000   3.402  10.271   5.235 -0.0115 -0.1660 -0.6713
  849MOL0     C12001   3.714   9.573   4.934  0.0599  0.2156 -0.4965
  849MOL0     C12002   3.743   9.474   4.843  0.5001  1.4776 -0.3813
  849MOL0     H12003   3.633   9.128   4.478 -0.0375  0.8081 -0.3670
  849MOL0     H12004   3.720   8.959   4.324 -3.4019  0.2307  1.1267
  849MOL0     H12005   3.700   8.874   4.008 -1.0773  0.6469  2.9494
  849MOL0     H12006   3.777   8.992   3.899  1.4517 -0.4293 -0.0496
  849MOL0     H12007   3.603   9.167   3.969 -3.9581  1.5330 -0.7669
  849MOL0     H12008   3.526   9.055   4.071  3.1288 -2.0616  2.0338
  849MOL0     H12009   3.502   8.901   3.839 -3.6428  0.3454 -0.7364
  849MOL0     H12010   3.564   9.045   3.762  0.4212 -3.3141 -0.0868
  849MOL0     H12011   3.293   9.013   3.905 -0.7851  0.6499  1.6191
  849MOL0     H12012   3.356   9.169   3.849  0.0538 -0.0724 -0.7456
  849MOL0     H12013   3.375   9.064   3.618  0.8794 -0.1832  0.9717
  849MOL0     H12014   3.223   9.095   3.689 -0.1641 -0.4355  1.4821
  849MOL0     H12015   3.188   8.856   3.755 -0.2854  0.0057  0.0119
  849MOL0     H12016   3.345   8.816   3.713  0.1818  1.7257  2.1954
  849MOL0     H12017   3.130   8.953   3.524 -1.3477 -1.1342  0.8231
  849MOL0     H12018   3.283   8.897   3.463 -0.7393 -2.3907 -2.2141
  849MOL0     H12019   3.156   8.742   3.398  0.2147  3.8811 -0.8253
  849MOL0     H12020   3.048   8.733   3.552  0.6884 -3.8769 -1.1093
  849MOL0     H12021   3.384   8.633   3.397 -1.6790  0.3142 -1.0681
  849MOL0     H12022   3.622   8.538   3.575  2.4319 -1.1920  2.7944
  849MOL0     H12023   3.545   8.395   3.489  0.2992  2.2739 -1.1487
  849MOL0     H12024   3.676   8.312   3.667  0.9758  2.4206 -0.7252
  849MOL0     H12025   3.507   8.301   3.731 -1.7001  3.2995  3.7075
  849MOL0     H12026   3.673   8.394   3.898  0.1944  1.3234  0.7673
  849MOL0     H12027   3.729   8.514   3.778 -0.1763  0.1040 -1.4750
  849MOL0     H12028   3.452   8.512   3.894 -1.4717  1.2044 -3.9722
  849MOL0     H12029   3.509   8.649   3.815 -0.1369  0.9657  0.5527
  849MOL0     H12030   3.363   8.695   4.004 -2.6150 -2.4743  1.3641
  849MOL0     H12031   3.263   8.814   4.182  0.0227 -0.8883 -2.8360
  849MOL0     H12032   3.052   9.021   4.462 -1.5320  2.5854  0.4780
  849MOL0     H12033   2.948   9.127   4.670  1.1636  1.2478 -2.3794
  849MOL0     H12034   3.065   8.988   5.076 -1.2345 -1.6264  1.4744
  849MOL0     H12035   2.988   8.860   4.994  1.4844  0.0998  0.3659
  849MOL0     H12036   2.846   9.102   5.116  1.2505  0.0968  0.0017
  849MOL0     H12037   2.888   8.951   5.202 -2.3516 -0.7205  0.2342
  849MOL0     H12038   2.747   8.826   5.046  2.1568  0.2147  2.0189
  849MOL0     H12039   2.725   8.977   4.954  3.2164  1.5694  0.1924
  849MOL0     H12040   2.638   8.929   5.240  3.1395  1.6861 -0.0176
  849MOL0     H12041   2.624   9.082   5.161  1.4590  0.5793 -2.7189
  849MOL0     H12042   2.467   8.833   5.070 -0.3503  0.6468 -0.5870
  849MOL0     H12043   2.450   8.995   5.005 -3.4853  1.0560  2.3222
  849MOL0     H12044   2.366   9.073   5.223 -1.4823  0.0105 -0.4858
  849MOL0     H12045   2.394   8.915   5.287  0.9401 -1.5777 -0.8960
  849MOL0     H12046   2.222   8.979   5.033 -1.1377 -4.0456 -2.2779
  849MOL0     H12047   2.207   8.839   5.144 -1.2488  1.1822 -0.2870
  849MOL0     H12048   2.159   9.045   5.309 -0.7418  0.3956 -0.3568
  849MOL0     H12049   2.034   8.959   5.225 -0.6037  1.2455 -0.1191
  849MOL0     H12050   3.240   8.908   4.910  0.1148  0.4644 -0.0891
  849MOL0     H12051   3.320   8.803   4.703  0.6548  0.4564 -0.9510
  849MOL0     H12052   3.613   8.735   4.432  0.5500  2.1191  0.7292
  849MOL0     H12053   3.711   8.623   4.244 -0.9980 -2.2578 -1.1078
  849MOL0     H12054   3.884   9.270   4.079  0.0370 -0.1340  1.1933
  849MOL0     H12055   3.814   9.440   4.250  2.2667 -1.0415 -1.1275
  849MOL0     H12056   3.579   9.589   4.577  1.2464  2.1280  0.0105
  849MOL0     H12057   3.555   9.778   4.746  0.1198 -1.4393 -0.0937
  849MOL0     H12058   3.754   9.768   5.138 -0.1701  1.4431 -2.1712
  849MOL0     H12059   3.604   9.695   5.170 -2.3605  0.4654 -0.1043
  849MOL0     H12060   3.634   9.925   5.297  2.6732  1.5435 -1.2272
  849MOL0     H12061   3.637   9.995   5.140 -1.2928 -1.0125 -2.5011
  849MOL0     H12062   3.390   9.823   5.209 -2.1573  2.3740  3.9676
  849MOL0     H12063   3.426   9.941   5.077  1.5113  0.3346 -1.2628
  849MOL0     H12064   3.256   9.998   5.256 -0.9990 -1.8727  0.8306
  849MOL0     H12065   3.383   9.985   5.381 -0.1132  0.0587 -0.9612
  849MOL0     H12066   3.396  10.376   5.216 -1.7346  0.1223  1.1137
  849MOL0     H12067   3.752   9.553   5.034 -1.2647 -0.0017 -0.0215
  849MOL0     H12068   3.798   9.388   4.877 -0.5701  0.7729 -0.3832
  850MOL0     O12069   8.202   8.250   9.251  0.4705 -0.5567  0.5593
  850MOL0     C12070   8.283   8.209   9.174  0.1023 -0.4236  0.1663
  850MOL0     O12071   8.268   8.207   9.039 -0.8322 -0.3579  0.0138
  850MOL0     C12072   8.202   8.308   8.972  0.6239  0.2250  0.6843
  850MOL0     C12073   8.213   8.292   8.831 -0.6362 -0.1223  0.5352
  850MOL0     C12074   8.149   8.371   8.736 -0.1585  0.9029 -0.8904
  850MOL0     C12075   8.063   8.474   8.775 -0.0897 -0.5287 -0.0010
  850MOL0     O12076   7.989   8.567   8.693  0.1999  0.0179 -0.5776
  850MOL0     C12077   7.925   8.505   8.577 -0.6129 -0.9968  1.1457
  850MOL0     C12078   7.812   8.604   8.515 -0.3575  0.7332  0.8202
  850MOL0     C12079   7.729   8.670   8.621  0.8599 -0.0775 -0.1157
  850MOL0     C12080   7.598   8.727   8.553 -0.3392  0.7607  0.5567
  850MOL0     C12081   7.532   8.821   8.650 -1.4728 -0.9903 -0.2590
  850MOL0     C12082   7.388   8.855   8.613 -0.6036  0.2665  0.3662
  850MOL0     C12083   7.296   8.738   8.614 -0.1368  0.6124  0.4071
  850MOL0     C12084   7.251   8.701   8.746 -0.5496  0.4552 -0.6910
  850MOL0     N12085   7.340   8.608   8.813 -0.4106 -0.4165 -0.2141
  850MOL0     C12086   7.443   8.630   8.909  0.4923  0.3319  0.6265
  850MOL0     C12087   7.507   8.509   8.912 -0.8531  0.1949 -0.3269
  850MOL0     C12088   7.630   8.494   8.986 -0.1546  0.8362  0.5368
  850MOL0     C12089   7.649   8.359   9.054  0.6448  0.3081  0.9592
  850MOL0     C12090   7.557   8.344   9.183  0.2222 -0.6760 -0.3389
  850MOL0     C12091   7.627   8.232   9.265 -0.3328  0.0959  0.5127
  850MOL0     O12092   7.539   8.210   9.380 -0.3877  0.0774 -0.7001
  850MOL0     C12093   7.433   8.131   9.349  0.3348  1.5223 -0.8011
  850MOL0     C12094   7.423   8.028   9.256 -0.1355 -0.4616 -0.8849
  850MOL0     C12095   7.313   7.942   9.250 -0.2877  0.8477 -0.1255
  850MOL0     C12096   7.206   7.962   9.342  0.4460  0.8868  0.2836
  850MOL0     C12097   7.094   7.857   9.340  0.0879  0.7542  0.9744
  850MOL0     O12098   7.074   7.782   9.223  0.7094  0.4174 -0.0893
  850MOL0     C12099   6.949   7.716   9.203 -0.1631  0.3020 -0.5296
  850MOL0     C12100   6.827   7.757   9.240  0.3098 -0.0666 -0.9266
  850MOL0     C12101   6.712   7.687   9.218  0.7993 -0.3668  0.1105
  850MOL0     C12102   6.708   7.568   9.139  0.2181  0.5110  0.1173
  850MOL0     O12103   6.587   7.515   9.101  0.0403 -0.6561 -0.3789
  850MOL0     C12104   6.572   7.412   9.009 -0.5114 -0.1942  0.5079
  850MOL0     C12105   6.432   7.367   8.977 -0.0883 -0.4124  0.2267
  850MOL0     C12106   6.395   7.369   8.824 -0.4089 -0.2937  0.0368
  850MOL0     C12107   6.265   7.296   8.791  0.8115  0.1298  1.1151
  850MOL0     C12108   6.143   7.374   8.836  0.8169 -0.0528 -0.5395
  850MOL0     C12109   6.005   7.302   8.828  0.9493 -0.4097 -0.1257
  850MOL0     C12110   5.966   7.275   8.679  0.0299  0.9274  0.6359
  850MOL0     C12111   5.840   7.191   8.663  0.3192 -0.5184 -1.0940
  850MOL0    Cl12112   5.809   7.144   8.495  0.1746 -0.3886 -0.2545
  850MOL0     C12113   6.825   7.529   9.083  0.3200  1.4216 -0.1131
  850MOL0     C12114   6.944   7.601   9.121 -0.7954  0.4649 -0.0519
  850MOL0     O12115   7.020   7.851   9.437  0.4263  0.5218 -0.3639
  850MOL0     C12116   7.213   8.063   9.432 -0.0842 -0.9830 -0.2194
  850MOL0     C12117   7.325   8.145   9.436 -0.5386 -0.1513  0.9643
  850MOL0     N12118   7.449   8.419   8.822 -0.4310  0.4101 -0.4300
  850MOL0     N12119   7.351   8.479   8.770 -0.1687 -0.3404 -1.3453
  850MOL0     C12120   8.042   8.486   8.911  0.5507  0.9467 -0.3612
  850MOL0     C12121   8.106   8.407   9.013  0.8641 -0.9462  0.4376
  850MOL0     C12122   8.399   8.148   9.231  0.0021  0.2820  0.4336
  850MOL0     C12123   8.482   8.075   9.148  0.1669  0.4123 -0.3857
  850MOL0     C12124   8.599   8.022   9.195 -1.0182 -0.7801  0.2419
  850MOL0     C12125   8.650   8.055   9.324 -0.1413 -0.0062  0.1215
  850MOL0     O12126   8.772   8.019   9.374 -0.5800 -0.2088  0.4321
  850MOL0     C12127   8.866   7.948   9.299 -1.0128 -0.0887 -0.1619
  850MOL0     C12128   8.942   8.036   9.189  0.5396 -0.0791 -0.4628
  850MOL0     C12129   9.041   8.137   9.253 -0.4494 -0.1336  0.4561
  850MOL0     C12130   9.175   8.080   9.283  0.1094  0.3358 -0.6523
  850MOL0     C12131   9.283   8.177   9.308 -0.8880  0.6483  0.8893
  850MOL0     C12132   9.382   8.241   9.326 -0.0089 -1.6010  0.2112
  850MOL0     C12133   8.568   8.135   9.408  0.5323 -1.1081  1.0355
  850MOL0     C12134   8.445   8.184   9.358  0.4182 -0.0091 -0.0907
  850MOL0     H12135   8.299   8.233   8.799 -0.7225  0.1184 -0.1445
  850MOL0     H12136   8.165   8.357   8.629 -0.8191 -2.8627 -0.6305
  850MOL0     H12137   7.894   8.401   8.595  0.6583 -1.9425 -1.4838
  850MOL0     H12138   8.006   8.495   8.503  0.9419 -0.8631  2.7765
  850MOL0     H12139   7.749   8.536   8.456 -0.6626 -0.5774  2.5605
  850MOL0     H12140   7.852   8.682   8.451  0.2854  0.1813  0.5438
  850MOL0     H12141   7.784   8.758   8.655  1.1389 -0.0109 -0.7411
  850MOL0     H12142   7.724   8.602   8.706  2.2498 -1.0251 -0.7715
  850MOL0     H12143   7.620   8.777   8.458  1.1868  0.8681  0.9465
  850MOL0     H12144   7.538   8.636   8.541  1.3724 -0.5193  1.3160
  850MOL0     H12145   7.581   8.918   8.660 -1.3513 -1.2118  1.5308
  850MOL0     H12146   7.536   8.776   8.750 -0.7942 -0.7667 -0.1826
  850MOL0     H12147   7.388   8.900   8.514  0.8274 -1.8531 -0.6640
  850MOL0     H12148   7.353   8.932   8.683 -1.9830 -0.6443  0.7317
  850MOL0     H12149   7.206   8.756   8.554 -0.8175 -0.4136  1.1064
  850MOL0     H12150   7.338   8.650   8.564  0.5340 -0.7915  3.2377
  850MOL0     H12151   7.155   8.655   8.724 -1.7616  1.7909  1.5347
  850MOL0     H12152   7.232   8.789   8.808  2.5561  2.8104 -2.7470
  850MOL0     H12153   7.434   8.719   8.972 -3.5730  1.3185 -1.0159
  850MOL0     H12154   7.654   8.577   9.053  3.5179  1.0385 -0.8121
  850MOL0     H12155   7.707   8.499   8.909 -1.0800  2.7541 -0.3119
  850MOL0     H12156   7.751   8.356   9.093  1.0921  0.4187 -0.1726
  850MOL0     H12157   7.638   8.272   8.988  2.9825  0.5467  0.1720
  850MOL0     H12158   7.552   8.442   9.231 -3.2975 -1.3629  1.0177
  850MOL0     H12159   7.451   8.323   9.167 -0.1180  0.5378  0.1831
  850MOL0     H12160   7.726   8.258   9.302 -0.8582  0.5109  1.6929
  850MOL0     H12161   7.646   8.142   9.206 -0.7385  1.1754 -1.3247
  850MOL0     H12162   7.499   8.011   9.180  1.4141  0.5339  0.3759
  850MOL0     H12163   7.324   7.861   9.178  3.4125 -1.2737  2.4950
  850MOL0     H12164   6.823   7.840   9.310 -3.3185 -2.5574  2.2326
  850MOL0     H12165   6.616   7.731   9.244  0.2786 -1.4910  0.1413
  850MOL0     H12166   6.632   7.324   9.037 -2.3588 -2.4926 -2.2432
  850MOL0     H12167   6.617   7.448   8.916 -0.2434  2.3318  1.5362
  850MOL0     H12168   6.358   7.436   9.018  0.0521  0.6765 -1.2464
  850MOL0     H12169   6.426   7.264   9.015  1.5844 -0.8566 -0.6130
  850MOL0     H12170   6.480   7.322   8.773 -1.6804 -3.2627  0.4267
  850MOL0     H12171   6.381   7.474   8.798 -0.1875 -0.1470  0.5134
  850MOL0     H12172   6.261   7.289   8.682  4.3414 -1.1248  0.9349
  850MOL0     H12173   6.259   7.192   8.823 -0.8210 -0.5521 -1.0915
  850MOL0     H12174   6.131   7.477   8.802 -1.6915  0.1933  0.8108
  850MOL0     H12175   6.150   7.395   8.943 -0.3653  1.9165 -0.7873
  850MOL0     H12176   5.928   7.375   8.856  1.1588  0.0823 -0.7909
  850MOL0     H12177   6.003   7.216   8.895 -0.7073 -0.1684  0.1767
  850MOL0     H12178   5.956   7.374   8.634  0.1274  1.5928  2.0287
  850MOL0     H12179   6.044   7.210   8.637  3.2644  3.0027  2.9505
  850MOL0     H12180   5.757   7.246   8.707  2.7910  2.4874  0.2429
  850MOL0     H12181   5.839   7.103   8.728 -0.5709  0.7257  0.6568
  850MOL0     H12182   6.839   7.442   9.019 -1.5907  2.2094 -1.6877
  850MOL0     H12183   7.041   7.564   9.088 -0.2382  3.3545 -2.0904
  850MOL0     H12184   7.133   8.089   9.501 -2.9382  0.1587 -3.6248
  850MOL0     H12185   7.314   8.233   9.500 -3.0259  1.3269 -1.2696
  850MOL0     H12186   7.976   8.567   8.943  0.2445  1.2450 -1.7006
  850MOL0     H12187   8.075   8.424   9.116 -1.9983 -1.3258 -0.2611
  850MOL0     H12188   8.472   8.075   9.040  2.5431 -0.9966 -0.6854
  850MOL0     H12189   8.644   7.947   9.132 -0.5914  0.0136 -0.4151
  850MOL0     H12190   8.820   7.860   9.252 -0.2381 -0.1189 -0.8768
  850MOL0     H12191   8.939   7.902   9.366 -0.5505  0.1381 -0.4999
  850MOL0     H12192   8.999   7.970   9.122  0.1947 -0.8386 -0.0227
  850MOL0     H12193   8.874   8.090   9.123 -3.8989 -0.4627  3.3512
  850MOL0     H12194   8.992   8.183   9.339 -2.1557 -1.7611  0.4125
  850MOL0     H12195   9.057   8.220   9.183 -0.7576  0.6762  1.3183
  850MOL0     H12196   9.169   8.027   9.378  0.2083 -3.4368 -2.5504
  850MOL0     H12197   9.199   8.005   9.206  0.4804  0.4513 -0.6476
  850MOL0     H12198   9.480   8.285   9.331  0.5994 -1.7903 -4.8313
  850MOL0     H12199   8.598   8.160   9.509  0.3843  2.5691  0.3248
  850MOL0     H12200   8.387   8.245   9.427 -2.2700 -4.5728  2.2239
  851MOL0     O12201   1.674   1.673   2.226 -0.2912 -0.6051  0.1071
  851MOL0     C12202   1.626   1.684   2.109 -0.1325 -0.1205  0.0194
  851MOL0     O12203   1.641   1.796   2.020  0.6898  0.8261 -0.2279
  851MOL0     C12204   1.731   1.892   2.035 -0.3069  0.2603 -0.7219
  851MOL0     C12205   1.864   1.861   2.065 -0.5421 -0.2137 -0.6341
  851MOL0     C12206   1.950   1.971   2.072  0.7207  0.2464  0.2526
  851MOL0     C12207   1.910   2.100   2.051 -0.2049 -0.8947  0.5852
  851MOL0     O12208   1.995   2.206   2.074  0.2719 -0.4654  0.4068
  851MOL0     C12209   2.099   2.203   2.170  0.4264 -0.2456  0.4227
  851MOL0     C12210   2.143   2.340   2.202  0.1197  0.6047 -0.6536
  851MOL0     C12211   2.281   2.342   2.270  0.2923 -0.1424  1.8804
  851MOL0     C12212   2.332   2.477   2.306 -0.4187 -0.5572 -0.2529
  851MOL0     C12213   2.242   2.573   2.385  0.1827  1.2218  0.0507
  851MOL0     C12214   2.212   2.515   2.519 -0.3851  1.1812 -0.1864
  851MOL0     C12215   2.063   2.489   2.550 -0.6034 -0.3570 -0.4470
  851MOL0     C12216   2.057   2.380   2.653 -0.3523 -0.8286  0.3582
  851MOL0     N12217   2.049   2.245   2.601 -0.5275 -0.5116  0.1327
  851MOL0     C12218   1.931   2.183   2.576 -0.7618 -0.2680 -0.0135
  851MOL0     C12219   1.977   2.056   2.546  0.8183 -0.5322 -0.1679
  851MOL0     C12220   1.891   1.943   2.501 -1.1644  1.0498  0.0760
  851MOL0     C12221   1.765   1.907   2.597  0.3100  0.2653 -0.0157
  851MOL0     C12222   1.706   1.773   2.568  0.3117  0.0773 -0.9206
  851MOL0     C12223   1.598   1.727   2.668  0.2833 -0.5569  0.0390
  851MOL0     O12224   1.633   1.677   2.797 -0.0398  0.6334  0.8434
  851MOL0     C12225   1.544   1.624   2.877  0.5982  0.7663  0.1487
  851MOL0     C12226   1.412   1.675   2.894 -0.1932  0.2918 -0.0073
  851MOL0     C12227   1.331   1.612   2.981  0.2432 -0.0290 -0.1075
  851MOL0     C12228   1.365   1.494   3.045 -0.2146 -0.7956 -0.5079
  851MOL0     C12229   1.279   1.426   3.149  0.2324 -0.5995  0.4384
  851MOL0     O12230   1.147   1.484   3.163  0.6267  0.5081  0.0354
  851MOL0     C12231   1.042   1.424   3.239  0.1208  0.3688  0.4108
  851MOL0     C12232   1.061   1.353   3.355 -0.3387 -0.3788 -0.0790
  851MOL0     C12233   0.957   1.285   3.409  0.1219 -0.3931 -0.1658
  851MOL0     C12234   0.819   1.292   3.368 -0.4365 -0.6492 -0.0949
  851MOL0     O12235   0.714   1.230   3.428 -0.5458 -0.0090 -0.2799
  851MOL0     C12236   0.704   1.230   3.570  0.3820 -0.3103  0.3507
  851MOL0     C12237   0.581   1.159   3.616 -0.0516 -0.0955 -0.1900
  851MOL0     C12238   0.580   1.164   3.771 -0.0408  1.0182  0.5883
  851MOL0     C12239   0.430   1.155   3.822  0.0120 -0.3854 -0.5912
  851MOL0     C12240   0.365   1.031   3.775 -0.2772 -0.0870 -0.1433
  851MOL0     C12241   0.248   0.995   3.869  0.4800 -0.0860 -0.0199
  851MOL0     C12242   0.130   1.084   3.851  0.9014 -0.2542  0.2891
  851MOL0     C12243   0.028   1.070   3.951  0.3141 -0.5102 -0.5633
  851MOL0    Cl12244  -0.109   1.169   3.897  0.1291 -0.2576 -0.3246
  851MOL0     C12245   0.803   1.361   3.244 -0.3817 -0.3789 -0.2813
  851MOL0     C12246   0.910   1.415   3.181 -0.4621 -0.5428  0.3949
  851MOL0     O12247   1.317   1.322   3.203  0.1906 -0.8610 -0.3573
  851MOL0     C12248   1.489   1.445   3.017 -0.7784  1.1640 -0.5452
  851MOL0     C12249   1.584   1.504   2.936 -1.1616  0.1769 -0.0252
  851MOL0     N12250   2.111   2.048   2.555  0.6759 -0.4454 -0.6877
  851MOL0     N12251   2.156   2.162   2.592  0.1562 -0.1036 -0.3435
  851MOL0     C12252   1.777   2.125   2.021 -0.2860 -0.4571  0.3837
  851MOL0     C12253   1.691   2.021   2.010 -0.3204  0.6326  0.6735
  851MOL0     C12254   1.537   1.574   2.073  0.2401  0.2630 -0.3059
  851MOL0     C12255   1.531   1.456   2.142 -0.5196 -1.3207 -0.9191
  851MOL0     C12256   1.437   1.360   2.105 -0.7986 -0.4369  0.6066
  851MOL0     C12257   1.363   1.371   1.988  0.0029 -0.6376  0.6344
  851MOL0     O12258   1.284   1.264   1.969  0.7795 -0.1103 -0.0374
  851MOL0     C12259   1.266   1.212   1.836 -0.6693 -1.1223 -0.0825
  851MOL0     C12260   1.119   1.189   1.809  0.4586  0.0173 -1.0458
  851MOL0     C12261   1.100   1.148   1.667  1.4263  0.1359 -0.3077
  851MOL0     C12262   0.948   1.089   1.662  0.0082  0.8937  0.8993
  851MOL0     C12263   0.947   0.951   1.709 -0.6710 -0.5512 -0.5479
  851MOL0     C12264   0.923   0.837   1.742  0.4714  0.7773 -0.5211
  851MOL0     C12265   1.379   1.481   1.907  0.4705 -0.4758 -0.0418
  851MOL0     C12266   1.457   1.583   1.964  0.0580  0.0118  0.6807
  851MOL0     H12267   1.901   1.761   2.088 -1.4668 -0.2281  0.9666
  851MOL0     H12268   2.053   1.944   2.092  0.3338  0.3723  2.6724
  851MOL0     H12269   2.188   2.145   2.144  0.8806  0.9599 -0.7871
  851MOL0     H12270   2.046   2.154   2.252 -0.5071 -5.5417 -2.8565
  851MOL0     H12271   2.073   2.384   2.273 -1.5384  0.3330 -2.0363
  851MOL0     H12272   2.154   2.396   2.109  0.6265 -0.7142 -1.4209
  851MOL0     H12273   2.361   2.298   2.210  0.5041  3.1754 -0.5708
  851MOL0     H12274   2.281   2.276   2.357  1.9782 -1.1232  1.1918
  851MOL0     H12275   2.432   2.465   2.349 -0.4677 -3.8502 -0.7522
  851MOL0     H12276   2.351   2.526   2.210 -1.6143 -1.2640 -0.8693
  851MOL0     H12277   2.147   2.575   2.331  0.8353  0.5760 -1.1648
  851MOL0     H12278   2.279   2.676   2.388  3.9735  0.0410 -0.4981
  851MOL0     H12279   2.250   2.586   2.593  0.7035 -0.8652  1.3166
  851MOL0     H12280   2.263   2.418   2.521 -0.6070  0.9337 -2.6816
  851MOL0     H12281   2.027   2.586   2.587 -0.3289 -0.0677 -0.9208
  851MOL0     H12282   2.003   2.464   2.462  0.3467 -1.3293 -0.8366
  851MOL0     H12283   1.976   2.400   2.723  1.7148  3.3529  1.8713
  851MOL0     H12284   2.150   2.399   2.706  0.6602  2.4125 -2.2202
  851MOL0     H12285   1.841   2.240   2.593 -0.4160  0.5797 -0.9480
  851MOL0     H12286   1.952   1.852   2.493 -1.1254  1.0357  0.4855
  851MOL0     H12287   1.859   1.960   2.398  1.3838 -2.5087 -1.5450
  851MOL0     H12288   1.685   1.980   2.582 -0.4373 -1.1104 -4.0574
  851MOL0     H12289   1.798   1.902   2.701 -0.1988  1.1363  0.1950
  851MOL0     H12290   1.657   1.764   2.471  1.1174 -0.5315 -1.2792
  851MOL0     H12291   1.788   1.702   2.575  0.8570  0.8539  1.7101
  851MOL0     H12292   1.543   1.641   2.628  1.3835 -1.0759 -0.4175
  851MOL0     H12293   1.526   1.807   2.685 -0.2400 -0.9636 -0.2329
  851MOL0     H12294   1.384   1.763   2.836 -2.1115 -0.8614 -0.9202
  851MOL0     H12295   1.242   1.663   3.013 -0.4576 -1.0479 -0.3789
  851MOL0     H12296   1.156   1.337   3.404 -0.2998 -0.4494 -0.1773
  851MOL0     H12297   0.986   1.221   3.492  1.8676  2.3246  1.4976
  851MOL0     H12298   0.694   1.331   3.612 -0.1266  0.4015 -1.4103
  851MOL0     H12299   0.792   1.182   3.615  0.3106  0.1381  0.9872
  851MOL0     H12300   0.589   1.053   3.592  1.8015 -0.5421  2.0395
  851MOL0     H12301   0.484   1.203   3.591  0.4888  1.3794  0.1788
  851MOL0     H12302   0.618   1.261   3.801 -0.1829  0.9105  1.1186
  851MOL0     H12303   0.650   1.093   3.814  0.3525  1.0467  0.0124
  851MOL0     H12304   0.415   1.158   3.931 -0.6895  0.6006 -0.6982
  851MOL0     H12305   0.373   1.239   3.781 -0.3375 -0.6674 -0.6873
  851MOL0     H12306   0.436   0.948   3.778 -0.7910 -0.5103  1.0542
  851MOL0     H12307   0.318   1.047   3.678 -3.9999 -0.1285  1.4694
  851MOL0     H12308   0.270   0.986   3.976  2.2002 -0.9780 -0.4229
  851MOL0     H12309   0.206   0.898   3.842  2.8976 -1.1187 -0.2782
  851MOL0     H12310   0.163   1.186   3.872 -0.3263  0.2642 -0.2161
  851MOL0     H12311   0.083   1.086   3.752 -0.1437 -1.0550  0.7504
  851MOL0     H12312   0.058   1.109   4.049  0.3396  0.8559 -1.1012
  851MOL0     H12313   0.001   0.964   3.958  1.4309 -1.0937 -3.6694
  851MOL0     H12314   0.698   1.357   3.216 -0.0125 -1.2133 -1.6568
  851MOL0     H12315   0.887   1.464   3.087  3.8404 -1.2844 -1.2823
  851MOL0     H12316   1.526   1.364   3.079  1.8378  0.7983 -2.4196
  851MOL0     H12317   1.678   1.452   2.919 -1.0858  0.0091  0.8546
  851MOL0     H12318   1.733   2.223   2.007  0.6081 -0.2057 -0.8416
  851MOL0     H12319   1.590   2.041   1.977 -0.3970  0.0618  0.5494
  851MOL0     H12320   1.600   1.444   2.225 -0.4426  3.2486 -0.0264
  851MOL0     H12321   1.434   1.267   2.161 -2.8195 -1.7380 -1.5111
  851MOL0     H12322   1.335   1.129   1.818 -1.3813 -1.6399 -0.4608
  851MOL0     H12323   1.301   1.288   1.765 -0.8520  0.1971  1.1743
  851MOL0     H12324   1.080   1.110   1.874  4.1321 -0.8094  0.3747
  851MOL0     H12325   1.060   1.280   1.826 -1.6777 -1.3970 -0.5165
  851MOL0     H12326   1.179   1.084   1.627  1.5915  0.4106 -0.4193
  851MOL0     H12327   1.093   1.236   1.603  0.7472  1.7625  1.8915
  851MOL0     H12328   0.870   1.145   1.715 -3.0575 -1.1176 -1.1471
  851MOL0     H12329   0.924   1.086   1.555  0.3616  1.7306  0.7891
  851MOL0     H12330   0.907   0.736   1.776 -2.4600  0.5645 -2.1424
  851MOL0     H12331   1.315   1.493   1.820 -0.3133 -0.0964  0.5705
  851MOL0     H12332   1.465   1.675   1.907 -1.8725 -0.5942 -0.6498
  852MOL0     O12333   3.013   4.526  10.976 -0.0855  0.0753 -0.3822
  852MOL0     C12334   2.902   4.509  10.939  0.1038 -0.7323  0.1352
  852MOL0     O12335   2.857   4.406  10.864 -0.5646 -0.8533 -0.5404
  852MOL0     C12336   2.955   4.315  10.830  1.1798 -0.7925  0.5136
  852MOL0     C12337   3.006   4.315  10.703  0.2504  0.6302  0.7314
  852MOL0     C12338   3.110   4.224  10.671  0.1800  0.7461 -0.5128
  852MOL0     C12339   3.172   4.141  10.775  0.1746  0.1402  0.1841
  852MOL0     O12340   3.286   4.064  10.753 -0.0689 -0.5389  0.5899
  852MOL0     C12341   3.309   4.001  10.624 -0.6367  0.0296  0.0575
  852MOL0     C12342   3.453   3.962  10.632  0.1794  0.8549 -0.3295
  852MOL0     C12343   3.479   3.862  10.745  0.0797 -0.6410  0.3316
  852MOL0     C12344   3.600   3.783  10.712  0.4198  0.1588  0.7222
  852MOL0     C12345   3.562   3.652  10.629  0.5190 -0.2935 -0.8520
  852MOL0     C12346   3.587   3.668  10.476  1.0862 -0.4265 -0.3973
  852MOL0     C12347   3.604   3.532  10.404 -0.0868  0.3332 -0.2392
  852MOL0     C12348   3.633   3.556  10.260 -0.0452  0.0233  1.4815
  852MOL0     N12349   3.682   3.440  10.194 -0.4704 -0.6094  0.1935
  852MOL0     C12350   3.806   3.386  10.189 -0.1097  0.0784  0.4869
  852MOL0     C12351   3.791   3.265  10.126  0.0522  0.9828  0.0374
  852MOL0     C12352   3.898   3.157  10.109  0.0095  0.6482  0.1231
  852MOL0     C12353   3.888   3.085   9.963  0.2451  0.6508  0.4744
  852MOL0     C12354   3.873   3.180   9.844 -0.1142  0.4363 -0.1218
  852MOL0     C12355   3.888   3.097   9.720 -0.5628 -0.4533 -0.7462
  852MOL0     O12356   4.021   3.034   9.713  0.8825 -0.2543  0.3744
  852MOL0     C12357   4.141   3.106   9.681  0.1138  0.3291 -0.9324
  852MOL0     C12358   4.253   3.054   9.739  0.3509  0.5740 -0.9117
  852MOL0     C12359   4.369   3.126   9.723  1.0799  0.0534  0.8788
  852MOL0     C12360   4.378   3.246   9.652 -0.9622 -0.7666  0.0710
  852MOL0     C12361   4.506   3.327   9.659 -0.1199 -0.3498  0.0241
  852MOL0     O12362   4.506   3.452   9.596  0.3062  0.7087  0.5017
  852MOL0     C12363   4.596   3.554   9.625  0.2941  1.0775 -0.5417
  852MOL0     C12364   4.633   3.645   9.521 -0.4742 -0.1816 -0.3737
  852MOL0     C12365   4.728   3.744   9.547  0.3118  0.2690  1.3495
  852MOL0     C12366   4.789   3.759   9.661 -0.6994 -1.0470 -0.4544
  852MOL0     O12367   4.882   3.863   9.672  0.5763  0.0136  0.7022
  852MOL0     C12368   4.999   3.843   9.758 -0.2775 -0.7224 -0.4165
  852MOL0     C12369   5.121   3.916   9.696 -0.4643 -0.0642 -0.6608
  852MOL0     C12370   5.161   3.853   9.557 -0.1041  0.8984  0.5919
  852MOL0     C12371   5.280   3.749   9.546  0.2013  0.1534  0.3184
  852MOL0     C12372   5.333   3.736   9.399  0.3546  0.4037  0.5138
  852MOL0     C12373   5.472   3.669   9.393 -0.3130  0.3080  0.0476
  852MOL0     C12374   5.506   3.665   9.243 -0.1008  1.2949 -0.2256
  852MOL0     C12375   5.574   3.533   9.206 -0.2237 -0.4963 -1.5346
  852MOL0    Cl12376   5.447   3.413   9.186  0.3004 -0.5345  0.3826
  852MOL0     C12377   4.756   3.665   9.759  0.3588 -0.1800 -0.4370
  852MOL0     C12378   4.651   3.571   9.749 -0.5661  1.0647  0.9275
  852MOL0     O12379   4.604   3.278   9.714 -0.0743  0.2865  0.1900
  852MOL0     C12380   4.261   3.300   9.595  0.3272  0.0413  0.3037
  852MOL0     C12381   4.138   3.230   9.620 -0.2399 -0.6663 -0.1602
  852MOL0     N12382   3.661   3.252  10.101  0.5237 -1.0446  0.1846
  852MOL0     N12383   3.590   3.351  10.143 -0.0087 -0.4534  0.7919
  852MOL0     C12384   3.107   4.137  10.897  0.3686  0.5606 -0.4815
  852MOL0     C12385   2.991   4.213  10.919  0.6610 -0.7440 -0.6845
  852MOL0     C12386   2.802   4.623  10.958 -0.8391  0.6124  0.0522
  852MOL0     C12387   2.676   4.614  10.909 -0.1793 -0.3118  0.9915
  852MOL0     C12388   2.593   4.722  10.927 -0.9596 -0.1992 -0.6379
  852MOL0     C12389   2.629   4.827  11.017  0.4507  0.2783  0.7163
  852MOL0     O12390   2.547   4.935  11.042 -0.2038  0.7595  0.2667
  852MOL0     C12391   2.442   4.970  10.946  1.3583  0.8315 -0.4266
  852MOL0     C12392   2.377   5.097  10.994  0.3417 -0.2463  0.8592
  852MOL0     C12393   2.230   5.091  10.950  0.0680  0.1669  0.5195
  852MOL0     C12394   2.140   5.160  11.043 -0.3292  0.0382  0.3720
  852MOL0     C12395   2.151   5.303  11.020  0.7756  0.7374 -0.4053
  852MOL0     C12396   2.169   5.412  10.993 -0.7743 -0.0012  0.5586
  852MOL0     C12397   2.754   4.820  11.085  0.7586 -0.3020  0.7469
  852MOL0     C12398   2.845   4.724  11.049  0.0119  0.5257  0.0904
  852MOL0     H12399   2.979   4.379  10.620  1.0742 -0.0091 -0.0547
  852MOL0     H12400   3.155   4.216  10.572  2.9409  0.2093  0.6877
  852MOL0     H12401   3.302   4.073  10.542 -2.0013 -0.6070 -0.4100
  852MOL0     H12402   3.244   3.920  10.591  0.0892  0.5445 -2.8704
  852MOL0     H12403   3.520   4.047  10.644  2.5275 -0.4380 -3.0996
  852MOL0     H12404   3.467   3.904  10.540 -2.1780 -0.2858 -0.0564
  852MOL0     H12405   3.392   3.795  10.753 -1.9768  1.8734  0.2639
  852MOL0     H12406   3.489   3.906  10.844 -0.2899  1.0262 -0.3389
  852MOL0     H12407   3.676   3.841  10.659  0.3375 -1.1435 -0.9209
  852MOL0     H12408   3.655   3.760  10.804  0.0744  1.6560  1.3247
  852MOL0     H12409   3.461   3.612  10.642  0.8206 -1.2419 -1.3842
  852MOL0     H12410   3.630   3.575  10.667  3.4532  2.4474 -0.0782
  852MOL0     H12411   3.681   3.722  10.463  0.8975  0.1191  0.4740
  852MOL0     H12412   3.511   3.724  10.420  0.4499 -1.3180 -0.4512
  852MOL0     H12413   3.689   3.473  10.440  0.4669 -0.8059 -3.1558
  852MOL0     H12414   3.510   3.479  10.423 -1.0229  2.4275  1.4126
  852MOL0     H12415   3.707   3.635  10.238 -1.2703  1.2912  1.7982
  852MOL0     H12416   3.543   3.587  10.207  2.0249  1.5075 -1.4986
  852MOL0     H12417   3.887   3.436  10.242 -0.9471  2.0599  0.0002
  852MOL0     H12418   3.893   3.084  10.190  2.6247  0.0058 -0.2085
  852MOL0     H12419   3.992   3.210  10.127 -1.2788  2.7849  0.8791
  852MOL0     H12420   3.813   3.007   9.974  0.5849  0.2287 -0.1227
  852MOL0     H12421   3.980   3.027   9.948 -1.0814 -1.6506  0.7032
  852MOL0     H12422   3.781   3.237   9.842 -0.3300  0.1536  0.9311
  852MOL0     H12423   3.955   3.252   9.845  0.2885  0.2883 -4.2329
  852MOL0     H12424   3.853   3.154   9.633  2.5797  1.8049 -0.6714
  852MOL0     H12425   3.817   3.014   9.710  2.6998 -3.2794 -2.3434
  852MOL0     H12426   4.249   2.958   9.791  2.6795  0.9131  0.0394
  852MOL0     H12427   4.459   3.087   9.769  3.5920  0.8460 -2.8666
  852MOL0     H12428   4.574   3.619   9.434 -1.2961 -0.1227  0.1533
  852MOL0     H12429   4.766   3.801   9.463  2.5639 -0.5103  1.7554
  852MOL0     H12430   5.010   3.739   9.790 -2.7759 -0.7210  0.6765
  852MOL0     H12431   4.972   3.905   9.845 -0.6628  0.3059 -1.2450
  852MOL0     H12432   5.196   3.901   9.774 -2.2786 -1.5676  0.8879
  852MOL0     H12433   5.110   4.025   9.691 -0.0438 -0.0442 -1.2792
  852MOL0     H12434   5.197   3.945   9.511  1.8621  1.0225  2.2570
  852MOL0     H12435   5.063   3.828   9.513 -0.3895 -3.1267  3.0017
  852MOL0     H12436   5.360   3.794   9.605  0.0401 -0.8195  1.3220
  852MOL0     H12437   5.261   3.647   9.583  1.5272  0.2927  1.4585
  852MOL0     H12438   5.345   3.838   9.364 -0.3011  0.4929  0.5320
  852MOL0     H12439   5.271   3.684   9.325  0.3608 -0.5186  1.1401
  852MOL0     H12440   5.482   3.575   9.449 -1.6212  1.6122  2.6296
  852MOL0     H12441   5.540   3.730   9.452 -0.1630 -1.2000  1.5034
  852MOL0     H12442   5.424   3.682   9.172 -0.0097  0.6553 -0.4930
  852MOL0     H12443   5.572   3.751   9.229  1.0255  1.3890  4.1679
  852MOL0     H12444   5.662   3.512   9.268  0.7930  3.9574 -1.1512
  852MOL0     H12445   5.613   3.547   9.105 -1.5551 -0.8441 -2.1170
  852MOL0     H12446   4.801   3.666   9.858 -1.4686 -1.7714  0.4618
  852MOL0     H12447   4.629   3.508   9.834  0.8682  1.3784  1.5557
  852MOL0     H12448   4.263   3.400   9.551 -2.1601  0.8121  1.7163
  852MOL0     H12449   4.045   3.276   9.586 -1.5467 -2.8698  0.2689
  852MOL0     H12450   3.145   4.072  10.975 -0.0714  1.8006  0.8071
  852MOL0     H12451   2.935   4.199  11.011  2.0174 -0.8343  0.1572
  852MOL0     H12452   2.637   4.529  10.855  1.7831 -0.0722 -0.9859
  852MOL0     H12453   2.495   4.717  10.882 -2.4456 -0.0292  2.3582
  852MOL0     H12454   2.366   4.892  10.945  0.2971  1.7762 -2.6598
  852MOL0     H12455   2.487   4.986  10.847  2.3134 -3.1174 -0.8073
  852MOL0     H12456   2.382   5.095  11.103 -0.3001 -2.4732  0.8839
  852MOL0     H12457   2.429   5.188  10.960  0.1169 -0.2527  0.4871
  852MOL0     H12458   2.190   4.989  10.941 -0.1982  0.3070  0.0808
  852MOL0     H12459   2.224   5.121  10.845 -2.5516 -0.4203  0.4394
  852MOL0     H12460   2.039   5.122  11.029 -0.9279  0.8258  2.2409
  852MOL0     H12461   2.170   5.138  11.146  1.3918 -0.5922 -0.2279
  852MOL0     H12462   2.209   5.511  10.983  2.7955 -1.5546 -4.9843
  852MOL0     H12463   2.768   4.900  11.157 -1.3875  1.7780 -0.9962
  852MOL0     H12464   2.949   4.729  11.081  0.0582 -2.8607  0.8452
  853MOL0     O12465  10.415  10.391   8.351 -0.5096  0.1925  0.1545
  853MOL0     C12466  10.450  10.341   8.458  0.6520 -0.0552  0.2436
  853MOL0     O12467  10.573  10.289   8.476  0.2552  1.4394  0.7281
  853MOL0     C12468  10.668  10.311   8.383 -0.0982  0.5413 -0.4506
  853MOL0     C12469  10.766  10.214   8.353  0.6810  0.1344  0.1964
  853MOL0     C12470  10.888  10.245   8.278  0.1311 -0.3241  0.5172
  853MOL0     C12471  10.894  10.367   8.205  0.1108  0.1360 -0.5386
  853MOL0     O12472  11.001  10.400   8.139  0.1713  0.5200  0.8432
  853MOL0     C12473  11.102  10.306   8.113 -0.9305  0.4869 -0.1076
  853MOL0     C12474  11.217  10.384   8.036  1.0562 -0.0102 -0.0400
  853MOL0     C12475  11.273  10.486   8.140 -1.0925 -0.1122  0.4230
  853MOL0     C12476  11.350  10.598   8.057  0.0604  0.8312  0.6429
  853MOL0     C12477  11.373  10.720   8.147  0.4076  0.3695  0.9230
  853MOL0     C12478  11.477  10.827   8.107  0.4036 -0.7588 -0.4488
  853MOL0     C12479  11.433  10.889   7.974  0.5838 -0.1316  0.1293
  853MOL0     C12480  11.305  10.971   7.981  0.6428 -0.3768 -0.3234
  853MOL0     N12481  11.294  11.098   8.062  0.6027 -0.3528  0.0409
  853MOL0     C12482  11.356  11.213   8.041 -0.1899  0.1633  0.6710
  853MOL0     C12483  11.366  11.282   8.157 -0.5717 -0.6256 -0.2281
  853MOL0     C12484  11.432  11.412   8.189  0.5183 -0.5204 -0.3199
  853MOL0     C12485  11.324  11.501   8.248 -0.4226 -0.1380 -1.0479
  853MOL0     C12486  11.188  11.515   8.179  0.0112  0.8163  0.3503
  853MOL0     C12487  11.117  11.647   8.218  0.1783 -0.8791  0.1129
  853MOL0     O12488  11.077  11.641   8.353  0.5060  0.6699 -0.1895
  853MOL0     C12489  10.948  11.685   8.380  0.2232  0.2078  0.2825
  853MOL0     C12490  10.859  11.586   8.435 -0.8269 -0.2944 -0.6791
  853MOL0     C12491  10.724  11.619   8.438 -0.3911  0.4340 -0.4432
  853MOL0     C12492  10.677  11.743   8.401  0.1636 -0.2311  0.3646
  853MOL0     C12493  10.531  11.777   8.418  0.1345 -0.1528 -0.1709
  853MOL0     O12494  10.467  11.705   8.513 -0.1762 -0.3635  0.3469
  853MOL0     C12495  10.339  11.747   8.537 -0.6121  0.7118  0.5281
  853MOL0     C12496  10.233  11.696   8.467 -0.4836 -0.2708  0.6328
  853MOL0     C12497  10.101  11.741   8.488  1.0251  0.3017 -1.2365
  853MOL0     C12498  10.068  11.819   8.596  1.0733  0.1118  0.0633
  853MOL0     O12499   9.936  11.862   8.596  0.3865  0.1003  0.1974
  853MOL0     C12500   9.892  11.934   8.718  0.1344  0.1179 -0.2298
  853MOL0     C12501   9.863  12.073   8.664  0.3733 -1.0323  0.8303
  853MOL0     C12502   9.767  12.159   8.754  0.1197  0.9843  0.4318
  853MOL0     C12503   9.620  12.140   8.714  1.1393 -0.4816  0.3398
  853MOL0     C12504   9.540  12.236   8.808 -0.4165  0.3571  0.4177
  853MOL0     C12505   9.388  12.221   8.830  0.3267  1.0657  0.4118
  853MOL0     C12506   9.319  12.335   8.913 -0.4946 -0.0426  0.2550
  853MOL0     C12507   9.190  12.388   8.845 -0.8078  1.1189 -0.9176
  853MOL0    Cl12508   9.066  12.268   8.829  0.2608  0.1225 -0.4709
  853MOL0     C12509  10.177  11.870   8.670  0.2202  0.1547  0.2856
  853MOL0     C12510  10.310  11.838   8.637  0.4621 -0.6111 -0.2847
  853MOL0     O12511  10.479  11.857   8.341 -0.3002  0.4515 -0.3235
  853MOL0     C12512  10.765  11.842   8.363  0.6503 -0.4109  1.2730
  853MOL0     C12513  10.908  11.819   8.359 -0.0358 -0.5216  0.1528
  853MOL0     N12514  11.319  11.204   8.254  0.9968  0.0920  0.0841
  853MOL0     N12515  11.270  11.095   8.200 -0.2271 -0.3546 -0.1789
  853MOL0     C12516  10.799  10.461   8.240  0.1319 -0.4903 -0.0434
  853MOL0     C12517  10.689  10.438   8.323  0.0496  0.8496 -1.6734
  853MOL0     C12518  10.368  10.360   8.582  0.5494 -0.2179  0.0402
  853MOL0     C12519  10.428  10.349   8.712 -0.5066 -0.6897 -0.6808
  853MOL0     C12520  10.345  10.358   8.829 -0.6172  0.1568  0.1336
  853MOL0     C12521  10.202  10.361   8.819  0.5938  0.0192 -1.2447
  853MOL0     O12522  10.149  10.333   8.946 -0.1288  0.7436  0.0335
  853MOL0     C12523  10.021  10.267   8.948  0.5936  0.3947  0.8856
  853MOL0     C12524   9.958  10.277   9.084 -2.2437  0.3261  0.1146
  853MOL0     C12525   9.830  10.195   9.108 -0.5952 -0.4872  0.3456
  853MOL0     C12526   9.705  10.251   9.039  0.7041  0.4341 -0.4950
  853MOL0     C12527   9.587  10.163   9.053  0.4717 -0.1637 -0.8003
  853MOL0     C12528   9.506  10.078   9.067 -0.1477 -0.1588  0.0326
  853MOL0     C12529  10.147  10.379   8.692 -0.8330  0.0340 -0.3544
  853MOL0     C12530  10.231  10.387   8.579  0.7904  0.0220  0.4839
  853MOL0     H12531  10.752  10.114   8.392 -0.5157 -0.9875 -2.8418
  853MOL0     H12532  10.963  10.169   8.261 -0.1921 -0.4440 -0.4560
  853MOL0     H12533  11.055  10.228   8.051 -3.2141 -0.0034  2.0698
  853MOL0     H12534  11.156  10.254   8.192  1.4079  0.1978 -1.7859
  853MOL0     H12535  11.167  10.438   7.955  0.7223 -2.0018 -1.2099
  853MOL0     H12536  11.286  10.307   8.000 -1.8864 -1.7142 -2.4191
  853MOL0     H12537  11.350  10.435   8.199 -0.5650  0.7743  0.5192
  853MOL0     H12538  11.198  10.533   8.203 -0.1447  4.7224 -1.6153
  853MOL0     H12539  11.445  10.561   8.018 -0.6489 -2.3571  1.5804
  853MOL0     H12540  11.291  10.625   7.969 -0.4095 -0.6480  0.4634
  853MOL0     H12541  11.411  10.682   8.243  0.6761  2.1382  1.5578
  853MOL0     H12542  11.272  10.761   8.149 -0.7130 -2.1917  2.1613
  853MOL0     H12543  11.571  10.772   8.096  0.9892  0.5239 -2.1914
  853MOL0     H12544  11.501  10.908   8.176  0.8104 -0.6434 -0.7224
  853MOL0     H12545  11.525  10.944   7.953  1.0273 -1.3167 -1.1366
  853MOL0     H12546  11.415  10.810   7.901 -1.1599  1.7010 -1.5581
  853MOL0     H12547  11.225  10.909   8.022 -1.0391  2.9955  2.0265
  853MOL0     H12548  11.277  11.001   7.879  1.7058  0.0147 -0.5176
  853MOL0     H12549  11.399  11.239   7.944 -0.4298 -1.6741  0.0350
  853MOL0     H12550  11.462  11.456   8.093  2.8379 -0.8316  0.2055
  853MOL0     H12551  11.518  11.408   8.256 -0.1634  0.8325  0.6867
  853MOL0     H12552  11.361  11.603   8.257  0.1676 -0.2469 -2.1588
  853MOL0     H12553  11.311  11.467   8.351  4.2353  0.4017 -0.0837
  853MOL0     H12554  11.207  11.506   8.071  0.5673  0.4554  0.4732
  853MOL0     H12555  11.115  11.440   8.211 -0.3885  2.4715  3.7726
  853MOL0     H12556  11.026  11.660   8.158 -3.3494 -2.1006  4.6411
  853MOL0     H12557  11.180  11.734   8.197  1.1800 -1.7637 -0.6240
  853MOL0     H12558  10.896  11.489   8.467 -1.7328 -1.4871 -2.9852
  853MOL0     H12559  10.655  11.544   8.477 -0.7277  2.3846  3.1132
  853MOL0     H12560  10.263  11.646   8.376  0.9072 -1.6244  1.7824
  853MOL0     H12561  10.031  11.700   8.416  1.1245 -0.6812 -0.7885
  853MOL0     H12562   9.962  11.933   8.801 -1.6740 -0.3813  1.3662
  853MOL0     H12563   9.793  11.894   8.744 -1.1562  2.5529 -1.0259
  853MOL0     H12564   9.820  12.053   8.565  0.4884 -3.0704  1.1569
  853MOL0     H12565   9.962  12.118   8.655  0.7037 -1.4909  1.9787
  853MOL0     H12566   9.788  12.265   8.738  1.6998  0.9536  1.9435
  853MOL0     H12567   9.785  12.134   8.859 -1.8338  1.2484  0.8638
  853MOL0     H12568   9.578  12.177   8.620 -1.8494  2.0590  2.4561
  853MOL0     H12569   9.581  12.041   8.738 -0.4833  0.4298  1.6503
  853MOL0     H12570   9.567  12.341   8.790 -1.1945  1.0564  2.8692
  853MOL0     H12571   9.588  12.218   8.904 -3.3834  2.6795  2.5258
  853MOL0     H12572   9.370  12.116   8.856  0.6417  0.9398  0.1330
  853MOL0     H12573   9.338  12.229   8.733 -0.4609 -1.7688  0.4901
  853MOL0     H12574   9.291  12.294   9.011  2.2154 -0.8061  0.7845
  853MOL0     H12575   9.391  12.415   8.932  1.6985 -1.8263 -0.0776
  853MOL0     H12576   9.222  12.429   8.748 -0.5097 -0.2945 -1.4339
  853MOL0     H12577   9.158  12.473   8.906  2.5067  1.4493  0.6018
  853MOL0     H12578  10.164  11.935   8.756 -0.4152 -0.4844  0.6816
  853MOL0     H12579  10.397  11.887   8.680 -1.2627  1.2135  1.3528
  853MOL0     H12580  10.734  11.943   8.338 -1.2200 -0.5774  2.7244
  853MOL0     H12581  10.974  11.895   8.318  0.6244 -1.3129 -0.2955
  853MOL0     H12582  10.808  10.563   8.205  0.5953  0.0268  1.5363
  853MOL0     H12583  10.623  10.520   8.350  0.6801  0.3429  1.9172
  853MOL0     H12584  10.535  10.336   8.718 -0.2767  1.3314  0.8041
  853MOL0     H12585  10.392  10.329   8.923 -2.2753 -4.1028 -0.1345
  853MOL0     H12586  10.035  10.161   8.927 -2.1090  0.2194 -0.4576
  853MOL0     H12587   9.954  10.313   8.875 -0.1442 -1.4790  0.3196
  853MOL0     H12588  10.042  10.259   9.152 -3.0952  0.7719  1.3042
  853MOL0     H12589   9.938  10.385   9.090  0.7844  0.8963  2.6835
  853MOL0     H12590   9.808  10.191   9.215 -2.6606 -1.1567 -0.0834
  853MOL0     H12591   9.850  10.093   9.074  0.7695 -0.9969  2.4499
  853MOL0     H12592   9.691  10.347   9.089  3.0770  0.2154  0.7150
  853MOL0     H12593   9.724  10.279   8.935 -0.6469 -0.6813 -1.0682
  853MOL0     H12594   9.417  10.022   9.090 -0.4576  1.3540  3.1079
  853MOL0     H12595  10.039  10.387   8.685 -0.8989  0.4144  0.8842
  853MOL0     H12596  10.192  10.401   8.479  0.3119  0.3068  0.7052
  854MOL0     O12597   8.949   0.286  10.893 -0.7994  0.2951 -0.0162
  854MOL0     C12598   8.926   0.167  10.871 -0.6402 -0.5328  0.3861
  854MOL0     O12599   9.019   0.073  10.841  0.4154  0.2417  0.4238
  854MOL0     C12600   9.147   0.108  10.880  0.2855  0.0165 -0.0671
  854MOL0     C12601   9.247   0.147  10.786 -0.0667  0.6904 -0.2275
  854MOL0     C12602   9.382   0.140  10.830 -0.5754  1.2304  0.7008
  854MOL0     C12603   9.423   0.117  10.967  0.3434  0.3184  0.2839
  854MOL0     O12604   9.551   0.114  10.996 -1.2952  0.3746 -0.3015
  854MOL0     C12605   9.598   0.163  11.129 -0.2162  0.5402 -0.5970
  854MOL0     C12606   9.656   0.052  11.224  0.1495  0.2512 -0.5854
  854MOL0     C12607   9.812   0.042  11.187 -0.9004 -0.2612  0.1066
  854MOL0     C12608   9.878  -0.034  11.306 -0.2056  0.1350 -0.0725
  854MOL0     C12609  10.031  -0.057  11.286  0.1250 -0.3850  0.2570
  854MOL0     C12610  10.066  -0.142  11.166  0.4386  0.5984 -0.2754
  854MOL0     C12611  10.214  -0.180  11.174  0.3016 -0.7882  0.1828
  854MOL0     C12612  10.268  -0.247  11.297 -0.3247 -0.0010  0.1692
  854MOL0     N12613  10.417  -0.270  11.296  1.8384 -0.5112  0.5910
  854MOL0     C12614  10.498  -0.306  11.186  1.3104  0.9871 -0.0270
  854MOL0     C12615  10.625  -0.315  11.242 -0.5167  0.2340  0.6403
  854MOL0     C12616  10.764  -0.320  11.161  0.4668  0.0192 -0.2455
  854MOL0     C12617  10.842  -0.435  11.228 -0.5199 -0.2077 -0.2194
  854MOL0     C12618  10.973  -0.460  11.146  0.8864 -1.0277  0.0765
  854MOL0     C12619  10.941  -0.553  11.029  0.5817 -0.3235  0.0689
  854MOL0     O12620  11.055  -0.558  10.947 -0.3494  1.1316 -0.2667
  854MOL0     C12621  11.081  -0.446  10.872 -0.0926 -0.0261  0.2995
  854MOL0     C12622  11.017  -0.428  10.749  0.3889 -1.0474  0.1307
  854MOL0     C12623  11.054  -0.323  10.662 -0.2833 -1.2992  0.2827
  854MOL0     C12624  11.159  -0.228  10.706 -0.0125  0.1031  0.4542
  854MOL0     C12625  11.195  -0.111  10.624  0.8810 -0.0188 -0.1715
  854MOL0     O12626  11.181  -0.117  10.487 -0.1643 -0.0493  0.2123
  854MOL0     C12627  11.146  -0.006  10.414  0.1707  0.8882 -0.0510
  854MOL0     C12628  11.090  -0.034  10.287  0.8042 -0.3472  0.5544
  854MOL0     C12629  11.070   0.068  10.196 -0.3067  0.8241  0.1517
  854MOL0     C12630  11.095   0.199  10.231 -0.2531  0.0453 -0.0249
  854MOL0     O12631  11.050   0.311  10.158 -0.5027  0.2498 -0.3591
  854MOL0     C12632  10.978   0.276  10.037 -0.1129 -0.4759  1.1377
  854MOL0     C12633  10.957   0.398   9.955 -0.2933 -1.6404  0.4281
  854MOL0     C12634  10.887   0.516  10.028 -0.7220  0.1964 -0.4030
  854MOL0     C12635  10.857   0.625   9.925 -0.0114 -0.1746  0.4478
  854MOL0     C12636  10.794   0.757   9.990  0.1603  0.7532 -0.3029
  854MOL0     C12637  10.653   0.742  10.040 -0.4318  0.4480  0.1370
  854MOL0     C12638  10.611   0.859  10.133  0.4483 -0.3063  0.5282
  854MOL0     C12639  10.465   0.836  10.163  0.8413 -0.0031 -0.0108
  854MOL0    Cl12640  10.447   0.697  10.286  0.0056 -0.3658 -0.1643
  854MOL0     C12641  11.139   0.229  10.364 -0.2380  0.1972  0.2110
  854MOL0     C12642  11.168   0.126  10.452 -0.5849 -0.2002  0.7637
  854MOL0     O12643  11.242  -0.021  10.694  0.1290  0.5350 -0.2333
  854MOL0     C12644  11.234  -0.262  10.825  0.7084 -0.5679 -0.0950
  854MOL0     C12645  11.196  -0.375  10.896  0.7436 -0.3922  0.4422
  854MOL0     N12646  10.619  -0.296  11.372 -0.1752 -0.4321  0.2476
  854MOL0     N12647  10.495  -0.284  11.408  0.3692 -0.3241 -0.3007
  854MOL0     C12648   9.316   0.091  11.057 -0.1188 -0.4364 -0.7120
  854MOL0     C12649   9.188   0.070  11.015 -0.0670  0.6977  1.2447
  854MOL0     C12650   8.780   0.126  10.851 -0.2306  0.3979 -0.4381
  854MOL0     C12651   8.743  -0.003  10.805 -0.9473 -0.4648 -0.3534
  854MOL0     C12652   8.619  -0.053  10.819 -0.0131  1.0934 -0.0649
  854MOL0     C12653   8.521   0.020  10.874 -0.0357 -1.4375  0.1909
  854MOL0     O12654   8.403  -0.035  10.898 -0.2941  0.3811  0.7477
  854MOL0     C12655   8.292   0.033  10.960  0.9733  0.2673 -0.0425
  854MOL0     C12656   8.169  -0.056  10.942  0.6299 -0.3322  0.2964
  854MOL0     C12657   8.124  -0.066  10.794  0.1117 -0.4201  0.4909
  854MOL0     C12658   8.028  -0.183  10.764 -0.4461 -0.5039 -0.1231
  854MOL0     C12659   7.914  -0.142  10.676  0.2882 -0.5384 -0.5810
  854MOL0     C12660   7.827  -0.114  10.598 -0.3062  1.1781 -0.4268
  854MOL0     C12661   8.552   0.155  10.912 -0.3954  0.0680 -0.6121
  854MOL0     C12662   8.684   0.209  10.903  0.1152 -0.1561  0.1214
  854MOL0     H12663   9.207   0.167  10.687 -0.3646 -0.3314 -0.3277
  854MOL0     H12664   9.465   0.176  10.769 -2.0400  2.2070 -0.7856
  854MOL0     H12665   9.520   0.219  11.181  1.6884  2.1341  0.7444
  854MOL0     H12666   9.673   0.240  11.107 -1.9860  2.8469  0.9282
  854MOL0     H12667   9.607  -0.043  11.201 -0.0169  0.4987 -1.2765
  854MOL0     H12668   9.637   0.101  11.320 -0.0837  0.9123 -0.9622
  854MOL0     H12669   9.858   0.141  11.174 -1.1132 -0.1240  0.3797
  854MOL0     H12670   9.828  -0.010  11.092  0.0998 -0.8363  0.5758
  854MOL0     H12671   9.872   0.020  11.401 -2.6450 -1.3001  0.6598
  854MOL0     H12672   9.825  -0.129  11.316 -3.6871  1.5052 -3.2815
  854MOL0     H12673  10.062  -0.099  11.382  2.6579  1.5808  0.3781
  854MOL0     H12674  10.097   0.029  11.280  0.9928 -1.1137 -1.0867
  854MOL0     H12675  10.044  -0.102  11.066  0.6701 -0.6533 -0.8500
  854MOL0     H12676  10.002  -0.229  11.183  0.0245  0.8717 -0.4184
  854MOL0     H12677  10.233  -0.259  11.101 -2.3527 -0.9526 -0.4431
  854MOL0     H12678  10.275  -0.093  11.149  2.2562 -2.2225 -0.3100
  854MOL0     H12679  10.220  -0.345  11.281 -0.8153 -0.0527  1.7984
  854MOL0     H12680  10.233  -0.200  11.389  3.1927 -0.7556  2.0674
  854MOL0     H12681  10.475  -0.313  11.080 -2.6803 -0.3920  0.7496
  854MOL0     H12682  10.805  -0.222  11.189  0.5328  0.0282 -0.3745
  854MOL0     H12683  10.753  -0.326  11.053  0.2189 -3.0810 -0.1371
  854MOL0     H12684  10.782  -0.526  11.227 -2.7571  1.1964 -0.1377
  854MOL0     H12685  10.860  -0.407  11.332  2.1792 -0.9399 -0.3981
  854MOL0     H12686  11.026  -0.367  11.123  0.7630 -0.8521  0.4862
  854MOL0     H12687  11.049  -0.508  11.209  0.3718  2.2977  3.6165
  854MOL0     H12688  10.865  -0.505  10.967  1.0458  1.3228  0.7226
  854MOL0     H12689  10.910  -0.653  11.061  1.3623 -0.4753  0.3569
  854MOL0     H12690  10.933  -0.494  10.730 -1.0387  0.4671  0.9925
  854MOL0     H12691  11.000  -0.298  10.571  0.6177 -3.3456 -0.8750
  854MOL0     H12692  11.075  -0.135  10.251  2.5562 -0.4291 -0.0397
  854MOL0     H12693  11.020   0.037  10.105  0.7251  0.7020 -0.3897
  854MOL0     H12694  10.881   0.228  10.053 -1.1419  0.4948 -1.6503
  854MOL0     H12695  11.036   0.220   9.964  0.7079  1.7872 -0.0612
  854MOL0     H12696  10.908   0.371   9.860  1.2353  1.8996 -1.5461
  854MOL0     H12697  11.058   0.437   9.938 -0.6346 -0.8815  0.1254
  854MOL0     H12698  10.964   0.552  10.097  1.4403 -3.6343 -0.5666
  854MOL0     H12699  10.800   0.475  10.080 -0.3392 -2.1896 -1.5238
  854MOL0     H12700  10.952   0.654   9.879  0.5211 -1.8832  0.3884
  854MOL0     H12701  10.793   0.586   9.845  0.7019 -4.4627  1.6770
  854MOL0     H12702  10.801   0.834   9.913 -0.1268  0.1287 -0.9653
  854MOL0     H12703  10.860   0.788  10.072  0.4928 -1.1041  0.1841
  854MOL0     H12704  10.636   0.642  10.081  1.6785  0.4683  1.2352
  854MOL0     H12705  10.594   0.755   9.949  3.9907 -0.6537 -3.2764
  854MOL0     H12706  10.665   0.868  10.227  0.2592 -4.7992  1.2498
  854MOL0     H12707  10.635   0.949  10.074  1.5409  0.8682  2.6414
  854MOL0     H12708  10.406   0.810  10.075  0.8440 -0.8328  0.2235
  854MOL0     H12709  10.423   0.923  10.213  2.8715  0.6844  0.6065
  854MOL0     H12710  11.154   0.336  10.379 -1.9976  0.9418 -2.5370
  854MOL0     H12711  11.218   0.152  10.545  1.5173 -0.6612 -0.1824
  854MOL0     H12712  11.320  -0.206  10.861  0.5892 -2.2133  3.1108
  854MOL0     H12713  11.249  -0.412  10.983 -0.2955  2.7066  2.5728
  854MOL0     H12714   9.345   0.059  11.156 -0.4999 -0.4934 -0.6146
  854MOL0     H12715   9.106   0.044  11.080 -1.4314  4.6759  1.4026
  854MOL0     H12716   8.818  -0.079  10.788  1.2721  0.6140  3.3259
  854MOL0     H12717   8.593  -0.152  10.782 -0.5542  1.0166  0.5020
  854MOL0     H12718   8.269   0.128  10.911 -0.7916 -0.6505 -1.0957
  854MOL0     H12719   8.312   0.049  11.067 -0.8839  1.1777  0.2094
  854MOL0     H12720   8.196  -0.156  10.978  4.3999  0.9768  1.6947
  854MOL0     H12721   8.085  -0.021  11.001  1.9966  1.8893  1.0594
  854MOL0     H12722   8.211  -0.079  10.730 -0.1515  0.9469 -0.1863
  854MOL0     H12723   8.074   0.028  10.766  0.1832 -0.9780 -1.6781
  854MOL0     H12724   8.088  -0.267  10.726 -1.2322 -2.0258  1.8444
  854MOL0     H12725   7.981  -0.218  10.856  1.5855 -0.6338  0.9148
  854MOL0     H12726   7.741  -0.089  10.539 -1.8930  0.4082  1.4182
  854MOL0     H12727   8.474   0.219  10.954  0.5085  1.0736 -0.4157
  854MOL0     H12728   8.704   0.303  10.954 -1.0214 -1.2952  2.8924
  855MOL0     O12729   9.777   9.497   5.119  0.4318 -0.5941 -0.2866
  855MOL0     C12730   9.778   9.599   5.191 -0.0490 -0.1104 -0.2241
  855MOL0     O12731   9.680   9.644   5.270 -0.1277 -0.3130 -0.2193
  855MOL0     C12732   9.557   9.599   5.239 -0.0049 -0.5571 -0.2069
  855MOL0     C12733   9.474   9.682   5.166  0.3112  0.2176  0.9439
  855MOL0     C12734   9.349   9.644   5.133  0.4319  0.3096 -0.6907
  855MOL0     C12735   9.321   9.505   5.148  0.7304 -0.0620 -0.7069
  855MOL0     O12736   9.205   9.436   5.118 -0.0951  0.1862  0.2466
  855MOL0     C12737   9.097   9.501   5.046 -0.1641 -0.5181 -0.5322
  855MOL0     C12738   9.004   9.394   5.011  0.9357  0.4126  0.8285
  855MOL0     C12739   8.886   9.439   4.916  0.0518 -1.4366  0.1035
  855MOL0     C12740   8.750   9.376   4.953  0.1381  0.7088 -0.6142
  855MOL0     C12741   8.657   9.484   5.022 -0.0798  0.5575 -0.0867
  855MOL0     C12742   8.523   9.433   5.076 -0.1927  0.5328 -0.1079
  855MOL0     C12743   8.545   9.304   5.169  0.4277 -0.5401 -0.3589
  855MOL0     C12744   8.433   9.282   5.267  0.6265 -0.4648  0.0293
  855MOL0     N12745   8.311   9.214   5.209 -0.9349  0.4567  0.2126
  855MOL0     C12746   8.237   9.259   5.105  1.6450  0.1739 -1.0694
  855MOL0     C12747   8.143   9.165   5.068 -0.6186  0.2532  0.6277
  855MOL0     C12748   8.023   9.192   4.988 -0.0390  0.6732 -0.1253
  855MOL0     C12749   8.021   9.113   4.851 -0.2847  0.0571 -0.0208
  855MOL0     C12750   8.106   9.171   4.733 -0.0811 -0.5987 -0.1969
  855MOL0     C12751   8.061   9.102   4.607  0.1105  0.0039 -0.6039
  855MOL0     O12752   8.135   9.118   4.487 -0.6910 -0.4424 -0.2187
  855MOL0     C12753   8.090   9.192   4.385  0.0644 -0.3313  0.2743
  855MOL0     C12754   8.149   9.188   4.259  0.4381 -0.9495 -0.4260
  855MOL0     C12755   8.119   9.274   4.147  0.3691  1.0861  0.7266
  855MOL0     C12756   8.012   9.363   4.152 -0.6847 -1.0044  0.3569
  855MOL0     C12757   7.982   9.457   4.038  0.4215 -0.5308 -1.4517
  855MOL0     O12758   8.078   9.476   3.942 -0.2721 -0.6583 -0.7190
  855MOL0     C12759   8.049   9.576   3.851 -0.1276  0.5672 -0.7650
  855MOL0     C12760   8.052   9.712   3.880 -0.0747 -0.0739 -0.0980
  855MOL0     C12761   8.034   9.816   3.786 -0.0615  0.6998  0.4470
  855MOL0     C12762   8.006   9.781   3.652  0.6479  0.2144  0.6207
  855MOL0     O12763   7.979   9.876   3.552 -0.5594  0.5306  0.3529
  855MOL0     C12764   7.985  10.014   3.590  0.7768 -0.5556 -0.5774
  855MOL0     C12765   7.901  10.097   3.488  0.0374  0.2446 -0.4270
  855MOL0     C12766   7.757  10.092   3.513 -0.8455  0.2790  0.1261
  855MOL0     C12767   7.689  10.164   3.396  0.2584 -0.4734 -0.5268
  855MOL0     C12768   7.535  10.138   3.388 -0.0058  0.5810 -0.5039
  855MOL0     C12769   7.497   9.995   3.366  0.9915  0.0524  0.1062
  855MOL0     C12770   7.348   9.970   3.416  0.2934 -0.0286 -0.3474
  855MOL0     C12771   7.248  10.008   3.310 -0.3388  0.1956 -0.8425
  855MOL0    Cl12772   7.089   9.983   3.368 -0.2742  0.0476 -0.0811
  855MOL0     C12773   8.020   9.649   3.622  0.4671  0.8914 -0.4647
  855MOL0     C12774   8.039   9.546   3.718 -0.3615 -0.3192  0.1018
  855MOL0     O12775   7.884   9.524   4.063 -0.7249 -0.3532  0.4956
  855MOL0     C12776   7.939   9.361   4.274  0.6115 -1.3333 -1.4050
  855MOL0     C12777   7.983   9.286   4.385  0.4184  0.0599  0.2269
  855MOL0     N12778   8.175   9.060   5.151 -0.0470  0.1772  0.4132
  855MOL0     N12779   8.272   9.084   5.230 -0.1414  0.5292 -0.4003
  855MOL0     C12780   9.407   9.419   5.216 -0.4679 -0.3183 -0.3412
  855MOL0     C12781   9.524   9.471   5.259  0.4690  0.9462  0.8424
  855MOL0     C12782   9.893   9.697   5.179 -0.3540 -0.3306 -0.0038
  855MOL0     C12783   9.996   9.660   5.097 -0.2277 -0.1208 -0.5239
  855MOL0     C12784  10.122   9.712   5.117 -0.4860 -0.4172 -0.2803
  855MOL0     C12785  10.144   9.824   5.201  0.5231  0.3296 -0.5570
  855MOL0     O12786  10.261   9.879   5.211 -0.2864 -0.2416 -0.2068
  855MOL0     C12787  10.372   9.807   5.199  0.4922  0.0123 -0.6853
  855MOL0     C12788  10.496   9.876   5.256  0.7120 -0.8161  0.4221
  855MOL0     C12789  10.617   9.804   5.228  0.3197  1.0658 -0.3897
  855MOL0     C12790  10.737   9.852   5.317  0.3917 -0.8477  0.3063
  855MOL0     C12791  10.839   9.750   5.318 -0.3712  0.0591 -0.6414
  855MOL0     C12792  10.928   9.668   5.307 -0.4834  0.3456 -0.3107
  855MOL0     C12793  10.034   9.876   5.268 -0.2047 -0.5171  0.8276
  855MOL0     C12794   9.904   9.809   5.265 -0.2384  0.1533 -0.0301
  855MOL0     H12795   9.498   9.786   5.146 -1.1323  0.2481 -0.8530
  855MOL0     H12796   9.279   9.716   5.093  2.0296  2.1680 -0.3229
  855MOL0     H12797   9.125   9.560   4.958 -2.9371  0.5692 -0.7884
  855MOL0     H12798   9.067   9.575   5.120  2.5947  3.1145 -2.7047
  855MOL0     H12799   8.949   9.377   5.104  0.7367  2.5034  1.1485
  855MOL0     H12800   9.049   9.301   4.975  1.5892  2.6833 -5.4866
  855MOL0     H12801   8.895   9.448   4.808 -1.9903  3.3710  0.0719
  855MOL0     H12802   8.881   9.546   4.938  2.2914 -1.0172 -1.1447
  855MOL0     H12803   8.704   9.347   4.858  2.3239 -0.0463 -1.5096
  855MOL0     H12804   8.767   9.294   5.024  1.1732  0.1665 -1.4495
  855MOL0     H12805   8.635   9.573   4.962 -1.7671  0.8772  0.9361
  855MOL0     H12806   8.707   9.517   5.114 -1.1061 -0.3450  0.8219
  855MOL0     H12807   8.460   9.408   4.990  1.2593 -1.5030 -0.6515
  855MOL0     H12808   8.485   9.511   5.143  0.4977  1.5134 -0.8345
  855MOL0     H12809   8.552   9.215   5.107  1.0636  1.1460 -2.8366
  855MOL0     H12810   8.638   9.321   5.225 -3.1592  0.3161  6.3961
  855MOL0     H12811   8.408   9.376   5.317 -0.3692 -0.8977  0.3580
  855MOL0     H12812   8.469   9.213   5.343  0.8899  0.5104  0.8188
  855MOL0     H12813   8.236   9.359   5.063 -1.0511  1.5671  1.8876
  855MOL0     H12814   8.004   9.296   4.960  0.5498  1.4756  2.2430
  855MOL0     H12815   7.936   9.157   5.044 -0.1218 -1.4688 -1.4726
  855MOL0     H12816   7.915   9.104   4.824 -0.2458  2.9726 -1.5377
  855MOL0     H12817   8.053   9.015   4.887  3.1220  1.2624  0.5309
  855MOL0     H12818   8.093   9.279   4.730  0.5142 -0.4984  0.5585
  855MOL0     H12819   8.213   9.157   4.751 -0.6230 -2.5222  2.0572
  855MOL0     H12820   7.957   9.137   4.604  0.7656  2.2939  0.7380
  855MOL0     H12821   8.070   8.995   4.628 -0.0418  0.3331  1.3535
  855MOL0     H12822   8.237   9.134   4.226 -1.2925 -2.9330 -2.0997
  855MOL0     H12823   8.181   9.270   4.059  0.2364  0.1320  0.6677
  855MOL0     H12824   8.084   9.734   3.981  3.1631 -0.8834 -0.8273
  855MOL0     H12825   8.042   9.916   3.826 -1.2372  1.0313 -0.0974
  855MOL0     H12826   8.085  10.055   3.603  0.5117  0.4728 -1.6333
  855MOL0     H12827   7.937  10.029   3.688  2.7067  3.8376 -0.0701
  855MOL0     H12828   7.917  10.053   3.389 -2.5384 -1.8506 -0.0232
  855MOL0     H12829   7.939  10.197   3.467 -3.7371  2.1914  0.9633
  855MOL0     H12830   7.728  10.132   3.611 -1.0134  1.5822 -0.4297
  855MOL0     H12831   7.742   9.984   3.519  4.3488 -0.7376 -0.1516
  855MOL0     H12832   7.695  10.269   3.423 -1.5496 -1.0439  2.5402
  855MOL0     H12833   7.733  10.153   3.296 -0.6635  2.2607 -1.3164
  855MOL0     H12834   7.490  10.199   3.308 -1.1818 -2.3522 -2.2290
  855MOL0     H12835   7.492  10.168   3.483  2.5535 -0.1156  0.9638
  855MOL0     H12836   7.560   9.929   3.427 -0.1936 -1.1812  0.0388
  855MOL0     H12837   7.498   9.977   3.258 -3.0319  0.4251 -0.1424
  855MOL0     H12838   7.338   9.862   3.431 -1.3903  0.4688  3.4041
  855MOL0     H12839   7.325  10.029   3.505  0.2602  0.1914 -0.5001
  855MOL0     H12840   7.254   9.949   3.218 -1.4764 -1.2463 -0.0263
  855MOL0     H12841   7.255  10.113   3.280  3.2431 -0.3784 -2.5096
  855MOL0     H12842   8.028   9.617   3.519 -0.1019  2.0351 -0.8805
  855MOL0     H12843   8.039   9.439   3.700 -0.1536 -0.2775 -0.1680
  855MOL0     H12844   7.850   9.422   4.288  1.2559 -0.8600  1.0765
  855MOL0     H12845   7.928   9.294   4.478  0.8790 -1.0134  0.6146
  855MOL0     H12846   9.370   9.318   5.232 -1.6870 -0.3773 -3.0420
  855MOL0     H12847   9.599   9.410   5.308 -3.0020 -2.0212  3.0284
  855MOL0     H12848   9.994   9.571   5.035 -0.8321 -0.0579 -0.6021
  855MOL0     H12849  10.203   9.667   5.060 -0.0352  0.1981 -0.1401
  855MOL0     H12850  10.386   9.789   5.092  1.3284 -2.4260 -0.2128
  855MOL0     H12851  10.368   9.718   5.262 -1.0436  0.2165 -0.4584
  855MOL0     H12852  10.499   9.980   5.222 -3.1665 -1.1595 -1.4767
  855MOL0     H12853  10.490   9.877   5.365 -0.8664  0.6573  0.3720
  855MOL0     H12854  10.648   9.824   5.125  0.1631  3.8204  0.0424
  855MOL0     H12855  10.605   9.695   5.237 -2.0827  1.1749 -1.5013
  855MOL0     H12856  10.779   9.948   5.283 -0.1926  0.9017  3.9772
  855MOL0     H12857  10.703   9.874   5.419 -1.4180 -0.1112 -0.4083
  855MOL0     H12858  11.007   9.597   5.321 -1.9644 -0.9996  1.7511
  855MOL0     H12859  10.030   9.965   5.331  0.9662  1.2243 -1.4260
  855MOL0     H12860   9.824   9.845   5.328 -1.0427  0.0089 -0.9386
  856MOL0     O12861   9.371   8.627   4.951 -0.0776  0.1358 -0.1975
  856MOL0     C12862   9.339   8.713   5.038 -0.1338  0.5572  0.1842
  856MOL0     O12863   9.409   8.755   5.145 -0.6984  0.0262 -0.2359
  856MOL0     C12864   9.517   8.675   5.164  0.2518 -0.4283 -0.6189
  856MOL0     C12865   9.522   8.591   5.289 -0.3271  0.0462  0.2716
  856MOL0     C12866   9.643   8.528   5.316  0.2987 -0.9100  0.4466
  856MOL0     C12867   9.760   8.555   5.245 -0.0343  0.0858 -0.4854
  856MOL0     O12868   9.872   8.477   5.275  0.7552  0.7870  0.3811
  856MOL0     C12869   9.981   8.459   5.187 -0.4061  0.3986 -0.2705
  856MOL0     C12870  10.001   8.331   5.114  0.2928 -0.1714  0.4619
  856MOL0     C12871   9.968   8.204   5.184 -0.2246  0.4521  0.6426
  856MOL0     C12872  10.057   8.085   5.135 -1.0919 -0.6330  0.0472
  856MOL0     C12873  10.049   7.964   5.227 -1.5632 -0.0593  0.4440
  856MOL0     C12874  10.156   7.861   5.206  0.3277  0.5186  0.2141
  856MOL0     C12875  10.152   7.753   5.316  0.3497  0.3310  0.6082
  856MOL0     C12876  10.094   7.612   5.273  0.1190 -1.1534  0.7658
  856MOL0     N12877   9.953   7.617   5.264  1.2986 -0.3739  0.3971
  856MOL0     C12878   9.871   7.644   5.152 -0.1178 -0.4056 -0.4712
  856MOL0     C12879   9.757   7.598   5.196  0.0918 -0.2494  0.0360
  856MOL0     C12880   9.641   7.596   5.101 -0.0070 -0.0928 -0.5193
  856MOL0     C12881   9.500   7.605   5.173  0.4382  0.3458  1.0795
  856MOL0     C12882   9.486   7.718   5.278  0.1221 -1.0221 -0.1836
  856MOL0     C12883   9.537   7.868   5.243 -0.3604  0.3772 -0.0578
  856MOL0     O12884   9.439   7.918   5.152 -0.6561  0.1201 -0.8925
  856MOL0     C12885   9.493   8.027   5.079 -0.3006 -0.3050  0.2006
  856MOL0     C12886   9.527   7.994   4.949  0.1293  0.1492  0.2520
  856MOL0     C12887   9.610   8.068   4.872 -0.7216 -0.1622 -0.6697
  856MOL0     C12888   9.652   8.197   4.912  0.2059  0.1507 -0.0053
  856MOL0     C12889   9.727   8.284   4.818  0.5101  0.9414 -0.4559
  856MOL0     O12890   9.768   8.224   4.696 -0.1358 -0.2266 -0.3196
  856MOL0     C12891   9.780   8.307   4.590 -0.4330 -1.1269  0.4950
  856MOL0     C12892   9.674   8.380   4.543 -0.4695  0.7903 -0.5127
  856MOL0     C12893   9.694   8.478   4.438  0.1269 -0.4699 -1.0731
  856MOL0     C12894   9.816   8.506   4.381 -0.1087  0.3819  0.2072
  856MOL0     O12895   9.812   8.599   4.278 -0.1375  0.1276 -0.1384
  856MOL0     C12896   9.889   8.587   4.166  0.2022 -0.0776  1.2445
  856MOL0     C12897   9.881   8.714   4.089 -0.0802 -0.8862  0.9163
  856MOL0     C12898   9.743   8.747   4.013 -0.4761 -0.1847 -0.2763
  856MOL0     C12899   9.652   8.811   4.109 -0.0396 -0.2906  0.7524
  856MOL0     C12900   9.515   8.852   4.049 -0.8937 -0.0557  0.3339
  856MOL0     C12901   9.414   8.908   4.155  0.3391 -1.0493 -0.1458
  856MOL0     C12902   9.281   8.943   4.089  0.6556 -0.4094  1.1889
  856MOL0     C12903   9.197   8.816   4.101 -0.3413  0.8118  0.2164
  856MOL0    Cl12904   9.216   8.708   3.951 -0.3566 -0.0048 -0.2500
  856MOL0     C12905   9.923   8.436   4.431  0.4485  0.4250 -0.9062
  856MOL0     C12906   9.913   8.341   4.530  0.7023 -0.0096 -0.4478
  856MOL0     O12907   9.741   8.402   4.849 -0.7966  0.3303 -0.1288
  856MOL0     C12908   9.611   8.240   5.042  0.4048 -0.2323 -0.1291
  856MOL0     C12909   9.538   8.156   5.135 -0.7368 -0.7177 -0.7088
  856MOL0     N12910   9.762   7.551   5.324  0.9327 -0.9870  0.2296
  856MOL0     N12911   9.876   7.567   5.364 -1.2450  0.1058 -0.2462
  856MOL0     C12912   9.749   8.637   5.130  0.9587 -0.4005 -0.1753
  856MOL0     C12913   9.630   8.688   5.082  0.4879  0.2332 -0.4021
  856MOL0     C12914   9.207   8.771   5.022 -0.0186  0.3182  0.0934
  856MOL0     C12915   9.115   8.722   4.932  0.1587 -0.3472  0.1009
  856MOL0     C12916   8.982   8.774   4.924 -0.1287 -0.7108  0.0569
  856MOL0     C12917   8.938   8.873   5.015 -0.6184  0.1202  0.2870
  856MOL0     O12918   8.814   8.923   5.020  0.2329 -0.6124  0.0975
  856MOL0     C12919   8.707   8.852   4.948 -0.0709  0.3864  0.2063
  856MOL0     C12920   8.677   8.919   4.813 -0.0625 -0.1446  0.7900
  856MOL0     C12921   8.606   9.055   4.836  0.2433  0.6270  0.2497
  856MOL0     C12922   8.461   9.045   4.886  0.3436 -0.9869  0.2039
  856MOL0     C12923   8.382   8.959   4.800 -0.0613 -0.0400  0.4963
  856MOL0     C12924   8.304   8.878   4.746 -1.0118  0.0791 -0.0564
  856MOL0     C12925   9.042   8.930   5.092 -0.5965  0.0558  0.1819
  856MOL0     C12926   9.165   8.880   5.096 -0.0148 -0.0641  0.3571
  856MOL0     H12927   9.433   8.576   5.349 -1.1085  0.0206 -0.8671
  856MOL0     H12928   9.651   8.471   5.408 -0.3215 -0.6322  0.6778
  856MOL0     H12929  10.071   8.454   5.249  1.1004 -1.4311 -2.4368
  856MOL0     H12930   9.994   8.538   5.113  1.7492 -0.5002 -0.9318
  856MOL0     H12931  10.108   8.332   5.092  0.4230  3.2343  0.6991
  856MOL0     H12932   9.943   8.339   5.022  1.0968  1.0695  0.0437
  856MOL0     H12933   9.861   8.182   5.182  0.5123 -4.3272  1.9713
  856MOL0     H12934   9.999   8.216   5.288  3.9886  1.3901 -0.5230
  856MOL0     H12935  10.027   8.053   5.035 -1.2733 -1.7565  0.4463
  856MOL0     H12936  10.157   8.128   5.132 -1.6401  0.9573  2.0419
  856MOL0     H12937   9.945   7.929   5.225 -1.1449 -1.6364  2.5968
  856MOL0     H12938  10.067   7.991   5.331 -0.1862 -0.1636  0.2559
  856MOL0     H12939  10.250   7.915   5.192  0.4278  0.1559 -0.5675
  856MOL0     H12940  10.124   7.807   5.117 -1.0154  0.3430  0.7854
  856MOL0     H12941  10.253   7.725   5.349 -0.5763  0.1366  3.5484
  856MOL0     H12942  10.090   7.781   5.402 -0.9161 -1.1085  0.2067
  856MOL0     H12943  10.126   7.543   5.351  0.4802  0.3963  2.0440
  856MOL0     H12944  10.134   7.581   5.177 -2.5929 -0.5811 -0.6621
  856MOL0     H12945   9.911   7.687   5.061  2.9254 -2.7443 -0.4260
  856MOL0     H12946   9.631   7.499   5.051  1.9861  0.1514 -1.4975
  856MOL0     H12947   9.649   7.670   5.021 -3.6374 -2.1837 -3.0870
  856MOL0     H12948   9.489   7.506   5.218 -0.0715 -1.3231 -2.3766
  856MOL0     H12949   9.429   7.622   5.091  0.2638 -0.5854  1.0263
  856MOL0     H12950   9.380   7.737   5.296  0.4197  2.7593 -1.3752
  856MOL0     H12951   9.541   7.699   5.370  0.8435  0.3268 -0.2988
  856MOL0     H12952   9.641   7.868   5.208  0.1201 -3.5590  0.8417
  856MOL0     H12953   9.536   7.914   5.342 -1.8183 -0.1127  0.1820
  856MOL0     H12954   9.500   7.900   4.904  3.3600 -0.9644  0.4003
  856MOL0     H12955   9.642   8.019   4.781  2.2115 -1.9632  1.1652
  856MOL0     H12956   9.582   8.364   4.597  0.2332 -1.5059  0.0843
  856MOL0     H12957   9.618   8.544   4.398 -0.0722 -0.4722 -0.7100
  856MOL0     H12958   9.850   8.502   4.109 -1.8211  0.5237  1.6472
  856MOL0     H12959   9.992   8.562   4.196  1.4739 -2.2491 -3.9593
  856MOL0     H12960   9.957   8.707   4.011  2.0014 -0.4202  2.8077
  856MOL0     H12961   9.920   8.799   4.146  0.5630  0.2025 -1.0251
  856MOL0     H12962   9.688   8.657   3.985 -2.9131  0.5909  1.6816
  856MOL0     H12963   9.756   8.807   3.923 -0.2847  1.3855  0.7627
  856MOL0     H12964   9.627   8.740   4.188 -0.4993  0.3356  1.1863
  856MOL0     H12965   9.679   8.904   4.160 -2.7815  1.1493 -0.1681
  856MOL0     H12966   9.472   8.758   4.013 -0.8345 -0.4832  1.3507
  856MOL0     H12967   9.536   8.926   3.971 -0.4887 -0.5799 -0.0678
  856MOL0     H12968   9.467   8.990   4.203  1.8930 -2.1612  0.0920
  856MOL0     H12969   9.390   8.839   4.236 -0.6049  0.6583  1.1072
  856MOL0     H12970   9.232   9.027   4.139 -1.9520 -0.1483 -1.4982
  856MOL0     H12971   9.293   8.985   3.988  0.6947 -0.2805  1.2467
  856MOL0     H12972   9.091   8.840   4.113 -1.2089 -2.3348 -0.1927
  856MOL0     H12973   9.220   8.754   4.188  2.5612  2.8567  1.0449
  856MOL0     H12974  10.022   8.452   4.389  0.7390  1.6901  0.2129
  856MOL0     H12975  10.000   8.279   4.545  1.1594  0.9396  1.1092
  856MOL0     H12976   9.645   8.339   5.069  1.6738 -0.1482 -1.8635
  856MOL0     H12977   9.524   8.179   5.240  2.0197 -2.0902  0.0573
  856MOL0     H12978   9.834   8.679   5.076 -0.1690  5.1734  1.7279
  856MOL0     H12979   9.634   8.744   4.989  1.5813 -2.0445 -1.8041
  856MOL0     H12980   9.131   8.635   4.870  2.5961  0.8668 -1.1100
  856MOL0     H12981   8.926   8.738   4.837  2.1581 -3.1870 -0.5361
  856MOL0     H12982   8.617   8.859   5.009 -0.2852  2.1346 -0.2610
  856MOL0     H12983   8.740   8.748   4.937 -2.4280 -0.7336  2.5291
  856MOL0     H12984   8.763   8.930   4.746  0.6929 -1.5812  1.4620
  856MOL0     H12985   8.616   8.851   4.753  0.3209 -0.8528  1.1901
  856MOL0     H12986   8.601   9.110   4.742  1.4231  0.0616 -0.1719
  856MOL0     H12987   8.663   9.124   4.900  0.5926 -0.0406  0.6641
  856MOL0     H12988   8.460   9.022   4.993  0.3720 -1.5650  0.0833
  856MOL0     H12989   8.424   9.147   4.870  0.4156 -0.9360  0.3595
  856MOL0     H12990   8.254   8.789   4.716  0.7354 -1.0609  0.3000
  856MOL0     H12991   9.013   9.014   5.155 -3.2216 -0.1171 -0.7186
  856MOL0     H12992   9.240   8.929   5.157  0.3342 -1.8516  1.4360
  857MOL0     O12993   8.679   2.010   3.657 -0.6130  0.2338 -0.1944
  857MOL0     C12994   8.742   1.911   3.614 -0.1775  1.2013  0.5148
  857MOL0     O12995   8.684   1.788   3.599  0.1941  0.1498 -0.1176
  857MOL0     C12996   8.562   1.765   3.661  0.4557 -0.1643  0.2814
  857MOL0     C12997   8.453   1.814   3.604 -0.1447 -0.3046 -0.1096
  857MOL0     C12998   8.325   1.788   3.666  0.2648  0.0396 -0.3064
  857MOL0     C12999   8.318   1.716   3.784  0.0882 -0.4699 -0.3327
  857MOL0     O13000   8.204   1.680   3.848  0.3445 -0.5867 -0.1380
  857MOL0     C13001   8.110   1.784   3.883  0.1513  0.1810 -0.5472
  857MOL0     C13002   7.967   1.716   3.885  0.2369 -0.3287 -0.5078
  857MOL0     C13003   7.921   1.673   3.744  0.1628 -0.0598  0.1598
  857MOL0     C13004   7.790   1.585   3.746  0.0721 -0.3577 -0.1792
  857MOL0     C13005   7.720   1.544   3.613  0.0916 -1.0261  0.1412
  857MOL0     C13006   7.610   1.443   3.631 -0.1498  0.0080  0.3118
  857MOL0     C13007   7.490   1.525   3.672  0.0745 -0.1398  0.3825
  857MOL0     C13008   7.357   1.448   3.658 -0.1574 -0.1855 -0.9190
  857MOL0     N13009   7.235   1.482   3.743 -0.6078  0.2878 -0.1497
  857MOL0     C13010   7.229   1.585   3.838 -0.5179 -0.6001  0.4641
  857MOL0     C13011   7.113   1.556   3.904 -0.4498 -0.2755  0.3558
  857MOL0     C13012   7.068   1.627   4.036  0.2321  0.1957  0.3334
  857MOL0     C13013   7.157   1.603   4.158  0.8880 -0.3438  0.1463
  857MOL0     C13014   7.253   1.720   4.182 -0.3226 -1.2153  0.2682
  857MOL0     C13015   7.357   1.692   4.288  0.7768 -0.4738 -0.3199
  857MOL0     O13016   7.413   1.799   4.356 -0.0668 -0.1755  0.0537
  857MOL0     C13017   7.540   1.851   4.335  0.0066 -0.1066  0.0617
  857MOL0     C13018   7.601   1.950   4.413 -0.4386  0.8184  0.4393
  857MOL0     C13019   7.730   1.994   4.388 -0.5353  0.3376 -0.1723
  857MOL0     C13020   7.814   1.934   4.288  0.0871  0.0403  0.3055
  857MOL0     C13021   7.953   1.984   4.273 -0.2985 -0.5021 -0.5001
  857MOL0     O13022   7.997   2.088   4.355 -0.5321 -0.9006  0.1864
  857MOL0     C13023   8.124   2.141   4.353  0.4579  1.5506  0.1015
  857MOL0     C13024   8.123   2.278   4.365  0.0661 -0.4551 -1.5062
  857MOL0     C13025   8.241   2.354   4.390  0.1647  0.2371  0.7119
  857MOL0     C13026   8.363   2.284   4.396  0.0984 -0.1840  0.3477
  857MOL0     O13027   8.484   2.341   4.409 -0.3483 -0.2091  0.0074
  857MOL0     C13028   8.489   2.450   4.510  0.3312  0.9145 -0.3675
  857MOL0     C13029   8.627   2.509   4.519 -0.0580  1.0115 -0.2782
  857MOL0     C13030   8.719   2.390   4.578  0.1153 -0.6539  0.4317
  857MOL0     C13031   8.869   2.413   4.554 -0.8288 -0.7131  0.0863
  857MOL0     C13032   8.940   2.357   4.667  1.1721  0.3697 -0.1670
  857MOL0     C13033   9.088   2.381   4.651 -0.0690  0.2516  0.6493
  857MOL0     C13034   9.187   2.287   4.732  0.0583  0.2774 -0.1803
  857MOL0     C13035   9.328   2.332   4.742 -0.6429 -0.8347 -0.6914
  857MOL0    Cl13036   9.403   2.243   4.871  0.1920 -0.1177 -0.5097
  857MOL0     C13037   8.360   2.144   4.382  0.5461 -0.3398  0.8351
  857MOL0     C13038   8.241   2.071   4.361 -1.4885  0.0718 -0.2828
  857MOL0     O13039   8.024   1.923   4.194 -0.1055  0.0676  0.5187
  857MOL0     C13040   7.756   1.849   4.204 -0.1718  0.1923 -0.4667
  857MOL0     C13041   7.621   1.807   4.229 -1.1441  0.3802 -0.1270
  857MOL0     N13042   7.057   1.441   3.845 -0.4229  0.3828 -0.7207
  857MOL0     N13043   7.133   1.390   3.755 -0.3705  0.2697  0.0668
  857MOL0     C13044   8.428   1.657   3.834  0.1751  0.0399  0.1585
  857MOL0     C13045   8.551   1.675   3.774  0.5093  0.4412 -0.3993
  857MOL0     C13046   8.890   1.917   3.600  0.1107  0.0369 -0.8108
  857MOL0     C13047   8.959   1.808   3.559 -1.3797 -0.2238 -0.3333
  857MOL0     C13048   9.102   1.808   3.563 -0.3198  0.3064  1.0028
  857MOL0     C13049   9.179   1.928   3.575 -0.4509  0.7391  0.5316
  857MOL0     O13050   9.317   1.925   3.569 -0.2153  0.0290 -0.0155
  857MOL0     C13051   9.389   2.050   3.561 -0.2043  0.1357  0.5394
  857MOL0     C13052   9.534   2.040   3.558  0.5546  0.0434  0.2100
  857MOL0     C13053   9.587   1.963   3.673 -0.1154  0.1926 -0.1475
  857MOL0     C13054   9.720   1.903   3.633 -0.9357 -0.6408 -0.3650
  857MOL0     C13055   9.806   1.864   3.748 -0.4799 -0.7071 -1.0703
  857MOL0     C13056   9.890   1.846   3.838 -0.0655  0.3482  0.8471
  857MOL0     C13057   9.096   2.046   3.602 -0.8280  0.6066  1.1632
  857MOL0     C13058   8.956   2.040   3.615  0.9775 -0.5240 -0.8472
  857MOL0     H13059   8.456   1.865   3.508 -1.5022  3.1509  1.5153
  857MOL0     H13060   8.234   1.818   3.615 -0.5333 -2.0963 -0.2262
  857MOL0     H13061   8.113   1.864   3.809 -0.7770 -0.0116 -0.8138
  857MOL0     H13062   8.132   1.826   3.981  0.2293  4.7915 -2.2747
  857MOL0     H13063   7.894   1.780   3.935 -1.4032 -3.0189  0.8446
  857MOL0     H13064   7.971   1.621   3.940  0.3130 -0.9793 -1.6050
  857MOL0     H13065   8.011   1.636   3.695 -1.3565 -0.7231 -2.3046
  857MOL0     H13066   7.900   1.767   3.691  3.4925  2.9394  3.5903
  857MOL0     H13067   7.833   1.498   3.796  1.8429  0.4163 -0.2804
  857MOL0     H13068   7.723   1.634   3.816  3.1432  3.0333  0.7270
  857MOL0     H13069   7.795   1.502   3.546  0.2345  1.7088 -1.5241
  857MOL0     H13070   7.683   1.628   3.554 -0.4682 -0.5572  1.1316
  857MOL0     H13071   7.623   1.363   3.704 -2.0571 -0.0655  0.6194
  857MOL0     H13072   7.591   1.390   3.538 -3.3662 -0.1347  0.9031
  857MOL0     H13073   7.498   1.572   3.770 -1.4042 -1.0059  0.9654
  857MOL0     H13074   7.470   1.611   3.607  0.3287 -0.1234  0.3270
  857MOL0     H13075   7.397   1.352   3.694  3.4241  1.2802 -0.4953
  857MOL0     H13076   7.340   1.434   3.551 -1.2526  0.4065 -0.8328
  857MOL0     H13077   7.303   1.660   3.865 -0.5449  0.1699 -1.4846
  857MOL0     H13078   6.967   1.590   4.057  1.1486 -2.9777 -0.3467
  857MOL0     H13079   7.063   1.736   4.024 -0.7439  0.1483  0.1793
  857MOL0     H13080   7.203   1.507   4.137  0.0534 -0.3858 -1.7163
  857MOL0     H13081   7.102   1.593   4.252  2.3871 -2.5565  0.8521
  857MOL0     H13082   7.304   1.741   4.087 -1.0612  1.2521  0.3421
  857MOL0     H13083   7.188   1.801   4.217 -0.6613 -0.4050 -2.0492
  857MOL0     H13084   7.431   1.623   4.248  0.8828 -0.8868  0.5672
  857MOL0     H13085   7.317   1.621   4.360  1.2176  0.4477  0.8581
  857MOL0     H13086   7.545   1.975   4.503 -0.3681  3.3247 -0.1479
  857MOL0     H13087   7.764   2.062   4.466  0.2274 -0.2683  0.0354
  857MOL0     H13088   8.028   2.329   4.366  0.3041  0.0315  0.1793
  857MOL0     H13089   8.225   2.461   4.401  1.4041  0.9308 -3.1021
  857MOL0     H13090   8.448   2.415   4.605 -0.7957 -1.6327 -1.6872
  857MOL0     H13091   8.419   2.526   4.475  1.7800  1.1327 -3.1083
  857MOL0     H13092   8.629   2.593   4.589 -2.2181  1.2270 -0.4066
  857MOL0     H13093   8.654   2.523   4.414 -1.6083  0.1609 -0.8209
  857MOL0     H13094   8.688   2.295   4.533 -2.9462 -0.2055  1.3557
  857MOL0     H13095   8.685   2.391   4.682 -1.2205  3.7133  0.1284
  857MOL0     H13096   8.901   2.371   4.458 -0.8286  2.7475 -1.5562
  857MOL0     H13097   8.898   2.517   4.537 -3.6619 -0.1460 -1.8963
  857MOL0     H13098   8.923   2.249   4.661  1.5983  0.2052  1.1448
  857MOL0     H13099   8.900   2.384   4.765  3.4804 -0.2823  1.0333
  857MOL0     H13100   9.119   2.481   4.682 -1.7045  0.1917  2.6290
  857MOL0     H13101   9.107   2.366   4.544 -0.5968 -3.7628  0.9519
  857MOL0     H13102   9.148   2.283   4.835  1.0975 -0.7322  0.1853
  857MOL0     H13103   9.173   2.195   4.676 -0.7391  1.1120 -1.4028
  857MOL0     H13104   9.321   2.438   4.766  0.6220 -1.1952  1.5920
  857MOL0     H13105   9.395   2.325   4.656 -0.4455 -2.5113 -0.4398
  857MOL0     H13106   8.451   2.085   4.374 -0.6793 -2.2815  0.4884
  857MOL0     H13107   8.240   1.963   4.351  2.2362 -0.1966  0.7262
  857MOL0     H13108   7.801   1.816   4.111  1.6689  0.9991  0.0913
  857MOL0     H13109   7.563   1.759   4.151  1.4624  0.0301 -1.9778
  857MOL0     H13110   8.428   1.601   3.927 -0.2260  1.7815  1.2509
  857MOL0     H13111   8.648   1.656   3.820 -1.0669  0.4674  3.2854
  857MOL0     H13112   8.918   1.709   3.541 -2.1750  0.1976 -0.8828
  857MOL0     H13113   9.159   1.720   3.533 -0.4718  1.2611 -2.4925
  857MOL0     H13114   9.352   2.119   3.637  0.5505  3.8461 -2.2277
  857MOL0     H13115   9.358   2.102   3.471 -1.7412 -1.9350 -0.2200
  857MOL0     H13116   9.565   1.994   3.464  0.8736  0.6238  0.0287
  857MOL0     H13117   9.579   2.139   3.561  1.1100 -0.2310  1.7793
  857MOL0     H13118   9.526   1.884   3.716 -0.7728  0.9370  0.3140
  857MOL0     H13119   9.610   2.036   3.751 -1.5544  0.0987  0.4004
  857MOL0     H13120   9.705   1.814   3.571  0.1915 -2.1926  1.5039
  857MOL0     H13121   9.782   1.969   3.570  1.0486 -1.5566  0.5252
  857MOL0     H13122   9.965   1.828   3.912  1.1978 -0.7457 -0.6288
  857MOL0     H13123   9.146   2.139   3.626 -0.8370  1.5661 -2.0713
  857MOL0     H13124   8.894   2.128   3.627  3.0339  1.1777 -1.9018
  858MOL0     O13125  10.486   5.996   5.844  1.0967 -0.2255 -0.0927
  858MOL0     C13126  10.443   5.959   5.735  0.4669 -0.6618  0.5714
  858MOL0     O13127  10.517   5.982   5.618 -0.0455  0.0064 -0.1952
  858MOL0     C13128  10.654   5.994   5.618  0.2857  0.5206  0.2302
  858MOL0     C13129  10.743   5.951   5.717  0.4359  0.2416  0.0641
  858MOL0     C13130  10.880   5.962   5.697  0.3837 -0.8360  0.4169
  858MOL0     C13131  10.930   6.014   5.575 -0.1533 -0.8794 -0.0919
  858MOL0     O13132  11.059   6.041   5.544  0.1844 -0.4629  0.7707
  858MOL0     C13133  11.159   6.005   5.631  0.1065  0.2532  0.3500
  858MOL0     C13134  11.289   6.036   5.547 -0.5609  0.1519  1.7175
  858MOL0     C13135  11.420   6.009   5.618  0.7821 -0.8075  0.6010
  858MOL0     C13136  11.551   6.038   5.554  0.3931 -0.3025 -0.4685
  858MOL0     C13137  11.581   5.946   5.432 -0.2874  0.1972 -0.4492
  858MOL0     C13138  11.724   5.968   5.380 -0.9982  0.0211  0.6755
  858MOL0     C13139  11.773   5.880   5.260  1.0638 -0.5501  0.6863
  858MOL0     C13140  11.903   5.800   5.293 -0.8782 -0.5089 -0.4000
  858MOL0     N13141  12.025   5.881   5.285 -0.2490  0.1379 -0.3449
  858MOL0     C13142  12.028   6.011   5.302 -0.8674 -0.2833 -0.7125
  858MOL0     C13143  12.126   6.062   5.224 -1.0613 -0.6760  0.6129
  858MOL0     C13144  12.171   6.206   5.219  0.2155 -0.0927 -1.0796
  858MOL0     C13145  12.236   6.255   5.346  0.2072 -0.0308  0.4403
  858MOL0     C13146  12.371   6.174   5.376 -0.0695 -0.6999  0.0477
  858MOL0     C13147  12.406   6.198   5.528 -1.2207  0.4695  0.3152
  858MOL0     O13148  12.528   6.123   5.558  0.2253 -0.9910 -1.2549
  858MOL0     C13149  12.560   6.106   5.686 -0.7784 -0.7987 -0.8841
  858MOL0     C13150  12.681   6.049   5.717 -0.2582 -0.4103  0.8799
  858MOL0     C13151  12.731   6.030   5.841 -0.8769 -0.1394 -0.6397
  858MOL0     C13152  12.667   6.087   5.950  0.4533 -0.5200 -0.8061
  858MOL0     C13153  12.726   6.076   6.086  0.1311 -0.7087  0.6159
  858MOL0     O13154  12.847   6.015   6.087 -0.4931 -0.0471  0.2860
  858MOL0     C13155  12.923   6.019   6.200  0.4897  0.0242  0.7157
  858MOL0     C13156  12.986   5.894   6.224  0.0819 -0.1297 -0.5814
  858MOL0     C13157  13.067   5.882   6.346  0.3508 -0.1744  0.1913
  858MOL0     C13158  13.093   5.989   6.431  0.6314 -0.1407  0.0816
  858MOL0     O13159  13.188   5.988   6.530 -0.1349 -0.0870 -0.4107
  858MOL0     C13160  13.301   5.902   6.515  0.5427  0.0435 -0.8896
  858MOL0     C13161  13.408   5.950   6.617  0.3980 -0.5131 -0.4863
  858MOL0     C13162  13.375   5.902   6.756 -0.1324 -0.0045 -0.3924
  858MOL0     C13163  13.390   5.745   6.781 -0.2323  0.0108 -0.1013
  858MOL0     C13164  13.419   5.724   6.930  0.4193 -0.0124 -0.5185
  858MOL0     C13165  13.400   5.578   6.976 -1.0081  0.3502 -1.0759
  858MOL0     C13166  13.446   5.570   7.120  0.2067 -0.4596  0.0072
  858MOL0     C13167  13.401   5.447   7.198 -0.3265  0.2491 -0.3931
  858MOL0    Cl13168  13.468   5.446   7.355  0.4801 -0.0386 -0.3147
  858MOL0     C13169  13.038   6.112   6.393  0.3865  0.4298  0.2048
  858MOL0     C13170  12.948   6.129   6.278  0.3735  0.5985 -0.6200
  858MOL0     O13171  12.678   6.130   6.185  0.2602 -0.6423  0.2629
  858MOL0     C13172  12.554   6.165   5.930  0.1618 -0.3992  0.1111
  858MOL0     C13173  12.492   6.152   5.804 -0.2292  0.1958  0.2602
  858MOL0     N13174  12.182   5.964   5.144  1.2099  0.3877  0.2844
  858MOL0     N13175  12.130   5.852   5.195  0.5802  0.4097  1.2894
  858MOL0     C13176  10.841   6.070   5.487  0.5162  0.5041 -0.0398
  858MOL0     C13177  10.703   6.060   5.507  0.8127 -0.1388 -0.6318
  858MOL0     C13178  10.320   5.888   5.727  0.7329  0.0435 -0.4689
  858MOL0     C13179  10.287   5.810   5.621  1.0854 -0.1100  0.9589
  858MOL0     C13180  10.167   5.728   5.617 -0.0944 -0.8230 -0.3151
  858MOL0     C13181  10.093   5.723   5.740  0.6366  0.4169 -0.5324
  858MOL0     O13182   9.977   5.641   5.748 -1.0374 -0.2464 -0.0760
  858MOL0     C13183   9.974   5.563   5.866 -0.4480  0.3970  1.0337
  858MOL0     C13184  10.087   5.458   5.840  0.9008 -0.4498  0.1306
  858MOL0     C13185  10.071   5.367   5.962 -0.4677  0.9548 -0.1490
  858MOL0     C13186  10.150   5.233   5.948  0.3799 -0.2816 -0.1582
  858MOL0     C13187  10.289   5.248   5.898  0.4494  0.7099 -0.6283
  858MOL0     C13188  10.399   5.269   5.855 -0.1688 -0.3637 -0.3483
  858MOL0     C13189  10.115   5.811   5.841 -0.1361 -0.4214 -0.0343
  858MOL0     C13190  10.227   5.892   5.835  0.8334 -0.3189  0.3017
  858MOL0     H13191  10.701   5.895   5.800  0.3432 -1.1476 -0.8758
  858MOL0     H13192  10.951   5.945   5.777  0.5326  2.5668  1.1269
  858MOL0     H13193  11.160   5.902   5.667  0.6564  0.0870 -0.1291
  858MOL0     H13194  11.141   6.064   5.721 -2.9567 -0.0411  0.0365
  858MOL0     H13195  11.278   6.139   5.510 -1.8432 -0.3126  0.7297
  858MOL0     H13196  11.290   5.976   5.455 -1.7282 -1.5800  2.8007
  858MOL0     H13197  11.413   5.904   5.650 -0.1511 -0.3562  1.9480
  858MOL0     H13198  11.424   6.082   5.700  1.4643  0.9051 -0.9031
  858MOL0     H13199  11.557   6.142   5.522  0.3913 -0.4457 -0.9516
  858MOL0     H13200  11.628   6.022   5.630  0.9142  0.1190 -0.9067
  858MOL0     H13201  11.514   5.970   5.348 -0.2074  1.9173 -0.0551
  858MOL0     H13202  11.572   5.839   5.455 -2.3972  0.5938  0.8213
  858MOL0     H13203  11.781   5.947   5.471 -3.0467  1.0902  2.2812
  858MOL0     H13204  11.752   6.071   5.355 -3.3428  0.4489 -0.5148
  858MOL0     H13205  11.692   5.811   5.233  1.7619 -0.7250 -1.1587
  858MOL0     H13206  11.794   5.936   5.168 -0.6365 -1.2545 -0.1840
  858MOL0     H13207  11.908   5.718   5.220  0.0647 -0.9496  0.1498
  858MOL0     H13208  11.889   5.734   5.379 -3.7317 -1.5135 -1.4797
  858MOL0     H13209  11.979   6.070   5.379 -1.4296 -0.0017 -1.2826
  858MOL0     H13210  12.085   6.270   5.195 -0.1895  0.7956  2.2275
  858MOL0     H13211  12.238   6.219   5.133 -2.0390 -0.2415 -2.9724
  858MOL0     H13212  12.164   6.242   5.428  0.6061 -0.0309  0.7951
  858MOL0     H13213  12.266   6.358   5.326 -0.8468  0.2500  0.2442
  858MOL0     H13214  12.363   6.068   5.346  1.4930 -0.0612 -3.0909
  858MOL0     H13215  12.443   6.218   5.306 -2.0143 -0.5129 -1.9561
  858MOL0     H13216  12.318   6.189   5.592 -1.4525 -1.3223 -0.2023
  858MOL0     H13217  12.433   6.304   5.524  0.3610  0.1382 -3.9254
  858MOL0     H13218  12.731   6.014   5.627  0.3225  0.1410  0.9748
  858MOL0     H13219  12.830   5.992   5.863 -0.6388  0.6029 -0.3722
  858MOL0     H13220  12.976   5.812   6.154  1.4047 -0.4109 -0.4709
  858MOL0     H13221  13.100   5.780   6.367 -1.2950 -1.1133 -1.4620
  858MOL0     H13222  13.337   5.908   6.412 -4.0767  0.1609 -2.7353
  858MOL0     H13223  13.279   5.797   6.533  0.1429  0.4559  1.2657
  858MOL0     H13224  13.423   6.058   6.612  3.2002 -0.7851  0.2592
  858MOL0     H13225  13.510   5.911   6.605  0.3693 -0.1483 -2.1664
  858MOL0     H13226  13.280   5.936   6.797  0.4329  0.0171  0.9387
  858MOL0     H13227  13.450   5.954   6.817  1.0442 -1.2974 -0.6731
  858MOL0     H13228  13.302   5.685   6.755 -0.4142  0.2034  0.0682
  858MOL0     H13229  13.477   5.705   6.728  0.8651  1.3961  0.5653
  858MOL0     H13230  13.344   5.786   6.981 -0.1973  0.0216 -1.4397
  858MOL0     H13231  13.520   5.761   6.947  0.0034 -0.1583  2.8838
  858MOL0     H13232  13.464   5.516   6.913  1.5678  2.6337 -0.8975
  858MOL0     H13233  13.298   5.539   6.968 -0.6096 -1.0328  0.3201
  858MOL0     H13234  13.556   5.576   7.119  0.1716  0.1150 -0.9502
  858MOL0     H13235  13.408   5.657   7.174 -1.6491 -1.1755 -0.0619
  858MOL0     H13236  13.437   5.354   7.154 -2.6108 -0.7670 -0.2697
  858MOL0     H13237  13.292   5.444   7.208 -0.3296 -0.9312 -0.7182
  858MOL0     H13238  13.069   6.198   6.451  0.4179  1.4354 -1.2714
  858MOL0     H13239  12.917   6.228   6.245  0.3392  0.3119 -1.4629
  858MOL0     H13240  12.508   6.212   6.016  0.8066  1.5567 -0.5476
  858MOL0     H13241  12.401   6.211   5.791  0.0127  0.6089  0.4344
  858MOL0     H13242  10.894   6.130   5.414  0.4256  2.1227  1.1873
  858MOL0     H13243  10.623   6.107   5.452  0.5861 -0.9384 -0.9913
  858MOL0     H13244  10.354   5.805   5.535 -0.1371  1.1350 -0.1041
  858MOL0     H13245  10.151   5.670   5.526 -0.1601 -2.2855  0.5907
  858MOL0     H13246   9.875   5.516   5.869  0.3124 -1.6894 -1.6851
  858MOL0     H13247   9.991   5.610   5.963  4.2836 -1.3186  1.3092
  858MOL0     H13248  10.070   5.392   5.755  0.1266 -2.1915  1.5591
  858MOL0     H13249  10.188   5.499   5.851  0.5783 -0.3104  6.0343
  858MOL0     H13250   9.968   5.334   5.976 -0.0537  0.3486  1.7899
  858MOL0     H13251  10.102   5.405   6.060  1.0714 -3.8497  1.5510
  858MOL0     H13252  10.136   5.199   6.050 -2.4758  1.5038  0.1611
  858MOL0     H13253  10.106   5.159   5.880  1.0866 -2.2968  1.4825
  858MOL0     H13254  10.493   5.303   5.816 -0.9295  0.8248 -1.2029
  858MOL0     H13255  10.047   5.822   5.925 -1.9844  0.1445 -1.5547
  858MOL0     H13256  10.255   5.960   5.914 -0.3382 -0.5850  0.9691
  859MOL0     O13257   1.826   1.094   2.439  0.5157 -0.3059 -0.0540
  859MOL0     C13258   1.825   1.223   2.459  0.0618  0.0946  0.1513
  859MOL0     O13259   1.728   1.296   2.531  0.1535  0.5731 -0.1375
  859MOL0     C13260   1.628   1.224   2.591  0.5471 -0.1436  0.2296
  859MOL0     C13261   1.494   1.262   2.564  0.1689 -0.3100  0.3746
  859MOL0     C13262   1.382   1.188   2.613  0.1660  0.3578 -0.1564
  859MOL0     C13263   1.403   1.082   2.698  0.1146  0.2112 -0.5003
  859MOL0     O13264   1.285   1.018   2.739 -0.0640  0.6478  0.6411
  859MOL0     C13265   1.289   0.885   2.778  0.0451  0.2218  0.7558
  859MOL0     C13266   1.306   0.800   2.656 -0.3204 -0.2844  0.2319
  859MOL0     C13267   1.287   0.650   2.685  0.1662  0.2439 -0.7813
  859MOL0     C13268   1.142   0.621   2.733  0.8813  0.5448  0.6312
  859MOL0     C13269   1.129   0.592   2.884  0.3393 -0.4776  0.2736
  859MOL0     C13270   0.984   0.542   2.899  0.1334 -0.3432 -0.6791
  859MOL0     C13271   0.967   0.461   3.028  0.5880  0.3771  1.1678
  859MOL0     C13272   0.818   0.426   3.059 -1.1908  0.4152  0.1054
  859MOL0     N13273   0.760   0.530   3.147  0.1500  0.0880 -0.3858
  859MOL0     C13274   0.787   0.543   3.284  0.1280 -0.1879  0.8960
  859MOL0     C13275   0.690   0.624   3.333 -0.5895 -0.4977 -0.6825
  859MOL0     C13276   0.670   0.661   3.482 -0.6183 -0.9547  0.5000
  859MOL0     C13277   0.556   0.589   3.537 -0.4790  0.7225 -0.1770
  859MOL0     C13278   0.521   0.658   3.671 -0.4770  0.8244  0.2239
  859MOL0     C13279   0.430   0.569   3.748  0.5422 -0.2482 -0.0242
  859MOL0     O13280   0.508   0.464   3.807 -0.4118 -0.4092 -0.2850
  859MOL0     C13281   0.449   0.345   3.844 -0.5349 -0.3930  0.8183
  859MOL0     C13282   0.408   0.246   3.752  0.8103 -1.0615 -0.1309
  859MOL0     C13283   0.359   0.132   3.793 -0.5579  0.1370 -0.0664
  859MOL0     C13284   0.355   0.095   3.932 -0.1677 -0.5032 -0.2848
  859MOL0     C13285   0.293  -0.040   3.974 -0.7894 -0.0945 -0.0798
  859MOL0     O13286   0.287  -0.136   3.877  0.8236 -1.5270  0.7545
  859MOL0     C13287   0.226  -0.258   3.911  0.4212 -0.0999 -0.1605
  859MOL0     C13288   0.107  -0.260   3.970  0.4622  0.7969  0.3555
  859MOL0     C13289   0.045  -0.376   4.020 -0.2985  0.1325 -0.4443
  859MOL0     C13290   0.112  -0.497   4.011  0.2096 -0.7384  0.1115
  859MOL0     O13291   0.057  -0.613   4.038  0.2572  0.4556  0.1993
  859MOL0     C13292   0.117  -0.656   4.163 -0.0463  0.0328  0.2307
  859MOL0     C13293   0.037  -0.787   4.200  0.2033  0.0702 -0.2063
  859MOL0     C13294  -0.107  -0.750   4.255 -0.3138 -0.4552  0.2595
  859MOL0     C13295  -0.189  -0.861   4.308  0.5962 -0.1028 -0.1587
  859MOL0     C13296  -0.323  -0.815   4.358 -1.1066  0.0865 -0.0330
  859MOL0     C13297  -0.318  -0.725   4.485 -0.1541 -0.6631  0.1347
  859MOL0     C13298  -0.280  -0.812   4.603  0.0177 -0.8091 -0.2468
  859MOL0     C13299  -0.329  -0.762   4.743  0.3128  0.2226  0.1295
  859MOL0    Cl13300  -0.261  -0.601   4.798  0.4553  0.7607 -0.3235
  859MOL0     C13301   0.236  -0.498   3.935  0.1407 -0.5253  0.0322
  859MOL0     C13302   0.297  -0.380   3.890 -0.2624 -0.0400 -0.8100
  859MOL0     O13303   0.262  -0.051   4.090  0.4217  0.8596 -0.0474
  859MOL0     C13304   0.405   0.186   4.028  0.0922  0.7799 -0.6152
  859MOL0     C13305   0.454   0.305   3.981  0.2335  0.1619  0.0628
  859MOL0     N13306   0.608   0.658   3.228  0.1126 -0.0640 -0.0334
  859MOL0     N13307   0.651   0.609   3.122  0.3773  0.5892 -0.2692
  859MOL0     C13308   1.535   1.038   2.728  0.1347 -0.1434 -0.5869
  859MOL0     C13309   1.645   1.107   2.673  0.4533 -0.6217 -0.1925
  859MOL0     C13310   1.945   1.304   2.421  0.8441 -0.7688  0.5506
  859MOL0     C13311   2.056   1.245   2.375 -0.3237 -0.2636  0.1984
  859MOL0     C13312   2.178   1.314   2.357  0.2067 -0.1108 -0.6095
  859MOL0     C13313   2.189   1.441   2.396 -0.2776 -0.5365 -0.0264
  859MOL0     O13314   2.298   1.515   2.392  0.0448  0.5741 -0.8625
  859MOL0     C13315   2.421   1.456   2.354 -0.0566  0.4246 -0.6394
  859MOL0     C13316   2.474   1.372   2.473 -0.5383 -0.3660 -0.0978
  859MOL0     C13317   2.618   1.419   2.516 -0.1889 -0.2249  0.4792
  859MOL0     C13318   2.677   1.336   2.636 -0.9247  0.2315 -0.6696
  859MOL0     C13319   2.795   1.395   2.696  0.1911 -0.5654 -1.0099
  859MOL0     C13320   2.899   1.420   2.749 -0.1484  0.8265 -0.0036
  859MOL0     C13321   2.075   1.512   2.435 -0.1226 -0.8017 -0.7788
  859MOL0     C13322   1.951   1.444   2.440  0.2845  0.4213 -0.0721
  859MOL0     H13323   1.485   1.354   2.507  3.3300 -0.8108 -1.1348
  859MOL0     H13324   1.288   1.217   2.568  0.1256  1.5202  0.6259
  859MOL0     H13325   1.198   0.867   2.837 -0.1260  2.6978  1.3309
  859MOL0     H13326   1.377   0.868   2.840  0.8374 -0.8389 -0.5864
  859MOL0     H13327   1.408   0.811   2.620 -0.0653 -2.8401 -0.0340
  859MOL0     H13328   1.253   0.852   2.576  1.3520  1.0939 -0.0330
  859MOL0     H13329   1.345   0.604   2.766  0.9885  1.6017 -0.5601
  859MOL0     H13330   1.295   0.595   2.590  0.9424  0.4728 -0.8568
  859MOL0     H13331   1.069   0.697   2.703 -0.2187 -0.2003  1.3404
  859MOL0     H13332   1.110   0.531   2.680 -0.6544 -0.2595  2.7701
  859MOL0     H13333   1.135   0.682   2.946 -0.3654 -0.0107 -0.3144
  859MOL0     H13334   1.195   0.508   2.906  0.9762 -0.3513 -1.0639
  859MOL0     H13335   0.961   0.470   2.819  1.5988 -3.6348  1.6399
  859MOL0     H13336   0.915   0.627   2.896  1.0548  0.4656  0.4389
  859MOL0     H13337   1.027   0.369   3.024 -2.9278 -2.1055 -1.5672
  859MOL0     H13338   1.023   0.513   3.106  0.4834  1.5816  0.4646
  859MOL0     H13339   0.809   0.327   3.105  0.3656 -0.0500 -0.5226
  859MOL0     H13340   0.767   0.427   2.963  0.6067  1.1204 -0.9039
  859MOL0     H13341   0.862   0.483   3.334  2.0822  3.0632  2.1684
  859MOL0     H13342   0.672   0.770   3.490  0.0442 -0.7738 -1.6245
  859MOL0     H13343   0.762   0.632   3.533  0.8297  3.7045  0.9689
  859MOL0     H13344   0.584   0.485   3.555 -1.7910  0.3508 -0.1701
  859MOL0     H13345   0.478   0.585   3.460 -1.0532  0.2160  0.4262
  859MOL0     H13346   0.614   0.665   3.728 -0.9423 -0.1114  1.1289
  859MOL0     H13347   0.476   0.756   3.658  1.1600  1.5136 -0.5694
  859MOL0     H13348   0.346   0.536   3.686 -0.8804  0.8990  1.2122
  859MOL0     H13349   0.387   0.629   3.829  2.8449  0.2162  0.9326
  859MOL0     H13350   0.419   0.282   3.650 -1.1563 -1.3250 -0.4811
  859MOL0     H13351   0.321   0.068   3.714 -1.7758  1.0338 -0.2381
  859MOL0     H13352   0.040  -0.179   3.997 -1.5451 -0.5715 -0.3140
  859MOL0     H13353  -0.059  -0.376   4.051 -0.3580  0.7360 -0.6372
  859MOL0     H13354   0.110  -0.583   4.244 -0.5570  1.6409 -1.1985
  859MOL0     H13355   0.219  -0.683   4.132 -0.5460 -1.7475  0.0725
  859MOL0     H13356   0.084  -0.826   4.290  0.0216 -0.0904 -0.1801
  859MOL0     H13357   0.045  -0.872   4.132 -0.7428 -1.1309  1.1144
  859MOL0     H13358  -0.155  -0.708   4.167 -1.4146 -0.1001  1.0047
  859MOL0     H13359  -0.094  -0.673   4.332 -1.8385  1.8429 -1.6621
  859MOL0     H13360  -0.204  -0.938   4.231 -0.3897  1.3235 -1.4426
  859MOL0     H13361  -0.135  -0.912   4.388 -0.9139  1.5012  1.9563
  859MOL0     H13362  -0.368  -0.909   4.393 -4.0399  1.3010 -0.2231
  859MOL0     H13363  -0.385  -0.765   4.282 -1.9374  0.1072  0.6414
  859MOL0     H13364  -0.417  -0.684   4.506 -0.1647  0.0101 -1.1244
  859MOL0     H13365  -0.251  -0.641   4.466 -0.5750 -0.6760 -1.6152
  859MOL0     H13366  -0.335  -0.906   4.594  1.9459 -1.9665 -0.3383
  859MOL0     H13367  -0.172  -0.829   4.599 -0.0409 -0.9107 -2.0924
  859MOL0     H13368  -0.312  -0.835   4.823  0.2347  1.0131  0.8690
  859MOL0     H13369  -0.436  -0.741   4.730  1.0403  3.9026 -0.9303
  859MOL0     H13370   0.297  -0.586   3.917 -1.6266 -1.2748 -3.2153
  859MOL0     H13371   0.389  -0.387   3.833  0.5021 -0.2550  0.4177
  859MOL0     H13372   0.398   0.166   4.135 -0.3837  2.6622 -0.2708
  859MOL0     H13373   0.497   0.389   4.035 -0.3005  0.7320 -0.3724
  859MOL0     H13374   1.571   0.961   2.795  2.3307  0.0329 -1.5060
  859MOL0     H13375   1.748   1.072   2.673  0.8615  0.2713 -3.5346
  859MOL0     H13376   2.052   1.140   2.351 -2.1476 -0.0122 -0.7781
  859MOL0     H13377   2.264   1.262   2.315 -0.1813 -2.4143  1.2197
  859MOL0     H13378   2.490   1.537   2.327  0.2726  0.8601  1.3446
  859MOL0     H13379   2.414   1.394   2.264 -3.5894  0.9289 -0.8538
  859MOL0     H13380   2.400   1.376   2.553 -1.4111 -2.8177 -0.6832
  859MOL0     H13381   2.473   1.267   2.441 -0.4880 -0.2074 -0.6252
  859MOL0     H13382   2.598   1.509   2.574 -2.3574 -1.1238  1.2401
  859MOL0     H13383   2.684   1.429   2.429 -2.0056 -5.5475 -1.9221
  859MOL0     H13384   2.604   1.339   2.718  2.4247  0.1287  2.5771
  859MOL0     H13385   2.684   1.228   2.619  1.1052  0.2491 -0.1812
  859MOL0     H13386   2.985   1.456   2.802  1.2720  0.7350 -2.1264
  859MOL0     H13387   2.092   1.617   2.454 -2.2695 -0.6144  0.5582
  859MOL0     H13388   1.858   1.500   2.448  0.8732  1.3554  0.4134
  860MOL0     O13389   9.063   3.905   7.011 -0.2819 -0.2326  0.4224
  860MOL0     C13390   9.044   4.003   7.075  0.0172  0.5393 -0.0702
  860MOL0     O13391   9.143   4.078   7.135  0.1307  0.1661  0.2982
  860MOL0     C13392   9.278   4.040   7.125 -0.8712  0.1966 -0.2656
  860MOL0     C13393   9.369   4.130   7.069 -0.0146 -0.3368 -0.6562
  860MOL0     C13394   9.501   4.103   7.064  0.1762  0.0003 -0.2918
  860MOL0     C13395   9.548   3.980   7.110 -0.0143 -0.3707  0.7570
  860MOL0     O13396   9.682   3.947   7.104  0.0047 -0.2125  0.0186
  860MOL0     C13397   9.776   4.023   7.179  0.2823  0.5908 -0.4023
  860MOL0     C13398   9.825   4.151   7.102 -0.9119 -0.6002  0.2998
  860MOL0     C13399   9.975   4.198   7.140  0.4410 -1.2078  0.0218
  860MOL0     C13400  10.084   4.151   7.040  0.1411 -0.2101  0.3264
  860MOL0     C13401  10.225   4.196   7.083 -0.2613  0.0696  0.2867
  860MOL0     C13402  10.310   4.167   6.956 -0.5168 -0.8189  0.7592
  860MOL0     C13403  10.464   4.192   6.982  0.3967  1.2216 -1.1271
  860MOL0     C13404  10.499   4.329   6.959  0.1416 -0.1908 -0.2134
  860MOL0     N13405  10.646   4.350   6.964  0.0251 -0.6220 -0.5732
  860MOL0     C13406  10.706   4.458   7.022  0.3464 -0.6397  0.0062
  860MOL0     C13407  10.843   4.442   7.014 -0.2405 -0.2776 -0.0657
  860MOL0     C13408  10.961   4.522   7.074  0.1634  0.5387 -0.2206
  860MOL0     C13409  11.104   4.451   7.073  0.3967 -0.6072 -0.4500
  860MOL0     C13410  11.155   4.448   6.932 -0.7464  0.1975  0.3531
  860MOL0     C13411  11.309   4.486   6.928  0.3892  0.2930  0.1404
  860MOL0     O13412  11.384   4.381   6.978  0.5525  0.7225 -0.2334
  860MOL0     C13413  11.515   4.356   6.956 -0.1889 -0.1603  0.1957
  860MOL0     C13414  11.570   4.227   6.974  0.2317  0.4410 -0.1607
  860MOL0     C13415  11.707   4.211   6.983 -1.1919  0.9074  0.1810
  860MOL0     C13416  11.808   4.313   6.960 -0.0374  1.1765  0.3688
  860MOL0     C13417  11.953   4.286   6.967  0.1100 -0.5211  0.2104
  860MOL0     O13418  11.994   4.157   7.002 -0.6398 -0.4538  0.2853
  860MOL0     C13419  12.127   4.142   7.028  0.7385  0.2960 -0.0754
  860MOL0     C13420  12.186   4.191   7.144 -0.5128 -0.1233  0.6965
  860MOL0     C13421  12.318   4.164   7.178  0.2774 -0.0428 -1.9356
  860MOL0     C13422  12.390   4.087   7.097  0.1615  0.1341  0.2877
  860MOL0     O13423  12.525   4.075   7.144 -0.2749  0.3482 -0.7561
  860MOL0     C13424  12.621   4.034   7.039  0.7706  0.6566 -0.8585
  860MOL0     C13425  12.760   4.022   7.093 -0.2298 -1.1057 -0.0173
  860MOL0     C13426  12.859   3.978   6.984  0.3654  0.6780 -0.0405
  860MOL0     C13427  13.005   4.011   6.994  0.2112 -0.2278  0.2977
  860MOL0     C13428  13.099   3.928   6.900  0.8041 -0.1980 -0.8704
  860MOL0     C13429  13.115   3.786   6.965  0.6126  0.3890 -0.6127
  860MOL0     C13430  13.187   3.691   6.869  0.1122 -0.7620 -0.0447
  860MOL0     C13431  13.329   3.748   6.842  0.1641 -0.3691  0.0380
  860MOL0    Cl13432  13.438   3.635   6.770  0.1846 -0.2120  0.3388
  860MOL0     C13433  12.332   4.037   6.980  0.1825 -0.0671 -0.2877
  860MOL0     C13434  12.201   4.051   6.949 -0.0352  0.0212 -0.3019
  860MOL0     O13435  12.017   4.383   6.948 -1.1812 -0.2937  0.1275
  860MOL0     C13436  11.750   4.434   6.937  0.1030 -1.2658  0.1055
  860MOL0     C13437  11.607   4.453   6.929  0.1855 -0.0532 -0.4836
  860MOL0     N13438  10.860   4.321   6.956  0.5154  0.0418  0.7309
  860MOL0     N13439  10.746   4.267   6.924  1.0184  1.0958  0.3980
  860MOL0     C13440   9.460   3.886   7.170 -0.9998 -0.2242  0.7297
  860MOL0     C13441   9.324   3.917   7.179 -0.1037 -0.4943 -0.0605
  860MOL0     C13442   8.900   4.048   7.085  0.8642 -0.9377  0.2465
  860MOL0     C13443   8.856   4.128   7.192 -0.7772  0.9594  0.5478
  860MOL0     C13444   8.712   4.166   7.193 -0.8647 -0.0145 -0.2473
  860MOL0     C13445   8.628   4.135   7.085  0.7114 -0.4473  0.0449
  860MOL0     O13446   8.499   4.188   7.101  0.7511 -0.2116 -0.9084
  860MOL0     C13447   8.390   4.189   7.000 -0.2382  0.1196 -0.4508
  860MOL0     C13448   8.286   4.076   7.006  0.1370  0.8302 -1.1231
  860MOL0     C13449   8.188   4.083   7.134 -0.6265  0.0577 -0.2573
  860MOL0     C13450   8.066   4.000   7.111 -0.3588  0.5034 -0.4486
  860MOL0     C13451   7.992   4.057   7.002  0.7769 -0.5383  0.6392
  860MOL0     C13452   7.932   4.104   6.905 -0.0475 -0.0275 -1.1200
  860MOL0     C13453   8.668   4.038   6.995 -0.8322 -1.0124  0.1399
  860MOL0     C13454   8.802   3.998   6.993 -0.4365 -0.1566  1.0751
  860MOL0     H13455   9.337   4.230   7.044 -0.4539 -0.3593 -0.2015
  860MOL0     H13456   9.572   4.177   7.025  4.7410 -2.0046  3.2789
  860MOL0     H13457   9.857   3.953   7.197  0.3133  0.7498  0.0827
  860MOL0     H13458   9.736   4.056   7.275 -4.3552  0.1180 -1.9103
  860MOL0     H13459   9.750   4.230   7.114 -1.3660 -1.2186  1.7668
  860MOL0     H13460   9.827   4.124   6.996 -1.1940 -4.5438  1.1683
  860MOL0     H13461  10.015   4.170   7.238 -1.7314 -4.5775  0.0964
  860MOL0     H13462   9.985   4.307   7.147 -0.4735 -1.1590  0.7323
  860MOL0     H13463  10.083   4.043   7.021 -0.8943 -0.2349  0.4930
  860MOL0     H13464  10.051   4.209   6.954  1.1516  2.1694  1.4372
  860MOL0     H13465  10.261   4.134   7.166 -3.0867 -0.0427  1.5242
  860MOL0     H13466  10.218   4.302   7.110 -3.3150 -0.1820  0.7590
  860MOL0     H13467  10.272   4.232   6.877 -0.4975 -0.8743  0.7038
  860MOL0     H13468  10.288   4.066   6.920  0.8612 -1.2428  1.0364
  860MOL0     H13469  10.478   4.150   7.082 -0.3900 -2.1783 -2.2878
  860MOL0     H13470  10.516   4.121   6.917 -1.3810 -2.5323  1.1876
  860MOL0     H13471  10.432   4.390   7.020 -0.5946 -0.8235 -0.3707
  860MOL0     H13472  10.468   4.364   6.860  0.2856 -0.8516 -0.4953
  860MOL0     H13473  10.657   4.540   7.073 -1.1540 -1.3558 -0.2281
  860MOL0     H13474  10.941   4.555   7.177  4.1961  0.2428  0.8336
  860MOL0     H13475  10.966   4.620   7.026 -0.3987 -0.0591 -1.5301
  860MOL0     H13476  11.095   4.350   7.114  0.7867 -0.0443  1.1091
  860MOL0     H13477  11.180   4.503   7.133  2.0879  1.5033 -4.1014
  860MOL0     H13478  11.136   4.351   6.887 -0.4508 -0.0082  0.6694
  860MOL0     H13479  11.114   4.536   6.882 -0.8871  0.5120  1.0050
  860MOL0     H13480  11.325   4.576   6.988 -1.7211  1.0793 -0.3730
  860MOL0     H13481  11.335   4.497   6.822 -0.5711  0.0688 -0.1285
  860MOL0     H13482  11.509   4.138   6.981 -2.2364  1.9616 -1.0693
  860MOL0     H13483  11.733   4.110   7.014  1.5461  0.4177 -3.1714
  860MOL0     H13484  12.123   4.237   7.220 -4.3118 -1.8127 -1.1439
  860MOL0     H13485  12.354   4.199   7.274 -0.2995 -2.0461 -0.9274
  860MOL0     H13486  12.615   4.112   6.963 -0.7095 -0.0751 -1.5245
  860MOL0     H13487  12.585   3.938   7.002  1.5513  0.3765 -0.9128
  860MOL0     H13488  12.757   3.948   7.173 -1.1574 -0.2313  0.7792
  860MOL0     H13489  12.784   4.122   7.130 -0.9727 -0.7613 -0.4356
  860MOL0     H13490  12.823   4.024   6.892  0.0196  0.2729 -0.1149
  860MOL0     H13491  12.846   3.869   6.975  2.9821  0.3950 -1.2842
  860MOL0     H13492  13.021   4.111   6.952 -0.2676 -0.2038  0.1648
  860MOL0     H13493  13.032   4.006   7.100 -0.8569 -0.2374  0.5804
  860MOL0     H13494  13.198   3.973   6.892  0.0453  2.6082  2.7624
  860MOL0     H13495  13.058   3.907   6.801  1.7784 -3.2184 -0.7292
  860MOL0     H13496  13.028   3.734   7.005  1.4652 -1.7764 -1.4167
  860MOL0     H13497  13.178   3.789   7.054 -3.0071 -0.4515  2.2404
  860MOL0     H13498  13.199   3.589   6.907 -1.3718 -1.3294 -1.0182
  860MOL0     H13499  13.123   3.682   6.781 -0.9334 -2.3009  0.8225
  860MOL0     H13500  13.380   3.774   6.936  1.3362  3.3105 -1.4379
  860MOL0     H13501  13.326   3.829   6.769  0.1881 -1.5558 -1.3098
  860MOL0     H13502  12.391   3.980   6.908 -0.1018 -0.3311 -0.3130
  860MOL0     H13503  12.160   4.023   6.852  1.0837  1.1262 -1.1195
  860MOL0     H13504  11.819   4.515   6.918  0.6448 -1.5106  0.9690
  860MOL0     H13505  11.581   4.557   6.913  1.4051  0.4755  0.7770
  860MOL0     H13506   9.508   3.796   7.207 -0.3685  1.5330  4.7579
  860MOL0     H13507   9.257   3.838   7.210 -0.0546 -0.8961 -0.9366
  860MOL0     H13508   8.932   4.164   7.260  1.5196 -1.5441 -0.4800
  860MOL0     H13509   8.668   4.227   7.271  0.5589  0.8103 -0.0503
  860MOL0     H13510   8.436   4.176   6.902 -0.6939  1.1161 -0.8166
  860MOL0     H13511   8.338   4.286   6.997 -2.3211 -0.8557  1.4208
  860MOL0     H13512   8.232   4.064   6.912  0.2449 -1.2272 -0.9573
  860MOL0     H13513   8.344   3.983   7.010  0.4796  1.0638 -0.4440
  860MOL0     H13514   8.169   4.186   7.165 -2.8004 -0.7759  1.4543
  860MOL0     H13515   8.229   4.025   7.217 -1.9303  0.4949  0.7140
  860MOL0     H13516   8.098   3.899   7.082 -0.7187  0.0105  0.7867
  860MOL0     H13517   8.004   3.984   7.200 -1.0062 -1.1338 -1.1485
  860MOL0     H13518   7.896   4.150   6.814 -0.2873  2.1799  0.0253
  860MOL0     H13519   8.603   4.005   6.915  1.2940 -4.4085 -0.3821
  860MOL0     H13520   8.834   3.930   6.915  0.9992  2.6541 -0.9801
  861MOL0     O13521   6.418  10.069  10.689 -0.4410  0.7408 -0.2289
  861MOL0     C13522   6.421  10.001  10.792  0.4769  0.4601  0.4298
  861MOL0     O13523   6.477  10.040  10.906 -0.4190 -0.0810 -0.7416
  861MOL0     C13524   6.521  10.170  10.905 -0.5567 -0.1706  0.0437
  861MOL0     C13525   6.431  10.280  10.895  0.1986 -0.1556 -0.5316
  861MOL0     C13526   6.475  10.417  10.908 -0.8115  0.2077 -0.7198
  861MOL0     C13527   6.608  10.442  10.937  0.6361 -0.0803 -0.1800
  861MOL0     O13528   6.644  10.580  10.941  0.3178 -0.0545 -0.3087
  861MOL0     C13529   6.760  10.608  11.015  0.6850 -0.8414 -0.6067
  861MOL0     C13530   6.776  10.758  11.015 -0.3030 -0.3445  0.3603
  861MOL0     C13531   6.915  10.801  11.054  0.2762 -0.1232 -0.7695
  861MOL0     C13532   6.998  10.841  10.932 -1.0199  0.4131  0.0631
  861MOL0     C13533   7.147  10.861  10.969 -0.6371  0.6012  0.6079
  861MOL0     C13534   7.216  10.731  11.029  0.3683  0.4261  0.3988
  861MOL0     C13535   7.213  10.614  10.934 -0.0668  0.3988 -0.1784
  861MOL0     C13536   7.288  10.495  11.001 -0.6135 -1.0089 -0.3468
  861MOL0     N13537   7.436  10.513  11.004 -0.3866  0.0856 -1.0237
  861MOL0     C13538   7.523  10.489  10.906 -0.3120  0.0278  0.4157
  861MOL0     C13539   7.643  10.513  10.965 -0.1585  0.5871  0.5069
  861MOL0     C13540   7.776  10.503  10.890 -0.2395  0.3890  0.5218
  861MOL0     C13541   7.881  10.589  10.951 -1.0881 -0.2690 -0.6897
  861MOL0     C13542   8.001  10.606  10.850 -0.0715 -0.2210 -0.6066
  861MOL0     C13543   8.097  10.706  10.911 -0.4358  0.1886 -1.3296
  861MOL0     O13544   8.025  10.828  10.954 -0.5506 -0.0619 -0.2312
  861MOL0     C13545   8.074  10.909  11.060  0.9666 -0.2785  0.3931
  861MOL0     C13546   8.205  10.920  11.115  0.9317 -0.1384 -0.5932
  861MOL0     C13547   8.232  11.010  11.220  0.2975  0.2200 -0.2410
  861MOL0     C13548   8.133  11.101  11.267  0.2822 -0.1613  0.5982
  861MOL0     C13549   8.166  11.217  11.354  1.1771  0.1756 -0.1365
  861MOL0     O13550   8.085  11.328  11.364  0.2249 -0.0486 -0.6578
  861MOL0     C13551   8.137  11.429  11.445  0.1065  0.9734  0.1541
  861MOL0     C13552   8.148  11.554  11.383 -0.3004 -0.6372  0.0011
  861MOL0     C13553   8.173  11.672  11.455  0.1811  0.6644 -0.0574
  861MOL0     C13554   8.199  11.665  11.593  0.5979  0.5406 -0.8876
  861MOL0     O13555   8.226  11.780  11.661  0.3572  0.3077  0.3970
  861MOL0     C13556   8.234  11.910  11.604  0.7723  0.1452  0.4043
  861MOL0     C13557   8.216  12.007  11.723  0.9842 -0.8895  0.1568
  861MOL0     C13558   8.336  12.011  11.822 -0.4854  0.3261 -0.9835
  861MOL0     C13559   8.315  12.117  11.943 -0.6131 -0.4277  0.5140
  861MOL0     C13560   8.397  12.082  12.063  0.1722  0.7897  0.0192
  861MOL0     C13561   8.544  12.104  12.029 -0.1493  0.6687 -0.7994
  861MOL0     C13562   8.625  12.063  12.154  0.4553 -0.3005  0.1062
  861MOL0     C13563   8.777  12.097  12.154 -0.4348  0.6895  0.2532
  861MOL0    Cl13564   8.855  12.056  12.012 -0.1260 -0.3145  0.0992
  861MOL0     C13565   8.190  11.541  11.653 -0.8626  0.4654  0.2347
  861MOL0     C13566   8.158  11.423  11.581  0.5490  0.6690 -0.2273
  861MOL0     O13567   8.271  11.198  11.421 -0.0840 -0.6868 -0.4598
  861MOL0     C13568   8.001  11.088  11.211  0.2419  0.1614  0.0253
  861MOL0     C13569   7.976  10.994  11.114  0.0278  0.4274 -0.2679
  861MOL0     N13570   7.620  10.535  11.110  0.8354  1.2989 -0.4483
  861MOL0     N13571   7.496  10.548  11.126  0.1185 -0.2297  0.1460
  861MOL0     C13572   6.696  10.337  10.958 -0.0993  0.0247 -0.2333
  861MOL0     C13573   6.653  10.202  10.946  0.0259  0.1307  1.0595
  861MOL0     C13574   6.345   9.876  10.792 -0.1796 -0.8976  0.0297
  861MOL0     C13575   6.277   9.840  10.905 -0.2280  0.2619  0.9303
  861MOL0     C13576   6.209   9.717  10.914  0.4962 -0.4966  0.4113
  861MOL0     C13577   6.184   9.653  10.788 -0.4728  0.8283  0.1168
  861MOL0     O13578   6.102   9.544  10.792  0.2448  0.2725 -0.6023
  861MOL0     C13579   5.987   9.539  10.711 -0.5267 -0.1326  0.1287
  861MOL0     C13580   5.964   9.409  10.634  0.0276 -0.0200 -0.2144
  861MOL0     C13581   6.059   9.422  10.519 -0.7597 -0.0384  0.5314
  861MOL0     C13582   6.060   9.298  10.424  0.0962  1.0513  0.4977
  861MOL0     C13583   5.935   9.263  10.363  0.3717 -0.1078 -0.4652
  861MOL0     C13584   5.827   9.228  10.318 -0.1682 -0.3424 -0.4642
  861MOL0     C13585   6.253   9.694  10.676 -0.1894  0.6073 -0.3696
  861MOL0     C13586   6.341   9.799  10.679 -0.3049 -0.3034 -0.4506
  861MOL0     H13587   6.327  10.262  10.870  0.0593  2.3744 -2.0976
  861MOL0     H13588   6.407  10.502  10.913  0.8550  1.6597 -1.3192
  861MOL0     H13589   6.844  10.557  10.968  0.7495 -0.8580 -0.4761
  861MOL0     H13590   6.741  10.579  11.119 -1.2689 -1.4483 -1.0913
  861MOL0     H13591   6.687  10.814  11.048 -1.1292 -0.8331 -0.9648
  861MOL0     H13592   6.774  10.782  10.909  0.8148  0.8600  0.5908
  861MOL0     H13593   6.971  10.728  11.113  0.8228  0.3268 -0.7168
  861MOL0     H13594   6.900  10.891  11.115  1.2885  0.1974 -0.9751
  861MOL0     H13595   7.001  10.764  10.854 -0.2934  1.6253 -1.1444
  861MOL0     H13596   6.961  10.936  10.893  3.7402  2.7362  0.5206
  861MOL0     H13597   7.159  10.943  11.040 -4.1250  0.9269  0.9880
  861MOL0     H13598   7.201  10.893  10.879 -1.0885  0.9805  0.4629
  861MOL0     H13599   7.176  10.704  11.127  1.1701 -1.8074  0.1695
  861MOL0     H13600   7.321  10.750  11.053  0.2740  1.0124  0.3658
  861MOL0     H13601   7.113  10.586  10.900  1.2489 -0.6017 -3.8349
  861MOL0     H13602   7.267  10.647  10.844 -0.0050  2.1884  0.4767
  861MOL0     H13603   7.266  10.401  10.951  2.6026 -2.5787  0.9111
  861MOL0     H13604   7.255  10.479  11.104 -1.5510 -4.4359 -1.0843
  861MOL0     H13605   7.502  10.482  10.800 -1.6189  1.4584  0.5440
  861MOL0     H13606   7.762  10.535  10.786  1.5182 -0.1205  0.1049
  861MOL0     H13607   7.811  10.399  10.894 -1.3184 -0.0005  0.2057
  861MOL0     H13608   7.917  10.553  11.048  2.6624  0.4043 -1.6695
  861MOL0     H13609   7.820  10.680  10.957 -1.5712 -0.6233 -0.0439
  861MOL0     H13610   8.059  10.518  10.820 -0.1058 -1.1664  1.8491
  861MOL0     H13611   7.956  10.660  10.766  1.4394 -0.1359 -1.3991
  861MOL0     H13612   8.180  10.738  10.847  0.6108 -0.9023 -0.5743
  861MOL0     H13613   8.148  10.663  10.998  0.3335  0.5773 -1.5739
  861MOL0     H13614   8.289  10.861  11.079  1.8196  0.7296  0.0035
  861MOL0     H13615   8.330  11.018  11.266 -0.7219  2.0514  1.8112
  861MOL0     H13616   8.151  11.552  11.275  2.0391 -1.4312  0.0258
  861MOL0     H13617   8.206  11.755  11.394 -0.7181 -1.2560 -3.3591
  861MOL0     H13618   8.146  11.917  11.540 -1.3200  1.5130  3.2011
  861MOL0     H13619   8.318  11.916  11.533  0.1402  0.6312 -0.3123
  861MOL0     H13620   8.123  12.000  11.779  1.4359 -2.8531  0.7236
  861MOL0     H13621   8.221  12.101  11.667 -2.0846 -0.4906  0.4271
  861MOL0     H13622   8.431  12.040  11.775 -0.5778  0.7375 -0.9251
  861MOL0     H13623   8.347  11.911  11.865 -0.3107 -0.1433 -2.0771
  861MOL0     H13624   8.348  12.216  11.909  2.9379 -1.6988 -0.2281
  861MOL0     H13625   8.208  12.115  11.963 -1.5321  1.8377 -3.3036
  861MOL0     H13626   8.371  11.983  12.100 -2.1135  1.0757 -0.6938
  861MOL0     H13627   8.374  12.140  12.152  0.3751 -1.2245  1.4625
  861MOL0     H13628   8.561  12.211  12.012  4.7707  0.3406  0.4111
  861MOL0     H13629   8.572  12.033  11.951 -0.8825 -0.7240  0.1561
  861MOL0     H13630   8.579  12.120  12.235 -0.7757 -0.7851 -0.2301
  861MOL0     H13631   8.610  11.959  12.185  0.0068  0.4172  2.5011
  861MOL0     H13632   8.812  12.043  12.242 -0.2064  2.4647  1.2840
  861MOL0     H13633   8.767  12.206  12.162 -0.0947  0.7065  0.4542
  861MOL0     H13634   8.205  11.546  11.761 -1.5720 -0.7074  0.3985
  861MOL0     H13635   8.130  11.335  11.638  0.9487  0.5962 -0.1353
  861MOL0     H13636   7.922  11.161  11.231 -0.6205 -0.4966 -0.8754
  861MOL0     H13637   7.873  10.988  11.080  0.3049 -0.3006 -1.0253
  861MOL0     H13638   6.797  10.353  10.995 -1.0217  1.9253  1.6970
  861MOL0     H13639   6.735  10.134  10.962 -0.7266 -1.3006 -0.7585
  861MOL0     H13640   6.276   9.909  10.988 -0.2247  0.2525  0.9384
  861MOL0     H13641   6.173   9.671  11.005  1.9077 -0.7047  0.8930
  861MOL0     H13642   5.973   9.627  10.647  1.5932  1.3026  1.5032
  861MOL0     H13643   5.906   9.554  10.782 -2.4145 -0.9317 -1.7406
  861MOL0     H13644   5.994   9.320  10.690 -1.0994 -0.3116 -0.0629
  861MOL0     H13645   5.860   9.394  10.603 -0.3404 -0.9667  1.3884
  861MOL0     H13646   6.159   9.436  10.560 -0.1509  0.4850 -1.0896
  861MOL0     H13647   6.043   9.512  10.460  2.3041  0.3175  0.1073
  861MOL0     H13648   6.125   9.315  10.337  0.6820  2.3488  1.1645
  861MOL0     H13649   6.093   9.210  10.480  1.5438  2.1981  1.5217
  861MOL0     H13650   5.731   9.204  10.277 -0.1346 -3.2497  0.9244
  861MOL0     H13651   6.257   9.633  10.586 -1.8334 -0.5170  0.2705
  861MOL0     H13652   6.394   9.823  10.588 -1.1496  0.3539 -0.7842
  862MOL0     O13653   7.740   3.408  10.107 -0.5289 -0.6917  0.3469
  862MOL0     C13654   7.725   3.282  10.095  0.1365 -0.9065 -0.4849
  862MOL0     O13655   7.814   3.185  10.120 -0.2307  0.1655  0.3485
  862MOL0     C13656   7.939   3.225  10.148 -1.4810 -0.1849 -0.2917
  862MOL0     C13657   8.033   3.243  10.047  0.0790  0.0958 -0.3786
  862MOL0     C13658   8.157   3.270  10.073 -0.3915 -0.1849  0.6186
  862MOL0     C13659   8.200   3.306  10.200 -0.8468  0.4098 -0.3774
  862MOL0     O13660   8.324   3.351  10.234  0.0962  0.6303  0.0929
  862MOL0     C13661   8.432   3.294  10.157 -0.1869  0.3375  0.8586
  862MOL0     C13662   8.567   3.328  10.226  0.1132  0.0712  1.1982
  862MOL0     C13663   8.686   3.349  10.139 -0.8570  1.2866 -0.2905
  862MOL0     C13664   8.680   3.482  10.067 -0.0565 -0.6665  0.6950
  862MOL0     C13665   8.815   3.541  10.026 -0.4311  0.1478  0.3681
  862MOL0     C13666   8.819   3.679   9.960  0.0721 -0.4102  0.2527
  862MOL0     C13667   8.971   3.728   9.953 -0.1643  0.1682  0.2930
  862MOL0     C13668   8.981   3.862   9.885  0.0557 -0.1044  0.5462
  862MOL0     N13669   9.116   3.928   9.905  0.1006  0.2545  0.2807
  862MOL0     C13670   9.235   3.897   9.831  0.5802  0.5358 -0.2877
  862MOL0     C13671   9.330   3.979   9.884 -0.5418 -0.7909 -0.1776
  862MOL0     C13672   9.477   3.994   9.839  0.5530  0.5363  0.8294
  862MOL0     C13673   9.482   4.056   9.698  0.2308 -0.3674  0.4264
  862MOL0     C13674   9.615   4.084   9.642 -0.1138  0.4684 -0.3142
  862MOL0     C13675   9.711   4.183   9.723  1.3502 -0.0872  0.5472
  862MOL0     O13676   9.820   4.222   9.632 -0.9597 -0.3713 -0.0263
  862MOL0     C13677   9.945   4.227   9.681  0.0695  0.7657 -0.2926
  862MOL0     C13678  10.042   4.153   9.612  0.0875 -0.2296  0.3264
  862MOL0     C13679  10.176   4.159   9.652  0.0985  1.1827 -0.2111
  862MOL0     C13680  10.219   4.223   9.766 -0.4865  0.6862 -0.4846
  862MOL0     C13681  10.366   4.250   9.799 -0.9835  0.1278 -0.3990
  862MOL0     O13682  10.456   4.174   9.733 -0.1133 -0.5360 -0.0517
  862MOL0     C13683  10.591   4.194   9.759  0.8186 -0.3247 -0.5776
  862MOL0     C13684  10.638   4.229   9.887 -0.1111 -0.0972  0.3080
  862MOL0     C13685  10.772   4.261   9.889 -0.7311 -0.2154  0.0379
  862MOL0     C13686  10.858   4.252   9.772 -0.1880  0.3367  0.8379
  862MOL0     O13687  10.994   4.298   9.778  1.0519  0.2184 -0.4266
  862MOL0     C13688  11.069   4.261   9.896  0.3177  0.3802 -0.2785
  862MOL0     C13689  11.221   4.264   9.890 -0.2862  0.5172 -0.1732
  862MOL0     C13690  11.282   4.162   9.792  0.2623  0.2398 -0.3283
  862MOL0     C13691  11.434   4.186   9.782  0.5967  1.3256 -0.5322
  862MOL0     C13692  11.479   4.141   9.642 -0.3521 -0.3680 -0.4039
  862MOL0     C13693  11.500   3.993   9.621  0.4058 -0.3270  0.4640
  862MOL0     C13694  11.585   3.971   9.490 -0.2065  0.2528 -0.1556
  862MOL0     C13695  11.630   3.822   9.455 -0.0439 -0.3648 -0.1470
  862MOL0    Cl13696  11.635   3.820   9.274  0.0993 -0.2777  0.1882
  862MOL0     C13697  10.798   4.233   9.644 -0.8357  0.7711 -0.5904
  862MOL0     C13698  10.665   4.202   9.643  0.9066 -0.5452 -0.7792
  862MOL0     O13699  10.390   4.348   9.867 -0.6237 -0.7189 -0.3379
  862MOL0     C13700  10.118   4.301   9.829 -1.1184  0.1192 -0.0377
  862MOL0     C13701   9.986   4.300   9.790  0.3216 -0.5295  0.4570
  862MOL0     N13702   9.273   4.056   9.982 -0.6228 -0.0775  0.1995
  862MOL0     N13703   9.142   4.030   9.987 -0.3119 -0.1135 -0.6357
  862MOL0     C13704   8.114   3.298  10.309  0.8784 -0.3841  0.5489
  862MOL0     C13705   7.980   3.263  10.273  0.4191 -0.4989  0.0343
  862MOL0     C13706   7.585   3.236  10.076  0.3169  0.1646  0.4252
  862MOL0     C13707   7.477   3.320  10.030 -0.3973  0.0692  0.2646
  862MOL0     C13708   7.352   3.261  10.007 -0.3101 -0.5793  0.3674
  862MOL0     C13709   7.330   3.123  10.028 -0.7071 -0.2728 -0.1491
  862MOL0     O13710   7.204   3.079  10.007  0.3084  0.7395 -0.7081
  862MOL0     C13711   7.171   2.949  10.064  0.0834  0.1019  0.5817
  862MOL0     C13712   7.025   2.908  10.058 -0.2047  0.9550  0.0493
  862MOL0     C13713   6.932   3.004  10.134  1.3389 -0.3131 -0.2936
  862MOL0     C13714   6.784   2.994  10.103  0.7024  0.5976  0.3781
  862MOL0     C13715   6.723   2.855  10.117 -0.1380  0.5806  0.3196
  862MOL0     C13716   6.666   2.742  10.112  0.4928 -0.0850 -0.2856
  862MOL0     C13717   7.440   3.037  10.059  0.2061 -0.1947  0.7533
  862MOL0     C13718   7.567   3.093  10.088  0.4974  0.0449  1.1458
  862MOL0     H13719   8.015   3.227   9.941 -0.6556 -2.3782  0.0586
  862MOL0     H13720   8.234   3.271   9.997  0.6259  2.2713  1.5860
  862MOL0     H13721   8.430   3.338  10.057 -0.9557  2.1035  1.6064
  862MOL0     H13722   8.420   3.186  10.157  0.4730  0.2414 -0.6659
  862MOL0     H13723   8.579   3.246  10.298 -4.3476 -1.9822 -0.0264
  862MOL0     H13724   8.558   3.409  10.299 -1.5536 -2.0472  3.5523
  862MOL0     H13725   8.693   3.268  10.065  0.4035  1.4821 -0.4112
  862MOL0     H13726   8.777   3.340  10.200 -0.1533 -3.2841 -1.6287
  862MOL0     H13727   8.625   3.465   9.974 -1.9456  1.2662  1.3896
  862MOL0     H13728   8.633   3.563  10.123  1.0341  0.2035  0.3728
  862MOL0     H13729   8.861   3.461   9.967 -1.1593 -1.6487  2.1223
  862MOL0     H13730   8.878   3.545  10.115  3.5074 -2.6015 -1.9374
  862MOL0     H13731   8.757   3.748  10.018  1.5352  1.4912 -0.3339
  862MOL0     H13732   8.793   3.676   9.854  3.4470 -1.0882 -0.6735
  862MOL0     H13733   9.028   3.735  10.046 -2.9203 -0.4211  2.1420
  862MOL0     H13734   9.019   3.660   9.881  0.1824  2.2375 -1.5371
  862MOL0     H13735   8.907   3.928   9.931  0.6079 -1.1912  3.1844
  862MOL0     H13736   8.964   3.857   9.777  2.3790 -3.3898  0.1804
  862MOL0     H13737   9.243   3.830   9.746 -0.4921  0.9681 -0.7410
  862MOL0     H13738   9.521   3.895   9.829  0.1246  0.5014 -1.1681
  862MOL0     H13739   9.539   4.050   9.910 -0.2170 -0.7143  2.5666
  862MOL0     H13740   9.424   4.149   9.691  1.1621  0.1458 -0.6225
  862MOL0     H13741   9.430   3.978   9.642  0.7459  0.3807 -1.1601
  862MOL0     H13742   9.676   3.994   9.633 -0.2704  0.2347  0.8678
  862MOL0     H13743   9.592   4.131   9.545 -1.8888  1.4736  0.5444
  862MOL0     H13744   9.737   4.126   9.813 -1.8826 -0.0899  1.5929
  862MOL0     H13745   9.653   4.270   9.757 -0.9738 -1.8633  1.3873
  862MOL0     H13746  10.024   4.101   9.518 -1.4153 -1.5247  1.2838
  862MOL0     H13747  10.246   4.106   9.589 -2.0219 -0.6456 -1.1641
  862MOL0     H13748  10.588   4.245   9.982  3.9799  0.9124  2.5355
  862MOL0     H13749  10.813   4.311   9.976 -3.1322  1.7555  0.1646
  862MOL0     H13750  11.032   4.165   9.933  0.6457 -0.0750 -1.0899
  862MOL0     H13751  11.042   4.330   9.976 -2.0788 -3.8655  3.0326
  862MOL0     H13752  11.259   4.259   9.993  1.8725 -0.9092 -0.9473
  862MOL0     H13753  11.247   4.369   9.874 -0.1453  1.0814  3.0440
  862MOL0     H13754  11.238   4.159   9.692  1.6253  1.2429 -1.0017
  862MOL0     H13755  11.271   4.060   9.829  1.3011 -1.2919 -3.7596
  862MOL0     H13756  11.454   4.291   9.806 -0.3812  1.1842  1.0278
  862MOL0     H13757  11.481   4.125   9.860 -0.4726  0.4326 -0.5684
  862MOL0     H13758  11.576   4.185   9.617  0.8114 -1.2509  2.2448
  862MOL0     H13759  11.412   4.191   9.571  1.2933  0.9744 -1.0883
  862MOL0     H13760  11.406   3.937   9.610  1.6594 -2.1532 -2.0638
  862MOL0     H13761  11.557   3.937   9.695  0.5031 -1.4372 -0.4129
  862MOL0     H13762  11.526   4.005   9.405 -3.9145  0.8940  2.4585
  862MOL0     H13763  11.673   4.033   9.509 -0.5862  0.8345 -0.2760
  862MOL0     H13764  11.554   3.751   9.491 -0.7673 -1.3946 -3.4092
  862MOL0     H13765  11.726   3.787   9.495  0.2361 -0.3239 -0.7815
  862MOL0     H13766  10.866   4.228   9.559 -0.4267 -3.7913 -0.2495
  862MOL0     H13767  10.602   4.189   9.555 -2.0242 -0.2478  1.1368
  862MOL0     H13768  10.146   4.370   9.908  0.6849 -0.5341 -0.0645
  862MOL0     H13769   9.920   4.353   9.858 -0.4538  1.1611 -1.5134
  862MOL0     H13770   8.149   3.334  10.405 -1.5472  2.0999  0.6222
  862MOL0     H13771   7.902   3.271  10.349 -0.3929  2.5140 -0.9662
  862MOL0     H13772   7.496   3.425  10.010  0.8603 -0.2033 -0.0695
  862MOL0     H13773   7.264   3.319   9.981  0.1456  1.0040  2.1118
  862MOL0     H13774   7.200   2.958  10.169 -1.2320  3.9575  0.7818
  862MOL0     H13775   7.230   2.874  10.011 -1.1071 -0.5117  0.1000
  862MOL0     H13776   6.984   2.897   9.958 -1.6779 -2.3357  0.8918
  862MOL0     H13777   7.032   2.808  10.101 -2.0339  0.4915 -0.6840
  862MOL0     H13778   6.955   3.102  10.091  0.1298  0.1184 -0.0094
  862MOL0     H13779   6.953   3.000  10.241  0.1648  1.7639  0.0652
  862MOL0     H13780   6.732   3.061  10.174 -1.9559 -1.5908  0.6591
  862MOL0     H13781   6.761   3.029  10.003  1.7448  2.9854  0.8953
  862MOL0     H13782   6.600   2.657  10.111 -0.3468  0.5613 -0.4771
  862MOL0     H13783   7.421   2.931  10.074 -2.2111 -0.1908 -1.5985
  862MOL0     H13784   7.650   3.030  10.118  0.0934 -0.3299  1.5107
  863MOL0     O13785   3.783   5.684   5.393  0.6947  0.1981 -0.1864
  863MOL0     C13786   3.810   5.685   5.276 -0.4042  0.5990 -0.4780
  863MOL0     O13787   3.785   5.580   5.194 -0.1861  0.9244 -0.3553
  863MOL0     C13788   3.755   5.457   5.254  0.3655  0.5099 -0.0269
  863MOL0     C13789   3.841   5.348   5.222  0.8206  0.0563 -0.6203
  863MOL0     C13790   3.812   5.219   5.273 -0.5546  0.6041  0.3604
  863MOL0     C13791   3.703   5.201   5.358 -1.0644  0.6928  0.5118
  863MOL0     O13792   3.694   5.083   5.415 -1.0647  0.2340 -0.0633
  863MOL0     C13793   3.585   5.007   5.376 -0.6355  0.2289 -0.7147
  863MOL0     C13794   3.546   4.924   5.500 -0.2554 -0.3931 -0.1295
  863MOL0     C13795   3.481   5.020   5.612 -1.2261  0.6597 -0.1847
  863MOL0     C13796   3.378   4.950   5.704  0.0526 -0.0333 -1.5304
  863MOL0     C13797   3.451   4.841   5.800  0.6140  0.3739  0.8195
  863MOL0     C13798   3.373   4.705   5.804 -0.7074  1.2504  0.2459
  863MOL0     C13799   3.440   4.614   5.909 -0.6961 -0.1546  0.3192
  863MOL0     C13800   3.380   4.474   5.906 -0.9302 -0.1914  0.4064
  863MOL0     N13801   3.238   4.459   5.964  0.0330 -1.0523  0.5032
  863MOL0     C13802   3.150   4.357   5.935 -0.5685  0.5733  0.4510
  863MOL0     C13803   3.024   4.392   5.967  0.5978  0.4143 -0.2919
  863MOL0     C13804   2.912   4.294   5.990 -0.5112 -1.6496  0.2545
  863MOL0     C13805   2.950   4.152   6.030 -0.2454  0.0950  0.2482
  863MOL0     C13806   2.825   4.074   6.066  0.1422 -0.6010 -0.3753
  863MOL0     C13807   2.858   3.922   6.068  0.4389 -0.6603 -0.8158
  863MOL0     O13808   2.747   3.845   6.097 -0.1152  0.1043  0.7678
  863MOL0     C13809   2.681   3.849   6.214 -0.5178  0.2307  0.1552
  863MOL0     C13810   2.542   3.864   6.219  0.6777  0.4233 -0.0889
  863MOL0     C13811   2.478   3.855   6.342  0.2628 -0.2942 -0.2242
  863MOL0     C13812   2.550   3.845   6.466  0.8507 -0.9700  0.3338
  863MOL0     C13813   2.491   3.831   6.607  0.7599 -0.5411 -0.3470
  863MOL0     O13814   2.580   3.822   6.711  0.8155  0.5428 -0.1406
  863MOL0     C13815   2.521   3.813   6.838  0.6265  0.2962  0.3708
  863MOL0     C13816   2.509   3.927   6.913  0.8394  0.4965  0.9172
  863MOL0     C13817   2.455   3.929   7.039  0.5147 -0.2703 -0.3488
  863MOL0     C13818   2.405   3.806   7.096  1.1000 -0.0780  0.0910
  863MOL0     O13819   2.376   3.782   7.231  0.2197 -0.0516  0.0800
  863MOL0     C13820   2.398   3.897   7.310  0.7273  0.4795  0.0898
  863MOL0     C13821   2.403   3.863   7.460  0.6809  0.1857 -0.6087
  863MOL0     C13822   2.266   3.817   7.517 -1.0003  0.5828  0.2801
  863MOL0     C13823   2.262   3.832   7.674  0.2559 -0.3849 -0.6332
  863MOL0     C13824   2.335   3.734   7.754  0.2324 -0.4240 -0.5230
  863MOL0     C13825   2.484   3.781   7.784  0.7486  0.6969  0.3004
  863MOL0     C13826   2.537   3.673   7.877 -0.1807  0.6402 -0.2976
  863MOL0     C13827   2.685   3.664   7.883 -0.7668  0.1162 -0.8098
  863MOL0    Cl13828   2.725   3.813   7.981 -0.2647  0.0721  0.2962
  863MOL0     C13829   2.406   3.689   7.012  0.1595 -0.5592  0.0417
  863MOL0     C13830   2.471   3.691   6.884  0.5182  0.1796 -0.0321
  863MOL0     O13831   2.371   3.857   6.616  0.5461 -0.6600  0.0414
  863MOL0     C13832   2.688   3.834   6.451  0.0460 -0.1867 -0.5768
  863MOL0     C13833   2.755   3.842   6.329  0.1199  0.6567  0.6003
  863MOL0     N13834   3.029   4.524   5.999 -0.3916 -1.1522 -0.3771
  863MOL0     N13835   3.153   4.561   6.004  0.6149  0.4848 -0.2368
  863MOL0     C13836   3.631   5.308   5.400  0.1007 -0.1481  0.4140
  863MOL0     C13837   3.645   5.432   5.339 -0.1342 -0.0941 -0.2581
  863MOL0     C13838   3.886   5.806   5.228 -0.2955  0.5612  0.2741
  863MOL0     C13839   3.897   5.929   5.301  0.3137 -0.3196  0.1252
  863MOL0     C13840   3.980   6.034   5.257 -0.5792 -0.5013  1.6989
  863MOL0     C13841   4.046   6.022   5.131 -0.4005 -0.6590 -0.3832
  863MOL0     O13842   4.105   6.137   5.077 -0.2182  0.5868  0.1910
  863MOL0     C13843   4.213   6.132   4.980  0.3609  0.1570  0.5636
  863MOL0     C13844   4.174   6.193   4.851 -0.0083 -0.7090  0.2013
  863MOL0     C13845   4.269   6.141   4.740  0.6611  0.2113 -0.4781
  863MOL0     C13846   4.250   6.198   4.610 -0.1054 -0.1550 -0.4693
  863MOL0     C13847   4.124   6.148   4.545  0.0312  0.4052 -0.6952
  863MOL0     C13848   4.015   6.117   4.498 -0.1093 -1.1317 -0.0088
  863MOL0     C13849   4.032   5.908   5.058 -0.0052 -1.3616  0.7361
  863MOL0     C13850   3.956   5.803   5.108 -0.0583 -0.4020 -0.4775
  863MOL0     H13851   3.921   5.374   5.152 -0.3485  0.7653 -1.7423
  863MOL0     H13852   3.872   5.129   5.272  1.1505  1.6782  1.0516
  863MOL0     H13853   3.616   4.945   5.292  1.0069  1.2616 -0.9229
  863MOL0     H13854   3.496   5.066   5.353 -0.1605  0.0132 -3.4591
  863MOL0     H13855   3.626   4.865   5.546 -3.4955 -4.9876  0.3817
  863MOL0     H13856   3.463   4.861   5.466  0.2457 -0.1455 -1.8637
  863MOL0     H13857   3.421   5.092   5.555  1.9067  2.1162 -1.9507
  863MOL0     H13858   3.562   5.062   5.674  1.6230 -3.3893 -0.7862
  863MOL0     H13859   3.330   5.033   5.758 -1.0827 -0.9606 -1.0843
  863MOL0     H13860   3.311   4.894   5.638 -2.8072  1.1305  0.1929
  863MOL0     H13861   3.451   4.885   5.900 -1.4655 -1.3001  1.6353
  863MOL0     H13862   3.550   4.820   5.757  1.1043 -0.9599  2.4780
  863MOL0     H13863   3.380   4.655   5.707 -2.7882 -1.4156  1.3174
  863MOL0     H13864   3.267   4.710   5.833 -0.6502  3.2620  0.2637
  863MOL0     H13865   3.547   4.603   5.890 -1.2099 -0.2552 -3.1942
  863MOL0     H13866   3.422   4.658   6.007 -0.9715 -1.1279  0.7264
  863MOL0     H13867   3.460   4.417   5.954  1.4635  1.1596 -1.7172
  863MOL0     H13868   3.393   4.442   5.803  0.0345 -4.0086  1.5631
  863MOL0     H13869   3.186   4.259   5.903  0.4893 -0.0507  3.3123
  863MOL0     H13870   2.871   4.284   5.889  1.0907 -2.2935 -0.3609
  863MOL0     H13871   2.844   4.335   6.065  0.6226  1.7004 -0.4213
  863MOL0     H13872   3.010   4.145   6.121 -0.2944 -1.4543  0.1944
  863MOL0     H13873   3.000   4.106   5.943 -1.6737  2.2825 -1.8555
  863MOL0     H13874   2.795   4.109   6.165  1.5651  3.7913 -1.2855
  863MOL0     H13875   2.754   4.102   5.988  0.1949  1.0750  0.1415
  863MOL0     H13876   2.934   3.912   6.147 -0.0211  1.6201 -0.0056
  863MOL0     H13877   2.899   3.897   5.969  2.7857  1.8410 -0.5978
  863MOL0     H13878   2.488   3.860   6.124 -0.1771 -0.3751  0.4128
  863MOL0     H13879   2.371   3.846   6.350  0.1470 -0.1768 -1.5296
  863MOL0     H13880   2.541   4.025   6.878  3.1309 -0.4157  0.2679
  863MOL0     H13881   2.469   4.023   7.091  2.6762  0.0944 -1.5057
  863MOL0     H13882   2.318   3.970   7.298 -1.2034 -1.3208  1.2951
  863MOL0     H13883   2.490   3.951   7.286 -0.4092  2.3796 -0.1801
  863MOL0     H13884   2.440   3.953   7.511 -1.3205  0.0357  1.2145
  863MOL0     H13885   2.478   3.783   7.462  1.3966  0.7799 -1.9366
  863MOL0     H13886   2.256   3.708   7.515  0.8564  0.3992 -1.3458
  863MOL0     H13887   2.187   3.869   7.463 -4.0873 -1.2058  2.7092
  863MOL0     H13888   2.303   3.931   7.692  1.0154 -0.1436 -3.2888
  863MOL0     H13889   2.156   3.815   7.695  0.1478 -2.2396 -2.3673
  863MOL0     H13890   2.338   3.638   7.703  3.1044  0.2498 -1.8286
  863MOL0     H13891   2.276   3.729   7.846 -0.7375 -0.1128 -1.1187
  863MOL0     H13892   2.486   3.882   7.824 -0.1840 -0.4981  3.6715
  863MOL0     H13893   2.547   3.773   7.695 -1.0621 -1.9839 -0.8782
  863MOL0     H13894   2.511   3.696   7.981  1.2870 -0.0770  0.2477
  863MOL0     H13895   2.484   3.581   7.850 -0.0798  0.7232 -0.7763
  863MOL0     H13896   2.724   3.664   7.781  3.1522 -0.1490  0.5406
  863MOL0     H13897   2.703   3.565   7.927 -0.4607  0.7460  0.5340
  863MOL0     H13898   2.361   3.594   7.039 -0.6731 -0.3956 -0.7159
  863MOL0     H13899   2.481   3.602   6.822  1.9386  0.8328 -0.8083
  863MOL0     H13900   2.750   3.812   6.538 -1.2958  1.0692  0.7481
  863MOL0     H13901   2.862   3.830   6.323  0.1045 -0.2510  1.7779
  863MOL0     H13902   3.549   5.304   5.471  1.7045 -0.1140  2.3417
  863MOL0     H13903   3.575   5.508   5.374 -4.4932 -2.9258 -1.9244
  863MOL0     H13904   3.844   5.943   5.394 -0.3305 -1.0385 -0.1227
  863MOL0     H13905   4.010   6.128   5.303  0.7701 -0.6187  1.1041
  863MOL0     H13906   4.243   6.030   4.956  1.9554  0.8298 -0.4419
  863MOL0     H13907   4.304   6.170   5.027 -1.5987  4.2100  1.5631
  863MOL0     H13908   4.072   6.172   4.817 -0.0805 -1.1033  0.6474
  863MOL0     H13909   4.183   6.301   4.866 -2.3147  0.0269 -2.7676
  863MOL0     H13910   4.261   6.032   4.730 -2.2271  0.2175  0.9352
  863MOL0     H13911   4.378   6.146   4.752  0.7370  0.1358 -1.0564
  863MOL0     H13912   4.240   6.307   4.612 -2.6672 -0.3212  1.5572
  863MOL0     H13913   4.328   6.173   4.537 -0.6179  3.2778 -2.3725
  863MOL0     H13914   3.914   6.097   4.468 -0.2533  1.0474 -1.1306
  863MOL0     H13915   4.071   5.899   4.957 -1.1110 -0.0897  0.1616
  863MOL0     H13916   3.953   5.705   5.062 -2.5732 -1.4947  1.7356
  864MOL0     O13917   7.616   6.924   9.960  0.5410 -0.0417  0.7999
  864MOL0     C13918   7.595   7.049   9.945 -0.9296  0.8120  0.0307
  864MOL0     O13919   7.608   7.141  10.045  0.4625  0.0128  0.0338
  864MOL0     C13920   7.657   7.097  10.165  0.4161  0.5248 -0.0083
  864MOL0     C13921   7.583   7.069  10.284 -0.1175 -0.1854 -0.3058
  864MOL0     C13922   7.633   7.029  10.397 -0.3666 -0.6756 -1.0986
  864MOL0     C13923   7.770   7.037  10.415  0.8885  0.2676  0.1080
  864MOL0     O13924   7.819   7.014  10.546 -0.1560  0.0787  0.0848
  864MOL0     C13925   7.921   7.102  10.594 -0.6351  0.2210  0.6729
  864MOL0     C13926   7.959   7.075  10.746  0.4051  0.6029  0.4218
  864MOL0     C13927   8.020   7.196  10.810  0.7886 -0.5408  0.3958
  864MOL0     C13928   8.174   7.172  10.830 -0.0295  0.3349 -0.1655
  864MOL0     C13929   8.243   7.301  10.887 -0.0453 -0.0738  0.7059
  864MOL0     C13930   8.400   7.289  10.911 -0.4930  0.1851 -0.4299
  864MOL0     C13931   8.471   7.427  10.942  0.8801 -0.9483  0.2663
  864MOL0     C13932   8.628   7.415  10.964 -0.8929 -0.3311 -0.4419
  864MOL0     N13933   8.673   7.375  11.100  0.4093  0.4286 -0.1317
  864MOL0     C13934   8.611   7.274  11.177  0.0128  0.1066  0.4734
  864MOL0     C13935   8.676   7.289  11.301  0.3788  0.0944  0.2649
  864MOL0     C13936   8.624   7.232  11.425 -0.4369 -0.3135 -0.0824
  864MOL0     C13937   8.714   7.142  11.515  0.4252 -0.3587 -0.0691
  864MOL0     C13938   8.849   7.194  11.569  0.1748 -0.0319  0.5232
  864MOL0     C13939   8.840   7.310  11.668  0.1536  0.4112  0.6687
  864MOL0     O13940   8.837   7.270  11.805  1.1635  0.3911  0.0904
  864MOL0     C13941   8.944   7.266  11.895  0.5354  1.1591 -0.0306
  864MOL0     C13942   9.067   7.320  11.856 -0.7870 -0.6135 -0.2826
  864MOL0     C13943   9.175   7.324  11.952 -0.3135 -0.8220 -0.1345
  864MOL0     C13944   9.156   7.263  12.081 -1.1971  0.3333  1.3290
  864MOL0     C13945   9.269   7.242  12.179 -0.1080 -0.3673 -0.8837
  864MOL0     O13946   9.243   7.200  12.303  0.6640  0.2135 -0.1310
  864MOL0     C13947   9.347   7.172  12.388 -0.9153  0.5620  0.5307
  864MOL0     C13948   9.454   7.259  12.423 -0.3535 -0.2200  0.2596
  864MOL0     C13949   9.565   7.222  12.496  0.2011 -0.3794  0.3218
  864MOL0     C13950   9.583   7.090  12.537  0.9397 -0.0679  0.7003
  864MOL0     O13951   9.697   7.061  12.609  0.1088  0.0959 -0.3392
  864MOL0     C13952   9.698   6.958  12.712 -0.2330 -0.0717  0.1578
  864MOL0     C13953   9.812   6.999  12.801  0.0928 -0.2293  0.0825
  864MOL0     C13954   9.775   7.111  12.904 -0.1015  0.6374  0.2215
  864MOL0     C13955   9.894   7.150  12.991  0.1727  0.2043  0.0367
  864MOL0     C13956   9.849   7.171  13.136 -0.4356  0.8857  0.3911
  864MOL0     C13957   9.774   7.310  13.149  1.2584 -0.4423 -0.2032
  864MOL0     C13958   9.776   7.371  13.288  0.7928  0.0424 -1.0791
  864MOL0     C13959   9.718   7.513  13.292  0.4457 -0.4313 -0.5817
  864MOL0    Cl13960   9.539   7.489  13.318  0.4657  0.2615 -0.2889
  864MOL0     C13961   9.480   6.995  12.507  0.2948 -0.3374 -0.0159
  864MOL0     C13962   9.367   7.036  12.421  0.3613  0.1712 -0.3490
  864MOL0     O13963   9.380   7.269  12.134 -0.0467  0.3433  0.3545
  864MOL0     C13964   9.026   7.223  12.114 -0.2828  0.2556 -0.0795
  864MOL0     C13965   8.917   7.230  12.028  0.0053 -0.2012 -0.1567
  864MOL0     N13966   8.775   7.378  11.285 -0.4623 -0.7227  0.1179
  864MOL0     N13967   8.770   7.441  11.172  0.2627  0.2905 -0.4976
  864MOL0     C13968   7.850   7.070  10.309 -0.3597  0.3641  0.0762
  864MOL0     C13969   7.793   7.089  10.179 -0.3411 -1.4780 -0.2948
  864MOL0     C13970   7.563   7.094   9.811 -0.2386 -0.3576  0.7318
  864MOL0     C13971   7.506   7.217   9.786  0.2027  0.2517 -0.8650
  864MOL0     C13972   7.469   7.262   9.653  1.8084 -0.7424  0.4307
  864MOL0     C13973   7.490   7.173   9.539  0.2722  0.4807 -0.0213
  864MOL0     O13974   7.458   7.183   9.407  0.4089  0.0070 -0.7797
  864MOL0     C13975   7.365   7.281   9.382  0.2805 -0.9005 -0.5478
  864MOL0     C13976   7.321   7.260   9.236 -0.2942 -0.2505  0.0062
  864MOL0     C13977   7.405   7.322   9.118 -0.1670  0.6026 -0.5106
  864MOL0     C13978   7.552   7.333   9.146  0.4464 -0.6723  0.2096
  864MOL0     C13979   7.627   7.395   9.037 -0.2903 -0.2158  0.2762
  864MOL0     C13980   7.681   7.439   8.937  0.1481  0.0950 -0.1977
  864MOL0     C13981   7.553   7.054   9.572  0.5757 -0.0554 -0.0122
  864MOL0     C13982   7.596   7.017   9.701 -0.8523 -0.3530 -0.8293
  864MOL0     H13983   7.478   7.080  10.259 -0.1539  2.2718  0.6768
  864MOL0     H13984   7.578   7.015  10.489  1.5589  0.3371  0.2673
  864MOL0     H13985   7.871   7.200  10.595  1.4079  1.3129  1.4018
  864MOL0     H13986   8.011   7.108  10.532 -2.6912 -2.6594 -2.9620
  864MOL0     H13987   8.016   6.985  10.769  1.6414  1.3230  0.2243
  864MOL0     H13988   7.862   7.069  10.798  0.9930 -1.7002  1.3491
  864MOL0     H13989   7.986   7.204  10.914  0.9726  0.0334  0.4135
  864MOL0     H13990   8.016   7.289  10.752  3.8404 -0.2304  0.5015
  864MOL0     H13991   8.192   7.099  10.909 -2.5811 -0.3282 -0.1062
  864MOL0     H13992   8.222   7.136  10.738  2.7459  1.1754  0.8282
  864MOL0     H13993   8.197   7.314  10.986 -3.3578  2.1597 -0.9455
  864MOL0     H13994   8.221   7.385  10.820  0.0375 -0.6041  0.0057
  864MOL0     H13995   8.449   7.246  10.823  1.5187  0.4400  0.5068
  864MOL0     H13996   8.417   7.223  10.996  0.9360  1.0520 -0.0056
  864MOL0     H13997   8.456   7.496  10.858 -0.1700 -1.7509 -0.2402
  864MOL0     H13998   8.430   7.456  11.039  1.7424  0.1908  0.3134
  864MOL0     H13999   8.666   7.514  10.938 -0.9992 -0.1835 -0.0375
  864MOL0     H14000   8.656   7.341  10.888 -0.1226 -0.4792 -0.0222
  864MOL0     H14001   8.525   7.210  11.165  2.0489 -2.2437 -4.7541
  864MOL0     H14002   8.535   7.180  11.388 -0.0038  0.0288 -1.6752
  864MOL0     H14003   8.594   7.320  11.485  0.6447 -0.8178  1.2559
  864MOL0     H14004   8.736   7.054  11.454 -0.5633  1.1740 -2.8511
  864MOL0     H14005   8.650   7.121  11.601  0.0742 -0.9701 -0.4784
  864MOL0     H14006   8.908   7.106  11.595 -0.8093 -1.8546 -2.8837
  864MOL0     H14007   8.915   7.226  11.488 -1.0587 -0.0434 -0.5277
  864MOL0     H14008   8.763   7.387  11.655  2.6966  2.8435 -1.4711
  864MOL0     H14009   8.926   7.378  11.661 -0.3025  1.0297  0.9658
  864MOL0     H14010   9.092   7.339  11.751 -0.9215  0.7239 -0.0981
  864MOL0     H14011   9.271   7.350  11.908 -0.8402 -2.7066 -2.6329
  864MOL0     H14012   9.449   7.363  12.393 -3.0590 -0.7751 -1.5618
  864MOL0     H14013   9.648   7.284  12.529  0.8962 -0.4793 -1.1379
  864MOL0     H14014   9.719   6.864  12.658 -0.7040 -1.6363  2.5368
  864MOL0     H14015   9.600   6.954  12.758 -1.1392  1.7957 -1.4864
  864MOL0     H14016   9.900   7.028  12.742  3.0416  4.0342  5.6051
  864MOL0     H14017   9.844   6.915  12.864  1.5239 -0.7423 -1.2438
  864MOL0     H14018   9.683   7.080  12.955 -0.9137  3.0963  0.3781
  864MOL0     H14019   9.745   7.197  12.843 -0.1829  0.3925 -0.0866
  864MOL0     H14020   9.964   7.067  12.977  0.3934  0.8359 -3.4522
  864MOL0     H14021   9.936   7.247  12.963 -1.7424  0.8188 -0.9053
  864MOL0     H14022   9.934   7.181  13.204  0.2064 -1.0401 -0.0541
  864MOL0     H14023   9.786   7.088  13.169  0.1806  1.4466  3.2401
  864MOL0     H14024   9.672   7.310  13.108  0.7909  0.9584  0.8474
  864MOL0     H14025   9.827   7.380  13.083 -0.1797 -1.3627 -2.4365
  864MOL0     H14026   9.715   7.313  13.358 -0.6208 -0.9249 -3.0023
  864MOL0     H14027   9.881   7.374  13.317  0.4056 -0.0980  0.4051
  864MOL0     H14028   9.729   7.573  13.201 -2.2892  0.3064 -0.5252
  864MOL0     H14029   9.758   7.563  13.381  1.3126  2.1213 -2.2841
  864MOL0     H14030   9.499   6.892  12.535  0.6674 -0.3287 -0.2327
  864MOL0     H14031   9.297   6.961  12.386  0.6233 -0.6464  0.8332
  864MOL0     H14032   9.014   7.184  12.215 -2.6900  0.5147 -0.1965
  864MOL0     H14033   8.815   7.209  12.059  0.9015 -1.9682  1.8291
  864MOL0     H14034   7.955   7.048  10.320 -0.4599  0.4984  1.6532
  864MOL0     H14035   7.856   7.105  10.092  0.3397 -3.8048 -0.3055
  864MOL0     H14036   7.465   7.277   9.867 -0.0571 -2.5769  1.2698
  864MOL0     H14037   7.449   7.366   9.629 -2.8472 -1.4435  0.3347
  864MOL0     H14038   7.411   7.380   9.384 -1.0789 -0.2376 -1.1248
  864MOL0     H14039   7.270   7.273   9.436 -2.4493  1.3554 -4.4625
  864MOL0     H14040   7.321   7.152   9.220 -0.2534 -0.0904 -1.1631
  864MOL0     H14041   7.217   7.294   9.227  0.3302  1.3081 -2.5779
  864MOL0     H14042   7.375   7.427   9.114  1.3690  1.3883  3.3711
  864MOL0     H14043   7.385   7.283   9.018 -0.2887  2.0160 -1.0621
  864MOL0     H14044   7.571   7.406   9.226 -1.9278  2.0792 -1.5258
  864MOL0     H14045   7.589   7.234   9.172 -2.3267 -1.9166 -0.2138
  864MOL0     H14046   7.728   7.488   8.854 -1.2199 -0.6974 -1.4853
  864MOL0     H14047   7.562   6.980   9.493  1.0315  1.3089 -1.2859
  864MOL0     H14048   7.631   6.914   9.706 -0.6606 -0.2618 -0.1343
  865MOL0     O14049   6.682   4.450   1.084 -0.1253 -0.0115 -0.7586
  865MOL0     C14050   6.717   4.342   1.041 -0.9872  0.5271 -0.6488
  865MOL0     O14051   6.638   4.258   0.972  0.1507  0.5208  0.0952
  865MOL0     C14052   6.502   4.281   0.973  0.1343  0.0471 -0.3854
  865MOL0     C14053   6.416   4.221   1.070  0.8243 -0.3944  0.6252
  865MOL0     C14054   6.281   4.239   1.057 -0.1143 -0.0743  0.1489
  865MOL0     C14055   6.221   4.322   0.961 -0.1165  0.8566 -0.0886
  865MOL0     O14056   6.081   4.326   0.961 -0.1669  0.2166  0.9479
  865MOL0     C14057   6.009   4.422   0.893  0.3511 -0.4211 -0.7137
  865MOL0     C14058   5.859   4.426   0.930 -1.0536 -0.6991  0.4334
  865MOL0     C14059   5.787   4.537   0.858 -0.2830 -0.3203  0.2468
  865MOL0     C14060   5.655   4.556   0.929  0.2219  0.3672  0.3160
  865MOL0     C14061   5.573   4.661   0.859 -0.5057  0.7200  0.1522
  865MOL0     C14062   5.433   4.668   0.932  1.5443  0.1725 -0.4516
  865MOL0     C14063   5.331   4.724   0.837  0.0396  0.2356  0.3830
  865MOL0     C14064   5.254   4.840   0.892 -0.2520  0.5749 -0.2827
  865MOL0     N14065   5.138   4.881   0.816  0.6242  0.8635 -0.0648
  865MOL0     C14066   5.119   4.864   0.679  0.0378  0.0594 -0.2162
  865MOL0     C14067   5.009   4.943   0.655 -0.3116 -0.1117 -0.2786
  865MOL0     C14068   4.939   4.944   0.517 -0.2063  0.5935  0.0329
  865MOL0     C14069   4.894   4.795   0.471  0.3876  0.7495  0.4036
  865MOL0     C14070   4.814   4.714   0.581  0.4703 -0.0383 -0.3927
  865MOL0     C14071   4.673   4.768   0.626 -0.5584 -1.2015 -0.1519
  865MOL0     O14072   4.595   4.647   0.637 -0.5771 -0.1264  0.4637
  865MOL0     C14073   4.474   4.659   0.692  0.2504  1.0147  0.2355
  865MOL0     C14074   4.441   4.747   0.798  0.4709 -0.1879  0.6329
  865MOL0     C14075   4.316   4.753   0.842  0.9629 -0.2185 -0.9402
  865MOL0     C14076   4.222   4.652   0.809  0.0849  0.6073  1.0471
  865MOL0     C14077   4.101   4.630   0.882  0.3464  0.6725 -0.4601
  865MOL0     O14078   4.042   4.503   0.867  0.7667  0.1092 -0.0715
  865MOL0     C14079   3.910   4.501   0.895 -0.9217 -0.2416  0.7417
  865MOL0     C14080   3.861   4.381   0.948 -0.4543 -0.8598  0.4363
  865MOL0     C14081   3.722   4.362   0.962 -0.2500  0.3874 -0.1137
  865MOL0     C14082   3.636   4.459   0.931  0.0231  0.5015  0.2123
  865MOL0     O14083   3.497   4.441   0.946  0.0894  0.0373 -0.4136
  865MOL0     C14084   3.410   4.550   0.948 -0.8042 -0.0449 -0.4347
  865MOL0     C14085   3.274   4.531   1.006  0.4779  0.8788 -0.2559
  865MOL0     C14086   3.171   4.457   0.915  0.1384  0.4670 -0.3029
  865MOL0     C14087   3.066   4.396   1.002 -0.0798  0.0865  0.1359
  865MOL0     C14088   2.949   4.341   0.927 -0.0455 -0.1711 -0.6069
  865MOL0     C14089   2.832   4.304   1.019  0.5005 -0.5274  0.2034
  865MOL0     C14090   2.716   4.235   0.945  0.6133  0.8276  0.4849
  865MOL0     C14091   2.627   4.161   1.050  0.0955  0.0284 -0.2973
  865MOL0    Cl14092   2.494   4.096   0.949  0.0349  0.0009 -0.3136
  865MOL0     C14093   3.685   4.584   0.882 -0.0567  0.2450 -0.4665
  865MOL0     C14094   3.824   4.603   0.864 -0.3314  1.1092  0.6233
  865MOL0     O14095   4.072   4.713   0.968 -0.3737  0.0419  0.2425
  865MOL0     C14096   4.251   4.569   0.704  0.2036 -0.0126  0.1266
  865MOL0     C14097   4.377   4.573   0.646 -0.7384 -1.1151 -0.3632
  865MOL0     N14098   4.966   4.991   0.776  0.2165  0.4774  0.5072
  865MOL0     N14099   5.035   4.946   0.877 -0.1494  0.8713  0.9536
  865MOL0     C14100   6.309   4.381   0.875  0.7997 -0.1974  0.3147
  865MOL0     C14101   6.451   4.367   0.876  0.7666 -0.1234 -1.2102
  865MOL0     C14102   6.858   4.301   1.041  0.3445 -1.3098 -0.2032
  865MOL0     C14103   6.889   4.168   1.088  0.1585 -0.0421 -0.2457
  865MOL0     C14104   7.025   4.124   1.105 -0.4555  0.4214 -0.7376
  865MOL0     C14105   7.122   4.222   1.102 -0.8898  0.3309 -1.3131
  865MOL0     O14106   7.251   4.173   1.121 -0.4892  0.0941 -0.0710
  865MOL0     C14107   7.364   4.260   1.131  1.0328 -0.1415 -0.0113
  865MOL0     C14108   7.487   4.183   1.188 -0.7086 -0.6364 -0.5643
  865MOL0     C14109   7.470   4.155   1.338 -0.8244 -1.1027 -0.3640
  865MOL0     C14110   7.531   4.019   1.380  0.2157 -0.4186 -0.7368
  865MOL0     C14111   7.678   4.029   1.387  0.5573  0.0694  0.8759
  865MOL0     C14112   7.796   4.045   1.399 -0.5006  0.0327  0.9846
  865MOL0     C14113   7.096   4.355   1.052 -0.5591  0.0643 -0.2377
  865MOL0     C14114   6.967   4.393   1.022  0.3886 -0.9075 -0.4834
  865MOL0     H14115   6.450   4.151   1.146 -3.0482 -3.2868  0.0256
  865MOL0     H14116   6.229   4.186   1.137  0.8811 -0.5640  0.4892
  865MOL0     H14117   6.019   4.395   0.788  2.7585 -3.7299  0.2097
  865MOL0     H14118   6.051   4.518   0.922 -1.0692  0.1287 -0.3884
  865MOL0     H14119   5.853   4.442   1.038 -0.1808 -2.7207  0.8278
  865MOL0     H14120   5.812   4.330   0.904  1.3176 -1.1896 -2.5794
  865MOL0     H14121   5.775   4.517   0.751  0.8335 -0.3241  0.1110
  865MOL0     H14122   5.841   4.632   0.858 -0.1102 -0.4173  0.2732
  865MOL0     H14123   5.591   4.467   0.933 -2.3424  2.0094 -0.9831
  865MOL0     H14124   5.674   4.586   1.032 -1.7241  0.4653  0.6874
  865MOL0     H14125   5.552   4.628   0.757  0.3295 -0.3429  0.3019
  865MOL0     H14126   5.621   4.759   0.861 -0.4201  0.6897 -0.3889
  865MOL0     H14127   5.449   4.730   1.021  2.0173 -1.9010  0.9779
  865MOL0     H14128   5.384   4.577   0.967 -0.1008  0.2345 -2.4104
  865MOL0     H14129   5.377   4.769   0.748 -1.1344  1.4224  0.3372
  865MOL0     H14130   5.254   4.652   0.807  1.2630 -1.0051  0.1062
  865MOL0     H14131   5.315   4.928   0.910 -1.3561  1.0956  1.1147
  865MOL0     H14132   5.219   4.814   0.992  0.9194 -0.9937 -0.2298
  865MOL0     H14133   5.166   4.788   0.618 -1.5413  0.3171 -1.8297
  865MOL0     H14134   5.004   4.993   0.444  1.4059  0.1792  1.1174
  865MOL0     H14135   4.842   4.994   0.531 -1.3534 -0.9811 -1.8552
  865MOL0     H14136   4.981   4.729   0.457  1.1068  1.4975  1.2391
  865MOL0     H14137   4.841   4.798   0.375  2.8676 -1.2907 -1.2016
  865MOL0     H14138   4.812   4.611   0.542  1.9441 -1.1997  2.2759
  865MOL0     H14139   4.876   4.709   0.671 -0.8901 -0.0308  0.5666
  865MOL0     H14140   4.641   4.827   0.539 -0.9976 -1.7636 -0.3792
  865MOL0     H14141   4.688   4.829   0.715  2.6535  1.8788 -2.4888
  865MOL0     H14142   4.512   4.824   0.826 -1.5467  2.7914 -1.7736
  865MOL0     H14143   4.287   4.822   0.920  0.1815  0.7838 -2.0713
  865MOL0     H14144   3.923   4.297   0.980  0.7487  0.6997  2.5047
  865MOL0     H14145   3.692   4.265   1.001  0.2071  0.4490  0.4108
  865MOL0     H14146   3.393   4.598   0.851 -2.6404  2.7108  1.1044
  865MOL0     H14147   3.450   4.628   1.013  0.9335  0.0136 -1.5181
  865MOL0     H14148   3.234   4.631   1.026 -0.8972  0.2435  0.3076
  865MOL0     H14149   3.282   4.483   1.104 -0.0114  1.9060  0.3083
  865MOL0     H14150   3.220   4.381   0.853 -1.3024 -0.3662 -0.4558
  865MOL0     H14151   3.122   4.515   0.836 -0.2548 -2.4880 -2.3751
  865MOL0     H14152   3.120   4.321   1.061  1.7205  1.4057  0.2310
  865MOL0     H14153   3.019   4.476   1.060  2.5048  3.4270 -2.0407
  865MOL0     H14154   2.986   4.249   0.880  0.5871 -1.8478  2.8680
  865MOL0     H14155   2.917   4.407   0.846  3.2705 -0.1039 -2.0416
  865MOL0     H14156   2.792   4.398   1.059  0.6186 -0.0757 -0.7227
  865MOL0     H14157   2.871   4.244   1.102  0.7479 -1.8841 -0.8575
  865MOL0     H14158   2.663   4.310   0.886  1.3975  2.7671  2.1465
  865MOL0     H14159   2.744   4.161   0.869 -0.6528  0.5052  0.3172
  865MOL0     H14160   2.585   4.238   1.115 -3.2431  0.2096 -2.4313
  865MOL0     H14161   2.680   4.082   1.105  0.6975 -0.5567 -1.6795
  865MOL0     H14162   3.620   4.666   0.854 -2.6305 -1.0680  1.2911
  865MOL0     H14163   3.873   4.691   0.823  2.2808 -0.4191  0.2504
  865MOL0     H14164   4.177   4.496   0.674  0.1595 -0.5995  1.5972
  865MOL0     H14165   4.410   4.508   0.565  2.3953 -1.0174  0.6827
  865MOL0     H14166   6.284   4.461   0.806  0.7169 -0.8611 -0.4366
  865MOL0     H14167   6.517   4.422   0.808  1.4724  2.5568  1.4253
  865MOL0     H14168   6.819   4.088   1.110  0.4840  0.0804  1.3122
  865MOL0     H14169   7.031   4.022   1.139 -2.4413 -0.3409 -2.4426
  865MOL0     H14170   7.334   4.334   1.206 -1.0429 -1.1278  0.2223
  865MOL0     H14171   7.394   4.297   1.033 -2.1301  0.1836 -0.9672
  865MOL0     H14172   7.499   4.086   1.139 -0.0772 -1.9852  2.0795
  865MOL0     H14173   7.574   4.245   1.167  0.0463 -2.3463 -2.8754
  865MOL0     H14174   7.363   4.136   1.349 -0.4597 -2.0400  1.9143
  865MOL0     H14175   7.505   4.238   1.400 -0.5008 -1.1127 -0.5270
  865MOL0     H14176   7.488   4.001   1.479 -1.3358 -0.2236 -1.3372
  865MOL0     H14177   7.499   3.941   1.310  1.8568  1.4242 -3.7697
  865MOL0     H14178   7.902   4.055   1.411  0.2062 -3.8371 -0.7190
  865MOL0     H14179   7.179   4.424   1.052 -0.3147 -0.1456  2.0993
  865MOL0     H14180   6.953   4.495   0.986 -1.1674 -1.5323 -1.7352
  866MOL0     O14181   0.115   2.582   4.115 -0.1092 -0.5150 -0.3649
  866MOL0     C14182   0.142   2.669   4.030 -0.0005 -0.4449 -0.1149
  866MOL0     O14183   0.265   2.708   3.978 -0.0080 -0.1709  0.0858
  866MOL0     C14184   0.381   2.659   4.035  0.9586  0.8890  0.0584
  866MOL0     C14185   0.485   2.653   3.946  0.1086 -0.3055  0.9034
  866MOL0     C14186   0.612   2.609   3.980  0.2813  0.1945  0.0058
  866MOL0     C14187   0.635   2.557   4.114 -0.1405  0.8702  0.0378
  866MOL0     O14188   0.754   2.506   4.136 -0.6498 -0.0493 -0.2091
  866MOL0     C14189   0.801   2.484   4.271  0.2234 -0.3088 -0.5031
  866MOL0     C14190   0.951   2.456   4.266 -0.6432 -0.0999 -0.2240
  866MOL0     C14191   1.005   2.437   4.413  0.4367  1.0112 -0.1445
  866MOL0     C14192   1.152   2.409   4.398 -0.2609  0.3522  0.5326
  866MOL0     C14193   1.222   2.366   4.532  0.1928 -0.1457 -0.5129
  866MOL0     C14194   1.348   2.284   4.500 -0.2077 -0.2646 -0.8675
  866MOL0     C14195   1.408   2.251   4.637  0.5405 -0.8313 -0.2299
  866MOL0     C14196   1.545   2.178   4.629  0.1267  0.6103  0.5680
  866MOL0     N14197   1.646   2.187   4.737 -0.1995  0.5319  0.6840
  866MOL0     C14198   1.687   2.309   4.777  0.2957 -0.8330 -0.7501
  866MOL0     C14199   1.739   2.295   4.905 -0.4803 -1.1371 -0.6609
  866MOL0     C14200   1.799   2.415   4.978  0.3929  1.1308  0.1497
  866MOL0     C14201   1.930   2.474   4.915 -0.4291 -0.3624 -0.2360
  866MOL0     C14202   2.044   2.377   4.938  0.1706  0.5138  0.1808
  866MOL0     C14203   2.179   2.423   4.894  0.0223 -0.1401  0.0730
  866MOL0     O14204   2.273   2.319   4.935 -0.3540 -0.2955 -0.1390
  866MOL0     C14205   2.406   2.354   4.954 -0.2300  0.6791 -0.6186
  866MOL0     C14206   2.449   2.489   4.957 -0.2280  0.1657  0.5560
  866MOL0     C14207   2.589   2.523   4.971  0.5272  0.0424  0.1417
  866MOL0     C14208   2.684   2.413   4.997  0.0373 -0.2968 -0.2202
  866MOL0     C14209   2.828   2.444   5.014  0.2027  0.0593 -0.2443
  866MOL0     O14210   2.864   2.572   5.027  0.3919  0.1427  0.0172
  866MOL0     C14211   2.999   2.597   5.019 -0.1369 -0.1028 -0.2420
  866MOL0     C14212   3.071   2.612   5.139 -0.0127 -0.2365  0.0336
  866MOL0     C14213   3.213   2.638   5.131 -0.4135 -0.9856 -0.1421
  866MOL0     C14214   3.275   2.675   5.009 -0.7710 -0.8810  0.0785
  866MOL0     O14215   3.406   2.724   5.005  0.2161 -0.2968 -0.9321
  866MOL0     C14216   3.486   2.751   5.121  0.4740  0.1395 -0.3214
  866MOL0     C14217   3.619   2.833   5.093 -0.1049  0.0004 -0.1933
  866MOL0     C14218   3.594   2.962   5.018 -0.2386 -0.0765  0.0616
  866MOL0     C14219   3.725   3.025   4.959  0.0740 -0.9047  0.5529
  866MOL0     C14220   3.714   3.173   4.918 -0.2995  0.5888  0.4924
  866MOL0     C14221   3.830   3.230   4.829  1.2653 -0.6696 -0.2124
  866MOL0     C14222   3.969   3.248   4.892  0.4290  0.0463  1.0088
  866MOL0     C14223   4.073   3.332   4.813  0.4662 -0.0504  0.0757
  866MOL0    Cl14224   4.053   3.500   4.839  0.4053 -0.1092 -0.1977
  866MOL0     C14225   3.200   2.667   4.897  0.0247  0.0270  0.1754
  866MOL0     C14226   3.068   2.628   4.897  1.3197  0.2406 -0.5315
  866MOL0     O14227   2.909   2.353   5.022  0.2046 -0.3604 -0.2827
  866MOL0     C14228   2.628   2.279   4.993 -0.2181  0.1098  0.5220
  866MOL0     C14229   2.493   2.254   4.966 -1.0867 -0.8178 -0.4888
  866MOL0     N14230   1.734   2.164   4.936  0.2754  0.1109 -0.1342
  866MOL0     N14231   1.670   2.101   4.838  0.3628  0.2607 -0.4687
  866MOL0     C14232   0.526   2.556   4.207 -0.5828 -0.0242  0.5256
  866MOL0     C14233   0.401   2.603   4.167  0.5414 -0.7842 -0.1251
  866MOL0     C14234   0.024   2.750   3.990 -0.0633  0.9184  0.0402
  866MOL0     C14235  -0.107   2.743   4.039  0.9415  1.0365  0.2146
  866MOL0     C14236  -0.208   2.827   3.995 -0.1165 -0.0439  0.8423
  866MOL0     C14237  -0.186   2.916   3.890  0.1917 -0.0281  0.6762
  866MOL0     O14238  -0.293   2.984   3.840 -0.0639  0.6971 -0.0280
  866MOL0     C14239  -0.268   3.126   3.839 -0.1442 -0.6991 -0.4572
  866MOL0     C14240  -0.247   3.176   3.982 -0.4126 -1.1808 -0.1056
  866MOL0     C14241  -0.361   3.165   4.077 -0.2263  0.4138  0.2393
  866MOL0     C14242  -0.488   3.249   4.033  0.3796  0.3204  0.0164
  866MOL0     C14243  -0.481   3.394   4.031 -0.6432 -0.6237  0.9160
  866MOL0     C14244  -0.469   3.512   3.995  0.2383  0.9856 -0.3556
  866MOL0     C14245  -0.059   2.928   3.838 -1.0773  0.7018  0.3275
  866MOL0     C14246   0.045   2.847   3.890 -0.2568  0.1788 -0.1366
  866MOL0     H14247   0.460   2.668   3.842  2.4608 -7.7316 -1.3728
  866MOL0     H14248   0.692   2.613   3.906  1.4373  0.9880  1.2300
  866MOL0     H14249   0.757   2.400   4.326 -1.3416  1.2408  0.7880
  866MOL0     H14250   0.790   2.571   4.338  4.3833  0.5926 -0.7150
  866MOL0     H14251   0.999   2.541   4.216 -2.9422  1.7216  0.4757
  866MOL0     H14252   0.961   2.366   4.205  0.9487  1.1352 -1.9042
  866MOL0     H14253   0.954   2.352   4.457 -1.3078  3.1243  2.1948
  866MOL0     H14254   0.990   2.519   4.484  0.4718  0.3325  0.6563
  866MOL0     H14255   1.166   2.330   4.323  3.6595 -2.7856  4.0429
  866MOL0     H14256   1.208   2.500   4.375  2.8063  0.3144  6.1126
  866MOL0     H14257   1.161   2.318   4.609  2.3562  1.6830  2.5374
  866MOL0     H14258   1.251   2.464   4.571  1.4697 -1.7718  3.0229
  866MOL0     H14259   1.406   2.338   4.426 -0.1229 -1.6288 -1.8353
  866MOL0     H14260   1.333   2.187   4.451  0.4019 -0.2434 -1.1018
  866MOL0     H14261   1.413   2.344   4.695  0.9982 -0.5988 -0.6370
  866MOL0     H14262   1.350   2.183   4.700  0.0786 -1.2862 -1.1311
  866MOL0     H14263   1.597   2.219   4.542 -0.7695  1.7290  0.5405
  866MOL0     H14264   1.524   2.072   4.612  0.8133  0.7967 -1.7221
  866MOL0     H14265   1.689   2.407   4.730 -1.8199 -0.8076 -0.8656
  866MOL0     H14266   1.824   2.386   5.080  2.7495  5.0307  0.9072
  866MOL0     H14267   1.729   2.499   4.985  1.9395  2.3936  1.1077
  866MOL0     H14268   1.958   2.570   4.960  3.0799 -0.2465 -2.3417
  866MOL0     H14269   1.921   2.497   4.809 -0.9411  1.9728  0.2565
  866MOL0     H14270   2.049   2.348   5.043 -5.0715  0.5876  0.6925
  866MOL0     H14271   2.022   2.280   4.892  0.9169  0.6743 -0.5470
  866MOL0     H14272   2.189   2.526   4.930 -1.7706 -0.0010  0.2312
  866MOL0     H14273   2.170   2.432   4.786  1.5537 -1.1336 -0.1705
  866MOL0     H14274   2.378   2.570   4.943 -0.5312 -0.5163 -2.6569
  866MOL0     H14275   2.620   2.627   4.964 -4.0361  1.6768  0.9940
  866MOL0     H14276   3.008   2.595   5.225 -0.5972  0.0073 -0.3433
  866MOL0     H14277   3.260   2.622   5.227 -0.3797  1.1065  0.2320
  866MOL0     H14278   3.498   2.655   5.171 -5.4933 -0.6271  0.3838
  866MOL0     H14279   3.431   2.818   5.187  3.2050  0.6122  1.6688
  866MOL0     H14280   3.694   2.781   5.032 -0.7054 -0.4945 -0.5244
  866MOL0     H14281   3.670   2.847   5.189  1.5020  0.4191 -1.0629
  866MOL0     H14282   3.548   3.031   5.089  1.8172  1.7529 -0.2938
  866MOL0     H14283   3.517   2.960   4.940  0.1497 -1.1714 -0.3112
  866MOL0     H14284   3.786   3.015   5.049  1.0096  0.1229  0.0563
  866MOL0     H14285   3.775   2.969   4.879  0.8448  1.1063 -0.4381
  866MOL0     H14286   3.701   3.229   5.011 -0.5373  0.6595  0.4178
  866MOL0     H14287   3.619   3.174   4.864  1.4142 -2.4138 -3.0610
  866MOL0     H14288   3.794   3.332   4.808  1.6145  0.2776  3.2622
  866MOL0     H14289   3.836   3.166   4.740  2.9340 -1.2407  0.2787
  866MOL0     H14290   3.961   3.281   4.996 -1.1505 -0.7887  1.1860
  866MOL0     H14291   4.019   3.151   4.902  0.4904 -0.1262 -0.6378
  866MOL0     H14292   4.064   3.325   4.704 -1.0954  0.4325  0.1437
  866MOL0     H14293   4.174   3.304   4.846  0.4621 -0.1368  0.0133
  866MOL0     H14294   3.255   2.703   4.810 -1.6558  3.4835  0.3688
  866MOL0     H14295   3.019   2.626   4.800 -0.4955 -0.4955  0.3530
  866MOL0     H14296   2.682   2.185   4.993 -1.4016 -0.5971  0.1602
  866MOL0     H14297   2.457   2.152   4.963 -1.4429 -0.7024 -0.2262
  866MOL0     H14298   0.534   2.497   4.298 -0.3994 -1.9182 -0.6591
  866MOL0     H14299   0.338   2.601   4.256  2.8489 -1.4806  1.5804
  866MOL0     H14300  -0.137   2.667   4.110 -0.0125  1.4763  0.3033
  866MOL0     H14301  -0.311   2.813   4.027 -0.7286  1.2056 -0.4821
  866MOL0     H14302  -0.354   3.183   3.803  0.1456  0.6505  0.9004
  866MOL0     H14303  -0.182   3.163   3.782  1.2127 -1.1842  1.1892
  866MOL0     H14304  -0.166   3.115   4.023 -0.1995 -0.9088 -0.1265
  866MOL0     H14305  -0.212   3.279   3.984 -3.1473 -0.1110  3.6658
  866MOL0     H14306  -0.323   3.203   4.172  2.4899 -1.1276 -0.1185
  866MOL0     H14307  -0.385   3.059   4.091  1.4850  0.0065  0.3335
  866MOL0     H14308  -0.533   3.217   3.939  1.1854  1.3915 -0.7547
  866MOL0     H14309  -0.567   3.228   4.106 -1.7848 -2.3463 -2.8644
  866MOL0     H14310  -0.449   3.617   3.985 -1.6375  1.2835 -1.3402
  866MOL0     H14311  -0.031   2.997   3.759 -0.1262 -2.9373 -2.7972
  866MOL0     H14312   0.145   2.857   3.850 -0.6963 -2.6653 -2.3441
  867MOL0     O14313   1.872   9.543  10.032 -0.2231 -0.7345  0.8370
  867MOL0     C14314   1.969   9.612  10.010  0.5952 -0.1721 -0.2137
  867MOL0     O14315   2.090   9.570   9.948  0.3136 -0.0132  0.3487
  867MOL0     C14316   2.110   9.440   9.938 -0.3743  0.1585  0.5799
  867MOL0     C14317   2.035   9.358   9.857  0.2988  0.5478 -0.1984
  867MOL0     C14318   2.065   9.228   9.825 -1.3899  0.5790 -0.2501
  867MOL0     C14319   2.177   9.156   9.882  0.3273 -0.2460 -0.1890
  867MOL0     O14320   2.177   9.027   9.854 -0.2314  0.2868 -0.8276
  867MOL0     C14321   2.265   8.946   9.939  0.5386  0.0298 -0.0852
  867MOL0     C14322   2.415   8.950   9.903  0.4601  0.3471  0.6663
  867MOL0     C14323   2.451   8.890   9.766  0.3816 -0.7531 -0.4158
  867MOL0     C14324   2.388   8.756   9.726  1.3227 -0.2829 -0.0414
  867MOL0     C14325   2.429   8.646   9.820  0.9400 -0.7876 -0.2177
  867MOL0     C14326   2.569   8.579   9.793  0.4447  0.3869  0.5526
  867MOL0     C14327   2.566   8.439   9.845  0.3661 -0.7840  0.7207
  867MOL0     C14328   2.515   8.346   9.733  0.1301 -0.8781 -0.4367
  867MOL0     N14329   2.461   8.221   9.780 -0.0542  0.2612 -0.4718
  867MOL0     C14330   2.527   8.097   9.790  0.1455  0.8474 -0.2911
  867MOL0     C14331   2.419   8.016   9.801  0.4177 -0.6838  0.2035
  867MOL0     C14332   2.419   7.867   9.790 -0.5312  0.4462  0.2988
  867MOL0     C14333   2.347   7.794   9.910  0.2361 -0.4664  0.1027
  867MOL0     C14334   2.376   7.642   9.922 -0.0722 -0.4428 -0.6263
  867MOL0     C14335   2.342   7.553   9.794 -0.4714  0.1219 -0.4376
  867MOL0     O14336   2.228   7.483   9.829  0.4161  0.4301 -0.6529
  867MOL0     C14337   2.240   7.347   9.859 -1.6202 -0.0806  0.1341
  867MOL0     C14338   2.212   7.285   9.987 -0.3208 -0.5247  0.2663
  867MOL0     C14339   2.223   7.148  10.002 -0.5115 -0.0281 -0.5912
  867MOL0     C14340   2.280   7.066   9.906 -0.2241 -0.8218 -0.4087
  867MOL0     C14341   2.284   6.919   9.926  0.7279  0.2922  0.0624
  867MOL0     O14342   2.258   6.877  10.054  0.2365  0.4122  0.4768
  867MOL0     C14343   2.252   6.742  10.091  0.8043 -0.4816  0.3456
  867MOL0     C14344   2.350   6.693  10.167 -0.1704 -0.3264 -0.9266
  867MOL0     C14345   2.352   6.560  10.198 -0.5249  1.2003 -0.0301
  867MOL0     C14346   2.247   6.475  10.158 -0.6328 -0.0625  1.0864
  867MOL0     O14347   2.244   6.336  10.177  0.0245  0.7098 -0.0942
  867MOL0     C14348   2.324   6.280  10.292  0.3314  0.0022  0.5183
  867MOL0     C14349   2.294   6.128  10.293 -0.4170  0.1098 -0.2331
  867MOL0     C14350   2.375   6.055  10.405 -0.1743  0.0704  0.1643
  867MOL0     C14351   2.357   5.911  10.378  1.2857  0.0641  0.5212
  867MOL0     C14352   2.406   5.835  10.499  0.9977 -0.1412 -0.3918
  867MOL0     C14353   2.393   5.686  10.463  0.1473 -0.3532  0.1324
  867MOL0     C14354   2.401   5.591  10.586 -0.2487 -0.3949 -1.1427
  867MOL0     C14355   2.380   5.440  10.548  0.2976 -0.0142 -0.0706
  867MOL0    Cl14356   2.352   5.339  10.684 -0.1339 -0.0792  0.3160
  867MOL0     C14357   2.148   6.525  10.082  0.8383  1.3059 -0.0648
  867MOL0     C14358   2.146   6.664  10.052 -0.1213 -0.1330 -0.2414
  867MOL0     O14359   2.307   6.850   9.832 -1.0500  0.0771  0.1568
  867MOL0     C14360   2.325   7.130   9.790  1.1010 -0.3070 -0.7132
  867MOL0     C14361   2.302   7.264   9.765  0.5872  0.0452 -0.1237
  867MOL0     N14362   2.293   8.078   9.812 -0.2260 -0.4505  0.0613
  867MOL0     N14363   2.320   8.203   9.795  0.8150 -0.2713 -0.0710
  867MOL0     C14364   2.254   9.237   9.970  0.1564 -0.2148 -0.0583
  867MOL0     C14365   2.231   9.381   9.987 -0.7115  0.4070 -0.2784
  867MOL0     C14366   1.952   9.763  10.035  0.7009 -0.0293 -0.7837
  867MOL0     C14367   2.051   9.858  10.003  1.0713  0.2319  0.4727
  867MOL0     C14368   2.028   9.996  10.016 -0.1724 -0.6124 -0.5838
  867MOL0     C14369   1.930  10.037  10.104 -0.1530 -0.6668  0.4188
  867MOL0     O14370   1.935  10.170  10.147 -0.0038  0.6044 -0.2364
  867MOL0     C14371   1.815  10.211  10.217 -0.0872  0.5069  0.5810
  867MOL0     C14372   1.838  10.354  10.255 -1.1810 -0.2214  0.1228
  867MOL0     C14373   1.719  10.400  10.352  0.1915  0.8005 -0.0259
  867MOL0     C14374   1.775  10.441  10.487  0.7843  0.2152 -0.0726
  867MOL0     C14375   1.810  10.581  10.474  0.0758 -0.2953 -0.4514
  867MOL0     C14376   1.848  10.699  10.454  0.7041 -0.3712  0.8718
  867MOL0     C14377   1.837   9.940  10.150 -1.1266 -0.1059  0.2987
  867MOL0     C14378   1.849   9.803  10.117 -0.1257  0.0696 -0.3552
  867MOL0     H14379   1.948   9.404   9.810  0.7634  0.7083 -0.9281
  867MOL0     H14380   2.004   9.170   9.757 -0.0857  1.7474 -2.5313
  867MOL0     H14381   2.239   8.840   9.932  0.0875  0.2474 -3.6242
  867MOL0     H14382   2.260   8.969  10.046  0.6790 -0.1647 -0.0361
  867MOL0     H14383   2.466   8.875   9.964  2.1396 -0.6203 -1.7604
  867MOL0     H14384   2.456   9.050   9.919  0.9935 -0.0112  1.6413
  867MOL0     H14385   2.559   8.874   9.770  0.6080  0.6709 -0.2500
  867MOL0     H14386   2.421   8.970   9.697  0.9883  1.3224  1.5999
  867MOL0     H14387   2.278   8.759   9.731  1.1142 -1.6206 -2.3501
  867MOL0     H14388   2.429   8.726   9.629  2.7792 -1.4292  0.8920
  867MOL0     H14389   2.355   8.568   9.798 -0.0880  0.5501 -1.6875
  867MOL0     H14390   2.418   8.670   9.926  0.4173 -1.6910 -0.0543
  867MOL0     H14391   2.639   8.636   9.854  2.4824 -0.4497 -0.8847
  867MOL0     H14392   2.618   8.582   9.695  2.5880 -1.7194  1.4510
  867MOL0     H14393   2.664   8.405   9.877  0.2752 -2.6621 -0.7893
  867MOL0     H14394   2.496   8.439   9.929  0.3073  0.4014  0.6825
  867MOL0     H14395   2.581   8.327   9.648 -0.3590 -0.3721 -0.9421
  867MOL0     H14396   2.429   8.377   9.672 -0.1811 -0.9682 -0.0493
  867MOL0     H14397   2.629   8.067   9.766  0.0010 -0.5680  0.7540
  867MOL0     H14398   2.524   7.836   9.797 -0.7639 -0.5457 -0.2678
  867MOL0     H14399   2.378   7.839   9.692 -1.7438 -0.9589  1.1661
  867MOL0     H14400   2.240   7.812   9.901  0.0721 -1.2801  0.3175
  867MOL0     H14401   2.364   7.845  10.004 -0.3379 -2.5371  1.4099
  867MOL0     H14402   2.485   7.636   9.928 -0.0766  0.2995  0.6167
  867MOL0     H14403   2.333   7.597  10.012 -2.2871 -5.4315 -3.7517
  867MOL0     H14404   2.433   7.494   9.780  1.8768  3.0917  1.0158
  867MOL0     H14405   2.323   7.601   9.698 -4.9254 -1.6470 -0.6839
  867MOL0     H14406   2.165   7.341  10.067 -0.2489 -0.9237  0.5908
  867MOL0     H14407   2.190   7.102  10.095 -0.3220 -2.1167 -1.4978
  867MOL0     H14408   2.418   6.760  10.219 -1.9191 -0.5705  1.9387
  867MOL0     H14409   2.419   6.516  10.271 -2.1333 -0.8223  0.3232
  867MOL0     H14410   2.286   6.327  10.383 -3.6390  1.2857 -1.5671
  867MOL0     H14411   2.431   6.297  10.278  1.0711 -2.7867  2.0613
  867MOL0     H14412   2.337   6.095  10.198 -0.3923  0.5954 -0.3945
  867MOL0     H14413   2.188   6.104  10.291  0.4656 -5.0986  1.2141
  867MOL0     H14414   2.344   6.077  10.507  0.3827 -1.4470  0.6944
  867MOL0     H14415   2.482   6.080  10.404 -0.8131  3.2467  1.2985
  867MOL0     H14416   2.253   5.888  10.355  1.4899 -0.8193  0.4469
  867MOL0     H14417   2.405   5.872  10.287 -0.4185 -1.0019  0.0367
  867MOL0     H14418   2.347   5.859  10.587 -2.2542 -2.0455 -1.8782
  867MOL0     H14419   2.508   5.871  10.516  0.4364  1.7729 -0.9224
  867MOL0     H14420   2.480   5.675  10.399  1.4778  2.0809  1.3585
  867MOL0     H14421   2.313   5.671  10.391  0.7530  0.7948 -0.8147
  867MOL0     H14422   2.494   5.599  10.643 -0.5320 -3.0223 -0.1359
  867MOL0     H14423   2.323   5.629  10.653  0.9851 -0.1859  0.2242
  867MOL0     H14424   2.466   5.395  10.498  1.9905  3.8263 -0.9801
  867MOL0     H14425   2.294   5.444  10.480  1.2018 -0.9188 -1.3065
  867MOL0     H14426   2.076   6.451  10.049  0.3218  1.6796  0.2090
  867MOL0     H14427   2.070   6.708   9.988 -0.4403  0.5812  0.6062
  867MOL0     H14428   2.372   7.069   9.713 -0.3144  0.5460 -2.3421
  867MOL0     H14429   2.328   7.311   9.670 -0.0754  2.2971  0.7411
  867MOL0     H14430   2.351   9.210  10.010  0.6584  2.1540  0.5145
  867MOL0     H14431   2.289   9.449  10.049 -0.5010 -0.7928  0.8712
  867MOL0     H14432   2.143   9.832   9.950  2.3727  1.5061  1.9993
  867MOL0     H14433   2.090  10.071   9.968  0.1883 -0.2896  0.3597
  867MOL0     H14434   1.789  10.152  10.305  1.9548  1.4985  1.9154
  867MOL0     H14435   1.731  10.194  10.149  0.1370 -0.3130  0.5008
  867MOL0     H14436   1.936  10.376  10.298 -0.6287 -1.0476 -0.7034
  867MOL0     H14437   1.817  10.417  10.168  0.8201  1.9965  1.1158
  867MOL0     H14438   1.660  10.309  10.368 -0.5760  1.3187  0.1156
  867MOL0     H14439   1.660  10.477  10.302  0.1149  1.0577  0.4535
  867MOL0     H14440   1.693  10.429  10.559 -0.4617 -0.9478 -1.6149
  867MOL0     H14441   1.853  10.375  10.523 -1.1612 -1.2316  1.7541
  867MOL0     H14442   1.895  10.789  10.418  2.0479 -0.0049  3.2658
  867MOL0     H14443   1.753   9.962  10.215 -1.9211 -0.5372 -0.5643
  867MOL0     H14444   1.763   9.742  10.143  1.0596 -2.0831 -1.2658
  868MOL0     O14445   4.240   5.115   2.785 -0.2556 -0.7895  0.0033
  868MOL0     C14446   4.126   5.106   2.833  0.2572 -0.4735  0.5109
  868MOL0     O14447   4.049   4.995   2.851  0.1937 -0.1609  0.6047
  868MOL0     C14448   4.085   4.870   2.813 -0.2771  0.0227  0.0551
  868MOL0     C14449   3.976   4.778   2.819 -0.4215  0.6227  0.2722
  868MOL0     C14450   4.000   4.631   2.792  0.6320  0.9687 -0.6583
  868MOL0     C14451   4.123   4.591   2.747  0.5054  0.6952  0.6283
  868MOL0     O14452   4.155   4.467   2.714  0.0379  0.2061  0.2552
  868MOL0     C14453   4.068   4.379   2.646  0.4073  0.3893 -0.0401
  868MOL0     C14454   4.147   4.311   2.540  0.1505  0.6106  1.0284
  868MOL0     C14455   4.077   4.199   2.474  0.0655 -0.4665 -0.2195
  868MOL0     C14456   4.155   4.140   2.361 -0.2595 -0.2941 -0.3007
  868MOL0     C14457   4.134   3.991   2.331 -0.3175  0.4042  1.0370
  868MOL0     C14458   4.234   3.951   2.223  0.3377  0.4027  0.4561
  868MOL0     C14459   4.286   3.819   2.240  0.0685 -0.8010  0.5636
  868MOL0     C14460   4.402   3.785   2.142  0.3376 -0.3336  0.6937
  868MOL0     N14461   4.384   3.644   2.102 -0.0374 -0.5872  0.6384
  868MOL0     C14462   4.295   3.603   2.014 -0.0154 -0.4270  1.0558
  868MOL0     C14463   4.326   3.474   1.986  0.5246  0.2572  0.3023
  868MOL0     C14464   4.245   3.369   1.896  0.1070 -0.4906 -0.8744
  868MOL0     C14465   4.198   3.245   1.964 -0.6081  0.3651  0.0192
  868MOL0     C14466   4.132   3.125   1.889 -0.2113 -0.4423 -0.1572
  868MOL0     C14467   4.023   3.174   1.788  0.5342 -0.3297  0.6899
  868MOL0     O14468   3.920   3.251   1.853  0.3171 -0.4108  0.0578
  868MOL0     C14469   3.798   3.274   1.784 -1.1705  0.8622  0.5722
  868MOL0     C14470   3.710   3.354   1.852  0.3379  0.1367 -0.4107
  868MOL0     C14471   3.587   3.385   1.803 -0.9153  0.8858  0.0915
  868MOL0     C14472   3.544   3.320   1.677  0.3527 -0.2685 -1.2663
  868MOL0     C14473   3.402   3.339   1.624  0.1816 -0.2920 -0.1482
  868MOL0     O14474   3.294   3.373   1.711  0.1381  0.5319 -0.3919
  868MOL0     C14475   3.174   3.389   1.653  0.3204  0.6190 -1.3516
  868MOL0     C14476   3.139   3.438   1.526 -0.3594 -0.2636  0.6636
  868MOL0     C14477   3.001   3.442   1.492 -0.6998  0.3589  0.5472
  868MOL0     C14478   2.904   3.423   1.586  0.6536 -0.5376  0.0561
  868MOL0     O14479   2.767   3.431   1.543 -0.1583 -0.2682 -0.3338
  868MOL0     C14480   2.651   3.443   1.626  0.0862 -0.2752 -0.3853
  868MOL0     C14481   2.524   3.458   1.542  0.6584 -0.6310 -0.9865
  868MOL0     C14482   2.480   3.331   1.475 -0.0170 -0.3954 -0.7625
  868MOL0     C14483   2.370   3.341   1.371  1.2024  0.4151  0.2695
  868MOL0     C14484   2.267   3.221   1.384  0.3922  0.0660 -1.0386
  868MOL0     C14485   2.183   3.225   1.509 -0.1263  0.1241 -0.1814
  868MOL0     C14486   2.113   3.092   1.523  0.5250 -0.3659 -1.3524
  868MOL0     C14487   2.018   3.101   1.649 -0.2255 -0.4821  0.0358
  868MOL0    Cl14488   2.113   3.102   1.807  0.0246  0.1615 -0.0367
  868MOL0     C14489   2.941   3.390   1.721  0.3931 -1.1972  0.8552
  868MOL0     C14490   3.068   3.368   1.747  0.0631  0.1003  0.2092
  868MOL0     O14491   3.389   3.304   1.506 -1.0284  0.0096  0.4610
  868MOL0     C14492   3.632   3.240   1.608 -0.7899 -0.1514 -0.2323
  868MOL0     C14493   3.760   3.219   1.662 -0.7352  0.6070  0.6292
  868MOL0     N14494   4.445   3.450   2.051 -0.2208 -0.4689 -0.0997
  868MOL0     N14495   4.477   3.553   2.117  0.0102  0.2432 -0.6403
  868MOL0     C14496   4.222   4.690   2.725  0.1367  0.2678 -0.3603
  868MOL0     C14497   4.206   4.820   2.770 -0.4393  0.1540 -0.5065
  868MOL0     C14498   4.076   5.233   2.885 -0.1325  0.4272 -0.9789
  868MOL0     C14499   3.936   5.238   2.916  0.2202 -0.8512 -0.0258
  868MOL0     C14500   3.880   5.359   2.949 -0.2246  0.6949  0.1031
  868MOL0     C14501   3.954   5.476   2.974  0.4150  0.0917  0.3442
  868MOL0     O14502   3.913   5.596   3.024 -0.3242 -0.7518  0.1151
  868MOL0     C14503   3.785   5.601   3.092 -1.0834  1.4303 -0.0315
  868MOL0     C14504   3.749   5.741   3.142  0.6215 -0.2442  0.7107
  868MOL0     C14505   3.619   5.720   3.229  0.1820  0.3077  0.1179
  868MOL0     C14506   3.594   5.847   3.303  0.1171 -0.1485  0.6988
  868MOL0     C14507   3.485   5.811   3.395 -0.5778  0.2358  0.3078
  868MOL0     C14508   3.390   5.788   3.462  0.5516  0.0267 -0.1762
  868MOL0     C14509   4.093   5.460   2.957 -0.3965 -1.0188 -0.0265
  868MOL0     C14510   4.154   5.340   2.919  0.0946 -0.0606 -0.7851
  868MOL0     H14511   3.873   4.793   2.848 -0.5744  0.0440  0.0479
  868MOL0     H14512   3.923   4.556   2.807  0.9478  0.2287 -2.5208
  868MOL0     H14513   3.980   4.433   2.607 -0.3186 -1.1134 -0.5576
  868MOL0     H14514   4.037   4.296   2.709 -0.4153  0.2845 -0.5524
  868MOL0     H14515   4.238   4.273   2.587  1.3793 -1.1074 -2.4554
  868MOL0     H14516   4.180   4.382   2.464  2.6279 -1.6377 -0.1381
  868MOL0     H14517   3.984   4.236   2.430  0.1296 -1.8659 -1.6172
  868MOL0     H14518   4.040   4.130   2.551 -4.2361  0.5581 -1.1138
  868MOL0     H14519   4.140   4.199   2.270  0.4763 -0.3017 -0.4345
  868MOL0     H14520   4.261   4.161   2.379 -0.7754  1.3160  1.1231
  868MOL0     H14521   4.031   3.993   2.294  0.3746  3.3536 -1.0589
  868MOL0     H14522   4.152   3.929   2.420  2.1804 -3.1006 -1.6300
  868MOL0     H14523   4.320   4.019   2.217  2.5404 -2.1552  1.1017
  868MOL0     H14524   4.191   3.950   2.122 -0.3393 -0.7681  0.7433
  868MOL0     H14525   4.328   3.815   2.340  1.7863  1.8519  0.0466
  868MOL0     H14526   4.203   3.750   2.223 -1.4188  1.3957 -2.2561
  868MOL0     H14527   4.505   3.803   2.174 -0.4730  4.0032  1.5402
  868MOL0     H14528   4.389   3.840   2.049  1.5603  1.6590  1.6246
  868MOL0     H14529   4.215   3.661   1.970 -1.6510 -4.2353 -1.4394
  868MOL0     H14530   4.319   3.327   1.828 -0.0840 -2.8653  0.2882
  868MOL0     H14531   4.169   3.414   1.831  0.0585  0.7469  0.0022
  868MOL0     H14532   4.137   3.281   2.047  2.4877  1.4716  1.9911
  868MOL0     H14533   4.284   3.197   2.011  1.2706 -1.8576 -4.9428
  868MOL0     H14534   4.207   3.060   1.843  0.5630 -0.7318  1.4199
  868MOL0     H14535   4.091   3.067   1.973  0.6799 -0.0215  0.5833
  868MOL0     H14536   3.974   3.088   1.742 -0.8556  0.4179  0.7006
  868MOL0     H14537   4.081   3.236   1.720 -0.7198 -1.7403 -1.8126
  868MOL0     H14538   3.750   3.390   1.947 -2.1301  1.8820  0.0733
  868MOL0     H14539   3.515   3.436   1.867 -1.7334 -0.7588  0.5538
  868MOL0     H14540   3.220   3.440   1.454  2.2363 -1.7889  3.3123
  868MOL0     H14541   2.959   3.459   1.394 -2.3579 -0.5985  1.0468
  868MOL0     H14542   2.659   3.526   1.696  0.0265  0.2862 -1.0379
  868MOL0     H14543   2.637   3.351   1.685 -1.6993  1.5409  2.2688
  868MOL0     H14544   2.548   3.532   1.464  1.1934  0.2120 -0.0444
  868MOL0     H14545   2.441   3.498   1.601 -0.4695 -3.3594 -0.5839
  868MOL0     H14546   2.438   3.268   1.554 -3.0077 -0.2600 -2.1190
  868MOL0     H14547   2.565   3.281   1.428  0.0490 -3.1321  1.9347
  868MOL0     H14548   2.318   3.437   1.366 -1.8570 -1.0850  1.1809
  868MOL0     H14549   2.422   3.315   1.278 -0.9980 -0.4681 -0.7958
  868MOL0     H14550   2.321   3.125   1.384  1.6252  0.7331 -1.7032
  868MOL0     H14551   2.205   3.227   1.294  1.2145 -0.9521 -1.7011
  868MOL0     H14552   2.125   3.318   1.499  0.0047  0.3038  0.6609
  868MOL0     H14553   2.237   3.239   1.603 -2.9249  0.0532  1.5501
  868MOL0     H14554   2.041   3.081   1.440 -2.8907  4.3598  0.5407
  868MOL0     H14555   2.180   3.007   1.537 -1.1820 -1.8372 -1.7331
  868MOL0     H14556   1.944   3.021   1.649 -3.8243  2.5727  0.7214
  868MOL0     H14557   1.972   3.199   1.635 -1.5860 -1.0245  0.4669
  868MOL0     H14558   2.864   3.372   1.795 -0.8982 -0.3546 -0.2222
  868MOL0     H14559   3.088   3.352   1.853 -2.3032 -1.0385  0.5482
  868MOL0     H14560   3.596   3.179   1.525 -2.1095 -1.1816  1.0555
  868MOL0     H14561   3.835   3.164   1.606 -3.7630  1.0589 -4.5693
  868MOL0     H14562   4.318   4.657   2.686 -0.6079 -3.6970  0.7540
  868MOL0     H14563   4.295   4.881   2.758  0.8158 -1.8015 -1.9123
  868MOL0     H14564   3.869   5.153   2.909 -1.2731  0.1676  1.3264
  868MOL0     H14565   3.772   5.369   2.954 -0.0886  2.0838  3.9184
  868MOL0     H14566   3.792   5.534   3.179  2.1757  1.3181 -0.2777
  868MOL0     H14567   3.704   5.559   3.032 -2.7306  0.4066  2.7009
  868MOL0     H14568   3.832   5.787   3.197  1.5919  1.0413 -1.6889
  868MOL0     H14569   3.717   5.804   3.059 -2.0979 -0.0077  1.8423
  868MOL0     H14570   3.635   5.635   3.296  2.3879  2.5725  2.7283
  868MOL0     H14571   3.533   5.689   3.169  1.7156 -0.4724 -1.7821
  868MOL0     H14572   3.686   5.879   3.354  1.2772 -1.3056 -0.5628
  868MOL0     H14573   3.543   5.915   3.235  0.7283 -1.3330 -1.0055
  868MOL0     H14574   3.311   5.762   3.531 -1.1625 -0.7980 -2.3389
  868MOL0     H14575   4.156   5.544   2.984 -1.8275  0.5883 -1.4413
  868MOL0     H14576   4.262   5.344   2.912  0.1565  0.8347  0.3501
  869MOL0     O14577   7.498  11.133   5.653 -0.3459 -0.1219 -0.4960
  869MOL0     C14578   7.576  11.224   5.613 -0.2825  0.9770  0.2903
  869MOL0     O14579   7.667  11.296   5.688  0.0426  0.5082  0.1051
  869MOL0     C14580   7.666  11.263   5.822 -0.4853 -0.3739  0.6160
  869MOL0     C14581   7.781  11.205   5.876  0.0514 -0.2672 -0.3423
  869MOL0     C14582   7.797  11.189   6.022 -0.0422  0.0665  0.1403
  869MOL0     C14583   7.694  11.218   6.107 -0.1054 -0.4533 -0.2224
  869MOL0     O14584   7.691  11.176   6.243  0.2503 -0.0278  0.1692
  869MOL0     C14585   7.597  11.072   6.262 -0.1993  0.1509  0.7578
  869MOL0     C14586   7.635  11.000   6.393 -0.8491  0.2189  0.3756
  869MOL0     C14587   7.778  10.953   6.411 -0.3369  0.4165 -0.4021
  869MOL0     C14588   7.856  10.891   6.293 -0.2947 -0.8115  0.4467
  869MOL0     C14589   7.955  10.795   6.360  0.1089  0.9909  0.1508
  869MOL0     C14590   8.021  10.711   6.251 -0.2252 -1.1541  0.7807
  869MOL0     C14591   8.120  10.618   6.327 -0.1729  0.4868 -0.3776
  869MOL0     C14592   8.237  10.688   6.401 -0.2584  0.2970 -0.1911
  869MOL0     N14593   8.358  10.603   6.382 -0.4244 -0.2392  0.4915
  869MOL0     C14594   8.379  10.477   6.442 -0.4293 -0.6161 -0.2521
  869MOL0     C14595   8.495  10.438   6.386 -0.4093 -0.8396 -0.5755
  869MOL0     C14596   8.564  10.311   6.411 -0.3812 -0.0307 -0.1183
  869MOL0     C14597   8.673  10.331   6.510 -0.9916  0.4867  0.1013
  869MOL0     C14598   8.697  10.194   6.578 -0.7053 -0.9478  0.7873
  869MOL0     C14599   8.833  10.199   6.655  0.9774 -0.9705  1.4600
  869MOL0     O14600   8.946  10.163   6.566  0.0038 -0.4270 -0.7233
  869MOL0     C14601   9.060  10.109   6.626  0.2474 -0.0922  1.2774
  869MOL0     C14602   9.077  10.102   6.772  1.2752  0.0377 -0.4392
  869MOL0     C14603   9.184  10.030   6.819 -0.2415 -0.6804 -0.8394
  869MOL0     C14604   9.274   9.964   6.736 -0.4484  0.2070  0.1655
  869MOL0     C14605   9.387   9.882   6.788 -0.4473  0.2786  0.1805
  869MOL0     O14606   9.404   9.886   6.927 -0.4382 -1.2437  0.0428
  869MOL0     C14607   9.502   9.802   6.977 -0.4863  0.0862 -0.5574
  869MOL0     C14608   9.631   9.786   6.919 -0.4296 -0.5201  0.2829
  869MOL0     C14609   9.735   9.721   6.986 -0.1177 -0.7958 -0.5152
  869MOL0     C14610   9.723   9.674   7.111 -0.0329  0.1888 -0.8011
  869MOL0     O14611   9.821   9.612   7.189  0.2747 -0.1064  0.1642
  869MOL0     C14612   9.928   9.556   7.124 -0.5554  0.4164 -0.5712
  869MOL0     C14613   9.886   9.432   7.042 -0.5015 -1.1109  0.0150
  869MOL0     C14614   9.993   9.328   7.038 -0.7486  0.9408 -0.1333
  869MOL0     C14615   9.969   9.207   6.950  0.8679  1.3385  0.5924
  869MOL0     C14616  10.080   9.102   6.936 -1.0608  0.7674 -0.3618
  869MOL0     C14617  10.215   9.163   6.895  0.2051  0.6314  0.2355
  869MOL0     C14618  10.323   9.064   6.902 -0.2739  0.4719  0.7758
  869MOL0     C14619  10.459   9.126   6.930 -0.0874 -0.3710 -0.5356
  869MOL0    Cl14620  10.476   9.139   7.107 -0.1693  0.4611 -0.2349
  869MOL0     C14621   9.596   9.681   7.170 -0.3014 -0.3898  0.3219
  869MOL0     C14622   9.482   9.744   7.111  0.4337 -0.2252 -0.5095
  869MOL0     O14623   9.454   9.811   6.705  0.5052 -0.5715  0.3325
  869MOL0     C14624   9.256   9.982   6.599  0.4058  0.9418  1.0352
  869MOL0     C14625   9.150  10.046   6.540  0.2082  0.7414  0.3130
  869MOL0     N14626   8.540  10.536   6.299  0.5061  0.5511  1.0976
  869MOL0     N14627   8.468  10.640   6.308 -0.1931  0.0849 -0.2679
  869MOL0     C14628   7.585  11.278   6.042 -0.5014 -0.1600 -0.1628
  869MOL0     C14629   7.560  11.298   5.901 -0.0183 -0.3129 -0.3926
  869MOL0     C14630   7.567  11.268   5.467 -0.1768  0.0220  0.4401
  869MOL0     C14631   7.634  11.386   5.428  0.2655 -0.2760  0.6949
  869MOL0     C14632   7.649  11.423   5.293  0.7639 -0.3962  0.1583
  869MOL0     C14633   7.575  11.352   5.198 -0.2065  0.5183  0.1136
  869MOL0     O14634   7.570  11.376   5.059  0.7615 -0.1572  0.2059
  869MOL0     C14635   7.575  11.510   5.029 -0.0744 -1.1734 -0.1133
  869MOL0     C14636   7.429  11.564   5.010  0.0137 -0.9060 -0.5707
  869MOL0     C14637   7.342  11.576   5.142 -0.2595  0.1864  0.0757
  869MOL0     C14638   7.211  11.660   5.130 -0.2293 -0.2784  0.0726
  869MOL0     C14639   7.126  11.676   5.248 -0.2446  0.2316  0.1394
  869MOL0     C14640   7.053  11.682   5.343 -0.4053  0.4413  0.8931
  869MOL0     C14641   7.500  11.236   5.236  0.0909 -1.3850 -0.2448
  869MOL0     C14642   7.494  11.195   5.370  0.1607  0.2083  0.2874
  869MOL0     H14643   7.869  11.188   5.814  0.9250 -2.8862  1.4636
  869MOL0     H14644   7.895  11.150   6.048  1.2040  2.4036 -0.8004
  869MOL0     H14645   7.606  11.003   6.178  2.6626  1.2364  0.0660
  869MOL0     H14646   7.496  11.113   6.257 -0.7832 -1.1957 -4.5423
  869MOL0     H14647   7.563  10.918   6.390 -3.5964  2.5134 -1.6141
  869MOL0     H14648   7.607  11.057   6.483  1.9482  0.3504  1.2520
  869MOL0     H14649   7.759  10.876   6.486 -0.3159  0.1057 -0.7109
  869MOL0     H14650   7.835  11.038   6.451 -1.2789  1.1732 -0.6403
  869MOL0     H14651   7.788  10.844   6.221 -2.0397  0.2571  1.3330
  869MOL0     H14652   7.910  10.975   6.248 -0.6616  0.0104  1.4979
  869MOL0     H14653   7.907  10.725   6.429 -1.0130  1.9910  0.4148
  869MOL0     H14654   8.020  10.854   6.426 -0.5135  0.2810  1.4403
  869MOL0     H14655   8.079  10.763   6.175 -0.4287  1.6345  2.4189
  869MOL0     H14656   7.942  10.658   6.197 -1.9301  0.1049  1.9338
  869MOL0     H14657   8.064  10.551   6.394 -0.0597 -3.2441 -3.6412
  869MOL0     H14658   8.169  10.552   6.255 -0.9417 -1.8832  1.1502
  869MOL0     H14659   8.208  10.702   6.506  1.8227  0.1515  0.4575
  869MOL0     H14660   8.256  10.787   6.360 -3.9454  1.9602  1.5851
  869MOL0     H14661   8.303  10.430   6.504 -2.5555  0.8208 -1.6224
  869MOL0     H14662   8.603  10.261   6.322 -1.3789 -0.9910 -0.0301
  869MOL0     H14663   8.489  10.240   6.446  0.2787 -0.5271  0.3313
  869MOL0     H14664   8.646  10.409   6.582 -1.8807 -0.8643  1.2749
  869MOL0     H14665   8.765  10.367   6.463 -0.4832  3.5102  3.0056
  869MOL0     H14666   8.608  10.168   6.635 -2.4793 -3.2049 -2.6604
  869MOL0     H14667   8.710  10.128   6.492 -2.4864  1.1778 -1.2557
  869MOL0     H14668   8.817  10.134   6.742 -0.0730  0.9636  2.7746
  869MOL0     H14669   8.844  10.301   6.693 -3.1558  0.6230 -0.9935
  869MOL0     H14670   9.018  10.157   6.846 -1.9851 -4.3797  0.6692
  869MOL0     H14671   9.201  10.006   6.924 -0.5932 -1.3837 -0.9405
  869MOL0     H14672   9.664   9.831   6.826  0.5742 -3.4397 -0.8996
  869MOL0     H14673   9.839   9.724   6.956 -0.0554 -1.3532 -0.3636
  869MOL0     H14674   9.993   9.524   7.206 -2.3326 -2.3075 -0.0815
  869MOL0     H14675   9.980   9.636   7.071  0.6148  0.2469  0.2743
  869MOL0     H14676   9.863   9.456   6.938 -0.6475 -2.1595 -0.2033
  869MOL0     H14677   9.789   9.392   7.073 -0.9120 -0.0572  0.1545
  869MOL0     H14678  10.008   9.296   7.142 -1.3842  0.0767 -0.2946
  869MOL0     H14679  10.085   9.374   7.001 -0.7422  0.2446 -1.0079
  869MOL0     H14680   9.882   9.154   6.992  1.8271 -1.8815 -1.1103
  869MOL0     H14681   9.945   9.248   6.851  0.3440  0.6529  0.4221
  869MOL0     H14682  10.038   9.024   6.872 -2.5368 -1.3326  2.9077
  869MOL0     H14683  10.089   9.056   7.034  2.6908  0.8906 -0.5016
  869MOL0     H14684  10.239   9.245   6.963 -1.3499 -0.0816  1.7366
  869MOL0     H14685  10.215   9.205   6.794  0.8085 -1.2154 -0.5848
  869MOL0     H14686  10.298   8.993   6.981 -2.5466  2.0849  1.5929
  869MOL0     H14687  10.329   9.011   6.807  1.3169 -2.7522  2.4940
  869MOL0     H14688  10.470   9.225   6.884  1.4255 -0.7081 -0.9623
  869MOL0     H14689  10.537   9.059   6.896 -1.3993 -0.8730 -2.7033
  869MOL0     H14690   9.572   9.642   7.269 -0.3530  0.8879  0.8371
  869MOL0     H14691   9.383   9.748   7.154  0.2572 -2.4911 -0.5761
  869MOL0     H14692   9.324   9.921   6.539 -0.7746 -1.3551  1.8946
  869MOL0     H14693   9.116  10.049   6.437  1.5951 -1.0584 -0.2441
  869MOL0     H14694   7.507  11.295   6.116  0.4547 -0.1331  0.8761
  869MOL0     H14695   7.461  11.333   5.874 -1.2514 -0.5228  3.2921
  869MOL0     H14696   7.699  11.451   5.485 -1.4064 -0.3033  2.7513
  869MOL0     H14697   7.696  11.520   5.280 -1.8444  1.5017  3.5071
  869MOL0     H14698   7.629  11.524   4.935  1.8433 -0.3728  1.0633
  869MOL0     H14699   7.627  11.582   5.092  1.6664 -1.3097 -1.3367
  869MOL0     H14700   7.443  11.662   4.963  1.6306 -0.8790 -0.0824
  869MOL0     H14701   7.375  11.503   4.937 -0.3982 -2.0089  0.6284
  869MOL0     H14702   7.398  11.625   5.222 -2.2527 -0.7895  2.1960
  869MOL0     H14703   7.325  11.473   5.176  1.9203 -0.3894 -0.4682
  869MOL0     H14704   7.229  11.758   5.084 -1.4725  0.8873  1.9265
  869MOL0     H14705   7.148  11.606   5.059 -3.5429  3.3093 -0.0606
  869MOL0     H14706   6.975  11.704   5.414 -1.7234 -2.8724  0.6502
  869MOL0     H14707   7.446  11.176   5.163  1.5117 -1.1284 -1.5783
  869MOL0     H14708   7.434  11.114   5.410  2.1666 -2.5743 -1.8218
  870MOL0     O14709   6.784   5.280   5.571  0.2428  0.9166 -0.4368
  870MOL0     C14710   6.827   5.377   5.510  0.7262  0.4353  0.6374
  870MOL0     O14711   6.746   5.485   5.499  0.2304  0.0428 -0.0261
  870MOL0     C14712   6.630   5.493   5.567 -0.9945 -0.4039 -0.3640
  870MOL0     C14713   6.508   5.488   5.504  0.4141 -0.2271  0.0189
  870MOL0     C14714   6.389   5.498   5.574  0.0746  0.0636  0.2133
  870MOL0     C14715   6.391   5.520   5.715 -0.6511 -0.1277  0.5169
  870MOL0     O14716   6.267   5.547   5.765  0.5665  0.4254 -0.6204
  870MOL0     C14717   6.164   5.449   5.774 -0.1658  0.1386 -0.5490
  870MOL0     C14718   6.066   5.519   5.868 -0.3949 -0.6313 -0.3859
  870MOL0     C14719   5.979   5.621   5.790 -0.7582 -0.2763  0.3739
  870MOL0     C14720   5.871   5.683   5.883  0.2237  0.4401 -0.4358
  870MOL0     C14721   5.773   5.741   5.780 -0.6741  0.3454  0.4829
  870MOL0     C14722   5.655   5.807   5.854 -0.1601  0.6641  0.4085
  870MOL0     C14723   5.516   5.786   5.776 -0.5463  0.5010 -0.0450
  870MOL0     C14724   5.400   5.839   5.846  0.5086  0.4296 -0.0486
  870MOL0     N14725   5.272   5.805   5.771  0.1871 -0.6288 -0.2396
  870MOL0     C14726   5.205   5.886   5.671 -0.4348  0.0068 -0.4654
  870MOL0     C14727   5.084   5.831   5.658  0.1455 -0.2465  0.1565
  870MOL0     C14728   4.973   5.875   5.571 -0.3219  0.0788  0.9853
  870MOL0     C14729   5.010   5.902   5.428  0.4416 -0.0161  0.3918
  870MOL0     C14730   5.102   5.788   5.368 -0.5291 -0.1213  0.2365
  870MOL0     C14731   5.134   5.802   5.219  1.3537  0.3008 -0.3303
  870MOL0     O14732   5.016   5.852   5.152 -0.7173 -0.9443 -0.0946
  870MOL0     C14733   4.918   5.768   5.125 -0.1001  0.0250  0.1133
  870MOL0     C14734   4.919   5.630   5.125 -0.4505  0.4422  0.0952
  870MOL0     C14735   4.805   5.565   5.075 -0.0527  0.7930 -0.2076
  870MOL0     C14736   4.690   5.627   5.031 -0.7435  0.3650 -0.2054
  870MOL0     C14737   4.573   5.549   4.988 -0.1839 -0.3243  0.4632
  870MOL0     O14738   4.453   5.624   4.962 -0.3517 -0.0062  0.6072
  870MOL0     C14739   4.333   5.563   4.937  1.0750  0.0723  0.0987
  870MOL0     C14740   4.256   5.642   4.850  0.0252 -0.7377 -0.2963
  870MOL0     C14741   4.126   5.615   4.814 -0.3824 -0.0639 -0.4398
  870MOL0     C14742   4.073   5.488   4.857 -0.4001  0.2900  1.0949
  870MOL0     O14743   3.947   5.451   4.833  0.2189  0.5558 -0.2286
  870MOL0     C14744   3.870   5.548   4.766  1.5298 -0.1025  0.2012
  870MOL0     C14745   3.720   5.498   4.739 -0.2124 -0.3707 -0.1419
  870MOL0     C14746   3.635   5.513   4.864  0.0448 -0.1138  1.0615
  870MOL0     C14747   3.485   5.482   4.855  0.6576  0.2283 -0.3781
  870MOL0     C14748   3.419   5.449   4.984  0.1372 -0.1628  0.6273
  870MOL0     C14749   3.390   5.560   5.072 -0.0686 -0.5163  0.0785
  870MOL0     C14750   3.312   5.504   5.183  1.3381  0.3066 -0.3535
  870MOL0     C14751   3.263   5.622   5.276 -0.2356  0.4571 -0.0976
  870MOL0    Cl14752   3.392   5.708   5.363 -0.4169  0.2190 -0.5153
  870MOL0     C14753   4.151   5.405   4.929 -0.2620 -0.1280  0.0749
  870MOL0     C14754   4.277   5.438   4.968 -0.1224 -0.0940 -0.7128
  870MOL0     O14755   4.581   5.432   4.963 -0.6196 -0.1551 -0.1385
  870MOL0     C14756   4.688   5.763   5.039 -0.5659  0.4171  0.6103
  870MOL0     C14757   4.803   5.830   5.083  1.0923  0.4352 -0.6383
  870MOL0     N14758   5.082   5.723   5.745  0.4746 -0.0532  0.3659
  870MOL0     N14759   5.187   5.709   5.818 -0.3177 -0.6418 -0.6287
  870MOL0     C14760   6.509   5.527   5.783 -0.7473  0.2809  0.4446
  870MOL0     C14761   6.629   5.506   5.707  0.3857 -0.1189 -0.7074
  870MOL0     C14762   6.958   5.383   5.449 -0.5154 -0.4608 -0.0267
  870MOL0     C14763   7.053   5.275   5.452 -0.5725  0.0528  0.6981
  870MOL0     C14764   7.174   5.287   5.376 -0.4518  0.5297  0.6508
  870MOL0     C14765   7.206   5.392   5.298 -0.3259 -0.3755 -0.5570
  870MOL0     O14766   7.326   5.427   5.233 -0.2276 -0.2812  0.2345
  870MOL0     C14767   7.450   5.384   5.282 -0.1281 -0.7785  0.1459
  870MOL0     C14768   7.553   5.417   5.171 -0.9557  0.3673 -0.1750
  870MOL0     C14769   7.521   5.309   5.060  0.3307 -0.6022  0.3074
  870MOL0     C14770   7.641   5.308   4.961  0.8915  0.1797  0.4567
  870MOL0     C14771   7.644   5.436   4.881 -0.7858  0.2277 -0.3406
  870MOL0     C14772   7.632   5.531   4.808  0.8955  0.3980  0.1034
  870MOL0     C14773   7.125   5.501   5.307 -0.0919 -0.4775  1.1439
  870MOL0     C14774   6.997   5.490   5.369 -0.4523 -0.8864 -0.4787
  870MOL0     H14775   6.518   5.477   5.397 -0.9575 -0.8390 -0.0727
  870MOL0     H14776   6.292   5.489   5.527 -0.4534 -0.0399  1.2841
  870MOL0     H14777   6.199   5.358   5.823 -0.2851  1.1914  1.5940
  870MOL0     H14778   6.123   5.416   5.678  0.8815 -0.0223 -0.9571
  870MOL0     H14779   6.109   5.570   5.956 -3.6161  2.5716 -0.4080
  870MOL0     H14780   5.997   5.440   5.899 -4.1046  1.5722 -2.2869
  870MOL0     H14781   5.938   5.571   5.702  0.3746 -3.5547  1.5332
  870MOL0     H14782   6.049   5.692   5.745  1.1182 -2.1026  0.2675
  870MOL0     H14783   5.824   5.605   5.943  2.6403 -0.8682 -0.1081
  870MOL0     H14784   5.926   5.754   5.946  0.3651 -1.3965  1.6186
  870MOL0     H14785   5.733   5.665   5.712  2.0321  0.8005 -1.8051
  870MOL0     H14786   5.817   5.819   5.717 -0.3843  2.9118  3.5953
  870MOL0     H14787   5.668   5.915   5.862 -0.8042  0.8400 -0.7404
  870MOL0     H14788   5.644   5.759   5.952  4.9615  0.9242  1.3735
  870MOL0     H14789   5.516   5.843   5.683  1.4680 -1.5022 -1.3594
  870MOL0     H14790   5.499   5.681   5.754  1.3763  0.6588 -2.7893
  870MOL0     H14791   5.410   5.947   5.861 -0.3552  0.7019 -1.2219
  870MOL0     H14792   5.381   5.802   5.947  0.3904  0.0627 -0.2032
  870MOL0     H14793   5.222   5.983   5.624  1.3538  1.4522  2.8021
  870MOL0     H14794   4.938   5.969   5.614  3.7796  2.1149  0.3692
  870MOL0     H14795   4.900   5.793   5.577 -0.7287  0.4103  0.6182
  870MOL0     H14796   5.063   5.995   5.407  2.4185 -1.1893 -0.0853
  870MOL0     H14797   4.912   5.917   5.380  0.1699  2.1355  1.5097
  870MOL0     H14798   5.202   5.797   5.412  1.9312 -0.3249 -4.5792
  870MOL0     H14799   5.052   5.693   5.389 -0.9085 -0.8971 -3.4776
  870MOL0     H14800   5.169   5.706   5.180 -0.8021  0.5767 -3.2684
  870MOL0     H14801   5.217   5.870   5.201  0.4687  1.0798 -1.6133
  870MOL0     H14802   5.010   5.582   5.159 -1.2136 -1.1939 -0.0554
  870MOL0     H14803   4.817   5.457   5.074 -4.0066  0.0855  3.2666
  870MOL0     H14804   4.299   5.724   4.794 -0.8880 -0.2573 -0.3069
  870MOL0     H14805   4.079   5.692   4.754  0.8374  2.3976  1.5476
  870MOL0     H14806   3.907   5.573   4.666 -0.7295  0.8215 -0.4742
  870MOL0     H14807   3.845   5.639   4.822  0.7982 -0.5039  0.5409
  870MOL0     H14808   3.720   5.395   4.702 -1.4791 -0.5339  0.2712
  870MOL0     H14809   3.676   5.562   4.663 -1.3344 -0.0689  0.7337
  870MOL0     H14810   3.637   5.619   4.891 -1.7366 -0.2231  1.7785
  870MOL0     H14811   3.679   5.450   4.942 -0.4029 -0.8583  0.7212
  870MOL0     H14812   3.432   5.570   4.817  2.4562  1.9015  0.8172
  870MOL0     H14813   3.477   5.399   4.784  2.5561  1.2374 -1.8603
  870MOL0     H14814   3.473   5.372   5.039 -1.9740 -0.6023  2.2200
  870MOL0     H14815   3.327   5.404   4.944 -0.7760  1.7554  0.4809
  870MOL0     H14816   3.323   5.633   5.025  0.4308  0.7192  1.2114
  870MOL0     H14817   3.484   5.605   5.105  0.3562 -0.9828 -0.4847
  870MOL0     H14818   3.223   5.447   5.154  1.7865 -1.2574  1.1751
  870MOL0     H14819   3.384   5.438   5.232  3.8127  1.5016 -2.1333
  870MOL0     H14820   3.199   5.581   5.355 -1.0060 -0.2268 -1.0533
  870MOL0     H14821   3.202   5.690   5.216 -1.5546 -1.6525 -1.2829
  870MOL0     H14822   4.113   5.314   4.974 -0.5849 -0.5478 -1.0156
  870MOL0     H14823   4.351   5.376   5.017  1.4137  1.0351 -1.4763
  870MOL0     H14824   4.606   5.822   4.998  1.4492  3.3732  0.4990
  870MOL0     H14825   4.808   5.938   5.087  0.0494  0.6233 -2.8078
  870MOL0     H14826   6.516   5.533   5.891 -2.3032  0.7957  0.5374
  870MOL0     H14827   6.726   5.500   5.755 -0.5472 -0.7595  1.2011
  870MOL0     H14828   7.043   5.186   5.513  0.7471 -0.5196  0.0992
  870MOL0     H14829   7.249   5.209   5.376 -0.7499  0.2372  0.1630
  870MOL0     H14830   7.457   5.279   5.313 -1.2115 -0.0704  3.0179
  870MOL0     H14831   7.470   5.449   5.368  1.2787 -0.6669 -0.2283
  870MOL0     H14832   7.532   5.519   5.138 -0.0426  1.8647  3.4018
  870MOL0     H14833   7.656   5.420   5.207 -0.9408 -1.2863  0.0018
  870MOL0     H14834   7.426   5.336   5.013 -0.4953 -2.2519  0.9472
  870MOL0     H14835   7.513   5.208   5.103  0.7761 -1.1115 -0.7852
  870MOL0     H14836   7.725   5.294   5.029  0.3240  2.0529  1.6093
  870MOL0     H14837   7.640   5.225   4.890  0.9801  1.9865 -1.7797
  870MOL0     H14838   7.622   5.616   4.743  1.2651 -0.5180 -1.1758
  870MOL0     H14839   7.162   5.599   5.278  2.1634 -0.9223  2.2998
  870MOL0     H14840   6.935   5.579   5.374 -1.1172 -1.3584 -0.1235
  871MOL0     O14841   6.065   3.166   8.325  0.5220 -0.1296  0.0503
  871MOL0     C14842   5.990   3.237   8.256  0.1054  0.1200 -0.7191
  871MOL0     O14843   5.856   3.262   8.275  0.5946  0.1172 -0.1671
  871MOL0     C14844   5.772   3.198   8.365 -0.0365 -1.2165 -0.5220
  871MOL0     C14845   5.780   3.066   8.408 -0.6419  0.2329  0.0715
  871MOL0     C14846   5.712   3.013   8.516 -0.4294  0.2849 -0.0984
  871MOL0     C14847   5.639   3.100   8.599 -0.5034  0.0624  0.6010
  871MOL0     O14848   5.573   3.054   8.711 -0.2710 -0.2848 -0.3941
  871MOL0     C14849   5.598   3.122   8.836  0.2608 -0.1165  0.1309
  871MOL0     C14850   5.746   3.078   8.879 -0.7539  0.2819 -0.4015
  871MOL0     C14851   5.779   3.122   9.021  0.0408  0.4580  0.4736
  871MOL0     C14852   5.914   3.066   9.074 -0.6117  0.5419 -0.3741
  871MOL0     C14853   5.950   3.129   9.204 -0.2245  0.4647 -0.2906
  871MOL0     C14854   6.084   3.094   9.280 -0.5942 -0.2505 -0.6125
  871MOL0     C14855   6.077   2.952   9.338  0.1742  0.0072 -0.0197
  871MOL0     C14856   6.188   2.882   9.423 -0.2971  0.4345  0.6335
  871MOL0     N14857   6.139   2.780   9.509 -0.2385 -1.6942  0.4806
  871MOL0     C14858   6.152   2.643   9.493 -0.2687 -0.3165 -0.7837
  871MOL0     C14859   6.090   2.589   9.597 -0.4572  0.1986  1.0342
  871MOL0     C14860   6.073   2.441   9.635  0.1269 -0.1126 -0.2355
  871MOL0     C14861   6.131   2.427   9.781  0.1454 -0.2098 -0.6633
  871MOL0     C14862   6.111   2.276   9.805  0.6634  0.3877 -1.8178
  871MOL0     C14863   5.962   2.236   9.845  0.4800  0.3786 -0.4544
  871MOL0     O14864   5.961   2.094   9.820 -0.5013  0.5185 -0.9020
  871MOL0     C14865   5.839   2.055   9.794 -0.0917 -0.6532  0.1980
  871MOL0     C14866   5.804   2.029   9.664  0.0780  0.8252 -0.2919
  871MOL0     C14867   5.674   1.976   9.633  0.0869  0.2567 -0.1039
  871MOL0     C14868   5.582   1.946   9.736  0.3001 -0.9034  0.1799
  871MOL0     C14869   5.444   1.901   9.707  0.0704  0.3379  0.4436
  871MOL0     O14870   5.416   1.869   9.573 -0.1530 -0.2267 -0.2286
  871MOL0     C14871   5.285   1.826   9.539 -0.5785 -1.1028  0.1488
  871MOL0     C14872   5.248   1.710   9.595  0.6326 -0.6686  0.6225
  871MOL0     C14873   5.121   1.671   9.561 -0.7231  0.6280  0.4576
  871MOL0     C14874   5.037   1.747   9.474  0.4207  0.4698  0.0969
  871MOL0     O14875   4.921   1.682   9.450  0.2010 -0.0312  0.3588
  871MOL0     C14876   4.811   1.755   9.506 -0.7295  0.1058  1.0594
  871MOL0     C14877   4.672   1.700   9.494 -0.4829 -1.0222  1.0238
  871MOL0     C14878   4.649   1.586   9.584  0.2920 -0.1059  0.6388
  871MOL0     C14879   4.715   1.457   9.536 -0.7496  0.4301  0.9031
  871MOL0     C14880   4.669   1.328   9.605 -0.2438  0.5731 -0.2015
  871MOL0     C14881   4.698   1.317   9.755 -0.3476  0.6253  0.0777
  871MOL0     C14882   4.633   1.193   9.805  0.6711 -0.3971  0.7682
  871MOL0     C14883   4.621   1.179   9.956 -0.1150 -0.6619  0.4924
  871MOL0    Cl14884   4.491   1.289  10.003  0.2316  0.4087 -0.3256
  871MOL0     C14885   5.088   1.860   9.410 -0.0931  0.3539  0.6135
  871MOL0     C14886   5.221   1.898   9.438  0.2457  0.3154  0.7399
  871MOL0     O14887   5.366   1.895   9.801  0.2904  0.2833 -0.0306
  871MOL0     C14888   5.616   1.985   9.859 -0.0854  0.2156  0.0486
  871MOL0     C14889   5.740   2.040   9.893  0.3604 -0.8194 -1.0521
  871MOL0     N14890   6.035   2.690   9.674 -0.1958 -0.5321  0.1220
  871MOL0     N14891   6.071   2.805   9.620  0.1972  0.3530  0.1463
  871MOL0     C14892   5.628   3.236   8.561 -0.2309  0.0494 -0.1188
  871MOL0     C14893   5.689   3.282   8.443 -0.4094  0.0230  0.1589
  871MOL0     C14894   6.058   3.287   8.131 -0.0016  0.0193 -0.4501
  871MOL0     C14895   5.982   3.389   8.057 -0.5221  0.3189 -0.7534
  871MOL0     C14896   6.029   3.408   7.925  0.4443  0.8870  0.4960
  871MOL0     C14897   6.154   3.364   7.876 -0.0479 -0.1838  0.4486
  871MOL0     O14898   6.207   3.394   7.752 -0.7428 -0.1511  0.5238
  871MOL0     C14899   6.123   3.459   7.654  0.9249 -0.3807  0.7818
  871MOL0     C14900   6.184   3.528   7.533 -0.3969 -0.0375 -0.3079
  871MOL0     C14901   6.279   3.639   7.571 -0.0165 -1.3647  0.5200
  871MOL0     C14902   6.358   3.701   7.455  0.3477  0.9260 -0.1821
  871MOL0     C14903   6.269   3.750   7.349  0.3765  0.3819  0.5657
  871MOL0     C14904   6.192   3.796   7.263 -0.5990 -1.0003  0.1175
  871MOL0     C14905   6.239   3.298   7.961 -0.4255 -0.9654 -0.3662
  871MOL0     C14906   6.187   3.251   8.081 -0.7077  0.4722 -0.0220
  871MOL0     H14907   5.850   3.007   8.349 -1.2986  2.0613 -2.7082
  871MOL0     H14908   5.720   2.908   8.543  1.2034  1.0316  2.7054
  871MOL0     H14909   5.529   3.078   8.909 -1.0815 -1.8041 -2.0087
  871MOL0     H14910   5.588   3.231   8.835 -0.7095 -0.1855  0.7799
  871MOL0     H14911   5.815   3.118   8.804 -3.1669  2.8723 -1.4510
  871MOL0     H14912   5.751   2.969   8.882 -1.9349  0.2283  2.0051
  871MOL0     H14913   5.699   3.103   9.093 -1.5075  0.8544 -1.0533
  871MOL0     H14914   5.801   3.229   9.016  2.2713  0.0078 -0.5092
  871MOL0     H14915   5.911   2.960   9.098 -0.3161  0.7523  0.6541
  871MOL0     H14916   5.992   3.084   9.000  2.4726 -1.6058  2.1133
  871MOL0     H14917   5.864   3.097   9.263  0.6186 -1.9613 -0.2335
  871MOL0     H14918   5.950   3.237   9.193 -2.9267  0.6118  0.4254
  871MOL0     H14919   6.101   3.171   9.355  3.2699 -0.8322 -0.6776
  871MOL0     H14920   6.169   3.097   9.211  0.7056 -1.2641  0.8697
  871MOL0     H14921   5.985   2.952   9.397  1.4290  0.1994  2.0398
  871MOL0     H14922   6.055   2.880   9.258 -0.1102  0.4289 -0.3242
  871MOL0     H14923   6.240   2.966   9.471  0.5193  0.4175 -0.1919
  871MOL0     H14924   6.264   2.844   9.354  0.8068  2.5995  0.5361
  871MOL0     H14925   6.189   2.583   9.410  0.1078 -2.9117  1.1504
  871MOL0     H14926   6.125   2.373   9.567 -1.6246 -2.1624  0.3870
  871MOL0     H14927   5.969   2.408   9.639 -0.3038  1.2326  0.5702
  871MOL0     H14928   6.092   2.493   9.859  2.1005 -1.8841  1.8967
  871MOL0     H14929   6.237   2.452   9.776  0.8649 -2.3738  1.5829
  871MOL0     H14930   6.151   2.225   9.717  0.8824  3.2788 -3.5471
  871MOL0     H14931   6.168   2.241   9.891 -1.9409 -1.5842 -0.7306
  871MOL0     H14932   5.886   2.282   9.781 -0.7398 -2.6447 -1.3305
  871MOL0     H14933   5.945   2.274   9.946  1.3075 -2.0643  0.6784
  871MOL0     H14934   5.890   2.042   9.599  0.8974  2.4797  1.0123
  871MOL0     H14935   5.648   1.951   9.531 -0.9664  1.3726 -0.1371
  871MOL0     H14936   5.313   1.662   9.668  0.7680 -0.0590  0.9055
  871MOL0     H14937   5.085   1.574   9.591 -1.7022  0.8518  0.0533
  871MOL0     H14938   4.817   1.851   9.455 -2.2720 -1.0713 -1.5126
  871MOL0     H14939   4.824   1.778   9.613 -2.2428  2.8238  0.7452
  871MOL0     H14940   4.647   1.691   9.388 -0.0721 -1.0068  0.9255
  871MOL0     H14941   4.607   1.784   9.520 -0.2701 -1.1464  2.0057
  871MOL0     H14942   4.544   1.561   9.598  0.6737 -2.1977  0.1046
  871MOL0     H14943   4.699   1.604   9.680  3.2470 -2.4869 -0.2623
  871MOL0     H14944   4.695   1.456   9.428  0.6295 -0.4784  0.6225
  871MOL0     H14945   4.824   1.458   9.542 -0.3754 -0.2006 -3.0629
  871MOL0     H14946   4.711   1.242   9.552  1.2722  1.1817 -0.0617
  871MOL0     H14947   4.561   1.317   9.600 -0.0488 -1.8352 -0.4167
  871MOL0     H14948   4.673   1.405   9.814  0.3739  0.4386  0.6898
  871MOL0     H14949   4.807   1.309   9.770 -0.1808  0.1245 -1.2952
  871MOL0     H14950   4.529   1.193   9.769  0.0235  1.2869  2.4752
  871MOL0     H14951   4.695   1.110   9.770  0.7793 -1.2517  2.8695
  871MOL0     H14952   4.711   1.213  10.007 -1.5856  2.5049  1.2104
  871MOL0     H14953   4.596   1.078   9.989 -0.2576 -1.0262 -0.6612
  871MOL0     H14954   5.030   1.910   9.333  0.6488 -0.9041 -0.8242
  871MOL0     H14955   5.264   1.990   9.401 -0.6571  0.0192 -1.1248
  871MOL0     H14956   5.542   1.974   9.937 -2.1835 -0.4861 -1.9433
  871MOL0     H14957   5.753   2.072   9.996  1.2715  0.9905 -1.6887
  871MOL0     H14958   5.569   3.302   8.624 -1.4355  0.5723 -1.7034
  871MOL0     H14959   5.687   3.385   8.408 -1.3424  0.1811  0.6426
  871MOL0     H14960   5.888   3.427   8.094 -0.0421  0.9027 -0.1059
  871MOL0     H14961   5.964   3.470   7.864 -0.8593 -1.2964 -0.4570
  871MOL0     H14962   6.069   3.542   7.701 -1.5493  0.5959 -3.2845
  871MOL0     H14963   6.040   3.394   7.624 -2.6195  1.9790  4.3759
  871MOL0     H14964   6.249   3.454   7.486  1.4890 -0.5750  2.8252
  871MOL0     H14965   6.111   3.570   7.463 -3.0110  1.3035  2.9316
  871MOL0     H14966   6.343   3.607   7.653 -1.0807 -1.6580  1.2474
  871MOL0     H14967   6.228   3.729   7.608  2.5976 -0.3434  1.8960
  871MOL0     H14968   6.411   3.789   7.493  1.3579 -1.0815  3.6439
  871MOL0     H14969   6.423   3.619   7.424 -1.8324 -0.3992 -1.4902
  871MOL0     H14970   6.132   3.850   7.193  1.4403 -0.1697 -1.0896
  871MOL0     H14971   6.341   3.273   7.934  0.3062  0.0543  1.3247
  871MOL0     H14972   6.255   3.196   8.145 -0.9387 -0.5582 -0.6352
  872MOL0     O14973   5.328   5.136   4.042 -0.1461 -0.3048 -0.0440
  872MOL0     C14974   5.245   5.220   4.012 -0.7520 -0.5396  0.1021
  872MOL0     O14975   5.123   5.197   3.943  0.5492  0.0921  0.2524
  872MOL0     C14976   5.107   5.082   3.884  0.3701  0.3296 -0.8259
  872MOL0     C14977   4.969   5.032   3.885 -1.0003 -0.3722  0.2173
  872MOL0     C14978   4.954   4.905   3.821  0.1508  0.0042 -0.4951
  872MOL0     C14979   5.060   4.838   3.751  0.0498  0.7385  0.3277
  872MOL0     O14980   5.032   4.720   3.686 -0.3910  0.6911  0.7996
  872MOL0     C14981   5.143   4.656   3.615  0.6654 -0.1127 -0.8399
  872MOL0     C14982   5.090   4.576   3.500  0.1315 -0.5463  0.2323
  872MOL0     C14983   4.989   4.466   3.536  0.9170  0.2377 -0.5933
  872MOL0     C14984   4.956   4.372   3.427  0.5475 -0.6253 -0.1423
  872MOL0     C14985   4.898   4.231   3.458  0.2938  0.3962 -0.0543
  872MOL0     C14986   4.827   4.166   3.337  0.3062 -0.8901  0.2225
  872MOL0     C14987   4.780   4.023   3.372  0.0962 -0.2471  0.7907
  872MOL0     C14988   4.636   4.000   3.314  0.6594 -0.1405 -0.4113
  872MOL0     N14989   4.531   4.087   3.373 -0.7591  0.4367  0.8777
  872MOL0     C14990   4.497   4.210   3.327  0.0944  0.1128 -0.3467
  872MOL0     C14991   4.425   4.259   3.433  0.4250 -0.2663  0.6302
  872MOL0     C14992   4.368   4.399   3.434 -0.4628 -0.6151 -0.9572
  872MOL0     C14993   4.480   4.512   3.450 -0.4386 -1.0003 -0.5004
  872MOL0     C14994   4.571   4.498   3.580 -0.2764  0.8143  0.4231
  872MOL0     C14995   4.488   4.539   3.700 -0.3957 -0.0497  0.6563
  872MOL0     O14996   4.421   4.433   3.763 -0.3386 -0.6431  0.0751
  872MOL0     C14997   4.319   4.463   3.843  0.6233  0.2386 -0.7269
  872MOL0     C14998   4.217   4.368   3.863  0.2329  0.4783 -0.6928
  872MOL0     C14999   4.102   4.397   3.941 -0.3952 -0.1217 -0.5280
  872MOL0     C15000   4.081   4.518   4.003 -0.2027 -0.3572  0.3072
  872MOL0     C15001   3.960   4.555   4.090  0.3164 -0.2883 -0.0942
  872MOL0     O15002   3.916   4.683   4.107 -0.5619  0.2909 -0.3492
  872MOL0     C15003   3.805   4.696   4.192 -0.7149 -0.0488 -0.6669
  872MOL0     C15004   3.823   4.717   4.333  0.6838 -0.7087  1.3404
  872MOL0     C15005   3.714   4.725   4.423 -0.6976 -0.4535  0.3145
  872MOL0     C15006   3.589   4.711   4.365  0.6140  0.1284  0.0479
  872MOL0     O15007   3.468   4.732   4.435  0.4973  0.8890 -0.1968
  872MOL0     C15008   3.464   4.826   4.543  0.5515 -0.5762  0.1236
  872MOL0     C15009   3.319   4.833   4.599  0.0543 -0.2403  0.1121
  872MOL0     C15010   3.299   4.703   4.678  0.2665 -0.2792  0.5191
  872MOL0     C15011   3.165   4.722   4.756 -0.3325 -0.4519 -0.1947
  872MOL0     C15012   3.110   4.586   4.803 -0.5693 -0.2988 -0.1446
  872MOL0     C15013   3.055   4.491   4.700  0.5061 -0.0397 -0.1195
  872MOL0     C15014   2.964   4.372   4.750 -0.2544 -0.4527  0.0246
  872MOL0     C15015   2.911   4.290   4.630 -0.7628  0.6807 -0.9902
  872MOL0    Cl15016   2.981   4.122   4.634 -0.1370  0.2721 -0.3975
  872MOL0     C15017   3.566   4.692   4.223  1.2609 -0.6879  0.1159
  872MOL0     C15018   3.677   4.685   4.138 -0.5134  0.3612 -1.0192
  872MOL0     O15019   3.907   4.457   4.133 -1.0935  0.1701 -0.4262
  872MOL0     C15020   4.187   4.611   3.980 -0.9789  0.7914  0.7447
  872MOL0     C15021   4.305   4.587   3.903 -0.0009  0.3585 -0.4763
  872MOL0     N15022   4.413   4.165   3.535  0.6040  0.0363 -0.3040
  872MOL0     N15023   4.474   4.059   3.495  0.3014 -0.2700  0.6263
  872MOL0     C15024   5.184   4.891   3.746  0.6833  0.2948  0.7651
  872MOL0     C15025   5.206   5.015   3.820  0.5853 -1.0270 -0.2648
  872MOL0     C15026   5.262   5.358   4.055 -0.2629 -0.3104  0.4022
  872MOL0     C15027   5.377   5.403   4.107  0.1969  0.3921 -0.0450
  872MOL0     C15028   5.397   5.532   4.166  0.5988 -0.1457 -0.1995
  872MOL0     C15029   5.298   5.628   4.154  0.6271 -0.5854  0.5072
  872MOL0     O15030   5.326   5.747   4.213  0.3955  0.0433 -0.0613
  872MOL0     C15031   5.229   5.857   4.228  0.6105  0.6563  0.3113
  872MOL0     C15032   5.292   5.969   4.307 -0.2641  0.7455  0.3221
  872MOL0     C15033   5.353   5.917   4.438  0.1918  0.4429  0.2135
  872MOL0     C15034   5.381   6.026   4.546 -0.1831  0.3823 -0.4994
  872MOL0     C15035   5.509   6.093   4.515  0.2066 -0.3276 -0.3362
  872MOL0     C15036   5.620   6.138   4.498 -0.1472 -0.9105  0.1285
  872MOL0     C15037   5.178   5.589   4.106 -0.2483  0.9296  0.4229
  872MOL0     C15038   5.162   5.459   4.062  0.5670 -0.5332  0.0931
  872MOL0     H15039   4.883   5.070   3.938 -2.0931 -2.5646  0.1226
  872MOL0     H15040   4.854   4.863   3.828 -1.0359  2.2220 -2.6383
  872MOL0     H15041   5.209   4.600   3.682 -0.5037  0.1998  0.6417
  872MOL0     H15042   5.201   4.730   3.559 -0.6372  0.6817 -1.1748
  872MOL0     H15043   5.171   4.536   3.438 -0.8074 -1.3954 -0.4867
  872MOL0     H15044   5.039   4.648   3.434  1.4008  0.7489  0.6261
  872MOL0     H15045   4.899   4.522   3.562 -0.8680 -2.4133 -0.6735
  872MOL0     H15046   5.021   4.406   3.622 -2.0361  1.5867  1.6039
  872MOL0     H15047   4.891   4.427   3.359  0.2031 -0.3415  0.4125
  872MOL0     H15048   5.039   4.365   3.356  1.6819  0.3510  1.0309
  872MOL0     H15049   4.826   4.235   3.541 -0.1548  0.4080 -0.4408
  872MOL0     H15050   4.990   4.177   3.481  0.7810 -0.7087 -3.8442
  872MOL0     H15051   4.889   4.147   3.249  1.2041 -1.8032  1.0301
  872MOL0     H15052   4.748   4.238   3.317  1.8957  2.4734  4.3567
  872MOL0     H15053   4.849   3.948   3.333  0.7700  0.1107  1.2749
  872MOL0     H15054   4.759   4.015   3.479 -2.4291  1.9926  0.5911
  872MOL0     H15055   4.601   3.896   3.319  0.5223 -0.0377  1.7453
  872MOL0     H15056   4.643   4.022   3.207 -0.7863  1.9143 -0.1371
  872MOL0     H15057   4.524   4.249   3.229  0.2105  1.6046  0.2617
  872MOL0     H15058   4.286   4.416   3.504  0.4021  1.1844 -0.3348
  872MOL0     H15059   4.311   4.406   3.341 -0.7160  2.7975 -0.6512
  872MOL0     H15060   4.418   4.602   3.458 -0.3955 -1.1095  1.5369
  872MOL0     H15061   4.538   4.526   3.358 -2.3769 -0.5384 -1.7311
  872MOL0     H15062   4.597   4.395   3.605  1.2306  0.8508 -0.8819
  872MOL0     H15063   4.655   4.567   3.572 -2.5105  3.7885  0.7086
  872MOL0     H15064   4.412   4.609   3.667 -0.4663 -0.2806  0.3285
  872MOL0     H15065   4.550   4.582   3.780 -1.1643  0.6964  0.8619
  872MOL0     H15066   4.233   4.269   3.822  0.7314 -0.6861  2.1096
  872MOL0     H15067   4.032   4.314   3.952 -1.7584  1.2185  1.8149
  872MOL0     H15068   3.926   4.713   4.366  2.0188 -2.5065 -2.4409
  872MOL0     H15069   3.737   4.737   4.529  0.9333 -0.4431 -0.0171
  872MOL0     H15070   3.486   4.923   4.497 -0.6651 -0.9737 -1.3946
  872MOL0     H15071   3.541   4.821   4.621 -0.2594 -2.0838  0.8516
  872MOL0     H15072   3.247   4.828   4.516  0.7095 -1.2398 -0.4217
  872MOL0     H15073   3.297   4.925   4.654 -0.0230  0.9833 -1.8688
  872MOL0     H15074   3.379   4.685   4.750 -1.4583 -2.0896  2.0839
  872MOL0     H15075   3.302   4.619   4.607 -1.5876  0.9384 -1.1264
  872MOL0     H15076   3.183   4.793   4.838  1.4801 -0.5839 -0.4421
  872MOL0     H15077   3.095   4.763   4.683 -0.2442 -5.2708 -3.4241
  872MOL0     H15078   3.029   4.614   4.871 -1.4166  0.2486 -1.3272
  872MOL0     H15079   3.187   4.544   4.868 -0.4527  0.4232  0.1851
  872MOL0     H15080   3.137   4.452   4.641 -0.9521 -2.4826 -0.6602
  872MOL0     H15081   2.994   4.555   4.635  2.6792  0.5374 -1.6832
  872MOL0     H15082   3.019   4.304   4.816  2.6202  1.8250  0.1827
  872MOL0     H15083   2.879   4.402   4.812 -1.3462 -1.6447 -0.8689
  872MOL0     H15084   2.917   4.344   4.535 -1.2741  1.2449 -0.7162
  872MOL0     H15085   2.803   4.276   4.644 -0.2230 -1.8408  1.2900
  872MOL0     H15086   3.463   4.701   4.192  0.8072 -1.9264  1.1782
  872MOL0     H15087   3.667   4.672   4.031 -0.6150 -3.4434 -0.6794
  872MOL0     H15088   4.186   4.708   4.029  1.8936  1.0229  0.4942
  872MOL0     H15089   4.377   4.668   3.890 -1.2729  2.1344  2.4522
  872MOL0     H15090   5.276   4.854   3.701 -0.2026  1.1900 -1.9373
  872MOL0     H15091   5.311   5.042   3.820  0.3040  0.3413  1.7056
  872MOL0     H15092   5.462   5.335   4.102  0.3281  0.4918 -5.6353
  872MOL0     H15093   5.486   5.575   4.211  1.3161  1.4955 -2.9411
  872MOL0     H15094   5.132   5.827   4.268 -0.3464  1.3696 -1.3420
  872MOL0     H15095   5.205   5.884   4.124 -1.5238 -1.5137  0.1461
  872MOL0     H15096   5.376   6.005   4.247 -0.3675  2.5715  1.2269
  872MOL0     H15097   5.230   6.055   4.332 -0.2723  1.4596 -1.9630
  872MOL0     H15098   5.444   5.859   4.422  1.1782  0.5546  4.4034
  872MOL0     H15099   5.275   5.854   4.482 -0.0320  0.2830 -0.3941
  872MOL0     H15100   5.296   6.094   4.551  0.3540  1.0229  0.3196
  872MOL0     H15101   5.390   5.979   4.644 -1.9240 -0.1611 -0.5780
  872MOL0     H15102   5.720   6.175   4.486  1.5311 -4.3648  2.0869
  872MOL0     H15103   5.096   5.660   4.101  0.3974  1.7677  1.3100
  872MOL0     H15104   5.062   5.424   4.036 -0.6236 -0.2582  3.7098
  873MOL0     O15105   5.519  11.103   7.699  0.4807 -0.3984  0.4575
  873MOL0     C15106   5.567  11.162   7.793  0.6656  0.0490  0.0807
  873MOL0     O15107   5.524  11.157   7.918 -0.9867  0.3172  0.0236
  873MOL0     C15108   5.406  11.092   7.933 -0.0164 -0.1240 -0.4574
  873MOL0     C15109   5.402  10.949   7.924 -0.3556  0.1928 -0.0455
  873MOL0     C15110   5.279  10.877   7.922 -0.7721  0.1702  0.4625
  873MOL0     C15111   5.160  10.949   7.935 -0.8950 -0.0156 -1.1802
  873MOL0     O15112   5.041  10.897   7.916  0.0522  0.2378 -1.0138
  873MOL0     C15113   4.965  10.844   8.027  0.1340 -0.1267 -0.5523
  873MOL0     C15114   4.848  10.941   8.066  0.3415 -0.1192 -0.3662
  873MOL0     C15115   4.729  10.927   7.975 -0.1451  1.0870  0.9838
  873MOL0     C15116   4.632  11.043   7.981 -0.3992  0.4801  0.1740
  873MOL0     C15117   4.542  11.028   8.103  0.1510  0.4230  0.4092
  873MOL0     C15118   4.446  11.154   8.090 -0.2046  0.4395  0.3934
  873MOL0     C15119   4.337  11.174   8.197  0.4371 -0.5788  0.2036
  873MOL0     C15120   4.239  11.065   8.225 -0.2182  0.5097  0.3156
  873MOL0     N15121   4.146  11.055   8.112  0.2473 -0.0123 -0.6280
  873MOL0     C15122   4.074  11.162   8.056 -0.8107 -0.0894 -0.0279
  873MOL0     C15123   3.981  11.100   7.987 -0.0755  0.2479  0.3409
  873MOL0     C15124   3.858  11.178   7.929  1.3965  0.3421  0.2815
  873MOL0     C15125   3.911  11.264   7.813  0.4304  0.7097 -0.0151
  873MOL0     C15126   4.004  11.203   7.705 -0.2990  0.4602 -0.0177
  873MOL0     C15127   3.967  11.057   7.658  0.9137 -0.0742 -0.1936
  873MOL0     O15128   4.056  10.987   7.571 -0.6029 -0.0132  0.0797
  873MOL0     C15129   4.158  10.909   7.618 -0.2790 -0.0398 -0.1137
  873MOL0     C15130   4.201  10.912   7.746 -0.8830 -0.2999  0.1569
  873MOL0     C15131   4.287  10.815   7.791 -0.3843  0.2973 -0.5129
  873MOL0     C15132   4.347  10.722   7.701  0.5056  0.5119 -0.2453
  873MOL0     C15133   4.451  10.619   7.742  0.3346  0.1545  0.2790
  873MOL0     O15134   4.460  10.577   7.872  0.4299 -0.5635  0.0255
  873MOL0     C15135   4.563  10.483   7.891  0.1540  0.7420 -0.0072
  873MOL0     C15136   4.697  10.503   7.858 -0.0524 -0.4241  0.7272
  873MOL0     C15137   4.802  10.419   7.900  0.1192 -0.2633  0.2880
  873MOL0     C15138   4.767  10.317   7.988 -0.8668 -0.0393 -0.9888
  873MOL0     O15139   4.869  10.229   8.021  0.6541 -0.5775  0.6533
  873MOL0     C15140   4.918  10.241   8.151 -0.2044  0.2137  0.2586
  873MOL0     C15141   5.053  10.314   8.164 -0.1756  0.2561  0.3913
  873MOL0     C15142   5.175  10.230   8.149 -0.2773 -0.8276  0.5202
  873MOL0     C15143   5.315  10.298   8.139 -0.5683 -0.0055  0.7661
  873MOL0     C15144   5.328  10.419   8.046 -0.2565 -1.4772 -0.0609
  873MOL0     C15145   5.486  10.442   8.008  0.9991  0.1985 -0.5155
  873MOL0     C15146   5.519  10.424   7.865 -0.3571  0.3088  0.0576
  873MOL0     C15147   5.469  10.291   7.799 -0.6551  0.3322  1.1267
  873MOL0    Cl15148   5.608  10.202   7.711 -0.6419 -0.0329  0.4887
  873MOL0     C15149   4.632  10.281   8.007 -0.3568 -0.3754 -0.3243
  873MOL0     C15150   4.529  10.367   7.958 -0.7395  0.0200  0.5924
  873MOL0     O15151   4.504  10.561   7.651 -0.5915  0.6361 -0.2504
  873MOL0     C15152   4.293  10.717   7.569  0.4236  0.4436 -1.0841
  873MOL0     C15153   4.206  10.808   7.524 -0.4863 -0.1356 -0.2725
  873MOL0     N15154   3.990  10.967   8.003 -0.8081 -0.6484  0.0051
  873MOL0     N15155   4.077  10.943   8.092 -0.8107  0.2047 -0.1877
  873MOL0     C15156   5.167  11.087   7.965 -0.1716  0.4520 -0.5020
  873MOL0     C15157   5.291  11.156   7.966  0.4370 -0.4913 -0.4262
  873MOL0     C15158   5.668  11.261   7.775 -0.3708 -1.3037  1.0245
  873MOL0     C15159   5.752  11.299   7.878 -0.6669  0.1599 -0.9968
  873MOL0     C15160   5.870  11.374   7.852  0.9643 -0.1194 -0.3061
  873MOL0     C15161   5.897  11.419   7.719 -0.4616 -0.3861 -0.2117
  873MOL0     O15162   6.011  11.490   7.689  0.3057  0.0045 -0.4219
  873MOL0     C15163   5.995  11.635   7.676  0.3373  0.0322  0.3455
  873MOL0     C15164   6.104  11.710   7.756  1.4851  0.5869 -0.4041
  873MOL0     C15165   6.247  11.673   7.718 -0.5299 -0.4452  0.7298
  873MOL0     C15166   6.292  11.726   7.579  0.0204 -0.4367 -0.0025
  873MOL0     C15167   6.259  11.870   7.560 -0.6057 -0.3665  0.1559
  873MOL0     C15168   6.240  11.993   7.558 -0.0189 -0.0843  0.4489
  873MOL0     C15169   5.797  11.409   7.620 -0.4161  0.5710  0.2358
  873MOL0     C15170   5.695  11.317   7.645 -0.1582 -0.0811  1.3148
  873MOL0     H15171   5.496  10.901   7.898 -0.8109  0.0846 -1.5962
  873MOL0     H15172   5.267  10.770   7.911 -0.3057 -0.3709  3.8837
  873MOL0     H15173   5.034  10.837   8.111  1.2017 -2.7609 -1.5578
  873MOL0     H15174   4.932  10.742   8.010 -1.0327 -0.4757  3.0336
  873MOL0     H15175   4.895  11.040   8.063  3.1569 -1.3516 -0.0891
  873MOL0     H15176   4.801  10.920   8.162  2.8090 -1.2332  0.6873
  873MOL0     H15177   4.676  10.833   7.995  1.8832  0.0739  1.7941
  873MOL0     H15178   4.762  10.924   7.870 -1.0742 -1.7435  0.6863
  873MOL0     H15179   4.686  11.138   7.974  3.0409 -1.4281 -3.4279
  873MOL0     H15180   4.560  11.031   7.900  0.2514 -1.8132 -0.1266
  873MOL0     H15181   4.600  11.038   8.195  0.4542  2.9370  0.0121
  873MOL0     H15182   4.476  10.941   8.110 -0.1988  0.6493  0.0181
  873MOL0     H15183   4.391  11.158   7.996  2.9184  0.7527 -1.5778
  873MOL0     H15184   4.507  11.245   8.080  0.6702 -0.2119 -0.4709
  873MOL0     H15185   4.387  11.192   8.293  0.1764  1.7201 -0.0328
  873MOL0     H15186   4.284  11.265   8.167  0.5938  0.0556  1.7567
  873MOL0     H15187   4.183  11.105   8.309 -1.7333  1.6873 -1.2004
  873MOL0     H15188   4.285  10.968   8.247  0.6015  0.9586  0.6196
  873MOL0     H15189   4.079  11.268   8.080  0.5037 -0.5290  1.9619
  873MOL0     H15190   3.813  11.235   8.010 -2.2038 -0.6385 -0.8627
  873MOL0     H15191   3.788  11.102   7.892 -0.5583  2.6132 -0.9736
  873MOL0     H15192   3.970  11.342   7.862  1.1482  0.1222  0.0735
  873MOL0     H15193   3.828  11.313   7.762 -0.8059 -0.5375  0.7002
  873MOL0     H15194   3.994  11.263   7.614 -1.8428  2.4378  1.3828
  873MOL0     H15195   4.105  11.192   7.746 -0.7409  0.0246  0.9789
  873MOL0     H15196   3.871  11.069   7.608 -1.2227  3.3236  4.1039
  873MOL0     H15197   3.934  10.988   7.737 -0.8622  1.0782  0.0995
  873MOL0     H15198   4.168  10.992   7.812  0.2725  1.1707 -0.9842
  873MOL0     H15199   4.312  10.800   7.895  4.0363 -1.1116 -1.5578
  873MOL0     H15200   4.705  10.593   7.798  2.6375 -2.9524 -3.1038
  873MOL0     H15201   4.909  10.429   7.888  0.0902  1.3743  1.1249
  873MOL0     H15202   4.939  10.139   8.182  0.6787 -0.2875 -1.8143
  873MOL0     H15203   4.850  10.287   8.224  0.3771  0.9502  0.3548
  873MOL0     H15204   5.059  10.373   8.256  0.0973 -0.5423  0.8982
  873MOL0     H15205   5.073  10.385   8.083  3.9043 -1.5884 -0.4567
  873MOL0     H15206   5.168  10.152   8.072  0.4536  0.0463 -0.4694
  873MOL0     H15207   5.182  10.169   8.239 -1.2792 -0.5268  0.8242
  873MOL0     H15208   5.368  10.322   8.231  1.7073 -2.5206  0.2193
  873MOL0     H15209   5.375  10.216   8.099  1.6696  2.3374 -1.0397
  873MOL0     H15210   5.288  10.508   8.096 -2.5228 -1.0792 -2.3413
  873MOL0     H15211   5.270  10.416   7.953 -0.8592 -1.7770  0.3173
  873MOL0     H15212   5.550  10.392   8.081  1.8560  2.8189  0.6260
  873MOL0     H15213   5.511  10.546   8.029 -0.2927  0.1778  1.3602
  873MOL0     H15214   5.473  10.503   7.804  0.9118  0.1622 -1.1417
  873MOL0     H15215   5.626  10.442   7.860 -0.3850  1.0992  1.6732
  873MOL0     H15216   5.394  10.315   7.723  1.4648 -0.9879 -1.5959
  873MOL0     H15217   5.424  10.223   7.871 -1.8413  1.4214  1.4620
  873MOL0     H15218   4.587  10.199   8.062  1.8060 -1.7732 -0.5088
  873MOL0     H15219   4.427  10.349   7.989 -0.9550  0.3161  0.0535
  873MOL0     H15220   4.320  10.630   7.510  2.0107 -1.4106  2.0988
  873MOL0     H15221   4.169  10.807   7.422  0.6828  0.5314 -0.7184
  873MOL0     H15222   5.080  11.145   7.994 -0.6607 -0.7134  0.3970
  873MOL0     H15223   5.291  11.261   7.995 -2.7161 -0.3565 -0.5655
  873MOL0     H15224   5.734  11.262   7.978 -1.3946  0.0225 -1.1719
  873MOL0     H15225   5.942  11.388   7.932  1.2852  0.2188 -0.6514
  873MOL0     H15226   5.902  11.664   7.725  1.2550 -0.4377  2.5255
  873MOL0     H15227   6.006  11.668   7.572  2.3048  0.1887  0.5601
  873MOL0     H15228   6.089  11.818   7.747 -0.9683  0.4843  1.4297
  873MOL0     H15229   6.102  11.688   7.863 -0.5800 -0.7166 -0.6435
  873MOL0     H15230   6.268  11.566   7.727  1.1174 -0.1560  0.5644
  873MOL0     H15231   6.312  11.721   7.791 -0.3408  0.0364  0.2496
  873MOL0     H15232   6.395  11.699   7.556  0.2580 -0.0128  0.5466
  873MOL0     H15233   6.234  11.682   7.497 -2.1431 -1.8139  2.1078
  873MOL0     H15234   6.246  12.100   7.562  2.4616 -0.1775  1.8270
  873MOL0     H15235   5.817  11.443   7.519 -2.3842 -0.9022 -0.7235
  873MOL0     H15236   5.636  11.302   7.556  1.3800 -1.5907  0.5017
  874MOL0     O15237   9.009   8.705   2.235  0.2310  0.5096 -0.4049
  874MOL0     C15238   8.933   8.714   2.139  0.2819  0.2936 -0.0088
  874MOL0     O15239   8.978   8.750   2.016  0.5930  0.0883 -0.0096
  874MOL0     C15240   9.091   8.836   2.009 -0.3293 -0.1762 -0.5179
  874MOL0     C15241   9.179   8.818   1.896 -0.5877  0.1988 -0.8534
  874MOL0     C15242   9.300   8.886   1.886 -0.4757 -0.6972 -0.9149
  874MOL0     C15243   9.340   8.979   1.993 -0.1017  0.3955 -0.4378
  874MOL0     O15244   9.468   9.038   1.976 -0.2413  0.5092  0.3417
  874MOL0     C15245   9.497   9.150   2.057 -0.5628  0.5085 -0.6284
  874MOL0     C15246   9.640   9.189   2.020  0.1217  0.5120  0.6699
  874MOL0     C15247   9.713   9.258   2.138 -0.2088  0.1243  0.2216
  874MOL0     C15248   9.852   9.310   2.109 -0.0265 -0.0540 -0.1592
  874MOL0     C15249   9.917   9.384   2.234  0.7207  0.7806  0.4526
  874MOL0     C15250  10.068   9.411   2.223 -0.9913 -0.9729  1.3061
  874MOL0     C15251  10.104   9.550   2.269 -0.4932  0.3731  0.1601
  874MOL0     C15252  10.112   9.585   2.424  0.2973  0.6543  0.1170
  874MOL0     N15253  10.124   9.731   2.440  0.1441  0.8997 -0.7249
  874MOL0     C15254  10.246   9.797   2.413 -0.0474 -1.1261 -0.6842
  874MOL0     C15255  10.205   9.931   2.408 -0.1566 -0.8625 -0.4748
  874MOL0     C15256  10.283  10.060   2.394  0.2223  0.0710  0.1975
  874MOL0     C15257  10.361  10.094   2.523 -0.2881 -0.3031  0.8446
  874MOL0     C15258  10.458  10.225   2.510  0.7449 -0.5155 -0.2468
  874MOL0     C15259  10.359  10.343   2.522 -0.0899  0.6576  0.9464
  874MOL0     O15260  10.329  10.379   2.655 -0.6421  0.1408  0.4047
  874MOL0     C15261  10.417  10.440   2.733  0.4694 -0.6205  0.9005
  874MOL0     C15262  10.369  10.485   2.852 -0.8359  0.1474 -0.5644
  874MOL0     C15263  10.447  10.542   2.952 -0.9628  0.6730  0.0138
  874MOL0     C15264  10.587  10.547   2.932  0.0066 -0.2526  0.0287
  874MOL0     C15265  10.676  10.599   3.038 -0.4109  0.6286 -0.0254
  874MOL0     O15266  10.615  10.629   3.159 -0.8561 -0.0545 -0.7906
  874MOL0     C15267  10.691  10.664   3.265  0.2702  1.0115  0.1678
  874MOL0     C15268  10.791  10.591   3.337 -0.1584 -0.0848 -0.0657
  874MOL0     C15269  10.879  10.658   3.432  0.0662 -1.2091  0.2663
  874MOL0     C15270  10.858  10.791   3.464 -0.8372 -0.3363  0.8064
  874MOL0     O15271  10.925  10.843   3.568  0.2556 -0.3615  0.1174
  874MOL0     C15272  10.903  10.971   3.619 -0.6792  0.6304  0.7608
  874MOL0     C15273  10.801  10.957   3.728 -0.5820  0.4424 -0.5874
  874MOL0     C15274  10.816  10.840   3.827  0.3024  0.2159  0.0012
  874MOL0     C15275  10.954  10.825   3.875 -0.5278 -0.3913  0.1713
  874MOL0     C15276  10.965  10.711   3.987 -0.0671 -0.4933 -1.0270
  874MOL0     C15277  10.987  10.571   3.932 -0.7298  0.2474  0.5895
  874MOL0     C15278  11.122  10.559   3.862  0.5346 -0.0567  0.0721
  874MOL0     C15279  11.105  10.475   3.737  0.3840 -0.0562  0.0825
  874MOL0    Cl15280  11.075  10.307   3.773  0.2568 -0.0268 -0.0244
  874MOL0     C15281  10.746  10.864   3.401  0.1974  0.7028 -0.1248
  874MOL0     C15282  10.663  10.801   3.307  0.0452 -0.0036 -0.4465
  874MOL0     O15283  10.794  10.590   3.016 -0.2582  0.4629 -0.6110
  874MOL0     C15284  10.644  10.520   2.803  0.2844  0.1698  0.9289
  874MOL0     C15285  10.555  10.474   2.704  1.2635  0.3601 -0.3913
  874MOL0     N15286  10.062   9.937   2.419 -0.2509  1.2968 -0.6553
  874MOL0     N15287  10.020   9.816   2.446 -1.5356 -0.2280 -0.0722
  874MOL0     C15288   9.251   8.993   2.101 -0.3998 -0.9984 -0.2011
  874MOL0     C15289   9.136   8.927   2.110  0.0560 -0.0966 -0.8225
  874MOL0     C15290   8.794   8.691   2.168  0.8195 -0.8113 -0.1428
  874MOL0     C15291   8.751   8.664   2.303  0.6157  0.5040  0.6418
  874MOL0     C15292   8.616   8.628   2.332 -0.4960  0.6678 -1.1171
  874MOL0     C15293   8.516   8.622   2.231  0.5488  0.7618  1.0834
  874MOL0     O15294   8.393   8.577   2.270 -0.6486 -1.1678  0.3161
  874MOL0     C15295   8.283   8.603   2.181  1.5755  0.4163 -0.5882
  874MOL0     C15296   8.147   8.598   2.263 -0.3823 -0.2593  0.6484
  874MOL0     C15297   8.115   8.709   2.363  0.1989 -0.1667 -0.9706
  874MOL0     C15298   7.963   8.729   2.389  0.0109 -0.0829 -0.1019
  874MOL0     C15299   7.944   8.853   2.466  0.3761 -0.2404 -0.3539
  874MOL0     C15300   7.910   8.962   2.516 -0.4032  0.8952 -0.1957
  874MOL0     C15301   8.557   8.657   2.094  0.6443  0.3165 -0.8992
  874MOL0     C15302   8.691   8.685   2.064 -0.0234  0.2228 -0.0482
  874MOL0     H15303   9.154   8.744   1.820 -1.1818 -1.7215  1.1070
  874MOL0     H15304   9.378   8.872   1.812  1.1005 -2.6603  0.9674
  874MOL0     H15305   9.479   9.117   2.160  0.5059 -3.5515 -1.5762
  874MOL0     H15306   9.433   9.235   2.033 -0.9056  1.0440  1.8816
  874MOL0     H15307   9.642   9.263   1.939 -1.5476 -3.7734 -3.7944
  874MOL0     H15308   9.689   9.098   1.985  1.8151  0.6500  2.5314
  874MOL0     H15309   9.739   9.182   2.213  2.3839  0.3646 -0.3377
  874MOL0     H15310   9.652   9.337   2.184 -2.0792 -1.6648  1.0318
  874MOL0     H15311   9.914   9.225   2.080  0.3510 -0.0947  0.7300
  874MOL0     H15312   9.842   9.389   2.034 -0.7396  1.2959  1.2693
  874MOL0     H15313   9.902   9.328   2.326 -1.9567 -1.7676 -1.3308
  874MOL0     H15314   9.871   9.481   2.254 -2.8369 -0.9622  1.6853
  874MOL0     H15315  10.101   9.396   2.120 -0.8618 -0.3538  1.2546
  874MOL0     H15316  10.120   9.344   2.292  0.2032 -1.3164  0.1215
  874MOL0     H15317  10.202   9.571   2.225 -0.2755 -0.5908  0.1664
  874MOL0     H15318  10.034   9.622   2.225  0.3354 -0.2106 -2.2369
  874MOL0     H15319  10.194   9.522   2.458 -0.2277  0.0160  0.2399
  874MOL0     H15320  10.029   9.541   2.480  1.4802  1.5314  2.6662
  874MOL0     H15321  10.345   9.756   2.394  0.2080  0.1134 -2.2775
  874MOL0     H15322  10.216  10.141   2.363 -0.7335 -1.0734 -0.8239
  874MOL0     H15323  10.361  10.044   2.319 -1.9865 -0.8264 -2.0542
  874MOL0     H15324  10.424  10.006   2.542  1.6401  0.1793 -2.5351
  874MOL0     H15325  10.290  10.102   2.606  0.6488 -1.7705  1.8467
  874MOL0     H15326  10.542  10.235   2.579 -0.0988 -0.0507  0.7455
  874MOL0     H15327  10.501  10.220   2.410 -0.1782 -1.0536 -0.6300
  874MOL0     H15328  10.260  10.317   2.484 -0.2921 -0.8188  2.3656
  874MOL0     H15329  10.410  10.426   2.473  3.0109 -0.9255  1.2337
  874MOL0     H15330  10.263  10.486   2.876 -0.7359 -2.0034  0.1651
  874MOL0     H15331  10.403  10.577   3.045 -1.2006  2.7429 -0.8127
  874MOL0     H15332  10.810  10.487   3.311  1.2451 -0.2911  1.5861
  874MOL0     H15333  10.959  10.610   3.489 -0.7792 -2.9770  0.0116
  874MOL0     H15334  10.877  11.044   3.543 -1.7822 -1.0290 -0.5135
  874MOL0     H15335  10.993  11.001   3.674 -0.3246 -1.1607  1.2185
  874MOL0     H15336  10.701  10.942   3.686 -1.6354  0.5661  1.7042
  874MOL0     H15337  10.792  11.045   3.792 -2.0826 -0.6129  0.7508
  874MOL0     H15338  10.790  10.752   3.768  3.0249 -1.5825  1.2918
  874MOL0     H15339  10.746  10.848   3.910  1.9415 -1.1928  1.6120
  874MOL0     H15340  11.019  10.812   3.787  2.1342  3.3349  1.2990
  874MOL0     H15341  11.000  10.919   3.908  2.6952 -1.0591 -1.9035
  874MOL0     H15342  10.868  10.708   4.038  0.6313  0.2713  0.4001
  874MOL0     H15343  11.043  10.739   4.058 -1.7052  0.7302  0.3572
  874MOL0     H15344  10.906  10.532   3.870  0.2117 -2.3713  0.8707
  874MOL0     H15345  10.998  10.508   4.020  0.9720 -2.9803 -1.7032
  874MOL0     H15346  11.167  10.654   3.834 -1.4292  0.5501 -1.2063
  874MOL0     H15347  11.188  10.505   3.931  0.8369 -0.2557 -0.3709
  874MOL0     H15348  11.196  10.469   3.676  0.5931 -2.6064  0.5174
  874MOL0     H15349  11.026  10.502   3.667 -0.2604 -0.7205  0.5310
  874MOL0     H15350  10.721  10.968   3.422  0.8510  0.8195  0.1140
  874MOL0     H15351  10.575  10.845   3.260 -1.7077 -2.6459  0.1314
  874MOL0     H15352  10.747  10.545   2.784  0.4884 -0.6405  0.9402
  874MOL0     H15353  10.590  10.458   2.603  0.6490 -0.1184 -0.5318
  874MOL0     H15354   9.282   9.048   2.190  3.5197 -1.4263 -1.1042
  874MOL0     H15355   9.081   8.951   2.201  0.5342  0.5724 -0.7012
  874MOL0     H15356   8.816   8.658   2.391 -0.2481 -0.0078  1.2617
  874MOL0     H15357   8.583   8.587   2.427  1.2283  0.0221 -0.7561
  874MOL0     H15358   8.284   8.532   2.097 -0.0875  1.2314 -1.3555
  874MOL0     H15359   8.299   8.701   2.135  1.6532 -0.1900 -1.9242
  874MOL0     H15360   8.072   8.597   2.183 -0.1205  3.7769  0.1584
  874MOL0     H15361   8.132   8.504   2.317 -0.8919 -0.1715  0.6646
  874MOL0     H15362   8.146   8.805   2.320  0.4051  0.8781  1.3201
  874MOL0     H15363   8.179   8.695   2.451 -0.2293 -2.5992 -0.9899
  874MOL0     H15364   7.922   8.731   2.288  1.5998 -0.9977 -0.8033
  874MOL0     H15365   7.923   8.645   2.446  3.9750 -0.7303  2.1063
  874MOL0     H15366   7.911   9.063   2.549 -2.2969  0.7196  0.5166
  874MOL0     H15367   8.478   8.669   2.021 -1.3870 -2.1113  0.7119
  874MOL0     H15368   8.724   8.718   1.965  3.7668  0.6778  1.1839
  875MOL0     O15369   5.279   1.913   2.576  0.2781 -0.2091 -0.2410
  875MOL0     C15370   5.394   1.906   2.531  1.0400 -0.7600  0.7960
  875MOL0     O15371   5.500   1.986   2.558 -0.3244  0.0811  0.2720
  875MOL0     C15372   5.487   2.085   2.650 -0.7826 -0.8302  0.2669
  875MOL0     C15373   5.494   2.062   2.788  0.4648 -0.5711 -0.0816
  875MOL0     C15374   5.498   2.173   2.873 -0.0674 -0.1968 -0.5134
  875MOL0     C15375   5.492   2.307   2.825 -0.9189  1.0818 -0.0571
  875MOL0     O15376   5.493   2.422   2.900  0.2222 -0.4660 -0.5016
  875MOL0     C15377   5.615   2.452   2.984 -0.3418  0.2580 -0.3404
  875MOL0     C15378   5.580   2.566   3.073  0.6818  1.0339  0.2411
  875MOL0     C15379   5.682   2.614   3.166  0.2313  0.5365 -0.0046
  875MOL0     C15380   5.727   2.498   3.266  0.7565 -0.4890  0.6354
  875MOL0     C15381   5.777   2.563   3.394 -0.4407 -0.4051  0.2915
  875MOL0     C15382   5.819   2.460   3.498  0.4703 -0.2826  0.2323
  875MOL0     C15383   5.943   2.386   3.454 -0.9429  0.1448 -0.3372
  875MOL0     C15384   6.003   2.310   3.580  0.4706 -0.0862 -0.0635
  875MOL0     N15385   5.915   2.210   3.648 -0.4272 -0.4416 -0.3988
  875MOL0     C15386   5.800   2.233   3.715 -0.0166 -0.1271  0.4446
  875MOL0     C15387   5.751   2.116   3.755  0.5653  0.7402  0.3867
  875MOL0     C15388   5.625   2.098   3.837  1.0998  0.3848 -0.3582
  875MOL0     C15389   5.488   2.142   3.761 -1.3167  0.2650 -0.3882
  875MOL0     C15390   5.392   2.153   3.888 -1.3781  0.7175  0.8058
  875MOL0     C15391   5.246   2.180   3.849  0.3266  0.0767 -0.0944
  875MOL0     O15392   5.220   2.318   3.826  0.7029  0.2241  0.0697
  875MOL0     C15393   5.126   2.388   3.900  0.2453 -0.4065 -0.4912
  875MOL0     C15394   5.048   2.479   3.826 -0.2198  0.6898  0.0100
  875MOL0     C15395   4.957   2.562   3.889  0.1841 -0.2298 -0.0748
  875MOL0     C15396   4.928   2.536   4.027 -0.1752 -0.1213  0.0436
  875MOL0     C15397   4.833   2.628   4.099 -1.1996  0.4276  0.7445
  875MOL0     O15398   4.789   2.598   4.228  0.0815  0.3926 -0.2326
  875MOL0     C15399   4.687   2.666   4.291  0.0103 -0.8125  0.2483
  875MOL0     C15400   4.583   2.589   4.350 -0.7916  0.0769 -0.4313
  875MOL0     C15401   4.475   2.656   4.400 -0.1187  0.0924  0.6137
  875MOL0     C15402   4.448   2.795   4.391 -0.9151  0.7751  0.0335
  875MOL0     O15403   4.336   2.847   4.457  0.2302  0.8605  0.0563
  875MOL0     C15404   4.330   2.980   4.514 -0.0699  0.1952 -0.0249
  875MOL0     C15405   4.244   2.984   4.631  0.1002  1.3714  0.2405
  875MOL0     C15406   4.291   2.909   4.756 -1.1090 -0.4155 -0.1403
  875MOL0     C15407   4.205   2.947   4.871 -0.0239  0.5027 -0.7832
  875MOL0     C15408   4.251   2.904   5.016 -0.2127  0.5337  0.5560
  875MOL0     C15409   4.155   2.950   5.126 -0.9251 -0.4643 -0.0190
  875MOL0     C15410   4.202   2.904   5.258  0.1794  0.1393  0.1053
  875MOL0     C15411   4.186   2.754   5.292 -0.4952 -0.3880  0.0256
  875MOL0    Cl15412   4.014   2.714   5.282  0.6269  0.4510  0.4294
  875MOL0     C15413   4.544   2.874   4.319 -0.3938 -0.1363 -1.2750
  875MOL0     C15414   4.659   2.807   4.281  0.1791  0.2105  0.9530
  875MOL0     O15415   4.818   2.731   4.040 -0.5371 -0.4918  0.1278
  875MOL0     C15416   5.016   2.455   4.104 -0.3421  1.1195  0.5514
  875MOL0     C15417   5.108   2.374   4.033  0.2791  0.0124  0.9852
  875MOL0     N15418   5.836   2.012   3.710  0.1092 -0.5283 -1.1717
  875MOL0     N15419   5.938   2.074   3.663  0.4903 -0.4029  0.2781
  875MOL0     C15420   5.486   2.322   2.687  0.3266 -0.0175  0.9528
  875MOL0     C15421   5.488   2.211   2.597 -0.3762  0.1374 -0.6088
  875MOL0     C15422   5.423   1.783   2.442  0.0298 -0.1678 -0.1892
  875MOL0     C15423   5.311   1.704   2.406 -0.3516  0.7973  0.3799
  875MOL0     C15424   5.343   1.580   2.338 -0.4126  0.4678 -0.5087
  875MOL0     C15425   5.473   1.537   2.302  0.2387  1.0333 -0.3296
  875MOL0     O15426   5.481   1.421   2.237 -0.7239  0.4620 -0.2953
  875MOL0     C15427   5.556   1.320   2.306 -0.0850  0.1845 -0.3287
  875MOL0     C15428   5.513   1.184   2.259 -0.8009  0.0065  0.2435
  875MOL0     C15429   5.369   1.156   2.305 -0.0981 -0.3369 -0.1179
  875MOL0     C15430   5.325   1.014   2.301  0.3807 -0.5250  0.4016
  875MOL0     C15431   5.331   0.969   2.158 -0.1583 -0.2031 -0.5687
  875MOL0     C15432   5.333   0.924   2.040  0.2524 -0.3607 -0.3374
  875MOL0     C15433   5.584   1.617   2.342  0.0488 -0.0263 -0.3615
  875MOL0     C15434   5.551   1.741   2.407 -0.0989  0.1480  1.0450
  875MOL0     H15435   5.526   1.966   2.826  1.3478 -0.5470 -0.7278
  875MOL0     H15436   5.512   2.150   2.978 -0.9115  2.0896  0.1665
  875MOL0     H15437   5.692   2.484   2.913 -1.3564  0.9129 -1.1701
  875MOL0     H15438   5.648   2.365   3.042  0.2193  0.3622 -0.4969
  875MOL0     H15439   5.496   2.536   3.136  0.5747 -4.9316 -2.0943
  875MOL0     H15440   5.554   2.649   3.006 -0.4856  0.6702  0.2164
  875MOL0     H15441   5.641   2.696   3.225 -1.9011  0.0951 -0.7637
  875MOL0     H15442   5.769   2.665   3.124 -0.7353  2.5497  0.3131
  875MOL0     H15443   5.651   2.426   3.296  0.9709 -0.9317  0.1276
  875MOL0     H15444   5.811   2.449   3.215  0.0201  0.5669 -1.7406
  875MOL0     H15445   5.702   2.617   3.452 -0.5119 -0.3483  0.1468
  875MOL0     H15446   5.864   2.625   3.369  1.4268 -3.1595 -0.4548
  875MOL0     H15447   5.735   2.390   3.511  0.3727 -0.4136 -0.9675
  875MOL0     H15448   5.833   2.514   3.592  2.1300 -0.1309 -0.0824
  875MOL0     H15449   5.921   2.328   3.364  1.0934  1.2350 -1.6105
  875MOL0     H15450   6.019   2.450   3.408  0.0896 -1.1974 -0.5637
  875MOL0     H15451   6.029   2.386   3.655 -1.2121 -0.3722  0.8574
  875MOL0     H15452   6.102   2.273   3.550  1.0966  2.0532 -0.8228
  875MOL0     H15453   5.757   2.332   3.729  0.0915 -0.1263  0.7894
  875MOL0     H15454   5.637   2.164   3.924  2.8586 -0.2946 -0.0421
  875MOL0     H15455   5.619   1.996   3.876 -1.8116  0.9091  0.7758
  875MOL0     H15456   5.448   2.064   3.695 -1.4511  0.0995 -0.1136
  875MOL0     H15457   5.509   2.236   3.711  0.6728 -0.3451 -0.8000
  875MOL0     H15458   5.378   2.063   3.948 -0.4153  0.5770  0.8333
  875MOL0     H15459   5.435   2.229   3.953  2.1390 -0.5404  0.1626
  875MOL0     H15460   5.178   2.140   3.925  2.3313  1.0179  2.2952
  875MOL0     H15461   5.218   2.130   3.755 -1.4985  1.1498 -0.1655
  875MOL0     H15462   5.069   2.487   3.719  0.8854  1.6459  0.2821
  875MOL0     H15463   4.903   2.639   3.834 -0.1821  1.9756  3.1113
  875MOL0     H15464   4.579   2.482   4.331  2.6131  0.0836 -1.9569
  875MOL0     H15465   4.386   2.600   4.428  0.3570 -0.6549  0.6457
  875MOL0     H15466   4.289   3.051   4.441 -1.6916 -0.1958  0.4595
  875MOL0     H15467   4.433   3.011   4.533  0.2186 -0.5543 -0.3421
  875MOL0     H15468   4.152   2.936   4.595  0.6733  1.1678 -1.0035
  875MOL0     H15469   4.227   3.090   4.651 -2.1688  0.7311  2.1413
  875MOL0     H15470   4.392   2.945   4.776 -2.7201  4.1098  1.0148
  875MOL0     H15471   4.301   2.803   4.732  3.1199  0.2249 -2.2554
  875MOL0     H15472   4.206   3.056   4.863 -0.2642  0.5541 -0.1944
  875MOL0     H15473   4.106   2.912   4.841  0.0399  0.2757 -0.7286
  875MOL0     H15474   4.331   2.977   5.036  0.4303  0.1060 -0.3615
  875MOL0     H15475   4.280   2.799   5.022 -4.7420 -0.9509 -0.0146
  875MOL0     H15476   4.052   2.919   5.102 -1.0557 -1.3682  1.5707
  875MOL0     H15477   4.155   3.059   5.128  4.0253 -0.2618  2.0921
  875MOL0     H15478   4.305   2.940   5.263  0.3336 -0.3747  0.8614
  875MOL0     H15479   4.152   2.963   5.335 -1.5439 -2.4866  1.1350
  875MOL0     H15480   4.233   2.723   5.386 -1.9190 -1.5004  0.4016
  875MOL0     H15481   4.228   2.693   5.211 -2.6017 -0.0498 -1.3825
  875MOL0     H15482   4.537   2.982   4.305 -1.4662 -0.2233 -1.4501
  875MOL0     H15483   4.736   2.867   4.233  0.8873 -0.8742  0.6990
  875MOL0     H15484   4.997   2.453   4.211 -2.2170 -3.6802  0.3464
  875MOL0     H15485   5.162   2.298   4.089  0.4724  0.4403  1.3827
  875MOL0     H15486   5.468   2.416   2.636 -0.8692 -1.0150 -0.5590
  875MOL0     H15487   5.499   2.236   2.491  2.2237 -0.9966 -0.6775
  875MOL0     H15488   5.207   1.728   2.426 -2.0463 -4.1839 -0.9026
  875MOL0     H15489   5.255   1.517   2.339  0.3970 -0.7015 -0.6123
  875MOL0     H15490   5.535   1.327   2.413  1.1665 -0.7775  0.0139
  875MOL0     H15491   5.663   1.332   2.286 -0.5014  0.4631 -2.7715
  875MOL0     H15492   5.514   1.181   2.149  2.2719  2.0608  0.1015
  875MOL0     H15493   5.579   1.101   2.287  0.7196  0.2416 -2.2916
  875MOL0     H15494   5.314   1.226   2.241  0.5229  1.3981  1.1528
  875MOL0     H15495   5.357   1.182   2.411  1.4582  1.4839 -0.3261
  875MOL0     H15496   5.389   0.953   2.365  1.7865  0.6191  0.1378
  875MOL0     H15497   5.222   1.019   2.339  0.9231  1.8628  1.7481
  875MOL0     H15498   5.348   0.890   1.940 -1.4368 -0.8693 -0.4616
  875MOL0     H15499   5.687   1.589   2.325 -0.2570 -0.8321 -0.9835
  875MOL0     H15500   5.636   1.803   2.434 -0.3012  0.9476 -0.0959
  876MOL0     O15501   6.182  10.093   1.811 -0.2879 -0.5157 -1.8285
  876MOL0     C15502   6.194  10.047   1.926  0.2489 -0.2100  0.2577
  876MOL0     O15503   6.233  10.119   2.035  0.1270  0.3631  0.0832
  876MOL0     C15504   6.244  10.252   2.032 -0.3295  1.0052  0.4076
  876MOL0     C15505   6.356  10.307   2.089  0.0516 -0.6735 -0.7178
  876MOL0     C15506   6.362  10.447   2.107  0.3474  0.2167  1.0852
  876MOL0     C15507   6.268  10.537   2.041 -1.3740  0.7569 -1.3904
  876MOL0     O15508   6.257  10.671   2.058 -0.3272 -0.1634  0.4875
  876MOL0     C15509   6.381  10.742   2.084 -0.3187  0.0216 -1.1911
  876MOL0     C15510   6.444  10.776   1.940  0.6821  0.7665 -0.5926
  876MOL0     C15511   6.561  10.877   1.947 -1.6549 -0.5639  0.0380
  876MOL0     C15512   6.683  10.843   2.032  0.6307  0.0739  0.4769
  876MOL0     C15513   6.770  10.714   2.018 -0.0556  0.2393  0.7550
  876MOL0     C15514   6.875  10.702   2.125  0.3201  0.2456 -0.3554
  876MOL0     C15515   6.992  10.605   2.110  0.8449  0.1495 -0.0624
  876MOL0     C15516   7.089  10.634   1.994  0.4849 -0.2367  0.0822
  876MOL0     N15517   7.161  10.764   2.002  0.1503 -0.2725  0.0194
  876MOL0     C15518   7.126  10.862   1.914  0.2936 -0.6424 -0.9414
  876MOL0     C15519   7.184  10.977   1.958  0.2784  0.3336 -0.5421
  876MOL0     C15520   7.184  11.101   1.857 -0.0633 -0.5856 -1.1472
  876MOL0     C15521   7.282  11.087   1.737 -0.3765  0.7681  0.0142
  876MOL0     C15522   7.292  11.204   1.637 -0.2210  0.7588  0.4859
  876MOL0     C15523   7.288  11.332   1.723  0.3332 -0.3500  0.5131
  876MOL0     O15524   7.155  11.375   1.760 -0.6790  0.2673  0.2489
  876MOL0     C15525   7.048  11.404   1.677 -0.6080  0.4752 -0.2471
  876MOL0     C15526   7.061  11.500   1.574 -0.4993 -0.7687 -0.1484
  876MOL0     C15527   6.960  11.543   1.495 -0.5010  0.2392  0.1751
  876MOL0     C15528   6.830  11.483   1.516  0.4048  0.8187  0.8268
  876MOL0     C15529   6.709  11.528   1.447 -0.6447 -0.1361  0.1682
  876MOL0     O15530   6.740  11.591   1.330  0.4956  0.1205  0.1761
  876MOL0     C15531   6.634  11.615   1.238 -1.2350 -0.6985  0.3501
  876MOL0     C15532   6.656  11.590   1.095 -0.3886  0.0385 -0.3238
  876MOL0     C15533   6.564  11.645   1.003 -0.1448 -0.0704  0.1289
  876MOL0     C15534   6.447  11.708   1.040  0.3881 -0.0457  0.1318
  876MOL0     O15535   6.371  11.743   0.934  0.2950 -0.2593 -0.1442
  876MOL0     C15536   6.232  11.773   0.968 -0.4778  1.4107 -0.7956
  876MOL0     C15537   6.158  11.844   0.857 -0.0959 -0.4732  0.7538
  876MOL0     C15538   6.128  11.759   0.731 -0.1250  0.2029  0.5033
  876MOL0     C15539   6.240  11.720   0.635  0.0141  0.2178  0.3760
  876MOL0     C15540   6.306  11.837   0.552 -0.4791  1.0369  0.0372
  876MOL0     C15541   6.403  11.811   0.431  0.0806  0.2591  0.3447
  876MOL0     C15542   6.316  11.757   0.313 -0.5038 -0.0289 -0.1492
  876MOL0     C15543   6.402  11.700   0.194 -0.5862 -0.1096 -0.1837
  876MOL0    Cl15544   6.319  11.764   0.051 -0.7479 -0.3357 -0.1028
  876MOL0     C15545   6.433  11.739   1.172  1.0205  0.2125 -0.4906
  876MOL0     C15546   6.522  11.692   1.272  0.4422 -1.0299  0.7510
  876MOL0     O15547   6.600  11.495   1.481  1.1306 -0.1798 -0.0979
  876MOL0     C15548   6.817  11.394   1.620  0.0187  1.3174  0.2580
  876MOL0     C15549   6.923  11.357   1.698  0.6303 -1.1799  0.0047
  876MOL0     N15550   7.263  10.937   2.067  0.8438 -0.0112 -0.4454
  876MOL0     N15551   7.239  10.810   2.101 -0.4577 -0.5524  0.0594
  876MOL0     C15552   6.154  10.472   1.985 -0.5002 -0.2453  0.1137
  876MOL0     C15553   6.149  10.334   1.972 -0.1744  0.3567  0.4650
  876MOL0     C15554   6.141   9.911   1.945  0.5345  0.3614 -0.3621
  876MOL0     C15555   6.110   9.868   2.074 -0.3147  0.6394 -0.7049
  876MOL0     C15556   6.054   9.742   2.094  0.2113  0.5941  0.6981
  876MOL0     C15557   6.031   9.651   1.994 -0.6099  0.5413  0.1578
  876MOL0     O15558   5.983   9.523   2.003  0.0113 -0.9957 -0.3311
  876MOL0     C15559   5.991   9.464   2.136 -0.9329  0.5529 -0.1404
  876MOL0     C15560   6.135   9.428   2.180 -0.1010 -0.0041 -0.1195
  876MOL0     C15561   6.135   9.367   2.325 -0.1480 -0.7388  0.9317
  876MOL0     C15562   6.288   9.356   2.359  0.2963  0.1695 -0.6297
  876MOL0     C15563   6.298   9.314   2.501  0.2618 -0.7674  0.1735
  876MOL0     C15564   6.312   9.287   2.618 -0.5297 -0.3312  0.1546
  876MOL0     C15565   6.052   9.700   1.863  0.1505 -0.2199 -0.8143
  876MOL0     C15566   6.116   9.823   1.837 -0.1905  0.0129 -1.3644
  876MOL0     H15567   6.438  10.246   2.126  0.2608 -1.2439 -2.0601
  876MOL0     H15568   6.448  10.477   2.166  2.1650  0.7117 -1.6338
  876MOL0     H15569   6.451  10.683   2.144 -0.2024 -0.1850 -1.5319
  876MOL0     H15570   6.362  10.830   2.147 -1.7277 -1.9850  1.3980
  876MOL0     H15571   6.364  10.806   1.872 -1.3004 -2.2738  0.1920
  876MOL0     H15572   6.482  10.681   1.901  2.0267  1.6977 -1.6583
  876MOL0     H15573   6.523  10.970   1.990 -1.0302 -0.9181  1.4191
  876MOL0     H15574   6.598  10.892   1.845 -1.3512  0.7901  0.3196
  876MOL0     H15575   6.752  10.928   2.031 -0.0931  0.8910  4.5427
  876MOL0     H15576   6.648  10.837   2.135 -1.5151 -1.3583 -0.2621
  876MOL0     H15577   6.816  10.718   1.918 -1.1968 -3.1349 -0.0475
  876MOL0     H15578   6.703  10.627   2.022 -1.3365  1.1067 -0.6740
  876MOL0     H15579   6.810  10.678   2.211  0.7782 -2.2413 -0.6345
  876MOL0     H15580   6.924  10.798   2.142  1.5725  0.1220 -2.8982
  876MOL0     H15581   7.051  10.609   2.202 -0.7143  0.0239  0.9940
  876MOL0     H15582   6.971  10.499   2.099 -0.7996  0.3730  0.5939
  876MOL0     H15583   7.037  10.615   1.900 -1.5569 -2.7016  1.5718
  876MOL0     H15584   7.170  10.561   1.997 -0.9566 -1.9693 -0.9755
  876MOL0     H15585   7.071  10.844   1.822  1.7201  2.2883 -2.5128
  876MOL0     H15586   7.205  11.181   1.928 -0.7400 -2.7832  1.7455
  876MOL0     H15587   7.077  11.116   1.839 -0.2934  0.2023  0.6563
  876MOL0     H15588   7.261  10.997   1.679 -0.6669  2.3259 -2.4319
  876MOL0     H15589   7.382  11.077   1.781  1.3245  1.8429 -3.3043
  876MOL0     H15590   7.384  11.199   1.578 -0.0761  2.0377  0.5859
  876MOL0     H15591   7.220  11.199   1.554 -0.0146 -0.2318  0.3513
  876MOL0     H15592   7.330  11.403   1.652  0.2434  0.7122  1.4944
  876MOL0     H15593   7.362  11.337   1.803  2.4894 -0.2827 -1.4047
  876MOL0     H15594   7.161  11.540   1.562 -0.9023  0.1017 -0.7891
  876MOL0     H15595   6.981  11.617   1.419  0.9415  0.0032  0.3266
  876MOL0     H15596   6.750  11.542   1.068 -0.9300 -0.7394 -0.8631
  876MOL0     H15597   6.576  11.624   0.897 -1.8688 -0.7778  0.0372
  876MOL0     H15598   6.220  11.823   1.065 -3.3822  1.3371 -1.0413
  876MOL0     H15599   6.179  11.678   0.981  0.4368  0.9190 -0.5947
  876MOL0     H15600   6.204  11.934   0.816 -4.3033  0.5445 -2.4485
  876MOL0     H15601   6.065  11.893   0.886 -1.7099 -2.3046 -0.9965
  876MOL0     H15602   6.058  11.814   0.666 -0.7087 -0.2993  0.6941
  876MOL0     H15603   6.079  11.667   0.765  1.1257 -1.2942 -1.5203
  876MOL0     H15604   6.307  11.682   0.712 -2.8494  1.1701  3.5504
  876MOL0     H15605   6.201  11.643   0.567  1.4403  0.8009 -1.1935
  876MOL0     H15606   6.364  11.905   0.616  1.4937 -0.3716 -0.1470
  876MOL0     H15607   6.223  11.899   0.517  0.3341  2.6645  0.8865
  876MOL0     H15608   6.484  11.742   0.458  0.9374  1.9435  2.4237
  876MOL0     H15609   6.452  11.901   0.394  1.0226 -0.7358 -0.9364
  876MOL0     H15610   6.256  11.672   0.347 -1.2145  0.8818  0.9113
  876MOL0     H15611   6.251  11.837   0.276  0.2341  0.2714 -0.8391
  876MOL0     H15612   6.425  11.593   0.191  1.0502  0.1887  0.8900
  876MOL0     H15613   6.501  11.745   0.201  0.6685 -2.7870  0.9329
  876MOL0     H15614   6.349  11.795   1.212 -0.3384 -1.6293 -0.6589
  876MOL0     H15615   6.503  11.712   1.377 -0.2849  3.1079 -0.0052
  876MOL0     H15616   6.718  11.349   1.629  0.3088 -0.0277 -2.2914
  876MOL0     H15617   6.913  11.290   1.782 -2.6737  2.4316  2.8684
  876MOL0     H15618   6.066  10.528   1.954  1.9176  1.3779 -4.7964
  876MOL0     H15619   6.064  10.278   1.933  3.0650 -3.7398 -1.6076
  876MOL0     H15620   6.125   9.940   2.155  0.8045 -2.3881  2.0041
  876MOL0     H15621   6.023   9.727   2.197 -1.0957  1.6162  0.4792
  876MOL0     H15622   5.934   9.371   2.135  0.5106 -0.3687 -1.0842
  876MOL0     H15623   5.934   9.531   2.201 -0.3903 -1.1626  2.2413
  876MOL0     H15624   6.185   9.349   2.123  1.7846  0.5242  0.7230
  876MOL0     H15625   6.181   9.527   2.175  1.0674 -0.4602  1.0341
  876MOL0     H15626   6.084   9.272   2.344 -1.7745  0.4119  2.7323
  876MOL0     H15627   6.090   9.431   2.401 -1.2421 -2.0446  1.4212
  876MOL0     H15628   6.342   9.286   2.294  1.8336 -0.2604  1.0208
  876MOL0     H15629   6.331   9.456   2.367  0.5108  0.0593 -0.3541
  876MOL0     H15630   6.306   9.251   2.718 -4.1025 -1.2632 -0.2389
  876MOL0     H15631   6.041   9.637   1.776 -1.5512  0.8389 -1.4123
  876MOL0     H15632   6.131   9.856   1.734 -1.1030 -1.5656 -2.0444
  877MOL0     O15633   4.196   3.698   2.890  0.1119  0.1419  0.0963
  877MOL0     C15634   4.186   3.806   2.834  0.0548  0.6135  0.0260
  877MOL0     O15635   4.126   3.826   2.713 -0.4838  0.2302  0.7568
  877MOL0     C15636   4.109   3.723   2.623 -1.2428 -0.1009  0.1941
  877MOL0     C15637   3.984   3.733   2.555  0.5131 -0.8392 -0.3478
  877MOL0     C15638   3.951   3.638   2.454 -0.7137 -0.0288 -0.0626
  877MOL0     C15639   4.047   3.544   2.419  0.1675  0.6237 -0.0033
  877MOL0     O15640   4.015   3.447   2.322  0.2274 -0.7870  0.9048
  877MOL0     C15641   3.950   3.332   2.379  0.0494 -0.3637 -0.0641
  877MOL0     C15642   3.938   3.228   2.267  0.0567 -0.4938 -0.3060
  877MOL0     C15643   3.876   3.094   2.309  0.2359 -0.3553  0.0773
  877MOL0     C15644   3.856   3.014   2.179  0.4237  0.0511  0.6201
  877MOL0     C15645   3.756   2.892   2.182 -0.2065  0.5672  0.5392
  877MOL0     C15646   3.772   2.798   2.303 -1.0334 -0.8059 -0.6102
  877MOL0     C15647   3.656   2.699   2.330  0.2266 -0.1382 -0.4557
  877MOL0     C15648   3.644   2.591   2.224 -0.6889  0.4978  0.3712
  877MOL0     N15649   3.577   2.481   2.284 -0.4031 -0.9469 -0.0928
  877MOL0     C15650   3.441   2.457   2.302 -0.3269 -0.7117  0.6309
  877MOL0     C15651   3.439   2.326   2.347  0.6726 -0.5681  0.5153
  877MOL0     C15652   3.322   2.243   2.378 -0.6688  0.1830  0.8901
  877MOL0     C15653   3.322   2.114   2.289  0.3291 -0.5147 -0.9584
  877MOL0     C15654   3.262   2.160   2.155 -0.0992 -0.3663 -0.2435
  877MOL0     C15655   3.214   2.044   2.079 -0.3495  0.0237 -0.0857
  877MOL0     O15656   3.314   1.955   2.037 -0.0442  0.8252 -0.3912
  877MOL0     C15657   3.277   1.834   1.978 -0.1926 -0.2806 -0.2724
  877MOL0     C15658   3.372   1.737   1.964 -0.7186  1.5797 -0.4131
  877MOL0     C15659   3.345   1.601   1.935  1.0471  0.1337  0.0183
  877MOL0     C15660   3.217   1.560   1.886 -0.3726 -0.5440  0.2910
  877MOL0     C15661   3.195   1.424   1.846 -0.6169  0.1449  0.5342
  877MOL0     O15662   3.289   1.375   1.762 -0.6896  0.2903  0.6717
  877MOL0     C15663   3.319   1.232   1.742  0.2288  0.2413  0.2791
  877MOL0     C15664   3.420   1.191   1.650 -0.0654 -0.7699  0.3207
  877MOL0     C15665   3.462   1.062   1.630  0.2034  0.4869  0.0263
  877MOL0     C15666   3.382   0.962   1.697 -0.0237  0.1298  0.2966
  877MOL0     O15667   3.424   0.833   1.674 -0.1776  0.5166  0.3864
  877MOL0     C15668   3.389   0.722   1.759 -0.5885 -0.1967 -0.4315
  877MOL0     C15669   3.355   0.602   1.681 -0.5618 -0.7700  0.1628
  877MOL0     C15670   3.249   0.625   1.569  0.0666 -0.0064 -0.6222
  877MOL0     C15671   3.111   0.638   1.631  0.7333  0.1779  0.4872
  877MOL0     C15672   2.998   0.638   1.527  0.5818 -0.3092  0.2276
  877MOL0     C15673   3.002   0.750   1.420 -0.9790 -0.5011 -0.6685
  877MOL0     C15674   2.871   0.756   1.354 -0.0537 -0.2740 -0.0044
  877MOL0     C15675   2.860   0.850   1.226 -0.4137  1.1827  0.2801
  877MOL0    Cl15676   2.927   1.011   1.239  0.3486  0.5059 -0.0526
  877MOL0     C15677   3.282   0.993   1.799  0.1198 -0.1294 -0.3081
  877MOL0     C15678   3.249   1.131   1.816 -1.3385 -0.1286 -0.8854
  877MOL0     O15679   3.094   1.364   1.887  0.0465  0.4244  0.8481
  877MOL0     C15680   3.117   1.655   1.910 -0.0118  0.3316 -0.6789
  877MOL0     C15681   3.146   1.792   1.951  0.4879 -0.0326  0.1398
  877MOL0     N15682   3.568   2.280   2.345 -0.1267  0.1250 -0.4237
  877MOL0     N15683   3.655   2.379   2.330  0.3611 -0.1187 -0.0262
  877MOL0     C15684   4.174   3.534   2.490  0.3275 -0.6953  0.0260
  877MOL0     C15685   4.205   3.626   2.593 -0.5600 -0.3172  0.5332
  877MOL0     C15686   4.241   3.927   2.893 -0.5175 -0.2276 -0.0721
  877MOL0     C15687   4.236   4.050   2.827 -0.7074  0.2354  0.0170
  877MOL0     C15688   4.250   4.172   2.882 -0.4530  0.4322  0.5036
  877MOL0     C15689   4.294   4.176   3.020 -0.6182 -0.2727  0.4128
  877MOL0     O15690   4.335   4.294   3.089  1.0543  0.0960 -0.2724
  877MOL0     C15691   4.325   4.413   3.008  0.2910 -0.1628  0.1140
  877MOL0     C15692   4.430   4.522   3.045  0.8443  0.5682  0.2972
  877MOL0     C15693   4.371   4.640   3.131 -0.3295  1.3661  0.2151
  877MOL0     C15694   4.419   4.779   3.073 -0.1425  0.6002  0.3141
  877MOL0     C15695   4.336   4.893   3.132  0.3599 -0.4340  0.2878
  877MOL0     C15696   4.269   4.986   3.175 -0.0478 -0.0929  0.4565
  877MOL0     C15697   4.319   4.052   3.084 -0.9810 -0.1121  0.3422
  877MOL0     C15698   4.290   3.931   3.021 -0.0044  0.8191  0.2558
  877MOL0     H15699   3.914   3.812   2.582  1.5456  0.1611 -0.5085
  877MOL0     H15700   3.853   3.627   2.410 -0.8942 -0.6395  0.4816
  877MOL0     H15701   3.846   3.352   2.404  0.0504 -0.1665 -0.2106
  877MOL0     H15702   4.004   3.289   2.464  1.3323  0.0545 -0.6261
  877MOL0     H15703   4.039   3.213   2.227  1.0422 -0.8986  2.1166
  877MOL0     H15704   3.877   3.269   2.186 -1.1979 -1.1538  0.2869
  877MOL0     H15705   3.787   3.099   2.373  2.7467 -1.6559  4.0504
  877MOL0     H15706   3.942   3.056   2.388  0.9331  1.7266  0.5643
  877MOL0     H15707   3.816   3.074   2.097  3.5279 -1.5124 -2.3111
  877MOL0     H15708   3.955   2.979   2.146  0.9059 -1.2369  3.1473
  877MOL0     H15709   3.759   2.839   2.086 -1.7493 -1.7700  1.6732
  877MOL0     H15710   3.657   2.935   2.194 -0.0525  0.7125  1.3216
  877MOL0     H15711   3.767   2.864   2.390 -0.6113 -0.4160 -0.8780
  877MOL0     H15712   3.866   2.741   2.298  0.3175  0.7449  3.1483
  877MOL0     H15713   3.671   2.673   2.436 -0.1416  1.9090  0.1402
  877MOL0     H15714   3.556   2.745   2.331  0.8305  1.3308 -2.4292
  877MOL0     H15715   3.742   2.555   2.190 -0.8849  0.1494  0.1639
  877MOL0     H15716   3.596   2.619   2.130 -1.8094 -2.1413  0.0636
  877MOL0     H15717   3.354   2.522   2.301 -0.1152 -0.4000  1.5192
  877MOL0     H15718   3.233   2.305   2.361 -1.3329 -0.0652  3.1795
  877MOL0     H15719   3.309   2.211   2.482 -3.4065  1.3262  0.9851
  877MOL0     H15720   3.257   2.040   2.335 -3.3942  3.8236  1.5412
  877MOL0     H15721   3.426   2.081   2.277  0.3935 -0.9919  0.6816
  877MOL0     H15722   3.171   2.215   2.180  0.1304 -0.2909  0.4581
  877MOL0     H15723   3.329   2.217   2.091  1.7498 -2.6716 -0.4809
  877MOL0     H15724   3.166   2.092   1.994  1.4014  0.0417 -1.0966
  877MOL0     H15725   3.141   1.987   2.138 -1.7346 -1.1987 -2.8029
  877MOL0     H15726   3.472   1.764   1.995  0.6148 -3.1195  0.0944
  877MOL0     H15727   3.428   1.531   1.945  0.8911 -0.1254 -0.4663
  877MOL0     H15728   3.475   1.266   1.594 -0.7467 -1.1928 -0.9732
  877MOL0     H15729   3.555   1.052   1.576 -0.6110 -2.6061 -1.0726
  877MOL0     H15730   3.306   0.741   1.827  1.2030  2.0910  1.2695
  877MOL0     H15731   3.463   0.696   1.835 -2.6396 -1.1070  1.3548
  877MOL0     H15732   3.335   0.521   1.751 -4.0326  2.0249  2.7573
  877MOL0     H15733   3.444   0.579   1.622 -1.5240  1.5645 -2.4522
  877MOL0     H15734   3.263   0.529   1.517  0.6629 -0.0710 -0.3513
  877MOL0     H15735   3.267   0.720   1.519 -0.1347  1.9229  2.6778
  877MOL0     H15736   3.095   0.564   1.710 -1.4729  0.8568  0.7434
  877MOL0     H15737   3.111   0.734   1.683 -0.6462  0.2076  0.4491
  877MOL0     H15738   2.904   0.658   1.579 -0.0332  2.1342 -1.6382
  877MOL0     H15739   2.997   0.540   1.480 -1.4413 -0.0711 -0.3027
  877MOL0     H15740   3.074   0.725   1.342  0.2464  0.4621  0.1081
  877MOL0     H15741   3.015   0.844   1.474 -1.9730 -0.9079  0.3142
  877MOL0     H15742   2.845   0.658   1.312  1.2365 -0.7474  0.2788
  877MOL0     H15743   2.799   0.780   1.432  1.3043  0.0894  1.1692
  877MOL0     H15744   2.753   0.864   1.211 -0.9731 -0.6455  2.1315
  877MOL0     H15745   2.895   0.798   1.136 -4.1248  0.9152 -1.1724
  877MOL0     H15746   3.235   0.918   1.863 -1.5076  1.8261  0.9112
  877MOL0     H15747   3.164   1.149   1.881 -0.7593 -0.3135 -0.0666
  877MOL0     H15748   3.013   1.638   1.881 -1.3807  3.2913  1.9080
  877MOL0     H15749   3.068   1.864   1.971 -0.6238 -2.0965  4.4598
  877MOL0     H15750   4.238   3.449   2.468  1.8653  0.0977  1.1949
  877MOL0     H15751   4.298   3.630   2.648  0.1919  1.1989 -0.7884
  877MOL0     H15752   4.216   4.059   2.721 -1.8424 -2.5813 -0.0844
  877MOL0     H15753   4.245   4.264   2.825 -0.8934 -0.3615 -0.7784
  877MOL0     H15754   4.223   4.453   3.012  0.2482 -0.3452  1.1455
  877MOL0     H15755   4.343   4.394   2.902 -0.8988  0.7250 -0.2776
  877MOL0     H15756   4.509   4.469   3.099  2.6156  1.9198 -0.8371
  877MOL0     H15757   4.468   4.559   2.949 -2.8373  3.1126 -0.3741
  877MOL0     H15758   4.400   4.651   3.236 -0.7085  5.8991  0.0645
  877MOL0     H15759   4.262   4.630   3.129 -0.0990 -2.9673 -2.3000
  877MOL0     H15760   4.526   4.801   3.082 -0.1938  0.1211  3.0301
  877MOL0     H15761   4.396   4.774   2.966  1.1895  0.6921  0.0080
  877MOL0     H15762   4.208   5.071   3.198 -2.0349 -0.7101 -2.1376
  877MOL0     H15763   4.347   4.040   3.188 -0.6928  1.5919  0.4967
  877MOL0     H15764   4.302   3.835   3.072 -0.8089 -0.5714 -2.0173
  878MOL0     O15765   6.882   9.159   1.999 -0.9359 -0.0965 -0.0322
  878MOL0     C15766   6.975   9.073   2.008  0.2545 -0.0209  0.4479
  878MOL0     O15767   6.965   8.945   1.981 -0.8312  0.1925  0.2282
  878MOL0     C15768   6.848   8.887   1.928 -0.1313  0.5123  0.1282
  878MOL0     C15769   6.752   8.955   1.850  0.3552  0.0153  0.3415
  878MOL0     C15770   6.650   8.885   1.796 -0.0667 -0.2672  0.0858
  878MOL0     C15771   6.635   8.746   1.801 -0.3469  0.8223  0.2677
  878MOL0     O15772   6.551   8.681   1.724  0.2435  0.1865  0.3309
  878MOL0     C15773   6.410   8.710   1.742  0.0775  1.0887  0.2561
  878MOL0     C15774   6.340   8.712   1.606  0.5696  0.6925 -0.3252
  878MOL0     C15775   6.220   8.820   1.624  0.2080 -0.3658  0.8115
  878MOL0     C15776   6.127   8.784   1.743 -0.1755 -0.1836  0.0913
  878MOL0     C15777   5.997   8.863   1.731 -0.5303 -0.6292  0.0425
  878MOL0     C15778   6.013   9.020   1.728 -0.8664  0.3833 -0.8080
  878MOL0     C15779   5.883   9.105   1.758 -0.3061 -0.4525 -0.2125
  878MOL0     C15780   5.896   9.256   1.753  1.2855  0.5076 -0.4969
  878MOL0     N15781   6.027   9.303   1.692  0.3914  0.5056  0.1213
  878MOL0     C15782   6.131   9.352   1.764 -0.2576  0.2097 -0.7239
  878MOL0     C15783   6.221   9.414   1.689 -1.0132  0.1543  1.0414
  878MOL0     C15784   6.357   9.474   1.733 -0.2203  0.1368 -0.2758
  878MOL0     C15785   6.394   9.612   1.655 -0.3364 -1.1964 -0.3806
  878MOL0     C15786   6.524   9.679   1.711 -1.1834  0.0400 -0.0894
  878MOL0     C15787   6.523   9.714   1.856  0.4719 -0.0250  0.3364
  878MOL0     O15788   6.527   9.591   1.936 -0.1932  0.3436  0.7535
  878MOL0     C15789   6.541   9.599   2.073 -0.3952  0.4453 -1.0446
  878MOL0     C15790   6.487   9.699   2.151  0.2897 -0.3622  0.6858
  878MOL0     C15791   6.491   9.689   2.291 -0.3079 -1.2172  0.5627
  878MOL0     C15792   6.555   9.594   2.365 -0.0400  0.8341  0.1222
  878MOL0     C15793   6.555   9.587   2.508  0.0737  0.0384  0.7123
  878MOL0     O15794   6.639   9.499   2.572  0.4159  0.0095 -0.3916
  878MOL0     C15795   6.638   9.478   2.710 -0.0915  0.5259 -1.1290
  878MOL0     C15796   6.712   9.367   2.759  0.1843  0.2205 -0.3304
  878MOL0     C15797   6.723   9.331   2.896 -1.4673 -0.0671  0.6861
  878MOL0     C15798   6.663   9.413   2.986  0.8562 -0.7500  0.0592
  878MOL0     O15799   6.667   9.381   3.118 -0.5067  0.2641  0.0700
  878MOL0     C15800   6.771   9.312   3.182 -0.3396  0.2387 -1.0243
  878MOL0     C15801   6.766   9.339   3.341 -0.6800  0.0415  0.6801
  878MOL0     C15802   6.824   9.474   3.395 -0.1090  0.4283 -1.0042
  878MOL0     C15803   6.972   9.483   3.346  0.2132 -0.0433  0.4430
  878MOL0     C15804   7.042   9.619   3.376 -0.4116  0.3344 -0.1441
  878MOL0     C15805   7.062   9.644   3.524 -0.1984 -0.0888  0.1696
  878MOL0     C15806   7.150   9.537   3.583  1.0220  1.0318 -0.0370
  878MOL0     C15807   7.196   9.572   3.719  0.3353  0.6102  0.2117
  878MOL0    Cl15808   7.315   9.460   3.793 -0.1782 -0.2029 -0.5162
  878MOL0     C15809   6.598   9.526   2.951  0.3471 -0.4660 -0.9450
  878MOL0     C15810   6.581   9.558   2.811  1.1523 -1.0814 -0.8212
  878MOL0     O15811   6.472   9.657   2.560 -0.1401 -0.3258  0.5168
  878MOL0     C15812   6.613   9.489   2.288 -0.0674  0.2179 -0.2582
  878MOL0     C15813   6.603   9.497   2.146  0.9295  0.7305 -0.8286
  878MOL0     N15814   6.156   9.407   1.570  0.4109  0.2797 -0.1053
  878MOL0     N15815   6.041   9.340   1.568 -0.8945  0.5836  0.1180
  878MOL0     C15816   6.719   8.677   1.891 -0.6028  0.2465  0.3832
  878MOL0     C15817   6.824   8.750   1.955  0.1088 -0.3597  0.6986
  878MOL0     C15818   7.111   9.109   2.053  0.8144  0.8951  0.3326
  878MOL0     C15819   7.138   9.237   2.107 -1.1129 -0.2206 -0.2923
  878MOL0     C15820   7.258   9.272   2.160 -0.2712  0.6116  0.1575
  878MOL0     C15821   7.360   9.177   2.167  0.0517 -0.2605 -1.1044
  878MOL0     O15822   7.493   9.211   2.202  0.5501  0.1720 -0.2744
  878MOL0     C15823   7.520   9.343   2.257  0.6092  1.5625  1.4910
  878MOL0     C15824   7.667   9.365   2.274 -0.9226  0.2753 -0.2753
  878MOL0     C15825   7.704   9.500   2.323 -0.2972  0.0783 -0.4592
  878MOL0     C15826   7.853   9.535   2.348 -0.1437  0.0853 -0.0269
  878MOL0     C15827   7.861   9.680   2.355 -0.2999 -0.4439 -0.4958
  878MOL0     C15828   7.871   9.802   2.371  0.9542 -0.0040  1.3510
  878MOL0     C15829   7.340   9.051   2.121 -0.1341 -0.4656  0.3366
  878MOL0     C15830   7.216   9.011   2.066 -0.0653  0.4897  0.6869
  878MOL0     H15831   6.746   9.062   1.833 -1.5374 -0.0700  0.2153
  878MOL0     H15832   6.573   8.935   1.739 -1.6070 -0.9899  1.4608
  878MOL0     H15833   6.391   8.811   1.780 -2.0283  1.5663 -1.7930
  878MOL0     H15834   6.374   8.629   1.806  3.1573  1.2161  2.3338
  878MOL0     H15835   6.291   8.616   1.588 -0.9554  1.1373  1.1927
  878MOL0     H15836   6.418   8.739   1.534  1.6028 -0.5657  0.2586
  878MOL0     H15837   6.161   8.828   1.532 -1.0402  0.7411  1.6632
  878MOL0     H15838   6.265   8.919   1.631  1.9266 -1.1403  1.3603
  878MOL0     H15839   6.100   8.678   1.741 -0.7538 -0.0278 -0.4202
  878MOL0     H15840   6.183   8.805   1.835 -1.3580 -0.8035  0.9845
  878MOL0     H15841   5.936   8.833   1.817 -1.9854 -0.0903 -0.7647
  878MOL0     H15842   5.935   8.835   1.645 -0.1190  0.3369 -0.5865
  878MOL0     H15843   6.047   9.040   1.626  0.5213 -0.4160 -0.5294
  878MOL0     H15844   6.095   9.036   1.799 -1.9822 -0.2182  0.6690
  878MOL0     H15845   5.807   9.070   1.688 -1.2567 -3.7287  2.2558
  878MOL0     H15846   5.842   9.081   1.856  0.0568  3.4628  1.0721
  878MOL0     H15847   5.883   9.286   1.858 -0.1672 -1.6631  0.0065
  878MOL0     H15848   5.813   9.299   1.696  0.7426  0.7332  0.4404
  878MOL0     H15849   6.142   9.342   1.872 -0.2314  0.4053 -0.7074
  878MOL0     H15850   6.444   9.408   1.720 -0.0718  0.3845 -0.5827
  878MOL0     H15851   6.346   9.487   1.841 -0.0434 -0.9275 -0.1232
  878MOL0     H15852   6.316   9.687   1.641 -0.8629 -2.0591 -2.3601
  878MOL0     H15853   6.423   9.571   1.558  3.0239  1.2873 -0.6270
  878MOL0     H15854   6.606   9.606   1.705  1.8081  3.0086  1.0147
  878MOL0     H15855   6.550   9.761   1.643  2.3412 -2.6537 -2.3843
  878MOL0     H15856   6.429   9.763   1.885 -0.3289 -0.9129 -0.6752
  878MOL0     H15857   6.610   9.776   1.880  1.5060 -1.0389 -0.6566
  878MOL0     H15858   6.434   9.786   2.112  1.1537  1.2762  2.9685
  878MOL0     H15859   6.441   9.772   2.342  0.5928 -1.4563  1.8905
  878MOL0     H15860   6.743   9.302   2.677  0.3659 -1.3197  0.9011
  878MOL0     H15861   6.766   9.234   2.920 -2.3611 -0.1601  2.0379
  878MOL0     H15862   6.872   9.327   3.142  1.6003  2.9637  3.9136
  878MOL0     H15863   6.750   9.205   3.174 -1.6792  0.4398 -0.5342
  878MOL0     H15864   6.829   9.260   3.381  0.9413 -0.1397 -1.9808
  878MOL0     H15865   6.663   9.315   3.369 -0.3575 -3.7273 -0.7611
  878MOL0     H15866   6.824   9.474   3.504 -2.9041 -1.1928 -0.8925
  878MOL0     H15867   6.757   9.553   3.358 -0.2047  1.0710  0.5002
  878MOL0     H15868   7.019   9.393   3.387  0.0565 -0.4329 -0.2285
  878MOL0     H15869   6.978   9.480   3.237  0.6039  0.9329  0.4272
  878MOL0     H15870   6.970   9.692   3.338 -0.5279 -0.2718 -1.1238
  878MOL0     H15871   7.137   9.640   3.325 -0.8504  0.8752 -0.7600
  878MOL0     H15872   6.970   9.644   3.584  0.0848  0.8415  0.6130
  878MOL0     H15873   7.104   9.744   3.541  0.1002 -0.4681  1.8682
  878MOL0     H15874   7.092   9.444   3.591  1.7220  0.3237 -2.3593
  878MOL0     H15875   7.237   9.516   3.521 -0.5219 -3.6847 -1.0855
  878MOL0     H15876   7.113   9.596   3.785 -0.6560  1.8384 -1.4241
  878MOL0     H15877   7.255   9.664   3.708 -0.6780  1.1880 -0.4342
  878MOL0     H15878   6.560   9.600   3.021 -1.1388  1.5192 -3.6163
  878MOL0     H15879   6.535   9.656   2.804 -2.1319 -1.9547  3.6754
  878MOL0     H15880   6.668   9.406   2.332 -1.9536  0.9998  4.1293
  878MOL0     H15881   6.646   9.418   2.085 -3.3159 -0.8477 -2.1521
  878MOL0     H15882   6.710   8.569   1.892 -1.0656  0.2793  0.1595
  878MOL0     H15883   6.891   8.687   2.014  2.1081  0.4550 -0.6014
  878MOL0     H15884   7.058   9.310   2.106 -0.6079  0.3309 -0.4408
  878MOL0     H15885   7.272   9.376   2.187 -3.5163  0.5384  2.7259
  878MOL0     H15886   7.466   9.346   2.352 -1.7421  0.6651  0.2680
  878MOL0     H15887   7.492   9.420   2.184 -0.3897 -0.2479 -0.1487
  878MOL0     H15888   7.687   9.292   2.353 -2.5384  1.0197  0.8835
  878MOL0     H15889   7.731   9.338   2.189 -1.0863  1.2488 -0.7274
  878MOL0     H15890   7.654   9.528   2.416  0.1197  0.2563 -0.2891
  878MOL0     H15891   7.676   9.576   2.249 -0.2994  0.3645 -0.1687
  878MOL0     H15892   7.900   9.482   2.431  4.0639  1.4805 -1.2513
  878MOL0     H15893   7.916   9.508   2.263 -1.0160 -0.4073 -0.5410
  878MOL0     H15894   7.890   9.904   2.401 -1.7990  0.8835  0.3304
  878MOL0     H15895   7.409   8.969   2.141 -0.9319 -1.0103  0.9166
  878MOL0     H15896   7.205   8.912   2.023  0.9703 -0.4114  2.3979
  879MOL0     O15897   4.756   9.727   2.657  0.3103 -0.0794 -0.0238
  879MOL0     C15898   4.644   9.699   2.695 -0.7367 -0.1057 -1.6126
  879MOL0     O15899   4.552   9.629   2.629 -0.4568 -0.0756 -0.6270
  879MOL0     C15900   4.586   9.568   2.509  0.0917  0.0329  0.9636
  879MOL0     C15901   4.630   9.644   2.397 -0.7948  0.0281  0.5283
  879MOL0     C15902   4.645   9.589   2.269 -0.7819  0.1211 -0.2625
  879MOL0     C15903   4.637   9.448   2.258 -0.1422  0.9035  0.4282
  879MOL0     O15904   4.667   9.384   2.139 -0.9653 -0.6493  0.0500
  879MOL0     C15905   4.608   9.263   2.108 -0.9539  0.5887 -0.1159
  879MOL0     C15906   4.640   9.229   1.967 -0.0512 -0.4605  0.1533
  879MOL0     C15907   4.562   9.323   1.867 -0.4249  0.0073 -0.9632
  879MOL0     C15908   4.607   9.290   1.729  0.4061 -0.2502  0.7402
  879MOL0     C15909   4.493   9.328   1.631  0.4057 -0.2401  0.0142
  879MOL0     C15910   4.524   9.299   1.481 -0.3576  0.1339 -0.1360
  879MOL0     C15911   4.408   9.328   1.385  0.5594 -0.4085 -0.1230
  879MOL0     C15912   4.446   9.350   1.236 -0.5838  0.1103 -0.7798
  879MOL0     N15913   4.482   9.223   1.168  0.3144 -0.1782 -0.1219
  879MOL0     C15914   4.421   9.100   1.171 -0.1578 -0.9499  0.5707
  879MOL0     C15915   4.497   9.010   1.102  0.7694 -0.0640 -0.3196
  879MOL0     C15916   4.456   8.864   1.089 -0.4486  0.0147 -0.5738
  879MOL0     C15917   4.442   8.831   0.941  0.4719 -0.3429 -0.4166
  879MOL0     C15918   4.418   8.678   0.911 -0.0255 -0.1676  0.0246
  879MOL0     C15919   4.402   8.641   0.751  0.0986 -0.1069 -0.0066
  879MOL0     O15920   4.371   8.758   0.674 -0.2632  0.6974 -1.0039
  879MOL0     C15921   4.317   8.737   0.554  0.0487  0.4247  0.7116
  879MOL0     C15922   4.291   8.861   0.491  0.2456  0.2178 -0.1293
  879MOL0     C15923   4.253   8.857   0.363  0.3905  0.4326  0.2791
  879MOL0     C15924   4.237   8.737   0.288 -0.3533 -0.3801 -0.2520
  879MOL0     C15925   4.204   8.736   0.147  0.0632  1.3061 -0.5291
  879MOL0     O15926   4.210   8.604   0.099  0.6202  0.0132  0.5883
  879MOL0     C15927   4.203   8.585  -0.039 -0.6624 -1.4467  0.2318
  879MOL0     C15928   4.159   8.458  -0.080 -0.0998 -0.2550  0.3860
  879MOL0     C15929   4.157   8.420  -0.213  0.0220  0.5741  0.1029
  879MOL0     C15930   4.215   8.498  -0.318  0.2958 -0.8396 -0.4861
  879MOL0     O15931   4.211   8.475  -0.453  0.5344 -0.2622 -0.0024
  879MOL0     C15932   4.280   8.364  -0.505 -0.5562 -0.4295  1.0824
  879MOL0     C15933   4.386   8.432  -0.598 -0.1731 -0.5270 -0.6486
  879MOL0     C15934   4.446   8.337  -0.696  0.0481  0.1340 -0.0985
  879MOL0     C15935   4.544   8.403  -0.793  0.0216  0.3405  0.2793
  879MOL0     C15936   4.621   8.312  -0.884 -0.3565  0.5747  0.4658
  879MOL0     C15937   4.650   8.397  -1.010  0.1900 -0.6040  0.0384
  879MOL0     C15938   4.699   8.299  -1.118  0.5228  0.1435 -0.3976
  879MOL0     C15939   4.844   8.279  -1.135  0.1070  1.2924 -0.0477
  879MOL0    Cl15940   4.876   8.158  -1.269  0.1245 -0.1791  0.1450
  879MOL0     C15941   4.275   8.620  -0.271  0.2015 -0.2817  0.3338
  879MOL0     C15942   4.261   8.663  -0.138  0.0652 -0.2249 -0.5272
  879MOL0     O15943   4.174   8.836   0.087  0.3339  0.1373 -0.2678
  879MOL0     C15944   4.268   8.620   0.347  1.0230 -0.0296 -1.0456
  879MOL0     C15945   4.312   8.620   0.480 -0.3018 -0.1777  0.8604
  879MOL0     N15946   4.616   9.077   1.077 -0.6258  0.1266 -0.2557
  879MOL0     N15947   4.604   9.200   1.117 -0.7320  0.4938  0.2810
  879MOL0     C15948   4.575   9.369   2.364 -0.5265  0.1714  0.5484
  879MOL0     C15949   4.558   9.432   2.487 -0.1923 -0.4855  0.5589
  879MOL0     C15950   4.614   9.735   2.832  0.7763  0.8478  0.1283
  879MOL0     C15951   4.707   9.766   2.925  0.4156  0.1074 -0.0256
  879MOL0     C15952   4.678   9.805   3.058  0.9029 -0.3720  0.7882
  879MOL0     C15953   4.546   9.797   3.102  0.0417 -0.3040  0.6947
  879MOL0     O15954   4.494   9.817   3.234  0.5450 -0.2383  0.4332
  879MOL0     C15955   4.563   9.903   3.322  0.4888 -1.0485 -0.5954
  879MOL0     C15956   4.471  10.009   3.386 -0.7334 -0.4641 -0.5940
  879MOL0     C15957   4.534  10.058   3.514 -0.5746  0.4510 -0.3522
  879MOL0     C15958   4.432  10.149   3.590  0.4695  0.1930 -0.1763
  879MOL0     C15959   4.416  10.269   3.520 -0.2665 -0.3363  0.4286
  879MOL0     C15960   4.408  10.370   3.458  0.1870  0.1509 -0.0543
  879MOL0     C15961   4.449   9.768   3.000 -0.8871 -0.4016 -0.2476
  879MOL0     C15962   4.484   9.742   2.871 -0.2629 -0.3482  0.9512
  879MOL0     H15963   4.653   9.750   2.404  2.5193 -0.1728 -3.3572
  879MOL0     H15964   4.674   9.641   2.177  1.6857 -0.5717  0.0485
  879MOL0     H15965   4.499   9.261   2.115 -0.8537  0.3994  2.3713
  879MOL0     H15966   4.656   9.194   2.179 -0.3876  0.9443 -0.1493
  879MOL0     H15967   4.625   9.121   1.956  0.9582 -0.8161  1.8881
  879MOL0     H15968   4.749   9.241   1.963  0.0049  0.2472  2.2043
  879MOL0     H15969   4.572   9.427   1.897  0.5586  0.6126 -3.1944
  879MOL0     H15970   4.456   9.297   1.867 -0.3106 -0.6027  0.8245
  879MOL0     H15971   4.698   9.345   1.707  0.3578 -0.1722  0.7354
  879MOL0     H15972   4.644   9.187   1.720  1.3515  0.2728 -2.9172
  879MOL0     H15973   4.482   9.432   1.663 -0.9263 -1.1632  2.8770
  879MOL0     H15974   4.398   9.281   1.659  0.2907  0.8222  1.5489
  879MOL0     H15975   4.572   9.202   1.462 -0.5291 -0.5002  2.3592
  879MOL0     H15976   4.600   9.373   1.454  1.0152 -1.0012  0.4342
  879MOL0     H15977   4.327   9.259   1.406 -0.6589  1.1850  0.6511
  879MOL0     H15978   4.359   9.419   1.423 -1.2391 -2.2793  2.3169
  879MOL0     H15979   4.536   9.412   1.224  0.4570 -0.5921  2.4762
  879MOL0     H15980   4.359   9.386   1.181 -0.5201 -2.6363 -2.9446
  879MOL0     H15981   4.326   9.079   1.219 -1.4767  1.1687 -0.9241
  879MOL0     H15982   4.381   8.827   1.159 -1.8545 -0.2791 -2.1562
  879MOL0     H15983   4.545   8.811   1.123 -0.9685 -2.6431 -2.9883
  879MOL0     H15984   4.526   8.879   0.889  2.4766 -2.3063  0.8651
  879MOL0     H15985   4.349   8.879   0.908  1.4726  1.3307 -0.9271
  879MOL0     H15986   4.502   8.627   0.958  0.4040  2.9261  2.9981
  879MOL0     H15987   4.326   8.650   0.964  1.1989 -0.6176  2.0188
  879MOL0     H15988   4.328   8.561   0.739 -2.0279  1.7949 -0.4285
  879MOL0     H15989   4.500   8.608   0.719  1.4421  0.8140  2.7777
  879MOL0     H15990   4.292   8.955   0.545 -1.1223  0.9822 -1.3858
  879MOL0     H15991   4.237   8.947   0.304  0.5264  0.8081  0.8110
  879MOL0     H15992   4.132   8.379  -0.010  0.4335 -1.2070 -0.4619
  879MOL0     H15993   4.120   8.320  -0.236  3.2218 -0.6903 -0.1601
  879MOL0     H15994   4.215   8.304  -0.570  2.5638  0.7234 -3.5490
  879MOL0     H15995   4.318   8.300  -0.425 -0.2996  0.5920  1.7895
  879MOL0     H15996   4.460   8.482  -0.535  0.2088 -2.1011  0.1996
  879MOL0     H15997   4.332   8.509  -0.653 -2.1976 -0.0336  1.8317
  879MOL0     H15998   4.371   8.272  -0.742  1.3025  0.0636 -2.1855
  879MOL0     H15999   4.507   8.264  -0.642 -0.5400 -0.8055 -0.6737
  879MOL0     H16000   4.487   8.471  -0.857  0.2321 -1.8274 -2.3410
  879MOL0     H16001   4.619   8.467  -0.745  0.4493  1.6261 -1.9820
  879MOL0     H16002   4.568   8.218  -0.901  1.2040 -0.1578 -0.5665
  879MOL0     H16003   4.718   8.291  -0.838  0.3568  2.0041 -0.3212
  879MOL0     H16004   4.715   8.484  -0.992 -0.0269 -0.3755 -0.2727
  879MOL0     H16005   4.561   8.452  -1.043  0.4084  0.5614  1.3190
  879MOL0     H16006   4.650   8.204  -1.099 -0.0482  0.3038 -1.0509
  879MOL0     H16007   4.669   8.335  -1.217  1.3550 -1.0929 -1.1245
  879MOL0     H16008   4.888   8.240  -1.043 -1.0960  0.6046  0.2582
  879MOL0     H16009   4.894   8.370  -1.168  1.5045 -0.3005 -2.7598
  879MOL0     H16010   4.330   8.677  -0.345 -0.5898  3.6975  2.5523
  879MOL0     H16011   4.299   8.759  -0.105  0.4810 -0.7388  0.5304
  879MOL0     H16012   4.248   8.522   0.306 -1.1206 -0.6844  1.2917
  879MOL0     H16013   4.340   8.527   0.529 -0.7337  0.3068  2.0496
  879MOL0     H16014   4.553   9.263   2.359  4.8154 -1.2325  0.0247
  879MOL0     H16015   4.515   9.379   2.572  1.1505  0.0454  1.6109
  879MOL0     H16016   4.813   9.757   2.905 -0.0300  0.2065 -2.7710
  879MOL0     H16017   4.758   9.807   3.133 -1.7280 -1.1558  3.8527
  879MOL0     H16018   4.637   9.954   3.260 -0.1918  1.0983  0.2708
  879MOL0     H16019   4.611   9.860   3.410  2.8660  0.1672 -1.2167
  879MOL0     H16020   4.471  10.088   3.310 -0.0036  0.1974  0.0698
  879MOL0     H16021   4.368   9.975   3.399 -1.1781  0.1116 -2.3044
  879MOL0     H16022   4.628  10.114   3.502 -0.5068  0.1093 -1.5620
  879MOL0     H16023   4.555   9.968   3.572 -1.7683 -1.0922 -2.2263
  879MOL0     H16024   4.334  10.101   3.598  0.5887 -0.4414 -1.9354
  879MOL0     H16025   4.466  10.161   3.693 -0.2982 -2.2418  0.4360
  879MOL0     H16026   4.406  10.463   3.405 -0.2544 -0.1834 -0.6349
  879MOL0     H16027   4.347   9.763   3.036  0.2896  0.9406  3.7808
  879MOL0     H16028   4.405   9.720   2.799 -0.4185  1.7857  0.3832
  880MOL0     O16029   5.928  10.970   7.571  0.0415 -0.7089 -0.5185
  880MOL0     C16030   5.856  10.896   7.509 -0.1935 -0.5449  0.3851
  880MOL0     O16031   5.836  10.767   7.538 -0.3013 -0.5102 -0.3218
  880MOL0     C16032   5.856  10.705   7.661 -0.6219 -0.2371  0.5559
  880MOL0     C16033   5.858  10.777   7.781  0.4266 -0.7876  0.8072
  880MOL0     C16034   5.890  10.708   7.895  0.4591  0.1360  0.0460
  880MOL0     C16035   5.924  10.567   7.894 -0.0825  0.0578 -0.3368
  880MOL0     O16036   5.930  10.498   8.020 -0.8757 -0.4956  0.5718
  880MOL0     C16037   6.037  10.403   8.038  0.3335 -0.1154  0.6585
  880MOL0     C16038   5.999  10.282   8.131  0.1675  0.3814 -0.6429
  880MOL0     C16039   5.863  10.216   8.104  0.7052 -0.4417  0.1780
  880MOL0     C16040   5.829  10.115   8.211 -0.4485  0.4101  0.5251
  880MOL0     C16041   5.682  10.070   8.214  0.1808  0.2158 -0.0001
  880MOL0     C16042   5.655   9.966   8.333 -0.6221 -0.0687  0.3078
  880MOL0     C16043   5.528   9.884   8.330 -0.1607  0.9408  0.2032
  880MOL0     C16044   5.406   9.975   8.330 -0.2951 -0.1427 -0.0056
  880MOL0     N16045   5.277   9.907   8.341 -0.1538 -0.5133 -0.2718
  880MOL0     C16046   5.203   9.868   8.230 -0.4567  0.4754  0.1477
  880MOL0     C16047   5.104   9.794   8.286 -0.4881  0.7593  0.4979
  880MOL0     C16048   4.983   9.744   8.217 -0.3878  0.8099  1.7112
  880MOL0     C16049   4.852   9.762   8.293  0.3932  0.7630  0.0188
  880MOL0     C16050   4.799   9.909   8.282  0.3694 -0.4832 -0.1418
  880MOL0     C16051   4.683   9.950   8.365 -0.0063 -0.7285 -0.1090
  880MOL0     O16052   4.637  10.076   8.307 -0.8213 -0.4913 -0.8953
  880MOL0     C16053   4.515  10.119   8.355 -1.0398  1.0694 -1.2791
  880MOL0     C16054   4.403  10.078   8.284  0.2692 -0.1398  0.9148
  880MOL0     C16055   4.280  10.139   8.328  0.6996  0.6543 -1.0678
  880MOL0     C16056   4.268  10.207   8.452  0.2750  1.0619  0.5568
  880MOL0     C16057   4.130  10.248   8.500  0.0793 -0.7512  0.7961
  880MOL0     O16058   4.134  10.348   8.598  0.1426 -0.9030 -0.8002
  880MOL0     C16059   4.021  10.398   8.660 -0.5955  0.7818 -0.2817
  880MOL0     C16060   4.048  10.499   8.749  0.2881 -0.4013  0.0722
  880MOL0     C16061   3.948  10.569   8.819 -0.5226  0.0176 -0.1358
  880MOL0     C16062   3.818  10.528   8.805  0.3299  0.4965 -0.1808
  880MOL0     O16063   3.731  10.588   8.891 -0.4620  0.5458 -0.4986
  880MOL0     C16064   3.595  10.596   8.852  0.9341 -0.7450 -0.2439
  880MOL0     C16065   3.528  10.716   8.928 -0.3100  0.6564  0.4259
  880MOL0     C16066   3.594  10.847   8.910 -0.1001  0.6444 -0.1995
  880MOL0     C16067   3.500  10.942   8.988 -0.8769  0.1833  0.2611
  880MOL0     C16068   3.495  11.075   8.905 -0.0960  0.7857  0.7107
  880MOL0     C16069   3.594  11.176   8.966 -0.8197 -0.4525  0.4637
  880MOL0     C16070   3.742  11.123   8.965 -0.0905  0.0132 -0.0078
  880MOL0     C16071   3.837  11.239   8.980  0.6919  0.6012  0.4691
  880MOL0    Cl16072   4.013  11.180   8.972 -0.3831  0.0624 -0.1690
  880MOL0     C16073   3.792  10.411   8.739 -0.5870 -0.2025 -0.5838
  880MOL0     C16074   3.890  10.358   8.653 -0.1086 -0.4945  0.1915
  880MOL0     O16075   4.026  10.192   8.456 -0.1930  0.1466 -0.3470
  880MOL0     C16076   4.388  10.236   8.528 -0.3215 -0.3023  0.4414
  880MOL0     C16077   4.511  10.201   8.471 -0.0226 -0.3228 -1.0014
  880MOL0     N16078   5.119   9.797   8.425  0.3360 -0.3044  0.0904
  880MOL0     N16079   5.230   9.861   8.455  0.0631 -0.3547 -0.4153
  880MOL0     C16080   5.914  10.489   7.773 -0.3859 -0.6417 -0.6957
  880MOL0     C16081   5.876  10.561   7.656 -0.3740 -0.7719  0.0250
  880MOL0     C16082   5.772  10.956   7.394 -0.3483 -0.0896 -0.3761
  880MOL0     C16083   5.804  11.081   7.336 -0.2192  0.3328  0.0986
  880MOL0     C16084   5.741  11.129   7.226  0.6476 -0.6262  0.7187
  880MOL0     C16085   5.641  11.053   7.157  0.0430 -0.0942 -1.0252
  880MOL0     O16086   5.561  11.102   7.060  0.6306  0.0835  0.2018
  880MOL0     C16087   5.592  11.214   6.975  0.5953  0.5726  0.0716
  880MOL0     C16088   5.725  11.203   6.912  0.0535 -0.3047 -0.4418
  880MOL0     C16089   5.740  11.093   6.812  0.5393  0.0709 -0.2330
  880MOL0     C16090   5.856  11.117   6.721 -0.7659  0.4337  0.0835
  880MOL0     C16091   5.856  11.007   6.609  1.2509 -0.3176 -0.8489
  880MOL0     C16092   5.845  10.911   6.536 -0.5745 -0.2192  0.2677
  880MOL0     C16093   5.591  10.946   7.233  0.8985 -0.3089 -0.6235
  880MOL0     C16094   5.656  10.893   7.341 -0.2071 -1.1616  0.9673
  880MOL0     H16095   5.845  10.885   7.789 -1.0596 -0.6761 -1.6775
  880MOL0     H16096   5.891  10.760   7.990  1.1487  2.1972 -1.0295
  880MOL0     H16097   6.112  10.462   8.091  0.4231  1.0119 -0.6600
  880MOL0     H16098   6.063  10.354   7.944 -3.2578 -2.9019  0.8927
  880MOL0     H16099   6.012  10.332   8.227  2.9624 -0.1582 -0.6638
  880MOL0     H16100   6.081  10.211   8.114  0.6118  0.6568  0.3152
  880MOL0     H16101   5.860  10.171   8.004  0.9035 -1.7015  0.7172
  880MOL0     H16102   5.778  10.284   8.116 -0.0303 -1.5839  1.9228
  880MOL0     H16103   5.912  10.045   8.198  1.4074  2.6840 -0.8088
  880MOL0     H16104   5.847  10.165   8.307 -0.4581 -2.6456  2.2300
  880MOL0     H16105   5.665  10.006   8.127 -1.5944  0.6260  0.0061
  880MOL0     H16106   5.604  10.146   8.211 -2.0437 -1.7732  2.4513
  880MOL0     H16107   5.674  10.021   8.426 -1.0419  2.1024 -0.8077
  880MOL0     H16108   5.735   9.892   8.329 -1.8439 -1.3932 -0.2937
  880MOL0     H16109   5.528   9.822   8.239  0.0281  0.1706  0.7216
  880MOL0     H16110   5.524   9.804   8.404 -1.6556 -0.1089 -0.9514
  880MOL0     H16111   5.414  10.043   8.245  1.5118 -2.0876 -1.5198
  880MOL0     H16112   5.410  10.041   8.417  1.1357 -0.1312 -0.0431
  880MOL0     H16113   5.216   9.891   8.125  1.7265 -1.7028 -0.1625
  880MOL0     H16114   4.993   9.638   8.195  1.6102  1.8498 -4.6414
  880MOL0     H16115   4.980   9.788   8.116  0.8743 -1.8096  0.4435
  880MOL0     H16116   4.870   9.738   8.398 -0.7971  0.7789  0.2369
  880MOL0     H16117   4.783   9.692   8.245  2.3182 -0.4760 -1.0901
  880MOL0     H16118   4.877   9.976   8.319  1.6655 -2.0865  0.1543
  880MOL0     H16119   4.777   9.932   8.177  0.5020  2.6973  0.4331
  880MOL0     H16120   4.710   9.964   8.470  0.2327 -2.5789  0.1120
  880MOL0     H16121   4.609   9.870   8.355  1.9685 -2.4994 -1.4429
  880MOL0     H16122   4.405  10.020   8.192 -1.5975 -0.2818  0.9344
  880MOL0     H16123   4.186  10.137   8.273 -0.2080  0.4430  0.4475
  880MOL0     H16124   4.145  10.547   8.762 -0.2474  0.7141  0.0657
  880MOL0     H16125   3.974  10.645   8.891 -1.4149 -0.5116  0.7568
  880MOL0     H16126   3.543  10.504   8.880 -1.5387  0.7122  0.3145
  880MOL0     H16127   3.605  10.625   8.747  0.6878  2.1436  0.4439
  880MOL0     H16128   3.539  10.692   9.034  2.2328 -2.4377 -0.3915
  880MOL0     H16129   3.423  10.725   8.901 -0.2556  1.3675  0.4472
  880MOL0     H16130   3.604  10.861   8.802 -2.3714 -0.1901 -0.5741
  880MOL0     H16131   3.695  10.842   8.952  1.3884 -1.9260 -3.6334
  880MOL0     H16132   3.395  10.917   9.004 -1.9684  2.5972 -2.2872
  880MOL0     H16133   3.543  10.957   9.087  3.2661 -0.2141 -1.2839
  880MOL0     H16134   3.394  11.116   8.905 -1.7290 -2.7815 -1.1036
  880MOL0     H16135   3.519  11.076   8.799 -1.4486  3.9472  0.3296
  880MOL0     H16136   3.564  11.203   9.068 -1.0092  1.4448 -0.0579
  880MOL0     H16137   3.585  11.258   8.895 -3.3129  0.3836  1.6252
  880MOL0     H16138   3.757  11.055   9.049  2.6103 -0.2758 -0.6311
  880MOL0     H16139   3.749  11.063   8.874 -2.1057 -1.1607  0.5498
  880MOL0     H16140   3.811  11.305   9.063 -0.5023 -0.7996  1.2661
  880MOL0     H16141   3.824  11.314   8.901 -3.0191  1.7462  1.9718
  880MOL0     H16142   3.690  10.374   8.744 -0.2090 -1.1241  3.0638
  880MOL0     H16143   3.854  10.296   8.572 -2.1097  2.0904 -1.0382
  880MOL0     H16144   4.382  10.304   8.612  2.2500  0.1669  0.3194
  880MOL0     H16145   4.613  10.226   8.498  0.6477 -2.5978 -1.2540
  880MOL0     H16146   5.937  10.383   7.777  0.2666 -0.4712  2.0054
  880MOL0     H16147   5.871  10.512   7.559 -3.4580 -2.1577  0.7756
  880MOL0     H16148   5.886  11.140   7.376 -1.9237  0.4636  3.8289
  880MOL0     H16149   5.766  11.227   7.187 -2.2615  0.1705  0.6605
  880MOL0     H16150   5.589  11.302   7.040  2.4465  0.8893 -0.2327
  880MOL0     H16151   5.503  11.222   6.911 -1.3383 -2.4708  2.0808
  880MOL0     H16152   5.739  11.296   6.856  1.4733  0.4088  1.0222
  880MOL0     H16153   5.809  11.198   6.982  0.8426 -0.4228 -1.3778
  880MOL0     H16154   5.652  11.072   6.750  1.2372 -2.8090 -0.3779
  880MOL0     H16155   5.756  11.003   6.872 -3.2648  1.5288  3.4660
  880MOL0     H16156   5.849  11.217   6.676  2.0451  2.6455  3.9522
  880MOL0     H16157   5.948  11.112   6.780  0.1939  1.1770 -1.2794
  880MOL0     H16158   5.837  10.817   6.487 -0.2575  0.0180 -0.2466
  880MOL0     H16159   5.509  10.887   7.194  1.1885 -0.0211 -1.7017
  880MOL0     H16160   5.616  10.798   7.378  2.7657 -3.2366 -0.7081
  881MOL0     O16161   4.978   3.922   6.105  1.0168 -0.8498 -0.2099
  881MOL0     C16162   4.885   3.979   6.054 -1.0898 -1.0677 -0.7755
  881MOL0     O16163   4.794   4.060   6.131 -0.1540 -0.7946  0.7140
  881MOL0     C16164   4.817   4.073   6.264  0.1040 -0.1966  0.4906
  881MOL0     C16165   4.810   4.198   6.330 -0.1540  0.9495 -0.3698
  881MOL0     C16166   4.791   4.212   6.475  0.3534 -0.2039 -0.2736
  881MOL0     C16167   4.790   4.092   6.559 -0.8444 -0.5162 -0.0924
  881MOL0     O16168   4.763   4.121   6.690 -0.3881 -0.4750 -0.2345
  881MOL0     C16169   4.721   4.010   6.772  0.7925  0.5706 -0.1604
  881MOL0     C16170   4.671   4.077   6.909 -0.2192 -0.5035  0.6558
  881MOL0     C16171   4.537   4.148   6.883  0.0978 -0.3239 -0.0514
  881MOL0     C16172   4.491   4.233   6.999  0.5365  0.0562  0.8737
  881MOL0     C16173   4.350   4.289   6.984 -0.2175 -0.1318 -0.7571
  881MOL0     C16174   4.331   4.396   7.098  0.1705 -0.1174 -0.2232
  881MOL0     C16175   4.180   4.429   7.094 -0.8433  0.2288 -0.2214
  881MOL0     C16176   4.150   4.524   7.210 -0.0556  0.8366 -0.0243
  881MOL0     N16177   4.197   4.664   7.188 -0.3523  0.6552  0.0003
  881MOL0     C16178   4.321   4.721   7.214  1.0000  0.2425 -1.0838
  881MOL0     C16179   4.311   4.845   7.180  0.3043 -0.4949  0.0079
  881MOL0     C16180   4.411   4.954   7.202  0.0003 -0.0097  0.1569
  881MOL0     C16181   4.370   5.032   7.324 -0.0389  0.4386 -0.8047
  881MOL0     C16182   4.404   4.954   7.463  0.2902 -0.4773  0.7407
  881MOL0     C16183   4.378   5.046   7.592  0.0143 -0.3050 -0.0552
  881MOL0     O16184   4.449   5.168   7.604 -0.2671 -0.1391 -0.3392
  881MOL0     C16185   4.565   5.174   7.678 -0.3653  1.0373 -0.8032
  881MOL0     C16186   4.634   5.060   7.721 -0.3169  0.0575 -0.2402
  881MOL0     C16187   4.750   5.068   7.800  0.0367  0.7556 -0.3678
  881MOL0     C16188   4.809   5.197   7.818  0.1721  0.5776 -0.9164
  881MOL0     C16189   4.943   5.196   7.881  0.4153 -0.1952  0.9620
  881MOL0     O16190   4.977   5.093   7.977  0.6364  0.3584 -0.7418
  881MOL0     C16191   5.106   5.082   8.013  0.4864  0.0322 -0.7605
  881MOL0     C16192   5.189   4.982   7.962  0.0471  0.0893  0.5174
  881MOL0     C16193   5.322   4.983   7.993 -0.4975  0.1543  1.0151
  881MOL0     C16194   5.376   5.073   8.082 -0.3786 -0.1040 -0.3346
  881MOL0     O16195   5.510   5.062   8.116  0.3632  0.6573 -0.4154
  881MOL0     C16196   5.563   5.194   8.138  0.0100  0.4272 -0.8246
  881MOL0     C16197   5.709   5.197   8.088  0.0124 -0.7288 -0.3092
  881MOL0     C16198   5.737   5.121   7.963 -0.1755  0.9039 -0.3655
  881MOL0     C16199   5.856   5.171   7.886  0.0144  0.7434 -0.3613
  881MOL0     C16200   5.979   5.112   7.950 -0.7774 -0.1715  0.3103
  881MOL0     C16201   6.110   5.133   7.866 -0.3706  0.1721 -0.0817
  881MOL0     C16202   6.124   5.277   7.813  0.5742  0.3330  0.1580
  881MOL0     C16203   6.265   5.325   7.773  0.3225  0.3886 -0.3104
  881MOL0    Cl16204   6.345   5.207   7.662  0.2783 -0.0772 -0.2688
  881MOL0     C16205   5.292   5.173   8.141  0.2853  0.4286  0.4130
  881MOL0     C16206   5.156   5.167   8.108  0.6600 -0.4510  0.5319
  881MOL0     O16207   5.018   5.292   7.857  0.7891 -0.2001  0.2738
  881MOL0     C16208   4.742   5.312   7.777 -0.2396  0.1577  0.2924
  881MOL0     C16209   4.617   5.299   7.707  0.2744 -0.5553  0.2262
  881MOL0     N16210   4.195   4.862   7.112  0.6239  0.3607  0.5917
  881MOL0     N16211   4.124   4.753   7.108 -0.4152 -0.5297 -1.2395
  881MOL0     C16212   4.809   3.967   6.492 -0.4816 -0.7631  0.0913
  881MOL0     C16213   4.824   3.965   6.351  0.4124 -0.2826  0.2226
  881MOL0     C16214   4.883   3.972   5.897 -1.4106 -0.2262  0.9772
  881MOL0     C16215   4.956   3.876   5.827 -0.2698 -0.1135 -0.1555
  881MOL0     C16216   4.942   3.879   5.689 -0.3578  1.0583  0.2029
  881MOL0     C16217   4.868   3.970   5.620 -1.4883 -0.2376 -0.7939
  881MOL0     O16218   4.859   3.956   5.480 -0.4389  0.2085  0.8190
  881MOL0     C16219   4.817   4.066   5.397  0.4254 -0.0783  0.2487
  881MOL0     C16220   4.818   4.016   5.245  0.8200 -0.3010  0.3325
  881MOL0     C16221   4.694   3.930   5.228  0.6339 -0.4408  0.7249
  881MOL0     C16222   4.670   3.896   5.080 -0.1970 -0.4222 -0.4091
  881MOL0     C16223   4.758   3.784   5.031  0.1404 -0.3331  0.5936
  881MOL0     C16224   4.845   3.703   5.000 -0.0780  0.6571  0.8869
  881MOL0     C16225   4.799   4.061   5.696  0.2001 -0.1897 -0.1852
  881MOL0     C16226   4.806   4.061   5.833  0.2285 -0.4418  0.2810
  881MOL0     H16227   4.818   4.280   6.259  2.1080 -0.2428 -1.5946
  881MOL0     H16228   4.786   4.312   6.518  2.8084 -0.5065  0.9138
  881MOL0     H16229   4.811   3.951   6.792 -0.4633 -0.7322  2.0974
  881MOL0     H16230   4.648   3.944   6.725  1.4633  0.5673 -1.2467
  881MOL0     H16231   4.746   4.154   6.927 -1.9192  1.7360 -1.2920
  881MOL0     H16232   4.673   4.000   6.987  0.5992 -1.1565  0.0077
  881MOL0     H16233   4.465   4.069   6.860 -3.0164  1.6927  2.0790
  881MOL0     H16234   4.533   4.205   6.789  1.6263 -0.1037 -0.0190
  881MOL0     H16235   4.502   4.170   7.087  0.3787  1.5343  1.9995
  881MOL0     H16236   4.560   4.317   7.015  2.5047 -0.8535 -2.0654
  881MOL0     H16237   4.269   4.216   6.992 -0.2481 -0.3253 -2.3900
  881MOL0     H16238   4.342   4.331   6.883 -1.6947 -1.3358 -1.1832
  881MOL0     H16239   4.393   4.483   7.074 -1.1918  0.9470  0.0261
  881MOL0     H16240   4.378   4.362   7.191  2.2887  4.2981  0.5849
  881MOL0     H16241   4.137   4.468   7.002 -0.5032 -4.9916 -2.9144
  881MOL0     H16242   4.127   4.336   7.114  1.8572 -0.7911  3.1748
  881MOL0     H16243   4.220   4.478   7.280 -0.0158 -0.2211 -0.7374
  881MOL0     H16244   4.046   4.515   7.246  0.0222  0.5376  0.1367
  881MOL0     H16245   4.400   4.658   7.253 -0.2816  1.2490  3.7797
  881MOL0     H16246   4.405   5.022   7.116 -0.9517 -0.8717 -0.4842
  881MOL0     H16247   4.506   4.903   7.220 -1.4595 -3.1136 -0.2567
  881MOL0     H16248   4.261   5.041   7.322 -0.2011 -0.9945  0.2149
  881MOL0     H16249   4.417   5.131   7.319 -0.2441  0.4875 -2.0404
  881MOL0     H16250   4.332   4.871   7.467 -0.3959  0.1172  0.8560
  881MOL0     H16251   4.505   4.913   7.453  0.3866 -0.5372  1.7784
  881MOL0     H16252   4.400   4.980   7.678  1.5744  0.4734  0.1883
  881MOL0     H16253   4.273   5.075   7.589 -0.3117 -1.0703  1.8849
  881MOL0     H16254   4.605   4.957   7.705 -0.0663 -0.0256 -0.1669
  881MOL0     H16255   4.804   4.983   7.839  0.5867  0.6607 -1.2945
  881MOL0     H16256   5.151   4.910   7.890  1.0904  0.3827 -0.3543
  881MOL0     H16257   5.387   4.908   7.948 -2.4719 -0.9618 -0.1397
  881MOL0     H16258   5.560   5.224   8.243 -1.7140  2.1863 -1.3223
  881MOL0     H16259   5.523   5.274   8.075  0.4542  1.6067  0.3668
  881MOL0     H16260   5.778   5.156   8.162 -1.0252 -1.7706  0.1210
  881MOL0     H16261   5.729   5.301   8.062 -2.0888  0.3622  1.9957
  881MOL0     H16262   5.638   5.128   7.917 -0.9973  0.4162  1.2430
  881MOL0     H16263   5.739   5.014   7.984  1.8295  0.7472 -1.1243
  881MOL0     H16264   5.862   5.126   7.786  0.7854 -0.2996  0.1465
  881MOL0     H16265   5.865   5.280   7.873  1.5540  0.5767 -0.9516
  881MOL0     H16266   5.971   5.003   7.949  1.6433 -0.4087 -0.1881
  881MOL0     H16267   5.986   5.146   8.054 -1.6427 -1.9586  1.0092
  881MOL0     H16268   6.114   5.071   7.775  0.2316 -0.5867  0.4463
  881MOL0     H16269   6.203   5.121   7.922 -0.4216  0.9071  0.1686
  881MOL0     H16270   6.043   5.290   7.742  0.8896 -2.2579 -0.7957
  881MOL0     H16271   6.097   5.343   7.896 -0.6937  1.6102 -1.2093
  881MOL0     H16272   6.317   5.322   7.869 -3.3700  1.7008  1.9524
  881MOL0     H16273   6.265   5.429   7.739 -0.2855 -0.7125 -4.1691
  881MOL0     H16274   5.333   5.244   8.212 -0.1826  1.0187  0.0990
  881MOL0     H16275   5.087   5.226   8.166 -0.0667 -1.4472  0.7001
  881MOL0     H16276   4.792   5.407   7.789  1.4563 -0.5177 -1.1218
  881MOL0     H16277   4.578   5.385   7.653  2.1755 -1.4494 -2.8353
  881MOL0     H16278   4.800   3.883   6.559  0.7095  1.4608  3.2773
  881MOL0     H16279   4.814   3.862   6.315  3.5673 -0.1293 -1.4513
  881MOL0     H16280   5.002   3.791   5.877 -1.6142 -0.9243 -0.2715
  881MOL0     H16281   4.989   3.799   5.634  0.5148  2.7015 -1.5680
  881MOL0     H16282   4.893   4.142   5.417  1.8801 -1.6808  1.0799
  881MOL0     H16283   4.715   4.096   5.422 -0.7486 -1.8031 -2.1072
  881MOL0     H16284   4.814   4.100   5.175 -3.2360 -0.2240  0.4150
  881MOL0     H16285   4.909   3.958   5.226 -0.0004 -1.0744 -1.3883
  881MOL0     H16286   4.608   3.991   5.258  1.1479  0.6444  0.0585
  881MOL0     H16287   4.696   3.834   5.279 -2.1578 -2.5567 -2.6691
  881MOL0     H16288   4.564   3.870   5.080  0.2512 -2.4348  0.6846
  881MOL0     H16289   4.691   3.980   5.014  0.5386  0.4864  0.9311
  881MOL0     H16290   4.923   3.635   4.973 -1.5305 -0.9756  0.6195
  881MOL0     H16291   4.725   4.132   5.659 -1.3971  0.6668  4.0838
  881MOL0     H16292   4.744   4.132   5.889  1.0464  0.3680  0.1801
  882MOL0     O16293  11.300   8.423   4.524  0.2916 -0.3369  0.6000
  882MOL0     C16294  11.341   8.536   4.497 -0.1506 -0.6739 -0.3226
  882MOL0     O16295  11.287   8.636   4.417 -0.8131 -0.8498  0.8833
  882MOL0     C16296  11.183   8.603   4.329 -0.0847 -0.2582 -0.8533
  882MOL0     C16297  11.092   8.700   4.298 -0.5588 -0.4583 -1.4419
  882MOL0     C16298  10.978   8.680   4.210 -0.1636 -0.7019 -0.3948
  882MOL0     C16299  10.954   8.556   4.151 -1.3060 -0.0575 -0.2077
  882MOL0     O16300  10.833   8.537   4.092  0.1784  0.3570 -0.6221
  882MOL0     C16301  10.831   8.444   3.989  0.5192  0.2826 -0.0008
  882MOL0     C16302  10.919   8.487   3.875  0.0349  0.3874  0.5263
  882MOL0     C16303  10.891   8.394   3.758 -0.1030 -0.4857 -0.1696
  882MOL0     C16304  10.966   8.421   3.636  0.4117  0.2599  0.2211
  882MOL0     C16305  11.123   8.437   3.647  0.9141 -0.3613  0.3110
  882MOL0     C16306  11.195   8.439   3.508 -0.1420 -0.0916  0.7300
  882MOL0     C16307  11.204   8.591   3.465  0.2680 -0.8512 -0.7390
  882MOL0     C16308  11.204   8.589   3.309 -0.2353 -0.0646  1.0634
  882MOL0     N16309  11.168   8.713   3.250  0.3516  0.4254 -0.0664
  882MOL0     C16310  11.047   8.747   3.202 -1.2926  0.4366 -0.6111
  882MOL0     C16311  11.058   8.883   3.171 -0.8444  0.2780  0.2195
  882MOL0     C16312  10.940   8.969   3.130  0.2221 -0.1178 -0.4447
  882MOL0     C16313  10.959   9.118   3.154  0.1721 -0.2239  0.4108
  882MOL0     C16314  10.829   9.200   3.139 -0.0334  0.5999  0.1990
  882MOL0     C16315  10.725   9.201   3.259 -0.5798  0.5147 -0.0549
  882MOL0     O16316  10.641   9.085   3.263  0.8649 -0.1993  0.2875
  882MOL0     C16317  10.533   9.080   3.340  0.4991 -0.2801 -0.3055
  882MOL0     C16318  10.472   8.954   3.359  0.9275  0.1682  0.2469
  882MOL0     C16319  10.349   8.943   3.427 -0.1799  0.1996 -0.1258
  882MOL0     C16320  10.292   9.058   3.491  0.6531 -0.9645 -0.3154
  882MOL0     C16321  10.175   9.041   3.585  0.6700  0.7944  0.8095
  882MOL0     O16322  10.099   9.154   3.626  0.2061 -0.2491  0.6730
  882MOL0     C16323  10.035   9.140   3.745  0.6522  0.6149 -0.3133
  882MOL0     C16324   9.912   9.212   3.757 -0.5856  0.9831  0.4156
  882MOL0     C16325   9.838   9.204   3.881  0.2688  0.6603 -0.3853
  882MOL0     C16326   9.880   9.132   3.990  0.0443  0.0320 -1.0628
  882MOL0     O16327   9.790   9.126   4.095  0.7486  0.2969  0.1209
  882MOL0     C16328   9.856   9.138   4.225  0.7755  0.4979 -0.0134
  882MOL0     C16329   9.753   9.123   4.333 -0.4367  0.0717  0.0073
  882MOL0     C16330   9.657   9.240   4.317  0.0998 -1.0229 -0.2075
  882MOL0     C16331   9.576   9.247   4.448  1.1752 -0.4582  0.0900
  882MOL0     C16332   9.455   9.333   4.417 -0.2672  0.5693 -0.0299
  882MOL0     C16333   9.379   9.372   4.544 -0.0677 -0.2838 -0.2640
  882MOL0     C16334   9.263   9.487   4.524 -0.1740 -0.2006 -0.1617
  882MOL0     C16335   9.217   9.549   4.656  0.2791 -0.0886 -0.7800
  882MOL0    Cl16336   9.058   9.637   4.629 -0.1146  0.2123 -0.0950
  882MOL0     C16337  10.001   9.057   3.983  0.0478 -0.0978  0.3040
  882MOL0     C16338  10.070   9.061   3.863 -0.3047  0.2294  0.0933
  882MOL0     O16339  10.146   8.928   3.608  0.1790 -0.0757 -0.0128
  882MOL0     C16340  10.355   9.188   3.488  0.1473 -0.1524  0.5559
  882MOL0     C16341  10.477   9.192   3.415 -0.3736 -0.1324 -0.8630
  882MOL0     N16342  11.181   8.923   3.206  0.2623  0.6506  0.2227
  882MOL0     N16343  11.249   8.820   3.245 -0.1010 -0.3962 -0.7465
  882MOL0     C16344  11.054   8.455   4.185 -1.3552  0.1717  1.4346
  882MOL0     C16345  11.158   8.476   4.267 -2.0317  0.6216 -1.6116
  882MOL0     C16346  11.466   8.576   4.556  0.4304 -0.4890 -0.6906
  882MOL0     C16347  11.530   8.697   4.519  0.3044  1.0050  0.4117
  882MOL0     C16348  11.653   8.730   4.581  0.6289 -0.2766 -0.3281
  882MOL0     C16349  11.718   8.655   4.685 -0.1939  0.0757  0.7516
  882MOL0     O16350  11.842   8.669   4.747 -0.3125 -0.3479  0.7239
  882MOL0     C16351  11.934   8.758   4.696  0.3461  0.2906 -0.3211
  882MOL0     C16352  12.002   8.703   4.568 -0.5171 -0.7319 -0.2160
  882MOL0     C16353  12.147   8.756   4.549 -0.2510 -0.2025 -0.4699
  882MOL0     C16354  12.206   8.673   4.439 -0.5234  0.3914 -0.0786
  882MOL0     C16355  12.268   8.552   4.498  0.6601 -0.7413 -0.0151
  882MOL0     C16356  12.322   8.449   4.546 -0.7313 -0.3920 -0.1184
  882MOL0     C16357  11.640   8.537   4.714  0.3018  0.0980  0.0055
  882MOL0     C16358  11.520   8.506   4.664  0.7964  0.0205  0.5802
  882MOL0     H16359  11.094   8.800   4.339 -2.3168 -0.7726 -0.4574
  882MOL0     H16360  10.914   8.762   4.180 -0.2549 -0.6642 -0.0953
  882MOL0     H16361  10.730   8.425   3.952  1.4550 -3.9527 -1.0325
  882MOL0     H16362  10.861   8.347   4.032 -0.9775 -1.1134 -1.9334
  882MOL0     H16363  11.020   8.463   3.908 -0.7568 -2.0936  1.3566
  882MOL0     H16364  10.901   8.593   3.854  0.9886  0.3947 -0.3011
  882MOL0     H16365  10.785   8.403   3.734  0.4446  0.1780 -2.5946
  882MOL0     H16366  10.923   8.293   3.786  1.5468 -0.6348 -2.2548
  882MOL0     H16367  10.949   8.339   3.566  0.8796  2.4351 -2.6365
  882MOL0     H16368  10.926   8.507   3.582  1.3175 -0.0799 -1.0380
  882MOL0     H16369  11.165   8.363   3.716 -1.5202  1.6530  4.3096
  882MOL0     H16370  11.144   8.533   3.696  1.3106 -1.0358  1.5015
  882MOL0     H16371  11.138   8.379   3.436 -1.5305  1.2179  0.6642
  882MOL0     H16372  11.299   8.409   3.524  0.3643  0.4283 -1.2077
  882MOL0     H16373  11.120   8.652   3.499  2.5610  2.4066 -0.3856
  882MOL0     H16374  11.278   8.649   3.522 -0.8473 -0.9866  0.9304
  882MOL0     H16375  11.127   8.522   3.269 -0.7898  2.2694 -2.1717
  882MOL0     H16376  11.299   8.560   3.264 -1.1425 -0.2435 -0.8532
  882MOL0     H16377  10.964   8.678   3.198  0.4945 -2.0904  2.1490
  882MOL0     H16378  10.852   8.942   3.189  1.0049  0.5615  1.0830
  882MOL0     H16379  10.925   8.952   3.023  1.6319  0.2402 -0.7159
  882MOL0     H16380  11.031   9.158   3.081  1.7892 -0.5746  1.7438
  882MOL0     H16381  11.005   9.143   3.250 -1.2958 -0.0733  1.0963
  882MOL0     H16382  10.845   9.305   3.115 -1.8758  0.3845 -2.4659
  882MOL0     H16383  10.780   9.168   3.046  1.5981 -0.0343 -0.4851
  882MOL0     H16384  10.661   9.289   3.245 -3.4119 -1.5793 -1.3825
  882MOL0     H16385  10.767   9.213   3.359 -3.9427 -0.3684  1.6265
  882MOL0     H16386  10.508   8.862   3.314  3.1525  0.7667  0.6646
  882MOL0     H16387  10.303   8.845   3.439  0.1196 -0.0352 -0.8812
  882MOL0     H16388   9.890   9.268   3.667  2.3898  1.9825  0.1859
  882MOL0     H16389   9.746   9.260   3.894  0.3120  0.5605  0.3702
  882MOL0     H16390   9.911   9.233   4.231  1.0378  0.3538 -0.1399
  882MOL0     H16391   9.930   9.059   4.235 -0.0262 -0.1319  1.2171
  882MOL0     H16392   9.798   9.129   4.432 -4.4491  0.2089  2.0487
  882MOL0     H16393   9.707   9.024   4.343  2.6727 -1.3531  1.5951
  882MOL0     H16394   9.587   9.239   4.233  0.3040  2.7043 -0.5877
  882MOL0     H16395   9.723   9.327   4.313  0.1472 -0.9953  0.8927
  882MOL0     H16396   9.531   9.151   4.476 -2.5565  1.1688  0.2613
  882MOL0     H16397   9.633   9.292   4.530  0.6911  0.0467  0.1602
  882MOL0     H16398   9.393   9.275   4.348  0.2001 -2.3709  1.8274
  882MOL0     H16399   9.481   9.427   4.369  0.0919  1.1163  1.1967
  882MOL0     H16400   9.452   9.406   4.618  3.0316  0.4585 -3.4271
  882MOL0     H16401   9.328   9.278   4.566  2.9722 -2.2378 -1.0289
  882MOL0     H16402   9.291   9.567   4.455 -1.8538  2.6008  2.1672
  882MOL0     H16403   9.177   9.435   4.480 -2.3115  2.8840  0.0439
  882MOL0     H16404   9.287   9.626   4.691 -3.0320  2.1431  1.5480
  882MOL0     H16405   9.217   9.471   4.733  0.7837 -0.4568 -1.1417
  882MOL0     H16406  10.024   8.989   4.065 -1.9092  1.6472  2.4170
  882MOL0     H16407  10.151   8.993   3.838  0.5455  0.9144  0.9065
  882MOL0     H16408  10.325   9.285   3.526  1.1135  0.8453 -1.1101
  882MOL0     H16409  10.519   9.291   3.425 -1.0655  0.0278  0.9176
  882MOL0     H16410  11.039   8.354   4.148  1.1349 -0.5633  2.2260
  882MOL0     H16411  11.226   8.392   4.274 -2.3200  0.2611 -2.9696
  882MOL0     H16412  11.487   8.753   4.437 -0.0809 -2.5940 -2.0812
  882MOL0     H16413  11.707   8.816   4.543 -0.7329 -1.1427 -4.9432
  882MOL0     H16414  12.011   8.773   4.773  1.2087  0.0512 -1.1119
  882MOL0     H16415  11.901   8.859   4.669  3.1427  0.7346 -2.5088
  882MOL0     H16416  11.999   8.594   4.569  2.4078 -0.8801  0.4005
  882MOL0     H16417  11.946   8.729   4.478  1.1093  0.9401 -0.8000
  882MOL0     H16418  12.197   8.762   4.646 -3.4321 -1.3358  1.3988
  882MOL0     H16419  12.141   8.859   4.513  4.1924  0.5297  0.3054
  882MOL0     H16420  12.137   8.660   4.355 -0.5969 -2.0095  0.2754
  882MOL0     H16421  12.286   8.734   4.397 -0.9457  0.0732 -1.3832
  882MOL0     H16422  12.350   8.350   4.575  0.7137  0.4544  1.5209
  882MOL0     H16423  11.690   8.475   4.788  1.3152  2.0778  1.0394
  882MOL0     H16424  11.467   8.427   4.716  1.2214 -0.3943  0.3939
  883MOL0     O16425  10.862   0.258   7.708  0.0295 -0.0181 -0.1422
  883MOL0     C16426  10.850   0.138   7.694  0.1375 -0.0432  0.5739
  883MOL0     O16427  10.733   0.063   7.681 -0.2341  0.3911 -0.8792
  883MOL0     C16428  10.608   0.122   7.646 -0.8056  0.2779 -0.5481
  883MOL0     C16429  10.538   0.046   7.555 -0.1430  0.3090 -0.5118
  883MOL0     C16430  10.419   0.088   7.504  0.2175 -0.0196  0.3757
  883MOL0     C16431  10.362   0.207   7.538 -0.2499 -0.1707 -0.3025
  883MOL0     O16432  10.238   0.245   7.487 -0.8599  0.4595 -0.0556
  883MOL0     C16433  10.154   0.315   7.581 -0.6659 -0.0888 -0.2002
  883MOL0     C16434  10.009   0.296   7.555 -1.0660  0.3051  0.6128
  883MOL0     C16435   9.911   0.396   7.619 -0.1809  0.0374 -0.0638
  883MOL0     C16436   9.761   0.352   7.587 -1.0023  0.1319 -1.1946
  883MOL0     C16437   9.660   0.457   7.631  0.5693 -0.0005  1.2517
  883MOL0     C16438   9.520   0.400   7.639 -0.2503  0.0869 -0.3734
  883MOL0     C16439   9.436   0.478   7.744  0.2058 -0.6044 -0.4441
  883MOL0     C16440   9.408   0.631   7.717  0.2753  0.1905 -0.4692
  883MOL0     N16441   9.340   0.623   7.586 -0.9463 -0.5266 -0.8244
  883MOL0     C16442   9.392   0.649   7.463 -0.1238 -0.2579 -0.4546
  883MOL0     C16443   9.293   0.614   7.377  0.4818 -0.3808  0.6546
  883MOL0     C16444   9.316   0.628   7.227  0.7237  0.4215  0.0699
  883MOL0     C16445   9.301   0.490   7.170  0.1580  1.3891  0.2912
  883MOL0     C16446   9.415   0.389   7.212  0.4312  0.3330  0.4753
  883MOL0     C16447   9.558   0.415   7.169  0.5964 -1.2916 -0.4141
  883MOL0     O16448   9.640   0.313   7.219  0.0473 -0.1396  0.6106
  883MOL0     C16449   9.769   0.309   7.168  0.4011 -0.3717  1.2470
  883MOL0     C16450   9.843   0.196   7.179 -0.4087 -0.5026  0.5542
  883MOL0     C16451   9.971   0.186   7.124 -0.4478  0.4655 -0.4263
  883MOL0     C16452  10.032   0.297   7.068 -0.2047 -0.6433 -0.2386
  883MOL0     C16453  10.176   0.301   7.036 -0.5078 -0.9949 -0.8299
  883MOL0     O16454  10.240   0.414   6.984  0.0939  0.0418  0.5107
  883MOL0     C16455  10.376   0.413   6.953 -0.3360 -0.4404  0.0292
  883MOL0     C16456  10.464   0.401   7.057  0.7820 -0.0860  1.3289
  883MOL0     C16457  10.598   0.444   7.040  0.1345 -0.4359 -0.0244
  883MOL0     C16458  10.635   0.501   6.918  0.0911  0.0625  0.0928
  883MOL0     O16459  10.766   0.545   6.922 -0.0596  0.0339  0.3117
  883MOL0     C16460  10.825   0.649   6.846  0.2539  0.6365 -1.1266
  883MOL0     C16461  10.979   0.636   6.866  0.3952 -0.6460  0.3060
  883MOL0     C16462  11.022   0.545   6.751 -0.3275 -0.8783  0.8425
  883MOL0     C16463  11.167   0.484   6.764 -0.3025 -0.0567  0.5658
  883MOL0     C16464  11.212   0.422   6.642  0.4160  0.0864  1.1804
  883MOL0     C16465  11.294   0.523   6.553  0.2248  0.0617 -1.3721
  883MOL0     C16466  11.326   0.450   6.427 -0.5547  0.1929  0.1831
  883MOL0     C16467  11.401   0.559   6.336 -0.1602 -0.0418 -0.2776
  883MOL0    Cl16468  11.571   0.527   6.393 -0.2780  0.0277 -0.2142
  883MOL0     C16469  10.547   0.494   6.804 -0.0386 -0.3923 -0.1841
  883MOL0     C16470  10.415   0.455   6.828  0.6098  0.0187  0.8233
  883MOL0     O16471  10.236   0.195   7.061 -0.3421  0.0056  0.9798
  883MOL0     C16472   9.963   0.414   7.063  0.1764 -1.9177  0.0283
  883MOL0     C16473   9.827   0.427   7.106 -0.7181  0.3822  0.0627
  883MOL0     N16474   9.187   0.561   7.440  0.4390 -1.0773 -0.1435
  883MOL0     N16475   9.217   0.572   7.569  0.1886 -0.1882  0.1750
  883MOL0     C16476  10.437   0.292   7.628 -0.0576 -0.1281 -0.0618
  883MOL0     C16477  10.560   0.254   7.674 -0.0652 -0.0273 -1.1919
  883MOL0     C16478  10.971   0.058   7.698 -0.0522  1.2292 -0.7227
  883MOL0     C16479  10.959  -0.087   7.694 -0.9436 -0.4026  0.0214
  883MOL0     C16480  11.076  -0.157   7.705 -0.3058  0.4103  0.0298
  883MOL0     C16481  11.205  -0.095   7.701 -1.1250  0.2202 -0.6015
  883MOL0     O16482  11.320  -0.177   7.690  0.5047  0.5099  0.0195
  883MOL0     C16483  11.445  -0.121   7.639 -0.1160 -0.1760  0.5537
  883MOL0     C16484  11.538  -0.240   7.630 -0.1104  0.0765  0.4754
  883MOL0     C16485  11.499  -0.338   7.522  0.3229 -0.0889  0.2577
  883MOL0     C16486  11.594  -0.451   7.496  0.8824  0.5225  0.4840
  883MOL0     C16487  11.682  -0.418   7.381  0.5725  1.0031 -0.6802
  883MOL0     C16488  11.748  -0.364   7.292 -0.0890  0.3957  0.8854
  883MOL0     C16489  11.219   0.040   7.698 -0.2217  0.6470  0.8670
  883MOL0     C16490  11.097   0.116   7.698 -0.8808 -0.5570  0.2189
  883MOL0     H16491  10.568  -0.056   7.533 -1.0877  0.2475 -1.6065
  883MOL0     H16492  10.355   0.030   7.439 -1.4093  0.6542  1.3152
  883MOL0     H16493  10.176   0.421   7.573 -1.5341  0.2756  1.7322
  883MOL0     H16494  10.171   0.274   7.681 -1.0131  1.0880  0.3544
  883MOL0     H16495   9.983   0.195   7.587  1.1236  0.6131  3.8840
  883MOL0     H16496   9.993   0.305   7.447  1.1425  2.5370  0.3581
  883MOL0     H16497   9.915   0.497   7.578 -4.9809 -0.9312 -3.8083
  883MOL0     H16498   9.930   0.389   7.727  1.2788 -0.5535 -0.3453
  883MOL0     H16499   9.757   0.338   7.479 -0.6842 -1.3379 -1.0307
  883MOL0     H16500   9.738   0.256   7.635  0.1261 -0.1575 -1.2154
  883MOL0     H16501   9.670   0.540   7.561  2.3869 -2.1682 -1.2760
  883MOL0     H16502   9.689   0.480   7.734 -0.8685  0.9614  1.4720
  883MOL0     H16503   9.531   0.300   7.680  0.2274  0.0946 -0.4690
  883MOL0     H16504   9.462   0.395   7.546 -1.0931  2.9251 -0.1046
  883MOL0     H16505   9.336   0.435   7.733  0.0351  0.1529 -1.9565
  883MOL0     H16506   9.479   0.464   7.844  1.7433  2.5418 -0.5567
  883MOL0     H16507   9.501   0.688   7.716  0.0943  0.5266 -2.6267
  883MOL0     H16508   9.347   0.665   7.800 -1.7224  1.0587 -2.2209
  883MOL0     H16509   9.489   0.692   7.439 -0.2677  3.4220  4.2174
  883MOL0     H16510   9.418   0.661   7.204  0.3147  1.7316  0.0896
  883MOL0     H16511   9.250   0.697   7.174 -0.7539 -0.4020  0.7762
  883MOL0     H16512   9.306   0.503   7.061  0.6802 -1.4041 -0.1139
  883MOL0     H16513   9.211   0.438   7.203  1.6277 -2.5797 -1.2151
  883MOL0     H16514   9.417   0.377   7.321  1.5001 -0.9619  0.3433
  883MOL0     H16515   9.371   0.304   7.159 -0.6022  0.1925  1.5001
  883MOL0     H16516   9.594   0.505   7.219  0.6298 -0.6189 -1.6225
  883MOL0     H16517   9.563   0.424   7.060 -0.9037 -0.6298 -0.4598
  883MOL0     H16518   9.801   0.104   7.220  1.0718 -1.0018  1.0061
  883MOL0     H16519  10.019   0.090   7.139 -2.6309 -0.4337  1.5929
  883MOL0     H16520  10.424   0.373   7.154  1.5113  2.4422  2.4414
  883MOL0     H16521  10.673   0.435   7.118  2.0646  0.1074 -1.7351
  883MOL0     H16522  10.797   0.746   6.887  1.0134  0.2517  0.3500
  883MOL0     H16523  10.797   0.657   6.740 -0.7806  3.2177 -0.7462
  883MOL0     H16524  11.004   0.593   6.963  0.3520  2.4232  1.7798
  883MOL0     H16525  11.027   0.734   6.862 -0.5497 -0.1345  1.0772
  883MOL0     H16526  11.018   0.592   6.653 -2.1394  1.0731  1.7743
  883MOL0     H16527  10.945   0.471   6.728  1.4819 -1.6840 -3.5656
  883MOL0     H16528  11.229   0.564   6.806 -1.3778 -0.3320  2.8049
  883MOL0     H16529  11.179   0.400   6.833  0.8086 -1.5028 -1.2761
  883MOL0     H16530  11.119   0.391   6.593  0.7306  0.9681 -0.0146
  883MOL0     H16531  11.274   0.333   6.661 -0.3717 -1.1814 -1.5969
  883MOL0     H16532  11.383   0.553   6.608 -0.5522  0.9404 -0.5440
  883MOL0     H16533  11.241   0.616   6.532  0.1908 -0.0360 -1.7309
  883MOL0     H16534  11.380   0.357   6.444 -0.4759  0.5966  2.4848
  883MOL0     H16535  11.233   0.433   6.371 -0.1594  2.3981 -1.2891
  883MOL0     H16536  11.365   0.661   6.353 -0.0423  0.1470 -1.1087
  883MOL0     H16537  11.397   0.539   6.229  2.7816 -1.3345 -0.2395
  883MOL0     H16538  10.572   0.515   6.700  2.6999 -0.5623  0.3431
  883MOL0     H16539  10.343   0.478   6.751  2.0891  0.7522 -0.3881
  883MOL0     H16540  10.013   0.501   7.022 -0.8583 -0.7770  1.1189
  883MOL0     H16541   9.767   0.517   7.098 -0.6975  0.4088  0.2011
  883MOL0     H16542  10.402   0.395   7.635 -0.1791 -0.0504 -1.5037
  883MOL0     H16543  10.616   0.330   7.727  1.1885  1.1271 -3.9825
  883MOL0     H16544  10.871  -0.150   7.688 -0.8014 -0.5661 -0.4362
  883MOL0     H16545  11.077  -0.265   7.716 -1.0353  0.1832 -1.8310
  883MOL0     H16546  11.497  -0.059   7.713  2.8459 -1.9236  0.0715
  883MOL0     H16547  11.432  -0.066   7.546 -1.9181 -1.2989  0.0976
  883MOL0     H16548  11.639  -0.208   7.604 -0.2198 -0.1479 -0.2649
  883MOL0     H16549  11.533  -0.302   7.719 -1.6256 -1.8800 -0.8746
  883MOL0     H16550  11.491  -0.293   7.423 -1.8839 -0.2668  0.3185
  883MOL0     H16551  11.402  -0.378   7.553  1.0333 -0.7631  1.7365
  883MOL0     H16552  11.661  -0.465   7.581  1.8146  1.1255 -0.1308
  883MOL0     H16553  11.538  -0.543   7.474  2.6543 -0.7963  1.2199
  883MOL0     H16554  11.819  -0.325   7.222  2.0779 -2.2850  1.4230
  883MOL0     H16555  11.315   0.090   7.695 -0.9872  2.1517  0.8850
  883MOL0     H16556  11.113   0.223   7.706 -1.1075 -0.6563  2.5099
  884MOL0     O16557   8.167  10.800   8.521 -0.2738 -0.1390  0.0007
  884MOL0     C16558   8.205  10.913   8.559 -0.5500  0.2418 -0.2235
  884MOL0     O16559   8.128  11.015   8.604 -0.1725 -0.3340  0.1143
  884MOL0     C16560   7.996  10.984   8.607  0.9294  0.0434 -0.3767
  884MOL0     C16561   7.917  11.022   8.493 -1.0266  0.1361  0.6198
  884MOL0     C16562   7.784  10.977   8.482 -0.2215  0.1348  0.2285
  884MOL0     C16563   7.721  10.897   8.581  1.2023  1.0263  0.7105
  884MOL0     O16564   7.594  10.855   8.556  0.6010 -0.2896 -0.3463
  884MOL0     C16565   7.533  10.765   8.651  0.6320 -0.3396 -0.2190
  884MOL0     C16566   7.399  10.749   8.577 -0.3072  0.6584  0.4789
  884MOL0     C16567   7.296  10.680   8.665 -0.6542  0.3974  0.5349
  884MOL0     C16568   7.171  10.626   8.599  0.7146 -0.3717  0.1987
  884MOL0     C16569   7.177  10.507   8.510  0.3476 -0.0617 -0.3710
  884MOL0     C16570   7.051  10.477   8.437  0.2919 -0.1061 -0.0798
  884MOL0     C16571   7.062  10.337   8.378  0.4962 -0.5182 -0.6433
  884MOL0     C16572   7.020  10.235   8.475  0.3730 -0.7770 -0.3216
  884MOL0     N16573   7.060  10.103   8.421  0.4006 -0.6321 -0.2964
  884MOL0     C16574   7.018   9.978   8.468  0.0758  0.5874 -0.1503
  884MOL0     C16575   7.124   9.895   8.441  0.5786  0.8946 -1.1157
  884MOL0     C16576   7.135   9.758   8.503 -0.1782 -0.1269  0.9156
  884MOL0     C16577   7.028   9.659   8.462  0.6100 -0.3477  0.3265
  884MOL0     C16578   7.016   9.515   8.520  0.4284  0.5405  1.0617
  884MOL0     C16579   7.020   9.502   8.671 -0.2632  0.7883 -0.7010
  884MOL0     O16580   6.990   9.370   8.714 -0.4940 -0.2527  0.4747
  884MOL0     C16581   7.082   9.298   8.778 -0.5251 -0.2734 -0.1041
  884MOL0     C16582   7.219   9.306   8.758  0.1135  0.7449 -0.3190
  884MOL0     C16583   7.306   9.222   8.827  0.4536  0.8067  0.8289
  884MOL0     C16584   7.265   9.120   8.912 -0.9677  0.7954  0.1122
  884MOL0     C16585   7.365   9.031   8.972  0.5437 -0.5793  0.2633
  884MOL0     O16586   7.495   9.065   8.965 -0.0357  0.2141 -0.2711
  884MOL0     C16587   7.589   8.986   9.027  0.3870  0.3512 -0.3725
  884MOL0     C16588   7.696   8.950   8.950 -0.3548 -0.4282 -1.2135
  884MOL0     C16589   7.791   8.868   9.005 -0.6327  0.3866  0.9050
  884MOL0     C16590   7.781   8.820   9.138 -0.6822 -0.2105 -0.1188
  884MOL0     O16591   7.879   8.743   9.202 -0.1995  1.0873  1.2268
  884MOL0     C16592   8.018   8.766   9.172 -0.1756  0.0982  0.1422
  884MOL0     C16593   8.111   8.687   9.267  0.2632  0.0978  0.1443
  884MOL0     C16594   8.261   8.702   9.236 -0.1101  0.4417  0.4913
  884MOL0     C16595   8.349   8.628   9.333  0.2918  0.1872 -0.1108
  884MOL0     C16596   8.491   8.613   9.285  0.5537  0.1304 -1.2426
  884MOL0     C16597   8.586   8.541   9.383  0.9620  0.0883  0.3143
  884MOL0     C16598   8.730   8.526   9.322  0.9733 -0.4021 -0.2125
  884MOL0     C16599   8.747   8.430   9.200  0.2655  0.4661  0.5068
  884MOL0    Cl16600   8.888   8.466   9.107 -0.4849 -0.1039 -0.1959
  884MOL0     C16601   7.686   8.872   9.223 -0.0000 -0.3202  0.4122
  884MOL0     C16602   7.586   8.953   9.166  0.2232 -0.2844 -0.7425
  884MOL0     O16603   7.323   8.935   9.038 -0.4086 -1.4629 -0.2167
  884MOL0     C16604   7.130   9.108   8.938 -0.3171 -0.1941  0.6578
  884MOL0     C16605   7.036   9.195   8.862  0.3720  0.3885  0.3330
  884MOL0     N16606   7.222   9.954   8.382 -0.6272  0.0721  0.1825
  884MOL0     N16607   7.184  10.078   8.366 -0.0577  0.4427  0.1850
  884MOL0     C16608   7.797  10.865   8.693 -0.1622 -0.2848  0.0785
  884MOL0     C16609   7.927  10.911   8.709  0.0909 -0.3143  0.9959
  884MOL0     C16610   8.359  10.932   8.567  0.1798 -0.3957 -0.5689
  884MOL0     C16611   8.448  10.812   8.567  0.4781 -0.3711 -0.0952
  884MOL0     C16612   8.584  10.840   8.575 -0.0581  0.3646 -1.0631
  884MOL0     C16613   8.637  10.967   8.599 -0.3004 -0.5816 -0.5858
  884MOL0     O16614   8.776  10.969   8.608 -0.2962 -0.0076  0.2143
  884MOL0     C16615   8.860  11.066   8.550 -0.4490  0.5072 -0.2318
  884MOL0     C16616   9.006  11.023   8.575 -0.6642 -0.4248 -0.2290
  884MOL0     C16617   9.108  11.128   8.537  0.6587  0.1784 -0.1930
  884MOL0     C16618   9.246  11.095   8.591  0.2930  0.2544 -0.3372
  884MOL0     C16619   9.354  11.195   8.557  0.9351 -0.3681  0.5859
  884MOL0     C16620   9.433  11.280   8.521 -0.4350 -0.2843  0.6481
  884MOL0     C16621   8.547  11.075   8.607  0.2139 -0.0017  1.6439
  884MOL0     C16622   8.414  11.060   8.595  0.2353 -0.3900  0.1130
  884MOL0     H16623   7.970  11.074   8.413  1.4421 -1.5239  1.0588
  884MOL0     H16624   7.730  11.005   8.393 -0.7258 -1.2289  0.0824
  884MOL0     H16625   7.516  10.808   8.751  1.0592 -1.3255  0.2855
  884MOL0     H16626   7.586  10.670   8.645 -2.5090 -2.1672 -1.4362
  884MOL0     H16627   7.415  10.711   8.476 -0.1386 -0.0255  0.7583
  884MOL0     H16628   7.345  10.842   8.556 -0.3186  1.0534  2.1053
  884MOL0     H16629   7.265  10.737   8.753 -2.1990  1.3140 -0.5617
  884MOL0     H16630   7.343  10.591   8.708 -1.0809  0.0353  0.2599
  884MOL0     H16631   7.099  10.613   8.680  2.5816 -0.4605  1.9107
  884MOL0     H16632   7.124  10.706   8.541 -1.8754 -2.6396 -1.0868
  884MOL0     H16633   7.208  10.426   8.576  2.1775  2.2253  1.7742
  884MOL0     H16634   7.262  10.518   8.442  1.2883 -2.4103  0.3189
  884MOL0     H16635   7.063  10.558   8.364  2.6435 -0.4433 -0.1553
  884MOL0     H16636   6.955  10.497   8.484 -0.5520 -1.1023 -1.3285
  884MOL0     H16637   6.996  10.334   8.291  3.8189 -2.9663 -3.3556
  884MOL0     H16638   7.165  10.324   8.344  0.8290  2.4663 -1.0338
  884MOL0     H16639   6.911  10.237   8.484  0.0491  0.9017 -3.3793
  884MOL0     H16640   7.075  10.243   8.569 -0.4045 -0.7489  0.1478
  884MOL0     H16641   6.943   9.941   8.537  2.8161 -3.1856  1.1540
  884MOL0     H16642   7.114   9.774   8.609  0.5815  1.8719  0.7957
  884MOL0     H16643   7.240   9.726   8.501 -0.8599 -2.6036  0.7053
  884MOL0     H16644   7.042   9.650   8.354 -1.6472 -1.1646  0.0432
  884MOL0     H16645   6.932   9.712   8.462 -0.3561 -1.9256  2.5719
  884MOL0     H16646   6.934   9.462   8.470  0.4257 -1.2180  2.8049
  884MOL0     H16647   7.103   9.452   8.498 -2.5179 -3.3654 -0.6694
  884MOL0     H16648   6.938   9.567   8.705 -1.3789 -0.2306 -1.3345
  884MOL0     H16649   7.117   9.530   8.713 -1.5204 -0.1708  3.3143
  884MOL0     H16650   7.253   9.386   8.694 -0.7831  2.2181  0.9780
  884MOL0     H16651   7.412   9.229   8.807  0.5729  1.3627  1.6373
  884MOL0     H16652   7.696   8.994   8.850  1.8136 -0.6583 -1.3632
  884MOL0     H16653   7.879   8.830   8.954 -0.5897  2.1313 -0.3856
  884MOL0     H16654   8.044   8.872   9.184 -0.3420  0.1643 -0.0561
  884MOL0     H16655   8.032   8.717   9.075 -2.9737  0.9396 -0.7706
  884MOL0     H16656   8.078   8.583   9.268  0.3161  0.0684 -0.7818
  884MOL0     H16657   8.088   8.732   9.364 -0.1416 -1.1524  0.6449
  884MOL0     H16658   8.290   8.807   9.226 -2.7868  1.0048 -4.1538
  884MOL0     H16659   8.267   8.647   9.142 -0.9862 -0.1946  0.7924
  884MOL0     H16660   8.363   8.674   9.432  3.0068 -1.9418  0.6342
  884MOL0     H16661   8.300   8.530   9.343 -1.8945  1.0921 -1.2917
  884MOL0     H16662   8.531   8.715   9.279  1.2652  0.0266  0.8800
  884MOL0     H16663   8.493   8.551   9.195 -1.2924 -1.0050 -0.5587
  884MOL0     H16664   8.547   8.441   9.403 -0.9102 -0.0479 -3.2438
  884MOL0     H16665   8.589   8.595   9.478  0.5634 -1.6147  1.3342
  884MOL0     H16666   8.757   8.627   9.291 -1.6685 -0.3320 -2.7253
  884MOL0     H16667   8.783   8.502   9.415  1.4241  0.2582 -0.2900
  884MOL0     H16668   8.666   8.434   9.127  1.8507 -0.1990 -1.3862
  884MOL0     H16669   8.754   8.329   9.242  0.2285  1.7897  3.9797
  884MOL0     H16670   7.688   8.853   9.330  2.4041 -1.4785  0.2277
  884MOL0     H16671   7.507   8.995   9.227  1.2260  0.8506 -0.1833
  884MOL0     H16672   7.091   9.032   9.006  1.0240 -0.0809  1.5902
  884MOL0     H16673   6.934   9.157   8.860  1.0579 -1.9538  2.9208
  884MOL0     H16674   7.751  10.799   8.767 -1.1564 -1.6999 -1.7115
  884MOL0     H16675   7.976  10.875   8.799  0.5458 -0.6159  0.6314
  884MOL0     H16676   8.406  10.713   8.550  0.9519 -1.0667  2.4814
  884MOL0     H16677   8.654  10.761   8.550 -2.1126 -1.9719  0.1314
  884MOL0     H16678   8.844  11.159   8.604 -2.7720 -1.1081  2.1198
  884MOL0     H16679   8.842  11.087   8.444  1.8250  3.4723 -0.1716
  884MOL0     H16680   9.015  10.989   8.678 -0.5586 -1.9471 -0.7213
  884MOL0     H16681   9.018  10.930   8.520  0.5050 -1.2387  1.3440
  884MOL0     H16682   9.074  11.225   8.575  0.2936 -0.4387  1.1295
  884MOL0     H16683   9.103  11.143   8.429  0.2051 -2.5368 -0.6151
  884MOL0     H16684   9.238  11.081   8.699 -3.0818 -1.1387 -0.6613
  884MOL0     H16685   9.287  11.005   8.545 -0.4235 -0.1673 -0.1703
  884MOL0     H16686   9.493  11.366   8.497 -0.1353 -0.6239  0.1458
  884MOL0     H16687   8.584  11.175   8.628 -1.5683  0.9575  0.4205
  884MOL0     H16688   8.360  11.152   8.613  0.5103 -0.0087 -0.9839
  885MOL0     O16689   9.700   0.710   7.373 -0.9568 -0.1177 -0.6263
  885MOL0     C16690   9.789   0.791   7.391 -0.0773  0.5870  0.2892
  885MOL0     O16691   9.774   0.915   7.438 -0.0555 -0.3203 -0.1063
  885MOL0     C16692   9.643   0.953   7.466  0.0183 -0.1224  0.6427
  885MOL0     C16693   9.553   0.996   7.365  0.1724 -0.0331  0.8988
  885MOL0     C16694   9.424   1.026   7.397  0.2657  0.2189 -0.5642
  885MOL0     C16695   9.375   1.018   7.533  0.2406 -1.4025  1.7818
  885MOL0     O16696   9.246   1.059   7.543 -0.4117 -0.6215 -0.1064
  885MOL0     C16697   9.168   1.072   7.663  0.4959  0.5712 -0.6715
  885MOL0     C16698   9.119   0.935   7.692 -0.7093  0.8064  0.2492
  885MOL0     C16699   9.053   0.862   7.576  0.8492  1.1529  0.4460
  885MOL0     C16700   8.908   0.885   7.567 -0.4197 -0.1059  0.0463
  885MOL0     C16701   8.846   0.850   7.441 -0.7860  0.8471 -0.3619
  885MOL0     C16702   8.849   0.697   7.415 -0.1683  0.4414 -0.7435
  885MOL0     C16703   8.765   0.636   7.305 -0.7638 -0.0621 -0.2948
  885MOL0     C16704   8.849   0.604   7.179  0.5386 -0.2458 -0.3447
  885MOL0     N16705   8.890   0.725   7.103  0.4364 -0.1446  0.4519
  885MOL0     C16706   8.993   0.805   7.147 -0.6456 -0.0981  0.9401
  885MOL0     C16707   9.018   0.892   7.050  0.1984  0.1485 -0.7596
  885MOL0     C16708   9.121   1.004   7.043  0.4066 -0.0626  0.1819
  885MOL0     C16709   9.271   0.962   7.002 -0.6295 -0.1921  1.2360
  885MOL0     C16710   9.356   1.075   6.947  0.3053  0.7175 -0.6904
  885MOL0     C16711   9.483   1.024   6.870  0.8241 -0.1442  0.9736
  885MOL0     O16712   9.584   0.994   6.958 -0.4428 -0.1668  0.5651
  885MOL0     C16713   9.699   0.935   6.905 -0.4773 -0.5895 -0.8203
  885MOL0     C16714   9.731   0.960   6.774  0.2435  0.8187  0.0865
  885MOL0     C16715   9.841   0.895   6.725 -0.3716  0.7136 -0.0846
  885MOL0     C16716   9.924   0.811   6.802  1.7283 -0.9387  0.6376
  885MOL0     C16717  10.032   0.738   6.732 -0.2323  0.1065 -0.3147
  885MOL0     O16718  10.082   0.788   6.609 -0.1170  0.4020  0.0880
  885MOL0     C16719  10.188   0.715   6.557  1.2033  0.2783 -0.9550
  885MOL0     C16720  10.307   0.778   6.530 -0.5080  0.5963  0.0607
  885MOL0     C16721  10.403   0.706   6.458 -0.8027 -1.0135 -0.1576
  885MOL0     C16722  10.391   0.571   6.420  0.3913 -0.0814 -0.4003
  885MOL0     O16723  10.478   0.501   6.341  0.7313 -0.5538 -0.1375
  885MOL0     C16724  10.600   0.561   6.292 -1.3206  0.1511  0.4392
  885MOL0     C16725  10.723   0.500   6.374  0.1803 -0.1471  0.6338
  885MOL0     C16726  10.855   0.540   6.316  0.3979 -0.0466 -1.0426
  885MOL0     C16727  10.878   0.693   6.332 -0.1048 -0.0085 -0.0811
  885MOL0     C16728  10.920   0.753   6.191 -0.6313  0.6511 -0.5044
  885MOL0     C16729  11.069   0.732   6.146 -0.5304  0.5650  0.1227
  885MOL0     C16730  11.109   0.609   6.057  0.3621  0.1792 -0.0231
  885MOL0     C16731  11.052   0.626   5.918  0.3768 -1.2096 -0.4691
  885MOL0    Cl16732  11.077   0.475   5.840  0.1671 -0.2230  0.0893
  885MOL0     C16733  10.271   0.517   6.454  0.4006  0.5259  0.2957
  885MOL0     C16734  10.166   0.590   6.506 -0.1905  0.5231  0.4428
  885MOL0     O16735  10.069   0.637   6.789  0.1486  0.0451  0.1287
  885MOL0     C16736   9.886   0.791   6.938 -0.1516  0.9600 -0.2593
  885MOL0     C16737   9.785   0.857   6.988  0.2293 -0.0798  0.9254
  885MOL0     N16738   8.923   0.870   6.952  0.1915 -0.3344  0.0579
  885MOL0     N16739   8.855   0.767   6.980 -0.7889  0.1073 -0.4213
  885MOL0     C16740   9.463   0.997   7.634 -0.5208  0.2232 -0.8460
  885MOL0     C16741   9.600   0.962   7.604  0.3246  0.2697 -0.8197
  885MOL0     C16742   9.925   0.754   7.342  0.2421 -0.1356 -0.4060
  885MOL0     C16743  10.023   0.851   7.315 -0.8453 -1.1572  0.0022
  885MOL0     C16744  10.150   0.815   7.272 -0.6224  0.4167  0.3476
  885MOL0     C16745  10.185   0.676   7.269  0.3186 -0.1014 -1.0823
  885MOL0     O16746  10.312   0.625   7.232  0.3370  0.3416  0.2242
  885MOL0     C16747  10.425   0.715   7.238  1.0820 -0.0335  0.2370
  885MOL0     C16748  10.461   0.765   7.380 -0.5595 -0.3412  0.7887
  885MOL0     C16749  10.494   0.635   7.466  0.5926 -0.4300 -0.0041
  885MOL0     C16750  10.593   0.542   7.412 -0.2510  1.0652 -0.3614
  885MOL0     C16751  10.717   0.611   7.371 -0.0337  0.1489  0.0867
  885MOL0     C16752  10.808   0.679   7.322  0.1506  0.7206 -0.7429
  885MOL0     C16753  10.095   0.576   7.306 -0.7652  0.3061 -0.5315
  885MOL0     C16754   9.966   0.612   7.335  0.1587  0.2488  0.4530
  885MOL0     H16755   9.590   0.999   7.263  0.5279  0.6274  1.0423
  885MOL0     H16756   9.363   1.047   7.310 -1.3769 -1.1213  0.2072
  885MOL0     H16757   9.087   1.144   7.654 -0.5613 -0.7968 -3.0134
  885MOL0     H16758   9.240   1.102   7.740  1.2426 -0.6743 -0.8547
  885MOL0     H16759   9.050   0.942   7.777  2.0752  1.3921  2.5993
  885MOL0     H16760   9.205   0.874   7.722 -0.5480  0.8142 -0.1937
  885MOL0     H16761   9.060   0.755   7.598  4.8619  0.6884 -2.0131
  885MOL0     H16762   9.112   0.879   7.485  1.2512  1.1990  0.7174
  885MOL0     H16763   8.861   0.832   7.650 -1.0476  2.9417  1.7996
  885MOL0     H16764   8.891   0.992   7.585 -0.1175  0.0961 -0.8228
  885MOL0     H16765   8.918   0.902   7.376  1.5141 -0.1845  1.2147
  885MOL0     H16766   8.740   0.874   7.432 -1.5078 -2.5634 -3.4630
  885MOL0     H16767   8.814   0.643   7.503 -2.7212  0.9195 -1.3759
  885MOL0     H16768   8.950   0.657   7.405 -0.7085 -0.9447 -0.8318
  885MOL0     H16769   8.726   0.543   7.347  0.2175 -0.1120  0.5436
  885MOL0     H16770   8.682   0.700   7.274 -0.3737  0.1763 -0.8763
  885MOL0     H16771   8.793   0.543   7.107 -2.1222  2.0298 -0.3996
  885MOL0     H16772   8.942   0.558   7.212  0.0851  1.0899  3.2823
  885MOL0     H16773   9.039   0.793   7.245 -2.8832 -0.4844  2.0022
  885MOL0     H16774   9.134   1.061   7.135  2.9913  3.9714 -2.3225
  885MOL0     H16775   9.086   1.071   6.963 -0.4350 -1.8656 -1.0196
  885MOL0     H16776   9.279   0.896   6.916 -1.3859  2.2064 -0.7826
  885MOL0     H16777   9.329   0.906   7.077 -0.0429 -0.0361  0.9023
  885MOL0     H16778   9.298   1.127   6.870 -1.5179 -2.5414 -1.6959
  885MOL0     H16779   9.392   1.147   7.021  2.0005  0.9357 -1.6782
  885MOL0     H16780   9.509   1.107   6.803 -1.3796  0.3076  0.6097
  885MOL0     H16781   9.459   0.935   6.811 -0.5272  0.7581  0.0868
  885MOL0     H16782   9.679   1.025   6.704  0.9953  1.4422  0.0897
  885MOL0     H16783   9.878   0.921   6.626  1.7807 -0.0092  0.4929
  885MOL0     H16784  10.317   0.865   6.594 -4.2348  1.5401 -0.3809
  885MOL0     H16785  10.493   0.766   6.448 -0.9339 -0.5126  1.4480
  885MOL0     H16786  10.594   0.670   6.302 -1.5919  0.0619  1.3049
  885MOL0     H16787  10.618   0.540   6.186  1.8210  4.1337 -0.0864
  885MOL0     H16788  10.728   0.391   6.364  3.8961 -0.0753  0.3129
  885MOL0     H16789  10.709   0.532   6.478 -1.5220  1.5500 -0.0711
  885MOL0     H16790  10.860   0.511   6.211 -1.2203  1.8746 -1.7054
  885MOL0     H16791  10.941   0.498   6.369  1.5002  1.0958 -1.8695
  885MOL0     H16792  10.792   0.742   6.379 -1.6316 -2.1606 -0.4728
  885MOL0     H16793  10.965   0.706   6.396 -1.3639 -0.3729  1.7823
  885MOL0     H16794  10.906   0.861   6.189  1.6524  0.9832 -1.3315
  885MOL0     H16795  10.855   0.715   6.112  0.9168 -2.2499 -0.5376
  885MOL0     H16796  11.124   0.718   6.240  1.6198 -4.5897 -1.5926
  885MOL0     H16797  11.108   0.817   6.089  0.8982  1.3776  2.1623
  885MOL0     H16798  11.219   0.606   6.062  0.5310  3.3054 -0.1925
  885MOL0     H16799  11.077   0.514   6.102  0.3451  0.2739  0.1667
  885MOL0     H16800  11.112   0.712   5.888 -1.1474  1.0447  2.3823
  885MOL0     H16801  10.946   0.652   5.924  0.4159 -0.7665 -1.5181
  885MOL0     H16802  10.248   0.419   6.414  2.7758 -0.3423  0.9001
  885MOL0     H16803  10.070   0.543   6.526  0.4042 -1.5387 -1.0895
  885MOL0     H16804   9.946   0.730   7.005  0.1602 -1.0231 -2.2485
  885MOL0     H16805   9.759   0.838   7.092 -0.3787 -3.2275  0.2981
  885MOL0     H16806   9.437   1.007   7.738 -2.7573 -1.6963 -1.1470
  885MOL0     H16807   9.670   0.961   7.686 -0.5446  2.0365  0.0061
  885MOL0     H16808   9.996   0.956   7.321 -2.2622 -1.3762 -1.6357
  885MOL0     H16809  10.224   0.889   7.246  2.0253 -0.5886  4.0952
  885MOL0     H16810  10.413   0.792   7.161 -2.3424 -2.0433 -1.5326
  885MOL0     H16811  10.507   0.655   7.197  0.0991 -0.7399 -0.8006
  885MOL0     H16812  10.544   0.835   7.374 -0.4524 -0.3149  2.3291
  885MOL0     H16813  10.369   0.812   7.416  0.5408  0.2733  2.8929
  885MOL0     H16814  10.402   0.579   7.489  0.7965 -0.6773  0.2067
  885MOL0     H16815  10.534   0.677   7.559 -3.8650  2.1791  1.0816
  885MOL0     H16816  10.613   0.460   7.482 -0.8217  1.8743  0.7834
  885MOL0     H16817  10.566   0.483   7.324  0.7830  0.3707 -0.2318
  885MOL0     H16818  10.886   0.727   7.267 -2.5612  2.4653 -3.4558
  885MOL0     H16819  10.122   0.471   7.293 -1.1000 -0.1227  1.8428
  885MOL0     H16820   9.895   0.530   7.347 -0.5301  0.3616 -2.2379
  886MOL0     O16821   6.236   2.893   5.515 -0.7863 -0.0750  0.2779
  886MOL0     C16822   6.258   2.769   5.525  0.3522 -0.6672 -0.3211
  886MOL0     O16823   6.388   2.706   5.518 -0.2172 -0.4406 -0.4555
  886MOL0     C16824   6.499   2.775   5.493  0.4933 -0.2745  0.3146
  886MOL0     C16825   6.612   2.726   5.551  1.1381 -0.7847  0.8849
  886MOL0     C16826   6.743   2.779   5.521  0.1152  0.2634 -0.2056
  886MOL0     C16827   6.752   2.889   5.430  0.0070 -0.6133 -0.3789
  886MOL0     O16828   6.875   2.947   5.385 -0.8053  0.4567  0.7199
  886MOL0     C16829   6.894   3.007   5.257 -0.9537 -0.0851  0.1911
  886MOL0     C16830   7.031   3.060   5.241 -0.2728 -0.3550  1.7350
  886MOL0     C16831   7.038   3.166   5.126 -0.1271  0.3729 -0.1341
  886MOL0     C16832   7.039   3.303   5.180 -0.5792 -0.1648  0.2642
  886MOL0     C16833   7.036   3.400   5.060 -0.1890  0.9006 -0.0945
  886MOL0     C16834   7.173   3.465   5.028  0.3567  0.0260  0.5563
  886MOL0     C16835   7.140   3.564   4.907 -0.6076  0.1060 -0.2288
  886MOL0     C16836   7.281   3.608   4.871 -0.2457  0.2020 -0.2327
  886MOL0     N16837   7.269   3.675   4.745  1.0274 -0.3352  0.8634
  886MOL0     C16838   7.281   3.812   4.723 -0.4674  0.0074  0.0818
  886MOL0     C16839   7.289   3.822   4.590 -0.3757  0.4878  0.6223
  886MOL0     C16840   7.320   3.949   4.513 -0.2030  0.0790  0.1920
  886MOL0     C16841   7.210   3.986   4.427 -0.3025  0.0910  0.5366
  886MOL0     C16842   7.225   3.927   4.291 -0.6809 -0.6667  0.3471
  886MOL0     C16843   7.088   3.931   4.214  0.1693 -0.5118 -0.5217
  886MOL0     O16844   7.122   3.874   4.096  0.0056 -0.0194 -0.0432
  886MOL0     C16845   7.044   3.881   3.987  0.3295  0.0680  0.0291
  886MOL0     C16846   6.923   3.947   3.998  0.2765  0.5394 -0.0966
  886MOL0     C16847   6.847   3.955   3.887  0.3441 -0.0332 -0.5395
  886MOL0     C16848   6.886   3.906   3.768  0.7601 -0.4533  0.3516
  886MOL0     C16849   6.799   3.932   3.656  0.1621 -0.1514  0.6660
  886MOL0     O16850   6.668   3.972   3.691  0.5202  0.8252  0.3267
  886MOL0     C16851   6.579   3.978   3.587 -0.2280  0.3153 -0.2818
  886MOL0     C16852   6.587   4.088   3.506 -1.0858 -0.8929 -0.6806
  886MOL0     C16853   6.486   4.119   3.418  0.0136  0.5299  0.3421
  886MOL0     C16854   6.381   4.027   3.404  0.0861  0.6081 -0.0912
  886MOL0     O16855   6.273   4.065   3.328  0.5767 -0.0823  1.1869
  886MOL0     C16856   6.169   3.970   3.326 -0.3964 -0.1896  0.0074
  886MOL0     C16857   6.080   4.017   3.215 -0.1055 -0.2999 -0.8358
  886MOL0     C16858   6.003   4.149   3.246  0.5263  0.3716  0.6388
  886MOL0     C16859   5.921   4.187   3.121 -0.0638 -0.3086  0.1452
  886MOL0     C16860   5.860   4.322   3.146  0.2490 -0.4115  0.4582
  886MOL0     C16861   5.763   4.341   3.261  0.5810  0.7964 -0.5467
  886MOL0     C16862   5.696   4.474   3.274  0.3512  0.2423 -0.4302
  886MOL0     C16863   5.544   4.460   3.306 -0.4291  0.5363 -0.7363
  886MOL0    Cl16864   5.443   4.382   3.177 -0.0611 -0.0649  0.2647
  886MOL0     C16865   6.387   3.901   3.474  0.4737 -1.2201  0.2092
  886MOL0     C16866   6.491   3.875   3.558  0.7224 -0.3758 -0.0143
  886MOL0     O16867   6.836   3.890   3.541 -0.3684  0.0305  1.0647
  886MOL0     C16868   7.013   3.836   3.760 -0.0012  0.4216  0.0549
  886MOL0     C16869   7.102   3.823   3.877  0.8557  0.5312  0.0025
  886MOL0     N16870   7.291   3.686   4.531  0.3084 -0.4108  0.7309
  886MOL0     N16871   7.279   3.605   4.625 -0.2414 -0.7378  0.2348
  886MOL0     C16872   6.633   2.944   5.380 -0.1158 -0.0665  0.1680
  886MOL0     C16873   6.504   2.887   5.410 -0.1597  0.4104  0.7807
  886MOL0     C16874   6.142   2.681   5.548  0.2970 -0.2447  0.2222
  886MOL0     C16875   6.174   2.553   5.598  0.7560 -0.1172 -0.6170
  886MOL0     C16876   6.079   2.447   5.613 -0.5360 -0.1424  0.5759
  886MOL0     C16877   5.945   2.470   5.607  0.2672 -0.4416  0.1188
  886MOL0     O16878   5.852   2.386   5.634  0.0117 -0.1082  0.0894
  886MOL0     C16879   5.881   2.246   5.642 -0.0136 -0.5960 -1.4632
  886MOL0     C16880   5.756   2.161   5.665 -0.3525 -0.7675 -0.0087
  886MOL0     C16881   5.683   2.198   5.800 -0.0731  0.0863 -0.9313
  886MOL0     C16882   5.767   2.167   5.924 -0.8545 -0.4039 -0.2834
  886MOL0     C16883   5.832   2.035   5.926 -1.4430 -0.0470  0.8271
  886MOL0     C16884   5.886   1.923   5.922 -0.9371 -0.7478  0.7605
  886MOL0     C16885   5.910   2.602   5.553  0.0221 -0.2100  0.0746
  886MOL0     C16886   6.004   2.701   5.530  0.1492 -0.0602 -0.0864
  886MOL0     H16887   6.599   2.641   5.617  0.0109 -0.0673  1.6292
  886MOL0     H16888   6.832   2.732   5.561 -2.1117 -3.4057  1.0596
  886MOL0     H16889   6.825   3.092   5.251  1.3939  1.9245 -0.0319
  886MOL0     H16890   6.869   2.937   5.177 -1.5455 -0.1797  0.4483
  886MOL0     H16891   7.090   2.974   5.209  1.3418  0.9397  1.1053
  886MOL0     H16892   7.083   3.093   5.332  2.6278 -1.2192  0.4951
  886MOL0     H16893   6.961   3.155   5.049 -0.4602 -1.4788  0.4174
  886MOL0     H16894   7.133   3.146   5.077 -0.8683 -2.1617 -0.6666
  886MOL0     H16895   6.953   3.328   5.243  0.9804  1.9724  1.6869
  886MOL0     H16896   7.119   3.329   5.250 -1.6570 -0.6426  1.7162
  886MOL0     H16897   6.963   3.480   5.074  0.3043  1.6259 -1.5045
  886MOL0     H16898   7.015   3.342   4.970  0.9523 -0.8625  0.7296
  886MOL0     H16899   7.249   3.390   5.007  0.6893  0.9908 -2.2135
  886MOL0     H16900   7.194   3.519   5.120 -1.1786 -2.4584  2.4782
  886MOL0     H16901   7.092   3.511   4.824 -1.8245 -3.0190  2.2249
  886MOL0     H16902   7.086   3.655   4.933 -2.3110 -0.8281 -0.3136
  886MOL0     H16903   7.337   3.515   4.860 -1.1031 -0.6799  2.0791
  886MOL0     H16904   7.313   3.671   4.955 -0.4825  1.4780 -1.0777
  886MOL0     H16905   7.309   3.882   4.802  0.7191 -1.1923  0.7747
  886MOL0     H16906   7.421   3.952   4.470 -1.1546 -0.6850 -2.2152
  886MOL0     H16907   7.317   4.020   4.596  1.1031 -0.9786  1.2004
  886MOL0     H16908   7.204   4.094   4.407 -1.3621 -0.1678 -0.6931
  886MOL0     H16909   7.116   3.960   4.476 -0.9135 -2.4142 -1.7169
  886MOL0     H16910   7.287   3.993   4.231 -0.4844 -1.8904 -0.8454
  886MOL0     H16911   7.267   3.826   4.294  2.6851  0.5727 -0.5005
  886MOL0     H16912   7.063   4.037   4.209  0.8061 -0.1730  2.2838
  886MOL0     H16913   7.013   3.872   4.267 -1.6743  1.9100 -0.2858
  886MOL0     H16914   6.884   3.979   4.094 -1.5584 -2.9053  0.4716
  886MOL0     H16915   6.757   4.010   3.908  0.4628  0.1881 -0.6080
  886MOL0     H16916   6.673   4.148   3.530  1.7516 -5.5837  2.5390
  886MOL0     H16917   6.472   4.215   3.369 -1.4677  1.4508  2.3982
  886MOL0     H16918   6.102   3.968   3.413  0.9708  1.0949  1.1286
  886MOL0     H16919   6.205   3.873   3.291 -0.3129  0.4121 -1.6692
  886MOL0     H16920   6.011   3.933   3.208  0.3698 -1.0200  1.9587
  886MOL0     H16921   6.130   4.031   3.119  1.2839 -4.2290 -0.8583
  886MOL0     H16922   6.056   4.236   3.285  0.8175  1.9828 -2.9578
  886MOL0     H16923   5.926   4.112   3.314 -1.8472 -0.4090 -2.2454
  886MOL0     H16924   5.988   4.211   3.038 -1.6033  1.0943 -0.7515
  886MOL0     H16925   5.841   4.116   3.100 -1.9840  1.4315  1.2136
  886MOL0     H16926   5.820   4.343   3.046  1.5150 -0.8731 -0.1761
  886MOL0     H16927   5.941   4.394   3.161  0.8574 -0.4199 -2.2769
  886MOL0     H16928   5.815   4.309   3.351 -0.6734 -2.6464 -0.8857
  886MOL0     H16929   5.688   4.261   3.252  1.8347 -0.4794  0.0301
  886MOL0     H16930   5.747   4.519   3.360 -2.5070  2.3247  0.3129
  886MOL0     H16931   5.701   4.528   3.179  1.3142 -2.2044 -1.8821
  886MOL0     H16932   5.497   4.557   3.326 -1.7877 -0.3420  0.4677
  886MOL0     H16933   5.514   4.413   3.399 -2.6120  0.9918 -1.1640
  886MOL0     H16934   6.315   3.822   3.457 -2.9693  1.1883  2.3530
  886MOL0     H16935   6.489   3.778   3.607  1.2711 -0.4537 -0.1395
  886MOL0     H16936   7.032   3.791   3.663 -1.5904 -1.0473  0.3721
  886MOL0     H16937   7.203   3.784   3.871  0.0224 -1.4504 -3.0085
  886MOL0     H16938   6.638   3.035   5.320 -1.9718 -0.7634 -1.1344
  886MOL0     H16939   6.419   2.929   5.358 -1.0044 -4.0431 -1.9857
  886MOL0     H16940   6.273   2.527   5.634 -0.0850 -0.1613  1.8600
  886MOL0     H16941   6.134   2.358   5.642  0.0243 -0.2901 -0.8640
  886MOL0     H16942   5.948   2.236   5.729  0.3088  2.4742 -1.2184
  886MOL0     H16943   5.934   2.217   5.551  0.3567  0.5407 -1.6328
  886MOL0     H16944   5.689   2.177   5.579  0.4939  4.8706 -0.0001
  886MOL0     H16945   5.796   2.059   5.669  3.4043  0.6178  2.9790
  886MOL0     H16946   5.599   2.127   5.805  0.1851 -0.3465 -2.2934
  886MOL0     H16947   5.653   2.303   5.799  1.3031  0.4974 -1.1110
  886MOL0     H16948   5.843   2.246   5.919 -1.6368  0.4266  0.6055
  886MOL0     H16949   5.714   2.188   6.017  0.4989  1.0818  0.2015
  886MOL0     H16950   5.941   1.836   5.952 -0.3354 -0.4077  0.6429
  886MOL0     H16951   5.804   2.624   5.551 -0.3860 -2.1015 -0.7009
  886MOL0     H16952   5.968   2.800   5.504  0.5666  0.6592  1.8821
  887MOL0     O16953   2.824   1.036   8.975 -0.1715  0.0479  0.3090
  887MOL0     C16954   2.867   0.984   9.075 -0.9666 -0.1316 -0.7895
  887MOL0     O16955   3.006   0.974   9.107  0.3516  0.6464  0.0424
  887MOL0     C16956   3.089   0.991   8.992  0.3619 -0.7848  0.5882
  887MOL0     C16957   3.100   1.111   8.915 -0.1348  0.0519  0.8296
  887MOL0     C16958   3.177   1.112   8.804  1.3514 -0.4598  0.3189
  887MOL0     C16959   3.240   1.002   8.750 -0.5536 -0.4470 -0.3291
  887MOL0     O16960   3.321   1.021   8.645 -0.1982 -0.0136 -0.0951
  887MOL0     C16961   3.392   0.913   8.572  0.9330 -0.2564  0.3049
  887MOL0     C16962   3.452   0.977   8.441  0.5230 -0.2219  0.1036
  887MOL0     C16963   3.556   0.897   8.373 -0.0532  0.6314 -0.3813
  887MOL0     C16964   3.487   0.788   8.306  0.1975 -0.0598  0.0344
  887MOL0     C16965   3.589   0.716   8.219 -0.0936 -0.1654 -0.5598
  887MOL0     C16966   3.520   0.634   8.110 -0.5236  0.2118 -0.7604
  887MOL0     C16967   3.610   0.561   7.993 -0.0499 -0.7486  0.8664
  887MOL0     C16968   3.690   0.672   7.904  0.3435  0.4056 -0.0146
  887MOL0     N16969   3.599   0.783   7.859 -0.1351  0.6109 -0.1684
  887MOL0     C16970   3.575   0.901   7.933  0.2047  0.9045  0.6608
  887MOL0     C16971   3.467   0.952   7.864 -0.5180 -0.1718 -0.5435
  887MOL0     C16972   3.395   1.086   7.893  0.6294  0.3105  0.8452
  887MOL0     C16973   3.321   1.066   8.025  0.0641  0.4382 -0.7470
  887MOL0     C16974   3.261   1.201   8.083  1.0623 -0.8848  0.2436
  887MOL0     C16975   3.135   1.173   8.150  0.3228  0.4211  0.2067
  887MOL0     O16976   3.105   1.296   8.214  0.0588 -0.4323 -0.0920
  887MOL0     C16977   3.026   1.390   8.151  0.8113  0.7260  0.1642
  887MOL0     C16978   3.015   1.506   8.208 -0.1671  0.1233  0.0277
  887MOL0     C16979   2.920   1.603   8.161 -0.0997 -0.8544 -0.0949
  887MOL0     C16980   2.845   1.584   8.048 -0.9679  0.3710 -0.6143
  887MOL0     C16981   2.753   1.691   8.003 -0.1080  0.3288 -0.1820
  887MOL0     O16982   2.750   1.804   8.069  0.0795 -0.3995  0.1574
  887MOL0     C16983   2.708   1.926   8.026  0.7834 -0.1507  0.2189
  887MOL0     C16984   2.593   1.950   7.946  0.7343 -0.4234 -0.1380
  887MOL0     C16985   2.560   2.079   7.893 -0.3293 -0.5518 -0.0986
  887MOL0     C16986   2.647   2.187   7.921 -0.6420 -0.6153 -0.3838
  887MOL0     O16987   2.627   2.317   7.883 -0.2938 -0.7921 -0.1067
  887MOL0     C16988   2.495   2.350   7.835  0.9705  0.0270  0.3830
  887MOL0     C16989   2.512   2.496   7.770  0.6333 -0.1599 -0.4398
  887MOL0     C16990   2.491   2.610   7.876 -0.3292 -0.1121  0.1228
  887MOL0     C16991   2.348   2.614   7.928 -0.2225 -0.2441 -0.1106
  887MOL0     C16992   2.359   2.716   8.047  0.1211  0.2882  0.5260
  887MOL0     C16993   2.231   2.804   8.054  0.0260  0.1867 -0.3010
  887MOL0     C16994   2.134   2.726   8.139 -0.5509  0.0074  0.2297
  887MOL0     C16995   2.019   2.816   8.196 -1.3232 -0.3903  0.5860
  887MOL0    Cl16996   1.879   2.827   8.082  0.1674 -0.5920 -0.0369
  887MOL0     C16997   2.762   2.166   8.001  0.7971  0.5346 -0.8625
  887MOL0     C16998   2.793   2.032   8.051  0.5175 -0.8449 -0.4176
  887MOL0     O16999   2.697   1.675   7.895 -0.3272  0.1329 -0.0961
  887MOL0     C17000   2.857   1.462   7.980  0.1385 -0.2384  0.7598
  887MOL0     C17001   2.940   1.365   8.039  0.3480 -0.7498  0.0668
  887MOL0     N17002   3.431   0.874   7.754 -0.6202 -0.2016 -0.1014
  887MOL0     N17003   3.510   0.772   7.755  0.2391 -0.2921 -0.2902
  887MOL0     C17004   3.230   0.876   8.832  0.2857 -0.6095  0.8687
  887MOL0     C17005   3.151   0.879   8.944  0.3013 -0.3674  0.4034
  887MOL0     C17006   2.776   0.972   9.186 -0.2022 -0.1767 -0.0625
  887MOL0     C17007   2.826   0.937   9.318  0.6551 -0.0519 -0.3674
  887MOL0     C17008   2.735   0.906   9.424 -0.3107 -1.3375  0.0545
  887MOL0     C17009   2.599   0.921   9.417 -0.5278  0.5044 -0.1990
  887MOL0     O17010   2.535   0.899   9.534  0.3586  0.0813 -0.1935
  887MOL0     C17011   2.397   0.933   9.544 -0.7845  0.8403 -0.2250
  887MOL0     C17012   2.384   1.096   9.540 -0.3140 -0.5642  0.3226
  887MOL0     C17013   2.442   1.154   9.674 -0.0280 -0.4911 -0.0344
  887MOL0     C17014   2.417   1.306   9.669 -0.0658 -0.5161  0.0440
  887MOL0     C17015   2.453   1.383   9.784  0.5436  1.1878 -0.3421
  887MOL0     C17016   2.489   1.461   9.880 -0.1355  0.0200  0.0374
  887MOL0     C17017   2.551   0.964   9.296 -0.1661 -0.5281  0.6198
  887MOL0     C17018   2.639   0.996   9.191  0.5112  0.0968 -0.0931
  887MOL0     H17019   3.040   1.195   8.950  1.0313  2.0557 -1.6483
  887MOL0     H17020   3.166   1.198   8.738 -0.0946 -0.5420  0.4231
  887MOL0     H17021   3.322   0.829   8.571 -0.1960  0.6535 -0.1481
  887MOL0     H17022   3.473   0.881   8.638  2.5468  1.4959 -0.7145
  887MOL0     H17023   3.494   1.073   8.470 -0.5235  0.4642 -0.6088
  887MOL0     H17024   3.365   0.977   8.375 -0.2891 -0.8452  1.1520
  887MOL0     H17025   3.639   0.870   8.439  1.1330  1.3714 -1.5062
  887MOL0     H17026   3.593   0.955   8.287 -0.6560  0.2140 -0.9344
  887MOL0     H17027   3.439   0.715   8.372 -4.0605  1.5921 -0.8680
  887MOL0     H17028   3.406   0.823   8.241  0.6068 -1.4544 -1.2989
  887MOL0     H17029   3.648   0.652   8.285 -1.8604  0.6551  1.9609
  887MOL0     H17030   3.654   0.784   8.163 -1.0302 -1.7085 -3.8080
  887MOL0     H17031   3.460   0.708   8.057  2.2331  1.4106 -2.4349
  887MOL0     H17032   3.461   0.558   8.162  0.6710 -0.2055  0.0188
  887MOL0     H17033   3.687   0.489   8.022  0.3366 -0.7797 -0.1797
  887MOL0     H17034   3.537   0.522   7.922 -3.3085  4.3584  0.8874
  887MOL0     H17035   3.730   0.627   7.813 -0.0505 -0.1868  0.0998
  887MOL0     H17036   3.769   0.720   7.962 -1.1884 -0.6655  3.2394
  887MOL0     H17037   3.627   0.938   8.021  1.4724 -0.2429  0.4334
  887MOL0     H17038   3.330   1.114   7.810 -1.3395  2.0629  2.8436
  887MOL0     H17039   3.469   1.166   7.899  0.1873  0.7750  0.1900
  887MOL0     H17040   3.391   1.031   8.101 -0.9737 -0.0214  0.0165
  887MOL0     H17041   3.242   0.991   8.014 -1.5555  1.6047  1.8483
  887MOL0     H17042   3.336   1.243   8.151 -0.9803  1.4138  1.2107
  887MOL0     H17043   3.239   1.280   8.011  2.1540 -0.8374 -0.0632
  887MOL0     H17044   3.163   1.096   8.223  1.3828 -0.6760 -1.2941
  887MOL0     H17045   3.063   1.129   8.079  1.8734 -0.2524 -0.9969
  887MOL0     H17046   3.079   1.515   8.295  1.3560 -2.1867 -0.7744
  887MOL0     H17047   2.923   1.696   8.217 -6.3864  0.0644 -0.6062
  887MOL0     H17048   2.524   1.866   7.932  0.8954 -0.3759 -1.3762
  887MOL0     H17049   2.471   2.090   7.831 -0.1166 -0.9613 -0.4836
  887MOL0     H17050   2.411   2.346   7.905  1.5279 -0.2674  1.0332
  887MOL0     H17051   2.471   2.289   7.747  0.4290 -0.5405  0.9119
  887MOL0     H17052   2.440   2.503   7.688 -1.4548 -1.1679  1.2039
  887MOL0     H17053   2.616   2.504   7.738  1.9401 -1.1697  3.0797
  887MOL0     H17054   2.508   2.709   7.832 -1.9330  1.0063  1.8443
  887MOL0     H17055   2.568   2.610   7.953 -0.1206  0.3918 -0.0836
  887MOL0     H17056   2.294   2.651   7.841  0.8607  0.8455 -0.3453
  887MOL0     H17057   2.302   2.518   7.955  0.2180 -0.1272  1.1530
  887MOL0     H17058   2.442   2.786   8.037 -0.4402  0.6280 -2.9061
  887MOL0     H17059   2.377   2.654   8.135  4.7170 -2.0679 -1.7292
  887MOL0     H17060   2.196   2.839   7.957 -1.2581  2.7743  0.9771
  887MOL0     H17061   2.276   2.895   8.094  5.0652 -0.0174 -4.4765
  887MOL0     H17062   2.095   2.643   8.079 -0.1637  0.9378 -1.3627
  887MOL0     H17063   2.183   2.684   8.227  0.7839  0.6540 -0.1755
  887MOL0     H17064   2.057   2.918   8.204 -1.5952 -0.1557 -0.8266
  887MOL0     H17065   2.006   2.762   8.290  2.3829 -0.6319  1.0961
  887MOL0     H17066   2.820   2.254   8.025 -1.8078  2.8493 -2.4065
  887MOL0     H17067   2.874   2.010   8.119  1.7189  1.1394 -1.1102
  887MOL0     H17068   2.808   1.439   7.886  1.2960  1.5432 -0.3276
  887MOL0     H17069   2.941   1.271   7.986  1.9631 -0.4341 -0.5246
  887MOL0     H17070   3.288   0.790   8.800  1.0083 -0.0509  0.6552
  887MOL0     H17071   3.142   0.792   9.008 -1.2915 -2.5379 -2.5311
  887MOL0     H17072   2.930   0.907   9.324  0.0316 -2.1344  1.1993
  887MOL0     H17073   2.770   0.862   9.517  1.0224  0.0440  0.2397
  887MOL0     H17074   2.358   0.891   9.637  2.0741  1.0124  1.1508
  887MOL0     H17075   2.353   0.889   9.454  2.3145 -2.5251 -0.3360
  887MOL0     H17076   2.431   1.153   9.459 -0.5533  1.3084  1.4291
  887MOL0     H17077   2.278   1.123   9.538 -0.5747 -0.7916  3.8202
  887MOL0     H17078   2.549   1.132   9.675 -0.6869 -4.2441  0.4380
  887MOL0     H17079   2.391   1.110   9.760  0.0859 -0.9390 -0.1985
  887MOL0     H17080   2.467   1.349   9.582  3.5936 -1.2261  1.6206
  887MOL0     H17081   2.308   1.303   9.659 -0.1511 -4.7723  0.3615
  887MOL0     H17082   2.505   1.520   9.968 -2.7196 -1.8286  1.8988
  887MOL0     H17083   2.446   0.980   9.271 -0.2913  1.2913  2.1092
  887MOL0     H17084   2.591   1.015   9.095 -0.5384 -2.2138 -0.0874
  888MOL0     O17085   1.656   2.033   6.872  0.0853  0.0035 -0.1525
  888MOL0     C17086   1.553   2.020   6.807  0.9191  0.0864  0.9046
  888MOL0     O17087   1.499   2.102   6.713 -0.0174 -0.0185 -0.3799
  888MOL0     C17088   1.581   2.200   6.654  0.3499  0.8991 -0.3744
  888MOL0     C17089   1.719   2.183   6.625 -0.4260  0.2888  0.4332
  888MOL0     C17090   1.793   2.286   6.564  0.1789  0.4565 -0.2669
  888MOL0     C17091   1.729   2.406   6.524 -0.1520 -0.3311  0.4773
  888MOL0     O17092   1.790   2.509   6.454 -0.8242  0.4898  0.8808
  888MOL0     C17093   1.917   2.495   6.397  0.7910  1.0513  0.0838
  888MOL0     C17094   1.902   2.426   6.257  0.0824 -0.2897 -0.5193
  888MOL0     C17095   1.806   2.485   6.151  0.3069  0.0908 -0.0331
  888MOL0     C17096   1.805   2.398   6.023 -0.1243  0.0577  0.0506
  888MOL0     C17097   1.685   2.432   5.945  0.1911  0.7674 -0.1388
  888MOL0     C17098   1.716   2.461   5.796  0.7420 -0.1559  0.7823
  888MOL0     C17099   1.795   2.594   5.777 -0.2330  0.3012  0.6087
  888MOL0     C17100   1.722   2.725   5.816 -0.1730  0.1588  1.2094
  888MOL0     N17101   1.611   2.753   5.726 -0.6974 -0.5918 -0.0593
  888MOL0     C17102   1.486   2.732   5.763  1.3819 -0.5597 -0.4693
  888MOL0     C17103   1.417   2.775   5.660  0.6496  0.2634 -0.3089
  888MOL0     C17104   1.264   2.767   5.657  0.2678 -0.7407 -0.3262
  888MOL0     C17105   1.200   2.629   5.673 -0.1743  0.3682  0.4706
  888MOL0     C17106   1.235   2.532   5.548 -0.2422 -1.3846 -0.1087
  888MOL0     C17107   1.164   2.588   5.424  0.1349  0.4436  0.0127
  888MOL0     O17108   1.041   2.651   5.445 -0.6883 -0.7182 -0.5879
  888MOL0     C17109   0.931   2.628   5.364 -0.0023  0.7937 -0.7328
  888MOL0     C17110   0.943   2.576   5.234 -0.1086 -0.0437 -0.6252
  888MOL0     C17111   0.826   2.560   5.158 -0.4600 -0.0841 -0.2555
  888MOL0     C17112   0.705   2.586   5.217  0.4263  0.7695  0.5868
  888MOL0     C17113   0.584   2.548   5.134 -0.4610  0.7298  0.5536
  888MOL0     O17114   0.464   2.550   5.202  0.7736 -0.0750 -1.4795
  888MOL0     C17115   0.339   2.518   5.148  1.3810  0.0930  0.3581
  888MOL0     C17116   0.303   2.515   5.007 -0.5441  0.6915 -0.9739
  888MOL0     C17117   0.175   2.489   4.966  0.4223  0.2144 -0.2025
  888MOL0     C17118   0.078   2.456   5.058 -0.2373 -0.9489 -0.5248
  888MOL0     O17119  -0.045   2.426   5.020 -0.2532  0.4334  0.0863
  888MOL0     C17120  -0.129   2.540   5.017 -0.2014  0.2199 -0.2767
  888MOL0     C17121  -0.188   2.564   4.877 -0.1885  0.5310 -0.1847
  888MOL0     C17122  -0.303   2.465   4.852 -0.2509 -0.4218 -0.0294
  888MOL0     C17123  -0.342   2.487   4.704  0.0333 -0.3476 -0.1193
  888MOL0     C17124  -0.483   2.428   4.678 -0.1478  0.6756  1.1937
  888MOL0     C17125  -0.546   2.458   4.539 -0.3937 -0.0384 -0.7003
  888MOL0     C17126  -0.557   2.605   4.476  0.4326 -0.5033  0.8157
  888MOL0     C17127  -0.615   2.722   4.565 -0.5101 -0.5304 -0.1537
  888MOL0    Cl17128  -0.780   2.681   4.627 -0.0978  0.1431 -0.4966
  888MOL0     C17129   0.113   2.436   5.197  0.4126  1.1823  0.3474
  888MOL0     C17130   0.233   2.487   5.234 -0.9151 -0.2634 -0.2909
  888MOL0     O17131   0.602   2.491   5.027  0.8410 -0.4702 -0.1402
  888MOL0     C17132   0.699   2.645   5.337  0.0827  0.1655  0.2413
  888MOL0     C17133   0.812   2.662   5.416 -0.1710 -0.5651 -0.5139
  888MOL0     N17134   1.503   2.821   5.560  1.2739  0.3794 -0.6159
  888MOL0     N17135   1.622   2.805   5.599  0.7480 -0.8944  0.2148
  888MOL0     C17136   1.593   2.412   6.560 -0.2987  0.1685  0.3883
  888MOL0     C17137   1.519   2.312   6.628 -0.2429 -0.8434 -0.4211
  888MOL0     C17138   1.471   1.896   6.849  0.1168 -0.5947  0.4097
  888MOL0     C17139   1.463   1.856   6.981  0.2929 -0.2685  0.4414
  888MOL0     C17140   1.380   1.743   7.011 -0.1887  0.2684  0.2554
  888MOL0     C17141   1.314   1.669   6.907 -1.9600  0.4384 -0.6907
  888MOL0     O17142   1.257   1.548   6.918 -0.7405 -0.1348  0.5690
  888MOL0     C17143   1.240   1.502   7.050 -0.0296  0.0662  0.4330
  888MOL0     C17144   1.153   1.386   7.052  0.4795  0.5678  0.4002
  888MOL0     C17145   1.125   1.332   7.195 -0.9911 -0.2538  0.9607
  888MOL0     C17146   1.008   1.234   7.194 -0.1193  0.0284 -0.6472
  888MOL0     C17147   1.026   1.129   7.092  0.4258  0.0887  0.2633
  888MOL0     C17148   1.061   1.035   7.010  0.3594 -0.6322 -0.3498
  888MOL0     C17149   1.333   1.709   6.774 -0.6738 -0.7754 -0.4571
  888MOL0     C17150   1.389   1.836   6.756  1.5543 -0.2103  0.0842
  888MOL0     H17151   1.774   2.096   6.661 -0.2290  0.8577  1.5567
  888MOL0     H17152   1.896   2.253   6.557  0.1352 -0.2792  1.8172
  888MOL0     H17153   1.978   2.430   6.460 -1.8562 -0.1900  1.5402
  888MOL0     H17154   1.975   2.586   6.380  2.1654  0.0426 -0.9268
  888MOL0     H17155   1.860   2.326   6.263 -0.4713 -0.0382  5.0219
  888MOL0     H17156   2.003   2.407   6.219  0.6452 -2.3062  1.7580
  888MOL0     H17157   1.835   2.585   6.117 -2.8943  0.2742 -2.7417
  888MOL0     H17158   1.712   2.485   6.207  1.9520 -1.5000  2.9556
  888MOL0     H17159   1.904   2.409   5.978  0.7700  1.0232  2.1254
  888MOL0     H17160   1.796   2.294   6.057 -0.4011  0.1785  0.3561
  888MOL0     H17161   1.622   2.502   6.000  0.0720 -1.0632  2.1836
  888MOL0     H17162   1.633   2.336   5.942 -0.3848  1.0708 -3.2771
  888MOL0     H17163   1.622   2.469   5.741  0.3766 -1.4873  1.1864
  888MOL0     H17164   1.775   2.378   5.756 -1.3805 -1.1581 -0.4527
  888MOL0     H17165   1.885   2.582   5.838  0.0619  0.1154  0.1398
  888MOL0     H17166   1.817   2.597   5.670  0.5057 -0.9853  0.6925
  888MOL0     H17167   1.793   2.808   5.805  2.0272 -1.8655 -1.2968
  888MOL0     H17168   1.701   2.730   5.923 -0.7349  2.6401  1.0248
  888MOL0     H17169   1.437   2.703   5.856 -0.1045 -2.3676 -1.7427
  888MOL0     H17170   1.231   2.810   5.562  3.0586  1.7224 -0.3072
  888MOL0     H17171   1.230   2.835   5.736  1.7740 -1.5093  1.0467
  888MOL0     H17172   1.091   2.639   5.678 -0.3440 -1.5979  3.6768
  888MOL0     H17173   1.236   2.581   5.765 -0.3077 -0.5393  0.0507
  888MOL0     H17174   1.341   2.548   5.530  0.0122 -3.1298 -0.3272
  888MOL0     H17175   1.209   2.427   5.563 -0.5951 -0.9388  3.0615
  888MOL0     H17176   1.153   2.502   5.356  1.1172 -1.2397  1.8866
  888MOL0     H17177   1.239   2.648   5.372  1.7028 -0.8764  0.6574
  888MOL0     H17178   1.036   2.546   5.188 -0.4829  0.7221 -1.9241
  888MOL0     H17179   0.831   2.510   5.062  0.9372  2.2812 -1.5344
  888MOL0     H17180   0.375   2.524   4.927  1.9619 -2.1913  0.7232
  888MOL0     H17181   0.137   2.487   4.864 -4.0298 -0.4369  1.2201
  888MOL0     H17182  -0.077   2.626   5.058  1.9867 -1.5163  0.7524
  888MOL0     H17183  -0.213   2.529   5.086  0.4688  1.5105  0.7795
  888MOL0     H17184  -0.111   2.564   4.799 -0.1904  1.3786 -0.1963
  888MOL0     H17185  -0.230   2.665   4.875 -1.5990  0.0737  2.1673
  888MOL0     H17186  -0.389   2.491   4.914  0.9449  1.4179  0.9414
  888MOL0     H17187  -0.267   2.366   4.881  0.2509 -0.3357 -0.3490
  888MOL0     H17188  -0.344   2.594   4.683 -0.9026 -0.5769 -1.3186
  888MOL0     H17189  -0.267   2.445   4.636 -0.7122 -1.6722 -0.1464
  888MOL0     H17190  -0.550   2.470   4.754 -1.0337  2.7397 -0.6406
  888MOL0     H17191  -0.475   2.319   4.693 -3.7861  0.0688 -0.2602
  888MOL0     H17192  -0.646   2.414   4.537 -0.7263  0.6361  0.3246
  888MOL0     H17193  -0.475   2.402   4.478  1.7915 -4.1261  4.7621
  888MOL0     H17194  -0.455   2.638   4.452 -1.9066  6.6581 -2.1370
  888MOL0     H17195  -0.617   2.593   4.385 -0.3701  2.6197  0.8274
  888MOL0     H17196  -0.622   2.810   4.500 -0.2704 -0.7603 -0.4962
  888MOL0     H17197  -0.536   2.734   4.639  0.0884 -2.2089 -0.4650
  888MOL0     H17198   0.042   2.388   5.263  0.6913  0.1413 -0.0916
  888MOL0     H17199   0.269   2.499   5.336 -0.3811  0.3220 -0.5409
  888MOL0     H17200   0.596   2.666   5.364 -1.2438  3.4157 -5.5903
  888MOL0     H17201   0.815   2.698   5.518 -0.2288 -0.9798 -0.3616
  888MOL0     H17202   1.532   2.501   6.548  0.4850  1.6467  5.2124
  888MOL0     H17203   1.412   2.320   6.647 -0.1312  1.6617 -0.5225
  888MOL0     H17204   1.512   1.913   7.059 -0.0565 -0.2451  0.6428
  888MOL0     H17205   1.380   1.702   7.112  2.6047  1.9524  1.0573
  888MOL0     H17206   1.186   1.574   7.112 -1.1886  2.4726 -3.0960
  888MOL0     H17207   1.341   1.485   7.088  1.2154  2.5110 -1.5007
  888MOL0     H17208   1.057   1.413   7.007 -0.2448  1.3426  2.3190
  888MOL0     H17209   1.195   1.304   6.992 -1.8933 -0.0145 -0.5941
  888MOL0     H17210   1.117   1.420   7.260  2.7095  2.2089 -1.4731
  888MOL0     H17211   1.220   1.285   7.225 -0.1079  0.3024 -0.8100
  888MOL0     H17212   1.012   1.203   7.298  1.7482  1.9977 -0.0510
  888MOL0     H17213   0.923   1.298   7.170 -1.1059 -1.0724 -0.1825
  888MOL0     H17214   1.096   0.972   6.931 -0.5671 -0.2274 -1.1101
  888MOL0     H17215   1.295   1.640   6.699  0.1987 -0.8894 -0.7997
  888MOL0     H17216   1.401   1.875   6.655  0.2794  0.2010  0.0779
  889MOL0     O17217   8.662   8.381   0.616  0.5691  0.7083  0.9919
  889MOL0     C17218   8.646   8.380   0.736  0.3673 -0.1627 -0.5909
  889MOL0     O17219   8.522   8.394   0.795 -0.3817 -0.4247 -0.5230
  889MOL0     C17220   8.401   8.391   0.731 -1.4315  0.7565  0.2249
  889MOL0     C17221   8.307   8.295   0.781 -0.0191  0.0054  0.3457
  889MOL0     C17222   8.174   8.295   0.730 -0.2494  0.9771 -0.8905
  889MOL0     C17223   8.140   8.392   0.637 -0.4940  0.9067  0.3256
  889MOL0     O17224   8.016   8.404   0.579  0.3443 -0.5370 -1.0565
  889MOL0     C17225   7.921   8.298   0.569 -0.1607 -1.4089 -0.7526
  889MOL0     C17226   7.844   8.317   0.438  0.7757 -0.3277  0.0939
  889MOL0     C17227   7.733   8.427   0.432 -0.0860 -0.6516 -0.0437
  889MOL0     C17228   7.668   8.440   0.295  0.4988  0.1510  0.6142
  889MOL0     C17229   7.552   8.540   0.301  1.0542  0.1041 -1.3070
  889MOL0     C17230   7.483   8.555   0.172 -0.3568 -0.3005 -0.5329
  889MOL0     C17231   7.368   8.668   0.179 -0.8073  1.5440 -0.3073
  889MOL0     C17232   7.423   8.801   0.165  0.5959 -0.2382 -0.1161
  889MOL0     N17233   7.492   8.819   0.032 -0.4124  1.4557  0.9489
  889MOL0     C17234   7.422   8.818  -0.083  0.0779 -0.3781  0.8707
  889MOL0     C17235   7.517   8.829  -0.181 -0.1480 -0.2832  0.0546
  889MOL0     C17236   7.493   8.832  -0.330  0.2209 -0.2989  0.1759
  889MOL0     C17237   7.590   8.898  -0.425 -0.1362  0.4466  0.8386
  889MOL0     C17238   7.609   9.049  -0.386  0.3530  1.2993  0.1911
  889MOL0     C17239   7.697   9.115  -0.496  0.1426 -0.6843  0.6390
  889MOL0     O17240   7.830   9.059  -0.509  0.1577  0.0083 -1.1711
  889MOL0     C17241   7.913   9.095  -0.612 -0.2006 -0.7614  0.1354
  889MOL0     C17242   7.886   9.210  -0.696  0.2708 -0.9955  0.5717
  889MOL0     C17243   7.982   9.240  -0.787 -0.2026 -0.0039  0.3605
  889MOL0     C17244   8.102   9.157  -0.806 -0.5821  0.3689 -0.4552
  889MOL0     C17245   8.216   9.206  -0.896 -0.0712  0.7382 -0.0272
  889MOL0     O17246   8.338   9.135  -0.899 -0.5895 -0.4616 -0.5229
  889MOL0     C17247   8.435   9.189  -0.971 -0.2362 -0.4308  0.1039
  889MOL0     C17248   8.484   9.111  -1.072  0.6099  0.0478  0.4062
  889MOL0     C17249   8.596   9.148  -1.155 -0.6717  0.1807 -0.2307
  889MOL0     C17250   8.648   9.277  -1.142  0.8101 -0.3479 -0.4892
  889MOL0     O17251   8.741   9.334  -1.219 -0.4238  0.1399 -0.3227
  889MOL0     C17252   8.817   9.245  -1.290 -0.7505  0.1801 -0.9454
  889MOL0     C17253   8.911   9.335  -1.377 -0.6627  0.4100  0.7429
  889MOL0     C17254   8.838   9.386  -1.508  0.1399  1.2211 -0.1500
  889MOL0     C17255   8.713   9.477  -1.488  0.1285  0.3149 -0.1587
  889MOL0     C17256   8.585   9.399  -1.493 -0.8185 -0.4737 -0.3342
  889MOL0     C17257   8.475   9.496  -1.461 -0.4883  0.2040 -0.1056
  889MOL0     C17258   8.341   9.448  -1.493  0.7357  0.6988  0.3642
  889MOL0     C17259   8.312   9.408  -1.648 -0.3291 -0.1708 -0.7439
  889MOL0    Cl17260   8.137   9.371  -1.666 -0.4220 -0.1492 -0.0974
  889MOL0     C17261   8.600   9.356  -1.035  0.0664  1.4007 -0.2568
  889MOL0     C17262   8.493   9.319  -0.960 -1.1499  0.4747 -0.2220
  889MOL0     O17263   8.184   9.304  -0.966  0.8403  0.8653 -0.0974
  889MOL0     C17264   8.118   9.040  -0.734  0.1956 -0.1736 -0.1689
  889MOL0     C17265   8.026   9.009  -0.621  0.3021 -0.6796  0.2565
  889MOL0     N17266   7.643   8.824  -0.123  0.1581  0.3296  0.2323
  889MOL0     N17267   7.626   8.829   0.003  0.2000  0.2621  0.7524
  889MOL0     C17268   8.241   8.479   0.579 -0.4761  0.6316 -0.2806
  889MOL0     C17269   8.373   8.478   0.634  0.9508  0.0763 -0.7811
  889MOL0     C17270   8.757   8.337   0.815 -0.4603  0.4694  0.3337
  889MOL0     C17271   8.887   8.379   0.781  0.5675  0.7399  0.0300
  889MOL0     C17272   8.997   8.323   0.855  0.3889  0.6068  0.2433
  889MOL0     C17273   8.966   8.237   0.966 -0.8672  0.3424 -0.2823
  889MOL0     O17274   9.064   8.180   1.041 -0.1674 -0.1905  0.3596
  889MOL0     C17275   9.097   8.252   1.160 -0.7303 -0.9817  0.4756
  889MOL0     C17276   9.240   8.216   1.210 -0.7697  0.0612 -0.2136
  889MOL0     C17277   9.318   8.337   1.265  0.0433 -1.1519  0.6761
  889MOL0     C17278   9.450   8.309   1.335 -0.5121  0.1341 -0.2228
  889MOL0     C17279   9.558   8.239   1.256 -0.8307 -0.0421 -0.4230
  889MOL0     C17280   9.641   8.207   1.179 -0.4719 -0.4784 -0.3394
  889MOL0     C17281   8.838   8.195   0.991  0.0166 -0.5590 -0.0860
  889MOL0     C17282   8.733   8.254   0.918 -0.2905  1.6123  0.4741
  889MOL0     H17283   8.327   8.221   0.858  0.8381 -0.5988 -0.4349
  889MOL0     H17284   8.101   8.226   0.769  0.3243 -0.0852 -1.6387
  889MOL0     H17285   7.854   8.310   0.654  0.0403  3.0453 -0.9786
  889MOL0     H17286   7.976   8.203   0.570 -2.7724 -3.0298  0.6448
  889MOL0     H17287   7.782   8.230   0.415 -2.4403  1.9127 -0.2538
  889MOL0     H17288   7.924   8.327   0.363  0.4059  2.5527 -0.0440
  889MOL0     H17289   7.775   8.528   0.440  0.7162 -1.0516  0.8602
  889MOL0     H17290   7.667   8.413   0.518 -0.5101 -0.0094 -0.2542
  889MOL0     H17291   7.735   8.481   0.219  0.9502  1.9652  1.9061
  889MOL0     H17292   7.630   8.342   0.264  0.5576 -0.4420  2.3111
  889MOL0     H17293   7.601   8.633   0.331 -1.4721  1.4965 -1.1492
  889MOL0     H17294   7.485   8.507   0.381  1.1868  1.5382 -0.5746
  889MOL0     H17295   7.440   8.458   0.144 -0.6278 -1.4136  3.1067
  889MOL0     H17296   7.568   8.581   0.108 -1.5695  4.7909 -0.5126
  889MOL0     H17297   7.298   8.641   0.099 -0.6997  1.4973 -0.3854
  889MOL0     H17298   7.317   8.662   0.275 -2.1668 -0.7326 -1.0939
  889MOL0     H17299   7.498   8.800   0.244  1.4056 -0.1562 -0.8697
  889MOL0     H17300   7.344   8.873   0.187  0.8111  0.8857 -2.6186
  889MOL0     H17301   7.314   8.815  -0.087  0.1096 -0.4792 -0.1576
  889MOL0     H17302   7.401   8.887  -0.348 -0.4738 -1.8709 -1.3922
  889MOL0     H17303   7.467   8.729  -0.358  1.7454 -0.1238 -2.1021
  889MOL0     H17304   7.548   8.882  -0.524 -0.9054 -2.0210  1.4944
  889MOL0     H17305   7.685   8.842  -0.429 -1.1110 -1.5765  3.2660
  889MOL0     H17306   7.513   9.101  -0.391 -1.6709 -2.0811  1.1751
  889MOL0     H17307   7.644   9.056  -0.283 -2.1366  0.0717  1.1924
  889MOL0     H17308   7.702   9.220  -0.465  0.0460 -0.6267  0.4599
  889MOL0     H17309   7.644   9.116  -0.591 -0.5980  0.3945  1.0386
  889MOL0     H17310   7.798   9.273  -0.684 -0.7892 -2.2066 -0.5720
  889MOL0     H17311   7.958   9.317  -0.861  1.3861 -2.1365 -2.6049
  889MOL0     H17312   8.442   9.012  -1.080  2.0642 -0.5157 -0.6127
  889MOL0     H17313   8.626   9.068  -1.222 -3.0784 -1.2280  0.2866
  889MOL0     H17314   8.751   9.176  -1.342 -1.7133 -0.2314  0.7339
  889MOL0     H17315   8.878   9.180  -1.227  2.5565  0.7206 -3.3167
  889MOL0     H17316   9.007   9.299  -1.415 -1.2797  0.3392 -0.8368
  889MOL0     H17317   8.934   9.416  -1.307 -2.5212 -0.4856  2.4949
  889MOL0     H17318   8.799   9.309  -1.576 -0.9999  2.7470 -1.2874
  889MOL0     H17319   8.915   9.447  -1.557  1.2120  0.5348  0.6241
  889MOL0     H17320   8.716   9.540  -1.399 -2.8463 -0.0700  0.3099
  889MOL0     H17321   8.719   9.536  -1.580  0.4134  1.2529  0.4471
  889MOL0     H17322   8.590   9.313  -1.426 -0.6971  0.3105  0.6883
  889MOL0     H17323   8.589   9.369  -1.598  1.1454 -0.2881 -0.3467
  889MOL0     H17324   8.483   9.597  -1.503 -3.8385  0.1506 -1.1651
  889MOL0     H17325   8.480   9.515  -1.353  0.5450  0.9654 -0.2751
  889MOL0     H17326   8.306   9.372  -1.423 -0.4422  0.0312 -0.9029
  889MOL0     H17327   8.282   9.535  -1.463 -0.0348 -0.2224  1.6035
  889MOL0     H17328   8.369   9.321  -1.680  0.7937  0.6000 -0.9087
  889MOL0     H17329   8.333   9.493  -1.714 -3.5185 -1.3046 -3.5387
  889MOL0     H17330   8.660   9.445  -1.020 -0.4708  1.9398 -1.1744
  889MOL0     H17331   8.464   9.380  -0.876  2.0133  2.1002 -0.1855
  889MOL0     H17332   8.197   8.971  -0.759  0.1045 -0.4512  0.2892
  889MOL0     H17333   8.041   8.929  -0.550  1.0099  1.4456  2.6633
  889MOL0     H17334   8.219   8.551   0.500 -0.3790  0.1101 -0.7854
  889MOL0     H17335   8.446   8.549   0.597  1.1076  1.3687  1.8093
  889MOL0     H17336   8.902   8.443   0.695  0.4029 -2.2659 -2.4174
  889MOL0     H17337   9.104   8.344   0.854  0.9206 -1.7718 -1.6995
  889MOL0     H17338   9.024   8.245   1.242 -1.0590  4.0896  0.9635
  889MOL0     H17339   9.101   8.360   1.141 -0.3795 -1.5342 -3.2468
  889MOL0     H17340   9.234   8.141   1.289 -2.1461  0.5097  0.1341
  889MOL0     H17341   9.298   8.179   1.125 -0.2140  0.5754 -0.0670
  889MOL0     H17342   9.256   8.396   1.334  1.0030 -0.9543  1.4129
  889MOL0     H17343   9.347   8.402   1.182 -0.4477  0.9527  2.0630
  889MOL0     H17344   9.492   8.404   1.368 -0.4421  0.7589 -1.9815
  889MOL0     H17345   9.432   8.255   1.428  0.5003 -1.2068 -0.7700
  889MOL0     H17346   9.704   8.184   1.095  2.5134  1.8748  1.0725
  889MOL0     H17347   8.810   8.146   1.084 -2.1830  1.5573  0.4679
  889MOL0     H17348   8.632   8.231   0.953  1.2579 -3.1612  2.6528
  890MOL0     O17349   5.953   6.149   3.477  0.4711  0.6431  0.1293
  890MOL0     C17350   5.896   6.077   3.387  0.5448 -0.5422 -0.4605
  890MOL0     O17351   5.909   5.945   3.368  0.5456  0.1259  0.4940
  890MOL0     C17352   5.955   5.871   3.470 -0.1534 -0.9387 -0.4057
  890MOL0     C17353   5.876   5.776   3.534  0.3396  0.1363 -0.7921
  890MOL0     C17354   5.931   5.717   3.658  1.0069 -0.5347  0.3552
  890MOL0     C17355   6.063   5.736   3.705 -0.0198 -0.5032  0.0246
  890MOL0     O17356   6.115   5.684   3.824 -0.2720  0.1320  0.3872
  890MOL0     C17357   6.048   5.575   3.886 -0.8856  1.0971  0.1190
  890MOL0     C17358   6.135   5.523   3.999  0.0317 -0.7359  0.5006
  890MOL0     C17359   6.257   5.429   3.946 -0.1173 -0.1529 -0.3928
  890MOL0     C17360   6.357   5.398   4.058 -1.1644 -0.0321 -0.0279
  890MOL0     C17361   6.457   5.284   4.029 -0.3773  0.4112  0.2247
  890MOL0     C17362   6.538   5.310   3.898 -0.4597 -0.4481 -0.9043
  890MOL0     C17363   6.648   5.208   3.903  0.2182  0.5403 -0.6035
  890MOL0     C17364   6.734   5.224   3.778  0.0157 -0.0571  0.0196
  890MOL0     N17365   6.874   5.173   3.787  0.1527  0.8387 -0.1473
  890MOL0     C17366   6.917   5.054   3.737  0.2852  0.0598  0.6699
  890MOL0     C17367   7.048   5.061   3.759 -0.3632 -0.1940 -0.0666
  890MOL0     C17368   7.157   4.962   3.717 -0.6096  0.1459  0.2340
  890MOL0     C17369   7.167   4.839   3.801  0.2434  0.3924  0.2973
  890MOL0     C17370   7.169   4.872   3.948 -0.2932  0.9705 -0.2348
  890MOL0     C17371   7.265   4.977   3.993  0.6066  0.9816 -1.4664
  890MOL0     O17372   7.398   4.919   4.003  0.9006  0.5506  0.6653
  890MOL0     C17373   7.480   4.965   4.110 -0.2862  0.4305 -0.4257
  890MOL0     C17374   7.457   5.100   4.156 -0.1540  0.9677 -0.0677
  890MOL0     C17375   7.546   5.142   4.261  0.2429 -0.9565  0.1745
  890MOL0     C17376   7.638   5.055   4.323 -1.1401  0.4188 -0.1958
  890MOL0     C17377   7.716   5.107   4.436  0.1192 -0.2502 -0.6690
  890MOL0     O17378   7.839   5.071   4.448 -0.5509 -0.3747  0.6089
  890MOL0     C17379   7.919   5.120   4.547 -0.3398 -0.7922  0.6836
  890MOL0     C17380   7.908   5.252   4.593 -0.9112 -0.3501  0.0734
  890MOL0     C17381   7.999   5.288   4.692  0.1196  0.0011  0.5937
  890MOL0     C17382   8.105   5.203   4.735 -0.0124 -0.9209 -0.3263
  890MOL0     O17383   8.197   5.253   4.822 -0.1434  0.5966 -0.4507
  890MOL0     C17384   8.171   5.221   4.957  0.7099  0.0191  0.2218
  890MOL0     C17385   8.285   5.253   5.046 -1.4207  0.0597  0.4124
  890MOL0     C17386   8.267   5.394   5.119  1.3463 -0.9413 -0.0092
  890MOL0     C17387   8.400   5.437   5.168  0.6356  0.2863  0.0002
  890MOL0     C17388   8.411   5.592   5.194 -0.0700 -0.8648 -0.5623
  890MOL0     C17389   8.318   5.638   5.309 -0.1536 -1.1058  0.9924
  890MOL0     C17390   8.339   5.568   5.441  0.3686 -0.0200 -0.1491
  890MOL0     C17391   8.463   5.615   5.517  0.0488 -0.7895  0.2555
  890MOL0    Cl17392   8.413   5.709   5.667 -0.2809  0.0624 -0.6262
  890MOL0     C17393   8.123   5.077   4.680 -0.5487  0.0075  0.5490
  890MOL0     C17394   8.029   5.042   4.590 -0.4841 -0.4465  0.0780
  890MOL0     O17395   7.653   5.165   4.524 -0.4693 -0.0670  0.0621
  890MOL0     C17396   7.648   4.924   4.281  0.4213 -0.3462 -0.2420
  890MOL0     C17397   7.575   4.882   4.169 -0.0841  0.5664  0.1914
  890MOL0     N17398   7.083   5.167   3.835 -0.6182  0.2022  0.5033
  890MOL0     N17399   6.978   5.232   3.857 -0.3380 -0.3512 -1.2678
  890MOL0     C17400   6.133   5.826   3.633  0.3560  0.2706 -0.5716
  890MOL0     C17401   6.083   5.892   3.516 -0.4776  0.7102 -0.2840
  890MOL0     C17402   5.815   6.149   3.296  0.6528  0.1250 -0.3873
  890MOL0     C17403   5.791   6.284   3.309 -0.0868  1.1564 -0.9746
  890MOL0     C17404   5.716   6.348   3.214 -0.2984  0.5184  0.3709
  890MOL0     C17405   5.647   6.275   3.116 -0.5562 -0.9454  0.2380
  890MOL0     O17406   5.580   6.360   3.027  0.1278 -0.1566  0.1246
  890MOL0     C17407   5.470   6.294   2.953 -0.7709  0.2130 -0.9601
  890MOL0     C17408   5.372   6.403   2.920  0.1577 -0.4613  0.2108
  890MOL0     C17409   5.258   6.355   2.835 -0.7475  0.6398 -0.0461
  890MOL0     C17410   5.308   6.326   2.695  0.0334  0.9626  0.0276
  890MOL0     C17411   5.327   6.455   2.625 -0.0822  0.0258 -0.4741
  890MOL0     C17412   5.353   6.550   2.563 -0.9554  0.3688 -0.6151
  890MOL0     C17413   5.660   6.140   3.106 -0.0038 -0.1800  0.7413
  890MOL0     C17414   5.751   6.077   3.192 -0.2964  0.0810  0.2923
  890MOL0     H17415   5.776   5.746   3.507  0.3918 -5.1901  3.1832
  890MOL0     H17416   5.876   5.638   3.708  0.8441 -0.4526  0.3056
  890MOL0     H17417   6.028   5.490   3.820 -1.0040 -1.4076  3.1126
  890MOL0     H17418   5.960   5.619   3.935 -0.0555  0.8692  1.9218
  890MOL0     H17419   6.065   5.474   4.067 -0.8143 -1.6998 -1.0161
  890MOL0     H17420   6.180   5.611   4.046  1.3956 -0.9698 -0.3160
  890MOL0     H17421   6.303   5.468   3.855 -0.2984  0.0186 -0.4123
  890MOL0     H17422   6.213   5.334   3.915 -2.7997  0.9002 -0.1150
  890MOL0     H17423   6.416   5.489   4.073 -2.7898  1.6422 -2.9228
  890MOL0     H17424   6.293   5.379   4.144 -1.3387  3.7842  0.8553
  890MOL0     H17425   6.406   5.187   4.034 -1.4252  0.9848  1.7782
  890MOL0     H17426   6.528   5.285   4.112  1.8554 -0.7081 -1.5560
  890MOL0     H17427   6.573   5.413   3.892 -0.3395 -0.1124  2.9303
  890MOL0     H17428   6.475   5.289   3.811 -1.0685 -0.1438 -0.5428
  890MOL0     H17429   6.698   5.215   4.000 -2.0139 -1.7955  0.8679
  890MOL0     H17430   6.598   5.110   3.900  1.6478 -0.2016 -0.8196
  890MOL0     H17431   6.734   5.329   3.749 -0.1444 -0.6409 -2.3304
  890MOL0     H17432   6.672   5.167   3.708 -0.7896 -0.2655  0.8799
  890MOL0     H17433   6.854   4.988   3.678 -2.4979  4.5187 -1.9447
  890MOL0     H17434   7.256   5.009   3.718 -0.5560  0.0836  2.7401
  890MOL0     H17435   7.144   4.931   3.612 -2.6880 -3.5100  1.3936
  890MOL0     H17436   7.254   4.786   3.761  0.1019  0.9988 -0.8504
  890MOL0     H17437   7.076   4.779   3.787  0.8414 -0.2195 -1.1312
  890MOL0     H17438   7.068   4.906   3.974  0.7665  4.8735 -0.6590
  890MOL0     H17439   7.180   4.773   3.993  0.8764  0.9458 -0.5320
  890MOL0     H17440   7.232   5.005   4.093  0.1722 -1.1689 -0.9537
  890MOL0     H17441   7.275   5.057   3.919  0.8302 -0.0365 -2.5727
  890MOL0     H17442   7.399   5.170   4.097 -1.2099 -1.3428 -1.9493
  890MOL0     H17443   7.540   5.246   4.292 -0.2779 -0.7605 -0.5681
  890MOL0     H17444   7.829   5.320   4.563  1.4439  3.1136  1.0225
  890MOL0     H17445   8.002   5.389   4.733  2.9830 -0.7818  2.5873
  890MOL0     H17446   8.138   5.117   4.965 -1.7827  0.6821 -0.4416
  890MOL0     H17447   8.084   5.282   4.984 -1.7326 -3.1415  0.1565
  890MOL0     H17448   8.381   5.258   4.994 -0.2757  4.3219  2.4864
  890MOL0     H17449   8.293   5.175   5.122  1.0743  0.6443  0.8379
  890MOL0     H17450   8.194   5.387   5.201 -0.7491 -0.8706 -1.7647
  890MOL0     H17451   8.230   5.468   5.048  2.1465 -3.8946 -3.8376
  890MOL0     H17452   8.444   5.378   5.248 -0.0234  0.1272  0.2482
  890MOL0     H17453   8.470   5.434   5.083 -1.3495 -0.1273 -1.7183
  890MOL0     H17454   8.378   5.640   5.101 -2.8696 -2.7933 -0.6974
  890MOL0     H17455   8.510   5.633   5.218  0.6027  0.9030 -5.1756
  890MOL0     H17456   8.214   5.612   5.287 -0.3789 -0.0787  0.7997
  890MOL0     H17457   8.317   5.745   5.332 -0.5920 -1.1699  1.2975
  890MOL0     H17458   8.248   5.593   5.497 -0.7749 -0.1176 -1.9080
  890MOL0     H17459   8.339   5.459   5.436 -0.7749 -0.3910  3.9556
  890MOL0     H17460   8.519   5.691   5.461  0.4835  0.4845  2.3221
  890MOL0     H17461   8.522   5.524   5.529 -2.6369 -2.9486 -1.6237
  890MOL0     H17462   8.211   5.020   4.709 -0.2469  2.0708  4.4329
  890MOL0     H17463   8.031   4.945   4.540 -0.1426 -1.3026  1.6651
  890MOL0     H17464   7.716   4.851   4.326  1.8329  0.0346 -1.6626
  890MOL0     H17465   7.589   4.777   4.143  2.0310  0.8320  0.0642
  890MOL0     H17466   6.229   5.861   3.669  0.6087 -0.8362 -0.1428
  890MOL0     H17467   6.158   5.952   3.466  0.6062 -2.7128 -3.2016
  890MOL0     H17468   5.825   6.343   3.393  2.7936 -0.9592 -0.5074
  890MOL0     H17469   5.704   6.455   3.224  3.1490  1.4260 -2.9074
  890MOL0     H17470   5.415   6.225   3.017 -3.3166  2.2092 -0.8406
  890MOL0     H17471   5.522   6.241   2.873  0.8619  0.1264  0.1100
  890MOL0     H17472   5.332   6.436   3.016  3.3153  2.0411  0.7964
  890MOL0     H17473   5.420   6.491   2.876  1.2309 -1.9329 -1.7104
  890MOL0     H17474   5.183   6.434   2.825  1.4295  2.5961 -1.8999
  890MOL0     H17475   5.218   6.268   2.889  2.3222  0.4435  2.1877
  890MOL0     H17476   5.399   6.264   2.699 -0.0530  0.7809 -0.6616
  890MOL0     H17477   5.225   6.272   2.648  0.9103 -0.4625  0.0612
  890MOL0     H17478   5.384   6.643   2.520  0.2904 -0.9957 -2.8191
  890MOL0     H17479   5.612   6.086   3.024 -1.3492  2.1513 -0.1137
  890MOL0     H17480   5.758   5.969   3.196 -0.8179  0.0951  2.6798
  891MOL0     O17481   2.187  10.244   3.561  0.5564  0.1026 -0.1196
  891MOL0     C17482   2.191  10.218   3.682 -0.0242  0.0438  0.4598
  891MOL0     O17483   2.307  10.218   3.761  0.3064 -0.0552  0.6537
  891MOL0     C17484   2.427  10.246   3.708 -0.5482  0.3781 -0.6291
  891MOL0     C17485   2.456  10.357   3.628  0.1691 -0.1893 -0.9321
  891MOL0     C17486   2.591  10.391   3.607  0.3715 -1.0551  0.1269
  891MOL0     C17487   2.694  10.317   3.664  0.0256  0.7145 -1.0058
  891MOL0     O17488   2.826  10.368   3.662  0.8865 -0.4684  0.0262
  891MOL0     C17489   2.924  10.313   3.748 -0.0157  0.0832  0.9105
  891MOL0     C17490   3.054  10.389   3.710 -0.9619 -0.8111 -0.2957
  891MOL0     C17491   3.109  10.372   3.560 -0.1122  0.6685  0.6307
  891MOL0     C17492   3.237  10.449   3.551 -0.2724  0.6078  0.0526
  891MOL0     C17493   3.361  10.368   3.580 -0.4753 -0.7115 -0.4431
  891MOL0     C17494   3.390  10.248   3.497 -0.2969  0.2796  0.2565
  891MOL0     C17495   3.424  10.305   3.353 -0.4509  0.3096  0.6417
  891MOL0     C17496   3.488  10.194   3.273 -0.1475  0.5057  0.0607
  891MOL0     N17497   3.390  10.124   3.193 -0.5820  0.6463  0.4922
  891MOL0     C17498   3.370  10.156   3.059  0.3049 -0.4807 -0.5574
  891MOL0     C17499   3.292  10.051   3.014  0.0950 -0.4879  0.5826
  891MOL0     C17500   3.226  10.041   2.883 -0.7266 -0.2944  0.5755
  891MOL0     C17501   3.075  10.080   2.903  0.3063  0.0285  0.4193
  891MOL0     C17502   3.000  10.073   2.771 -0.3029 -0.1883  0.9095
  891MOL0     C17503   2.850  10.011   2.769 -0.7435  0.4820  0.0444
  891MOL0     O17504   2.775  10.048   2.648 -0.8369  0.8354 -0.4826
  891MOL0     C17505   2.832  10.022   2.525 -0.2577  0.4555  0.8753
  891MOL0     C17506   2.782  10.112   2.424 -0.2694  0.1692 -0.2179
  891MOL0     C17507   2.844  10.116   2.303 -0.0262  1.1959  0.4690
  891MOL0     C17508   2.943  10.023   2.276  0.8795  0.0842 -0.2094
  891MOL0     C17509   3.008  10.040   2.144  0.7636 -0.3605 -0.6271
  891MOL0     O17510   2.928  10.103   2.046 -0.4775  0.0690 -0.1952
  891MOL0     C17511   2.981  10.120   1.924  0.1824 -0.2449 -0.3691
  891MOL0     C17512   3.036  10.010   1.847  0.5716 -0.2181 -0.1309
  891MOL0     C17513   3.065  10.031   1.716 -0.0886 -0.8496  0.5746
  891MOL0     C17514   3.078  10.162   1.662  0.5807  0.0228 -0.5746
  891MOL0     O17515   3.125  10.190   1.536  0.4154 -0.3624  0.0347
  891MOL0     C17516   3.162  10.087   1.447  0.1180  0.0702 -0.6495
  891MOL0     C17517   3.268  10.153   1.364  0.7781  0.0950 -0.1774
  891MOL0     C17518   3.402  10.174   1.442 -0.7512  0.0166 -0.2502
  891MOL0     C17519   3.522  10.235   1.355  0.1862  1.1849  0.2049
  891MOL0     C17520   3.652  10.226   1.445  0.1184 -0.6225  0.1264
  891MOL0     C17521   3.772  10.300   1.391 -0.4433  0.6303  0.4617
  891MOL0     C17522   3.743  10.451   1.372 -0.1142  0.1416  0.0783
  891MOL0     C17523   3.861  10.525   1.312  0.4863 -0.4821 -0.8264
  891MOL0    Cl17524   3.919  10.453   1.162  0.1526 -0.4052  0.5429
  891MOL0     C17525   3.035  10.271   1.739 -0.0268 -0.2132  0.1279
  891MOL0     C17526   2.985  10.249   1.868 -0.0125 -0.5090 -0.2327
  891MOL0     O17527   3.123  10.003   2.133  0.4898 -0.6327 -0.2356
  891MOL0     C17528   2.982   9.926   2.364 -0.0457  0.7519 -0.2321
  891MOL0     C17529   2.927   9.926   2.492  0.2033  0.1887  0.3626
  891MOL0     N17530   3.300   9.948   3.101  0.6506  0.2007  0.1380
  891MOL0     N17531   3.339   9.996   3.212  0.3098 -0.2996 -0.8511
  891MOL0     C17532   2.664  10.205   3.747  0.1962 -0.0569  0.1667
  891MOL0     C17533   2.531  10.176   3.765 -0.8792 -0.5943 -0.0857
  891MOL0     C17534   2.070  10.167   3.746 -0.4614 -0.6483 -0.5108
  891MOL0     C17535   1.941  10.158   3.683  0.5624 -0.0289  0.9188
  891MOL0     C17536   1.838  10.079   3.736 -0.8481 -0.4162  0.5461
  891MOL0     C17537   1.850  10.015   3.859 -0.3110 -0.2911  0.5850
  891MOL0     O17538   1.759   9.927   3.911 -0.0078 -0.2813 -0.3141
  891MOL0     C17539   1.655   9.873   3.830 -0.5175 -1.2549  0.3037
  891MOL0     C17540   1.567   9.781   3.912  0.3423 -0.4853 -0.8243
  891MOL0     C17541   1.469   9.865   4.000 -0.1103  0.4080 -0.2551
  891MOL0     C17542   1.548   9.924   4.126 -0.5034  0.1288  0.1762
  891MOL0     C17543   1.462  10.000   4.218  0.3732  0.1897  0.7331
  891MOL0     C17544   1.395  10.070   4.289 -0.1972 -0.3035 -0.1339
  891MOL0     C17545   1.969  10.018   3.919 -0.5308 -0.4646 -0.1788
  891MOL0     C17546   2.074  10.099   3.869  0.5447  0.0943  0.8842
  891MOL0     H17547   2.377  10.422   3.593  2.4757  1.9942 -2.4254
  891MOL0     H17548   2.614  10.486   3.559  1.1389 -0.0977  2.2412
  891MOL0     H17549   2.936  10.210   3.714  5.0714 -0.4238  3.3153
  891MOL0     H17550   2.898  10.321   3.854 -3.0886 -1.9335  0.4567
  891MOL0     H17551   3.130  10.358   3.782 -1.2519  0.3491  0.5321
  891MOL0     H17552   3.036  10.496   3.726 -0.1851 -0.5303 -1.1938
  891MOL0     H17553   3.025  10.412   3.502  0.2275  0.7343  0.1745
  891MOL0     H17554   3.123  10.267   3.535 -2.9715 -0.2815  2.5521
  891MOL0     H17555   3.245  10.497   3.453 -2.4794  3.0354  0.9245
  891MOL0     H17556   3.236  10.529   3.627  2.2159  1.5200 -0.7651
  891MOL0     H17557   3.360  10.341   3.686  1.9093  1.1746  0.1691
  891MOL0     H17558   3.445  10.435   3.563 -0.4722 -0.9040 -1.2146
  891MOL0     H17559   3.305  10.180   3.494  0.9568 -1.3609 -3.0347
  891MOL0     H17560   3.471  10.181   3.529 -1.5985 -1.3439  0.2497
  891MOL0     H17561   3.336  10.332   3.294 -0.4238 -1.5771 -0.3296
  891MOL0     H17562   3.491  10.390   3.372 -1.4202  0.5953  3.2561
  891MOL0     H17563   3.559  10.133   3.329  0.8514  0.2151 -1.4584
  891MOL0     H17564   3.557  10.232   3.198 -1.6265  1.9478 -0.6207
  891MOL0     H17565   3.405  10.249   3.017  1.2193  1.7406  4.4017
  891MOL0     H17566   3.234   9.935   2.858 -0.9353  0.0303 -0.9583
  891MOL0     H17567   3.279  10.111   2.817  0.5784  1.0450  2.9145
  891MOL0     H17568   3.065  10.177   2.952 -0.7836 -0.1028  0.4805
  891MOL0     H17569   3.036  10.002   2.969  3.1510 -1.3429  0.5982
  891MOL0     H17570   2.999  10.177   2.737  1.4496 -0.3035  0.4079
  891MOL0     H17571   3.061  10.013   2.702 -2.1475 -1.5499  0.3963
  891MOL0     H17572   2.803  10.049   2.860 -1.9137 -0.7028 -0.0290
  891MOL0     H17573   2.852   9.903   2.787 -0.9203  0.6807  1.3409
  891MOL0     H17574   2.693  10.171   2.438  0.2424  1.9241 -3.4194
  891MOL0     H17575   2.809  10.183   2.225 -1.4512 -1.6658 -1.5274
  891MOL0     H17576   3.056   9.910   1.885 -1.9571 -1.8662 -2.7480
  891MOL0     H17577   3.100   9.941   1.666  2.1305 -1.0291  2.2816
  891MOL0     H17578   3.080  10.050   1.385  0.1277  1.4997 -1.5630
  891MOL0     H17579   3.208  10.001   1.496 -3.1675 -1.5988 -0.2130
  891MOL0     H17580   3.223  10.247   1.331  0.4368 -0.0188 -0.0374
  891MOL0     H17581   3.294  10.088   1.280  0.3853 -1.1406  0.6349
  891MOL0     H17582   3.438  10.076   1.476 -2.3265 -1.2200 -1.9600
  891MOL0     H17583   3.404  10.241   1.529 -0.5275  1.8501 -1.6090
  891MOL0     H17584   3.535  10.188   1.258 -0.0717  1.4751  0.0279
  891MOL0     H17585   3.501  10.341   1.336  1.9205  1.1025 -2.6716
  891MOL0     H17586   3.674  10.119   1.455  2.1206 -0.4593 -1.6192
  891MOL0     H17587   3.629  10.268   1.543  1.3966 -1.3895  0.7830
  891MOL0     H17588   3.812  10.260   1.297  1.3814  3.3016 -0.0077
  891MOL0     H17589   3.851  10.277   1.462  2.0223 -0.5027 -2.4511
  891MOL0     H17590   3.658  10.472   1.307  1.0346  3.9554 -0.4245
  891MOL0     H17591   3.721  10.485   1.474  2.2943  0.5381  0.5211
  891MOL0     H17592   3.948  10.528   1.377 -0.5398  1.9736  0.5613
  891MOL0     H17593   3.833  10.629   1.289 -0.9302  0.2046  3.1948
  891MOL0     H17594   3.036  10.368   1.690 -3.9407 -1.6843 -3.3759
  891MOL0     H17595   2.953  10.325   1.940  1.3022  1.6663 -1.8177
  891MOL0     H17596   3.053   9.849   2.335 -1.8400 -1.4358  0.8499
  891MOL0     H17597   2.956   9.850   2.564 -1.6338 -1.1007 -0.1653
  891MOL0     H17598   2.746  10.146   3.789 -1.2667 -2.0199  0.4365
  891MOL0     H17599   2.514  10.083   3.820 -0.4477 -0.6668 -0.0735
  891MOL0     H17600   1.919  10.205   3.588 -0.9435 -3.9079 -0.8942
  891MOL0     H17601   1.744  10.090   3.683 -0.4852  3.6144  0.4020
  891MOL0     H17602   1.701   9.806   3.756  1.0467 -1.9331  1.8408
  891MOL0     H17603   1.606   9.956   3.777 -1.7099 -0.8596  1.9585
  891MOL0     H17604   1.510   9.720   3.841 -0.9667  0.0668 -0.2852
  891MOL0     H17605   1.635   9.715   3.966 -1.1159  0.7280  2.8349
  891MOL0     H17606   1.380   9.806   4.026 -1.1765  1.9901 -0.2330
  891MOL0     H17607   1.425   9.943   3.939 -2.0435  0.6888  1.3710
  891MOL0     H17608   1.579   9.835   4.181  1.3481 -0.6141 -1.9349
  891MOL0     H17609   1.635   9.987   4.106  1.3488 -1.8302  1.5140
  891MOL0     H17610   1.360  10.143   4.360  2.8875  2.2769 -1.0535
  891MOL0     H17611   1.990   9.949   4.000  0.6206 -1.8424 -1.5922
  891MOL0     H17612   2.168  10.103   3.924  0.3498  0.6342  1.1817
  892MOL0     O17613   8.354   7.495   3.030 -0.2132  0.1360 -0.2002
  892MOL0     C17614   8.413   7.538   2.937 -0.2133 -0.8521  0.4053
  892MOL0     O17615   8.370   7.643   2.850  0.2009 -0.0302 -1.1955
  892MOL0     C17616   8.253   7.701   2.862  0.1202 -0.1486  0.5715
  892MOL0     C17617   8.242   7.843   2.872 -0.0063  0.0775 -0.1802
  892MOL0     C17618   8.117   7.904   2.896  0.2608 -0.4657 -0.1369
  892MOL0     C17619   8.006   7.826   2.920 -0.0223 -0.2025  0.3697
  892MOL0     O17620   7.889   7.889   2.949  0.0888  0.5624 -0.6478
  892MOL0     C17621   7.763   7.814   2.968 -0.8739  0.1451 -0.3623
  892MOL0     C17622   7.642   7.901   3.003  0.4916  0.0806 -0.6876
  892MOL0     C17623   7.658   7.980   3.134 -0.5288  0.2401  0.2934
  892MOL0     C17624   7.514   8.044   3.161  0.4191  0.0760  0.1216
  892MOL0     C17625   7.524   8.168   3.243 -1.3060  0.7533  0.1920
  892MOL0     C17626   7.388   8.223   3.264 -0.3997 -0.2070  0.3912
  892MOL0     C17627   7.366   8.338   3.368 -0.5894 -0.2441 -0.1990
  892MOL0     C17628   7.361   8.279   3.514 -0.2267 -0.0766 -0.2246
  892MOL0     N17629   7.395   8.381   3.618 -0.0472  0.2565  0.0475
  892MOL0     C17630   7.481   8.486   3.595  0.0860 -1.0871  0.3620
  892MOL0     C17631   7.452   8.569   3.699  0.0435 -0.0898  0.1347
  892MOL0     C17632   7.522   8.693   3.739  0.3625  1.0913 -1.2073
  892MOL0     C17633   7.424   8.810   3.741  0.1246  0.1356 -0.0004
  892MOL0     C17634   7.487   8.923   3.816 -1.2053 -0.3852 -0.3353
  892MOL0     C17635   7.404   9.055   3.782 -0.4486  0.4534  0.1399
  892MOL0     O17636   7.459   9.097   3.651 -0.1123  0.0835  0.0602
  892MOL0     C17637   7.375   9.129   3.553  0.5345 -0.7888 -0.1194
  892MOL0     C17638   7.262   9.049   3.518 -0.1532 -0.6236 -0.8441
  892MOL0     C17639   7.192   9.085   3.402 -1.0251  0.3652 -0.5079
  892MOL0     C17640   7.235   9.183   3.315  1.2370 -0.4847 -0.1787
  892MOL0     C17641   7.165   9.203   3.186 -0.6286 -0.2590 -0.4522
  892MOL0     O17642   7.239   9.266   3.090  0.3679  0.0949 -0.9490
  892MOL0     C17643   7.183   9.304   2.972  0.2576  0.2067  0.2228
  892MOL0     C17644   7.155   9.436   2.951 -0.5797 -0.3355  0.2776
  892MOL0     C17645   7.094   9.476   2.834 -0.4871  0.4648  0.4015
  892MOL0     C17646   7.067   9.380   2.727  0.5316 -0.5386 -0.1917
  892MOL0     O17647   7.003   9.419   2.603 -0.1211  0.6151 -0.4585
  892MOL0     C17648   6.989   9.564   2.584  0.5421  0.4780  1.1211
  892MOL0     C17649   6.929   9.604   2.450 -0.4192  0.7627 -0.7728
  892MOL0     C17650   7.029   9.642   2.334  0.1844  0.6526 -0.6329
  892MOL0     C17651   6.942   9.676   2.207  0.5947 -0.4487 -0.6230
  892MOL0     C17652   7.024   9.709   2.085  0.5858  0.7758 -0.3659
  892MOL0     C17653   6.940   9.709   1.962  0.3804  0.3309  0.9046
  892MOL0     C17654   7.011   9.785   1.851  0.1602  0.1153 -0.3439
  892MOL0     C17655   6.949   9.756   1.713 -0.2893 -0.2041 -1.0613
  892MOL0    Cl17656   6.809   9.869   1.672  0.4761 -0.2692  0.2290
  892MOL0     C17657   7.093   9.244   2.756  0.1396  0.5610 -0.6123
  892MOL0     C17658   7.143   9.207   2.883 -0.6489  0.8333  0.5630
  892MOL0     O17659   7.051   9.160   3.177  0.1535  0.1456 -0.2502
  892MOL0     C17660   7.349   9.255   3.346 -0.4476 -0.3521  0.3405
  892MOL0     C17661   7.417   9.232   3.467 -0.9327  0.4376 -1.3709
  892MOL0     N17662   7.352   8.512   3.777 -0.0342  0.5759 -0.8075
  892MOL0     N17663   7.322   8.399   3.731 -0.3389 -0.1653  0.1311
  892MOL0     C17664   8.023   7.685   2.921  0.2100  0.1540 -0.5354
  892MOL0     C17665   8.138   7.628   2.867 -0.0231 -0.7125  1.1465
  892MOL0     C17666   8.551   7.489   2.922  0.9095  0.3254 -0.4753
  892MOL0     C17667   8.602   7.373   2.980  0.7331  0.3278 -0.4195
  892MOL0     C17668   8.740   7.353   2.985  0.7389  0.6458  0.3597
  892MOL0     C17669   8.822   7.443   2.925  0.1249 -0.4925 -0.8300
  892MOL0     O17670   8.957   7.419   2.907  0.1065 -0.4841  0.2169
  892MOL0     C17671   9.019   7.317   2.980 -0.4118 -0.1107  1.1388
  892MOL0     C17672   9.024   7.346   3.131  0.6192 -0.3985 -0.3185
  892MOL0     C17673   9.027   7.213   3.213  0.2485 -0.9780 -0.0071
  892MOL0     C17674   9.029   7.233   3.361  0.3092 -0.9470 -0.3862
  892MOL0     C17675   8.898   7.299   3.402 -0.1353  0.4501  0.0095
  892MOL0     C17676   8.793   7.353   3.439  0.0530 -0.0369 -0.1456
  892MOL0     C17677   8.774   7.545   2.851  0.0019 -0.5579 -0.5862
  892MOL0     C17678   8.637   7.580   2.852 -0.7934  0.7050  0.0573
  892MOL0     H17679   8.334   7.896   2.853  0.7245 -1.3072 -0.6349
  892MOL0     H17680   8.101   8.010   2.880  1.1478 -0.4039 -0.7339
  892MOL0     H17681   7.762   7.731   3.039 -1.6507 -1.1554 -1.8226
  892MOL0     H17682   7.732   7.782   2.868  0.6194 -1.6163 -0.3122
  892MOL0     H17683   7.556   7.835   3.015  1.5427 -1.1925  0.0793
  892MOL0     H17684   7.608   7.967   2.922  0.0724 -1.9444 -2.2344
  892MOL0     H17685   7.734   8.058   3.132  0.1767 -0.3897  1.3123
  892MOL0     H17686   7.691   7.919   3.220  0.9723  0.3564 -0.1685
  892MOL0     H17687   7.467   8.069   3.066  0.2909  0.3678  0.2586
  892MOL0     H17688   7.458   7.978   3.228 -1.5309  3.0924  1.7085
  892MOL0     H17689   7.581   8.243   3.187 -3.2729  1.1741 -1.3335
  892MOL0     H17690   7.575   8.152   3.338 -4.2433  1.0946  1.9286
  892MOL0     H17691   7.311   8.156   3.301 -3.5509  2.0432 -1.5771
  892MOL0     H17692   7.357   8.266   3.168 -0.3448  1.8675  1.2382
  892MOL0     H17693   7.438   8.418   3.348 -0.5306  0.1812  1.5849
  892MOL0     H17694   7.265   8.376   3.350  0.2373  1.6843 -1.0582
  892MOL0     H17695   7.429   8.194   3.520  1.5505  1.3992  3.1610
  892MOL0     H17696   7.257   8.246   3.529  0.6833 -4.7416 -2.5112
  892MOL0     H17697   7.544   8.505   3.509  0.9095 -1.6347  0.8394
  892MOL0     H17698   7.613   8.711   3.682  0.5819  0.6012 -1.0135
  892MOL0     H17699   7.564   8.684   3.840 -0.5994 -0.9937 -0.9389
  892MOL0     H17700   7.333   8.780   3.795  0.1189  2.7846  1.6332
  892MOL0     H17701   7.399   8.838   3.638  0.1298  5.4396  1.1111
  892MOL0     H17702   7.487   8.912   3.925 -2.1247 -1.6214 -0.4500
  892MOL0     H17703   7.589   8.929   3.776 -1.6483 -0.5494 -1.5320
  892MOL0     H17704   7.422   9.131   3.859  0.9387 -0.0711  0.3701
  892MOL0     H17705   7.297   9.039   3.793 -0.3443  0.7546  1.8470
  892MOL0     H17706   7.231   8.963   3.577  0.9861 -0.7496 -0.3940
  892MOL0     H17707   7.093   9.041   3.389 -0.2825 -2.0198  1.2312
  892MOL0     H17708   7.188   9.517   3.015 -1.2071 -0.3672  0.6499
  892MOL0     H17709   7.079   9.583   2.825 -0.8742  0.4399  0.7643
  892MOL0     H17710   7.082   9.618   2.607  0.1279  0.9500  1.7023
  892MOL0     H17711   6.920   9.595   2.663 -0.6634 -1.2746  0.8052
  892MOL0     H17712   6.878   9.698   2.476 -0.9430  1.0429 -2.6977
  892MOL0     H17713   6.863   9.526   2.411 -0.7381  0.5447  0.1710
  892MOL0     H17714   7.095   9.556   2.320  0.0639  0.5667 -0.6750
  892MOL0     H17715   7.095   9.718   2.376  1.6293 -1.8353  2.0630
  892MOL0     H17716   6.878   9.589   2.194 -0.3775 -0.4078  2.8605
  892MOL0     H17717   6.876   9.761   2.224  2.8235  1.0764  1.0098
  892MOL0     H17718   7.104   9.636   2.071 -0.9520 -0.7004 -1.8650
  892MOL0     H17719   7.061   9.811   2.100 -2.0135  1.5680  1.2365
  892MOL0     H17720   6.840   9.751   1.978 -0.3566 -0.6118 -0.9965
  892MOL0     H17721   6.906   9.607   1.941 -1.6420  0.3889  3.3780
  892MOL0     H17722   6.996   9.890   1.879 -0.6582  0.1312 -0.8203
  892MOL0     H17723   7.117   9.757   1.845  0.4523  0.9596  0.5433
  892MOL0     H17724   6.921   9.650   1.714 -2.3656  0.2916 -1.2662
  892MOL0     H17725   7.027   9.778   1.640 -1.3185  2.0617 -1.5454
  892MOL0     H17726   7.063   9.161   2.692 -3.7636 -0.0679  1.6912
  892MOL0     H17727   7.168   9.105   2.911  3.1130  0.8519 -1.9409
  892MOL0     H17728   7.385   9.336   3.284 -0.7400  1.3506  2.3092
  892MOL0     H17729   7.501   9.292   3.499 -2.9099  2.4702  0.3047
  892MOL0     H17730   7.942   7.622   2.955  0.7579 -0.0723  0.3891
  892MOL0     H17731   8.157   7.521   2.877  2.3783 -0.4506  0.0977
  892MOL0     H17732   8.534   7.299   3.022  0.1737  0.0584 -1.7471
  892MOL0     H17733   8.778   7.260   3.026  2.3499  1.6729  1.2901
  892MOL0     H17734   9.117   7.297   2.936 -1.4228 -2.3676 -0.2340
  892MOL0     H17735   8.989   7.213   2.966 -4.7121  0.7755  2.2950
  892MOL0     H17736   9.093   7.427   3.155 -2.7853  2.1170  1.9978
  892MOL0     H17737   8.934   7.401   3.161  3.0218  4.0568 -0.5081
  892MOL0     H17738   9.117   7.158   3.185  0.5882 -0.9071  0.9074
  892MOL0     H17739   8.946   7.146   3.180  0.3190 -0.2969 -1.6440
  892MOL0     H17740   9.037   7.132   3.403 -1.1680 -0.8089  0.2975
  892MOL0     H17741   9.108   7.300   3.397 -2.2930  1.9696  0.3006
  892MOL0     H17742   8.696   7.388   3.469 -0.8469 -3.4792  1.5692
  892MOL0     H17743   8.825   7.629   2.803 -0.1929 -0.7120 -1.0744
  892MOL0     H17744   8.596   7.671   2.808 -2.8786  0.5836  1.6221
  893MOL0     O17745   1.241   7.765   1.732 -0.1640 -0.1296  0.3122
  893MOL0     C17746   1.192   7.808   1.836  0.1171  0.1947 -0.5601
  893MOL0     O17747   1.171   7.937   1.864  0.4017  0.2633  0.4417
  893MOL0     C17748   1.241   8.026   1.786  0.0847  0.7878 -1.0347
  893MOL0     C17749   1.344   8.104   1.842  0.3526 -0.2446 -0.1059
  893MOL0     C17750   1.429   8.189   1.771  1.1384  0.8407 -0.3691
  893MOL0     C17751   1.399   8.214   1.635 -0.8796 -0.1284 -0.4637
  893MOL0     O17752   1.480   8.315   1.577 -0.2675 -0.1152 -0.1327
  893MOL0     C17753   1.457   8.366   1.447 -0.3849  0.5581 -0.5368
  893MOL0     C17754   1.541   8.496   1.432  0.3530 -0.2017  0.1298
  893MOL0     C17755   1.488   8.595   1.543 -0.1452 -0.7127  0.5815
  893MOL0     C17756   1.582   8.724   1.544  1.2321 -0.1996  0.1665
  893MOL0     C17757   1.519   8.836   1.448 -0.1219 -0.5509 -0.7363
  893MOL0     C17758   1.602   8.962   1.437  0.3713  0.5058 -0.6738
  893MOL0     C17759   1.520   9.071   1.349 -0.4652  0.1169  0.3559
  893MOL0     C17760   1.606   9.199   1.331  0.4260 -0.4132  0.3633
  893MOL0     N17761   1.543   9.306   1.248 -0.1135  0.2811  0.2399
  893MOL0     C17762   1.575   9.316   1.118 -0.4174  1.6941 -0.2205
  893MOL0     C17763   1.525   9.428   1.078 -0.3099 -1.2413  0.8964
  893MOL0     C17764   1.524   9.491   0.937 -0.0995 -0.3318 -0.6150
  893MOL0     C17765   1.440   9.415   0.839  0.7856 -1.0731 -0.1927
  893MOL0     C17766   1.283   9.438   0.841  0.5239  0.1010 -0.6705
  893MOL0     C17767   1.235   9.582   0.865 -0.0765  0.0800  0.2686
  893MOL0     O17768   1.096   9.600   0.891  0.1239  0.4168  0.0984
  893MOL0     C17769   1.067   9.723   0.942  0.8941 -0.5878 -0.9516
  893MOL0     C17770   1.000   9.735   1.064 -0.8242  0.8148  0.3725
  893MOL0     C17771   0.952   9.859   1.102  0.2119  0.3748 -0.3860
  893MOL0     C17772   0.980   9.975   1.036 -0.0281 -0.4617  0.1756
  893MOL0     C17773   0.936  10.107   1.083 -0.4692 -0.0093  0.4196
  893MOL0     O17774   0.818  10.109   1.167 -0.7075  0.1041  0.7777
  893MOL0     C17775   0.812  10.203   1.271 -0.1886  0.1351 -1.3587
  893MOL0     C17776   0.914  10.273   1.338 -0.1685 -0.9692  0.0363
  893MOL0     C17777   0.885  10.382   1.421 -0.7095 -0.0828  0.2443
  893MOL0     C17778   0.756  10.424   1.460 -0.2495  0.0004 -0.2568
  893MOL0     O17779   0.734  10.526   1.554 -0.2528  0.3733 -0.3731
  893MOL0     C17780   0.607  10.552   1.610  1.0329 -0.7970  1.0408
  893MOL0     C17781   0.603  10.686   1.695  0.2195  0.4136  0.5321
  893MOL0     C17782   0.472  10.677   1.781  0.7615  0.5354  0.5628
  893MOL0     C17783   0.467  10.775   1.897 -1.4152  0.2682 -0.6276
  893MOL0     C17784   0.336  10.791   1.973 -0.6765  0.0158 -0.0242
  893MOL0     C17785   0.209  10.773   1.880 -0.6965  0.2515  0.6268
  893MOL0     C17786   0.095  10.818   1.961  0.1413  0.2110  0.4215
  893MOL0     C17787  -0.030  10.824   1.885  0.2356  0.5924 -0.1063
  893MOL0    Cl17788  -0.180  10.749   1.968 -0.1065  0.0744  0.5663
  893MOL0     C17789   0.652  10.345   1.396  0.0133  0.5377 -1.2170
  893MOL0     C17790   0.674  10.238   1.310 -0.8537  0.9369  0.1813
  893MOL0     O17791   0.998  10.205   1.043  0.0485  0.1136 -0.4059
  893MOL0     C17792   1.071   9.966   0.926  0.9215 -0.2290 -0.6575
  893MOL0     C17793   1.109   9.838   0.879  1.2740 -0.3241  0.7554
  893MOL0     N17794   1.477   9.497   1.189  0.4569  0.5261  0.0122
  893MOL0     N17795   1.502   9.427   1.295 -0.2030 -0.3141 -0.3054
  893MOL0     C17796   1.299   8.144   1.574  0.3361 -0.5818  0.4514
  893MOL0     C17797   1.221   8.052   1.646 -0.4172 -0.1339 -0.7521
  893MOL0     C17798   1.146   7.701   1.928  0.3526 -0.1460  0.7027
  893MOL0     C17799   1.191   7.577   1.896  0.3947  1.1794 -0.2436
  893MOL0     C17800   1.151   7.465   1.979 -0.0214 -0.1810 -0.7964
  893MOL0     C17801   1.062   7.484   2.092  0.3564  0.0638  0.4858
  893MOL0     O17802   1.023   7.374   2.163  0.6879  0.6542  0.2283
  893MOL0     C17803   0.892   7.377   2.242  0.0299  0.0401 -0.0947
  893MOL0     C17804   0.770   7.357   2.158 -0.3361 -1.0998 -0.5896
  893MOL0     C17805   0.691   7.486   2.135  0.1741 -0.6343  0.5421
  893MOL0     C17806   0.553   7.464   2.075  0.1438  0.8086  0.1235
  893MOL0     C17807   0.457   7.418   2.173  0.9373 -0.9579 -0.4124
  893MOL0     C17808   0.375   7.366   2.250 -0.3018 -0.1304  0.6276
  893MOL0     C17809   1.043   7.620   2.126 -0.0197  0.0741 -0.4427
  893MOL0     C17810   1.082   7.724   2.046 -0.1879  0.2370 -0.2604
  893MOL0     H17811   1.363   8.086   1.947 -1.8580  1.9556  0.7548
  893MOL0     H17812   1.510   8.243   1.818 -0.2981  1.5164  1.4211
  893MOL0     H17813   1.349   8.381   1.440 -0.3525  1.0191 -0.1119
  893MOL0     H17814   1.492   8.306   1.363  1.3390  0.4505  0.2271
  893MOL0     H17815   1.528   8.537   1.331  3.0480 -0.4432 -0.3964
  893MOL0     H17816   1.646   8.481   1.456  0.1847 -0.3759  0.7821
  893MOL0     H17817   1.499   8.540   1.637 -2.7726 -0.4499  1.1157
  893MOL0     H17818   1.384   8.623   1.523  0.8485  4.6407  1.3574
  893MOL0     H17819   1.567   8.771   1.642  1.2224  0.1063  0.0222
  893MOL0     H17820   1.689   8.705   1.531  0.9835 -0.5393 -1.6199
  893MOL0     H17821   1.424   8.873   1.488  0.3441 -0.7496  0.6243
  893MOL0     H17822   1.506   8.790   1.350 -2.9944  1.2652 -1.3292
  893MOL0     H17823   1.696   8.937   1.386  0.2042  1.9882 -1.7711
  893MOL0     H17824   1.623   8.998   1.538 -0.3968 -1.0531  0.0813
  893MOL0     H17825   1.494   9.028   1.252 -0.0961  0.9258 -0.1161
  893MOL0     H17826   1.419   9.096   1.383 -2.1531  3.0881 -5.4544
  893MOL0     H17827   1.695   9.153   1.287  0.6593  1.7335 -1.5660
  893MOL0     H17828   1.624   9.247   1.428  1.8384 -3.4635  1.7423
  893MOL0     H17829   1.625   9.241   1.057 -2.0584 -1.1189  1.6640
  893MOL0     H17830   1.628   9.500   0.904 -0.4515 -1.6228 -2.2055
  893MOL0     H17831   1.490   9.595   0.938  3.6832  1.1613 -2.9064
  893MOL0     H17832   1.473   9.311   0.845 -1.4818 -2.0909 -3.1138
  893MOL0     H17833   1.473   9.442   0.739  1.1954  2.7794  0.7961
  893MOL0     H17834   1.242   9.397   0.748 -1.9812 -0.9350  0.7857
  893MOL0     H17835   1.235   9.380   0.921 -2.1961  0.4021 -1.9709
  893MOL0     H17836   1.264   9.620   0.766  1.4675 -0.8105  0.3448
  893MOL0     H17837   1.284   9.625   0.952  1.9292 -1.5621  0.0449
  893MOL0     H17838   0.989   9.646   1.126 -2.3268 -3.8465 -5.5897
  893MOL0     H17839   0.896   9.859   1.196 -0.8030  1.3919 -0.9643
  893MOL0     H17840   1.018  10.258   1.312 -0.1631  1.2167 -1.4801
  893MOL0     H17841   0.971  10.432   1.464  0.2697 -2.2790  0.9818
  893MOL0     H17842   0.563  10.467   1.662 -0.2010  0.5211  2.2380
  893MOL0     H17843   0.538  10.570   1.527  2.3186  0.8321  0.2608
  893MOL0     H17844   0.611  10.774   1.632  0.9539  1.3480  1.8858
  893MOL0     H17845   0.699  10.681   1.748  1.9373 -1.6523 -2.4878
  893MOL0     H17846   0.459  10.578   1.825  0.3070 -0.8677 -2.4877
  893MOL0     H17847   0.387  10.686   1.713 -0.2756 -2.8068  1.2332
  893MOL0     H17848   0.549  10.746   1.963 -1.6887 -2.3629 -1.3366
  893MOL0     H17849   0.479  10.876   1.856 -0.2945  0.5233  0.2938
  893MOL0     H17850   0.332  10.896   2.004 -4.1107 -0.2515  0.9341
  893MOL0     H17851   0.328  10.732   2.065 -1.0153 -2.5443 -1.5916
  893MOL0     H17852   0.199  10.670   1.844  0.1115  0.7126 -1.0239
  893MOL0     H17853   0.220  10.836   1.792 -1.0805  2.2075  1.9185
  893MOL0     H17854   0.086  10.748   2.045  1.4834 -0.2669  0.1839
  893MOL0     H17855   0.126  10.918   1.993  1.7491  0.8726 -2.8033
  893MOL0     H17856  -0.019  10.763   1.794 -1.9924  1.2141 -0.8520
  893MOL0     H17857  -0.050  10.928   1.860 -1.1641  0.3531 -0.0265
  893MOL0     H17858   0.550  10.365   1.427  0.7772  1.9786  0.6497
  893MOL0     H17859   0.588  10.177   1.284  0.3440 -1.2505  1.0912
  893MOL0     H17860   1.094  10.054   0.866  1.6510 -1.4530 -2.2683
  893MOL0     H17861   1.168   9.815   0.791  1.1140  2.0236 -0.0445
  893MOL0     H17862   1.268   8.162   1.471  4.8499  2.0055 -0.7362
  893MOL0     H17863   1.145   7.994   1.595  1.6719 -2.3944 -1.5253
  893MOL0     H17864   1.254   7.548   1.813 -1.6976  2.7536 -2.5082
  893MOL0     H17865   1.189   7.365   1.957 -0.8716 -0.9985  1.1599
  893MOL0     H17866   0.887   7.469   2.300  0.9633  0.6466 -0.9571
  893MOL0     H17867   0.890   7.299   2.319  1.7628 -1.9612 -1.9327
  893MOL0     H17868   0.801   7.319   2.060  0.0877  2.4611 -1.9830
  893MOL0     H17869   0.712   7.280   2.210 -1.0576 -0.1369  0.0501
  893MOL0     H17870   0.752   7.542   2.063  0.8573 -0.9957  0.8363
  893MOL0     H17871   0.683   7.533   2.233  0.8613  1.4658 -0.3478
  893MOL0     H17872   0.514   7.559   2.038  2.1065  0.9841 -1.7232
  893MOL0     H17873   0.549   7.388   1.996  2.1441  1.4401 -0.6506
  893MOL0     H17874   0.289   7.325   2.299 -1.2483  0.3093 -0.6170
  893MOL0     H17875   0.987   7.641   2.217 -0.1550 -0.4162 -0.4115
  893MOL0     H17876   1.087   7.830   2.068  0.9289  0.3856 -1.1161
  894MOL0     O17877   1.979  10.729   5.655  0.1437  0.3796  0.7892
  894MOL0     C17878   1.970  10.625   5.722  0.0447  0.6265 -0.3613
  894MOL0     O17879   1.891  10.603   5.832 -0.0825  0.1861 -0.2324
  894MOL0     C17880   1.824  10.697   5.901  0.0779  0.4682 -0.1147
  894MOL0     C17881   1.756  10.803   5.844 -0.5982  0.2341  0.8665
  894MOL0     C17882   1.683  10.891   5.927  0.9124 -0.6320  0.6255
  894MOL0     C17883   1.661  10.859   6.061 -0.5575  0.3354  0.1211
  894MOL0     O17884   1.582  10.945   6.138  0.7782 -0.2725  0.0087
  894MOL0     C17885   1.611  10.953   6.280 -0.6394  1.1639 -0.6744
  894MOL0     C17886   1.511  11.046   6.348 -0.3788 -1.2269  0.3221
  894MOL0     C17887   1.367  10.989   6.345 -0.5058  1.1166 -0.5058
  894MOL0     C17888   1.266  11.096   6.389  0.6755 -0.5443  0.3046
  894MOL0     C17889   1.130  11.044   6.429 -0.0135  0.2167  1.4010
  894MOL0     C17890   1.033  11.146   6.504  0.5856  0.6998  0.0578
  894MOL0     C17891   0.903  11.069   6.532  0.0339 -0.7871 -0.3143
  894MOL0     C17892   0.814  11.150   6.627 -0.2268 -0.4619 -0.1585
  894MOL0     N17893   0.687  11.086   6.659 -0.0781  0.0369 -0.0107
  894MOL0     C17894   0.673  11.021   6.779  0.3627  0.3609  0.3754
  894MOL0     C17895   0.544  10.977   6.769 -0.0081  0.2392 -0.1384
  894MOL0     C17896   0.472  10.888   6.867 -0.1977  0.2767  0.2613
  894MOL0     C17897   0.324  10.932   6.898 -0.2874 -0.3328 -0.2540
  894MOL0     C17898   0.256  10.825   6.981 -0.2975  0.3968 -0.5201
  894MOL0     C17899   0.131  10.890   7.045 -0.2316 -0.0316  0.1592
  894MOL0     O17900   0.056  10.780   7.105  0.1528  0.2018 -0.4897
  894MOL0     C17901  -0.055  10.804   7.186 -0.1709  0.4209  0.3986
  894MOL0     C17902  -0.110  10.928   7.234 -0.6545  1.2061  0.2373
  894MOL0     C17903  -0.229  10.931   7.314  0.0701 -0.3763  0.2790
  894MOL0     C17904  -0.300  10.814   7.352  0.2069  0.4196 -0.2712
  894MOL0     C17905  -0.418  10.817   7.445  0.7104  0.0976 -0.0912
  894MOL0     O17906  -0.477  10.936   7.451 -0.2918  0.3295  0.2851
  894MOL0     C17907  -0.586  10.962   7.528  0.1283 -0.7787  0.2453
  894MOL0     C17908  -0.682  11.048   7.471  0.4564 -0.0434  0.0337
  894MOL0     C17909  -0.794  11.074   7.556  0.0863 -0.2457  0.2247
  894MOL0     C17910  -0.804  11.037   7.686 -0.3856 -0.6067 -0.7513
  894MOL0     O17911  -0.911  11.070   7.771  0.6560  0.6740  0.1868
  894MOL0     C17912  -1.053  11.051   7.733 -0.1245 -0.2592  0.4505
  894MOL0     C17913  -1.144  11.116   7.838 -0.3850 -0.0541 -0.1833
  894MOL0     C17914  -1.169  11.027   7.965 -0.0137 -0.2799 -0.1381
  894MOL0     C17915  -1.296  10.933   7.969  0.0056 -0.1101 -0.7593
  894MOL0     C17916  -1.264  10.839   8.078  0.1564 -1.0285 -0.8451
  894MOL0     C17917  -1.373  10.738   8.104  0.4527  0.4639 -0.0013
  894MOL0     C17918  -1.339  10.643   8.212  0.0427 -0.5337  0.8267
  894MOL0     C17919  -1.443  10.527   8.215 -1.0917 -0.3807  0.5991
  894MOL0    Cl17920  -1.609  10.575   8.214  0.4915  0.0381 -0.3867
  894MOL0     C17921  -0.697  10.982   7.742 -0.5086  0.5952 -0.9156
  894MOL0     C17922  -0.592  10.930   7.663  0.0906  0.0790  0.5162
  894MOL0     O17923  -0.466  10.705   7.477 -0.2913 -0.3861  0.2781
  894MOL0     C17924  -0.243  10.697   7.306  1.0308  0.6562  0.1671
  894MOL0     C17925  -0.131  10.690   7.219 -0.8502  0.3091 -0.9918
  894MOL0     N17926   0.487  11.010   6.646  0.9414 -0.5238 -0.5482
  894MOL0     N17927   0.575  11.082   6.582 -0.2463 -0.5610 -0.6990
  894MOL0     C17928   1.721  10.745   6.114 -0.3609  0.0265 -0.0925
  894MOL0     C17929   1.810  10.666   6.034  0.0439 -0.8873  0.3314
  894MOL0     C17930   2.038  10.509   5.654 -0.7796  0.0034  0.6863
  894MOL0     C17931   2.012  10.380   5.694 -0.4653 -0.5060 -1.0751
  894MOL0     C17932   2.088  10.284   5.633 -0.2859 -1.1211 -0.4165
  894MOL0     C17933   2.193  10.317   5.543  0.2371  0.4506  0.5614
  894MOL0     O17934   2.275  10.223   5.482 -0.0414 -0.0017 -0.8256
  894MOL0     C17935   2.330  10.119   5.568  0.2673 -0.3402  0.0482
  894MOL0     C17936   2.484  10.133   5.582 -1.2731 -0.2436 -0.3255
  894MOL0     C17937   2.513  10.247   5.665 -0.8150  0.4281 -0.6268
  894MOL0     C17938   2.656  10.276   5.656 -0.0035  0.2784  0.4374
  894MOL0     C17939   2.697  10.397   5.732 -0.8250  0.2419  0.0439
  894MOL0     C17940   2.738  10.501   5.783 -0.7000 -0.4632 -0.9711
  894MOL0     C17941   2.206  10.448   5.499  0.4814 -0.4475  0.3479
  894MOL0     C17942   2.133  10.544   5.557  0.0630  0.3239 -0.6979
  894MOL0     H17943   1.759  10.806   5.735 -0.7294 -2.0062  0.7405
  894MOL0     H17944   1.621  10.971   5.889  0.0234 -0.6525  1.9560
  894MOL0     H17945   1.714  10.974   6.310 -0.6677  0.6944 -0.2323
  894MOL0     H17946   1.584  10.858   6.328  0.5340  1.4347  0.5869
  894MOL0     H17947   1.497  11.144   6.301  0.9965 -0.1330  2.0441
  894MOL0     H17948   1.549  11.062   6.450  1.8769  0.5708 -0.7280
  894MOL0     H17949   1.350  10.905   6.413 -0.7186  1.0438 -0.6476
  894MOL0     H17950   1.337  10.946   6.249 -1.6043  0.3921  0.1485
  894MOL0     H17951   1.309  11.148   6.475  4.2572 -1.1418 -0.9537
  894MOL0     H17952   1.245  11.164   6.306 -5.6476 -0.4746  1.4121
  894MOL0     H17953   1.153  10.955   6.489  1.3128 -0.1636  0.3507
  894MOL0     H17954   1.079  11.000   6.343 -1.1458  1.7699  1.2193
  894MOL0     H17955   1.023  11.236   6.442  2.2818  0.9570  0.1111
  894MOL0     H17956   1.079  11.180   6.597 -1.0650  1.7547  0.5375
  894MOL0     H17957   0.853  11.048   6.437 -1.4417  0.0074  0.2652
  894MOL0     H17958   0.932  10.978   6.585  0.5062 -0.1659  0.5128
  894MOL0     H17959   0.792  11.243   6.573  1.5838 -0.7420 -1.4921
  894MOL0     H17960   0.865  11.166   6.722  1.4326 -1.7869 -0.7641
  894MOL0     H17961   0.743  10.997   6.858 -0.0858  0.0898  0.6921
  894MOL0     H17962   0.532  10.899   6.958 -3.0378  0.1666  2.2925
  894MOL0     H17963   0.464  10.785   6.830  1.6309 -0.2834  1.3384
  894MOL0     H17964   0.259  10.959   6.814 -0.1058 -0.8482 -0.5665
  894MOL0     H17965   0.328  11.025   6.956 -3.5702 -0.1556 -0.1270
  894MOL0     H17966   0.225  10.751   6.906 -0.0562 -0.4032  0.1560
  894MOL0     H17967   0.316  10.781   7.061  1.1882  1.4492 -0.9993
  894MOL0     H17968   0.086  10.945   6.963 -2.0129 -0.0203  1.0981
  894MOL0     H17969   0.160  10.960   7.124  0.6335  0.9408 -1.0002
  894MOL0     H17970  -0.058  11.014   7.194 -1.3554  0.8043 -1.6348
  894MOL0     H17971  -0.265  11.031   7.334  0.8000 -0.0052 -0.1864
  894MOL0     H17972  -0.676  11.090   7.371 -0.0944  0.8885  0.3816
  894MOL0     H17973  -0.881  11.123   7.515  0.3160  1.7692  1.9612
  894MOL0     H17974  -1.087  10.948   7.719 -0.7036  0.0537 -0.5790
  894MOL0     H17975  -1.067  11.099   7.636 -1.1571  1.5515  1.4608
  894MOL0     H17976  -1.235  11.146   7.786 -1.8039  1.9742  3.1580
  894MOL0     H17977  -1.093  11.200   7.886  2.1239 -0.9791 -1.0304
  894MOL0     H17978  -1.180  11.100   8.046  1.6889  0.1330 -0.2408
  894MOL0     H17979  -1.072  10.981   7.982 -0.2202  0.1111  2.6244
  894MOL0     H17980  -1.388  10.991   7.982  0.9784  1.4081 -0.3239
  894MOL0     H17981  -1.318  10.873   7.881 -0.9130 -2.1143  0.7685
  894MOL0     H17982  -1.254  10.889   8.174  2.3989 -0.4940 -1.3103
  894MOL0     H17983  -1.167  10.790   8.068  0.7634 -1.0129  3.2541
  894MOL0     H17984  -1.400  10.688   8.011 -2.0414  0.8506  0.4420
  894MOL0     H17985  -1.465  10.788   8.138 -0.2751 -1.0314  0.3168
  894MOL0     H17986  -1.239  10.600   8.212 -0.5149 -1.9434 -0.2371
  894MOL0     H17987  -1.343  10.698   8.306 -1.3611  0.5262  0.2011
  894MOL0     H17988  -1.423  10.476   8.309  2.6349  2.2445  1.4775
  894MOL0     H17989  -1.409  10.459   8.137 -0.3007 -1.6163  1.9854
  894MOL0     H17990  -0.682  10.957   7.847  0.5623  3.3956 -0.3281
  894MOL0     H17991  -0.507  10.884   7.713  1.4151  0.0155 -1.6599
  894MOL0     H17992  -0.280  10.599   7.334  0.5285  0.7686 -0.1005
  894MOL0     H17993  -0.113  10.591   7.181 -0.5735  0.1373 -0.4244
  894MOL0     H17994   1.691  10.720   6.215  0.3547 -2.3943 -0.4011
  894MOL0     H17995   1.855  10.582   6.085 -2.4834 -1.2559  2.1472
  894MOL0     H17996   1.943  10.345   5.770 -0.6049 -0.9653 -1.4079
  894MOL0     H17997   2.070  10.182   5.664 -0.8585 -1.6003 -2.2307
  894MOL0     H17998   2.315  10.030   5.507 -1.6297 -0.8311  1.1522
  894MOL0     H17999   2.278  10.092   5.660 -0.7542 -2.5177 -1.1053
  894MOL0     H18000   2.525  10.043   5.629 -2.7610 -1.0761 -0.5640
  894MOL0     H18001   2.525  10.141   5.481 -1.7298 -0.5867 -0.5406
  894MOL0     H18002   2.491  10.215   5.767 -0.3980  2.5083  0.1688
  894MOL0     H18003   2.461  10.329   5.613  0.9431  0.2144 -2.9154
  894MOL0     H18004   2.713  10.191   5.694  1.1910  0.8707  0.0335
  894MOL0     H18005   2.685  10.282   5.551 -0.5981 -2.1803  0.0729
  894MOL0     H18006   2.767  10.592   5.831  1.0282  0.0256 -2.7849
  894MOL0     H18007   2.282  10.468   5.425  1.6150  2.1804  2.0823
  894MOL0     H18008   2.155  10.646   5.527  0.3877  1.0984  1.8908
  895MOL0     O18009   2.456   7.051   1.504  0.1835 -0.3492 -0.2782
  895MOL0     C18010   2.521   7.158   1.489  0.3059 -0.6818  0.1053
  895MOL0     O18011   2.473   7.289   1.533  0.4223 -0.1531 -0.3150
  895MOL0     C18012   2.351   7.302   1.594  0.2691 -0.1320 -0.1801
  895MOL0     C18013   2.231   7.248   1.537 -0.8612 -0.3296 -0.5370
  895MOL0     C18014   2.111   7.260   1.605  0.3460  0.2481 -0.0669
  895MOL0     C18015   2.104   7.349   1.711 -0.4828  0.2420  0.3687
  895MOL0     O18016   1.975   7.384   1.759 -0.0020 -0.3796 -0.1648
  895MOL0     C18017   1.963   7.526   1.796 -0.0476  0.0113 -0.7680
  895MOL0     C18018   1.811   7.564   1.826 -0.7561  0.7637  0.0208
  895MOL0     C18019   1.761   7.585   1.693 -0.1301 -0.7575 -0.3783
  895MOL0     C18020   1.621   7.631   1.696  0.4400 -0.1446  0.4824
  895MOL0     C18021   1.560   7.685   1.568  0.1624 -0.0863 -0.2053
  895MOL0     C18022   1.567   7.585   1.456 -0.6830  0.4985 -0.7672
  895MOL0     C18023   1.493   7.445   1.487 -1.0839  0.1422  0.4155
  895MOL0     C18024   1.335   7.461   1.506 -0.8372 -0.9809  0.0631
  895MOL0     N18025   1.279   7.329   1.539  0.1335  0.0110 -0.3301
  895MOL0     C18026   1.270   7.217   1.457 -0.5655  0.1187 -0.2126
  895MOL0     C18027   1.236   7.109   1.533  0.1779  0.4819  0.6135
  895MOL0     C18028   1.192   6.980   1.478  0.2301  0.9472  0.5542
  895MOL0     C18029   1.087   7.002   1.381  0.3441  0.6726  1.8019
  895MOL0     C18030   0.956   7.045   1.455  0.3533  0.4224 -0.6912
  895MOL0     C18031   0.832   7.017   1.372  0.3881  0.5515  0.3737
  895MOL0     O18032   0.708   7.056   1.440 -0.1145 -0.0737  0.1786
  895MOL0     C18033   0.581   7.035   1.384 -0.7357 -0.0610 -0.4352
  895MOL0     C18034   0.550   7.039   1.249  0.3620  0.6491  0.5454
  895MOL0     C18035   0.416   7.023   1.194 -0.0685  0.2062 -1.2106
  895MOL0     C18036   0.314   6.997   1.283  1.3548 -1.0962  0.6473
  895MOL0     C18037   0.172   6.973   1.233 -0.3551 -0.0244  0.4315
  895MOL0     O18038   0.077   6.949   1.322 -0.4648  0.6743  0.2871
  895MOL0     C18039  -0.041   6.909   1.269 -0.6161 -0.4271  0.1600
  895MOL0     C18040  -0.122   6.994   1.186 -0.1267 -0.5051  0.3594
  895MOL0     C18041  -0.258   6.964   1.169  0.0576  0.0739 -0.7787
  895MOL0     C18042  -0.316   6.842   1.213 -0.0679  1.3494 -0.2181
  895MOL0     O18043  -0.447   6.809   1.185  0.4024  0.0085 -0.2257
  895MOL0     C18044  -0.540   6.903   1.141 -0.6422  0.0514 -0.4692
  895MOL0     C18045  -0.673   6.833   1.127  0.2774 -0.4794 -1.0978
  895MOL0     C18046  -0.678   6.695   1.049 -0.2940  0.6334 -0.1124
  895MOL0     C18047  -0.818   6.635   1.062 -0.2643 -1.3185 -0.3046
  895MOL0     C18048  -0.861   6.528   0.958 -0.5012  0.1354  0.1608
  895MOL0     C18049  -0.783   6.408   0.989 -0.7797  0.7704  0.9029
  895MOL0     C18050  -0.828   6.282   0.913  0.3078 -0.4992  0.5419
  895MOL0     C18051  -0.721   6.175   0.889  0.5176 -0.3642  0.7741
  895MOL0    Cl18052  -0.646   6.134   1.056 -0.0534 -0.0573  0.1890
  895MOL0     C18053  -0.225   6.743   1.274 -0.1392  0.9863  0.0890
  895MOL0     C18054  -0.088   6.775   1.301  0.2794 -1.1088  0.1509
  895MOL0     O18055   0.161   6.977   1.112  0.1644 -0.3370 -0.2169
  895MOL0     C18056   0.338   6.999   1.424 -0.9118  0.3823  0.3214
  895MOL0     C18057   0.473   7.017   1.473 -0.1112 -0.1529  0.1416
  895MOL0     N18058   1.215   7.159   1.661 -0.2510 -0.4181 -0.0610
  895MOL0     N18059   1.242   7.290   1.666 -1.2381 -0.3296  0.0410
  895MOL0     C18060   2.225   7.395   1.776 -0.1421  0.2061 -0.3142
  895MOL0     C18061   2.345   7.373   1.710 -0.2085  0.9215 -0.0713
  895MOL0     C18062   2.652   7.149   1.411 -0.7386  0.7745  0.2110
  895MOL0     C18063   2.703   7.260   1.351  0.1953 -0.3128 -0.0838
  895MOL0     C18064   2.804   7.244   1.257  0.1785  0.4401 -0.4680
  895MOL0     C18065   2.872   7.119   1.235 -0.1255 -0.5325 -0.4069
  895MOL0     O18066   2.990   7.078   1.170  0.0434 -0.0548  0.5795
  895MOL0     C18067   3.093   7.165   1.135  0.0680 -0.3773  0.0341
  895MOL0     C18068   3.055   7.244   1.007 -0.0835 -0.8323  1.0151
  895MOL0     C18069   3.158   7.352   0.986  0.2592 -0.5565  0.8315
  895MOL0     C18070   3.182   7.379   0.838  1.0487  0.1923  0.5581
  895MOL0     C18071   3.259   7.263   0.790 -0.5143  0.3068 -0.1714
  895MOL0     C18072   3.313   7.155   0.768  0.7608  0.2493 -0.0045
  895MOL0     C18073   2.814   7.010   1.305 -0.0187 -0.2778  0.3052
  895MOL0     C18074   2.699   7.021   1.384  0.3571 -0.6918 -0.2510
  895MOL0     H18075   2.229   7.179   1.453 -1.2781  0.4453 -1.1758
  895MOL0     H18076   2.036   7.198   1.558  0.1483  0.0916  0.4464
  895MOL0     H18077   2.003   7.596   1.723 -0.4668 -0.3005 -1.3082
  895MOL0     H18078   2.004   7.544   1.896 -5.6813  3.6661  1.3848
  895MOL0     H18079   1.809   7.652   1.890 -0.2777  0.9725 -0.2450
  895MOL0     H18080   1.761   7.487   1.885  0.8864  0.6406  1.3501
  895MOL0     H18081   1.768   7.503   1.622  1.2804 -1.9999  1.1231
  895MOL0     H18082   1.821   7.659   1.639  2.8844  0.2723  3.8315
  895MOL0     H18083   1.556   7.547   1.725 -1.8195  1.3314 -0.0740
  895MOL0     H18084   1.591   7.701   1.774 -1.3069 -0.2652 -0.0242
  895MOL0     H18085   1.614   7.772   1.530  1.2235 -0.0004  1.4032
  895MOL0     H18086   1.456   7.713   1.586 -0.2496 -1.7995  0.2122
  895MOL0     H18087   1.669   7.571   1.422 -0.5693  0.5702 -0.4621
  895MOL0     H18088   1.500   7.635   1.385 -1.7828  0.9017  0.5059
  895MOL0     H18089   1.521   7.382   1.401  1.4703 -0.4813  1.6160
  895MOL0     H18090   1.529   7.390   1.574 -1.4565 -0.7507  0.0178
  895MOL0     H18091   1.282   7.511   1.425 -3.3806 -1.5979  1.2494
  895MOL0     H18092   1.318   7.531   1.588 -2.3269 -0.6944 -0.4571
  895MOL0     H18093   1.301   7.208   1.353  0.1908 -1.0547  0.1030
  895MOL0     H18094   1.151   6.915   1.555  1.7825 -0.0934  0.5557
  895MOL0     H18095   1.276   6.928   1.431  0.1589  1.7688 -0.5231
  895MOL0     H18096   1.074   6.906   1.331  0.1115  0.8818  1.4591
  895MOL0     H18097   1.124   7.071   1.305 -3.0067 -0.1988 -0.8920
  895MOL0     H18098   0.953   7.009   1.558  0.4500  2.3994  0.0357
  895MOL0     H18099   0.950   7.154   1.467 -1.4061  0.1243  1.8552
  895MOL0     H18100   0.829   6.909   1.356  3.6662  0.7583 -2.8852
  895MOL0     H18101   0.843   7.063   1.273  1.9668 -0.8444 -0.1509
  895MOL0     H18102   0.638   7.055   1.189  1.0779 -0.6230  1.2085
  895MOL0     H18103   0.407   7.049   1.089  1.5277  2.9415 -0.7720
  895MOL0     H18104  -0.078   7.090   1.160  0.4050 -0.7996  0.1435
  895MOL0     H18105  -0.320   7.048   1.139 -2.2952  0.6565  4.5360
  895MOL0     H18106  -0.502   6.926   1.041  0.3004 -1.8221 -0.5876
  895MOL0     H18107  -0.541   6.997   1.196  3.6584 -0.8247  1.5492
  895MOL0     H18108  -0.738   6.905   1.076 -0.1310  3.7283  4.5104
  895MOL0     H18109  -0.713   6.833   1.228  0.5114 -0.9562 -1.0014
  895MOL0     H18110  -0.610   6.622   1.094 -1.2740  0.2415  0.7626
  895MOL0     H18111  -0.659   6.712   0.942 -0.7517  1.9616  0.0002
  895MOL0     H18112  -0.821   6.606   1.167  2.1690 -0.5107  0.0293
  895MOL0     H18113  -0.892   6.716   1.055  0.8709 -0.3201 -1.0538
  895MOL0     H18114  -0.837   6.557   0.855 -1.0251  0.0587  0.0106
  895MOL0     H18115  -0.969   6.513   0.963 -0.0899 -3.4702  0.4051
  895MOL0     H18116  -0.780   6.385   1.096 -1.9384 -0.6256  0.6673
  895MOL0     H18117  -0.679   6.428   0.963 -1.0740  0.3260 -0.7412
  895MOL0     H18118  -0.902   6.226   0.971  0.2894 -2.1797 -0.9890
  895MOL0     H18119  -0.885   6.316   0.825 -0.7137 -2.2934  0.4615
  895MOL0     H18120  -0.652   6.223   0.819 -1.4075  1.3844 -0.0347
  895MOL0     H18121  -0.759   6.077   0.860 -0.7118 -0.2309  1.8330
  895MOL0     H18122  -0.254   6.642   1.301  2.7422 -0.2679 -1.1441
  895MOL0     H18123  -0.026   6.713   1.365  0.0153 -1.1312  0.3894
  895MOL0     H18124   0.260   6.976   1.496 -1.2704  0.0709 -0.1591
  895MOL0     H18125   0.510   7.028   1.575  1.3042  1.4980 -0.4970
  895MOL0     H18126   2.217   7.460   1.863 -0.1619 -2.1792  1.5567
  895MOL0     H18127   2.440   7.416   1.737 -0.0935  0.1657  0.7850
  895MOL0     H18128   2.661   7.359   1.363 -0.9109 -0.6301 -1.1647
  895MOL0     H18129   2.848   7.331   1.209  3.0730 -1.7570 -2.2025
  895MOL0     H18130   3.180   7.108   1.102 -0.8490 -1.8876  0.1724
  895MOL0     H18131   3.114   7.228   1.222  0.2086  0.1748 -0.3909
  895MOL0     H18132   3.046   7.169   0.927 -1.4645 -2.3927  2.5485
  895MOL0     H18133   2.956   7.291   1.008 -0.3387 -1.3649  1.2426
  895MOL0     H18134   3.252   7.326   1.034 -0.1485 -1.8499  0.9681
  895MOL0     H18135   3.117   7.445   1.027 -2.5342 -0.6170 -1.5160
  895MOL0     H18136   3.093   7.386   0.775  1.6048  0.2377 -0.2449
  895MOL0     H18137   3.235   7.474   0.834  2.4913 -0.5396  1.4763
  895MOL0     H18138   3.363   7.063   0.747  1.9603  0.8876 -0.0852
  895MOL0     H18139   2.847   6.907   1.299 -3.4839 -1.9174  4.4164
  895MOL0     H18140   2.668   6.925   1.424  2.2874 -2.0761 -1.8760
  896MOL0     O18141   4.530   1.999   1.185  0.0643 -0.6892 -0.3968
  896MOL0     C18142   4.580   1.902   1.133  0.0514 -0.2787 -0.1625
  896MOL0     O18143   4.617   1.895   1.003  0.3677  0.5807 -0.4222
  896MOL0     C18144   4.598   2.013   0.930  0.6563  0.3461  0.6220
  896MOL0     C18145   4.712   2.092   0.915 -0.1599 -0.8390 -0.0361
  896MOL0     C18146   4.702   2.200   0.829  0.3177  0.9847 -0.4255
  896MOL0     C18147   4.593   2.230   0.746 -0.7282  0.6511 -0.4286
  896MOL0     O18148   4.601   2.345   0.663 -0.0100  0.6054 -0.1090
  896MOL0     C18149   4.609   2.323   0.528 -0.3743 -0.7851  0.3856
  896MOL0     C18150   4.749   2.318   0.480  0.9124 -0.2496  0.2743
  896MOL0     C18151   4.761   2.344   0.327 -0.1138  0.4476 -0.3398
  896MOL0     C18152   4.901   2.355   0.277 -0.4103  0.1519  0.1833
  896MOL0     C18153   4.897   2.418   0.145  0.0747 -1.0458  0.6088
  896MOL0     C18154   4.866   2.566   0.145 -0.5937 -0.2961 -0.8179
  896MOL0     C18155   4.904   2.632   0.013 -0.7077 -0.2257 -0.1987
  896MOL0     C18156   4.848   2.564  -0.115  0.2626 -0.1843  0.8506
  896MOL0     N18157   4.896   2.655  -0.221 -0.0658  2.0494 -0.0856
  896MOL0     C18158   5.027   2.660  -0.267 -0.7151 -0.3879 -0.5752
  896MOL0     C18159   5.027   2.713  -0.384 -0.2642 -0.4578 -0.1870
  896MOL0     C18160   5.153   2.755  -0.461  0.9094 -0.3832  0.6427
  896MOL0     C18161   5.168   2.656  -0.579 -0.0024 -0.1686 -0.2565
  896MOL0     C18162   5.050   2.650  -0.684  0.4471  0.5526  0.5892
  896MOL0     C18163   5.093   2.630  -0.831  0.0718 -0.1088  0.2207
  896MOL0     O18164   4.981   2.578  -0.903  1.1554  0.4767  0.3465
  896MOL0     C18165   4.993   2.563  -1.041 -1.0277 -0.1373 -0.0440
  896MOL0     C18166   4.895   2.624  -1.121 -0.4955  0.1854  0.0718
  896MOL0     C18167   4.918   2.628  -1.257  0.0427 -0.5184  0.4459
  896MOL0     C18168   5.028   2.566  -1.317  0.2729 -0.3016 -0.4584
  896MOL0     C18169   5.054   2.566  -1.462  0.1723  0.5274 -0.0920
  896MOL0     O18170   4.937   2.587  -1.538  0.3756 -0.0435  0.7860
  896MOL0     C18171   4.929   2.608  -1.676 -0.9216  0.5046 -0.4661
  896MOL0     C18172   5.032   2.650  -1.754 -1.1604  0.2547 -0.4394
  896MOL0     C18173   5.008   2.692  -1.887  1.2685  0.5309  0.1850
  896MOL0     C18174   4.880   2.690  -1.938 -0.1452  0.5223  0.4395
  896MOL0     O18175   4.848   2.718  -2.067  0.1281  0.0975  0.0587
  896MOL0     C18176   4.829   2.855  -2.105 -0.3913  0.0105  0.5651
  896MOL0     C18177   4.952   2.897  -2.185 -1.0577 -0.5337  0.0396
  896MOL0     C18178   4.942   3.049  -2.197  0.3454 -0.0017  0.3284
  896MOL0     C18179   5.033   3.090  -2.320  0.1493 -0.2479 -0.8303
  896MOL0     C18180   5.051   3.233  -2.327 -0.1738 -0.3263  0.1668
  896MOL0     C18181   5.147   3.260  -2.436  0.4763 -1.2368  0.5460
  896MOL0     C18182   5.163   3.413  -2.452 -0.1241 -1.0147 -0.2165
  896MOL0     C18183   5.278   3.457  -2.536  0.2309  0.4977  0.2138
  896MOL0    Cl18184   5.258   3.366  -2.682 -0.8450 -0.2717  0.1034
  896MOL0     C18185   4.772   2.649  -1.857  0.1701 -1.0107 -0.1041
  896MOL0     C18186   4.801   2.607  -1.722 -1.0412 -0.6493  0.5685
  896MOL0     O18187   5.174   2.559  -1.506 -0.3528  0.6886 -0.7148
  896MOL0     C18188   5.127   2.505  -1.238 -0.1933  0.2819  0.1738
  896MOL0     C18189   5.109   2.496  -1.098  0.2651 -0.6485  0.4191
  896MOL0     N18190   4.896   2.724  -0.426  0.9180  0.2447  0.3228
  896MOL0     N18191   4.817   2.682  -0.331 -0.2476  0.1493 -0.8944
  896MOL0     C18192   4.487   2.141   0.762  0.6559 -0.8806 -0.5153
  896MOL0     C18193   4.485   2.031   0.853  0.9182  0.8044 -0.4288
  896MOL0     C18194   4.624   1.786   1.218  0.3442 -0.1050  0.6779
  896MOL0     C18195   4.643   1.800   1.360  0.6898  0.3040  0.1227
  896MOL0     C18196   4.662   1.678   1.426  0.1470  0.2406 -1.1342
  896MOL0     C18197   4.657   1.557   1.364 -0.2032 -0.2169  0.0906
  896MOL0     O18198   4.657   1.434   1.421 -0.1197 -0.4975  0.4087
  896MOL0     C18199   4.623   1.423   1.565 -0.6244 -0.4737 -0.1671
  896MOL0     C18200   4.566   1.282   1.593 -0.1780  0.0047 -0.3915
  896MOL0     C18201   4.660   1.178   1.541  0.0642 -0.1550  0.4021
  896MOL0     C18202   4.612   1.036   1.571  0.3976  1.0621 -0.1747
  896MOL0     C18203   4.603   1.013   1.719  0.6498  0.6493 -0.2186
  896MOL0     C18204   4.586   0.990   1.833 -0.1445  0.1817  0.5698
  896MOL0     C18205   4.658   1.554   1.229 -0.3511 -0.7774 -0.4811
  896MOL0     C18206   4.639   1.667   1.153 -0.3696  0.2404 -0.2205
  896MOL0     H18207   4.797   2.052   0.970 -0.5392 -3.5922 -1.3020
  896MOL0     H18208   4.789   2.264   0.813  3.3360 -2.3275  1.3281
  896MOL0     H18209   4.566   2.415   0.487 -2.2274 -0.5021  2.7320
  896MOL0     H18210   4.547   2.238   0.497 -2.4414  0.1501  1.7022
  896MOL0     H18211   4.786   2.218   0.505 -2.5871 -2.3602 -2.1254
  896MOL0     H18212   4.808   2.390   0.536 -0.4414 -0.5821  2.2421
  896MOL0     H18213   4.714   2.439   0.301  1.8659  0.9926 -2.2954
  896MOL0     H18214   4.714   2.259   0.277 -0.2384 -0.4556  1.2693
  896MOL0     H18215   4.956   2.411   0.353 -0.5880 -2.1937  2.1881
  896MOL0     H18216   4.943   2.255   0.264 -2.6887 -0.5862 -2.5921
  896MOL0     H18217   4.820   2.367   0.086 -0.0722  0.6570 -0.7560
  896MOL0     H18218   4.996   2.401   0.101  0.4599 -0.5164  1.2505
  896MOL0     H18219   4.927   2.619   0.219  1.2705  1.6346 -3.5402
  896MOL0     H18220   4.759   2.588   0.146 -0.4126  0.7686 -1.8972
  896MOL0     H18221   4.867   2.735   0.004  2.1554  0.7050 -2.9726
  896MOL0     H18222   5.013   2.631   0.007 -0.7274  0.1785 -0.6500
  896MOL0     H18223   4.739   2.563  -0.128  0.2990  0.9885  0.3028
  896MOL0     H18224   4.902   2.470  -0.123  2.3129  1.1091 -2.5007
  896MOL0     H18225   5.118   2.650  -0.209 -0.6510  1.1983 -0.3336
  896MOL0     H18226   5.238   2.767  -0.393  2.6302  0.7459 -1.5886
  896MOL0     H18227   5.141   2.860  -0.490  1.5172 -0.7786 -1.1716
  896MOL0     H18228   5.164   2.555  -0.538  0.5439 -1.0509 -2.2361
  896MOL0     H18229   5.267   2.661  -0.625  0.5832  1.1104  1.0731
  896MOL0     H18230   4.974   2.575  -0.656  0.2385  0.9399  1.0760
  896MOL0     H18231   4.997   2.745  -0.689  2.9925  2.0981  1.2152
  896MOL0     H18232   5.174   2.557  -0.834 -0.7336 -1.0038 -0.3214
  896MOL0     H18233   5.127   2.725  -0.874  0.6326 -0.5085 -0.2235
  896MOL0     H18234   4.809   2.674  -1.078  1.5155  2.1621  2.0384
  896MOL0     H18235   4.839   2.660  -1.324  0.2968 -2.8193 -1.0491
  896MOL0     H18236   5.134   2.652  -1.717 -0.5769 -4.0248 -1.3372
  896MOL0     H18237   5.092   2.720  -1.949  0.6540  0.2702 -0.7788
  896MOL0     H18238   4.823   2.912  -2.011  0.5114 -1.1935  1.3881
  896MOL0     H18239   4.741   2.869  -2.168  0.2505  0.3692 -0.2702
  896MOL0     H18240   4.958   2.845  -2.282 -3.8285 -3.3120  1.1751
  896MOL0     H18241   5.041   2.867  -2.130 -0.5736 -0.2915 -0.5950
  896MOL0     H18242   4.956   3.103  -2.103  0.8301  1.9070 -0.7644
  896MOL0     H18243   4.839   3.074  -2.225  0.6209 -0.4952 -1.2286
  896MOL0     H18244   5.126   3.039  -2.297 -1.2788 -2.1606  1.0936
  896MOL0     H18245   4.997   3.049  -2.415 -0.5073 -0.4082 -0.5235
  896MOL0     H18246   5.095   3.275  -2.236  1.1762 -1.9170  0.2956
  896MOL0     H18247   4.957   3.282  -2.355 -0.0369 -0.6454 -0.9286
  896MOL0     H18248   5.107   3.217  -2.528  1.8623 -0.3710 -0.4946
  896MOL0     H18249   5.242   3.207  -2.420  0.6182 -1.8529 -1.8779
  896MOL0     H18250   5.075   3.462  -2.496 -0.0101 -0.2473  0.3935
  896MOL0     H18251   5.181   3.468  -2.359  0.0648 -0.5995 -0.4924
  896MOL0     H18252   5.364   3.422  -2.478  0.0104 -1.5728 -0.6286
  896MOL0     H18253   5.302   3.562  -2.556  2.6538  0.1862  1.1065
  896MOL0     H18254   4.676   2.646  -1.906 -0.0027  1.8029 -0.0607
  896MOL0     H18255   4.720   2.582  -1.654 -2.1130 -2.7685 -1.3088
  896MOL0     H18256   5.212   2.461  -1.289 -0.9329 -0.2744 -0.6072
  896MOL0     H18257   5.177   2.436  -1.039  2.2305  0.9690 -0.0750
  896MOL0     H18258   4.394   2.153   0.706  0.8800  2.4495 -0.3625
  896MOL0     H18259   4.403   1.961   0.841 -0.2968  2.1836 -0.4502
  896MOL0     H18260   4.653   1.896   1.410 -1.7857  1.2672 -1.0424
  896MOL0     H18261   4.679   1.678   1.533 -1.5084  0.7300 -0.8500
  896MOL0     H18262   4.553   1.498   1.603 -0.2428 -0.5814  0.7799
  896MOL0     H18263   4.720   1.423   1.616 -1.1730  0.1187  0.9057
  896MOL0     H18264   4.533   1.267   1.697 -2.1856  1.6505 -0.7158
  896MOL0     H18265   4.467   1.288   1.546 -0.1553  2.9426 -0.2657
  896MOL0     H18266   4.755   1.193   1.593 -0.5039  1.1596  1.0998
  896MOL0     H18267   4.659   1.191   1.432 -0.1530  1.2490  0.5585
  896MOL0     H18268   4.509   1.026   1.536 -1.8200  3.9739  4.4672
  896MOL0     H18269   4.670   0.956   1.525  0.0264  0.2895  0.6951
  896MOL0     H18270   4.571   0.952   1.933  0.2120 -2.1080 -0.1924
  896MOL0     H18271   4.671   1.455   1.187 -0.5362 -0.7843 -0.5226
  896MOL0     H18272   4.637   1.654   1.045 -0.8083  1.1248 -0.3282
  897MOL0     O18273   4.422   5.399   8.302 -1.0597  0.0158  0.7515
  897MOL0     C18274   4.474   5.322   8.221  0.2563 -0.9263 -0.3233
  897MOL0     O18275   4.611   5.310   8.191 -0.8308  0.4391  0.3097
  897MOL0     C18276   4.710   5.384   8.256 -0.0585  0.2776 -0.2777
  897MOL0     C18277   4.828   5.410   8.188  1.3191 -0.5322 -0.0328
  897MOL0     C18278   4.940   5.469   8.249  0.0520  0.7718 -1.0954
  897MOL0     C18279   4.918   5.513   8.383 -0.2409  0.0921 -0.3308
  897MOL0     O18280   5.015   5.583   8.453 -0.3359  0.0450 -0.3218
  897MOL0     C18281   5.142   5.538   8.455 -0.4163 -1.7728  0.2417
  897MOL0     C18282   5.178   5.399   8.504 -1.1010  0.5712  0.2312
  897MOL0     C18283   5.124   5.375   8.647 -0.8835  0.4303 -0.1039
  897MOL0     C18284   5.165   5.233   8.682  0.7896  0.9672 -0.2313
  897MOL0     C18285   5.126   5.198   8.829  0.0396 -0.1902 -0.2875
  897MOL0     C18286   5.188   5.061   8.875  0.3614 -0.8736 -0.2087
  897MOL0     C18287   5.121   4.945   8.804 -0.1389 -0.5477  1.0308
  897MOL0     C18288   5.165   4.810   8.840  0.0840 -0.1397  0.4668
  897MOL0     N18289   5.290   4.810   8.922  0.2457 -0.0514 -0.2839
  897MOL0     C18290   5.301   4.822   9.056 -0.4018 -0.2794 -0.0319
  897MOL0     C18291   5.433   4.815   9.081 -0.0525 -0.8337 -0.9406
  897MOL0     C18292   5.496   4.827   9.220 -0.3822  0.4578  0.1124
  897MOL0     C18293   5.483   4.971   9.281 -0.3339  0.5817 -0.5724
  897MOL0     C18294   5.530   4.971   9.428  0.5986  0.2851 -0.1462
  897MOL0     C18295   5.465   5.081   9.507 -0.7301  0.7163  0.7042
  897MOL0     O18296   5.326   5.061   9.512 -0.2663  0.3965  0.6765
  897MOL0     C18297   5.260   5.087   9.630 -0.6483 -0.2652 -0.5565
  897MOL0     C18298   5.282   5.005   9.744 -1.0586 -0.2042 -1.1920
  897MOL0     C18299   5.213   5.026   9.859 -0.2027  0.5730 -0.6130
  897MOL0     C18300   5.109   5.118   9.863 -0.3790  0.0054  0.1105
  897MOL0     C18301   5.027   5.129   9.993  0.4105  1.4197 -0.2406
  897MOL0     O18302   4.946   5.243   9.999  0.6039 -1.4515  0.6883
  897MOL0     C18303   4.862   5.249  10.106  0.3199  0.0355 -0.4359
  897MOL0     C18304   4.884   5.331  10.216  0.2411 -0.8031  0.5225
  897MOL0     C18305   4.785   5.370  10.315  0.0585 -0.0585  1.1772
  897MOL0     C18306   4.652   5.320  10.300  0.2169 -0.2015 -0.0041
  897MOL0     O18307   4.551   5.345  10.395 -0.8209  0.1296  0.0108
  897MOL0     C18308   4.585   5.397  10.522 -0.2822 -0.0520  0.8933
  897MOL0     C18309   4.461   5.397  10.611 -0.0484  1.1687  0.5600
  897MOL0     C18310   4.489   5.425  10.756  0.1780 -1.0777 -0.7249
  897MOL0     C18311   4.357   5.431  10.845 -0.2971  1.0493  0.0068
  897MOL0     C18312   4.384   5.515  10.964  0.9393 -0.7017  0.1180
  897MOL0     C18313   4.252   5.555  11.045 -1.4574  0.9143  0.3661
  897MOL0     C18314   4.255   5.701  11.080 -0.5910 -0.2863  0.6591
  897MOL0     C18315   4.109   5.749  11.112 -0.3000 -0.0585 -0.2322
  897MOL0    Cl18316   4.033   5.677  11.267 -0.1763  0.4732 -0.0251
  897MOL0     C18317   4.632   5.235  10.190 -0.1022 -0.0834  0.4527
  897MOL0     C18318   4.729   5.211  10.090 -0.9872 -0.5848 -0.4027
  897MOL0     O18319   5.023   5.031  10.066 -0.6289  0.1132  0.8454
  897MOL0     C18320   5.085   5.196   9.749 -0.1647 -0.3873  0.2176
  897MOL0     C18321   5.163   5.184   9.634 -0.4472 -0.4414  0.4252
  897MOL0     N18322   5.506   4.796   8.964  0.4681  1.1448  0.1734
  897MOL0     N18323   5.415   4.784   8.867  0.6788 -0.2240  0.3159
  897MOL0     C18324   4.803   5.492   8.460  1.3078  0.4628  0.5655
  897MOL0     C18325   4.700   5.420   8.396  0.8034 -0.5524  0.9023
  897MOL0     C18326   4.383   5.233   8.147  0.9729  0.0576  0.3130
  897MOL0     C18327   4.424   5.132   8.054  0.8109  0.3914 -0.5688
  897MOL0     C18328   4.323   5.059   7.988  0.9475 -0.1911 -0.1154
  897MOL0     C18329   4.186   5.069   8.016  0.0831 -0.7395  0.0471
  897MOL0     O18330   4.087   5.007   7.951  0.4239 -0.1696 -0.2882
  897MOL0     C18331   4.123   4.934   7.834 -0.6804 -0.2237 -0.2355
  897MOL0     C18332   4.011   4.867   7.759 -0.4469  0.3659  0.1091
  897MOL0     C18333   3.903   4.964   7.731 -0.4839 -0.2688 -0.1274
  897MOL0     C18334   3.925   5.072   7.622  0.0056  0.2503 -0.7163
  897MOL0     C18335   3.958   5.002   7.497 -0.5229 -0.3953 -0.0526
  897MOL0     C18336   3.990   4.947   7.385 -0.1421  0.1892 -0.2478
  897MOL0     C18337   4.147   5.175   8.099 -0.5503 -0.6402 -0.5172
  897MOL0     C18338   4.248   5.253   8.166 -0.7709  0.3024 -0.1883
  897MOL0     H18339   4.841   5.376   8.086  1.4796 -0.2812 -0.0966
  897MOL0     H18340   5.035   5.473   8.196  1.4253 -0.3852  1.1267
  897MOL0     H18341   5.192   5.600   8.530 -1.9562 -1.9244  1.4406
  897MOL0     H18342   5.186   5.568   8.359 -1.1504 -2.9541 -0.4781
  897MOL0     H18343   5.288   5.394   8.505 -1.1050 -0.7033 -1.2822
  897MOL0     H18344   5.136   5.323   8.437  0.7180 -1.9481  1.7317
  897MOL0     H18345   5.015   5.379   8.636 -0.8880 -1.6876 -1.2337
  897MOL0     H18346   5.165   5.443   8.723  0.5697 -0.4404 -0.0862
  897MOL0     H18347   5.120   5.173   8.602 -0.3313  4.7245 -2.6993
  897MOL0     H18348   5.273   5.212   8.676  0.6987  0.8004 -1.7042
  897MOL0     H18349   5.018   5.187   8.845  0.3063 -2.4327  0.3521
  897MOL0     H18350   5.171   5.275   8.893  0.2910  0.1445 -0.8661
  897MOL0     H18351   5.172   5.046   8.982 -3.8855  0.5384 -0.4567
  897MOL0     H18352   5.297   5.063   8.864  0.2552 -1.1188 -1.3781
  897MOL0     H18353   5.013   4.952   8.823 -0.7750 -2.9177 -1.1501
  897MOL0     H18354   5.143   4.953   8.697  0.2680  0.8281  1.2028
  897MOL0     H18355   5.194   4.747   8.756  1.6549 -1.0810  1.6539
  897MOL0     H18356   5.075   4.765   8.883 -0.3265 -1.6727 -1.7821
  897MOL0     H18357   5.222   4.855   9.124  0.3529  2.6230 -0.4339
  897MOL0     H18358   5.601   4.800   9.203 -1.3845 -2.2395 -2.6801
  897MOL0     H18359   5.456   4.753   9.291  0.2713  0.9328  0.9923
  897MOL0     H18360   5.378   5.000   9.265 -0.7801 -1.3757 -1.3889
  897MOL0     H18361   5.556   5.034   9.228  2.2864  0.3825  2.4994
  897MOL0     H18362   5.507   4.872   9.470 -0.3893  0.2231 -0.7972
  897MOL0     H18363   5.635   4.999   9.441  0.9379 -1.4815  1.5600
  897MOL0     H18364   5.484   5.185   9.477  1.2030 -0.0725 -1.0058
  897MOL0     H18365   5.502   5.074   9.610  3.0235 -1.5015 -0.6131
  897MOL0     H18366   5.363   4.934   9.747  0.2112  1.2148  0.3893
  897MOL0     H18367   5.239   4.956   9.938  0.1449  2.2757  0.8247
  897MOL0     H18368   4.985   5.371  10.209  0.1653 -0.8819 -2.2168
  897MOL0     H18369   4.814   5.438  10.394  1.8582  2.4375 -1.4223
  897MOL0     H18370   4.623   5.500  10.523  1.4863 -0.6731  0.6763
  897MOL0     H18371   4.665   5.333  10.561  1.6857  1.2008 -0.8462
  897MOL0     H18372   4.407   5.302  10.599 -0.8070  2.0036 -5.6841
  897MOL0     H18373   4.395   5.479  10.579 -2.6352 -0.2348  1.9499
  897MOL0     H18374   4.528   5.527  10.762  2.1617 -1.8562  2.4087
  897MOL0     H18375   4.566   5.356  10.794  0.2095 -0.7413 -0.1783
  897MOL0     H18376   4.272   5.469  10.789  0.4714  1.1986 -1.0979
  897MOL0     H18377   4.333   5.331  10.884  0.1446  0.3380 -1.4678
  897MOL0     H18378   4.415   5.611  10.922  0.2825 -0.6042 -0.1666
  897MOL0     H18379   4.469   5.482  11.024  0.3446  0.2505  1.5391
  897MOL0     H18380   4.235   5.496  11.135 -0.4479  0.2565  0.1475
  897MOL0     H18381   4.161   5.530  10.991 -3.0166  1.7816  2.4568
  897MOL0     H18382   4.318   5.729  11.165  0.5838 -1.7966  0.3285
  897MOL0     H18383   4.282   5.767  10.997  1.7173  1.0344  2.3430
  897MOL0     H18384   4.029   5.734  11.038 -2.0232  1.3089  1.2547
  897MOL0     H18385   4.120   5.857  11.126 -0.5509 -0.0199 -0.3251
  897MOL0     H18386   4.532   5.198  10.169 -0.9455  1.1893  2.0477
  897MOL0     H18387   4.702   5.155  10.001  0.4329  0.1573 -1.3425
  897MOL0     H18388   5.011   5.275   9.752  1.7535  1.8209 -3.2557
  897MOL0     H18389   5.131   5.231   9.541 -3.0303 -6.0281 -1.9882
  897MOL0     H18390   4.795   5.534   8.560 -0.4762 -0.9155  1.0606
  897MOL0     H18391   4.611   5.394   8.452 -0.8782  0.1067 -1.3145
  897MOL0     H18392   4.530   5.129   8.029  0.8307  2.5097 -0.9344
  897MOL0     H18393   4.357   4.977   7.926 -0.6514  0.7283 -2.3383
  897MOL0     H18394   4.190   4.852   7.860 -2.0970 -1.4470 -0.2807
  897MOL0     H18395   4.188   4.998   7.773  0.0995 -0.4565  0.3346
  897MOL0     H18396   4.038   4.819   7.664 -2.0353  1.6483 -1.0612
  897MOL0     H18397   3.970   4.788   7.822  2.0287 -1.8835 -0.9127
  897MOL0     H18398   3.878   5.005   7.829  0.5701 -1.7037  0.7858
  897MOL0     H18399   3.811   4.916   7.698 -0.5364  0.2025 -0.6948
  897MOL0     H18400   3.841   5.141   7.610 -1.6775 -1.2331  1.6089
  897MOL0     H18401   4.021   5.116   7.653  0.8644 -0.2047 -2.5957
  897MOL0     H18402   4.030   4.901   7.297  2.0005 -0.1655  0.8582
  897MOL0     H18403   4.051   5.215   8.131 -0.0856  0.4068 -0.3832
  897MOL0     H18404   4.205   5.338   8.218  1.6941  3.7234 -3.2094
  898MOL0     O18405   9.485   9.592   8.731 -0.4285 -0.4175 -0.0612
  898MOL0     C18406   9.492   9.657   8.626  0.0291 -0.2945 -0.2321
  898MOL0     O18407   9.600   9.647   8.540 -0.2949 -0.4905 -0.1310
  898MOL0     C18408   9.722   9.584   8.578  0.7631  0.0289  0.7702
  898MOL0     C18409   9.838   9.657   8.550 -1.1573  0.7889  1.0389
  898MOL0     C18410   9.963   9.600   8.565  0.0846 -0.1243  0.3318
  898MOL0     C18411   9.969   9.478   8.621  0.4764  0.6062 -0.0697
  898MOL0     O18412  10.094   9.421   8.635 -0.7342 -0.4156  0.2133
  898MOL0     C18413  10.138   9.352   8.512 -0.1710 -0.3625 -0.0024
  898MOL0     C18414  10.292   9.335   8.511 -0.6746  0.0220 -0.4796
  898MOL0     C18415  10.370   9.467   8.470 -0.3723 -0.1334 -0.2288
  898MOL0     C18416  10.520   9.469   8.490 -0.4297 -0.9229 -0.1934
  898MOL0     C18417  10.600   9.396   8.377  0.5965 -0.0762 -0.1167
  898MOL0     C18418  10.593   9.439   8.233  0.5281 -0.8209  0.4376
  898MOL0     C18419  10.689   9.365   8.121 -0.3487 -0.7975 -0.6671
  898MOL0     C18420  10.709   9.222   8.148 -0.1861 -0.8795  0.2876
  898MOL0     N18421  10.585   9.153   8.141  0.4665  0.3916  0.6862
  898MOL0     C18422  10.520   9.128   8.023 -0.0085 -0.4354 -0.3494
  898MOL0     C18423  10.401   9.070   8.065 -0.6241  0.6882  0.0374
  898MOL0     C18424  10.285   9.028   7.964 -0.2416  0.5466 -0.2838
  898MOL0     C18425  10.204   8.909   8.017  0.2023 -0.2121  0.7734
  898MOL0     C18426  10.105   8.952   8.128 -0.4934 -0.1413  0.2799
  898MOL0     C18427   9.995   9.034   8.079  0.6480  0.0943 -0.3803
  898MOL0     O18428   9.917   8.966   7.972 -0.1161 -0.2411  0.0702
  898MOL0     C18429   9.787   9.002   7.962 -0.7767  0.1961 -0.6564
  898MOL0     C18430   9.740   9.133   7.969 -0.3843 -0.5428  0.6900
  898MOL0     C18431   9.607   9.168   7.957  0.0633  0.0699  0.5361
  898MOL0     C18432   9.513   9.064   7.932 -0.1336  0.6378  0.4126
  898MOL0     C18433   9.370   9.093   7.896  0.4898 -0.4409 -0.4789
  898MOL0     O18434   9.339   9.217   7.847 -0.1808 -0.4177 -0.4743
  898MOL0     C18435   9.210   9.249   7.829 -0.5508  0.4218 -0.1209
  898MOL0     C18436   9.177   9.351   7.740 -0.7666 -0.4190 -0.4551
  898MOL0     C18437   9.047   9.405   7.733 -0.0999  0.9126  0.3150
  898MOL0     C18438   8.945   9.365   7.825  0.0384 -0.0987 -0.5165
  898MOL0     O18439   8.823   9.425   7.819 -0.4489 -0.4119 -0.3162
  898MOL0     C18440   8.773   9.465   7.949 -0.9088 -0.1868 -0.1175
  898MOL0     C18441   8.649   9.545   7.927  0.3313  0.3088 -0.6801
  898MOL0     C18442   8.700   9.673   7.859  0.3224 -0.0220 -0.1209
  898MOL0     C18443   8.590   9.759   7.816  0.6856 -0.2141  0.2401
  898MOL0     C18444   8.642   9.888   7.747 -0.5457 -0.1164  0.1771
  898MOL0     C18445   8.526   9.995   7.737 -0.4395  0.7535  0.2549
  898MOL0     C18446   8.579  10.120   7.663  0.1431  0.2764 -0.3756
  898MOL0     C18447   8.490  10.199   7.566  1.2712  0.2575  0.3274
  898MOL0    Cl18448   8.324  10.235   7.631 -0.2318  0.4375  0.1465
  898MOL0     C18449   8.979   9.260   7.912  0.1727  0.3170  0.3835
  898MOL0     C18450   9.102   9.210   7.919 -0.2296 -0.0710 -0.0920
  898MOL0     O18451   9.295   8.994   7.914 -1.2176 -1.0591  0.6127
  898MOL0     C18452   9.563   8.926   7.935  0.1324  0.1668 -0.7042
  898MOL0     C18453   9.702   8.896   7.946  0.3868 -0.0826 -1.0304
  898MOL0     N18454  10.409   9.046   8.202  0.1472 -0.0018 -1.5136
  898MOL0     N18455  10.518   9.102   8.246  0.0904 -0.7253 -0.3201
  898MOL0     C18456   9.850   9.411   8.667  0.2337  0.2641  0.1540
  898MOL0     C18457   9.729   9.455   8.639  0.3427 -0.2134  0.1070
  898MOL0     C18458   9.371   9.746   8.587  0.8906 -0.8796 -0.2393
  898MOL0     C18459   9.265   9.765   8.671 -0.0116 -0.8361 -0.5526
  898MOL0     C18460   9.164   9.849   8.632  0.9042  0.3605 -0.1690
  898MOL0     C18461   9.163   9.906   8.507  0.3345 -0.3992  0.1078
  898MOL0     O18462   9.069   9.996   8.472  0.0800  0.4525 -0.3718
  898MOL0     C18463   8.941   9.946   8.447 -1.0705  1.1340 -0.9763
  898MOL0     C18464   8.842  10.002   8.563  0.7399 -0.0981 -0.7101
  898MOL0     C18465   8.837  10.156   8.568  0.0264 -0.6105 -0.1297
  898MOL0     C18466   8.738  10.231   8.481 -0.0071  0.3930  0.9167
  898MOL0     C18467   8.784  10.227   8.341 -0.2399  0.5617  0.3815
  898MOL0     C18468   8.817  10.210   8.220 -0.0498 -0.0516 -0.2493
  898MOL0     C18469   9.266   9.887   8.421  0.1912  0.6021 -0.3420
  898MOL0     C18470   9.369   9.802   8.459 -0.0981 -0.2502 -0.9808
  898MOL0     H18471   9.818   9.753   8.504 -1.7957  0.9696  1.6656
  898MOL0     H18472  10.051   9.660   8.543 -1.9312  3.5355  1.2579
  898MOL0     H18473  10.108   9.417   8.429  0.9260 -0.0420 -0.1665
  898MOL0     H18474  10.088   9.255   8.509 -0.2965 -0.3199  0.6243
  898MOL0     H18475  10.321   9.258   8.440  0.3219  0.1783 -0.2570
  898MOL0     H18476  10.322   9.294   8.608 -1.9422 -2.4746 -1.0701
  898MOL0     H18477  10.339   9.547   8.539  0.2631  0.5513 -0.7223
  898MOL0     H18478  10.349   9.494   8.366 -1.6457  0.9030  0.2589
  898MOL0     H18479  10.545   9.573   8.466  1.1524 -2.0690 -4.5625
  898MOL0     H18480  10.547   9.439   8.591 -3.7859 -0.1333  1.0564
  898MOL0     H18481  10.567   9.294   8.399  2.4524 -0.1493  2.7397
  898MOL0     H18482  10.704   9.394   8.411  0.3852  1.6082  0.7005
  898MOL0     H18483  10.603   9.548   8.225 -0.9978 -0.7391 -1.0106
  898MOL0     H18484  10.489   9.418   8.204  1.1337 -2.2872 -0.7641
  898MOL0     H18485  10.637   9.384   8.026 -0.0835  3.2844 -0.1867
  898MOL0     H18486  10.785   9.418   8.128 -0.8687  0.1571 -0.5509
  898MOL0     H18487  10.753   9.209   8.247 -2.5507 -0.5925  1.4365
  898MOL0     H18488  10.789   9.202   8.076  2.3820  0.6680  2.5572
  898MOL0     H18489  10.552   9.149   7.922 -3.9060  4.3739 -0.9852
  898MOL0     H18490  10.333   8.991   7.873 -1.1983  0.8126 -0.9101
  898MOL0     H18491  10.229   9.121   7.949 -0.3290  0.8878  1.8183
  898MOL0     H18492  10.279   8.842   8.060  0.6651  0.1668  0.5729
  898MOL0     H18493  10.143   8.864   7.938  0.9776 -0.2860  0.2034
  898MOL0     H18494  10.060   8.865   8.177  1.1627 -2.0406 -1.4157
  898MOL0     H18495  10.162   9.008   8.203 -0.3254  0.7007 -0.4568
  898MOL0     H18496  10.026   9.134   8.047  2.6184  0.6327  2.7968
  898MOL0     H18497   9.925   9.066   8.157  1.4924  0.2264  0.3438
  898MOL0     H18498   9.811   9.214   7.982 -1.3075  0.5336 -0.6845
  898MOL0     H18499   9.573   9.271   7.952 -0.5035 -0.1430 -0.1481
  898MOL0     H18500   9.256   9.391   7.677 -1.2071 -0.5609 -1.1095
  898MOL0     H18501   9.023   9.479   7.657  2.9952  1.6569 -0.0585
  898MOL0     H18502   8.845   9.531   7.999 -2.6410  1.3583  0.4681
  898MOL0     H18503   8.770   9.376   8.012  0.7271 -0.7294 -0.7747
  898MOL0     H18504   8.601   9.559   8.024  0.1865 -1.3958 -0.4830
  898MOL0     H18505   8.573   9.498   7.865 -2.2858  2.6792  0.5477
  898MOL0     H18506   8.759   9.640   7.773 -1.2426 -1.6412 -0.6272
  898MOL0     H18507   8.759   9.731   7.931 -2.4224  0.5355  1.8414
  898MOL0     H18508   8.522   9.717   7.742 -0.2070  3.2145 -1.0637
  898MOL0     H18509   8.534   9.800   7.900 -0.4328  0.4840 -0.8104
  898MOL0     H18510   8.690   9.864   7.651  3.2265  0.5595  1.7389
  898MOL0     H18511   8.730   9.936   7.791 -0.7031 -0.1387  0.5152
  898MOL0     H18512   8.485  10.017   7.836  3.1572 -2.2558  2.7269
  898MOL0     H18513   8.445   9.949   7.681  0.8783  0.0723 -1.1850
  898MOL0     H18514   8.600  10.182   7.751  1.2024 -1.5845  0.7528
  898MOL0     H18515   8.675  10.096   7.616 -0.0074 -0.0108 -0.5337
  898MOL0     H18516   8.490  10.163   7.463  0.4485  3.1588 -0.8040
  898MOL0     H18517   8.537  10.296   7.548  0.3291  0.4373 -1.3972
  898MOL0     H18518   8.914   9.229   7.994  0.0630 -0.3426  0.0516
  898MOL0     H18519   9.122   9.139   7.998 -1.2629  0.1310  0.3621
  898MOL0     H18520   9.489   8.848   7.919 -0.2495  0.4998 -0.5800
  898MOL0     H18521   9.728   8.795   7.916 -0.1205 -0.9789  1.2986
  898MOL0     H18522   9.858   9.323   8.730  1.3416  0.6952  0.6475
  898MOL0     H18523   9.634   9.413   8.672  0.6383 -0.5084  0.5924
  898MOL0     H18524   9.263   9.723   8.771 -1.9078 -4.0255 -1.7735
  898MOL0     H18525   9.091   9.890   8.701  0.8220  0.9019 -0.5725
  898MOL0     H18526   8.938   9.837   8.449  1.4918  1.0261 -0.6686
  898MOL0     H18527   8.905   9.984   8.350 -1.3882  1.4177 -0.7488
  898MOL0     H18528   8.741   9.960   8.559 -0.4279  2.3403  0.7755
  898MOL0     H18529   8.881   9.973   8.661 -1.2576  1.7135  0.7097
  898MOL0     H18530   8.934  10.205   8.557 -1.0044  1.9637  1.2128
  898MOL0     H18531   8.811  10.182   8.671  0.4885  2.3888 -0.6713
  898MOL0     H18532   8.637  10.194   8.501  0.5791 -2.4615 -0.7936
  898MOL0     H18533   8.739  10.339   8.501  0.9064  0.4234  0.7440
  898MOL0     H18534   8.862  10.191   8.125 -0.5532 -0.7208 -0.3629
  898MOL0     H18535   9.273   9.926   8.320  0.8076  0.2434 -0.4418
  898MOL0     H18536   9.434   9.759   8.383 -0.2982  0.3932 -1.5277
  899MOL0     O18537   4.188   7.941   6.914  0.0024  0.5351 -0.3121
  899MOL0     C18538   4.155   7.833   6.865 -0.2156 -0.4554 -0.6194
  899MOL0     O18539   4.111   7.723   6.937  0.1373  0.0401  0.1085
  899MOL0     C18540   4.102   7.715   7.070 -0.6726 -0.4678 -0.2870
  899MOL0     C18541   4.222   7.714   7.139  0.7440 -0.0339 -0.8228
  899MOL0     C18542   4.226   7.717   7.276  0.3347  0.6130 -0.7661
  899MOL0     C18543   4.102   7.714   7.346  0.7460 -0.1308  0.8222
  899MOL0     O18544   4.114   7.710   7.483 -0.1316  0.0460 -0.2900
  899MOL0     C18545   4.019   7.792   7.554 -0.1205 -0.0190 -0.1479
  899MOL0     C18546   4.057   7.833   7.695 -0.3936 -0.5544  0.3993
  899MOL0     C18547   3.930   7.885   7.776  0.1855  0.2217 -0.9585
  899MOL0     C18548   3.969   7.931   7.919 -0.3035 -0.7670  0.1094
  899MOL0     C18549   3.843   7.998   7.989 -0.7459  0.9413 -0.2740
  899MOL0     C18550   3.905   8.058   8.123  0.5241  0.0157 -0.6035
  899MOL0     C18551   3.983   8.187   8.098  0.2016  0.2436 -0.0126
  899MOL0     C18552   4.056   8.229   8.233  0.5659  0.0259  0.4452
  899MOL0     N18553   4.130   8.355   8.209 -0.0381  0.6948  0.0925
  899MOL0     C18554   4.211   8.411   8.310 -0.9856  0.3959  0.3345
  899MOL0     C18555   4.221   8.548   8.289 -0.2211 -0.1423  0.2145
  899MOL0     C18556   4.310   8.643   8.366 -0.3086  0.1714  0.1302
  899MOL0     C18557   4.218   8.741   8.444  0.7774 -0.0267 -0.2594
  899MOL0     C18558   4.289   8.868   8.495  0.8188 -0.9978 -0.1167
  899MOL0     C18559   4.337   8.960   8.382 -0.1751 -0.2386 -1.1224
  899MOL0     O18560   4.384   9.076   8.449 -0.6074 -0.1154  0.2895
  899MOL0     C18561   4.518   9.100   8.464 -0.3251 -0.4288 -0.1123
  899MOL0     C18562   4.569   9.238   8.460  0.1496  0.4890  0.3954
  899MOL0     C18563   4.708   9.265   8.442 -0.2219  0.3152 -0.6004
  899MOL0     C18564   4.798   9.162   8.445 -0.2540 -0.3546  0.5544
  899MOL0     C18565   4.944   9.186   8.416  0.0751  0.2534  0.9314
  899MOL0     O18566   4.967   9.300   8.340  0.3074  0.6701  0.1733
  899MOL0     C18567   5.091   9.336   8.298  0.2583 -0.4778  0.4172
  899MOL0     C18568   5.151   9.446   8.352 -0.2013 -0.2516 -0.3578
  899MOL0     C18569   5.272   9.500   8.319  0.4183 -0.0235  0.1516
  899MOL0     C18570   5.355   9.427   8.234  0.1303 -0.7170  0.8325
  899MOL0     O18571   5.488   9.474   8.228  0.3688  0.2816  1.0971
  899MOL0     C18572   5.578   9.406   8.136 -1.0312  0.1495  0.0434
  899MOL0     C18573   5.726   9.441   8.163  0.2190  0.0921 -0.3561
  899MOL0     C18574   5.825   9.345   8.097 -0.1026 -0.1815  0.0155
  899MOL0     C18575   5.835   9.206   8.166 -0.1941  0.1757 -0.7276
  899MOL0     C18576   5.859   9.085   8.080  0.6651 -0.3045  0.3820
  899MOL0     C18577   6.001   9.072   8.032 -0.7240 -0.0483  0.4126
  899MOL0     C18578   6.029   8.929   7.996 -0.0805  0.0761 -0.6159
  899MOL0     C18579   6.173   8.918   7.971  0.1630  0.3967  0.5663
  899MOL0    Cl18580   6.228   9.051   7.856  0.5158  0.4091  0.0075
  899MOL0     C18581   5.301   9.305   8.174 -0.7908 -0.3610  0.7230
  899MOL0     C18582   5.174   9.264   8.211 -0.5145  0.9584 -0.4377
  899MOL0     O18583   5.029   9.113   8.477  0.6791  0.1383  0.7522
  899MOL0     C18584   4.753   9.026   8.474 -0.9984 -0.4619 -1.3816
  899MOL0     C18585   4.616   9.001   8.481  0.3869 -0.0417  1.0246
  899MOL0     N18586   4.149   8.567   8.170 -0.3538 -0.8267 -0.8368
  899MOL0     N18587   4.093   8.455   8.117 -1.1078 -0.3148  0.6200
  899MOL0     C18588   3.978   7.720   7.275  0.2749  0.0928  0.1050
  899MOL0     C18589   3.988   7.710   7.131 -0.2584  0.4530 -0.6475
  899MOL0     C18590   4.161   7.812   6.720 -0.1693  0.1920  0.1126
  899MOL0     C18591   4.279   7.852   6.653  0.3677 -0.3036 -0.1300
  899MOL0     C18592   4.280   7.822   6.508  0.5519 -0.0258 -0.2659
  899MOL0     C18593   4.172   7.761   6.443  0.1913  0.2673 -0.1245
  899MOL0     O18594   4.178   7.718   6.313  0.1787 -1.0028  0.4652
  899MOL0     C18595   4.077   7.757   6.226  0.7268  0.2548 -0.1755
  899MOL0     C18596   4.104   7.883   6.122 -0.0865 -0.8569 -0.2553
  899MOL0     C18597   4.208   7.841   6.010 -0.2843  0.4642  0.3305
  899MOL0     C18598   4.196   7.940   5.891 -0.0388  0.7565  0.3868
  899MOL0     C18599   4.221   8.076   5.931  0.0720 -0.1913 -0.5251
  899MOL0     C18600   4.209   8.196   5.942  0.8216  0.6327  0.4023
  899MOL0     C18601   4.060   7.725   6.513  0.2140 -0.0528 -0.0765
  899MOL0     C18602   4.053   7.750   6.652 -0.5750 -0.3175  0.3551
  899MOL0     H18603   4.320   7.725   7.092  0.1703 -0.1320 -2.0791
  899MOL0     H18604   4.326   7.725   7.317 -0.2113 -0.2822  0.8192
  899MOL0     H18605   3.937   7.720   7.563  0.5360 -0.5585  2.2956
  899MOL0     H18606   3.992   7.888   7.509  2.9436  0.2511 -1.6390
  899MOL0     H18607   4.119   7.923   7.684  1.0923 -1.6097 -0.2112
  899MOL0     H18608   4.103   7.750   7.749 -0.5546 -1.3114 -0.5956
  899MOL0     H18609   3.860   7.801   7.775  1.3085 -0.7620 -0.4380
  899MOL0     H18610   3.885   7.964   7.715 -1.8430 -1.2685 -1.5040
  899MOL0     H18611   4.009   7.848   7.979  0.6007 -0.0636  0.5129
  899MOL0     H18612   4.046   8.005   7.896 -0.7810 -0.4513 -0.4898
  899MOL0     H18613   3.774   7.916   8.010 -0.7714  1.1697  0.5860
  899MOL0     H18614   3.798   8.070   7.920 -0.0118  0.5763 -1.1539
  899MOL0     H18615   3.967   7.998   8.190 -0.0780  2.3643  2.2277
  899MOL0     H18616   3.816   8.090   8.177  0.4134 -0.4031 -0.5316
  899MOL0     H18617   4.065   8.168   8.028  0.9127  2.2566  0.2094
  899MOL0     H18618   3.911   8.265   8.072  1.3786  2.0257  1.8115
  899MOL0     H18619   4.129   8.153   8.261  0.6425 -0.3887 -0.7882
  899MOL0     H18620   3.979   8.236   8.310  2.6535 -1.1317  2.7842
  899MOL0     H18621   4.261   8.360   8.392  2.0283  0.4583 -1.3190
  899MOL0     H18622   4.372   8.698   8.295  0.0755 -1.8082 -1.1667
  899MOL0     H18623   4.379   8.581   8.425  1.8043  1.6837 -0.6503
  899MOL0     H18624   4.181   8.682   8.529  1.1188 -0.5502 -0.4664
  899MOL0     H18625   4.125   8.764   8.392 -0.7692 -0.8054  2.0101
  899MOL0     H18626   4.209   8.928   8.539  2.8658  1.0510  1.0313
  899MOL0     H18627   4.366   8.841   8.567  1.2678  0.6497  0.0739
  899MOL0     H18628   4.254   8.990   8.318  1.6201  4.8785 -1.5356
  899MOL0     H18629   4.414   8.920   8.314  2.5270  1.3235  0.8022
  899MOL0     H18630   4.494   9.316   8.451  2.4124  3.0048  1.6072
  899MOL0     H18631   4.732   9.370   8.427  2.3689 -0.0239  0.7243
  899MOL0     H18632   5.108   9.494   8.439  3.4708  0.4297  1.2473
  899MOL0     H18633   5.308   9.586   8.375  2.8324 -0.6971 -0.2443
  899MOL0     H18634   5.545   9.440   8.038 -3.4280 -1.3411  0.2435
  899MOL0     H18635   5.560   9.298   8.139  0.7229 -0.2630 -2.0125
  899MOL0     H18636   5.748   9.444   8.270 -1.8039 -3.4096  0.3154
  899MOL0     H18637   5.735   9.545   8.133 -0.6911 -0.2987 -2.1619
  899MOL0     H18638   5.920   9.392   8.071  0.2798 -1.9001 -1.9460
  899MOL0     H18639   5.774   9.318   8.004  3.2254  0.8515 -2.3056
  899MOL0     H18640   5.900   9.203   8.254 -0.1395 -0.0447 -0.7741
  899MOL0     H18641   5.738   9.186   8.210  0.7624 -0.3496  1.2461
  899MOL0     H18642   5.797   9.086   7.990  4.0313  0.8062 -2.1367
  899MOL0     H18643   5.843   8.997   8.142 -1.2924 -2.7094 -3.1501
  899MOL0     H18644   6.065   9.102   8.116 -0.3877  2.5706 -0.6801
  899MOL0     H18645   6.018   9.149   7.956  0.6769  0.1156  0.8515
  899MOL0     H18646   5.997   8.856   8.071 -1.3202 -0.6014 -1.7660
  899MOL0     H18647   5.982   8.906   7.900  1.3073 -4.3282 -0.4846
  899MOL0     H18648   6.211   8.822   7.933 -0.0265  0.5711 -0.0869
  899MOL0     H18649   6.231   8.934   8.062 -1.7893  2.9784  1.4691
  899MOL0     H18650   5.364   9.249   8.105  1.3809  1.8421  0.7773
  899MOL0     H18651   5.126   9.176   8.171  0.3691 -1.0257  2.5660
  899MOL0     H18652   4.835   8.956   8.482  1.0787  1.8009 -1.4798
  899MOL0     H18653   4.578   8.899   8.475  0.9199 -0.3035  1.9405
  899MOL0     H18654   3.890   7.713   7.337  1.3280  1.9149  1.9431
  899MOL0     H18655   3.903   7.703   7.064  2.7535 -2.4707 -4.6150
  899MOL0     H18656   4.348   7.909   6.714  1.5560 -1.3327 -0.4752
  899MOL0     H18657   4.367   7.857   6.453  1.4222 -1.1905  0.3288
  899MOL0     H18658   3.989   7.786   6.285  1.5790  2.3460  0.1309
  899MOL0     H18659   4.055   7.668   6.165  0.7218 -1.7154  2.5171
  899MOL0     H18660   4.007   7.891   6.071 -0.1675 -2.1428 -0.3408
  899MOL0     H18661   4.128   7.981   6.164  0.0275 -1.4731  1.1732
  899MOL0     H18662   4.185   7.737   5.983 -2.7493 -0.3835  4.6855
  899MOL0     H18663   4.311   7.840   6.047 -0.0781 -1.9929 -0.1450
  899MOL0     H18664   4.254   7.899   5.808 -1.4101 -2.0534  0.6974
  899MOL0     H18665   4.089   7.931   5.871 -0.1652 -0.0830  1.3758
  899MOL0     H18666   4.185   8.297   5.969  1.9187  0.8174  0.7510
  899MOL0     H18667   3.972   7.677   6.471  0.2165 -0.0460 -0.0897
  899MOL0     H18668   3.984   7.709   6.725 -2.0581  0.3379 -0.6220
  900MOL0     O18669   4.577   3.008   9.485  0.0318 -0.7620 -0.3349
  900MOL0     C18670   4.545   3.036   9.373 -0.3613  0.6062 -0.3885
  900MOL0     O18671   4.475   2.957   9.289 -1.0337 -0.3191 -0.0282
  900MOL0     C18672   4.425   2.846   9.350 -0.3429 -0.6474 -0.9980
  900MOL0     C18673   4.329   2.854   9.453  0.5440 -0.5792  0.2223
  900MOL0     C18674   4.275   2.731   9.506 -0.5101 -0.1501  0.1509
  900MOL0     C18675   4.305   2.607   9.456  0.2602 -0.3927  0.0764
  900MOL0     O18676   4.245   2.502   9.519  0.2429  0.7596  0.1757
  900MOL0     C18677   4.306   2.365   9.510 -1.5767  0.1434 -0.5370
  900MOL0     C18678   4.267   2.289   9.641 -0.8443 -1.0638 -0.0343
  900MOL0     C18679   4.340   2.165   9.662  0.2839  0.8662 -0.1975
  900MOL0     C18680   4.323   2.052   9.551 -0.3323  0.9743  1.0533
  900MOL0     C18681   4.334   1.910   9.619 -0.0781 -0.2865 -0.2680
  900MOL0     C18682   4.205   1.856   9.692 -1.1177 -0.6711 -0.7832
  900MOL0     C18683   4.218   1.707   9.721  1.3139 -0.8077 -1.2865
  900MOL0     C18684   4.099   1.669   9.816  0.2614  0.2854 -0.2749
  900MOL0     N18685   4.074   1.522   9.806 -0.8244  0.2392 -0.0317
  900MOL0     C18686   4.169   1.418   9.824 -0.4951 -0.2885 -0.1754
  900MOL0     C18687   4.101   1.307   9.820  0.5554  0.0159 -0.0921
  900MOL0     C18688   4.157   1.167   9.841  0.1332  0.5194  0.1541
  900MOL0     C18689   4.183   1.100   9.701 -0.8443  0.6716 -1.4560
  900MOL0     C18690   4.190   0.949   9.712  0.3972  0.4547  0.4251
  900MOL0     C18691   4.154   0.867   9.587  0.4656 -0.1982 -0.2179
  900MOL0     O18692   4.216   0.929   9.474 -0.4150 -0.1141 -0.3721
  900MOL0     C18693   4.354   0.915   9.461  0.4644 -0.6234  0.4078
  900MOL0     C18694   4.442   0.815   9.522 -0.8809 -0.3475  0.2374
  900MOL0     C18695   4.583   0.804   9.503 -0.1563  0.0565 -0.0902
  900MOL0     C18696   4.639   0.901   9.418 -0.0968  0.6187  0.3240
  900MOL0     C18697   4.777   0.888   9.387  1.0864 -0.9123 -0.1058
  900MOL0     O18698   4.865   0.814   9.469 -0.1017  0.1248 -0.2487
  900MOL0     C18699   4.988   0.786   9.411  0.3516 -0.8547 -0.3353
  900MOL0     C18700   5.099   0.853   9.458  0.2217  0.8304  0.1582
  900MOL0     C18701   5.229   0.813   9.419  0.1772  0.4501 -0.7608
  900MOL0     C18702   5.248   0.711   9.336 -0.2941  1.2170 -0.0280
  900MOL0     O18703   5.370   0.666   9.282  0.1469  0.2070  0.2500
  900MOL0     C18704   5.489   0.743   9.285  0.1203 -1.2171  0.2687
  900MOL0     C18705   5.571   0.678   9.398 -0.2588 -0.3706  0.5871
  900MOL0     C18706   5.720   0.706   9.360 -0.6783  0.0432 -0.7924
  900MOL0     C18707   5.770   0.842   9.369 -0.4521 -0.5104 -0.0677
  900MOL0     C18708   5.867   0.867   9.259 -0.6315 -0.8867  0.0204
  900MOL0     C18709   5.990   0.772   9.272  1.0099  0.7832  0.1599
  900MOL0     C18710   6.112   0.812   9.181  0.0920 -0.0473 -0.1344
  900MOL0     C18711   6.254   0.792   9.238  0.4273 -0.2713 -0.2110
  900MOL0    Cl18712   6.255   0.627   9.305 -0.4507 -0.5908 -0.3485
  900MOL0     C18713   5.129   0.644   9.282 -0.4077 -0.4191  0.4873
  900MOL0     C18714   5.005   0.677   9.327  0.7835 -0.5166 -0.7958
  900MOL0     O18715   4.813   0.940   9.282 -0.0869  0.0375 -0.4737
  900MOL0     C18716   4.557   1.003   9.358 -0.4445 -1.0047 -0.6599
  900MOL0     C18717   4.417   1.003   9.379 -0.2220  0.7060  0.5716
  900MOL0     N18718   3.966   1.342   9.788 -0.3208  0.1794 -0.1786
  900MOL0     N18719   3.952   1.471   9.786  0.0378  0.8104 -0.6254
  900MOL0     C18720   4.390   2.600   9.348 -0.5365 -1.0087  0.2186
  900MOL0     C18721   4.450   2.720   9.295  0.0685 -0.4889  0.1659
  900MOL0     C18722   4.599   3.160   9.328 -0.0570  0.4926  0.0191
  900MOL0     C18723   4.565   3.218   9.201  0.3702 -0.3097 -0.1420
  900MOL0     C18724   4.625   3.336   9.161  0.5106  0.4031 -0.3096
  900MOL0     C18725   4.724   3.399   9.233 -0.2129  0.6325 -0.9010
  900MOL0     O18726   4.782   3.511   9.187 -0.6884  0.4392  0.4571
  900MOL0     C18727   4.898   3.558   9.250 -0.2420  0.2509 -0.1713
  900MOL0     C18728   4.915   3.703   9.203 -0.0106 -0.8552  0.3411
  900MOL0     C18729   5.014   3.705   9.081  0.2909 -1.4556 -0.0726
  900MOL0     C18730   5.007   3.850   9.021 -0.0865 -0.3129  0.1774
  900MOL0     C18731   5.083   3.950   9.109 -0.2767  0.4200 -0.3347
  900MOL0     C18732   5.142   4.044   9.161 -0.9362 -0.2177 -0.2955
  900MOL0     C18733   4.761   3.336   9.347 -0.4028  0.1251 -0.0814
  900MOL0     C18734   4.697   3.223   9.395 -0.2649  0.1348  0.2474
  900MOL0     H18735   4.302   2.950   9.496 -0.1696 -0.0686 -1.3065
  900MOL0     H18736   4.205   2.728   9.588 -0.1745 -1.1972  0.4135
  900MOL0     H18737   4.413   2.374   9.490 -1.3113  3.9592  1.7007
  900MOL0     H18738   4.271   2.308   9.423  0.6105 -0.4609 -1.0877
  900MOL0     H18739   4.160   2.268   9.636 -1.1813  0.4954 -0.0513
  900MOL0     H18740   4.287   2.357   9.724 -1.0599 -1.7099  0.5534
  900MOL0     H18741   4.326   2.127   9.764 -1.9232 -1.8817 -1.3998
  900MOL0     H18742   4.448   2.185   9.663  0.5157  0.0412 -2.5329
  900MOL0     H18743   4.230   2.055   9.493  1.2955  0.0887 -1.8307
  900MOL0     H18744   4.401   2.060   9.474 -1.0677 -1.0219  0.0092
  900MOL0     H18745   4.414   1.901   9.694  1.7834  0.5988 -2.0659
  900MOL0     H18746   4.372   1.843   9.541 -1.7593 -0.5444 -0.8917
  900MOL0     H18747   4.116   1.873   9.630 -2.1446  1.3013  1.1065
  900MOL0     H18748   4.194   1.918   9.781  1.1464 -2.4961  0.8714
  900MOL0     H18749   4.206   1.657   9.625 -0.8853 -0.2866 -1.3489
  900MOL0     H18750   4.315   1.682   9.765  2.1403  2.5684 -0.9366
  900MOL0     H18751   4.008   1.720   9.785 -0.6098 -1.3233 -0.4569
  900MOL0     H18752   4.115   1.707   9.918 -1.3223  0.7992 -0.1965
  900MOL0     H18753   4.268   1.435   9.865 -1.4773  2.9766  1.1856
  900MOL0     H18754   4.079   1.114   9.897  1.2228 -1.2135  0.0813
  900MOL0     H18755   4.248   1.155   9.900  0.1982  0.6060  0.0723
  900MOL0     H18756   4.279   1.138   9.665  2.7812 -5.7602 -0.2231
  900MOL0     H18757   4.097   1.131   9.640  0.1046  1.4412 -2.4564
  900MOL0     H18758   4.291   0.921   9.743 -0.0697  0.8555  2.4503
  900MOL0     H18759   4.130   0.916   9.797 -1.0330  0.3040 -0.6174
  900MOL0     H18760   4.045   0.874   9.576  0.2918 -1.5577  0.5585
  900MOL0     H18761   4.168   0.759   9.587 -3.0509 -0.7649 -0.6685
  900MOL0     H18762   4.397   0.733   9.576  1.3123 -2.3524 -0.8236
  900MOL0     H18763   4.641   0.719   9.537  2.1522  1.6063  0.0594
  900MOL0     H18764   5.105   0.914   9.548 -0.8844 -0.0128  0.8198
  900MOL0     H18765   5.310   0.872   9.460 -2.2881  2.3823  1.6671
  900MOL0     H18766   5.466   0.847   9.311  0.2818 -0.7333 -1.4271
  900MOL0     H18767   5.537   0.748   9.187  0.7141  0.1030  0.6139
  900MOL0     H18768   5.553   0.570   9.393 -1.4147 -0.1299 -2.3453
  900MOL0     H18769   5.544   0.723   9.494  0.7577  5.3174 -1.4249
  900MOL0     H18770   5.722   0.683   9.253  1.9430 -0.6309 -0.6741
  900MOL0     H18771   5.783   0.642   9.422 -2.9959 -1.5532  0.0712
  900MOL0     H18772   5.689   0.914   9.353  0.1760 -0.1944 -2.0962
  900MOL0     H18773   5.805   0.863   9.471  1.6814  1.3512 -1.0903
  900MOL0     H18774   5.906   0.969   9.259 -0.9289 -0.7725 -0.0371
  900MOL0     H18775   5.810   0.863   9.166  2.2269 -0.7305 -1.8730
  900MOL0     H18776   5.960   0.671   9.243 -0.2212  0.9282  0.8287
  900MOL0     H18777   6.013   0.752   9.377  1.8406  2.8265  0.4117
  900MOL0     H18778   6.099   0.759   9.087  2.5605 -0.1565 -0.4818
  900MOL0     H18779   6.111   0.915   9.144 -2.3997 -1.3865 -4.3691
  900MOL0     H18780   6.280   0.865   9.315 -0.1883  0.1508 -0.3892
  900MOL0     H18781   6.327   0.814   9.159  0.9434 -2.4651 -0.4123
  900MOL0     H18782   5.155   0.583   9.196 -1.6954 -0.5404  0.1694
  900MOL0     H18783   4.917   0.624   9.292  0.1738  0.5971 -0.9888
  900MOL0     H18784   4.606   1.081   9.301  2.3955 -1.7502  0.5748
  900MOL0     H18785   4.348   1.077   9.339 -0.6718 -0.2859 -0.5378
  900MOL0     H18786   4.400   2.508   9.291 -1.3650 -0.3807 -0.9887
  900MOL0     H18787   4.521   2.715   9.213 -2.3028 -0.4224 -1.9960
  900MOL0     H18788   4.497   3.166   9.134 -1.0614  1.3530 -0.0248
  900MOL0     H18789   4.596   3.389   9.071 -3.5011 -1.5475 -0.3840
  900MOL0     H18790   4.977   3.491   9.215 -1.7468  0.6928 -5.2403
  900MOL0     H18791   4.884   3.566   9.358  1.1792  0.7691  0.0026
  900MOL0     H18792   4.816   3.747   9.190  0.4332  0.3135  0.8426
  900MOL0     H18793   4.960   3.754   9.288  0.4305 -2.4820  1.1291
  900MOL0     H18794   4.963   3.636   9.013 -4.9733  1.7282  0.0612
  900MOL0     H18795   5.119   3.677   9.095  1.8500  3.6677  0.7160
  900MOL0     H18796   5.045   3.852   8.919 -2.6365 -1.5833 -0.8981
  900MOL0     H18797   4.903   3.884   9.014  0.5580  1.6209 -0.4518
  900MOL0     H18798   5.193   4.127   9.205  0.7671 -0.3458 -1.9074
  900MOL0     H18799   4.847   3.366   9.405 -0.3537  0.3842 -0.2889
  900MOL0     H18800   4.735   3.181   9.487  0.2865 -2.9057 -1.2371
  901MOL0     O18801  11.322   5.901   5.963  0.3963  1.3925  0.6327
  901MOL0     C18802  11.382   5.796   5.958 -0.5731 -0.0407 -0.1598
  901MOL0     O18803  11.333   5.676   5.898  0.5783  0.0498  0.0264
  901MOL0     C18804  11.195   5.675   5.896  0.6515 -0.2847 -0.4643
  901MOL0     C18805  11.135   5.639   5.781 -0.4478 -0.1477 -0.3484
  901MOL0     C18806  10.995   5.624   5.782  0.6738  0.6765  0.3854
  901MOL0     C18807  10.917   5.653   5.891 -0.7029  0.6450 -0.5675
  901MOL0     O18808  10.782   5.650   5.853  0.1906  0.5592  0.2340
  901MOL0     C18809  10.689   5.684   5.959  0.0661  0.2865 -0.5474
  901MOL0     C18810  10.551   5.638   5.916 -0.6819 -0.5190 -0.0932
  901MOL0     C18811  10.453   5.640   6.031  0.2071 -0.0328  0.1723
  901MOL0     C18812  10.474   5.766   6.114 -0.0715 -0.8085 -0.3676
  901MOL0     C18813  10.354   5.797   6.206  0.3173 -0.3390  0.0741
  901MOL0     C18814  10.371   5.925   6.283 -0.5466  0.3890 -0.1711
  901MOL0     C18815  10.311   5.918   6.427  0.3777 -0.5269 -0.3017
  901MOL0     C18816  10.154   5.894   6.422 -0.1235 -0.0283  0.1949
  901MOL0     N18817  10.085   6.001   6.355  0.8118 -0.4564 -0.0358
  901MOL0     C18818  10.099   6.136   6.358  0.5492  0.4582 -0.2256
  901MOL0     C18819  10.014   6.183   6.267 -0.2616 -0.5967  0.3440
  901MOL0     C18820   9.982   6.331   6.258 -0.6252 -0.6342  0.2374
  901MOL0     C18821  10.090   6.408   6.174  0.2586  0.2028 -0.0137
  901MOL0     C18822  10.206   6.452   6.273 -1.5238 -0.0874  0.1995
  901MOL0     C18823  10.304   6.543   6.202  0.1798 -0.3313 -0.4695
  901MOL0     O18824  10.359   6.491   6.086  0.0394  0.7728 -0.9128
  901MOL0     C18825  10.470   6.421   6.107 -0.0544 -0.2116  0.3347
  901MOL0     C18826  10.477   6.284   6.093  0.5475  0.3804 -0.6869
  901MOL0     C18827  10.593   6.200   6.115  0.0444 -0.1198  0.5830
  901MOL0     C18828  10.715   6.260   6.152  0.6550 -0.0855  0.7007
  901MOL0     C18829  10.832   6.182   6.189 -0.1391 -0.5412  0.1640
  901MOL0     O18830  10.938   6.256   6.245 -0.1409  0.2930 -0.0763
  901MOL0     C18831  11.055   6.194   6.267  0.1938 -0.4055  0.2583
  901MOL0     C18832  11.155   6.182   6.168 -0.2665  0.7110 -0.3163
  901MOL0     C18833  11.286   6.139   6.198 -0.2518  0.0013  0.6403
  901MOL0     C18834  11.323   6.103   6.328 -0.4304  0.2491 -0.8274
  901MOL0     O18835  11.454   6.072   6.366 -0.8864  0.2391 -0.0527
  901MOL0     C18836  11.513   6.169   6.446 -0.5020 -0.4862 -0.0458
  901MOL0     C18837  11.630   6.105   6.523 -0.2909 -0.5767  0.0520
  901MOL0     C18838  11.596   5.988   6.612  0.0416  0.7737 -0.7730
  901MOL0     C18839  11.721   5.923   6.669 -0.3090 -0.4055 -0.0948
  901MOL0     C18840  11.787   5.998   6.790  1.2648  0.3117 -0.1974
  901MOL0     C18841  11.909   5.934   6.860  0.8055 -1.1768  0.4030
  901MOL0     C18842  12.034   5.926   6.766 -0.5781 -0.2980  0.5418
  901MOL0     C18843  12.084   6.057   6.696 -0.6148  0.6104  0.0621
  901MOL0    Cl18844  11.997   6.084   6.549  0.0842 -0.1935  0.4397
  901MOL0     C18845  11.219   6.113   6.427  0.1246  1.1020  0.2723
  901MOL0     C18846  11.093   6.157   6.398 -0.4911  0.3383  0.2357
  901MOL0     O18847  10.827   6.056   6.174 -0.0192  0.1068 -0.2617
  901MOL0     C18848  10.711   6.400   6.168 -0.0597  0.0465 -0.4439
  901MOL0     C18849  10.592   6.476   6.155  0.3005 -0.3119 -0.3393
  901MOL0     N18850   9.943   6.075   6.220  0.7983  0.7259 -0.0141
  901MOL0     N18851   9.989   5.966   6.271  0.5383 -0.2311 -0.2955
  901MOL0     C18852  10.980   5.693   6.012 -0.4224  0.3621  1.0549
  901MOL0     C18853  11.119   5.706   6.014  1.2860 -0.1887 -0.3875
  901MOL0     C18854  11.518   5.794   6.025 -0.7553  0.7339  0.1043
  901MOL0     C18855  11.603   5.692   5.994 -0.5443  0.2372  0.0222
  901MOL0     C18856  11.733   5.683   6.051  1.0196  0.2280  0.4775
  901MOL0     C18857  11.782   5.786   6.128 -0.2569 -0.7448  0.3866
  901MOL0     O18858  11.912   5.786   6.162  0.6072 -0.1623 -0.6171
  901MOL0     C18859  12.003   5.874   6.109 -0.2703 -0.3860  0.1533
  901MOL0     C18860  12.130   5.848   6.186  0.3782 -0.2175 -0.4542
  901MOL0     C18861  12.258   5.875   6.099 -0.1359  0.0326 -0.5836
  901MOL0     C18862  12.371   5.934   6.204  1.4982 -0.5713  0.1387
  901MOL0     C18863  12.336   6.080   6.225 -1.0325 -0.1205 -0.8238
  901MOL0     C18864  12.312   6.194   6.233  0.6906 -0.8337 -0.5641
  901MOL0     C18865  11.695   5.894   6.157 -0.1288 -0.3200 -0.1664
  901MOL0     C18866  11.566   5.901   6.101 -0.4073 -0.7587  0.7441
  901MOL0     H18867  11.182   5.606   5.689 -1.5171  0.1957 -1.0441
  901MOL0     H18868  10.954   5.592   5.686 -1.0762  3.6302  0.0166
  901MOL0     H18869  10.692   5.788   5.995  0.1224  0.4419 -0.9938
  901MOL0     H18870  10.716   5.627   6.048  1.6428  0.0471 -1.1358
  901MOL0     H18871  10.554   5.537   5.874 -0.0951 -0.2816 -0.6359
  901MOL0     H18872  10.526   5.711   5.838 -3.6112 -0.6846  0.5600
  901MOL0     H18873  10.477   5.554   6.095  1.9298 -1.2566 -1.9897
  901MOL0     H18874  10.353   5.638   5.987 -0.0349 -0.3613  0.7113
  901MOL0     H18875  10.562   5.757   6.178 -0.5452  1.8440  0.8212
  901MOL0     H18876  10.489   5.859   6.058  2.4798 -2.0589 -1.9612
  901MOL0     H18877  10.343   5.710   6.271  1.7240  0.2440  1.1615
  901MOL0     H18878  10.267   5.814   6.142  2.4819  0.4553 -2.9226
  901MOL0     H18879  10.334   6.014   6.232 -3.2911  0.0458  1.0526
  901MOL0     H18880  10.477   5.940   6.307 -0.6802 -1.1101  1.6167
  901MOL0     H18881  10.362   5.841   6.486  2.0976 -0.2347 -1.3677
  901MOL0     H18882  10.331   6.015   6.474  1.0644  0.0841 -1.8131
  901MOL0     H18883  10.113   5.892   6.523 -1.9243  2.3660 -0.3970
  901MOL0     H18884  10.125   5.799   6.376 -1.3429  0.3801  0.0789
  901MOL0     H18885  10.167   6.187   6.426  0.3152  2.5067 -1.4416
  901MOL0     H18886   9.991   6.364   6.362 -0.3797 -0.9310  0.3098
  901MOL0     H18887   9.877   6.350   6.232  0.1228  0.6004 -2.1381
  901MOL0     H18888  10.043   6.495   6.130 -0.9055 -1.6931 -2.8009
  901MOL0     H18889  10.129   6.353   6.087  2.0240  3.7946 -1.7017
  901MOL0     H18890  10.177   6.505   6.364  3.2706  0.6387  1.5775
  901MOL0     H18891  10.250   6.360   6.314 -0.9816  0.0545 -0.0557
  901MOL0     H18892  10.375   6.580   6.277  2.4247  0.9496 -3.0389
  901MOL0     H18893  10.253   6.636   6.176  1.5571  1.3789  2.4049
  901MOL0     H18894  10.383   6.232   6.077  0.0399  2.0857 -4.4195
  901MOL0     H18895  10.581   6.095   6.091 -1.1416  0.2072 -0.3595
  901MOL0     H18896  11.147   6.211   6.063 -0.2588 -3.3468 -1.6087
  901MOL0     H18897  11.358   6.137   6.117 -2.4879  0.5530 -1.4989
  901MOL0     H18898  11.454   6.226   6.519  1.4212  0.4661  0.8356
  901MOL0     H18899  11.543   6.246   6.375 -0.2841 -1.1061 -0.6372
  901MOL0     H18900  11.667   6.184   6.589  0.7974  0.4550 -1.6971
  901MOL0     H18901  11.706   6.078   6.448 -0.5758 -0.4849 -0.2697
  901MOL0     H18902  11.541   5.911   6.558  0.7482 -2.4520  2.6511
  901MOL0     H18903  11.535   6.015   6.698 -1.7223 -2.5408 -0.8165
  901MOL0     H18904  11.677   5.831   6.707 -1.3328  0.4528  0.8745
  901MOL0     H18905  11.792   5.904   6.587 -1.9666 -1.4020 -1.3716
  901MOL0     H18906  11.714   5.977   6.869 -0.7681  0.0718 -2.0583
  901MOL0     H18907  11.795   6.106   6.778 -2.8105  0.7138 -0.6511
  901MOL0     H18908  11.882   5.831   6.888 -2.7553 -0.2635  0.9391
  901MOL0     H18909  11.918   5.984   6.957 -3.0876 -0.4670  0.5710
  901MOL0     H18910  12.120   5.898   6.828  0.3553  1.8075  0.3041
  901MOL0     H18911  12.030   5.854   6.684  0.9725  0.9780 -0.7569
  901MOL0     H18912  12.190   6.050   6.669 -0.8184  0.7677 -0.8177
  901MOL0     H18913  12.070   6.148   6.754  0.1574  3.5738 -3.9140
  901MOL0     H18914  11.250   6.073   6.522  0.4786 -2.4658 -1.1945
  901MOL0     H18915  11.022   6.161   6.480  1.0171  2.1376  1.5370
  901MOL0     H18916  10.788   6.465   6.209 -0.7743 -2.0485  5.0583
  901MOL0     H18917  10.601   6.584   6.166  1.4875 -0.4230 -0.0227
  901MOL0     H18918  10.921   5.719   6.100  1.2060  2.6304  1.5633
  901MOL0     H18919  11.174   5.737   6.103  1.7575 -1.6935 -0.1333
  901MOL0     H18920  11.570   5.619   5.920 -1.2749  0.2619  0.3196
  901MOL0     H18921  11.807   5.609   6.023  0.2464 -0.4253  0.1001
  901MOL0     H18922  11.968   5.977   6.118  0.8765  0.3859 -2.9255
  901MOL0     H18923  12.005   5.857   6.001 -3.5520  2.5076 -0.5581
  901MOL0     H18924  12.139   5.901   6.282  1.5399  1.3755 -1.3872
  901MOL0     H18925  12.120   5.741   6.206 -0.2913  0.1776  1.6069
  901MOL0     H18926  12.229   5.951   6.026 -5.9522  1.2352  2.3685
  901MOL0     H18927  12.294   5.784   6.050  1.9381  1.2629 -1.5264
  901MOL0     H18928  12.364   5.878   6.297 -2.5938  0.9203  0.9395
  901MOL0     H18929  12.469   5.926   6.157  0.9025  0.4001 -1.3777
  901MOL0     H18930  12.282   6.297   6.232 -1.7530 -1.4598  0.3472
  901MOL0     H18931  11.724   5.982   6.213 -2.8011  0.9566 -0.6388
  901MOL0     H18932  11.504   5.988   6.119  2.9227  1.3371  3.4138
  902MOL0     O18933   4.867   7.089   9.542  0.2792 -0.3497  0.1103
  902MOL0     C18934   4.910   6.977   9.509  0.0553  0.3725  0.7293
  902MOL0     O18935   5.032   6.934   9.532 -0.0880  1.2538  0.2404
  902MOL0     C18936   5.121   7.013   9.589 -0.0495 -1.9360  0.5796
  902MOL0     C18937   5.130   7.030   9.728 -1.1311 -0.2562 -0.0140
  902MOL0     C18938   5.229   7.107   9.775 -0.5733 -0.0423  0.2428
  902MOL0     C18939   5.322   7.176   9.694  0.2258  0.7489  0.0094
  902MOL0     O18940   5.414   7.251   9.754 -0.0365  0.2969 -0.1203
  902MOL0     C18941   5.534   7.259   9.679 -0.3761 -0.4873 -0.6696
  902MOL0     C18942   5.649   7.298   9.766  0.2563  0.3587 -0.1593
  902MOL0     C18943   5.692   7.179   9.846 -0.0170 -0.1570  0.0824
  902MOL0     C18944   5.821   7.197   9.925 -0.9549  0.5836  0.2649
  902MOL0     C18945   5.819   7.307  10.033 -0.0502  0.2381 -0.2605
  902MOL0     C18946   5.695   7.288  10.129  0.5618 -0.3169  0.5081
  902MOL0     C18947   5.703   7.382  10.250  0.1777 -0.6197 -0.4654
  902MOL0     C18948   5.804   7.325  10.366  0.3914 -0.8585 -0.4220
  902MOL0     N18949   5.773   7.379  10.509  0.8004 -1.0555  0.8452
  902MOL0     C18950   5.846   7.472  10.586  0.3452 -0.0086  0.4367
  902MOL0     C18951   5.809   7.456  10.713 -0.4713  0.9774  0.1018
  902MOL0     C18952   5.859   7.530  10.828 -0.0047  0.2709  0.3012
  902MOL0     C18953   5.810   7.678  10.823 -0.6822  0.4365 -0.4455
  902MOL0     C18954   5.861   7.773  10.932  0.1174  0.3179  0.0984
  902MOL0     C18955   5.776   7.896  10.947 -0.9169 -0.7932 -0.1074
  902MOL0     O18956   5.778   7.971  10.828 -0.3287 -0.1525  0.0878
  902MOL0     C18957   5.716   8.096  10.827 -0.5610 -0.0897  0.2034
  902MOL0     C18958   5.636   8.156  10.926 -0.2087 -0.2955 -0.3093
  902MOL0     C18959   5.591   8.291  10.922 -0.9394 -0.3921 -0.1364
  902MOL0     C18960   5.614   8.367  10.803  0.4497 -0.2732 -0.5317
  902MOL0     C18961   5.566   8.502  10.785  0.3530  0.4678  0.2530
  902MOL0     O18962   5.501   8.562  10.891  0.1773  0.1195  0.2027
  902MOL0     C18963   5.424   8.677  10.868  0.2462  0.4175 -0.8405
  902MOL0     C18964   5.490   8.799  10.842 -0.2472  0.6648 -0.1929
  902MOL0     C18965   5.421   8.911  10.809  1.0262  0.2915 -0.4607
  902MOL0     C18966   5.275   8.903  10.803 -0.1775  0.9531 -0.7824
  902MOL0     O18967   5.212   9.017  10.764  0.0973 -0.5690  0.0352
  902MOL0     C18968   5.106   9.019  10.670 -0.0761  0.6998  0.3664
  902MOL0     C18969   5.056   9.162  10.652 -0.1103  0.7931 -0.5150
  902MOL0     C18970   4.922   9.163  10.572  0.4376  0.1942  0.5898
  902MOL0     C18971   4.835   9.282  10.613  0.6889 -0.2564 -0.8630
  902MOL0     C18972   4.722   9.315  10.511 -0.4519  0.0683  0.0940
  902MOL0     C18973   4.603   9.359  10.592  0.7702 -0.8270  1.1308
  902MOL0     C18974   4.501   9.421  10.488  0.3498 -0.0623  0.4179
  902MOL0     C18975   4.369   9.339  10.496 -0.3916  0.4564  0.9448
  902MOL0    Cl18976   4.244   9.425  10.389 -0.1799  0.5027 -0.3966
  902MOL0     C18977   5.211   8.787  10.829  0.2773  0.7201  1.1944
  902MOL0     C18978   5.285   8.672  10.856 -0.1878  0.5465  0.0288
  902MOL0     O18979   5.578   8.555  10.671 -0.0756 -0.7321  0.1636
  902MOL0     C18980   5.683   8.300  10.696  0.0415  0.3988 -0.5064
  902MOL0     C18981   5.744   8.176  10.711  0.2085  0.4433 -0.1699
  902MOL0     N18982   5.723   7.350  10.722 -0.0629 -0.1047 -0.1449
  902MOL0     N18983   5.703   7.309  10.604  0.5313 -0.0016  0.0229
  902MOL0     C18984   5.303   7.162   9.554  0.2181 -0.1111  0.1910
  902MOL0     C18985   5.217   7.071   9.503 -0.1376  0.4625  1.2093
  902MOL0     C18986   4.807   6.898   9.422  0.2873  0.3428 -0.1783
  902MOL0     C18987   4.680   6.966   9.389  0.5121  0.5753 -0.2533
  902MOL0     C18988   4.580   6.897   9.309 -0.1423  0.7156  0.1531
  902MOL0     C18989   4.607   6.761   9.264  0.1179 -0.1615  0.2129
  902MOL0     O18990   4.498   6.689   9.221 -0.1387  0.5772  0.4190
  902MOL0     C18991   4.494   6.548   9.237  0.9628  0.4651 -0.6063
  902MOL0     C18992   4.352   6.499   9.255 -0.0824  0.0770 -0.1901
  902MOL0     C18993   4.253   6.553   9.143  0.2084 -0.3394  0.3764
  902MOL0     C18994   4.116   6.484   9.151 -0.2960  0.0825  0.3614
  902MOL0     C18995   4.068   6.484   9.295  0.0043 -1.0804  0.5733
  902MOL0     C18996   4.041   6.487   9.412  0.8917 -0.3013 -0.2963
  902MOL0     C18997   4.740   6.707   9.274  0.8788 -0.5975 -0.2512
  902MOL0     C18998   4.839   6.774   9.347 -0.7152 -0.0033  1.1418
  902MOL0     H18999   5.069   6.969   9.794  1.6327 -2.6826  0.5309
  902MOL0     H19000   5.245   7.124   9.881 -2.7427 -0.2649  0.6498
  902MOL0     H19001   5.510   7.341   9.611 -2.3535 -0.2591  0.2370
  902MOL0     H19002   5.551   7.172   9.615 -0.5668 -1.1993  0.2213
  902MOL0     H19003   5.632   7.383   9.832 -1.3704 -0.0118 -0.0480
  902MOL0     H19004   5.731   7.325   9.699  0.5714  2.2414  0.9237
  902MOL0     H19005   5.699   7.090   9.784  0.1349 -0.4518  0.5155
  902MOL0     H19006   5.609   7.153   9.912  0.5931 -3.1979 -0.2333
  902MOL0     H19007   5.837   7.107   9.986 -1.0368  1.9185  2.3819
  902MOL0     H19008   5.905   7.210   9.856  0.0560 -3.2255  0.5843
  902MOL0     H19009   5.812   7.396   9.970 -0.7170 -0.8735 -1.8224
  902MOL0     H19010   5.915   7.317  10.084 -0.3258  4.9027 -0.2036
  902MOL0     H19011   5.677   7.186  10.164  0.3285  0.1457  1.7918
  902MOL0     H19012   5.604   7.322  10.079  1.5426  0.0721 -1.0813
  902MOL0     H19013   5.743   7.479  10.220 -0.3868 -0.9161 -2.2731
  902MOL0     H19014   5.606   7.392  10.300  0.5528 -0.1265  0.1829
  902MOL0     H19015   5.907   7.355  10.343  0.4961  0.0011  1.0476
  902MOL0     H19016   5.785   7.219  10.380 -1.4808 -0.7836 -2.0136
  902MOL0     H19017   5.909   7.556  10.557 -0.1795  0.6753  1.2356
  902MOL0     H19018   5.968   7.532  10.820 -0.1619  3.0413 -3.7303
  902MOL0     H19019   5.821   7.475  10.915  3.1649 -0.2601  1.4977
  902MOL0     H19020   5.701   7.683  10.825 -0.6932  0.1542 -0.3013
  902MOL0     H19021   5.829   7.719  10.724 -0.5489 -0.4453 -0.7976
  902MOL0     H19022   5.856   7.718  11.027 -1.8793  2.7647  1.5384
  902MOL0     H19023   5.969   7.778  10.917  0.7270  2.1642  3.7918
  902MOL0     H19024   5.818   7.944  11.036  0.1360 -4.6540  1.6869
  902MOL0     H19025   5.674   7.877  10.985 -1.9995  0.6335 -2.1125
  902MOL0     H19026   5.611   8.094  11.012  1.1090 -0.5471 -0.0885
  902MOL0     H19027   5.544   8.341  11.006  0.3313 -0.6194  0.7366
  902MOL0     H19028   5.598   8.808  10.834  0.3199 -3.0867  1.1010
  902MOL0     H19029   5.466   9.002  10.769 -0.1494  1.3022  0.4520
  902MOL0     H19030   5.025   8.946  10.683  1.2940 -0.7915  0.7847
  902MOL0     H19031   5.147   8.989  10.574  0.3947  2.1149  0.0982
  902MOL0     H19032   5.134   9.212  10.595  0.6792 -2.1250 -2.2178
  902MOL0     H19033   5.048   9.212  10.749 -0.8601 -1.0858  0.4483
  902MOL0     H19034   4.862   9.072  10.585  0.3004  0.1211 -0.4835
  902MOL0     H19035   4.950   9.176  10.467  0.2210  0.0792  0.5172
  902MOL0     H19036   4.789   9.251  10.707  2.3017  1.3953  0.5365
  902MOL0     H19037   4.894   9.372  10.634  0.7774 -0.7792  1.3080
  902MOL0     H19038   4.698   9.240  10.434  1.4893 -0.1018 -0.3780
  902MOL0     H19039   4.756   9.401  10.452 -0.8701 -1.8874 -3.3206
  902MOL0     H19040   4.628   9.433  10.670 -1.3949 -1.9028  2.9722
  902MOL0     H19041   4.561   9.272  10.644  3.2307 -2.2694  0.8458
  902MOL0     H19042   4.493   9.528  10.511 -4.2158  0.3608 -1.8755
  902MOL0     H19043   4.541   9.415  10.387  1.5702  1.1356  0.7969
  902MOL0     H19044   4.345   9.341  10.603 -1.1320  2.2606  0.7706
  902MOL0     H19045   4.378   9.236  10.461 -3.2779  0.6306 -0.5454
  902MOL0     H19046   5.105   8.768  10.814  0.9796 -2.6465 -0.4754
  902MOL0     H19047   5.235   8.577  10.870 -2.2138  1.7695  1.7489
  902MOL0     H19048   5.697   8.337  10.595 -0.9146  1.1555 -0.3807
  902MOL0     H19049   5.808   8.139  10.631  2.0327 -0.1274  1.4689
  902MOL0     H19050   5.363   7.207   9.475 -0.5632  2.0935  0.7669
  902MOL0     H19051   5.210   7.047   9.398  1.1064 -1.8915  1.5918
  902MOL0     H19052   4.656   7.070   9.409 -1.4129  0.2443 -0.6429
  902MOL0     H19053   4.482   6.936   9.283 -0.1141 -0.2842 -1.6075
  902MOL0     H19054   4.539   6.510   9.328  1.2416 -0.0941 -0.9701
  902MOL0     H19055   4.541   6.490   9.156 -1.7111 -3.6594  0.4627
  902MOL0     H19056   4.344   6.390   9.259  1.4461 -0.0432  2.6000
  902MOL0     H19057   4.316   6.535   9.352  0.0599  0.9513 -0.4467
  902MOL0     H19058   4.285   6.534   9.040 -2.4483 -1.5469 -0.3048
  902MOL0     H19059   4.241   6.661   9.160  0.9888 -0.3357  0.9796
  902MOL0     H19060   4.046   6.525   9.078 -0.7764 -3.1504 -1.1879
  902MOL0     H19061   4.130   6.379   9.125  2.8286  0.3879  0.4909
  902MOL0     H19062   4.008   6.485   9.514 -0.9935  2.3962 -0.7505
  902MOL0     H19063   4.756   6.611   9.226  1.7564 -0.6022  0.0315
  902MOL0     H19064   4.927   6.718   9.376  0.6202  0.5461 -1.5545
  903MOL0     O19065  10.995   0.397  10.803  0.2438 -1.0220 -0.2206
  903MOL0     C19066  11.102   0.330  10.802  0.3021  0.2639 -0.4526
  903MOL0     O19067  11.113   0.214  10.868 -0.8730  0.2082 -0.7084
  903MOL0     C19068  11.065   0.193  10.995  0.1104 -0.6767  0.3560
  903MOL0     C19069  11.083   0.070  11.041  0.3586  0.6809 -0.4828
  903MOL0     C19070  11.049   0.027  11.169  0.1104  0.3535 -0.3055
  903MOL0     C19071  10.983   0.111  11.255 -0.1194 -0.0682  0.0215
  903MOL0     O19072  10.940   0.054  11.376 -0.7050 -0.3909  0.1438
  903MOL0     C19073  10.803   0.040  11.383  0.5680  0.5972 -0.9839
  903MOL0     C19074  10.746   0.031  11.532 -0.9991 -0.2892  0.5203
  903MOL0     C19075  10.624   0.115  11.560 -0.1522  0.4962 -0.6051
  903MOL0     C19076  10.486   0.069  11.498 -0.7204 -0.4888  0.3951
  903MOL0     C19077  10.373   0.142  11.570 -0.2177 -0.5478 -0.1571
  903MOL0     C19078  10.239   0.122  11.505  0.7435 -0.5486  0.0059
  903MOL0     C19079  10.122   0.217  11.562 -0.5649  0.6031 -0.5152
  903MOL0     C19080  10.085   0.192  11.714  1.3872 -0.7604 -0.0233
  903MOL0     N19081   9.971   0.283  11.740  0.1705 -0.0259  0.1109
  903MOL0     C19082   9.978   0.419  11.737  0.0236  1.0358  0.7812
  903MOL0     C19083   9.845   0.457  11.735 -1.0655  0.4931 -0.1825
  903MOL0     C19084   9.811   0.599  11.715  0.4218  0.4529  0.5113
  903MOL0     C19085   9.707   0.655  11.813  0.2457  0.0469 -0.0784
  903MOL0     C19086   9.570   0.589  11.787 -0.2963  0.4938  0.1959
  903MOL0     C19087   9.448   0.658  11.858  0.8982 -0.7255  0.3998
  903MOL0     O19088   9.470   0.658  12.001  0.3561 -1.1129 -0.1443
  903MOL0     C19089   9.381   0.736  12.071  0.8278 -0.2868  0.0997
  903MOL0     C19090   9.247   0.693  12.106 -0.4195  0.8510  0.9469
  903MOL0     C19091   9.160   0.779  12.176  0.3297 -0.1669 -0.8848
  903MOL0     C19092   9.189   0.913  12.203  0.7334  0.0827  1.6518
  903MOL0     C19093   9.084   0.999  12.266 -0.4609 -1.0337  0.5213
  903MOL0     O19094   9.138   1.099  12.351  0.9335 -0.4209 -0.5871
  903MOL0     C19095   9.045   1.165  12.434  0.3129 -1.1665 -1.4322
  903MOL0     C19096   8.917   1.126  12.467  1.5103 -0.1675  0.6098
  903MOL0     C19097   8.840   1.187  12.567 -0.3444  0.0482  0.2718
  903MOL0     C19098   8.892   1.289  12.635  0.3475 -0.3895 -0.7533
  903MOL0     O19099   8.822   1.363  12.733 -0.1941 -0.1132  0.0135
  903MOL0     C19100   8.694   1.327  12.787 -0.2993 -0.6304 -0.2985
  903MOL0     C19101   8.638   1.437  12.889  0.0846 -0.5497 -1.4588
  903MOL0     C19102   8.740   1.449  13.001  0.3358  0.0202  0.0187
  903MOL0     C19103   8.678   1.510  13.122 -0.5709 -0.0264 -0.3961
  903MOL0     C19104   8.779   1.548  13.223 -1.0542  0.2159 -0.9650
  903MOL0     C19105   8.819   1.436  13.328 -0.1096 -0.2327 -1.0288
  903MOL0     C19106   8.934   1.483  13.424 -0.0201 -0.0251 -0.1700
  903MOL0     C19107   8.975   1.366  13.511 -0.0443  0.4727  0.1947
  903MOL0    Cl19108   8.859   1.347  13.646  0.0110 -0.0810 -0.2154
  903MOL0     C19109   9.029   1.324  12.615  0.4321 -0.4775  0.2199
  903MOL0     C19110   9.098   1.274  12.508 -1.3560  1.1856  0.2739
  903MOL0     O19111   8.972   0.988  12.224  0.1883  0.1060  0.3474
  903MOL0     C19112   9.317   0.959  12.166  0.3779  0.4641  0.4368
  903MOL0     C19113   9.403   0.874  12.097  1.1725 -0.2684 -0.1947
  903MOL0     N19114   9.765   0.347  11.722  0.4811 -0.3508  0.2837
  903MOL0     N19115   9.842   0.242  11.733 -1.1265  0.0957 -0.5326
  903MOL0     C19116  10.962   0.245  11.212 -0.0416  0.2239 -0.0215
  903MOL0     C19117  11.007   0.287  11.079 -0.5053 -0.3416  0.1074
  903MOL0     C19118  11.208   0.387  10.718 -0.5334  0.8155  0.1518
  903MOL0     C19119  11.178   0.486  10.628  0.4324  0.2659 -0.1773
  903MOL0     C19120  11.266   0.522  10.526  1.1331 -0.4291  0.1894
  903MOL0     C19121  11.393   0.466  10.525  1.0500 -1.4659  0.3820
  903MOL0     O19122  11.487   0.498  10.430 -0.5455  0.3572 -0.6889
  903MOL0     C19123  11.450   0.518  10.290  0.4574 -0.3665 -0.7215
  903MOL0     C19124  11.481   0.398  10.201 -0.3060 -0.4239 -0.6367
  903MOL0     C19125  11.415   0.399  10.057 -0.5340 -1.4446 -0.5531
  903MOL0     C19126  11.409   0.256  10.013 -0.5344  0.4573  0.5619
  903MOL0     C19127  11.335   0.244   9.879 -0.2157  0.2584 -1.1426
  903MOL0     C19128  11.272   0.220   9.782 -0.9372  0.4808 -0.7957
  903MOL0     C19129  11.427   0.372  10.617  0.1335  0.4358 -0.9390
  903MOL0     C19130  11.331   0.328  10.710  0.4596  1.1198 -1.0047
  903MOL0     H19131  11.127  -0.014  10.988  1.2479  1.5934 -1.2342
  903MOL0     H19132  11.071  -0.075  11.199  0.4311  0.6379  0.4464
  903MOL0     H19133  10.776  -0.044  11.319 -1.1310  1.6422 -1.7036
  903MOL0     H19134  10.751   0.122  11.333 -0.3852  0.7345  0.1820
  903MOL0     H19135  10.818   0.044  11.613 -1.3383 -2.2193  1.1819
  903MOL0     H19136  10.716  -0.074  11.535  0.7535 -0.8198  0.9010
  903MOL0     H19137  10.643   0.220  11.540 -0.6168  1.1240  1.8972
  903MOL0     H19138  10.616   0.111  11.669 -1.6215  1.4999 -0.6522
  903MOL0     H19139  10.467   0.092  11.393  1.8695 -0.1868 -0.0656
  903MOL0     H19140  10.472  -0.039  11.507 -1.9483 -0.4652 -0.8499
  903MOL0     H19141  10.401   0.248  11.561  2.5290 -1.1359  0.4466
  903MOL0     H19142  10.373   0.115  11.676 -1.3442 -2.0706 -0.5119
  903MOL0     H19143  10.210   0.016  11.509 -0.4328 -0.2132  3.0456
  903MOL0     H19144  10.249   0.144  11.398  1.1784  1.4660  0.4220
  903MOL0     H19145  10.147   0.323  11.547  0.8012  0.4257  0.2955
  903MOL0     H19146  10.039   0.204  11.493 -0.5082 -1.1703 -0.2857
  903MOL0     H19147  10.166   0.225  11.778  2.0291 -3.4421  0.6942
  903MOL0     H19148  10.057   0.089  11.739  1.6482 -0.3820  1.9876
  903MOL0     H19149  10.063   0.486  11.731 -0.5457  1.6503 -2.7409
  903MOL0     H19150   9.773   0.617  11.614 -1.8277  0.5157  1.3215
  903MOL0     H19151   9.907   0.650  11.728 -0.7223  2.7460  0.3819
  903MOL0     H19152   9.706   0.763  11.792  4.5040  0.3704  0.5330
  903MOL0     H19153   9.744   0.653  11.916  3.4775  0.9396 -1.1145
  903MOL0     H19154   9.546   0.582  11.681  3.6215  0.3473 -0.8122
  903MOL0     H19155   9.569   0.490  11.833  1.3273  0.2829 -0.1811
  903MOL0     H19156   9.358   0.598  11.842 -0.7451  1.3485  1.3823
  903MOL0     H19157   9.437   0.760  11.819  1.7435  0.0593  2.0833
  903MOL0     H19158   9.224   0.587  12.101 -0.9828  0.9842  0.5624
  903MOL0     H19159   9.067   0.737  12.215  1.4686 -1.1132  1.0134
  903MOL0     H19160   8.880   1.029  12.435 -3.6266  1.6096  0.2508
  903MOL0     H19161   8.741   1.152  12.594  0.4229 -1.5529  1.1676
  903MOL0     H19162   8.694   1.228  12.833 -3.2510 -0.9494 -0.7955
  903MOL0     H19163   8.626   1.340  12.702  0.1147  1.3458 -0.3848
  903MOL0     H19164   8.543   1.402  12.930  1.5506 -1.0873  1.7522
  903MOL0     H19165   8.615   1.538  12.852 -0.8612 -0.0905  0.2477
  903MOL0     H19166   8.815   1.526  12.980  2.6324 -2.2711 -0.6639
  903MOL0     H19167   8.791   1.356  13.026 -0.1436 -0.0702  0.6846
  903MOL0     H19168   8.609   1.594  13.108 -0.1993  0.0352 -2.1210
  903MOL0     H19169   8.621   1.430  13.169 -2.0034  0.7569 -0.7583
  903MOL0     H19170   8.734   1.633  13.274 -1.5201 -1.1736  1.0571
  903MOL0     H19171   8.871   1.594  13.186  0.6373 -0.1260  2.4725
  903MOL0     H19172   8.845   1.335  13.296  1.1517 -2.1615  4.8841
  903MOL0     H19173   8.733   1.434  13.395  1.8432 -2.3495  1.6471
  903MOL0     H19174   9.004   1.517  13.347 -1.4761 -0.5034 -1.7870
  903MOL0     H19175   8.907   1.569  13.487 -3.3139 -0.8802 -0.2175
  903MOL0     H19176   9.067   1.387  13.565 -0.9332 -2.3807  3.1635
  903MOL0     H19177   8.977   1.269  13.461  2.4321 -0.2579  1.5726
  903MOL0     H19178   9.070   1.407  12.672  1.2529  0.0228 -1.0696
  903MOL0     H19179   9.202   1.298  12.490 -1.0221  0.6442  1.4139
  903MOL0     H19180   9.356   1.058  12.189  1.0187  0.4883 -0.6533
  903MOL0     H19181   9.497   0.916  12.064  0.6206 -0.3297 -1.9611
  903MOL0     H19182  10.925   0.324  11.277 -1.1641  1.5437 -2.1590
  903MOL0     H19183  10.991   0.394  11.068 -1.2699 -0.4111  0.5543
  903MOL0     H19184  11.078   0.528  10.620 -0.5851 -1.6367  1.5022
  903MOL0     H19185  11.234   0.609  10.468  0.0293 -0.0216  1.3698
  903MOL0     H19186  11.501   0.606  10.251  0.7978 -1.0849 -1.9783
  903MOL0     H19187  11.349   0.561  10.296  1.4606  1.9206  1.0115
  903MOL0     H19188  11.590   0.387  10.203 -0.1265  1.0592  1.8816
  903MOL0     H19189  11.448   0.309  10.256  3.5277 -0.9555  1.1140
  903MOL0     H19190  11.475   0.451   9.981 -2.8833  3.1044  0.3492
  903MOL0     H19191  11.315   0.443  10.057  0.0564 -0.0475 -0.0824
  903MOL0     H19192  11.509   0.215  10.000 -1.0112 -1.2843  2.0210
  903MOL0     H19193  11.373   0.186  10.089  2.1355  1.0090  2.4624
  903MOL0     H19194  11.231   0.192   9.688  0.3033 -3.9983 -0.2258
  903MOL0     H19195  11.524   0.325  10.600  1.3578  2.9316 -1.3886
  903MOL0     H19196  11.360   0.237  10.763  2.0048  0.7384 -2.4325
  904MOL0     O19197   5.797   3.731   7.853 -0.3334 -0.3469 -0.7039
  904MOL0     C19198   5.715   3.771   7.938  0.0970  0.7381 -0.1450
  904MOL0     O19199   5.588   3.787   7.910  0.2506  0.4383  0.1187
  904MOL0     C19200   5.550   3.804   7.774  0.5051 -0.4519 -0.5832
  904MOL0     C19201   5.438   3.723   7.726 -0.3246 -0.6514  0.3466
  904MOL0     C19202   5.396   3.755   7.592 -0.2963  0.2088  0.1710
  904MOL0     C19203   5.447   3.855   7.514  0.4777  0.6764  0.0295
  904MOL0     O19204   5.411   3.891   7.386 -1.0612 -0.2470 -0.1446
  904MOL0     C19205   5.308   3.817   7.326  0.0377  0.2786  0.8246
  904MOL0     C19206   5.263   3.884   7.188 -0.7463 -0.4389  0.5117
  904MOL0     C19207   5.380   3.897   7.095 -1.1869  0.3590 -0.4429
  904MOL0     C19208   5.349   3.932   6.951 -0.7511 -0.2051  0.3794
  904MOL0     C19209   5.212   3.888   6.894  0.0406  0.8978  0.6675
  904MOL0     C19210   5.219   3.878   6.746  0.9036  0.0546  0.4084
  904MOL0     C19211   5.107   3.799   6.677  0.0125 -0.6667 -0.5652
  904MOL0     C19212   5.114   3.820   6.529 -0.5106  0.6464  0.6815
  904MOL0     N19213   5.043   3.705   6.451 -0.4242  0.8602 -0.7775
  904MOL0     C19214   5.048   3.682   6.309  0.1738  0.4884  0.5302
  904MOL0     C19215   4.952   3.591   6.277 -0.1552  1.1624 -0.7235
  904MOL0     C19216   4.911   3.554   6.137 -0.5596 -0.2848 -0.4271
  904MOL0     C19217   5.037   3.501   6.052  0.1822 -0.8227 -0.0438
  904MOL0     C19218   5.072   3.355   6.099 -0.1412  0.1291  0.8612
  904MOL0     C19219   4.968   3.241   6.069 -0.0560 -0.3941 -0.8820
  904MOL0     O19220   5.033   3.120   6.042 -0.7189  0.0735 -0.2315
  904MOL0     C19221   4.977   3.001   6.016  0.7157 -0.8146 -0.5534
  904MOL0     C19222   5.060   2.891   5.985 -0.6116  0.3030 -0.0199
  904MOL0     C19223   5.005   2.769   5.939  0.2469 -0.2508  0.9715
  904MOL0     C19224   4.864   2.749   5.952 -0.2282  0.2404 -0.5571
  904MOL0     C19225   4.801   2.618   5.943 -0.5794  0.1689 -0.5426
  904MOL0     O19226   4.862   2.529   5.869 -0.4695 -0.2157  0.5551
  904MOL0     C19227   4.806   2.417   5.825 -0.1617  0.6453  0.2842
  904MOL0     C19228   4.688   2.340   5.861  0.6336  0.0425 -0.3518
  904MOL0     C19229   4.637   2.230   5.793  0.3980 -0.0058 -0.1038
  904MOL0     C19230   4.694   2.199   5.668 -0.1137  0.0313  0.4815
  904MOL0     O19231   4.648   2.081   5.610  0.3743 -0.1310 -0.7335
  904MOL0     C19232   4.702   2.033   5.485 -0.5392  1.4823  0.3403
  904MOL0     C19233   4.832   1.956   5.521  0.3945  0.6528  1.0352
  904MOL0     C19234   4.893   1.891   5.390  0.4922 -0.9043  0.1690
  904MOL0     C19235   5.009   1.813   5.408  0.3946  0.1261 -0.5151
  904MOL0     C19236   5.054   1.732   5.288  0.2020 -0.0961 -0.1956
  904MOL0     C19237   5.152   1.823   5.213  0.3972 -0.1133  0.4844
  904MOL0     C19238   5.215   1.749   5.084  0.2777 -0.9856 -0.3325
  904MOL0     C19239   5.333   1.825   5.011 -0.9204  1.3148  1.5781
  904MOL0    Cl19240   5.376   1.735   4.858  0.5176 -0.2658  0.3436
  904MOL0     C19241   4.809   2.277   5.625 -0.5653 -0.3434 -0.5265
  904MOL0     C19242   4.868   2.380   5.698 -0.0300 -0.0457  0.6462
  904MOL0     O19243   4.691   2.601   5.999  0.1911  0.7810 -0.3910
  904MOL0     C19244   4.781   2.855   5.979  0.6919 -0.5201  0.0049
  904MOL0     C19245   4.832   2.981   6.015 -1.1144 -0.3565 -0.0990
  904MOL0     N19246   4.911   3.539   6.401 -0.3949  0.2347  0.4764
  904MOL0     N19247   4.960   3.607   6.500 -0.4248 -0.1662  0.2447
  904MOL0     C19248   5.553   3.926   7.560 -0.1112  0.0323  0.6568
  904MOL0     C19249   5.609   3.896   7.688  0.5742 -0.7325 -0.1468
  904MOL0     C19250   5.760   3.753   8.072  0.1950  0.2036  0.1204
  904MOL0     C19251   5.904   3.751   8.095  0.4309 -0.6735  0.2973
  904MOL0     C19252   5.939   3.696   8.218 -0.9739  1.1404  0.3698
  904MOL0     C19253   5.846   3.667   8.318  0.7504 -0.4330  0.6530
  904MOL0     O19254   5.870   3.630   8.444 -0.4848 -0.2654 -0.1837
  904MOL0     C19255   6.010   3.632   8.495  0.1140 -0.6715 -0.0429
  904MOL0     C19256   6.002   3.587   8.640 -0.2110  0.7766  0.4736
  904MOL0     C19257   5.984   3.433   8.639 -0.5778  0.3100 -0.2329
  904MOL0     C19258   5.989   3.376   8.786 -0.8958  0.5833  1.1085
  904MOL0     C19259   5.869   3.433   8.849 -0.4913  0.4479 -0.1251
  904MOL0     C19260   5.771   3.482   8.899  0.0864 -0.4193  0.1103
  904MOL0     C19261   5.709   3.674   8.303 -0.2382  0.2211 -0.0810
  904MOL0     C19262   5.675   3.720   8.177  0.4822 -0.0361  0.5578
  904MOL0     H19263   5.399   3.644   7.789 -0.1297 -0.6753  0.4378
  904MOL0     H19264   5.320   3.687   7.555  1.5554 -1.8586  0.0165
  904MOL0     H19265   5.221   3.810   7.392 -0.1546  0.7283  0.6210
  904MOL0     H19266   5.342   3.715   7.307 -3.2406 -1.1085  1.7523
  904MOL0     H19267   5.230   3.983   7.217  1.2876 -0.3528  2.8572
  904MOL0     H19268   5.185   3.824   7.139  1.6966 -2.4930 -1.1687
  904MOL0     H19269   5.440   3.807   7.105 -2.5900 -0.4674  1.0355
  904MOL0     H19270   5.441   3.982   7.127 -2.6037  1.2194  0.0892
  904MOL0     H19271   5.355   4.042   6.950 -1.9647 -0.0760  2.3223
  904MOL0     H19272   5.427   3.896   6.884 -1.8927 -0.1382 -1.0408
  904MOL0     H19273   5.141   3.967   6.921  2.1410  3.4414 -0.7763
  904MOL0     H19274   5.187   3.791   6.937 -0.5603 -0.0530 -1.6479
  904MOL0     H19275   5.318   3.843   6.715  2.0013  2.8831  0.4438
  904MOL0     H19276   5.209   3.981   6.711 -1.2111  1.0594  3.6313
  904MOL0     H19277   5.120   3.693   6.698 -2.9820 -0.7885  1.1913
  904MOL0     H19278   5.016   3.829   6.728  1.6133  2.4745  0.7327
  904MOL0     H19279   5.218   3.820   6.497 -1.0208 -0.2675 -1.1192
  904MOL0     H19280   5.067   3.916   6.503 -1.5711 -0.5143 -2.2122
  904MOL0     H19281   5.117   3.719   6.234 -0.7247 -2.8040 -2.1862
  904MOL0     H19282   4.859   3.638   6.090 -2.9251  0.4390  3.0638
  904MOL0     H19283   4.838   3.476   6.163  0.1079 -0.6383  0.4203
  904MOL0     H19284   5.129   3.557   6.074  0.4699  0.1975 -3.4047
  904MOL0     H19285   5.021   3.508   5.945 -0.1831 -1.1414 -0.0125
  904MOL0     H19286   5.172   3.316   6.081 -0.8371 -2.8619  2.6617
  904MOL0     H19287   5.084   3.360   6.208  0.1932  1.1141  0.7903
  904MOL0     H19288   4.910   3.274   5.983  0.9025  1.8335 -0.7498
  904MOL0     H19289   4.895   3.233   6.150 -1.5252 -2.2279 -2.3108
  904MOL0     H19290   5.166   2.910   5.977 -0.3746 -0.2805  1.5052
  904MOL0     H19291   5.067   2.688   5.901 -4.4279 -3.0466 -1.9026
  904MOL0     H19292   4.624   2.384   5.936  1.3807 -0.1238  0.3926
  904MOL0     H19293   4.560   2.162   5.827  1.5156 -1.3750 -0.2149
  904MOL0     H19294   4.730   2.109   5.412 -2.9956  0.5983 -1.6569
  904MOL0     H19295   4.636   1.954   5.448  2.8727  0.0931 -3.5664
  904MOL0     H19296   4.816   1.872   5.589  5.1928 -3.4925 -2.1049
  904MOL0     H19297   4.901   2.028   5.565 -1.6540  3.2633  0.2197
  904MOL0     H19298   4.917   1.978   5.328  0.0968 -0.5810  0.4674
  904MOL0     H19299   4.821   1.842   5.324  1.5790  0.4981 -2.1903
  904MOL0     H19300   5.098   1.871   5.437  1.0676 -1.3218  0.4643
  904MOL0     H19301   4.987   1.742   5.488  2.3591  1.4445  1.3343
  904MOL0     H19302   4.974   1.696   5.222  2.1393 -2.0815 -1.6022
  904MOL0     H19303   5.106   1.641   5.318 -0.7308 -1.7759 -3.2242
  904MOL0     H19304   5.233   1.834   5.286 -0.1565 -2.7296  1.6207
  904MOL0     H19305   5.107   1.919   5.188  1.8075 -0.2773 -3.4850
  904MOL0     H19306   5.246   1.645   5.103  0.4869 -1.1252 -1.3633
  904MOL0     H19307   5.132   1.741   5.013  0.9688 -0.2583 -1.2503
  904MOL0     H19308   5.414   1.844   5.082  0.6039  2.1139 -0.3201
  904MOL0     H19309   5.304   1.922   4.971  0.6058  1.2569  0.2624
  904MOL0     H19310   4.868   2.254   5.536 -2.2671 -2.5401 -1.1858
  904MOL0     H19311   4.942   2.446   5.655  2.6048 -0.3460  4.2696
  904MOL0     H19312   4.673   2.843   5.980  0.6837 -0.9117  3.2676
  904MOL0     H19313   4.773   3.071   6.025  0.4145  0.4626  2.5100
  904MOL0     H19314   5.592   4.000   7.491 -3.3563  2.3403  1.0774
  904MOL0     H19315   5.692   3.959   7.721 -1.3042  1.1261  1.3316
  904MOL0     H19316   5.977   3.780   8.020 -0.1027 -1.2292 -0.4598
  904MOL0     H19317   6.044   3.684   8.242 -1.1697 -1.9738  0.0957
  904MOL0     H19318   6.035   3.738   8.483 -1.2753 -0.4195 -1.0055
  904MOL0     H19319   6.071   3.564   8.434  3.5738  1.0126  1.2881
  904MOL0     H19320   6.097   3.600   8.692 -0.7084  1.6265  1.1839
  904MOL0     H19321   5.917   3.639   8.685  0.1287  0.5598  1.3868
  904MOL0     H19322   6.062   3.383   8.581 -0.2271 -0.9010  1.2021
  904MOL0     H19323   5.893   3.402   8.587 -1.1155 -2.9833  2.2774
  904MOL0     H19324   5.986   3.267   8.781 -2.4335  0.6327  0.3025
  904MOL0     H19325   6.086   3.390   8.835  0.5687 -0.4454 -1.3514
  904MOL0     H19326   5.679   3.524   8.936 -0.9748  0.0741 -2.8292
  904MOL0     H19327   5.637   3.655   8.382 -1.5934  0.4347 -1.2223
  904MOL0     H19328   5.567   3.717   8.169  0.3035 -3.1791  2.4134
  905MOL0     O19329   9.575   1.312   5.844  0.7835 -0.0081 -0.2563
  905MOL0     C19330   9.499   1.290   5.753 -0.6632  0.5515  1.0645
  905MOL0     O19331   9.536   1.225   5.629  0.3233 -0.3242  0.4168
  905MOL0     C19332   9.665   1.197   5.613  0.2113 -0.0784  0.3516
  905MOL0     C19333   9.701   1.061   5.585  0.0679 -0.4645  0.7535
  905MOL0     C19334   9.832   1.029   5.547  0.5266 -0.3584  0.1926
  905MOL0     C19335   9.926   1.136   5.531  0.5718  0.0028  0.3323
  905MOL0     O19336  10.048   1.097   5.495  0.5003  0.2156  0.7451
  905MOL0     C19337  10.131   1.193   5.423  0.7400 -0.1811 -0.6090
  905MOL0     C19338  10.266   1.126   5.389  0.0255 -0.1032 -0.6652
  905MOL0     C19339  10.339   1.096   5.519  0.6592 -0.5459 -0.8620
  905MOL0     C19340  10.476   1.038   5.469 -0.3201 -0.0179  0.6478
  905MOL0     C19341  10.584   1.048   5.580  0.1306 -0.4207 -0.2936
  905MOL0     C19342  10.605   0.933   5.681  0.5934  0.6536 -0.2032
  905MOL0     C19343  10.719   0.955   5.777  0.6871 -0.2692  0.7688
  905MOL0     C19344  10.738   0.839   5.872 -0.5414 -0.5303 -0.2838
  905MOL0     N19345  10.625   0.807   5.957 -1.0946 -0.5538  0.1849
  905MOL0     C19346  10.527   0.720   5.915 -1.0055  0.0921 -0.6247
  905MOL0     C19347  10.441   0.727   6.021 -0.7108  0.3212 -0.3426
  905MOL0     C19348  10.329   0.633   6.040  0.5215  0.0583 -0.1488
  905MOL0     C19349  10.203   0.693   5.969 -1.1247  0.5876 -0.7502
  905MOL0     C19350  10.080   0.603   5.991  0.1201 -0.1071  0.1971
  905MOL0     C19351   9.977   0.628   5.891 -0.1224 -0.3981  0.1622
  905MOL0     O19352   9.919   0.763   5.907 -0.4525 -0.3314 -0.4293
  905MOL0     C19353   9.807   0.781   5.976  0.2008  0.8981 -0.0155
  905MOL0     C19354   9.741   0.699   6.077  0.0021  0.3871  0.1293
  905MOL0     C19355   9.608   0.717   6.120  0.3721  0.5761  0.3737
  905MOL0     C19356   9.537   0.829   6.069 -0.3038 -0.6175  0.9219
  905MOL0     C19357   9.406   0.866   6.115  0.4873 -0.6058 -0.7432
  905MOL0     O19358   9.361   0.989   6.111 -0.4304 -0.1445  0.2625
  905MOL0     C19359   9.235   1.026   6.159  0.5256  0.2272  0.2399
  905MOL0     C19360   9.149   1.107   6.074  0.0917 -0.2183 -0.2256
  905MOL0     C19361   9.020   1.128   6.113  0.4019 -0.0562 -0.6518
  905MOL0     C19362   8.972   1.091   6.240  0.0764 -0.6496 -0.3466
  905MOL0     O19363   8.842   1.138   6.265 -0.4777 -0.1077  0.4321
  905MOL0     C19364   8.775   1.110   6.385  0.1898 -0.0131 -0.9288
  905MOL0     C19365   8.630   1.166   6.393  0.1091 -0.1249 -0.7069
  905MOL0     C19366   8.562   1.129   6.530 -0.2468  0.1768  0.2883
  905MOL0     C19367   8.406   1.141   6.532 -0.0205 -0.1668 -0.1487
  905MOL0     C19368   8.349   1.112   6.676  0.1191  0.3248  0.4769
  905MOL0     C19369   8.210   1.165   6.703 -0.5269 -0.2241  0.1184
  905MOL0     C19370   8.181   1.159   6.856 -0.8720  0.0659  0.4329
  905MOL0     C19371   8.030   1.161   6.881 -0.3226 -0.5792  0.3533
  905MOL0    Cl19372   7.986   1.134   7.058 -0.3654  0.0480  0.0703
  905MOL0     C19373   9.057   1.027   6.322 -0.0057 -0.4231  0.0123
  905MOL0     C19374   9.179   0.986   6.280 -0.1212  0.1542 -0.4592
  905MOL0     O19375   9.332   0.775   6.158 -0.6066  0.3268 -0.0844
  905MOL0     C19376   9.609   0.924   5.992  0.9918 -0.0028 -0.4100
  905MOL0     C19377   9.735   0.901   5.947  0.4909  0.6928 -0.2512
  905MOL0     N19378  10.474   0.829   6.112 -0.4197  0.6640 -0.0531
  905MOL0     N19379  10.594   0.868   6.073  0.4339 -0.2105 -0.2360
  905MOL0     C19380   9.891   1.266   5.553  0.3841 -0.4898  0.4665
  905MOL0     C19381   9.762   1.300   5.607  0.2188  0.9784 -0.3071
  905MOL0     C19382   9.358   1.316   5.774  0.4942 -0.7618  0.1215
  905MOL0     C19383   9.255   1.254   5.707 -0.0834  0.8029  0.6844
  905MOL0     C19384   9.118   1.288   5.737 -0.0808  0.5819  1.0941
  905MOL0     C19385   9.091   1.391   5.823 -0.6444 -1.1068  0.2250
  905MOL0     O19386   8.959   1.427   5.831  0.0760 -0.6300 -0.0785
  905MOL0     C19387   8.931   1.563   5.867 -0.0698  0.5242 -0.1793
  905MOL0     C19388   8.882   1.596   6.008 -0.5473  0.2171 -0.4735
  905MOL0     C19389   8.744   1.536   6.028  0.9239 -1.3020  0.7211
  905MOL0     C19390   8.678   1.565   6.162  0.7076 -0.2125  0.5989
  905MOL0     C19391   8.626   1.704   6.178  0.8749  0.1530 -0.6544
  905MOL0     C19392   8.597   1.818   6.182 -0.1653 -0.3902  0.0154
  905MOL0     C19393   9.192   1.450   5.893  0.4005 -0.1709 -0.9931
  905MOL0     C19394   9.321   1.427   5.858 -0.0179  0.5213 -0.1447
  905MOL0     H19395   9.619   0.990   5.585  0.8513 -1.3969  0.3421
  905MOL0     H19396   9.868   0.928   5.527  1.6430 -0.1977  1.3162
  905MOL0     H19397  10.135   1.290   5.473 -1.5171 -0.1652 -0.3432
  905MOL0     H19398  10.077   1.216   5.330 -0.6519  1.2763  0.5041
  905MOL0     H19399  10.329   1.186   5.324  0.4916 -2.8714 -2.9462
  905MOL0     H19400  10.257   1.034   5.331  5.2428 -1.6216  0.4800
  905MOL0     H19401  10.280   1.013   5.559  3.0247 -2.2111 -0.6289
  905MOL0     H19402  10.349   1.184   5.585  1.8575 -1.9404  0.9251
  905MOL0     H19403  10.465   0.931   5.451  2.1321 -0.2212 -0.0893
  905MOL0     H19404  10.505   1.090   5.377 -1.2157 -1.7083 -0.6546
  905MOL0     H19405  10.575   1.133   5.649  0.8076 -1.0343  0.5775
  905MOL0     H19406  10.683   1.050   5.533  1.5003 -2.5605  2.2442
  905MOL0     H19407  10.614   0.837   5.631  2.1862  1.7024 -2.0708
  905MOL0     H19408  10.511   0.926   5.736  0.4394  0.4931 -0.4851
  905MOL0     H19409  10.810   0.955   5.716  0.4688  0.8162  0.4383
  905MOL0     H19410  10.707   1.050   5.830 -0.6366  0.1168 -0.1866
  905MOL0     H19411  10.827   0.845   5.935 -1.4221  0.2850  0.9246
  905MOL0     H19412  10.761   0.753   5.807 -3.3366 -1.4722 -0.1880
  905MOL0     H19413  10.542   0.644   5.839 -0.3574 -0.1683 -0.2427
  905MOL0     H19414  10.312   0.604   6.144  1.4869 -2.5909 -0.6672
  905MOL0     H19415  10.363   0.539   5.997  1.2416  0.1565  0.1967
  905MOL0     H19416  10.226   0.700   5.863  0.6051  1.4643 -0.3578
  905MOL0     H19417  10.182   0.791   6.014 -0.1521 -0.2685  1.7366
  905MOL0     H19418  10.117   0.503   5.969  0.7043  0.6983 -2.8681
  905MOL0     H19419  10.026   0.607   6.087 -4.1778  0.3988 -1.9951
  905MOL0     H19420   9.902   0.549   5.897 -0.0275 -0.3744  2.5769
  905MOL0     H19421  10.010   0.625   5.786 -2.7367 -0.9303 -0.7322
  905MOL0     H19422   9.799   0.621   6.126 -0.9220 -1.1753 -1.1558
  905MOL0     H19423   9.560   0.651   6.191 -0.9354  1.4794  0.3633
  905MOL0     H19424   9.188   1.142   5.979  2.0703 -1.0014  0.2365
  905MOL0     H19425   8.956   1.182   6.044 -1.5722  0.3036  1.3533
  905MOL0     H19426   8.831   1.156   6.467 -1.6956  1.5506 -0.4479
  905MOL0     H19427   8.768   1.003   6.403 -0.7334 -0.2227 -2.3421
  905MOL0     H19428   8.574   1.120   6.310  0.9025  1.5113 -2.2166
  905MOL0     H19429   8.633   1.274   6.377 -3.8252  0.0205 -1.5544
  905MOL0     H19430   8.597   1.204   6.601  2.2183  0.8527 -1.4710
  905MOL0     H19431   8.590   1.027   6.557 -1.1481  0.2322  1.4900
  905MOL0     H19432   8.402   1.249   6.514  3.7926  0.5851  2.3792
  905MOL0     H19433   8.365   1.072   6.458  0.5864 -0.8775  0.1671
  905MOL0     H19434   8.418   1.145   6.753  0.4670 -2.1391  1.3169
  905MOL0     H19435   8.348   1.005   6.700  1.7033  0.5894  1.8593
  905MOL0     H19436   8.143   1.098   6.650 -0.1642 -0.8223  0.4057
  905MOL0     H19437   8.183   1.264   6.666  0.4132 -0.7254 -2.0613
  905MOL0     H19438   8.226   1.068   6.895 -0.5139  0.3461  0.6828
  905MOL0     H19439   8.240   1.240   6.900 -0.0247  0.6880 -1.7222
  905MOL0     H19440   7.983   1.083   6.821  1.5179 -0.9551 -0.6785
  905MOL0     H19441   7.988   1.253   6.839 -1.2738 -1.4085 -0.5786
  905MOL0     H19442   9.027   0.993   6.421  1.3257  0.6801  0.8399
  905MOL0     H19443   9.233   0.910   6.336  0.9729 -0.2479 -1.9773
  905MOL0     H19444   9.563   1.014   5.952  1.0086 -0.1416 -0.7390
  905MOL0     H19445   9.784   0.979   5.889 -0.6763  0.7612 -1.1779
  905MOL0     H19446   9.962   1.347   5.538  2.6127 -2.1212  1.5838
  905MOL0     H19447   9.733   1.400   5.635  0.3691  1.3682 -1.4917
  905MOL0     H19448   9.276   1.175   5.636  1.5257  0.9068  0.9994
  905MOL0     H19449   9.038   1.244   5.678 -0.2215 -0.7696  2.2463
  905MOL0     H19450   8.855   1.597   5.795 -0.3435 -0.6508 -0.4589
  905MOL0     H19451   9.018   1.623   5.840  0.5510 -0.7324 -1.0585
  905MOL0     H19452   8.955   1.545   6.072 -0.9364 -1.7144 -1.4856
  905MOL0     H19453   8.861   1.702   6.023 -1.6824 -0.1277  0.5771
  905MOL0     H19454   8.745   1.426   6.020  1.1549 -1.1756 -1.5653
  905MOL0     H19455   8.677   1.580   5.954 -0.1105 -0.8283  1.9147
  905MOL0     H19456   8.599   1.489   6.166  0.3811  0.1702  1.8417
  905MOL0     H19457   8.751   1.537   6.237  3.4319 -4.0358 -3.0028
  905MOL0     H19458   8.587   1.925   6.181 -5.5692 -0.6411  0.5495
  905MOL0     H19459   9.165   1.518   5.973  1.1142 -1.3405  0.3042
  905MOL0     H19460   9.389   1.490   5.915  0.1997 -0.4900  0.7252
  906MOL0     O19461   8.168   1.637   0.507  0.2856  0.0322 -0.4800
  906MOL0     C19462   8.227   1.596   0.615  0.5795  0.0188 -0.3386
  906MOL0     O19463   8.355   1.634   0.654  0.8528  0.7361  0.2836
  906MOL0     C19464   8.434   1.712   0.576  0.1356 -0.2477  0.1810
  906MOL0     C19465   8.499   1.826   0.626 -0.0918  0.3048 -0.9190
  906MOL0     C19466   8.594   1.897   0.564  0.1755 -0.4281 -0.3195
  906MOL0     C19467   8.631   1.859   0.432  0.6373 -1.7017 -0.0826
  906MOL0     O19468   8.733   1.913   0.361  0.4467 -0.0718  0.3695
  906MOL0     C19469   8.694   1.970   0.233 -0.7425 -0.2147  0.6257
  906MOL0     C19470   8.754   2.108   0.222  0.2841 -1.1673 -0.0293
  906MOL0     C19471   8.701   2.211   0.333 -0.2688  0.2885  0.8438
  906MOL0     C19472   8.551   2.237   0.325  1.4199  0.1525  0.6283
  906MOL0     C19473   8.522   2.321   0.203  0.9579 -0.8281  0.1845
  906MOL0     C19474   8.367   2.332   0.203 -0.9750 -0.6945  0.0301
  906MOL0     C19475   8.311   2.429   0.308 -0.6088 -0.6255 -0.1277
  906MOL0     C19476   8.169   2.453   0.300  0.8680 -0.2045  0.9647
  906MOL0     N19477   8.130   2.506   0.159 -0.2286 -0.2796  1.2703
  906MOL0     C19478   8.000   2.478   0.103  0.1857 -0.1394 -0.3905
  906MOL0     C19479   8.017   2.504  -0.029 -0.9717 -0.1630  0.6067
  906MOL0     C19480   7.917   2.479  -0.134 -0.2831 -0.0122  0.5414
  906MOL0     C19481   7.821   2.596  -0.163  0.0202 -0.7747 -0.3740
  906MOL0     C19482   7.852   2.688  -0.278 -0.6899 -0.1213  0.1082
  906MOL0     C19483   7.881   2.831  -0.235  0.0268  0.1685 -0.0168
  906MOL0     O19484   7.770   2.876  -0.160  0.0336 -0.1961  0.0649
  906MOL0     C19485   7.757   3.012  -0.149  0.3654 -0.3017 -0.7612
  906MOL0     C19486   7.632   3.066  -0.099 -0.0215  0.5578 -0.9247
  906MOL0     C19487   7.605   3.197  -0.096  0.0738 -0.2292  0.5723
  906MOL0     C19488   7.694   3.288  -0.140  0.1914 -0.1909 -0.6923
  906MOL0     C19489   7.664   3.432  -0.126  0.9732  0.4753 -0.0057
  906MOL0     O19490   7.766   3.514  -0.104 -0.7312 -0.3569 -0.3237
  906MOL0     C19491   7.764   3.653  -0.127  0.4005  0.0230 -0.2339
  906MOL0     C19492   7.647   3.726  -0.146 -0.1422 -0.0176  0.1156
  906MOL0     C19493   7.664   3.858  -0.182  0.1979 -0.5905 -0.1112
  906MOL0     C19494   7.792   3.919  -0.209 -1.1389 -0.1504 -0.7513
  906MOL0     O19495   7.783   4.052  -0.245  0.0226 -0.7625 -0.3717
  906MOL0     C19496   7.869   4.100  -0.350 -0.0556  0.3386 -0.3734
  906MOL0     C19497   7.834   4.242  -0.384 -0.3750  0.5260 -0.0984
  906MOL0     C19498   7.898   4.332  -0.272  0.5458 -0.0428  0.4015
  906MOL0     C19499   7.870   4.481  -0.298 -0.6268  0.3752  0.7105
  906MOL0     C19500   7.990   4.557  -0.235  0.7557  0.9015  0.0351
  906MOL0     C19501   7.999   4.700  -0.277  0.4106 -0.2134  0.3755
  906MOL0     C19502   8.084   4.785  -0.185 -0.5305  0.1917  1.0328
  906MOL0     C19503   8.054   4.935  -0.209  0.0110  0.4428  0.3590
  906MOL0    Cl19504   7.901   4.965  -0.129 -0.2940 -0.5526 -0.2465
  906MOL0     C19505   7.911   3.849  -0.184  0.2833  0.0228  0.7499
  906MOL0     C19506   7.890   3.718  -0.136  0.3635  0.1320 -0.1068
  906MOL0     O19507   7.555   3.463  -0.156  0.2301  0.2301  0.7716
  906MOL0     C19508   7.813   3.249  -0.192  0.8676  0.9808 -0.5309
  906MOL0     C19509   7.843   3.110  -0.191  0.6478 -0.4896 -0.2451
  906MOL0     N19510   8.138   2.574  -0.040 -0.0265 -0.1148 -0.0468
  906MOL0     N19511   8.206   2.576   0.067  0.3124  1.0208 -0.2491
  906MOL0     C19512   8.572   1.746   0.379  0.6409 -0.1272 -0.1246
  906MOL0     C19513   8.474   1.670   0.447  0.1476  0.2380 -0.9777
  906MOL0     C19514   8.142   1.527   0.718  1.2390  1.8296  0.2827
  906MOL0     C19515   8.196   1.456   0.820  0.1642  0.1124 -0.3686
  906MOL0     C19516   8.110   1.373   0.897 -0.2324 -0.3414  1.0625
  906MOL0     C19517   7.970   1.362   0.874 -1.0941  0.6298  0.5211
  906MOL0     O19518   7.886   1.265   0.928 -0.1038 -0.2428 -0.3215
  906MOL0     C19519   7.930   1.197   1.052  0.0104 -0.9806  0.1812
  906MOL0     C19520   7.914   1.291   1.183  1.0880  0.2824  1.3171
  906MOL0     C19521   7.951   1.230   1.310  0.3396 -0.1221 -0.8603
  906MOL0     C19522   7.935   1.077   1.335 -0.7880 -0.6963 -0.0704
  906MOL0     C19523   7.940   1.050   1.476 -0.0165 -0.2587  0.2837
  906MOL0     C19524   7.931   1.025   1.599  0.5534  0.7658 -0.3737
  906MOL0     C19525   7.920   1.429   0.763 -0.6246  0.2178 -0.6160
  906MOL0     C19526   8.006   1.510   0.688 -0.1167  0.2511 -0.3972
  906MOL0     H19527   8.468   1.860   0.724  1.1540  3.0088 -1.3529
  906MOL0     H19528   8.629   1.988   0.611 -1.1399 -1.1268  2.2637
  906MOL0     H19529   8.586   1.985   0.230 -0.6316  1.3544  2.4382
  906MOL0     H19530   8.710   1.907   0.145 -1.1170 -0.0504  0.4405
  906MOL0     H19531   8.719   2.146   0.126  1.2449  0.3737  0.1913
  906MOL0     H19532   8.863   2.107   0.220  0.5287  2.9398 -3.6683
  906MOL0     H19533   8.764   2.300   0.319 -1.6970  1.1805 -0.2757
  906MOL0     H19534   8.732   2.181   0.433  3.0303  1.8104  0.4346
  906MOL0     H19535   8.487   2.149   0.331 -1.3210  1.6974 -2.9418
  906MOL0     H19536   8.529   2.294   0.416  1.7197 -0.2526  0.9656
  906MOL0     H19537   8.538   2.266   0.110  1.3835 -0.4631  0.0374
  906MOL0     H19538   8.576   2.415   0.192  2.2366 -1.7383 -1.9278
  906MOL0     H19539   8.316   2.237   0.223 -2.4212 -0.1561 -0.9274
  906MOL0     H19540   8.337   2.368   0.104  3.5503  1.3931 -0.8150
  906MOL0     H19541   8.332   2.393   0.409  2.8802 -3.4423 -1.6377
  906MOL0     H19542   8.354   2.529   0.302  1.6034 -1.5697 -0.6651
  906MOL0     H19543   8.126   2.525   0.370 -0.3828 -0.1211  0.1460
  906MOL0     H19544   8.127   2.353   0.316 -2.5974  0.7112 -1.3276
  906MOL0     H19545   7.912   2.426   0.140 -0.0554 -0.1723 -0.9934
  906MOL0     H19546   7.852   2.394  -0.111 -0.5590  0.8846  3.5051
  906MOL0     H19547   7.977   2.446  -0.219  0.7830  1.8967  0.5002
  906MOL0     H19548   7.834   2.643  -0.065  2.8432 -0.0605 -0.9968
  906MOL0     H19549   7.721   2.553  -0.174  0.5999 -2.5828  0.9436
  906MOL0     H19550   7.946   2.654  -0.323 -0.2718  0.7270  0.3320
  906MOL0     H19551   7.769   2.698  -0.349 -1.4251 -1.5361  0.7217
  906MOL0     H19552   7.905   2.892  -0.323  2.7732 -1.4886 -0.5267
  906MOL0     H19553   7.969   2.835  -0.170 -0.1078  0.0165  0.1727
  906MOL0     H19554   7.561   2.991  -0.065  2.6549 -1.4018  0.7580
  906MOL0     H19555   7.506   3.231  -0.064 -0.6459 -0.7239 -1.0238
  906MOL0     H19556   7.546   3.689  -0.137  0.1924 -0.6390  1.5454
  906MOL0     H19557   7.579   3.917  -0.214 -1.3920 -2.6765  0.0816
  906MOL0     H19558   7.857   4.048  -0.445 -2.0738  1.3675 -0.7490
  906MOL0     H19559   7.972   4.093  -0.315 -0.0381  4.7931  1.1295
  906MOL0     H19560   7.725   4.254  -0.387 -0.1622  2.9517 -2.9688
  906MOL0     H19561   7.874   4.265  -0.483  2.2575 -0.5902  0.6342
  906MOL0     H19562   8.004   4.309  -0.263  0.1182 -2.9408 -0.8700
  906MOL0     H19563   7.849   4.306  -0.177  1.9994  1.6112  1.6688
  906MOL0     H19564   7.874   4.502  -0.405  4.2274 -1.5033  0.2380
  906MOL0     H19565   7.773   4.511  -0.258 -1.0241 -1.5844  1.3422
  906MOL0     H19566   8.084   4.502  -0.245 -0.7399 -1.7389 -0.4783
  906MOL0     H19567   7.965   4.557  -0.128 -0.1086 -3.7414  0.0323
  906MOL0     H19568   7.898   4.743  -0.283 -0.1833 -1.1483  2.5978
  906MOL0     H19569   8.036   4.698  -0.380 -2.4339 -1.1722 -0.7488
  906MOL0     H19570   8.049   4.763  -0.084 -0.8529  0.7000  1.0384
  906MOL0     H19571   8.190   4.764  -0.202 -0.0991  4.4088 -4.5428
  906MOL0     H19572   8.045   4.958  -0.316 -0.1668 -2.7092 -0.3966
  906MOL0     H19573   8.135   4.992  -0.162 -0.0052  0.7258  0.0479
  906MOL0     H19574   8.013   3.881  -0.205 -0.2208 -0.3809 -2.8952
  906MOL0     H19575   7.974   3.654  -0.112  0.7006  0.7841  0.5060
  906MOL0     H19576   7.886   3.322  -0.227 -1.3209  2.1697 -2.9457
  906MOL0     H19577   7.937   3.084  -0.239 -0.8479 -0.3925 -3.4166
  906MOL0     H19578   8.613   1.726   0.281 -0.0557 -1.6967 -0.1347
  906MOL0     H19579   8.426   1.583   0.405 -1.2616  1.5802 -2.2905
  906MOL0     H19580   8.303   1.446   0.832  0.1806  0.3266 -0.3337
  906MOL0     H19581   8.153   1.323   0.983 -1.0979 -2.0365  0.5716
  906MOL0     H19582   8.028   1.149   1.048 -1.0361 -3.2289  0.1057
  906MOL0     H19583   7.861   1.113   1.050  0.8199 -1.6728  0.5998
  906MOL0     H19584   7.948   1.393   1.166 -0.1191  0.4106 -0.7626
  906MOL0     H19585   7.806   1.309   1.184  1.3105  1.7998  0.6220
  906MOL0     H19586   7.888   1.292   1.374  2.5514  2.0080 -0.6096
  906MOL0     H19587   8.052   1.263   1.336 -0.3338  1.6178 -0.3271
  906MOL0     H19588   7.842   1.051   1.285  1.9373 -1.1630 -5.6521
  906MOL0     H19589   8.008   1.026   1.271 -2.0222  1.3591 -3.3300
  906MOL0     H19590   7.900   0.977   1.689  0.1302  0.2889 -0.7718
  906MOL0     H19591   7.821   1.397   0.733 -1.5325 -0.5539  2.7054
  906MOL0     H19592   7.963   1.549   0.597  2.9736  0.5302 -1.8684
  907MOL0     O19593   1.431   6.310   1.315 -0.2652  0.7512  0.1262
  907MOL0     C19594   1.441   6.381   1.414 -0.5039 -0.3686 -0.4649
  907MOL0     O19595   1.345   6.488   1.443 -1.4842 -0.0620  0.1872
  907MOL0     C19596   1.209   6.487   1.407  0.1393 -0.5204  0.8552
  907MOL0     C19597   1.130   6.604   1.416  0.2229 -0.0241  0.1860
  907MOL0     C19598   0.989   6.600   1.382  0.7806 -1.2551  0.4155
  907MOL0     C19599   0.928   6.485   1.343 -0.2259  1.1751 -0.7919
  907MOL0     O19600   0.795   6.492   1.323  0.3652  0.4852 -1.1215
  907MOL0     C19601   0.745   6.407   1.218 -0.0979 -0.1636 -0.5708
  907MOL0     C19602   0.614   6.473   1.162 -1.2696  0.5470 -0.4833
  907MOL0     C19603   0.643   6.587   1.068  1.1484  0.0453 -0.5434
  907MOL0     C19604   0.531   6.690   1.053 -0.0185 -0.3585 -0.3299
  907MOL0     C19605   0.402   6.637   0.982  0.3118 -0.1428 -1.4419
  907MOL0     C19606   0.295   6.750   0.978 -0.2652 -0.0991 -0.7146
  907MOL0     C19607   0.172   6.719   0.890  0.2166 -1.3460  0.2702
  907MOL0     C19608   0.097   6.603   0.946  0.9342  0.3155  0.5753
  907MOL0     N19609  -0.035   6.592   0.878  0.1468 -0.3129 -0.1352
  907MOL0     C19610  -0.148   6.665   0.917 -0.9600 -0.8458 -0.2420
  907MOL0     C19611  -0.237   6.647   0.809 -0.4880  0.6015 -0.4154
  907MOL0     C19612  -0.374   6.706   0.802 -0.2179  0.6941 -0.0711
  907MOL0     C19613  -0.357   6.850   0.835  0.2595 -1.0365 -0.8613
  907MOL0     C19614  -0.295   6.932   0.722 -0.5253  0.1135 -0.4137
  907MOL0     C19615  -0.284   7.079   0.748 -1.5933 -0.8227 -0.8902
  907MOL0     O19616  -0.160   7.086   0.823 -0.4261  0.1901  0.3257
  907MOL0     C19617  -0.050   7.160   0.786 -0.3399  1.0595  0.4500
  907MOL0     C19618  -0.045   7.277   0.717 -0.4602  1.1766  0.1071
  907MOL0     C19619   0.072   7.347   0.696 -0.1189  0.2986 -0.0687
  907MOL0     C19620   0.194   7.288   0.715 -0.5637  0.0056 -1.1590
  907MOL0     C19621   0.328   7.351   0.663 -1.1205  0.9972  0.2630
  907MOL0     O19622   0.322   7.463   0.579 -0.6612  0.0602  0.9104
  907MOL0     C19623   0.442   7.516   0.542  0.5349  1.0563  0.9061
  907MOL0     C19624   0.508   7.468   0.432  0.6645 -0.2862 -0.0371
  907MOL0     C19625   0.618   7.522   0.383 -0.2644  0.1516 -0.1200
  907MOL0     C19626   0.676   7.629   0.453  0.5492  0.7546 -0.2496
  907MOL0     O19627   0.785   7.677   0.397  0.2101  0.0722  0.4392
  907MOL0     C19628   0.901   7.701   0.473 -0.3947  0.2205 -1.0721
  907MOL0     C19629   1.001   7.582   0.438  0.4939  0.9649  0.3203
  907MOL0     C19630   1.115   7.559   0.530 -0.2588  0.4944  0.3495
  907MOL0     C19631   1.176   7.423   0.500  0.0092 -0.7049  0.5578
  907MOL0     C19632   1.285   7.405   0.609 -0.4135  0.3321  0.5770
  907MOL0     C19633   1.364   7.275   0.585 -0.3541 -0.3535  0.7492
  907MOL0     C19634   1.466   7.244   0.695  0.1008  0.4126  0.7127
  907MOL0     C19635   1.556   7.124   0.655 -0.4033  0.1695  0.2373
  907MOL0    Cl19636   1.619   7.048   0.803 -0.1328  0.5440 -0.1248
  907MOL0     C19637   0.620   7.678   0.576  0.1538  1.1791  0.0826
  907MOL0     C19638   0.497   7.620   0.618  0.0540 -0.2758  0.5210
  907MOL0     O19639   0.438   7.295   0.696 -0.2190 -0.5783  0.5870
  907MOL0     C19640   0.197   7.170   0.796 -0.1371  0.1754 -0.3932
  907MOL0     C19641   0.076   7.106   0.818  1.3537  0.0325  0.0440
  907MOL0     N19642  -0.178   6.555   0.716 -0.7761  0.6196  0.5852
  907MOL0     N19643  -0.063   6.533   0.762 -0.0946 -0.0396 -0.0206
  907MOL0     C19644   1.009   6.374   1.319  0.9926  0.3005  0.2204
  907MOL0     C19645   1.145   6.372   1.349  0.0406 -0.6242  0.7134
  907MOL0     C19646   1.569   6.401   1.472 -1.1262  0.6092 -0.0255
  907MOL0     C19647   1.598   6.501   1.564  0.2403 -0.6871  0.5685
  907MOL0     C19648   1.720   6.509   1.626 -0.3530  0.5780  0.0533
  907MOL0     C19649   1.830   6.429   1.590 -0.5324 -0.1292 -0.2654
  907MOL0     O19650   1.940   6.446   1.669  0.5069  0.5638  0.3573
  907MOL0     C19651   2.065   6.379   1.611 -0.5315 -0.7700 -0.2128
  907MOL0     C19652   2.175   6.385   1.715  0.0271 -0.9189 -0.0458
  907MOL0     C19653   2.239   6.517   1.712  0.1107  0.1548  0.7909
  907MOL0     C19654   2.375   6.503   1.649 -0.4617 -0.2113  0.4388
  907MOL0     C19655   2.428   6.639   1.670  0.3071  0.7654  0.1146
  907MOL0     C19656   2.485   6.745   1.674 -0.8911 -1.0044 -0.4759
  907MOL0     C19657   1.807   6.324   1.499 -0.3339 -0.5153  0.1927
  907MOL0     C19658   1.677   6.308   1.446  0.2481 -1.3596  0.9708
  907MOL0     H19659   1.166   6.693   1.467 -4.3162  1.5995  0.9947
  907MOL0     H19660   0.927   6.688   1.392  2.5577  0.4246 -2.0805
  907MOL0     H19661   0.717   6.310   1.259  0.1232 -0.0433 -0.1361
  907MOL0     H19662   0.816   6.398   1.135  0.0194  1.1391 -0.6330
  907MOL0     H19663   0.568   6.508   1.255  2.4939 -0.8969  2.2029
  907MOL0     H19664   0.548   6.403   1.111 -1.7230  1.1575 -0.7388
  907MOL0     H19665   0.662   6.553   0.966 -1.4638 -2.3229 -0.3713
  907MOL0     H19666   0.720   6.646   1.117  0.0241 -0.5863  2.1878
  907MOL0     H19667   0.522   6.717   1.159  1.3723 -2.1430  0.3081
  907MOL0     H19668   0.566   6.780   1.002  2.9141 -0.2827  1.5844
  907MOL0     H19669   0.353   6.555   1.035  2.6697 -2.2315 -2.2905
  907MOL0     H19670   0.422   6.597   0.882 -0.4231  1.6188 -2.3515
  907MOL0     H19671   0.340   6.843   0.943  0.7687 -1.5590 -3.6475
  907MOL0     H19672   0.261   6.762   1.081  1.4483  5.2321 -0.4628
  907MOL0     H19673   0.111   6.807   0.868  2.4231  0.4884  1.0308
  907MOL0     H19674   0.215   6.690   0.794  0.2783  2.0773 -0.8843
  907MOL0     H19675   0.076   6.598   1.053  0.4662 -2.8763  0.4263
  907MOL0     H19676   0.149   6.512   0.915  0.2713 -0.2082  0.9629
  907MOL0     H19677  -0.170   6.725   1.004  3.2789 -2.8243  2.5401
  907MOL0     H19678  -0.441   6.658   0.874 -0.0173  1.5387  0.6986
  907MOL0     H19679  -0.428   6.686   0.709  1.4077 -2.4966 -0.4656
  907MOL0     H19680  -0.321   6.883   0.933 -0.3329 -2.1508 -0.2371
  907MOL0     H19681  -0.463   6.880   0.835  1.0221  2.1199  0.8663
  907MOL0     H19682  -0.201   6.887   0.691 -1.1959  0.2840 -2.8841
  907MOL0     H19683  -0.365   6.934   0.638 -1.2357  1.1119  0.1767
  907MOL0     H19684  -0.371   7.111   0.807 -0.1510 -0.8210  1.3739
  907MOL0     H19685  -0.267   7.136   0.657 -2.2014  0.0598 -0.4665
  907MOL0     H19686  -0.140   7.320   0.687 -0.2137  1.3883 -0.3838
  907MOL0     H19687   0.078   7.439   0.639  3.1658 -1.1062 -2.2681
  907MOL0     H19688   0.481   7.382   0.371 -2.6358  1.7800 -1.7912
  907MOL0     H19689   0.673   7.476   0.302  1.1835  3.8007 -1.4163
  907MOL0     H19690   0.886   7.718   0.580  0.4799  0.4603 -0.9725
  907MOL0     H19691   0.947   7.797   0.447  0.7418  0.5247  1.6441
  907MOL0     H19692   1.042   7.597   0.338  0.5907 -1.6165 -0.0864
  907MOL0     H19693   0.945   7.489   0.433  2.9569 -0.5326 -2.6154
  907MOL0     H19694   1.086   7.574   0.634 -1.4610 -0.3313  0.1520
  907MOL0     H19695   1.191   7.634   0.504  1.4011 -1.5306 -1.0654
  907MOL0     H19696   1.095   7.350   0.509  0.0851 -0.6527  1.9419
  907MOL0     H19697   1.211   7.423   0.397 -1.4397 -3.5877 -0.0165
  907MOL0     H19698   1.223   7.389   0.698 -2.6846  2.7130 -0.4433
  907MOL0     H19699   1.348   7.494   0.619  1.5394 -1.0753  1.3387
  907MOL0     H19700   1.420   7.279   0.490 -2.7457  1.2149 -0.7041
  907MOL0     H19701   1.298   7.188   0.579 -0.3753 -0.4312  1.9576
  907MOL0     H19702   1.531   7.328   0.721  1.2294 -0.6539  1.4348
  907MOL0     H19703   1.414   7.221   0.789  1.7840 -0.9236  1.3778
  907MOL0     H19704   1.644   7.155   0.598 -0.7503 -1.9582 -1.6158
  907MOL0     H19705   1.517   7.047   0.588 -1.5807 -1.9432  3.0981
  907MOL0     H19706   0.682   7.746   0.634  3.1860 -2.2554  1.2843
  907MOL0     H19707   0.441   7.661   0.702 -0.8425  1.4403 -0.8513
  907MOL0     H19708   0.290   7.136   0.842  0.1137  3.8857  2.3340
  907MOL0     H19709   0.069   7.000   0.842 -3.7047  0.1908  0.3018
  907MOL0     H19710   0.956   6.284   1.292  0.3753  0.1055  1.9443
  907MOL0     H19711   1.201   6.279   1.355  1.7618  0.3127  0.0699
  907MOL0     H19712   1.526   6.572   1.604  1.7390  0.9567  0.4868
  907MOL0     H19713   1.733   6.596   1.688  1.2715  1.9338 -2.0227
  907MOL0     H19714   2.094   6.415   1.511  2.0818 -2.5816 -0.2160
  907MOL0     H19715   2.057   6.272   1.591  1.6293 -1.3542  1.5714
  907MOL0     H19716   2.124   6.363   1.809 -0.8098  0.7407 -0.0716
  907MOL0     H19717   2.246   6.302   1.703  1.1974  0.2567 -1.7692
  907MOL0     H19718   2.257   6.548   1.816  1.9488 -2.3083  1.3073
  907MOL0     H19719   2.168   6.593   1.680 -1.8480 -1.7192  0.4750
  907MOL0     H19720   2.440   6.436   1.706 -1.2816  0.7053  2.5483
  907MOL0     H19721   2.363   6.478   1.543  1.4558 -1.6609  0.5190
  907MOL0     H19722   2.516   6.848   1.667 -0.1535 -1.2475 -0.8047
  907MOL0     H19723   1.888   6.263   1.460 -0.5742 -2.7710  2.8646
  907MOL0     H19724   1.652   6.224   1.382  1.2201 -0.7135 -0.3096
  908MOL0     O19725   4.521   2.973  10.498 -0.3878 -0.4712  0.1520
  908MOL0     C19726   4.542   3.097  10.493  0.5399  0.2822 -1.1046
  908MOL0     O19727   4.483   3.193  10.571 -0.2314  0.0362  0.2281
  908MOL0     C19728   4.411   3.161  10.678  0.0426  0.3202 -0.0611
  908MOL0     C19729   4.302   3.252  10.707 -1.0696  0.9779  0.3633
  908MOL0     C19730   4.225   3.224  10.818  0.1094 -0.6594  0.4727
  908MOL0     C19731   4.251   3.115  10.907  0.0003 -0.3332 -0.2798
  908MOL0     O19732   4.154   3.103  11.007  0.2466  0.4305  0.5736
  908MOL0     C19733   4.156   2.986  11.089  0.1527 -0.8733  0.2397
  908MOL0     C19734   4.049   2.978  11.204  0.3686 -0.1666  0.1143
  908MOL0     C19735   4.030   2.831  11.254  0.2574 -0.3482  0.3025
  908MOL0     C19736   3.940   2.819  11.373 -0.4860  1.1298  0.5323
  908MOL0     C19737   3.933   2.676  11.429  0.9405  0.7216 -0.9366
  908MOL0     C19738   3.924   2.560  11.339  0.3673 -0.5707  0.1724
  908MOL0     C19739   3.915   2.427  11.405 -0.1119  0.2388  0.0056
  908MOL0     C19740   4.010   2.317  11.344  1.1421 -0.3972  0.7538
  908MOL0     N19741   3.978   2.178  11.388  0.8809  0.2410 -0.4766
  908MOL0     C19742   3.904   2.087  11.320  0.1383 -0.8615  0.6769
  908MOL0     C19743   3.906   1.980  11.407 -0.7041  0.0675 -0.2106
  908MOL0     C19744   3.868   1.838  11.364 -0.5800 -0.1484 -0.4799
  908MOL0     C19745   3.729   1.835  11.316  0.8625 -0.2240  0.5803
  908MOL0     C19746   3.623   1.883  11.419  0.5865  1.1671 -0.4273
  908MOL0     C19747   3.485   1.818  11.391 -0.1407 -0.2854  0.1630
  908MOL0     O19748   3.447   1.852  11.256 -0.0443 -0.1910  0.8369
  908MOL0     C19749   3.319   1.885  11.222  1.0424 -0.4934  0.6988
  908MOL0     C19750   3.197   1.889  11.305 -0.6614 -0.4088  0.0334
  908MOL0     C19751   3.074   1.931  11.255  0.1597  1.1054  0.3637
  908MOL0     C19752   3.066   1.974  11.124  0.3343  0.2097 -0.3410
  908MOL0     C19753   2.934   2.008  11.062  0.6731 -0.2844 -0.8556
  908MOL0     O19754   2.945   2.075  10.938 -0.1535 -1.0763  0.3116
  908MOL0     C19755   2.850   2.167  10.893  0.1814  0.3866  0.0135
  908MOL0     C19756   2.838   2.195  10.756 -0.1012  0.8196  0.7125
  908MOL0     C19757   2.732   2.271  10.716  0.7197  0.3818  0.7676
  908MOL0     C19758   2.647   2.333  10.808 -0.2029 -0.2839  0.1398
  908MOL0     O19759   2.541   2.407  10.751 -0.5466  0.7884 -0.3811
  908MOL0     C19760   2.448   2.472  10.832  0.3999  0.0843  0.4113
  908MOL0     C19761   2.386   2.576  10.740 -0.2805 -1.0123 -0.3669
  908MOL0     C19762   2.358   2.698  10.835  0.2241 -1.2285  0.4506
  908MOL0     C19763   2.231   2.681  10.911  0.1591  0.2545 -0.4282
  908MOL0     C19764   2.184   2.829  10.941 -0.7980 -0.4073  0.7784
  908MOL0     C19765   2.059   2.828  11.018 -0.3596 -1.3464 -0.1006
  908MOL0     C19766   2.022   2.962  11.090  0.2399 -0.0896  0.4563
  908MOL0     C19767   2.005   3.082  11.001 -0.1558  0.1784  0.0219
  908MOL0    Cl19768   1.880   3.049  10.884  0.2930 -0.3832  0.4407
  908MOL0     C19769   2.668   2.308  10.945 -0.5600 -0.5115  0.3221
  908MOL0     C19770   2.775   2.233  10.982  0.7851  0.2398  0.8281
  908MOL0     O19771   2.831   1.971  11.116  0.4712 -0.5186  0.5538
  908MOL0     C19772   3.188   1.964  11.049  1.0352 -0.1861  0.3798
  908MOL0     C19773   3.313   1.931  11.096 -0.4500 -0.4935  0.1983
  908MOL0     N19774   3.968   2.012  11.521  0.2910 -0.4951 -0.4243
  908MOL0     N19775   4.020   2.129  11.507 -0.9723 -1.0380  0.2317
  908MOL0     C19776   4.367   3.043  10.887 -0.1128  0.1012 -0.1546
  908MOL0     C19777   4.442   3.062  10.772 -0.1479  0.0307 -0.3372
  908MOL0     C19778   4.617   3.153  10.387 -0.2899  1.1419  0.1990
  908MOL0     C19779   4.686   3.272  10.403  0.0211  0.2591  0.5586
  908MOL0     C19780   4.746   3.334  10.303 -0.6077  0.2143  0.1462
  908MOL0     C19781   4.738   3.293  10.172  0.3382 -0.5802  0.1712
  908MOL0     O19782   4.809   3.365  10.082 -0.2448 -0.3583 -0.4638
  908MOL0     C19783   4.841   3.303   9.960 -0.1417  0.1610  0.0341
  908MOL0     C19784   4.958   3.388   9.906 -0.4294  0.4760  0.0530
  908MOL0     C19785   5.016   3.327   9.773  0.5174 -0.0936 -0.2260
  908MOL0     C19786   5.085   3.431   9.673 -0.1598 -0.0852 -0.7523
  908MOL0     C19787   5.132   3.381   9.546  0.3925  0.5238  0.1896
  908MOL0     C19788   5.173   3.363   9.431 -0.1189  1.1125 -0.0261
  908MOL0     C19789   4.665   3.171  10.143  0.6381  0.1573  0.5843
  908MOL0     C19790   4.608   3.099  10.247 -0.2460  0.6077 -0.8694
  908MOL0     H19791   4.272   3.333  10.642 -2.8058  0.1502  0.0743
  908MOL0     H19792   4.132   3.279  10.826 -0.1098 -1.1118  1.1482
  908MOL0     H19793   4.253   2.971  11.138 -0.6018  0.2706  2.1519
  908MOL0     H19794   4.137   2.903  11.020  3.3631 -0.6228 -1.1320
  908MOL0     H19795   3.954   3.015  11.165 -0.8165 -0.3620  2.6382
  908MOL0     H19796   4.074   3.036  11.293 -1.8803  0.1123  0.6006
  908MOL0     H19797   4.123   2.774  11.262  0.8238  0.2393 -1.5795
  908MOL0     H19798   3.974   2.792  11.169 -2.4381  2.4950  0.6039
  908MOL0     H19799   3.979   2.891  11.445  0.8219 -0.2782  1.2865
  908MOL0     H19800   3.844   2.858  11.338  0.0885  3.5783  1.4683
  908MOL0     H19801   3.847   2.669  11.495 -0.6762 -1.4195 -3.0928
  908MOL0     H19802   4.020   2.652  11.490 -0.0367 -0.5791 -0.0062
  908MOL0     H19803   4.016   2.564  11.280  0.9802  0.9787  1.1528
  908MOL0     H19804   3.840   2.579  11.272 -0.1964  1.9802  1.4647
  908MOL0     H19805   3.942   2.433  11.510  1.5730  1.9471 -0.4784
  908MOL0     H19806   3.810   2.397  11.401 -1.5690  4.0106  3.4585
  908MOL0     H19807   4.116   2.333  11.367  1.2624 -1.7194  1.1824
  908MOL0     H19808   4.002   2.318  11.235 -2.2617 -3.7552  0.7794
  908MOL0     H19809   3.857   2.100  11.223  1.4093  2.5790  0.3804
  908MOL0     H19810   3.880   1.790  11.462  0.6739  0.1925 -0.4590
  908MOL0     H19811   3.931   1.801  11.283 -1.8429 -0.0450 -1.5384
  908MOL0     H19812   3.708   1.732  11.285 -1.3719  0.2279  0.4535
  908MOL0     H19813   3.720   1.902  11.230  0.0833 -0.5978  0.3572
  908MOL0     H19814   3.637   1.831  11.514 -1.6129  0.0184 -0.6582
  908MOL0     H19815   3.605   1.991  11.425 -1.8685  0.8214 -0.4590
  908MOL0     H19816   3.421   1.869  11.464  0.1305  0.0614  0.1611
  908MOL0     H19817   3.501   1.710  11.400 -0.3603 -0.3161  0.1876
  908MOL0     H19818   3.203   1.841  11.403 -1.6638 -1.5840 -0.4585
  908MOL0     H19819   2.983   1.920  11.314  0.7053  0.1129  1.0473
  908MOL0     H19820   2.913   2.150  10.691 -0.6765 -1.7956  1.7528
  908MOL0     H19821   2.728   2.287  10.609 -1.8833 -0.3902  0.6684
  908MOL0     H19822   2.495   2.528  10.913  1.2044  0.6554 -0.4357
  908MOL0     H19823   2.377   2.402  10.878  0.9322  0.2593  1.5240
  908MOL0     H19824   2.297   2.533  10.693 -0.8636  0.2887 -0.5100
  908MOL0     H19825   2.458   2.602  10.662 -1.6894 -1.0519 -1.7152
  908MOL0     H19826   2.350   2.784  10.768  0.1606 -0.3892  1.5013
  908MOL0     H19827   2.435   2.727  10.907 -1.2237 -5.1931  3.9994
  908MOL0     H19828   2.157   2.631  10.848  0.5611 -0.1117 -0.6118
  908MOL0     H19829   2.248   2.630  11.006  0.3564  2.5136  0.8141
  908MOL0     H19830   2.148   2.881  10.853 -2.4019  0.7123  2.0474
  908MOL0     H19831   2.263   2.883  10.996 -0.2883  0.1203 -0.4361
  908MOL0     H19832   2.075   2.752  11.096 -0.4427 -1.5301 -0.2593
  908MOL0     H19833   1.968   2.793  10.966 -0.8399  0.8950 -0.8560
  908MOL0     H19834   1.929   2.951  11.148 -0.3951  2.3232  0.0189
  908MOL0     H19835   2.102   2.985  11.161  1.1911 -4.5070  1.1222
  908MOL0     H19836   2.096   3.106  10.946 -0.3048 -1.5843 -1.0665
  908MOL0     H19837   1.979   3.158  11.076 -1.6511 -3.2082  3.2403
  908MOL0     H19838   2.605   2.339  11.028  0.8890  1.1749  0.8341
  908MOL0     H19839   2.796   2.223  11.088  2.8387 -0.3242  0.4022
  908MOL0     H19840   3.189   1.993  10.945 -0.2229 -1.4493 -0.0187
  908MOL0     H19841   3.391   1.926  11.020  0.1989  1.3230  0.7098
  908MOL0     H19842   4.393   2.974  10.966  1.9173  1.4038  0.3690
  908MOL0     H19843   4.510   2.981  10.750 -1.6845 -1.9804  1.8503
  908MOL0     H19844   4.701   3.320  10.500  0.5726  2.2202 -0.4486
  908MOL0     H19845   4.784   3.432  10.332 -0.8884  0.4057 -0.1180
  908MOL0     H19846   4.750   3.300   9.899  0.0368 -0.8629 -0.2076
  908MOL0     H19847   4.874   3.199   9.969  1.5498  0.6011 -0.5965
  908MOL0     H19848   4.934   3.494   9.900 -0.8168  0.6136  2.8222
  908MOL0     H19849   5.026   3.368   9.989 -1.0263  0.8702  0.6430
  908MOL0     H19850   4.938   3.270   9.722 -1.8472  0.9414  1.9801
  908MOL0     H19851   5.086   3.257   9.818  0.2516  1.4103  2.8101
  908MOL0     H19852   5.014   3.510   9.649  0.4334  0.1469 -1.8311
  908MOL0     H19853   5.170   3.473   9.727  0.2213 -0.9488 -0.6639
  908MOL0     H19854   5.219   3.338   9.337 -1.3486  1.8943 -0.8643
  908MOL0     H19855   4.642   3.137  10.043 -2.6836 -1.0469  1.6290
  908MOL0     H19856   4.548   3.013  10.219 -2.0800  1.5182  0.0788
  909MOL0     O19857   8.745  11.290   8.365  0.3591  0.2788  0.6981
  909MOL0     C19858   8.658  11.377   8.346  0.5309 -0.6359  0.4900
  909MOL0     O19859   8.670  11.510   8.369 -0.7597 -1.0802  0.9256
  909MOL0     C19860   8.791  11.566   8.412  0.8416  0.1910 -0.3542
  909MOL0     C19861   8.917  11.529   8.367 -0.6076 -0.0252 -0.2102
  909MOL0     C19862   9.028  11.598   8.420 -0.8959 -0.0712  0.0820
  909MOL0     C19863   9.032  11.701   8.509  0.9866  0.2851  0.0557
  909MOL0     O19864   9.152  11.767   8.501  0.0584  0.0534 -0.7516
  909MOL0     C19865   9.159  11.895   8.571 -0.5436  0.3033  0.0230
  909MOL0     C19866   9.303  11.947   8.574 -0.0915 -0.2798  0.1684
  909MOL0     C19867   9.355  11.965   8.427 -0.5462 -0.0573  0.4457
  909MOL0     C19868   9.500  11.911   8.409  0.7340 -0.1235 -0.8680
  909MOL0     C19869   9.556  11.966   8.281  0.2559  0.9113  0.5106
  909MOL0     C19870   9.705  11.920   8.269  0.8619 -0.1588 -0.4205
  909MOL0     C19871   9.789  11.994   8.151 -0.1854  0.2640  0.0539
  909MOL0     C19872   9.730  11.963   8.011 -0.0297 -0.4499 -0.3994
  909MOL0     N19873   9.815  12.025   7.910 -0.7541  0.3554 -0.0194
  909MOL0     C19874   9.946  11.987   7.878 -0.1823  0.0222 -0.2347
  909MOL0     C19875   9.983  12.070   7.774 -0.5696 -0.0429  0.3781
  909MOL0     C19876  10.115  12.061   7.699 -0.4322  0.2110  0.3970
  909MOL0     C19877  10.225  12.143   7.762 -0.4335  0.4987 -0.0153
  909MOL0     C19878  10.198  12.296   7.754  0.0161 -0.2092 -0.1169
  909MOL0     C19879  10.321  12.375   7.805 -0.2196  0.3541 -0.3955
  909MOL0     O19880  10.438  12.360   7.726  0.1108 -0.2993 -0.3570
  909MOL0     C19881  10.555  12.386   7.791 -0.1142 -0.8927 -0.7564
  909MOL0     C19882  10.662  12.308   7.755  0.1421  0.1752  0.2416
  909MOL0     C19883  10.781  12.337   7.812 -0.7266  0.4702  0.1751
  909MOL0     C19884  10.813  12.447   7.897  0.4405 -0.2719 -0.1587
  909MOL0     C19885  10.953  12.476   7.954  0.9189 -0.3725  0.6783
  909MOL0     O19886  10.964  12.549   8.070 -0.4725 -0.7631  0.2826
  909MOL0     C19887  11.087  12.569   8.139  0.5041 -0.0233  1.0396
  909MOL0     C19888  11.108  12.707   8.165  0.6262  0.6929 -0.6277
  909MOL0     C19889  11.223  12.741   8.237 -0.0409  0.3065  0.6061
  909MOL0     C19890  11.308  12.643   8.282 -0.8718 -0.0281 -0.7050
  909MOL0     O19891  11.418  12.696   8.348 -0.3369 -0.2601 -1.0139
  909MOL0     C19892  11.514  12.600   8.372 -0.1808  0.1780  0.1779
  909MOL0     C19893  11.642  12.656   8.433  0.4024 -0.2423 -0.0352
  909MOL0     C19894  11.737  12.557   8.503 -0.7473  0.6639  0.1363
  909MOL0     C19895  11.662  12.444   8.574  0.6549  0.9544 -0.1261
  909MOL0     C19896  11.766  12.357   8.645  0.0375  0.7831  0.4029
  909MOL0     C19897  11.862  12.428   8.751 -0.0403  0.8803  0.2282
  909MOL0     C19898  12.006  12.408   8.715  0.2249 -0.5006 -0.1032
  909MOL0     C19899  12.106  12.466   8.810  0.1286  0.0810  0.2359
  909MOL0    Cl19900  12.278  12.431   8.729 -0.1418 -0.0135  0.0584
  909MOL0     C19901  11.284  12.510   8.257 -0.5413  0.9155 -0.0077
  909MOL0     C19902  11.170  12.473   8.189 -0.4418  0.6294  0.3698
  909MOL0     O19903  11.048  12.423   7.894 -0.4307  0.1732  0.1506
  909MOL0     C19904  10.700  12.524   7.934  0.2299  0.2658  1.1420
  909MOL0     C19905  10.572  12.487   7.895 -0.5618  0.7499  0.1493
  909MOL0     N19906   9.887  12.164   7.765 -0.3235 -0.4054  0.6343
  909MOL0     N19907   9.780  12.127   7.828  0.2012 -0.4306  0.2863
  909MOL0     C19908   8.906  11.733   8.567  1.3200  0.1055  1.8447
  909MOL0     C19909   8.787  11.664   8.514  0.0667  0.0170  0.6737
  909MOL0     C19910   8.523  11.332   8.303 -0.1841 -0.5375 -0.1959
  909MOL0     C19911   8.495  11.194   8.280  0.4724  0.2589 -0.2159
  909MOL0     C19912   8.363  11.151   8.269  0.2286  0.6009  0.5347
  909MOL0     C19913   8.258  11.239   8.255 -0.4327  0.5034  0.2992
  909MOL0     O19914   8.137  11.184   8.215  0.1429  0.4511  0.4901
  909MOL0     C19915   8.039  11.279   8.171 -0.2576  0.0958  0.1851
  909MOL0     C19916   7.927  11.198   8.103  0.4584  0.2095  0.1948
  909MOL0     C19917   7.801  11.277   8.081  0.0369  0.0590 -0.2246
  909MOL0     C19918   7.720  11.204   7.975  1.2549 -0.5528 -0.9695
  909MOL0     C19919   7.607  11.289   7.939 -0.2900 -0.1522  0.4476
  909MOL0     C19920   7.497  11.345   7.916  0.8218  0.8310 -0.0196
  909MOL0     C19921   8.286  11.377   8.262 -0.0689  0.2200 -0.1265
  909MOL0     C19922   8.411  11.417   8.287 -0.9942 -0.3183 -0.0298
  909MOL0     H19923   8.924  11.459   8.285 -2.6419  0.4697 -0.8793
  909MOL0     H19924   9.127  11.574   8.382 -0.5501 -3.7822  2.8168
  909MOL0     H19925   9.134  11.868   8.674 -1.9269 -2.5728 -0.9427
  909MOL0     H19926   9.084  11.964   8.530  0.0989  1.1976  0.3391
  909MOL0     H19927   9.372  11.872   8.612  1.1019 -0.0378 -1.4378
  909MOL0     H19928   9.315  12.037   8.634 -0.1858  0.4802 -0.9266
  909MOL0     H19929   9.352  12.073   8.407 -3.4709 -0.0721  0.4515
  909MOL0     H19930   9.290  11.909   8.360  1.5368 -1.7300 -0.3011
  909MOL0     H19931   9.556  11.931   8.501 -0.9797  1.9188 -0.1935
  909MOL0     H19932   9.492  11.802   8.412 -0.3494 -0.0412  1.8851
  909MOL0     H19933   9.567  12.074   8.276  2.7086  0.6656 -0.9365
  909MOL0     H19934   9.495  11.936   8.195  2.5015 -0.6781 -0.6339
  909MOL0     H19935   9.707  11.811   8.261  0.5520 -0.1472 -0.6692
  909MOL0     H19936   9.754  11.950   8.363 -0.2247 -2.5936  1.0298
  909MOL0     H19937   9.787  12.102   8.165  1.5892  0.0913  2.1585
  909MOL0     H19938   9.891  11.955   8.158 -1.0929 -2.2827 -0.0452
  909MOL0     H19939   9.630  12.008   8.009  1.1207  2.2916 -1.1261
  909MOL0     H19940   9.729  11.857   7.985 -1.0845 -0.5151 -0.1331
  909MOL0     H19941  10.012  11.905   7.903  1.0953 -0.1380 -3.6176
  909MOL0     H19942  10.113  12.082   7.592  2.5324  1.4046  0.4737
  909MOL0     H19943  10.137  11.955   7.717 -2.2816 -0.6362 -1.8860
  909MOL0     H19944  10.319  12.121   7.710 -1.1460  0.4327 -1.3209
  909MOL0     H19945  10.239  12.120   7.868 -0.6661 -0.1123 -0.1153
  909MOL0     H19946  10.167  12.338   7.658 -0.4996  3.8483  1.6137
  909MOL0     H19947  10.113  12.313   7.821 -0.4537  1.5483 -1.0735
  909MOL0     H19948  10.330  12.330   7.904  0.9562 -0.6989 -0.9484
  909MOL0     H19949  10.285  12.478   7.796 -0.9626 -0.0572 -3.0990
  909MOL0     H19950  10.647  12.227   7.684 -2.7382  0.7749  0.0323
  909MOL0     H19951  10.863  12.274   7.778  0.3605  1.9333  0.0105
  909MOL0     H19952  11.032  12.778   8.131 -0.4713 -0.8910 -1.6301
  909MOL0     H19953  11.238  12.847   8.257 -2.8479  0.4986  2.1742
  909MOL0     H19954  11.544  12.530   8.293 -1.6095  1.7381 -1.8338
  909MOL0     H19955  11.452  12.546   8.445 -2.6155  0.0803 -1.8436
  909MOL0     H19956  11.600  12.736   8.496 -1.3312 -0.8305 -0.3954
  909MOL0     H19957  11.697  12.703   8.351 -1.3992  0.7533 -0.7398
  909MOL0     H19958  11.804  12.609   8.572  0.7046  0.1181 -0.8095
  909MOL0     H19959  11.797  12.516   8.421 -0.8508  2.0559 -0.6706
  909MOL0     H19960  11.583  12.481   8.640 -0.8939  0.7662 -1.7898
  909MOL0     H19961  11.609  12.383   8.500  0.7623  3.1739 -2.1640
  909MOL0     H19962  11.823  12.312   8.563 -0.4576  3.5872 -1.6348
  909MOL0     H19963  11.705  12.287   8.703 -0.6279 -0.4136 -1.6527
  909MOL0     H19964  11.844  12.382   8.849 -1.4564 -0.8200 -0.7709
  909MOL0     H19965  11.841  12.535   8.756 -0.5234  0.9818 -2.4441
  909MOL0     H19966  12.024  12.300   8.726  2.2062 -0.0564  1.6857
  909MOL0     H19967  12.027  12.420   8.609  3.5627 -1.4116  0.3415
  909MOL0     H19968  12.100  12.411   8.905 -2.8406 -1.5670 -0.7788
  909MOL0     H19969  12.085  12.573   8.821  1.0617  0.5740 -2.0956
  909MOL0     H19970  11.336  12.422   8.293  0.5235  1.4747 -0.1454
  909MOL0     H19971  11.140  12.370   8.168 -0.6258  1.0945 -2.0022
  909MOL0     H19972  10.704  12.610   8.000 -0.4411  0.0610  1.4579
  909MOL0     H19973  10.486  12.539   7.937 -2.7925 -1.8879 -0.8247
  909MOL0     H19974   8.891  11.811   8.641 -0.8010 -1.2220  2.9272
  909MOL0     H19975   8.685  11.685   8.542 -1.3868 -2.4346 -2.1664
  909MOL0     H19976   8.569  11.118   8.301 -1.2876 -1.2415  0.9792
  909MOL0     H19977   8.344  11.044   8.271  1.4188  0.1973 -2.9358
  909MOL0     H19978   8.083  11.342   8.093  4.2188 -1.0786  1.4421
  909MOL0     H19979   7.999  11.333   8.257 -0.9328 -1.6513  1.0121
  909MOL0     H19980   7.968  11.159   8.010 -0.1460 -1.4355  0.5910
  909MOL0     H19981   7.906  11.107   8.159  0.6629  0.6523  1.0144
  909MOL0     H19982   7.840  11.372   8.042  0.4201  0.3615  0.8656
  909MOL0     H19983   7.745  11.304   8.171 -3.3992  0.9221 -2.4238
  909MOL0     H19984   7.770  11.180   7.881  1.2201 -0.8739 -0.9078
  909MOL0     H19985   7.684  11.114   8.025  1.3587  0.1599  0.4438
  909MOL0     H19986   7.400  11.384   7.891  1.1912  0.3324 -2.4759
  909MOL0     H19987   8.209  11.452   8.257 -0.6881 -0.3408  0.7143
  909MOL0     H19988   8.434  11.523   8.298  0.8778 -0.6616 -0.3369
  910MOL0     O19989   3.689   5.449   7.233  0.3412  1.4542 -0.1832
  910MOL0     C19990   3.770   5.388   7.307 -0.0913  0.0407 -0.6204
  910MOL0     O19991   3.739   5.287   7.386 -0.4091 -0.3909 -0.5098
  910MOL0     C19992   3.611   5.222   7.373 -0.7634 -0.2880  0.6741
  910MOL0     C19993   3.488   5.297   7.360  0.2164 -0.3906  1.0615
  910MOL0     C19994   3.376   5.219   7.344 -0.0319 -0.0576  0.3281
  910MOL0     C19995   3.375   5.086   7.350  0.6363  0.6049 -0.0308
  910MOL0     O19996   3.265   4.998   7.350 -0.0863 -0.2975  0.3296
  910MOL0     C19997   3.131   5.044   7.314  0.1705 -0.2989 -0.1483
  910MOL0     C19998   3.127   5.027   7.164  0.7653  0.1129 -0.0301
  910MOL0     C19999   3.173   4.892   7.097  0.1203  0.0877 -0.6587
  910MOL0     C20000   3.195   4.919   6.948 -0.0298 -0.3230  0.4804
  910MOL0     C20001   3.242   4.780   6.889  0.6568 -0.6282 -0.0989
  910MOL0     C20002   3.294   4.788   6.747  0.3770  0.4674  0.3447
  910MOL0     C20003   3.358   4.647   6.702 -0.2221 -0.5166 -0.3042
  910MOL0     C20004   3.500   4.649   6.744  0.8975  0.2156 -0.3215
  910MOL0     N20005   3.589   4.556   6.681  0.2276  0.5951 -0.1847
  910MOL0     C20006   3.596   4.424   6.706 -0.7338  0.5291 -0.1653
  910MOL0     C20007   3.715   4.374   6.665 -0.6331 -0.5878 -0.5859
  910MOL0     C20008   3.766   4.229   6.687 -0.0996 -0.0114  0.6717
  910MOL0     C20009   3.874   4.226   6.787  0.5607  0.1628  0.0612
  910MOL0     C20010   4.012   4.221   6.733 -0.3883 -0.8295  1.0878
  910MOL0     C20011   4.049   4.350   6.659  0.4027 -0.2251  0.1471
  910MOL0     O20012   4.191   4.352   6.637  0.1942  0.4103  0.0206
  910MOL0     C20013   4.245   4.454   6.557  0.8007  1.0356 -0.0636
  910MOL0     C20014   4.169   4.530   6.471  0.4560 -0.2056 -0.0390
  910MOL0     C20015   4.233   4.634   6.396  0.4864 -0.5027 -0.6148
  910MOL0     C20016   4.373   4.650   6.401  0.3568 -0.2410 -0.5407
  910MOL0     C20017   4.432   4.752   6.326 -0.5996 -0.0292 -0.6291
  910MOL0     O20018   4.352   4.803   6.227 -0.2584 -0.6014  0.2580
  910MOL0     C20019   4.399   4.905   6.148  0.3016 -0.3964  0.4788
  910MOL0     C20020   4.421   5.042   6.200  0.8631 -0.1840 -0.3118
  910MOL0     C20021   4.463   5.145   6.113  0.4121  0.2660  0.7548
  910MOL0     C20022   4.484   5.123   5.977  0.3107  0.8473 -1.0484
  910MOL0     O20023   4.542   5.214   5.900 -0.3503 -0.8250  0.5609
  910MOL0     C20024   4.683   5.206   5.890 -0.6829 -0.2634  0.0571
  910MOL0     C20025   4.750   5.279   6.007  0.4178  0.0189 -0.8316
  910MOL0     C20026   4.900   5.267   5.979 -0.4911  0.0691 -0.1030
  910MOL0     C20027   4.985   5.353   6.082 -0.3458 -0.8912  0.4944
  910MOL0     C20028   5.111   5.411   6.007  0.3849 -0.1130 -0.9315
  910MOL0     C20029   5.230   5.318   5.974 -0.1125 -0.2411 -0.1612
  910MOL0     C20030   5.350   5.397   5.918  0.4276 -0.0147  0.6761
  910MOL0     C20031   5.460   5.298   5.853  1.0727 -0.3603 -0.2196
  910MOL0    Cl20032   5.606   5.410   5.823 -0.1813  0.3842  0.2999
  910MOL0     C20033   4.461   4.993   5.933 -1.2410  0.0730 -0.1347
  910MOL0     C20034   4.417   4.880   6.014 -0.1515 -0.0906 -0.3515
  910MOL0     O20035   4.548   4.788   6.352  0.4589  0.5267 -0.2031
  910MOL0     C20036   4.447   4.560   6.485  0.4332  1.2626 -0.8229
  910MOL0     C20037   4.378   4.464   6.562 -0.2091 -0.2282  0.2560
  910MOL0     N20038   3.777   4.476   6.598 -0.0334 -0.1310  0.6332
  910MOL0     N20039   3.699   4.588   6.606 -0.1808 -0.2431  0.2544
  910MOL0     C20040   3.486   5.015   7.374 -0.2408  0.2702  0.1392
  910MOL0     C20041   3.608   5.086   7.385  0.1365 -0.7265 -0.1350
  910MOL0     C20042   3.920   5.428   7.305 -0.3541 -0.3616  0.2478
  910MOL0     C20043   4.023   5.343   7.352 -0.0036  0.3993  0.0755
  910MOL0     C20044   4.159   5.390   7.350  0.1059 -0.0012  0.0318
  910MOL0     C20045   4.187   5.519   7.291  0.9076  0.7745 -0.6106
  910MOL0     O20046   4.320   5.554   7.271  0.6164 -0.2254 -0.3092
  910MOL0     C20047   4.423   5.534   7.372  0.0893  0.1040 -0.6720
  910MOL0     C20048   4.566   5.495   7.330  0.5085 -0.1904  0.3783
  910MOL0     C20049   4.571   5.362   7.238 -0.8422 -0.5258 -0.3835
  910MOL0     C20050   4.715   5.304   7.217 -0.3801  0.1830 -0.4711
  910MOL0     C20051   4.693   5.177   7.145  0.6193  0.2681 -0.2980
  910MOL0     C20052   4.680   5.065   7.098 -0.4603  0.2463  0.2586
  910MOL0     C20053   4.083   5.591   7.232  0.5880 -0.4279  0.4536
  910MOL0     C20054   3.950   5.548   7.242  0.4194 -0.5077  0.1097
  910MOL0     H20055   3.486   5.405   7.352 -2.0129 -0.1786  3.4200
  910MOL0     H20056   3.279   5.270   7.341 -0.7472 -1.2260  1.9461
  910MOL0     H20057   3.118   5.147   7.346  0.8292 -0.5453  0.9555
  910MOL0     H20058   3.050   4.985   7.358  1.2243 -0.3558  1.8273
  910MOL0     H20059   3.190   5.107   7.126 -0.6287  0.7967 -1.0181
  910MOL0     H20060   3.028   5.061   7.133 -0.4522  0.4477  3.7250
  910MOL0     H20061   3.102   4.814   7.125  0.3049  0.5222  1.1008
  910MOL0     H20062   3.272   4.883   7.142  0.3123  3.0280 -0.3064
  910MOL0     H20063   3.111   4.957   6.888  0.6070 -0.2226 -0.3752
  910MOL0     H20064   3.272   4.997   6.951  1.2520 -1.5717  1.9275
  910MOL0     H20065   3.155   4.714   6.892  0.5066 -0.4185  0.5494
  910MOL0     H20066   3.310   4.731   6.960  3.6892  3.1828 -0.0179
  910MOL0     H20067   3.366   4.870   6.737 -0.8176  1.3372 -1.7603
  910MOL0     H20068   3.210   4.808   6.679  0.3746 -1.8146 -0.3890
  910MOL0     H20069   3.306   4.558   6.737  0.3496 -2.1074 -3.1524
  910MOL0     H20070   3.349   4.649   6.593 -3.4540  0.4794 -0.1104
  910MOL0     H20071   3.506   4.616   6.848  1.6400 -0.1515 -0.4685
  910MOL0     H20072   3.537   4.752   6.747 -0.3014  0.6329  1.3793
  910MOL0     H20073   3.526   4.381   6.777 -0.3743  3.0513  1.8583
  910MOL0     H20074   3.801   4.183   6.594 -0.8382  2.0902 -0.7268
  910MOL0     H20075   3.678   4.180   6.728 -0.9540  0.0468 -0.9865
  910MOL0     H20076   3.862   4.132   6.840  1.4953 -0.8228 -1.3766
  910MOL0     H20077   3.873   4.307   6.860  2.7225  0.3925 -0.0787
  910MOL0     H20078   4.086   4.202   6.812  1.8232 -0.3469 -0.7373
  910MOL0     H20079   4.025   4.145   6.655  0.9112 -1.5808  1.9759
  910MOL0     H20080   4.021   4.441   6.714 -0.1419  0.9720 -2.0152
  910MOL0     H20081   3.995   4.347   6.565 -1.2811 -0.7397  1.0947
  910MOL0     H20082   4.061   4.520   6.472  0.2092 -0.5092  6.1237
  910MOL0     H20083   4.172   4.696   6.332 -0.3978 -0.5426  0.1627
  910MOL0     H20084   4.419   5.064   6.307 -1.1240 -0.5440 -0.2449
  910MOL0     H20085   4.489   5.248   6.133  0.1488  0.9830 -2.1583
  910MOL0     H20086   4.710   5.245   5.791 -2.0558 -0.9846 -0.6297
  910MOL0     H20087   4.725   5.105   5.891 -0.1626 -0.0483  0.9051
  910MOL0     H20088   4.728   5.237   6.105  3.2138  2.8935  1.2090
  910MOL0     H20089   4.722   5.385   6.008  0.3326 -0.0055 -0.6775
  910MOL0     H20090   4.916   5.301   5.876  0.1045 -0.8403 -0.3188
  910MOL0     H20091   4.931   5.162   5.977  1.0856  0.4473  1.5395
  910MOL0     H20092   4.924   5.436   6.117  2.5387  1.6746 -0.1675
  910MOL0     H20093   5.020   5.293   6.167  3.3302  5.2117  3.9763
  910MOL0     H20094   5.139   5.487   6.080 -0.7918 -1.1796  0.7164
  910MOL0     H20095   5.081   5.452   5.911  1.5545  0.5045 -1.0434
  910MOL0     H20096   5.194   5.243   5.903  3.2745 -3.1674  0.9348
  910MOL0     H20097   5.248   5.252   6.059 -0.2321 -2.7043 -1.9288
  910MOL0     H20098   5.311   5.476   5.853 -2.6038  0.1398  2.5256
  910MOL0     H20099   5.402   5.452   5.997 -1.5484  5.3315 -1.2506
  910MOL0     H20100   5.421   5.248   5.764  0.1775 -0.5005  0.2370
  910MOL0     H20101   5.485   5.213   5.919  1.8683 -0.1598 -0.2515
  910MOL0     H20102   4.479   4.977   5.827  0.8243  0.4090  0.1139
  910MOL0     H20103   4.409   4.780   5.972 -0.2758  0.1424 -0.8959
  910MOL0     H20104   4.553   4.572   6.500  0.8415 -1.1299 -1.5005
  910MOL0     H20105   4.425   4.396   6.633 -1.2923  0.4303  1.6436
  910MOL0     H20106   3.502   4.908   7.380  0.4472  0.4337  1.4190
  910MOL0     H20107   3.702   5.035   7.404  1.1842  0.6761 -1.2995
  910MOL0     H20108   3.989   5.247   7.390  0.5132  0.2464  0.1590
  910MOL0     H20109   4.231   5.317   7.386 -1.4102  0.4502  4.7401
  910MOL0     H20110   4.396   5.456   7.444  1.5357 -0.1963 -0.4288
  910MOL0     H20111   4.431   5.622   7.437 -0.3610 -0.0935 -0.3429
  910MOL0     H20112   4.619   5.577   7.280  2.8649  0.2850  3.3743
  910MOL0     H20113   4.630   5.479   7.417  0.4880 -1.1913  0.2217
  910MOL0     H20114   4.516   5.381   7.146 -1.4948 -1.8573 -0.2861
  910MOL0     H20115   4.508   5.297   7.298  1.5381 -0.5075  2.3808
  910MOL0     H20116   4.765   5.378   7.155 -2.7300 -0.0781 -2.8583
  910MOL0     H20117   4.770   5.291   7.311 -0.0071 -0.0456 -0.7188
  910MOL0     H20118   4.674   4.973   7.043  2.9456  0.6909 -1.0494
  910MOL0     H20119   4.114   5.673   7.168 -0.4499 -0.7478 -0.4985
  910MOL0     H20120   3.867   5.609   7.209  0.8473  0.1420  0.2108
  911MOL0     O20121   8.784   6.006   8.491  0.3933 -0.0680 -0.3050
  911MOL0     C20122   8.720   6.006   8.385 -0.4606 -0.2492 -0.3852
  911MOL0     O20123   8.608   5.932   8.358 -0.3236  0.1331 -0.1966
  911MOL0     C20124   8.549   5.868   8.470 -0.5048  0.6893  0.5099
  911MOL0     C20125   8.414   5.893   8.496  0.3272  0.6034 -0.3818
  911MOL0     C20126   8.334   5.830   8.588 -0.7554 -0.6319  0.8588
  911MOL0     C20127   8.392   5.736   8.668 -0.6893  0.3938  0.4079
  911MOL0     O20128   8.315   5.698   8.776  0.0567  0.2893 -0.4919
  911MOL0     C20129   8.373   5.635   8.890 -0.6393  0.5187 -0.0067
  911MOL0     C20130   8.278   5.637   9.016 -1.1500  0.3632  0.5138
  911MOL0     C20131   8.148   5.559   9.000  0.2587 -0.5698  0.2164
  911MOL0     C20132   8.079   5.549   9.130  0.0133 -0.0477 -0.5772
  911MOL0     C20133   7.947   5.475   9.109 -0.8138 -0.2854  0.5124
  911MOL0     C20134   7.836   5.547   9.026  0.4529 -1.0018 -0.8100
  911MOL0     C20135   7.802   5.476   8.894 -0.0854  0.3570 -0.4681
  911MOL0     C20136   7.741   5.578   8.803  0.3071  0.1740  0.1644
  911MOL0     N20137   7.639   5.656   8.878 -0.4492 -0.4198  0.1068
  911MOL0     C20138   7.631   5.794   8.907 -0.4628 -0.4922  0.1136
  911MOL0     C20139   7.514   5.815   8.972  0.3076  0.2875 -0.0628
  911MOL0     C20140   7.460   5.944   9.031 -0.1293 -0.1023  0.2269
  911MOL0     C20141   7.305   5.947   9.004 -0.1027 -1.5489  0.6935
  911MOL0     C20142   7.255   6.088   9.019  1.2476 -0.3514 -1.0160
  911MOL0     C20143   7.107   6.112   9.019  0.3796 -1.0105 -0.7284
  911MOL0     O20144   7.080   6.083   8.879 -0.0363 -0.2753  0.1659
  911MOL0     C20145   6.952   6.113   8.834  0.7786 -0.2559  0.7210
  911MOL0     C20146   6.931   6.174   8.709 -0.3738  0.6145 -0.9954
  911MOL0     C20147   6.809   6.192   8.652  0.7735 -0.0418 -0.2182
  911MOL0     C20148   6.692   6.140   8.714 -0.0826  0.0907 -0.3009
  911MOL0     C20149   6.568   6.130   8.641 -0.6456 -0.4296 -0.4547
  911MOL0     O20150   6.574   6.173   8.507 -0.2730  0.5790 -0.2119
  911MOL0     C20151   6.464   6.163   8.425 -0.1553 -0.3567 -0.9393
  911MOL0     C20152   6.341   6.225   8.455 -0.7611  0.4362 -1.3307
  911MOL0     C20153   6.237   6.208   8.365 -1.4857 -0.3385  0.5554
  911MOL0     C20154   6.245   6.127   8.251 -0.1996  0.5356  0.2974
  911MOL0     O20155   6.137   6.107   8.162 -0.6156 -0.0341 -1.1986
  911MOL0     C20156   5.999   6.129   8.195  0.3085 -0.2894  0.9674
  911MOL0     C20157   5.904   6.124   8.068 -0.4737  0.2607 -0.0666
  911MOL0     C20158   5.775   6.203   8.107 -1.3026  0.3453 -0.7182
  911MOL0     C20159   5.662   6.142   8.024  0.3254 -0.2813  0.9955
  911MOL0     C20160   5.688   6.175   7.872  0.3273 -0.7323  0.4349
  911MOL0     C20161   5.574   6.158   7.770  0.0371  0.5136 -0.2418
  911MOL0     C20162   5.529   6.019   7.761  0.3698  0.3360  0.2148
  911MOL0     C20163   5.409   6.003   7.661  0.1607  0.0350 -0.6745
  911MOL0    Cl20164   5.470   6.058   7.496 -0.1182  0.7824 -0.2454
  911MOL0     C20165   6.376   6.084   8.215  0.8368  0.2385 -0.0395
  911MOL0     C20166   6.482   6.095   8.307 -0.1728 -0.2385  0.2722
  911MOL0     O20167   6.466   6.106   8.698 -0.3854  0.1096  0.2909
  911MOL0     C20168   6.706   6.067   8.835 -0.2176 -0.0163 -0.4418
  911MOL0     C20169   6.832   6.061   8.890 -0.2191  0.7482  0.2431
  911MOL0     N20170   7.450   5.693   8.973  0.2783  0.3172  0.3238
  911MOL0     N20171   7.527   5.601   8.927 -0.0788  0.2436  0.9034
  911MOL0     C20172   8.531   5.698   8.654  0.8674 -0.4163  0.5686
  911MOL0     C20173   8.604   5.761   8.549  0.6102 -0.5319  0.8490
  911MOL0     C20174   8.770   6.090   8.272 -0.2267 -0.4910 -0.5040
  911MOL0     C20175   8.672   6.142   8.187 -0.2485  1.0556 -0.4158
  911MOL0     C20176   8.717   6.226   8.085  0.6624 -0.2471  0.6220
  911MOL0     C20177   8.851   6.270   8.079  1.0096  0.1300 -0.5693
  911MOL0     O20178   8.884   6.337   7.965  0.0750 -0.7256  0.4864
  911MOL0     C20179   8.992   6.433   7.979  0.4713  0.0582  0.2947
  911MOL0     C20180   9.129   6.374   7.934 -0.2349 -0.4469  0.1230
  911MOL0     C20181   9.201   6.437   7.820 -0.3949 -0.6240  0.0044
  911MOL0     C20182   9.355   6.421   7.817 -0.6153  0.7727  0.4416
  911MOL0     C20183   9.437   6.550   7.818  0.2760 -0.3874  0.7889
  911MOL0     C20184   9.504   6.648   7.813 -0.2579 -0.1993  0.0974
  911MOL0     C20185   8.934   6.212   8.172 -0.6931 -0.1460 -0.2428
  911MOL0     C20186   8.894   6.116   8.270  0.4689 -0.1081 -0.5689
  911MOL0     H20187   8.369   5.964   8.427 -0.2240  0.3134 -0.3322
  911MOL0     H20188   8.235   5.871   8.606 -0.9640 -1.3389  1.4108
  911MOL0     H20189   8.467   5.686   8.913  2.3812 -4.1100 -0.7226
  911MOL0     H20190   8.401   5.533   8.861 -0.4919 -0.5644  3.4506
  911MOL0     H20191   8.257   5.744   9.029 -0.7769  0.8520 -2.2432
  911MOL0     H20192   8.324   5.603   9.108 -2.1986 -1.8841  0.2749
  911MOL0     H20193   8.182   5.460   8.968  0.5552  0.0735 -1.5527
  911MOL0     H20194   8.083   5.603   8.923 -0.3521  1.2009  1.6784
  911MOL0     H20195   8.142   5.488   9.196  1.1540  0.5618 -1.0694
  911MOL0     H20196   8.055   5.647   9.171  0.0578  0.0203 -0.7150
  911MOL0     H20197   7.903   5.467   9.209 -3.6863 -1.4635 -0.7395
  911MOL0     H20198   7.975   5.377   9.070  3.7952  0.5004  1.2389
  911MOL0     H20199   7.873   5.650   9.020 -2.0999 -0.0384 -1.0222
  911MOL0     H20200   7.748   5.548   9.091 -0.5639  5.9396 -1.5086
  911MOL0     H20201   7.892   5.434   8.848  0.9394 -0.9775  2.5059
  911MOL0     H20202   7.735   5.394   8.923  0.3623 -1.3976 -3.7922
  911MOL0     H20203   7.697   5.525   8.718 -1.5243  2.1727 -0.2312
  911MOL0     H20204   7.818   5.649   8.771  1.1171 -1.1591 -0.9770
  911MOL0     H20205   7.706   5.873   8.896  0.4121 -0.8764  2.6248
  911MOL0     H20206   7.502   6.028   8.975 -3.9298  1.6088 -0.3753
  911MOL0     H20207   7.480   5.952   9.138 -2.7480 -1.1659  0.8994
  911MOL0     H20208   7.251   5.877   9.067 -2.1259  1.4892  2.6312
  911MOL0     H20209   7.283   5.925   8.899 -3.5903  2.1631  0.3922
  911MOL0     H20210   7.294   6.138   9.108  1.2795 -1.9698 -0.0688
  911MOL0     H20211   7.285   6.151   8.936 -2.7529  1.6284 -1.1857
  911MOL0     H20212   7.063   6.212   9.032  1.1685 -0.5954 -1.1902
  911MOL0     H20213   7.050   6.045   9.083 -1.2693  1.3506  0.4391
  911MOL0     H20214   7.013   6.230   8.666 -0.2671  0.6506 -0.7468
  911MOL0     H20215   6.797   6.238   8.554 -0.9132 -2.1972 -1.1134
  911MOL0     H20216   6.335   6.266   8.555 -0.7351 -3.2497  0.3543
  911MOL0     H20217   6.143   6.257   8.389 -0.5079  0.9649  1.9274
  911MOL0     H20218   5.983   6.228   8.237 -2.2977 -0.5029  0.6347
  911MOL0     H20219   5.969   6.050   8.265 -2.7054  0.3042  0.4801
  911MOL0     H20220   5.887   6.019   8.044 -1.3445  0.2238  0.6913
  911MOL0     H20221   5.964   6.167   7.987 -1.9819 -2.2356 -2.7116
  911MOL0     H20222   5.801   6.306   8.083  0.2259  0.0543 -0.4326
  911MOL0     H20223   5.755   6.199   8.215  1.6547  0.2663 -0.0975
  911MOL0     H20224   5.646   6.035   8.037 -1.6879 -0.2711 -0.7620
  911MOL0     H20225   5.566   6.184   8.057  0.5254  0.4106  0.7200
  911MOL0     H20226   5.764   6.108   7.832  0.8544 -0.0953  0.3624
  911MOL0     H20227   5.704   6.283   7.873  2.7617 -1.0410  2.0413
  911MOL0     H20228   5.608   6.179   7.668 -0.6539 -3.8734 -1.5606
  911MOL0     H20229   5.491   6.223   7.800 -0.0306 -1.2674  4.1824
  911MOL0     H20230   5.607   5.955   7.718  2.1566  1.7280  1.2462
  911MOL0     H20231   5.498   5.990   7.862  0.5076 -1.8870 -0.3260
  911MOL0     H20232   5.327   6.074   7.678 -2.6488 -1.5758 -5.5278
  911MOL0     H20233   5.371   5.901   7.659 -0.5781  0.3127 -1.3484
  911MOL0     H20234   6.377   6.044   8.115 -3.7501 -2.2013  0.5913
  911MOL0     H20235   6.571   6.043   8.274  1.8380  2.0915  1.6178
  911MOL0     H20236   6.620   6.016   8.877 -0.1937 -1.4288 -2.0043
  911MOL0     H20237   6.845   5.985   8.965  0.7653  0.0504 -0.6094
  911MOL0     H20238   8.566   5.621   8.722  0.6092 -0.9858  0.0639
  911MOL0     H20239   8.708   5.731   8.538  0.9068  1.1218 -1.9359
  911MOL0     H20240   8.573   6.098   8.195  0.2614  0.2364  3.1551
  911MOL0     H20241   8.641   6.251   8.012  1.2133  0.8619  0.4129
  911MOL0     H20242   8.990   6.483   8.076 -2.8111  1.9059 -0.5362
  911MOL0     H20243   8.969   6.518   7.913  3.7041  0.6760 -0.2082
  911MOL0     H20244   9.199   6.400   8.014  0.8772 -0.4690 -0.8099
  911MOL0     H20245   9.125   6.266   7.922  1.4909 -0.6352  0.9918
  911MOL0     H20246   9.198   6.546   7.826  2.4073 -0.3565 -1.7174
  911MOL0     H20247   9.160   6.410   7.723 -4.1053 -0.1103  1.2762
  911MOL0     H20248   9.386   6.351   7.896 -0.1715 -2.1061 -2.1099
  911MOL0     H20249   9.377   6.372   7.722 -1.0667 -0.4851  0.9622
  911MOL0     H20250   9.580   6.723   7.813 -0.2601 -0.1744  1.3034
  911MOL0     H20251   9.039   6.240   8.166 -0.7018  0.6123  2.2711
  911MOL0     H20252   8.964   6.083   8.346  1.6440  3.1716 -0.0870
  912MOL0     O20253   4.382   1.008   6.442  0.1923  0.7608  0.1520
  912MOL0     C20254   4.330   0.965   6.340  0.1380 -0.2042  0.5774
  912MOL0     O20255   4.201   0.941   6.317  0.4816 -0.1217  0.6652
  912MOL0     C20256   4.104   0.983   6.405  1.1808  0.5959 -0.1028
  912MOL0     C20257   3.970   0.934   6.371  0.3435  0.1773  1.3039
  912MOL0     C20258   3.857   0.977   6.446 -0.3540  0.1034  0.4011
  912MOL0     C20259   3.873   1.063   6.554  1.3544 -0.4427 -0.8569
  912MOL0     O20260   3.776   1.096   6.649 -0.8820 -0.3310 -0.6778
  912MOL0     C20261   3.660   1.015   6.654  0.3950  0.6956  0.0990
  912MOL0     C20262   3.565   1.070   6.765 -0.5647 -0.3226  0.3849
  912MOL0     C20263   3.562   1.219   6.779 -0.5489  0.4377  0.2218
  912MOL0     C20264   3.510   1.267   6.910  1.2489  0.2608 -0.3675
  912MOL0     C20265   3.460   1.419   6.883  0.1964  0.6617  0.1065
  912MOL0     C20266   3.442   1.492   7.012 -0.2440 -0.8723  0.1717
  912MOL0     C20267   3.393   1.644   7.006 -0.3339 -0.2127  0.4473
  912MOL0     C20268   3.247   1.662   6.969 -0.1376  0.5100  0.5560
  912MOL0     N20269   3.220   1.810   6.948  1.0002  0.1014 -0.3476
  912MOL0     C20270   3.143   1.898   7.017  0.2885  0.5567 -0.2382
  912MOL0     C20271   3.162   2.014   6.947  0.0572 -0.0117 -0.4752
  912MOL0     C20272   3.116   2.146   7.000  0.0465 -0.0107  0.9319
  912MOL0     C20273   3.209   2.210   7.106 -0.5294  0.6925 -0.0996
  912MOL0     C20274   3.142   2.322   7.186  0.2142 -0.4308  0.8100
  912MOL0     C20275   3.111   2.450   7.093 -0.5447  0.0431 -0.5316
  912MOL0     O20276   3.067   2.566   7.173 -0.5967  1.0641  1.2201
  912MOL0     C20277   3.149   2.661   7.215 -0.3621  0.2061  0.7876
  912MOL0     C20278   3.288   2.655   7.242 -1.2860  0.1274 -0.5003
  912MOL0     C20279   3.356   2.759   7.313 -0.3063 -0.9040 -0.8799
  912MOL0     C20280   3.282   2.871   7.362  0.4911  0.6149 -0.4177
  912MOL0     C20281   3.340   2.984   7.442  0.6616 -0.2453 -0.5028
  912MOL0     O20282   3.248   3.047   7.518  0.3974  0.2360 -0.5808
  912MOL0     C20283   3.292   3.139   7.611  0.6173 -0.2376 -0.8093
  912MOL0     C20284   3.233   3.262   7.616 -0.1994 -0.4261  1.1448
  912MOL0     C20285   3.262   3.360   7.715  0.3371 -0.0564  0.4304
  912MOL0     C20286   3.372   3.337   7.801  0.0525  0.3353 -1.0820
  912MOL0     O20287   3.413   3.407   7.915  0.2233 -0.2715  0.0709
  912MOL0     C20288   3.327   3.482   7.997 -0.0519 -0.0443 -0.7382
  912MOL0     C20289   3.345   3.625   7.951 -0.7318  0.0894  0.2334
  912MOL0     C20290   3.238   3.717   8.019  0.0216  0.8568  0.1113
  912MOL0     C20291   3.238   3.858   7.964 -0.1712  0.8292  0.2061
  912MOL0     C20292   3.158   3.955   8.053  0.9727  0.1935  0.4919
  912MOL0     C20293   3.152   4.104   8.015 -0.0605 -0.3577  0.4577
  912MOL0     C20294   3.115   4.134   7.869 -0.1356 -0.0255  1.0193
  912MOL0     C20295   3.245   4.146   7.784  0.8502  0.7940  0.0876
  912MOL0    Cl20296   3.318   4.303   7.830  0.4127  0.0424 -0.4676
  912MOL0     C20297   3.432   3.208   7.798  0.1583 -0.5198 -0.4521
  912MOL0     C20298   3.390   3.119   7.715  0.5980 -0.1760  0.9493
  912MOL0     O20299   3.459   3.001   7.436  0.1783  0.2253 -0.3248
  912MOL0     C20300   3.145   2.874   7.328 -0.3586 -0.4018 -0.7146
  912MOL0     C20301   3.085   2.773   7.258  0.4215  0.2283 -0.1275
  912MOL0     N20302   3.240   1.992   6.835 -0.6558  0.8001  0.1192
  912MOL0     N20303   3.267   1.866   6.834 -0.1164  0.0270 -0.4665
  912MOL0     C20304   4.007   1.114   6.583  0.9712  1.4715  0.0903
  912MOL0     C20305   4.113   1.072   6.510 -1.1180  0.8478 -0.3961
  912MOL0     C20306   4.427   0.924   6.239 -0.2753 -0.8398 -0.2349
  912MOL0     C20307   4.401   0.954   6.102 -0.6074 -0.3598  0.1808
  912MOL0     C20308   4.502   0.939   6.005  0.8724 -0.0392  0.0409
  912MOL0     C20309   4.622   0.863   6.037 -0.4202  0.3917 -0.0180
  912MOL0     O20310   4.705   0.867   5.933  0.4013 -0.5018 -0.5103
  912MOL0     C20311   4.841   0.838   5.958 -0.0398 -0.7899 -0.4224
  912MOL0     C20312   4.941   0.849   5.839 -0.0540 -0.9572 -0.2004
  912MOL0     C20313   4.902   0.940   5.729 -0.4218  0.1004  1.3249
  912MOL0     C20314   4.988   0.938   5.602 -0.0718  0.0693  0.6525
  912MOL0     C20315   5.135   0.944   5.628 -0.0754  0.8006 -0.1392
  912MOL0     C20316   5.260   0.944   5.622 -0.1486  0.4967 -1.0581
  912MOL0     C20317   4.654   0.840   6.176  0.0647 -0.1521  0.0111
  912MOL0     C20318   4.557   0.876   6.275  0.0726  0.5591  0.0211
  912MOL0     H20319   3.951   0.865   6.290 -1.3259  0.2824  1.5671
  912MOL0     H20320   3.759   0.942   6.414  0.3351  1.2332 -3.3944
  912MOL0     H20321   3.688   0.914   6.686 -1.1845  0.7161  1.7297
  912MOL0     H20322   3.587   1.022   6.572 -2.7127  1.1445  2.6755
  912MOL0     H20323   3.596   1.034   6.864 -3.3102 -0.6921  1.2099
  912MOL0     H20324   3.467   1.035   6.731  0.5667 -3.6577  0.1860
  912MOL0     H20325   3.493   1.266   6.707  0.2488  2.6073  0.8100
  912MOL0     H20326   3.658   1.271   6.768 -0.1752 -0.2404  0.2408
  912MOL0     H20327   3.440   1.189   6.942  2.0580  0.5147  2.1779
  912MOL0     H20328   3.592   1.267   6.981 -0.2387 -0.4692  1.4325
  912MOL0     H20329   3.363   1.422   6.831 -1.0808 -0.7984  2.2333
  912MOL0     H20330   3.533   1.473   6.823 -1.4126  4.5960  1.3616
  912MOL0     H20331   3.537   1.493   7.065  1.2778 -0.0908 -2.3671
  912MOL0     H20332   3.375   1.433   7.076  0.7750 -1.6834  0.5074
  912MOL0     H20333   3.407   1.707   7.094 -0.6608 -0.1227  0.4340
  912MOL0     H20334   3.451   1.688   6.924  0.4582 -0.0665  1.0791
  912MOL0     H20335   3.166   1.628   7.035 -1.5492 -2.0042 -2.2149
  912MOL0     H20336   3.229   1.618   6.870  0.4649 -1.1222  1.1377
  912MOL0     H20337   3.086   1.881   7.108 -0.9299  2.0788 -0.6697
  912MOL0     H20338   3.014   2.133   7.039 -1.3076  2.9420 -1.2406
  912MOL0     H20339   3.111   2.219   6.919  0.1799 -1.0362 -0.0303
  912MOL0     H20340   3.300   2.244   7.056  0.6442  0.1716  1.5832
  912MOL0     H20341   3.239   2.129   7.174  0.4017 -0.1997 -1.5180
  912MOL0     H20342   3.055   2.284   7.241 -0.6100  0.3217  0.0383
  912MOL0     H20343   3.217   2.359   7.257 -0.5021  0.6338  1.0223
  912MOL0     H20344   3.031   2.429   7.021 -0.3631  0.5672 -0.8966
  912MOL0     H20345   3.207   2.479   7.048  0.8007  2.7076  3.5519
  912MOL0     H20346   3.345   2.568   7.213 -1.3594  0.5514 -2.0037
  912MOL0     H20347   3.463   2.747   7.327 -0.1991  0.6383 -0.2415
  912MOL0     H20348   3.167   3.287   7.533 -1.6565 -1.0421  2.0635
  912MOL0     H20349   3.208   3.454   7.726 -0.2790 -0.2362 -0.8173
  912MOL0     H20350   3.355   3.471   8.102 -0.5558  0.8604 -0.5009
  912MOL0     H20351   3.222   3.456   7.986  0.1914 -1.8191  0.6826
  912MOL0     H20352   3.320   3.622   7.845 -0.0136 -3.1496  0.0556
  912MOL0     H20353   3.447   3.660   7.967 -1.2628  1.5332  0.6106
  912MOL0     H20354   3.258   3.719   8.127  2.0570 -3.0421  0.0064
  912MOL0     H20355   3.137   3.676   8.014  1.2303 -2.7496  2.0421
  912MOL0     H20356   3.344   3.885   7.958  0.3552 -0.9899  0.7474
  912MOL0     H20357   3.185   3.861   7.868  0.9030 -1.7371 -0.5380
  912MOL0     H20358   3.189   3.942   8.157 -4.0337 -2.1761  1.9814
  912MOL0     H20359   3.055   3.920   8.065  0.9114  1.0529  3.3808
  912MOL0     H20360   3.246   4.152   8.044  2.9558 -1.7389 -5.5080
  912MOL0     H20361   3.080   4.156   8.079 -0.8445  4.1743 -3.5154
  912MOL0     H20362   3.045   4.060   7.831  0.5110  1.2746 -3.1967
  912MOL0     H20363   3.056   4.225   7.854 -1.0402 -1.2287 -5.7997
  912MOL0     H20364   3.217   4.152   7.678  0.0973  2.2958  0.3417
  912MOL0     H20365   3.312   4.063   7.804  2.9249  2.5622  0.7995
  912MOL0     H20366   3.496   3.171   7.877 -2.1667 -1.7864  0.9534
  912MOL0     H20367   3.432   3.019   7.720 -4.0100 -2.4452  0.0555
  912MOL0     H20368   3.086   2.957   7.365  4.7785  2.2936  2.6236
  912MOL0     H20369   2.979   2.785   7.241 -0.1603 -2.4581  1.0573
  912MOL0     H20370   4.014   1.167   6.677  0.5782  1.5800  0.0588
  912MOL0     H20371   4.205   1.111   6.554 -0.1048 -0.6864 -1.0630
  912MOL0     H20372   4.299   0.985   6.080 -0.7487 -0.4908  0.6472
  912MOL0     H20373   4.484   0.968   5.902  1.1264  0.7521  0.2128
  912MOL0     H20374   4.857   0.743   6.011  1.3924  0.3344  1.2724
  912MOL0     H20375   4.883   0.915   6.023  2.4727 -0.5400 -2.1908
  912MOL0     H20376   5.031   0.891   5.884  0.6107  2.0684 -3.8116
  912MOL0     H20377   4.961   0.754   5.788  1.2488 -0.3155 -0.9580
  912MOL0     H20378   4.916   1.035   5.780 -0.3438  0.1182  1.2703
  912MOL0     H20379   4.796   0.922   5.711 -0.3771  0.0586  1.0964
  912MOL0     H20380   4.973   0.849   5.541  0.5996  0.5596 -0.2450
  912MOL0     H20381   4.969   1.028   5.543 -0.3230 -0.9427 -0.8377
  912MOL0     H20382   5.366   0.949   5.636 -0.3482  2.2408  0.0165
  912MOL0     H20383   4.752   0.805   6.207  0.1465  1.1998  1.4165
  912MOL0     H20384   4.584   0.851   6.377 -1.3730  0.6028  0.4398
  913MOL0     O20385   2.649   1.293   5.055 -0.1442  0.6830  0.0410
  913MOL0     C20386   2.694   1.387   4.987 -0.6757  0.1524  0.0111
  913MOL0     O20387   2.624   1.471   4.898  0.4915  0.4694 -0.1494
  913MOL0     C20388   2.487   1.470   4.880 -0.1777  0.1102  0.0076
  913MOL0     C20389   2.441   1.503   4.756 -0.4704 -0.5855  0.0837
  913MOL0     C20390   2.304   1.477   4.716 -0.2226 -0.2839 -0.0557
  913MOL0     C20391   2.205   1.436   4.810  0.3220  0.4239  0.7415
  913MOL0     O20392   2.072   1.405   4.791  0.1888  0.1763 -0.2649
  913MOL0     C20393   2.029   1.402   4.655 -0.1575  0.4308 -0.3791
  913MOL0     C20394   1.885   1.369   4.653  1.0415 -0.3318 -0.3310
  913MOL0     C20395   1.829   1.370   4.508  0.2237  0.0784  0.1580
  913MOL0     C20396   1.687   1.312   4.483  0.8003  0.0159  0.5214
  913MOL0     C20397   1.640   1.291   4.334 -0.6535 -0.3956 -0.4536
  913MOL0     C20398   1.498   1.237   4.332  0.3419  0.1183 -0.0769
  913MOL0     C20399   1.442   1.224   4.188 -1.1423 -0.1088 -0.0178
  913MOL0     C20400   1.493   1.095   4.112  0.1770 -0.0541 -0.7452
  913MOL0     N20401   1.443   0.966   4.155  0.4106  0.3114 -0.1867
  913MOL0     C20402   1.354   0.891   4.082 -0.0446 -0.6437  0.2501
  913MOL0     C20403   1.359   0.767   4.144  0.4154 -0.2098  0.5189
  913MOL0     C20404   1.272   0.648   4.105  0.9327 -1.2698  1.0903
  913MOL0     C20405   1.331   0.565   3.990  0.2664 -0.4540  0.2799
  913MOL0     C20406   1.455   0.472   4.018 -0.5289 -0.7446 -1.0091
  913MOL0     C20407   1.502   0.387   3.892 -0.1705 -1.2183 -0.1693
  913MOL0     O20408   1.570   0.484   3.810  0.3031 -0.2925 -0.3687
  913MOL0     C20409   1.619   0.456   3.686  0.2701 -0.2855 -0.2453
  913MOL0     C20410   1.618   0.325   3.630  0.6957 -0.6842 -0.2758
  913MOL0     C20411   1.675   0.301   3.506  0.5581  0.3231  0.9445
  913MOL0     C20412   1.763   0.391   3.441  0.8706 -1.3337 -0.1659
  913MOL0     C20413   1.851   0.354   3.331  0.1600  0.1747  0.6507
  913MOL0     O20414   1.946   0.441   3.285  0.0647  0.0547 -0.4349
  913MOL0     C20415   2.019   0.424   3.165  0.2728  0.6127  0.0852
  913MOL0     C20416   1.979   0.349   3.048  0.0515  0.2349 -0.2339
  913MOL0     C20417   2.055   0.361   2.930 -0.0534  0.0508  0.0299
  913MOL0     C20418   2.172   0.438   2.924  0.6972  0.4187  0.4247
  913MOL0     O20419   2.235   0.459   2.810 -0.4279 -0.2734 -0.8627
  913MOL0     C20420   2.358   0.529   2.792 -0.1253  0.3087 -0.7683
  913MOL0     C20421   2.407   0.472   2.667 -0.3846  0.3719  1.0758
  913MOL0     C20422   2.550   0.519   2.631  0.4313 -0.9044  0.6634
  913MOL0     C20423   2.597   0.488   2.482  0.2132 -1.0707  0.6129
  913MOL0     C20424   2.745   0.537   2.458  0.3987  0.0843 -0.1323
  913MOL0     C20425   2.838   0.426   2.494  0.5994 -0.4080 -0.1365
  913MOL0     C20426   2.981   0.455   2.455  0.0713  1.2870  0.3321
  913MOL0     C20427   3.059   0.522   2.560  0.9509  0.1078 -0.5285
  913MOL0    Cl20428   2.982   0.671   2.628  0.1920  0.3491  0.1065
  913MOL0     C20429   2.212   0.509   3.040 -0.1923 -0.0292 -0.4260
  913MOL0     C20430   2.129   0.515   3.153 -0.1732 -0.5728  0.9992
  913MOL0     O20431   1.838   0.241   3.287 -0.2294 -0.8483 -0.0306
  913MOL0     C20432   1.759   0.522   3.496 -0.1802 -0.3093  0.8743
  913MOL0     C20433   1.685   0.544   3.614 -0.0936  0.2081  0.1842
  913MOL0     N20434   1.447   0.764   4.248 -0.3432 -0.0384 -0.3221
  913MOL0     N20435   1.504   0.881   4.244  0.1817  0.6681 -0.1031
  913MOL0     C20436   2.250   1.411   4.937 -0.0131  0.4033 -0.2047
  913MOL0     C20437   2.388   1.426   4.978  0.0501 -0.0294  0.9975
  913MOL0     C20438   2.849   1.396   4.962  0.2989 -0.3728 -0.1079
  913MOL0     C20439   2.931   1.292   5.012  0.4056 -0.5037 -0.3254
  913MOL0     C20440   3.069   1.286   4.981  1.5842 -0.5238 -0.2428
  913MOL0     C20441   3.126   1.390   4.914  0.3900 -0.3392 -0.1103
  913MOL0     O20442   3.260   1.391   4.905  0.0697 -0.4364  0.4575
  913MOL0     C20443   3.328   1.290   4.833  0.1505  0.9369 -0.0337
  913MOL0     C20444   3.279   1.304   4.685 -0.2951 -0.3850  1.0782
  913MOL0     C20445   3.359   1.205   4.584  1.0821  0.0630 -0.5622
  913MOL0     C20446   3.298   1.072   4.536  0.4698  0.6862 -0.1446
  913MOL0     C20447   3.285   0.983   4.656 -0.7009 -0.8722  0.9152
  913MOL0     C20448   3.259   0.921   4.756  0.2253 -0.3364 -0.7271
  913MOL0     C20449   3.047   1.505   4.869 -0.1515  1.0580  0.7258
  913MOL0     C20450   2.912   1.496   4.892  0.2652  0.2593 -0.2268
  913MOL0     H20451   2.514   1.553   4.693 -2.9985  1.3620 -1.5325
  913MOL0     H20452   2.271   1.497   4.615 -1.5151 -1.1792  0.1678
  913MOL0     H20453   2.079   1.330   4.589 -2.3666 -0.2219 -1.4387
  913MOL0     H20454   2.044   1.499   4.608  2.3956 -0.3814 -1.4093
  913MOL0     H20455   1.826   1.442   4.709  0.3094  1.3021 -3.0040
  913MOL0     H20456   1.881   1.268   4.693  0.4392 -0.9793 -1.9248
  913MOL0     H20457   1.899   1.318   4.441 -0.6699  3.4687 -3.8470
  913MOL0     H20458   1.835   1.476   4.482  0.7457 -0.4833 -2.2596
  913MOL0     H20459   1.699   1.219   4.539 -1.7071 -1.2296 -0.8448
  913MOL0     H20460   1.614   1.367   4.543 -2.6676 -1.9422 -1.5729
  913MOL0     H20461   1.714   1.229   4.284 -1.2163 -1.9282  0.5474
  913MOL0     H20462   1.638   1.386   4.280 -1.2478 -0.4181 -0.4744
  913MOL0     H20463   1.447   1.325   4.374  3.5260  2.1185 -0.0448
  913MOL0     H20464   1.489   1.150   4.397  1.2309  0.9281  1.1918
  913MOL0     H20465   1.334   1.206   4.192 -1.5308  1.4615 -1.9300
  913MOL0     H20466   1.469   1.311   4.128 -1.8733 -0.3780 -0.7580
  913MOL0     H20467   1.599   1.095   4.138 -0.4594  1.5825  2.2885
  913MOL0     H20468   1.482   1.103   4.004  0.8241 -0.9431 -0.8929
  913MOL0     H20469   1.291   0.930   4.003  1.5763  0.2544 -0.6618
  913MOL0     H20470   1.174   0.686   4.072  2.4487  2.8880  0.8284
  913MOL0     H20471   1.268   0.579   4.189  0.6062 -0.1986  1.9808
  913MOL0     H20472   1.349   0.634   3.906 -1.7412 -0.5842 -0.3152
  913MOL0     H20473   1.255   0.499   3.947 -1.9965  1.9937  0.2276
  913MOL0     H20474   1.537   0.533   4.058 -0.1355 -1.2261 -1.0665
  913MOL0     H20475   1.428   0.398   4.093 -0.1739 -2.1889 -2.2628
  913MOL0     H20476   1.421   0.336   3.838 -0.4283  1.2595 -2.3935
  913MOL0     H20477   1.567   0.311   3.934 -0.8227 -2.4187 -1.2519
  913MOL0     H20478   1.567   0.239   3.673 -1.1214  1.7655  2.9192
  913MOL0     H20479   1.655   0.208   3.453 -3.0053  0.5241  1.6883
  913MOL0     H20480   1.879   0.308   3.047  0.2401 -0.2373  0.0147
  913MOL0     H20481   2.014   0.318   2.839  0.8241 -0.7265 -0.0097
  913MOL0     H20482   2.426   0.518   2.877  0.1943  0.0686 -1.0534
  913MOL0     H20483   2.344   0.636   2.776 -1.6980 -0.0619 -2.1790
  913MOL0     H20484   2.339   0.512   2.590  1.0336  0.9968  0.1050
  913MOL0     H20485   2.411   0.362   2.663 -0.0008  0.4227 -0.8523
  913MOL0     H20486   2.627   0.477   2.697  0.3269 -1.3428  0.5071
  913MOL0     H20487   2.554   0.627   2.648 -2.7353 -0.3001 -1.6508
  913MOL0     H20488   2.600   0.381   2.459  2.6358 -0.9926  0.2450
  913MOL0     H20489   2.538   0.545   2.409  2.6160 -1.9545 -2.2363
  913MOL0     H20490   2.752   0.631   2.514 -3.2804  0.4233  0.0185
  913MOL0     H20491   2.751   0.539   2.348 -2.8659 -5.4245 -0.8018
  913MOL0     H20492   2.800   0.326   2.469 -1.1488  0.2124 -0.1316
  913MOL0     H20493   2.832   0.418   2.603  0.4998 -1.2276 -0.1907
  913MOL0     H20494   3.031   0.358   2.453  1.4004  1.9589 -1.3608
  913MOL0     H20495   2.987   0.503   2.357 -0.7576 -0.9701 -0.8839
  913MOL0     H20496   3.163   0.544   2.532  0.7932  2.3320  0.4443
  913MOL0     H20497   3.060   0.454   2.646 -1.2164  2.0179  1.1390
  913MOL0     H20498   2.299   0.573   3.041  0.7362 -1.2383  0.5655
  913MOL0     H20499   2.162   0.575   3.237  4.0469  0.6896 -1.2172
  913MOL0     H20500   1.821   0.601   3.457  0.1141 -1.0603 -0.2570
  913MOL0     H20501   1.675   0.640   3.664 -0.6227  1.1983 -1.7228
  913MOL0     H20502   2.174   1.370   5.002 -0.3023 -1.5990 -1.6983
  913MOL0     H20503   2.433   1.402   5.074  0.4322  0.1485  0.8651
  913MOL0     H20504   2.882   1.200   5.040  0.7738 -0.3891  0.7341
  913MOL0     H20505   3.126   1.203   5.021  2.3813 -0.3529 -0.9926
  913MOL0     H20506   3.313   1.192   4.881  0.8052  2.3042  3.2104
  913MOL0     H20507   3.437   1.302   4.834  0.5844 -2.0614  2.0224
  913MOL0     H20508   3.170   1.292   4.675 -0.3649  1.1593 -0.5566
  913MOL0     H20509   3.293   1.408   4.653  1.2949 -1.3376 -1.6581
  913MOL0     H20510   3.456   1.177   4.626  1.8241  2.2380 -0.6771
  913MOL0     H20511   3.372   1.256   4.488  0.3525 -1.1490 -1.3271
  913MOL0     H20512   3.192   1.078   4.510 -0.4176  1.2168  3.0609
  913MOL0     H20513   3.357   1.027   4.456  0.3856 -2.4344  1.4065
  913MOL0     H20514   3.243   0.861   4.844  0.1575  1.2426  0.3786
  913MOL0     H20515   3.091   1.585   4.811 -0.4982  1.1426  0.5773
  913MOL0     H20516   2.853   1.575   4.846  1.8613  1.0696 -0.9712
  914MOL0     O20517   1.870   6.127   8.292 -0.0673  0.4088  0.7785
  914MOL0     C20518   1.760   6.083   8.251 -0.6629 -0.4718  1.7674
  914MOL0     O20519   1.718   6.122   8.129 -0.4134  0.5916 -0.7704
  914MOL0     C20520   1.806   6.195   8.048  0.1543  0.1088  0.4004
  914MOL0     C20521   1.781   6.324   8.004  0.7633  0.0660  0.0022
  914MOL0     C20522   1.862   6.393   7.914 -0.7622 -0.5620 -0.3165
  914MOL0     C20523   1.974   6.327   7.855  0.5845 -1.3173 -0.3169
  914MOL0     O20524   2.056   6.379   7.760  0.1411  0.1789  0.1593
  914MOL0     C20525   1.986   6.484   7.679 -0.2715  0.7390 -0.0409
  914MOL0     C20526   2.079   6.516   7.568  1.1945 -0.8067  0.2873
  914MOL0     C20527   2.206   6.571   7.617 -0.1201 -0.2801 -0.0631
  914MOL0     C20528   2.299   6.589   7.503  0.5520 -0.0172  0.9918
  914MOL0     C20529   2.440   6.637   7.542  0.7401  0.1398 -0.2554
  914MOL0     C20530   2.521   6.686   7.421  1.0172 -0.5246 -0.7067
  914MOL0     C20531   2.619   6.794   7.454  0.1680  0.1419  0.5725
  914MOL0     C20532   2.716   6.812   7.341 -0.0556  0.0635  0.2023
  914MOL0     N20533   2.774   6.944   7.335 -0.1272  0.6129  0.2018
  914MOL0     C20534   2.907   6.978   7.347  0.1102  0.7706 -0.3546
  914MOL0     C20535   2.925   7.101   7.298  0.2589  0.1885  0.2546
  914MOL0     C20536   3.055   7.180   7.282  0.4280 -0.5277  0.5553
  914MOL0     C20537   3.023   7.316   7.216  0.1095  0.5874 -0.0222
  914MOL0     C20538   3.149   7.399   7.192 -0.2400  1.3691  0.2373
  914MOL0     C20539   3.257   7.411   7.291  0.0116  0.2739 -0.7058
  914MOL0     O20540   3.359   7.495   7.251 -0.1520 -0.3055  0.3706
  914MOL0     C20541   3.333   7.624   7.257  0.1113  0.2217  0.6254
  914MOL0     C20542   3.419   7.700   7.174  0.0389 -0.1187  0.2128
  914MOL0     C20543   3.400   7.841   7.171  1.0097  0.4532  0.8904
  914MOL0     C20544   3.289   7.907   7.231  0.3874 -0.6433 -0.8876
  914MOL0     C20545   3.257   8.052   7.220  0.2654  0.3214  0.6713
  914MOL0     O20546   3.303   8.107   7.107 -0.0371 -0.1438  0.6114
  914MOL0     C20547   3.265   8.239   7.088 -0.3841 -0.0920 -0.4355
  914MOL0     C20548   3.362   8.342   7.087 -0.1170  0.1164  0.4464
  914MOL0     C20549   3.324   8.470   7.050 -0.0137 -0.2870 -0.9114
  914MOL0     C20550   3.193   8.498   7.004  0.0062 -0.5089 -0.1550
  914MOL0     O20551   3.138   8.613   6.936 -0.4933  0.3656 -1.0090
  914MOL0     C20552   3.238   8.713   6.913 -0.5273  0.8323 -0.1001
  914MOL0     C20553   3.172   8.809   6.810 -0.3799  0.0802  0.2474
  914MOL0     C20554   3.248   8.938   6.787  0.1661  0.7217  1.1757
  914MOL0     C20555   3.220   9.040   6.903 -0.0659 -0.5100  0.5571
  914MOL0     C20556   3.295   9.170   6.885  0.5987  0.8961 -1.0030
  914MOL0     C20557   3.294   9.261   7.005  0.1271  0.5310  1.2691
  914MOL0     C20558   3.154   9.291   7.055 -0.1565  0.1591  0.5361
  914MOL0     C20559   3.086   9.390   6.961  1.4287 -0.0266 -0.9442
  914MOL0    Cl20560   3.025   9.324   6.810  0.3936 -0.1938 -0.0974
  914MOL0     C20561   3.093   8.395   7.014  0.3099 -0.3827 -0.0258
  914MOL0     C20562   3.134   8.260   7.047 -0.6129 -0.2594  0.0010
  914MOL0     O20563   3.207   8.114   7.309 -0.6410 -0.1181 -0.7030
  914MOL0     C20564   3.211   7.825   7.314  0.5460 -0.7850  0.6704
  914MOL0     C20565   3.222   7.694   7.315  0.4427 -0.0496 -0.2409
  914MOL0     N20566   2.795   7.133   7.255  0.0647 -0.6627 -0.0332
  914MOL0     N20567   2.708   7.043   7.276  0.4420  0.5914  0.1462
  914MOL0     C20568   1.995   6.192   7.896 -0.3753 -0.2290 -0.2902
  914MOL0     C20569   1.913   6.129   7.991  0.1683 -0.4033  0.9283
  914MOL0     C20570   1.671   6.021   8.342  1.2907  0.1065  0.3800
  914MOL0     C20571   1.546   5.979   8.294  0.7566  0.1222  0.0662
  914MOL0     C20572   1.466   5.897   8.377 -1.0201 -0.2107  0.9157
  914MOL0     C20573   1.519   5.853   8.496 -0.2512 -0.0495  0.5221
  914MOL0     O20574   1.443   5.771   8.572 -0.1873  0.4350  0.1882
  914MOL0     C20575   1.509   5.640   8.591  0.1499  0.1972  0.3864
  914MOL0     C20576   1.403   5.535   8.642 -0.2371 -0.3359 -0.0376
  914MOL0     C20577   1.392   5.553   8.794 -0.3707 -0.8200 -0.2771
  914MOL0     C20578   1.294   5.463   8.871 -0.4028  0.5193 -0.6286
  914MOL0     C20579   1.152   5.492   8.836 -0.1399 -0.8624  0.2299
  914MOL0     C20580   1.036   5.512   8.822  0.7044  0.1960  0.0206
  914MOL0     C20581   1.643   5.896   8.539 -0.0092  0.3603 -0.5611
  914MOL0     C20582   1.721   5.980   8.464  0.9890  1.2230  0.1648
  914MOL0     H20583   1.698   6.371   8.057  1.3505  0.5260  0.5187
  914MOL0     H20584   1.841   6.499   7.901  2.6737  0.1414 -1.2228
  914MOL0     H20585   1.967   6.569   7.746 -0.5272  0.7826 -0.1660
  914MOL0     H20586   1.894   6.441   7.638  0.4009 -1.9204  1.0466
  914MOL0     H20587   2.026   6.582   7.498  1.5062 -0.2320  0.5876
  914MOL0     H20588   2.104   6.419   7.523  0.0052 -2.4984  2.9767
  914MOL0     H20589   2.244   6.493   7.682 -0.6469 -1.3839 -1.0390
  914MOL0     H20590   2.196   6.662   7.677  1.3861  1.5256 -2.3533
  914MOL0     H20591   2.307   6.497   7.443 -1.0458 -0.6275  1.6634
  914MOL0     H20592   2.253   6.663   7.437 -0.7980  0.5648  2.5315
  914MOL0     H20593   2.495   6.551   7.582  0.2501  0.1452  0.4279
  914MOL0     H20594   2.427   6.715   7.616 -1.0865  0.8262 -1.2444
  914MOL0     H20595   2.473   6.701   7.324  2.1162 -1.6385 -1.4468
  914MOL0     H20596   2.593   6.607   7.400  2.6880  0.3935  1.2138
  914MOL0     H20597   2.571   6.885   7.489 -1.5500 -0.4938 -0.0003
  914MOL0     H20598   2.688   6.763   7.533  1.9676  0.1808 -0.9050
  914MOL0     H20599   2.667   6.793   7.245 -3.7011  0.5103  1.8449
  914MOL0     H20600   2.796   6.737   7.343 -0.2297 -0.4606 -3.6130
  914MOL0     H20601   2.984   6.920   7.395  1.4454  2.1278 -0.7621
  914MOL0     H20602   3.120   7.111   7.228  2.4499  1.1443  0.7147
  914MOL0     H20603   3.096   7.200   7.382  2.4289 -2.1250  0.1204
  914MOL0     H20604   2.958   7.364   7.290 -1.9509 -1.7429 -0.1835
  914MOL0     H20605   2.961   7.325   7.127  1.3853  3.6026 -0.7365
  914MOL0     H20606   3.191   7.359   7.099 -2.5178 -1.0116  0.1331
  914MOL0     H20607   3.110   7.500   7.174 -2.0234  0.5718 -0.5824
  914MOL0     H20608   3.296   7.310   7.308 -1.2478 -0.3263 -1.2665
  914MOL0     H20609   3.212   7.447   7.384 -1.7968  0.7147 -1.7039
  914MOL0     H20610   3.496   7.660   7.109  0.3614 -1.4837  1.3737
  914MOL0     H20611   3.472   7.896   7.112 -3.2275  2.6840 -2.7475
  914MOL0     H20612   3.462   8.312   7.118  0.6504  1.4308 -0.5805
  914MOL0     H20613   3.402   8.546   7.045 -0.3061  0.3839  2.2986
  914MOL0     H20614   3.332   8.675   6.872 -0.2370  2.4154 -1.0022
  914MOL0     H20615   3.259   8.765   7.007 -3.8581  2.4513 -0.1091
  914MOL0     H20616   3.075   8.841   6.849  0.1278  2.1744 -0.1013
  914MOL0     H20617   3.171   8.771   6.708  2.1908  4.9378 -1.8778
  914MOL0     H20618   3.216   8.983   6.692 -2.5461  0.7726  2.0280
  914MOL0     H20619   3.351   8.907   6.766  0.3581  2.2987 -0.4764
  914MOL0     H20620   3.114   9.065   6.912  0.0203  0.6206 -1.0704
  914MOL0     H20621   3.244   9.006   7.004  2.3342  0.0724  0.2506
  914MOL0     H20622   3.257   9.212   6.792 -0.8049 -1.5879 -1.6468
  914MOL0     H20623   3.396   9.143   6.855  0.7789 -0.1277  0.4391
  914MOL0     H20624   3.342   9.357   6.986  0.5135  0.7232  3.0173
  914MOL0     H20625   3.353   9.217   7.086 -0.4090 -1.7545  0.4968
  914MOL0     H20626   3.106   9.197   7.084 -2.2226  1.4626  1.6060
  914MOL0     H20627   3.169   9.341   7.152 -0.4880 -3.0860  2.4276
  914MOL0     H20628   3.162   9.465   6.933  4.6887 -1.8351  2.1973
  914MOL0     H20629   3.005   9.441   7.013  2.2145  0.6328 -0.3374
  914MOL0     H20630   2.990   8.411   6.986 -0.1807 -2.3139  0.5241
  914MOL0     H20631   3.064   8.177   7.052  0.9476 -1.8785 -2.9424
  914MOL0     H20632   3.135   7.875   7.372 -1.0121  1.4829 -2.9501
  914MOL0     H20633   3.160   7.640   7.385 -1.4896  0.4161 -1.5303
  914MOL0     H20634   2.083   6.145   7.853 -0.2008 -1.3999  1.2665
  914MOL0     H20635   1.928   6.028   8.025 -0.8704 -0.8031  0.2644
  914MOL0     H20636   1.510   6.015   8.198 -0.0535 -1.6970 -0.3497
  914MOL0     H20637   1.364   5.874   8.350 -1.3823  1.3078  0.8898
  914MOL0     H20638   1.590   5.652   8.663 -1.3889  0.3606  2.1833
  914MOL0     H20639   1.555   5.595   8.504 -1.3897 -0.9008  0.0949
  914MOL0     H20640   1.307   5.547   8.590 -1.0057  0.0746  1.4180
  914MOL0     H20641   1.438   5.434   8.620  4.1642  1.4990 -2.9527
  914MOL0     H20642   1.371   5.657   8.820 -0.6649 -0.4429 -1.8860
  914MOL0     H20643   1.491   5.530   8.833  1.3882  0.5929 -3.4928
  914MOL0     H20644   1.313   5.356   8.858 -0.6225  0.2491  1.0803
  914MOL0     H20645   1.313   5.484   8.977 -0.5540  0.4542 -0.5885
  914MOL0     H20646   0.930   5.521   8.815  0.4726 -1.7117  0.4599
  914MOL0     H20647   1.674   5.865   8.638  1.8026  1.8952 -0.5859
  914MOL0     H20648   1.822   6.000   8.499  0.8274 -1.2052  2.2374
  915MOL0     O20649   4.906   7.519   6.370 -0.5160 -0.2126 -0.1534
  915MOL0     C20650   4.964   7.439   6.292  0.3975  0.1042 -0.0149
  915MOL0     O20651   4.999   7.309   6.314  0.5229 -0.4530 -0.4648
  915MOL0     C20652   4.988   7.253   6.440  0.5750 -0.4412  0.2100
  915MOL0     C20653   5.085   7.168   6.483 -0.7363 -0.0911 -0.1830
  915MOL0     C20654   5.082   7.107   6.608  0.4514 -0.5266 -0.3878
  915MOL0     C20655   4.970   7.119   6.692 -1.1013  0.5747  0.8999
  915MOL0     O20656   4.958   7.030   6.793  0.7866  0.9217  0.0028
  915MOL0     C20657   4.886   7.060   6.915  0.4708  0.3800  1.4706
  915MOL0     C20658   4.959   7.159   6.995 -0.2664  0.2072 -0.2865
  915MOL0     C20659   4.888   7.182   7.124  0.5628 -0.4360  0.2980
  915MOL0     C20660   4.955   7.269   7.225  0.4249 -1.2001  0.5307
  915MOL0     C20661   4.885   7.290   7.362 -0.3264  0.0500  0.0299
  915MOL0     C20662   4.977   7.367   7.451 -0.1070  0.3282  0.6935
  915MOL0     C20663   4.914   7.425   7.577 -1.1396 -1.0302 -0.7018
  915MOL0     C20664   5.003   7.532   7.645 -0.8152  0.3329  0.4164
  915MOL0     N20665   4.947   7.590   7.767  0.8976  0.0891 -0.1554
  915MOL0     C20666   4.993   7.710   7.813  0.6356 -0.1970  0.1581
  915MOL0     C20667   4.931   7.731   7.933 -0.1445 -0.2498  0.5875
  915MOL0     C20668   4.965   7.847   8.022  1.4807  0.4997 -0.4235
  915MOL0     C20669   4.878   7.870   8.148 -0.9569 -0.6056  0.1137
  915MOL0     C20670   4.731   7.915   8.112  0.0725  0.5240  0.0234
  915MOL0     C20671   4.663   7.972   8.242  0.2120 -0.1706 -0.0943
  915MOL0     O20672   4.726   8.099   8.266  0.1343 -0.6559 -0.4064
  915MOL0     C20673   4.662   8.181   8.361 -0.1114  1.3509  1.2358
  915MOL0     C20674   4.724   8.298   8.393  0.5171 -0.2309 -0.4059
  915MOL0     C20675   4.671   8.392   8.480 -0.2488 -0.0043  0.6257
  915MOL0     C20676   4.552   8.372   8.541 -0.0948 -1.0538  0.2821
  915MOL0     C20677   4.478   8.474   8.628  0.5611 -0.0165 -0.4289
  915MOL0     O20678   4.357   8.432   8.691 -0.5410  0.2890  0.1665
  915MOL0     C20679   4.289   8.510   8.770  0.4712  0.4343 -0.4369
  915MOL0     C20680   4.343   8.591   8.868 -0.8031  0.5230 -0.2852
  915MOL0     C20681   4.265   8.683   8.947  0.5735 -0.4564 -0.1418
  915MOL0     C20682   4.136   8.707   8.913  0.4976 -1.6794  0.3088
  915MOL0     O20683   4.075   8.815   8.981 -0.1642  0.1948 -0.0294
  915MOL0     C20684   3.956   8.783   9.040 -0.4198  0.1676 -0.0492
  915MOL0     C20685   3.949   8.873   9.170  0.4923  0.1635 -0.2575
  915MOL0     C20686   3.903   9.020   9.137  0.2988 -0.2407  0.0667
  915MOL0     C20687   3.919   9.104   9.264  0.3257 -0.5701  0.3883
  915MOL0     C20688   4.062   9.169   9.279  0.6710  0.5981 -0.0487
  915MOL0     C20689   4.086   9.242   9.419 -0.2798  0.4328 -0.0353
  915MOL0     C20690   4.230   9.300   9.422 -0.1232  0.6225 -0.7085
  915MOL0     C20691   4.348   9.207   9.370 -0.0915  0.4846  0.1911
  915MOL0    Cl20692   4.396   9.071   9.486 -0.1364  0.2493  0.1510
  915MOL0     C20693   4.083   8.636   8.811 -0.1692  0.7365  0.9360
  915MOL0     C20694   4.155   8.537   8.739  1.2114  0.0137 -0.0280
  915MOL0     O20695   4.540   8.581   8.643  0.4760  0.6281  0.0680
  915MOL0     C20696   4.494   8.246   8.518 -0.5629 -0.2521 -1.1259
  915MOL0     C20697   4.548   8.145   8.431 -1.7514  0.0784 -0.9398
  915MOL0     N20698   4.845   7.625   7.958 -0.1704 -0.6364  0.5478
  915MOL0     N20699   4.871   7.533   7.865  0.1703  0.1759 -0.0374
  915MOL0     C20700   4.868   7.205   6.644 -0.6340 -1.0065 -0.6453
  915MOL0     C20701   4.870   7.264   6.517 -0.2081  0.0647 -0.6395
  915MOL0     C20702   5.001   7.500   6.164  0.8439 -0.3817 -0.3317
  915MOL0     C20703   5.005   7.636   6.143 -0.0881 -0.1907 -0.4060
  915MOL0     C20704   5.051   7.692   6.027 -0.6307 -0.0394  0.0998
  915MOL0     C20705   5.096   7.615   5.917 -0.3326  0.2121  0.0032
  915MOL0     O20706   5.167   7.659   5.808 -0.3212  0.2191  0.2506
  915MOL0     C20707   5.110   7.769   5.736  0.4996 -0.4132  0.3506
  915MOL0     C20708   4.971   7.744   5.673  0.6596  0.0649  0.3305
  915MOL0     C20709   4.910   7.866   5.589  0.7900  0.8158 -0.1602
  915MOL0     C20710   4.821   7.957   5.679 -0.0432  0.3724  0.6040
  915MOL0     C20711   4.698   7.909   5.735 -0.6892  0.0175  0.3488
  915MOL0     C20712   4.590   7.882   5.779 -0.0178  0.1230 -0.3627
  915MOL0     C20713   5.098   7.473   5.944  0.5497 -0.4356 -0.1321
  915MOL0     C20714   5.042   7.422   6.056 -0.8110  0.5745  0.2140
  915MOL0     H20715   5.173   7.153   6.421  0.9471 -1.6705  2.4050
  915MOL0     H20716   5.159   7.036   6.637  0.7885 -0.0807 -0.1782
  915MOL0     H20717   4.884   6.968   6.975 -0.4680  0.8275  2.1490
  915MOL0     H20718   4.784   7.088   6.890  0.4335 -2.9773 -3.7484
  915MOL0     H20719   4.963   7.258   6.949 -0.4222  1.2620  1.8287
  915MOL0     H20720   5.059   7.122   7.020  0.3756  2.7084  1.2015
  915MOL0     H20721   4.877   7.089   7.180 -1.7577  0.6727  1.8471
  915MOL0     H20722   4.785   7.217   7.111  0.3656  0.8809  4.2446
  915MOL0     H20723   5.061   7.246   7.237  0.3035 -1.0384  2.1408
  915MOL0     H20724   4.955   7.365   7.173 -1.4452 -0.6369  1.4893
  915MOL0     H20725   4.865   7.193   7.409 -0.4811  0.8464  1.6862
  915MOL0     H20726   4.788   7.339   7.347 -0.9086 -0.2380  2.4226
  915MOL0     H20727   5.012   7.456   7.398  0.5584 -1.6862 -2.5539
  915MOL0     H20728   5.063   7.304   7.475 -1.5088 -1.4665  1.2436
  915MOL0     H20729   4.826   7.481   7.543 -1.8630 -1.2964  0.6761
  915MOL0     H20730   4.895   7.349   7.654 -0.2091  0.6163  1.2475
  915MOL0     H20731   5.031   7.609   7.572 -0.4978 -2.1435 -2.2115
  915MOL0     H20732   5.089   7.472   7.678 -2.4399 -1.5544  1.4118
  915MOL0     H20733   5.082   7.762   7.778  0.9483 -0.6983  0.2132
  915MOL0     H20734   4.951   7.937   7.961  1.9477  1.3363  0.6762
  915MOL0     H20735   5.074   7.844   8.036  1.6606 -0.3185 -1.8777
  915MOL0     H20736   4.933   7.948   8.201 -0.2407 -0.7904 -0.3387
  915MOL0     H20737   4.872   7.782   8.212  0.8333 -0.6243  0.2841
  915MOL0     H20738   4.720   7.994   8.036 -2.9224  0.1439 -0.0814
  915MOL0     H20739   4.673   7.833   8.069  3.4309 -0.4033 -3.2848
  915MOL0     H20740   4.678   7.906   8.328  1.9358 -0.0398 -0.2570
  915MOL0     H20741   4.557   7.985   8.221 -0.3653  0.6417  2.7877
  915MOL0     H20742   4.816   8.323   8.342 -0.2341  1.8782 -0.8611
  915MOL0     H20743   4.725   8.486   8.491  1.7379 -0.9993 -0.1093
  915MOL0     H20744   4.449   8.583   8.890 -0.7056  1.3995 -0.4075
  915MOL0     H20745   4.299   8.731   9.039  2.7706  1.9808 -2.0944
  915MOL0     H20746   3.950   8.679   9.073 -2.7049  0.1713 -0.2917
  915MOL0     H20747   3.875   8.811   8.972 -0.7406  3.5241  1.4763
  915MOL0     H20748   4.043   8.859   9.223  0.3053 -0.2231 -0.0275
  915MOL0     H20749   3.865   8.846   9.234 -1.5744  2.9941 -1.5126
  915MOL0     H20750   3.800   9.023   9.101  0.1962 -0.0538  0.3711
  915MOL0     H20751   3.962   9.060   9.053 -0.4927  3.2687  1.0355
  915MOL0     H20752   3.853   9.191   9.252  0.6243  0.1218  3.0427
  915MOL0     H20753   3.866   9.045   9.339 -0.6963 -0.2963 -0.1026
  915MOL0     H20754   4.084   9.225   9.187 -5.0350 -0.4617 -2.4985
  915MOL0     H20755   4.125   9.080   9.282 -1.2631 -0.7964  1.6614
  915MOL0     H20756   4.084   9.167   9.498  3.5899 -3.2932 -2.9987
  915MOL0     H20757   4.013   9.321   9.440 -1.0201 -0.1414 -0.4055
  915MOL0     H20758   4.220   9.393   9.365  0.9736 -0.2434 -2.3924
  915MOL0     H20759   4.254   9.341   9.521  1.6614 -1.2231 -0.2953
  915MOL0     H20760   4.435   9.268   9.345  4.8462 -4.5720  2.8438
  915MOL0     H20761   4.311   9.160   9.279 -2.6237  3.4948 -0.5311
  915MOL0     H20762   3.990   8.675   8.769  0.3957  1.0224 -0.0809
  915MOL0     H20763   4.122   8.501   8.642  2.9900  0.3828 -0.8235
  915MOL0     H20764   4.405   8.219   8.575 -0.9932  0.8907 -1.2247
  915MOL0     H20765   4.498   8.049   8.422 -1.8798  0.2886 -2.7168
  915MOL0     H20766   4.776   7.204   6.702  0.3183  1.0706  1.0670
  915MOL0     H20767   4.789   7.331   6.493 -2.6227 -1.0287  3.5471
  915MOL0     H20768   4.972   7.702   6.222  3.6907  0.4266  0.8569
  915MOL0     H20769   5.056   7.799   6.007  1.4412 -0.6658 -3.4410
  915MOL0     H20770   5.179   7.794   5.655 -0.4674  0.5395 -0.2128
  915MOL0     H20771   5.109   7.858   5.800  2.5576 -0.9184  1.1679
  915MOL0     H20772   4.989   7.650   5.619  1.3903  1.0685 -1.2224
  915MOL0     H20773   4.904   7.716   5.755  2.0329 -0.3108  1.3606
  915MOL0     H20774   4.854   7.834   5.501  0.1234  4.5735 -1.2550
  915MOL0     H20775   4.992   7.935   5.566  3.6898 -1.6817  1.7879
  915MOL0     H20776   4.876   7.987   5.769 -1.9785  0.1542  1.9278
  915MOL0     H20777   4.786   8.044   5.623 -0.4202 -1.0178 -1.4451
  915MOL0     H20778   4.495   7.849   5.816 -0.1703  1.7400  0.7950
  915MOL0     H20779   5.142   7.416   5.863  1.4320 -2.1817  1.4635
  915MOL0     H20780   5.053   7.314   6.059  4.4299  0.6327 -2.9076
  916MOL0     O20781   5.875   4.877   9.782  0.5230  0.6597 -0.6489
  916MOL0     C20782   5.776   4.814   9.740  0.4269 -0.4603 -0.2404
  916MOL0     O20783   5.649   4.823   9.784  0.1987  0.6929 -0.8551
  916MOL0     C20784   5.627   4.902   9.894 -0.5938 -0.1057  0.5637
  916MOL0     C20785   5.594   4.839  10.009  0.1923 -0.2868  0.2235
  916MOL0     C20786   5.548   4.917  10.119  0.2400 -0.3760 -0.0245
  916MOL0     C20787   5.540   5.062  10.100  0.9963 -0.6533  0.9211
  916MOL0     O20788   5.483   5.126  10.205  0.1736 -0.3672  0.5308
  916MOL0     C20789   5.473   5.270  10.212 -0.2681 -0.0265  0.7879
  916MOL0     C20790   5.345   5.318  10.148  0.0077  0.0772 -0.9585
  916MOL0     C20791   5.341   5.467  10.169 -0.7652  0.4534 -0.0020
  916MOL0     C20792   5.279   5.541  10.056 -0.2335  0.2563  0.4267
  916MOL0     C20793   5.301   5.692  10.062 -0.1202  0.9356  0.1969
  916MOL0     C20794   5.280   5.755   9.925  0.0887  0.5271 -0.1081
  916MOL0     C20795   5.323   5.896   9.931 -0.5203  0.1095  0.2792
  916MOL0     C20796   5.272   5.976   9.811  0.6669 -1.0331 -0.1729
  916MOL0     N20797   5.129   6.002   9.820 -0.0666 -0.4548  0.0530
  916MOL0     C20798   5.066   6.080   9.915 -0.0078  0.4766  0.0233
  916MOL0     C20799   4.933   6.089   9.873 -0.4673 -0.2933 -0.7947
  916MOL0     C20800   4.822   6.172   9.933 -0.4380  0.1417 -0.1270
  916MOL0     C20801   4.767   6.091  10.051  0.3035 -0.7570 -0.4060
  916MOL0     C20802   4.639   6.167  10.107 -0.2660 -0.5279  0.2817
  916MOL0     C20803   4.572   6.082  10.205  0.3543  1.0884  0.1713
  916MOL0     O20804   4.521   5.959  10.156  0.0004 -0.2015 -0.3938
  916MOL0     C20805   4.446   5.964  10.042 -0.5384 -0.1027 -0.2289
  916MOL0     C20806   4.492   5.892   9.928  0.3905  0.0817 -0.3284
  916MOL0     C20807   4.413   5.911   9.803 -0.9023  0.4971  0.0896
  916MOL0     C20808   4.289   5.972   9.805  0.6387  0.3639  0.5910
  916MOL0     C20809   4.209   5.992   9.672 -0.2448  0.3625 -0.6493
  916MOL0     O20810   4.241   5.911   9.566 -0.1329 -0.5709  1.5188
  916MOL0     C20811   4.177   5.934   9.448  0.2576  0.2716 -0.2682
  916MOL0     C20812   4.178   6.052   9.380  0.6975  0.7850  0.2139
  916MOL0     C20813   4.073   6.068   9.287 -0.5944 -0.3962 -0.2224
  916MOL0     C20814   3.976   5.973   9.254 -0.5793  0.6310 -0.0686
  916MOL0     O20815   3.890   6.007   9.154  0.8911 -0.0061  0.7939
  916MOL0     C20816   3.821   5.898   9.094 -0.8136  0.2645  0.0109
  916MOL0     C20817   3.754   5.944   8.969  0.4413 -0.1062  0.6373
  916MOL0     C20818   3.723   5.837   8.874 -0.2066 -0.6605  0.1532
  916MOL0     C20819   3.617   5.885   8.775  0.1678  0.3380 -0.1667
  916MOL0     C20820   3.593   5.777   8.663 -0.8710 -0.3688 -0.9936
  916MOL0     C20821   3.483   5.808   8.561 -0.8275 -0.8638  0.6220
  916MOL0     C20822   3.349   5.819   8.640  0.4652  0.0300  0.1882
  916MOL0     C20823   3.218   5.836   8.553 -0.1562  0.3063 -0.3445
  916MOL0    Cl20824   3.222   5.986   8.460 -0.8551  0.2678  0.4449
  916MOL0     C20825   3.978   5.854   9.331 -0.6150  0.3882  0.2814
  916MOL0     C20826   4.087   5.834   9.421 -0.1086  0.7282 -0.3466
  916MOL0     O20827   4.116   6.066   9.683  0.3160  0.2976 -0.2586
  916MOL0     C20828   4.242   6.025   9.925 -0.5845  0.0757  0.0742
  916MOL0     C20829   4.325   6.028  10.041  0.6437 -0.2030 -0.8215
  916MOL0     N20830   4.929   6.010   9.759  0.0648 -0.0823 -0.6428
  916MOL0     N20831   5.043   5.953   9.731 -0.1659 -0.0531 -0.3541
  916MOL0     C20832   5.586   5.119   9.981 -0.2907 -0.2965 -0.4039
  916MOL0     C20833   5.637   5.045   9.880  0.8301  0.0484 -1.2508
  916MOL0     C20834   5.812   4.702   9.635  1.0037  0.3984  0.3808
  916MOL0     C20835   5.941   4.653   9.636  0.0193  0.3289  0.0239
  916MOL0     C20836   5.981   4.562   9.532 -0.2205 -0.2893 -0.2220
  916MOL0     C20837   5.892   4.518   9.441 -0.6622  0.1123 -0.3384
  916MOL0     O20838   5.944   4.444   9.341  0.3724  0.4624 -0.0836
  916MOL0     C20839   5.851   4.381   9.246 -0.6065  0.0457 -0.4210
  916MOL0     C20840   5.937   4.317   9.130  1.4483 -0.3237 -0.1242
  916MOL0     C20841   6.037   4.416   9.077 -0.0849  0.3225  0.7700
  916MOL0     C20842   6.182   4.389   9.127  0.0342  0.3377 -0.6290
  916MOL0     C20843   6.275   4.501   9.090 -0.3713 -0.5970  0.1528
  916MOL0     C20844   6.355   4.572   9.032  0.8389  0.2398 -0.6631
  916MOL0     C20845   5.755   4.550   9.458 -0.3878 -0.6087  0.1484
  916MOL0     C20846   5.722   4.656   9.549  0.6470 -0.0046  0.3122
  916MOL0     H20847   5.600   4.731  10.013  2.8164 -0.1597  1.8243
  916MOL0     H20848   5.495   4.877  10.205  1.3442 -1.4770  0.1540
  916MOL0     H20849   5.561   5.313  10.163  0.5168 -1.6242  0.7214
  916MOL0     H20850   5.484   5.304  10.316  0.4945  0.3943  0.5808
  916MOL0     H20851   5.249   5.283  10.186 -0.2567  0.1554 -1.5343
  916MOL0     H20852   5.346   5.300  10.040 -2.2518 -1.1451 -0.8262
  916MOL0     H20853   5.441   5.506  10.189 -1.5677  2.2211  0.7438
  916MOL0     H20854   5.279   5.497  10.254 -0.8244 -1.3130  0.6193
  916MOL0     H20855   5.323   5.504   9.963  0.1737  1.1904  0.2353
  916MOL0     H20856   5.172   5.518  10.051 -0.4243  0.6310  2.1631
  916MOL0     H20857   5.400   5.717  10.100  0.6367  2.6730 -2.6013
  916MOL0     H20858   5.226   5.730  10.132 -0.4336 -2.5085  1.9352
  916MOL0     H20859   5.173   5.754   9.901  0.2108  1.9290 -0.8785
  916MOL0     H20860   5.332   5.700   9.846 -3.9474 -0.2317 -2.5375
  916MOL0     H20861   5.292   5.940  10.026  2.3072 -0.1465  1.4146
  916MOL0     H20862   5.432   5.894   9.926 -0.3031 -0.6358  3.5472
  916MOL0     H20863   5.286   5.921   9.717 -1.0904  0.3752 -1.3358
  916MOL0     H20864   5.332   6.067   9.805  3.5998 -2.9033 -0.9224
  916MOL0     H20865   5.107   6.127  10.003  1.8641  0.5263 -0.8352
  916MOL0     H20866   4.733   6.181   9.870 -2.6175 -1.9924  2.4035
  916MOL0     H20867   4.867   6.267   9.963  1.2655 -0.7873  0.4135
  916MOL0     H20868   4.851   6.091  10.122  1.8900  1.9546 -2.1360
  916MOL0     H20869   4.763   5.986  10.018  0.5726 -1.0036  0.3041
  916MOL0     H20870   4.664   6.265  10.146 -3.5040  0.7084 -0.3833
  916MOL0     H20871   4.568   6.190  10.027 -1.7307 -1.5173  1.2276
  916MOL0     H20872   4.489   6.144  10.241 -0.8014 -1.0418  1.3698
  916MOL0     H20873   4.643   6.065  10.286 -0.7310 -0.6647  0.8210
  916MOL0     H20874   4.575   5.822   9.922  0.0706 -0.2323 -1.2090
  916MOL0     H20875   4.444   5.869   9.707 -0.4694  0.3366  0.2974
  916MOL0     H20876   4.260   6.123   9.385  0.8826  0.6636 -0.8173
  916MOL0     H20877   4.075   6.160   9.229  1.6550 -0.2941 -0.0523
  916MOL0     H20878   3.756   5.848   9.166 -0.6700 -0.5668 -0.4233
  916MOL0     H20879   3.895   5.823   9.064 -1.1075  0.2716 -0.7585
  916MOL0     H20880   3.807   6.023   8.916  1.0291 -1.8269 -1.5068
  916MOL0     H20881   3.657   5.982   9.001  0.2350 -1.2200  1.3920
  916MOL0     H20882   3.698   5.745   8.927  0.9133 -0.7103  0.6143
  916MOL0     H20883   3.820   5.814   8.828 -1.1163 -2.5292 -0.9480
  916MOL0     H20884   3.531   5.910   8.839  2.7019  2.9700  2.5649
  916MOL0     H20885   3.643   5.980   8.728 -0.5864  0.1797 -0.9327
  916MOL0     H20886   3.575   5.680   8.710  2.9635 -0.3877  0.8291
  916MOL0     H20887   3.681   5.780   8.598  0.0348  2.9814  0.1763
  916MOL0     H20888   3.473   5.729   8.487  2.4436 -2.1114  1.3548
  916MOL0     H20889   3.508   5.907   8.521  0.6886 -0.7240  1.8000
  916MOL0     H20890   3.336   5.733   8.707 -1.0827 -2.5650 -3.0895
  916MOL0     H20891   3.356   5.908   8.702 -3.2548 -0.9838  2.3738
  916MOL0     H20892   3.123   5.834   8.608 -0.8151 -2.9300 -1.3613
  916MOL0     H20893   3.207   5.759   8.476  2.1111 -0.4962  0.0456
  916MOL0     H20894   3.915   5.767   9.321 -1.6386  0.7204  3.1999
  916MOL0     H20895   4.098   5.738   9.472  0.7639  2.4370  3.0153
  916MOL0     H20896   4.151   6.083   9.918 -0.1877  0.9078  1.4269
  916MOL0     H20897   4.288   6.086  10.125 -1.5231 -1.8615 -0.5453
  916MOL0     H20898   5.569   5.224   9.959 -1.9210 -0.7380 -1.4284
  916MOL0     H20899   5.684   5.083   9.790 -1.5011  1.5793 -1.9181
  916MOL0     H20900   6.014   4.682   9.711 -1.4671  0.7975  1.3312
  916MOL0     H20901   6.085   4.532   9.518 -0.4824 -1.2852 -0.0378
  916MOL0     H20902   5.783   4.457   9.206 -0.0008  1.3985  1.0162
  916MOL0     H20903   5.794   4.305   9.300 -2.8499  1.7113 -0.3523
  916MOL0     H20904   5.981   4.222   9.162  1.6935  0.8810  3.5861
  916MOL0     H20905   5.865   4.283   9.054 -1.4159  1.0853  1.7992
  916MOL0     H20906   6.008   4.521   9.086  0.0931  1.3369 -5.4954
  916MOL0     H20907   6.038   4.402   8.968 -1.5435 -4.9510  1.1390
  916MOL0     H20908   6.180   4.379   9.236  1.9373  2.9061 -0.2695
  916MOL0     H20909   6.213   4.290   9.092 -0.3496 -0.1361  0.3296
  916MOL0     H20910   6.434   4.629   8.987  0.8930  0.3496 -0.4330
  916MOL0     H20911   5.671   4.516   9.400  1.2709 -3.0307 -0.9835
  916MOL0     H20912   5.621   4.695   9.552  1.0708  1.1295  0.4134
  917MOL0     O20913   2.795   6.644  10.487 -0.0273  0.0851  0.2595
  917MOL0     C20914   2.896   6.665  10.415 -0.9383 -0.1518  0.7587
  917MOL0     O20915   2.956   6.791  10.402  0.3433 -0.5494 -0.5790
  917MOL0     C20916   2.893   6.896  10.465  0.2036  0.6348 -0.1779
  917MOL0     C20917   2.761   6.930  10.439  0.1002 -0.3537  0.1277
  917MOL0     C20918   2.704   7.042  10.506 -0.4032  1.0579  0.3289
  917MOL0     C20919   2.767   7.104  10.607 -0.8451  0.4496 -1.5528
  917MOL0     O20920   2.719   7.198  10.695 -0.4872 -0.4513 -0.3050
  917MOL0     C20921   2.588   7.262  10.671 -0.3206  0.0449  0.5521
  917MOL0     C20922   2.544   7.363  10.778 -0.6064  0.3580 -0.5382
  917MOL0     C20923   2.632   7.495  10.784 -0.7763 -0.3857 -0.3088
  917MOL0     C20924   2.710   7.532  10.653 -1.4410  0.2658 -0.2558
  917MOL0     C20925   2.788   7.662  10.676 -0.4539  0.1131  0.6427
  917MOL0     C20926   2.884   7.684  10.561 -0.2628 -0.5860 -0.3205
  917MOL0     C20927   2.962   7.812  10.571 -1.3794 -0.6780 -0.3522
  917MOL0     C20928   3.112   7.803  10.521  0.0987  1.1372 -0.9429
  917MOL0     N20929   3.111   7.804  10.379  0.4929 -0.4177 -0.4516
  917MOL0     C20930   3.172   7.903  10.305 -0.1344 -0.0072 -0.1439
  917MOL0     C20931   3.193   7.852  10.187  0.2868  1.3114  0.5189
  917MOL0     C20932   3.274   7.930  10.083 -0.0405 -0.5523 -0.0225
  917MOL0     C20933   3.222   8.067  10.050 -0.2322 -0.7715  0.4648
  917MOL0     C20934   3.091   8.064   9.962 -1.0953 -0.2258 -0.4819
  917MOL0     C20935   3.058   8.205   9.915  0.0759 -0.0833  0.2486
  917MOL0     O20936   3.072   8.298  10.013  0.6312 -0.2637 -0.0467
  917MOL0     C20937   3.021   8.426  10.001 -0.1346 -0.1821  0.0381
  917MOL0     C20938   2.952   8.477   9.889 -0.2915 -0.1413 -0.3197
  917MOL0     C20939   2.908   8.608   9.895 -0.4502 -0.3442  0.5272
  917MOL0     C20940   2.921   8.693  10.006 -0.1796 -0.0408  0.7430
  917MOL0     C20941   2.872   8.825  10.001 -0.2467 -0.3667 -0.0458
  917MOL0     O20942   2.919   8.900  10.107  0.3285 -0.2475  1.5431
  917MOL0     C20943   2.904   9.032  10.107  0.4252  0.0813 -0.2269
  917MOL0     C20944   2.899   9.092  10.232  0.0176  0.0479 -0.4984
  917MOL0     C20945   2.900   9.235  10.247 -0.1458 -0.3237  0.3148
  917MOL0     C20946   2.904   9.319  10.138 -1.0146  0.4793  0.3517
  917MOL0     O20947   2.900   9.451  10.151  0.3314 -0.4459 -0.1118
  917MOL0     C20948   2.992   9.527  10.071  0.4218  0.3873 -0.0341
  917MOL0     C20949   3.025   9.669  10.136 -0.6995  0.6608  1.3727
  917MOL0     C20950   2.901   9.747  10.139  0.4706  0.3153  0.2989
  917MOL0     C20951   2.936   9.892  10.191 -0.8673  0.6943 -0.0001
  917MOL0     C20952   2.812   9.973  10.170  0.1966 -0.6923 -0.7625
  917MOL0     C20953   2.686   9.937  10.259 -0.2735 -0.3474 -0.4861
  917MOL0     C20954   2.680  10.046  10.365  0.1661  0.0205 -0.4444
  917MOL0     C20955   2.569  10.030  10.477 -0.3022 -0.2990  0.2346
  917MOL0    Cl20956   2.415   9.962  10.409 -0.1226 -0.4545  0.6703
  917MOL0     C20957   2.933   9.255  10.013  0.8204 -0.5681  0.0142
  917MOL0     C20958   2.933   9.118  10.000 -0.0360 -0.1835 -1.2629
  917MOL0     O20959   2.800   8.864   9.911 -0.4389  0.4499  0.2271
  917MOL0     C20960   3.004   8.634  10.111 -0.3987 -0.9132 -0.4015
  917MOL0     C20961   3.047   8.504  10.104  0.5158 -0.7393  0.4910
  917MOL0     N20962   3.152   7.724  10.181 -0.1494 -0.2006  0.4010
  917MOL0     N20963   3.096   7.695  10.298 -0.1898  0.1665  0.0569
  917MOL0     C20964   2.901   7.062  10.636  0.4681  0.1526 -0.8426
  917MOL0     C20965   2.960   6.946  10.572 -0.5846 -0.2091 -0.6042
  917MOL0     C20966   2.963   6.541  10.358 -0.0768  0.0737 -0.1355
  917MOL0     C20967   3.082   6.551  10.276  0.9663 -0.2871 -0.2129
  917MOL0     C20968   3.149   6.439  10.228 -0.1127 -0.1785 -0.1620
  917MOL0     C20969   3.110   6.306  10.250 -0.9093 -0.1810  0.6535
  917MOL0     O20970   3.194   6.200  10.209 -0.0476 -0.1302  0.5524
  917MOL0     C20971   3.155   6.073  10.190 -0.1946  0.2905 -0.1453
  917MOL0     C20972   3.281   6.005  10.131  0.6388 -0.1523 -0.2253
  917MOL0     C20973   3.351   6.062  10.004  0.5129 -1.1140 -0.1497
  917MOL0     C20974   3.256   6.126   9.907 -0.3768  0.8459  0.0701
  917MOL0     C20975   3.327   6.119   9.773  0.4372  0.1923  0.2535
  917MOL0     C20976   3.394   6.120   9.670 -0.6861 -0.3460  1.4688
  917MOL0     C20977   2.992   6.293  10.328  0.2273 -0.1703 -0.3960
  917MOL0     C20978   2.919   6.411  10.384 -0.0445 -0.2555  1.4330
  917MOL0     H20979   2.709   6.883  10.356  3.0268  0.1618 -2.1396
  917MOL0     H20980   2.604   7.081  10.491 -0.1763  1.2964 -0.6216
  917MOL0     H20981   2.509   7.187  10.662  0.2923 -0.7902  1.8762
  917MOL0     H20982   2.596   7.306  10.571  0.0407 -0.3827  0.3882
  917MOL0     H20983   2.525   7.314  10.874 -1.4130 -0.9372 -1.3286
  917MOL0     H20984   2.449   7.397  10.734 -0.3319  2.4429  0.3286
  917MOL0     H20985   2.709   7.478  10.859  1.5101 -1.6057 -2.7447
  917MOL0     H20986   2.573   7.582  10.813  1.2710  0.3050  1.9786
  917MOL0     H20987   2.781   7.455  10.621 -0.1146  1.8384 -1.2563
  917MOL0     H20988   2.641   7.537  10.568 -0.6464 -1.1408 -1.0180
  917MOL0     H20989   2.839   7.671  10.773  1.7030  2.0521 -0.5725
  917MOL0     H20990   2.725   7.751  10.673 -1.1254 -0.3469  0.8896
  917MOL0     H20991   2.833   7.696  10.465  0.0189  0.1799 -0.3869
  917MOL0     H20992   2.949   7.596  10.560  1.0556  0.1520  3.5643
  917MOL0     H20993   2.909   7.892  10.518 -0.9148 -0.5249 -0.5920
  917MOL0     H20994   2.963   7.849  10.674  0.7109  1.5624 -1.0824
  917MOL0     H20995   3.150   7.711  10.567  1.5096  2.5810  0.9391
  917MOL0     H20996   3.178   7.885  10.549  1.6233  0.1635 -1.5434
  917MOL0     H20997   3.198   8.002  10.341  2.5907 -0.4121 -0.7577
  917MOL0     H20998   3.273   7.871   9.991 -1.8894  0.6753 -0.8612
  917MOL0     H20999   3.379   7.934  10.111 -0.5797 -2.3390  2.6393
  917MOL0     H21000   3.297   8.125   9.996 -2.7654  1.1925 -1.1585
  917MOL0     H21001   3.202   8.117  10.146  0.5092  0.0934  0.1844
  917MOL0     H21002   3.125   8.014   9.871  1.3275 -1.2765  0.9198
  917MOL0     H21003   3.002   8.016  10.003 -1.8082 -0.2307 -1.9517
  917MOL0     H21004   2.959   8.199   9.871  0.0468  1.9563 -0.0633
  917MOL0     H21005   3.129   8.230   9.836  0.4519 -0.6424  0.4017
  917MOL0     H21006   2.952   8.420   9.797  0.1650  1.1680 -1.1564
  917MOL0     H21007   2.869   8.644   9.800  2.3710 -0.2905 -0.7075
  917MOL0     H21008   2.885   9.025  10.317  0.3183 -1.4238 -1.5712
  917MOL0     H21009   2.903   9.274  10.348  1.2643  0.6244 -0.0627
  917MOL0     H21010   2.964   9.531   9.965 -0.5569  2.1184  0.2464
  917MOL0     H21011   3.091   9.482  10.077  1.5897  2.9211  1.7638
  917MOL0     H21012   3.106   9.711  10.077 -0.0027 -2.3385  0.0126
  917MOL0     H21013   3.063   9.656  10.238 -0.3618 -0.4141  1.1208
  917MOL0     H21014   2.843   9.694  10.216  3.1934 -3.1211  0.2478
  917MOL0     H21015   2.850   9.753  10.042  0.5771  2.5598  0.3338
  917MOL0     H21016   2.977   9.884  10.293  3.3114 -3.4955 -1.6420
  917MOL0     H21017   3.018   9.934  10.133  0.5334 -0.2090  1.2628
  917MOL0     H21018   2.767   9.961  10.071 -0.7302 -2.8571 -0.1364
  917MOL0     H21019   2.836  10.080  10.176  0.4384 -0.7763 -0.0522
  917MOL0     H21020   2.699   9.838  10.302  1.5647 -0.2012 -0.6412
  917MOL0     H21021   2.595   9.939  10.199 -0.0721  1.6063 -0.7857
  917MOL0     H21022   2.770  10.065  10.423 -1.1079 -1.3471  2.1854
  917MOL0     H21023   2.665  10.144  10.318  1.5704  0.5345  0.1432
  917MOL0     H21024   2.567  10.127  10.528  2.0617 -1.1239  2.0533
  917MOL0     H21025   2.612   9.969  10.556  3.3318  1.6537 -0.0199
  917MOL0     H21026   2.940   9.319   9.925 -0.5359 -0.5391 -0.0964
  917MOL0     H21027   2.969   9.067   9.911  0.5629 -0.9012 -0.6314
  917MOL0     H21028   3.026   8.694  10.199  0.1073 -0.4983 -0.8013
  917MOL0     H21029   3.113   8.466  10.181 -0.3618  0.1463  1.7010
  917MOL0     H21030   2.959   7.110  10.714 -0.1230 -0.3532 -0.0689
  917MOL0     H21031   3.050   6.908  10.620 -0.7111  0.1096 -0.1090
  917MOL0     H21032   3.110   6.655  10.262  2.2930 -0.6671 -0.5959
  917MOL0     H21033   3.245   6.454  10.179  0.3862 -0.7884  0.6076
  917MOL0     H21034   3.083   6.067  10.108  3.3016 -1.0450 -3.4118
  917MOL0     H21035   3.106   6.027  10.276 -3.7329  3.7791 -0.0138
  917MOL0     H21036   3.350   5.979  10.211 -0.0803  0.8748  0.7590
  917MOL0     H21037   3.237   5.908  10.106 -1.8390 -0.2165  3.5604
  917MOL0     H21038   3.399   5.976   9.956 -1.3675 -0.9392 -2.5419
  917MOL0     H21039   3.420   6.144  10.024 -1.2486  0.1383  1.0012
  917MOL0     H21040   3.156   6.084   9.903 -1.0776  2.4623 -0.0373
  917MOL0     H21041   3.255   6.234   9.922  0.7100  1.2001 -2.0008
  917MOL0     H21042   3.459   6.108   9.586 -2.5028  0.9771 -0.2153
  917MOL0     H21043   2.966   6.188  10.343  0.5304 -0.2179 -0.2025
  917MOL0     H21044   2.835   6.399  10.452 -1.3312 -0.6295 -0.1594
  918MOL0     O21045   3.854   8.173   9.941 -0.1922 -0.0434 -0.6918
  918MOL0     C21046   3.780   8.193   9.841  0.0775 -0.0316  0.4335
  918MOL0     O21047   3.785   8.130   9.716  0.0523  0.4143 -0.1126
  918MOL0     C21048   3.895   8.059   9.681 -0.7943 -0.1506  0.1225
  918MOL0     C21049   4.017   8.037   9.754  0.1246  0.0762 -0.0744
  918MOL0     C21050   4.112   7.945   9.704 -0.0266 -0.4068 -0.2734
  918MOL0     C21051   4.094   7.882   9.577  1.0074  0.1508 -0.3338
  918MOL0     O21052   4.189   7.797   9.521 -0.2027  0.2331 -0.5414
  918MOL0     C21053   4.317   7.766   9.584  0.1560 -0.1649 -1.0096
  918MOL0     C21054   4.412   7.888   9.587  0.3838  0.4227  0.7815
  918MOL0     C21055   4.552   7.845   9.551  0.7005 -0.0871 -1.0103
  918MOL0     C21056   4.662   7.956   9.574 -0.6293 -0.2977 -0.5426
  918MOL0     C21057   4.803   7.926   9.517 -0.0472 -0.5021 -0.4641
  918MOL0     C21058   4.806   7.948   9.367  0.7661 -0.3332  0.1098
  918MOL0     C21059   4.952   7.955   9.320 -0.3673  0.5283  0.3558
  918MOL0     C21060   4.952   7.991   9.171 -0.8154 -0.4436 -0.2676
  918MOL0     N21061   5.088   7.977   9.111 -0.0370 -0.0387 -0.0992
  918MOL0     C21062   5.170   8.084   9.102 -0.3281 -0.9236  0.0360
  918MOL0     C21063   5.240   8.062   8.990 -1.2013 -0.3620 -0.1196
  918MOL0     C21064   5.351   8.154   8.936  1.1085 -0.7507 -0.5324
  918MOL0     C21065   5.320   8.237   8.801  0.3789  0.3345  0.4097
  918MOL0     C21066   5.296   8.158   8.676 -0.2626 -0.4312 -0.5139
  918MOL0     C21067   5.405   8.049   8.647  0.2299 -0.2762  0.1560
  918MOL0     O21068   5.534   8.090   8.682  0.2388  0.3697 -0.3413
  918MOL0     C21069   5.623   8.144   8.586  0.7593  0.4301 -0.0049
  918MOL0     C21070   5.603   8.134   8.449 -0.4103 -0.6462 -0.5277
  918MOL0     C21071   5.705   8.191   8.361  0.2581  0.1247 -0.0351
  918MOL0     C21072   5.810   8.257   8.410  0.6272 -0.0672  0.1403
  918MOL0     C21073   5.905   8.336   8.314  0.5418  0.7615  0.4816
  918MOL0     O21074   5.890   8.319   8.184 -0.0607  0.2162  0.4434
  918MOL0     C21075   5.962   8.383   8.079 -0.0648 -0.6742  0.0046
  918MOL0     C21076   5.902   8.374   7.953  0.5065  0.1807 -0.3000
  918MOL0     C21077   5.961   8.428   7.841  0.1851 -0.4290  0.1337
  918MOL0     C21078   6.065   8.522   7.860  0.1725 -0.0297  0.5298
  918MOL0     O21079   6.122   8.562   7.740 -0.3934  0.0107  0.4421
  918MOL0     C21080   6.250   8.607   7.734  0.0525 -0.8466 -0.5399
  918MOL0     C21081   6.323   8.578   7.607  0.2569 -0.2032 -0.0118
  918MOL0     C21082   6.370   8.434   7.579 -0.0887  1.2116  0.0203
  918MOL0     C21083   6.464   8.401   7.457 -0.0340 -0.3835  0.6172
  918MOL0     C21084   6.489   8.251   7.454  0.3110  0.5926 -0.5801
  918MOL0     C21085   6.565   8.216   7.320  0.3084 -0.9053  0.0275
  918MOL0     C21086   6.470   8.173   7.213 -0.2722 -0.3323 -0.0934
  918MOL0     C21087   6.542   8.109   7.093 -0.0464  0.3379 -0.2824
  918MOL0    Cl21088   6.617   7.952   7.122 -0.2033 -0.0509  0.1298
  918MOL0     C21089   6.121   8.540   7.985 -0.1563  0.3910  0.5120
  918MOL0     C21090   6.066   8.472   8.089  0.4972 -0.2623 -0.5798
  918MOL0     O21091   5.995   8.395   8.364 -1.5263  1.0186 -0.4590
  918MOL0     C21092   5.836   8.251   8.551  0.5368 -0.4586  0.4271
  918MOL0     C21093   5.741   8.196   8.635 -0.9162 -0.7467  0.6973
  918MOL0     N21094   5.195   7.941   8.927  0.1392 -0.1716 -0.1642
  918MOL0     N21095   5.105   7.896   9.001  0.4746 -0.0198 -0.9455
  918MOL0     C21096   3.972   7.888   9.513 -0.3406  0.0962 -0.0648
  918MOL0     C21097   3.873   7.982   9.562 -0.3598  0.0230 -0.1263
  918MOL0     C21098   3.681   8.293   9.860  0.5507 -0.8650  0.0267
  918MOL0     C21099   3.722   8.423   9.899  0.2305  0.1825 -0.1138
  918MOL0     C21100   3.637   8.524   9.914  0.7134  0.0804  0.7933
  918MOL0     C21101   3.491   8.504   9.886 -0.7176 -0.4424 -0.9248
  918MOL0     O21102   3.385   8.592   9.905  0.3972 -0.0093  0.8195
  918MOL0     C21103   3.422   8.727   9.910  0.8550 -0.4228  0.6085
  918MOL0     C21104   3.289   8.798   9.908 -0.0467  0.1933 -0.3082
  918MOL0     C21105   3.301   8.942   9.869  1.1056 -0.3704  0.5861
  918MOL0     C21106   3.337   9.041   9.985  0.5890  0.9310  0.1244
  918MOL0     C21107   3.305   9.177   9.935 -0.4527 -0.6077  0.3979
  918MOL0     C21108   3.307   9.296   9.903  0.6140 -0.8163 -0.2965
  918MOL0     C21109   3.445   8.387   9.835 -0.1049  0.6766  0.2473
  918MOL0     C21110   3.538   8.274   9.830 -0.9774  0.2003 -0.8321
  918MOL0     H21111   4.046   8.100   9.838  1.9214  2.3217 -2.1982
  918MOL0     H21112   4.204   7.922   9.758  1.0899  2.3355 -0.8068
  918MOL0     H21113   4.361   7.681   9.530 -0.5882  1.5090 -4.5619
  918MOL0     H21114   4.294   7.740   9.688 -1.1039 -2.3069 -1.7525
  918MOL0     H21115   4.403   7.927   9.688  2.1202  1.8011  0.4522
  918MOL0     H21116   4.381   7.971   9.522  0.2695 -1.0779 -1.1758
  918MOL0     H21117   4.570   7.818   9.447  3.2639  1.0372 -0.9454
  918MOL0     H21118   4.577   7.760   9.616 -3.5887  0.9106  2.3995
  918MOL0     H21119   4.625   8.051   9.533 -1.2338 -0.4743 -0.4216
  918MOL0     H21120   4.670   7.971   9.682  0.6146  1.4400 -0.8234
  918MOL0     H21121   4.830   7.824   9.545  2.1102  0.2942  0.5562
  918MOL0     H21122   4.862   8.000   9.572 -1.8046 -0.1030  0.9916
  918MOL0     H21123   4.760   8.047   9.360  1.2033 -0.0723  0.8294
  918MOL0     H21124   4.742   7.883   9.306 -1.8731  1.3396  0.9142
  918MOL0     H21125   5.013   8.028   9.373  5.4066 -3.8065  0.5792
  918MOL0     H21126   5.000   7.858   9.332  1.0937  0.8024 -2.4605
  918MOL0     H21127   4.905   8.085   9.140  0.1142  0.0928 -0.0908
  918MOL0     H21128   4.887   7.919   9.121 -1.2622  0.6778 -1.3547
  918MOL0     H21129   5.174   8.171   9.168 -2.0699 -0.6570 -0.1539
  918MOL0     H21130   5.429   8.086   8.900 -1.0036 -2.6409 -1.8392
  918MOL0     H21131   5.386   8.223   9.013 -0.5237  0.7158 -1.0450
  918MOL0     H21132   5.405   8.301   8.776  0.1813 -0.3868 -2.5109
  918MOL0     H21133   5.237   8.302   8.830 -1.5451 -1.4833 -0.7025
  918MOL0     H21134   5.191   8.129   8.677 -1.7137  4.1432  0.5043
  918MOL0     H21135   5.309   8.224   8.590  0.3554  1.3187  0.8689
  918MOL0     H21136   5.394   8.017   8.543 -0.0804  0.7511 -0.1464
  918MOL0     H21137   5.382   7.968   8.716 -2.2770 -0.3974 -0.7027
  918MOL0     H21138   5.513   8.092   8.405  0.2599 -0.4449 -2.1532
  918MOL0     H21139   5.680   8.192   8.256 -0.2518  0.0529  0.0842
  918MOL0     H21140   5.809   8.320   7.938  0.6391 -0.0404 -0.3199
  918MOL0     H21141   5.913   8.426   7.743 -0.4821  1.0387  0.4066
  918MOL0     H21142   6.307   8.580   7.823 -0.8376 -0.0648  0.2875
  918MOL0     H21143   6.251   8.716   7.739 -1.9262 -0.7943 -0.0775
  918MOL0     H21144   6.409   8.644   7.591  0.5502 -1.3516 -4.1266
  918MOL0     H21145   6.243   8.599   7.536  0.7502  3.5173  0.3553
  918MOL0     H21146   6.283   8.372   7.556  0.0260  0.9718  0.2367
  918MOL0     H21147   6.424   8.400   7.668  1.1314 -0.8866 -1.4458
  918MOL0     H21148   6.423   8.433   7.361 -1.3354 -0.4428  1.1303
  918MOL0     H21149   6.552   8.466   7.467 -0.6222  0.1931  2.4253
  918MOL0     H21150   6.398   8.190   7.459  0.9121 -0.2155  2.6330
  918MOL0     H21151   6.549   8.213   7.537  1.2283 -0.8602 -1.8542
  918MOL0     H21152   6.643   8.143   7.345  0.4379 -1.1111 -0.9488
  918MOL0     H21153   6.612   8.312   7.297 -1.4888 -0.0902 -0.3813
  918MOL0     H21154   6.395   8.103   7.250 -1.8943 -0.5473 -3.3912
  918MOL0     H21155   6.413   8.260   7.180 -0.4667  0.6574  2.5887
  918MOL0     H21156   6.620   8.174   7.052  1.8087 -1.6014 -0.0400
  918MOL0     H21157   6.468   8.080   7.018 -0.6739 -0.7385  0.7018
  918MOL0     H21158   6.217   8.589   7.996 -0.0307  1.4171 -3.5618
  918MOL0     H21159   6.118   8.483   8.184 -2.2854  0.3823  0.9832
  918MOL0     H21160   5.918   8.308   8.594 -1.6219  2.9000  0.4964
  918MOL0     H21161   5.753   8.190   8.743 -4.4406 -0.3265  1.2309
  918MOL0     H21162   3.962   7.830   9.422 -0.8324  2.2331 -1.4428
  918MOL0     H21163   3.778   7.998   9.514 -0.2099  2.7034  0.3206
  918MOL0     H21164   3.817   8.461   9.938 -2.1858  4.3452  2.4952
  918MOL0     H21165   3.661   8.618   9.961 -0.5614  0.3125  1.0102
  918MOL0     H21166   3.494   8.760   9.834  0.3492 -3.6279 -1.4878
  918MOL0     H21167   3.453   8.752  10.012 -1.3963  0.5561  1.1039
  918MOL0     H21168   3.227   8.744   9.835 -0.1163  0.3019 -0.3299
  918MOL0     H21169   3.240   8.792  10.006  1.7020  0.5358  0.6172
  918MOL0     H21170   3.207   8.971   9.822 -0.0125 -3.5934  0.5696
  918MOL0     H21171   3.383   8.943   9.796 -0.1652 -1.0163 -0.8993
  918MOL0     H21172   3.276   9.011  10.071  1.2343 -0.0768  0.2492
  918MOL0     H21173   3.445   9.040  10.006  1.0153 -0.4819 -1.8488
  918MOL0     H21174   3.298   9.400   9.879 -2.8909 -1.0671 -0.5853
  918MOL0     H21175   3.340   8.360   9.836 -0.5172  1.9368  3.1411
  918MOL0     H21176   3.515   8.174   9.795  3.8832 -1.3610 -0.2325
  919MOL0     O21177  10.205   1.374  11.261  0.8872 -0.2690 -0.3835
  919MOL0     C21178  10.192   1.247  11.263 -0.3400  0.0527  0.1856
  919MOL0     O21179  10.113   1.179  11.353 -0.4457  0.6129 -0.1322
  919MOL0     C21180  10.029   1.249  11.436  0.5414 -0.2914 -0.3857
  919MOL0     C21181  10.057   1.244  11.570 -0.1162 -0.4461 -0.9995
  919MOL0     C21182   9.981   1.296  11.676  0.1961  0.0876 -0.2006
  919MOL0     C21183   9.866   1.368  11.636  0.3675  0.5531 -0.2223
  919MOL0     O21184   9.780   1.425  11.729 -0.1472  0.1478  0.3705
  919MOL0     C21185   9.648   1.467  11.695 -0.7785 -0.0058  0.1062
  919MOL0     C21186   9.593   1.522  11.830  0.4452  0.6331  0.5124
  919MOL0     C21187   9.458   1.571  11.822 -0.0521 -0.4920  0.5778
  919MOL0     C21188   9.446   1.709  11.751 -0.0597 -0.2257  0.1469
  919MOL0     C21189   9.314   1.785  11.766 -0.1228  0.8215  0.8277
  919MOL0     C21190   9.197   1.703  11.701  0.6635 -0.4434 -0.5149
  919MOL0     C21191   9.083   1.793  11.657 -0.0826 -0.2586  0.0423
  919MOL0     C21192   8.985   1.730  11.552  0.6663  0.3922 -0.6006
  919MOL0     N21193   8.947   1.596  11.578  0.2824  1.3175  0.1451
  919MOL0     C21194   8.870   1.534  11.677  0.0495 -0.0659 -0.2786
  919MOL0     C21195   8.873   1.409  11.652  0.4360 -0.5906 -0.1916
  919MOL0     C21196   8.789   1.314  11.723 -0.4724  0.2684  0.0682
  919MOL0     C21197   8.648   1.318  11.665  0.0607  0.1294 -0.4047
  919MOL0     C21198   8.536   1.262  11.758 -0.2368  0.6438  0.0486
  919MOL0     C21199   8.570   1.131  11.824 -0.1241 -0.0723 -0.0140
  919MOL0     O21200   8.647   1.156  11.947 -0.0079  0.3119  0.5626
  919MOL0     C21201   8.586   1.149  12.066 -0.6201  0.0364 -0.4055
  919MOL0     C21202   8.663   1.105  12.169  0.3513 -0.1978 -0.9478
  919MOL0     C21203   8.592   1.076  12.294 -1.6754  0.0824 -0.1622
  919MOL0     C21204   8.461   1.098  12.317 -0.5028  0.4736 -0.5447
  919MOL0     C21205   8.409   1.085  12.453  0.1257 -0.4900 -0.4374
  919MOL0     O21206   8.492   1.042  12.555 -0.1520  0.1681  0.1519
  919MOL0     C21207   8.460   1.062  12.689  0.9019 -0.3193 -0.1619
  919MOL0     C21208   8.504   0.970  12.788 -0.5445  0.4156 -0.1747
  919MOL0     C21209   8.452   0.979  12.916  0.1386 -0.1556 -0.6964
  919MOL0     C21210   8.375   1.078  12.964  0.7204 -0.4001  0.2405
  919MOL0     O21211   8.327   1.072  13.096  0.2692 -0.0205 -0.6221
  919MOL0     C21212   8.230   1.171  13.142 -0.4438 -0.5751  0.2273
  919MOL0     C21213   8.162   1.136  13.270 -1.0028 -0.0356  0.0946
  919MOL0     C21214   8.279   1.138  13.366  0.0569 -0.4500 -0.7131
  919MOL0     C21215   8.242   1.118  13.514  0.1896  0.3827  0.6089
  919MOL0     C21216   8.214   1.253  13.583  0.1704 -0.3077  0.9963
  919MOL0     C21217   8.183   1.227  13.720 -0.5257  0.0697 -0.7258
  919MOL0     C21218   8.215   1.356  13.799 -0.2610 -0.6079  0.9813
  919MOL0     C21219   8.231   1.332  13.947  0.1436 -0.4059 -0.5972
  919MOL0    Cl21220   8.069   1.267  14.004 -0.6237  0.5105 -0.1478
  919MOL0     C21221   8.340   1.180  12.861 -0.8050  0.6930 -0.1208
  919MOL0     C21222   8.375   1.168  12.730 -0.1835  0.7331 -0.3259
  919MOL0     O21223   8.290   1.086  12.462  0.1340  0.2064 -0.4684
  919MOL0     C21224   8.391   1.164  12.214 -0.3518 -0.3997 -0.7264
  919MOL0     C21225   8.455   1.194  12.092 -0.7288  0.0679  0.5486
  919MOL0     N21226   8.960   1.384  11.550 -0.2793 -0.8348  0.4704
  919MOL0     N21227   8.992   1.495  11.505 -0.6642 -0.2109  0.2219
  919MOL0     C21228   9.832   1.375  11.507 -0.6724  0.2626  0.7027
  919MOL0     C21229   9.914   1.319  11.407  1.0501  0.3115  0.1773
  919MOL0     C21230  10.292   1.172  11.174 -0.0917 -0.2000  0.0352
  919MOL0     C21231  10.388   1.246  11.099  0.4351  0.2656 -0.9047
  919MOL0     C21232  10.469   1.177  11.025  0.1992  0.1721 -0.0128
  919MOL0     C21233  10.465   1.042  10.999 -0.2584  0.0442  0.5479
  919MOL0     O21234  10.557   0.989  10.915 -0.3180  0.2940  0.5642
  919MOL0     C21235  10.499   0.918  10.807  0.7269  0.1564 -0.0976
  919MOL0     C21236  10.564   0.950  10.675  0.1015  0.3600  0.5100
  919MOL0     C21237  10.683   0.859  10.652  0.4573 -0.2423  0.3392
  919MOL0     C21238  10.736   0.880  10.503 -0.0650  0.2405 -0.0851
  919MOL0     C21239  10.805   0.762  10.456 -0.1226 -0.0441  0.6464
  919MOL0     C21240  10.861   0.672  10.402 -0.1890  0.3811 -0.8728
  919MOL0     C21241  10.372   0.959  11.074  0.0709 -0.6688  0.4593
  919MOL0     C21242  10.284   1.034  11.154  0.0895  0.3203 -0.6387
  919MOL0     H21243  10.153   1.201  11.593  1.1902  2.4839 -0.5535
  919MOL0     H21244  10.019   1.293  11.777 -0.4004 -0.1485  0.0244
  919MOL0     H21245   9.586   1.388  11.651  0.8446 -2.2047  1.5202
  919MOL0     H21246   9.644   1.555  11.630 -1.2387  0.2554  0.4763
  919MOL0     H21247   9.662   1.597  11.869  1.2656  0.3007 -0.2818
  919MOL0     H21248   9.591   1.448  11.911  3.4063  1.0664  1.1026
  919MOL0     H21249   9.420   1.586  11.923 -1.8528 -5.7461  0.9702
  919MOL0     H21250   9.398   1.489  11.781  0.8942 -0.5914 -0.6488
  919MOL0     H21251   9.529   1.767  11.793 -0.7960  0.8024  0.2347
  919MOL0     H21252   9.476   1.699  11.646 -0.6471  0.6993 -0.1249
  919MOL0     H21253   9.321   1.882  11.714 -0.3435 -0.4335 -1.6849
  919MOL0     H21254   9.301   1.802  11.874  0.8474  0.8692  0.9489
  919MOL0     H21255   9.165   1.625  11.770 -1.4339  0.6348 -0.1917
  919MOL0     H21256   9.234   1.656  11.609  0.1290  0.7632 -1.3792
  919MOL0     H21257   9.025   1.826  11.744  1.2705  2.0237  0.1810
  919MOL0     H21258   9.125   1.886  11.616  2.6654 -1.1914  0.5357
  919MOL0     H21259   9.030   1.727  11.452  2.6421 -5.7294  0.0325
  919MOL0     H21260   8.895   1.792  11.547  0.8062  0.5299 -1.8290
  919MOL0     H21261   8.806   1.572  11.756  2.6730  0.5529  1.6759
  919MOL0     H21262   8.778   1.350  11.826 -1.4796  0.6633 -0.1649
  919MOL0     H21263   8.827   1.212  11.715 -2.4451 -0.8441  3.1166
  919MOL0     H21264   8.657   1.259  11.573  2.8798 -0.0768 -0.0763
  919MOL0     H21265   8.625   1.420  11.632  0.8105  1.6569  3.2891
  919MOL0     H21266   8.503   1.335  11.833 -3.1888  0.9227 -1.4013
  919MOL0     H21267   8.446   1.256  11.697 -0.8551  0.8970  0.9134
  919MOL0     H21268   8.628   1.061  11.763 -1.5276 -0.1914 -1.2906
  919MOL0     H21269   8.481   1.076  11.857  1.1929 -2.2691  0.0976
  919MOL0     H21270   8.763   1.064  12.168  0.8286  0.8863 -0.2020
  919MOL0     H21271   8.653   1.041  12.376 -1.1795 -0.0761 -0.5960
  919MOL0     H21272   8.554   0.879  12.756  2.5527  3.3903 -4.9755
  919MOL0     H21273   8.471   0.914  13.001 -1.9207  1.1303  0.8345
  919MOL0     H21274   8.145   1.178  13.074 -0.7113  2.1343  0.7252
  919MOL0     H21275   8.271   1.272  13.135 -2.2959  0.1651 -0.3404
  919MOL0     H21276   8.114   1.041  13.247 -0.7461 -0.5563  1.5961
  919MOL0     H21277   8.094   1.217  13.298  1.1295  2.0429 -0.3998
  919MOL0     H21278   8.334   1.232  13.354  0.2936 -0.8097 -2.8923
  919MOL0     H21279   8.352   1.058  13.352  2.7730  1.6184  0.5640
  919MOL0     H21280   8.163   1.043  13.523  0.7103 -0.5745 -1.9094
  919MOL0     H21281   8.337   1.076  13.547  1.0225  1.7158 -0.0178
  919MOL0     H21282   8.133   1.299  13.527  2.2114  1.3781 -0.7173
  919MOL0     H21283   8.300   1.318  13.569 -1.5329  1.8450  0.0170
  919MOL0     H21284   8.237   1.138  13.751 -2.1405 -0.8016 -0.2923
  919MOL0     H21285   8.079   1.197  13.735 -0.1153 -1.1689 -0.2259
  919MOL0     H21286   8.312   1.397  13.771  0.5870 -0.6022  3.6357
  919MOL0     H21287   8.143   1.436  13.779  1.6979  0.3187 -3.4387
  919MOL0     H21288   8.255   1.418  14.011  2.1429 -0.6892 -0.8895
  919MOL0     H21289   8.311   1.259  13.962 -1.6249 -2.7911 -2.1296
  919MOL0     H21290   8.281   1.269  12.877  0.7130  1.5372  0.9640
  919MOL0     H21291   8.324   1.233  12.660  0.5932  1.2430 -0.4232
  919MOL0     H21292   8.286   1.189  12.225 -0.4774 -1.2573  0.0974
  919MOL0     H21293   8.406   1.252  12.014 -0.5313  1.9620  1.7551
  919MOL0     H21294   9.738   1.400  11.460  0.3276 -0.5098 -1.8646
  919MOL0     H21295   9.882   1.327  11.304  0.7178  1.6325  0.3638
  919MOL0     H21296  10.406   1.350  11.123  2.6345 -0.3750  0.5340
  919MOL0     H21297  10.556   1.224  10.980  0.3144  1.8480  1.8006
  919MOL0     H21298  10.393   0.944  10.818  0.0689 -2.0313 -0.7007
  919MOL0     H21299  10.518   0.810  10.814  1.7758  0.3969  1.0589
  919MOL0     H21300  10.493   0.933  10.593 -0.3267  2.9632  0.2348
  919MOL0     H21301  10.561   1.058  10.691 -3.2178  0.1105  2.3919
  919MOL0     H21302  10.646   0.756  10.650  0.0550 -0.0885 -0.7688
  919MOL0     H21303  10.768   0.883  10.717  0.3944 -0.0197  0.3371
  919MOL0     H21304  10.649   0.913  10.446 -0.7611  1.6828  1.7168
  919MOL0     H21305  10.801   0.967  10.506  0.4359 -0.0561 -1.5524
  919MOL0     H21306  10.914   0.586  10.366 -0.6986 -0.5162  0.4133
  919MOL0     H21307  10.372   0.852  11.057 -1.7151 -0.4983 -1.0195
  919MOL0     H21308  10.208   0.974  11.203 -0.6981  0.5045 -1.6111
  920MOL0     O21309   6.939   2.834   8.730 -0.1753 -0.1583  0.1995
  920MOL0     C21310   6.910   2.718   8.760  0.0456  0.0668 -0.6580
  920MOL0     O21311   7.009   2.623   8.803  0.4093 -0.6208 -0.2582
  920MOL0     C21312   7.144   2.646   8.789 -0.3123 -0.1596  0.5609
  920MOL0     C21313   7.208   2.731   8.693 -0.0114  0.6996  0.9519
  920MOL0     C21314   7.347   2.738   8.677  0.3961 -1.7266  0.0408
  920MOL0     C21315   7.424   2.685   8.772 -0.7292 -0.6994  0.2779
  920MOL0     O21316   7.556   2.713   8.768  0.0445  0.6058  0.7578
  920MOL0     C21317   7.581   2.825   8.851 -0.3903 -0.3102 -0.1443
  920MOL0     C21318   7.722   2.876   8.846 -0.5428  0.0541 -0.2306
  920MOL0     C21319   7.750   2.936   8.709 -0.8571  0.1097  0.4200
  920MOL0     C21320   7.882   3.018   8.725  0.1939 -0.6218 -0.8938
  920MOL0     C21321   7.924   3.093   8.598 -0.1836  0.5335  0.1364
  920MOL0     C21322   8.047   3.037   8.528 -0.2794  0.5849  0.1774
  920MOL0     C21323   8.191   3.067   8.597  1.0160 -1.0240 -0.2274
  920MOL0     C21324   8.237   3.208   8.600 -0.6671 -0.2568  0.3525
  920MOL0     N21325   8.385   3.230   8.630 -0.7294 -0.5366  0.1230
  920MOL0     C21326   8.480   3.208   8.534  0.8071 -0.4424  0.6290
  920MOL0     C21327   8.601   3.240   8.586  0.1614  1.0242  0.4877
  920MOL0     C21328   8.736   3.236   8.519 -0.4769 -0.1130  0.3334
  920MOL0     C21329   8.756   3.343   8.411 -0.2799  0.8141  0.0795
  920MOL0     C21330   8.791   3.486   8.451 -0.1405  0.4854  0.5466
  920MOL0     C21331   8.688   3.573   8.506 -0.8715 -0.2290 -0.0285
  920MOL0     O21332   8.590   3.588   8.397 -0.3742 -0.8089  0.7072
  920MOL0     C21333   8.456   3.621   8.409 -0.0167 -0.2215 -0.3135
  920MOL0     C21334   8.377   3.565   8.515 -0.3974  0.3142  0.1959
  920MOL0     C21335   8.246   3.608   8.544  0.3030 -0.5460  0.4626
  920MOL0     C21336   8.183   3.695   8.457 -0.5725 -0.0850  0.5044
  920MOL0     C21337   8.050   3.751   8.479 -0.1935 -0.4600 -0.7998
  920MOL0     O21338   7.980   3.706   8.590  0.9708  0.1830  0.1768
  920MOL0     C21339   7.867   3.764   8.637 -1.3371 -0.1713 -0.1203
  920MOL0     C21340   7.786   3.682   8.717  0.0052 -1.6999 -1.0088
  920MOL0     C21341   7.675   3.742   8.783 -0.6491 -0.5967  0.2189
  920MOL0     C21342   7.629   3.874   8.752 -0.8233 -0.1966 -0.4331
  920MOL0     O21343   7.511   3.938   8.792 -0.1443  0.1753 -0.1937
  920MOL0     C21344   7.435   3.882   8.900 -0.1627 -0.7952  0.4770
  920MOL0     C21345   7.326   3.981   8.947 -0.0310 -0.9826  0.1868
  920MOL0     C21346   7.232   4.027   8.827  0.2196 -0.2684  0.2919
  920MOL0     C21347   7.140   4.143   8.859 -0.1103  0.0176 -0.5521
  920MOL0     C21348   7.040   4.171   8.732 -0.4865  0.7732  0.3536
  920MOL0     C21349   7.113   4.221   8.608 -0.5058  0.8345 -0.6570
  920MOL0     C21350   7.024   4.301   8.517  0.4066  0.3431 -0.0705
  920MOL0     C21351   7.092   4.368   8.385  0.3519  0.0895 -0.2753
  920MOL0    Cl21352   7.146   4.248   8.270 -0.6934 -0.0426  0.0595
  920MOL0     C21353   7.721   3.949   8.680  0.5236  0.9936  0.4312
  920MOL0     C21354   7.846   3.904   8.636 -0.2627 -0.0739  0.0212
  920MOL0     O21355   8.008   3.845   8.408 -0.4351 -0.2067  1.0602
  920MOL0     C21356   8.256   3.735   8.338 -0.2472 -0.3040  0.3810
  920MOL0     C21357   8.386   3.698   8.319  0.6223  0.2549  0.6392
  920MOL0     N21358   8.570   3.275   8.715  0.0575 -0.2658  0.4602
  920MOL0     N21359   8.449   3.268   8.743  0.2321 -0.6597 -0.1517
  920MOL0     C21360   7.370   2.608   8.881 -0.2305 -0.0558  0.3206
  920MOL0     C21361   7.233   2.580   8.875  0.4056 -0.4991 -0.8007
  920MOL0     C21362   6.767   2.679   8.736 -0.2593  0.2601 -0.6785
  920MOL0     C21363   6.725   2.545   8.735  0.3556  0.4585  0.3749
  920MOL0     C21364   6.587   2.510   8.715 -0.1671  0.7018  0.3278
  920MOL0     C21365   6.492   2.605   8.695 -0.3590  0.4173 -0.6176
  920MOL0     O21366   6.363   2.560   8.691  0.4355 -0.2861 -0.5134
  920MOL0     C21367   6.253   2.664   8.702 -0.5111  0.1186 -0.4526
  920MOL0     C21368   6.126   2.581   8.724 -0.4190  0.9056  0.4267
  920MOL0     C21369   6.004   2.676   8.722  0.2362  0.1317 -0.3036
  920MOL0     C21370   5.869   2.605   8.698 -0.4051  0.1148  0.5063
  920MOL0     C21371   5.770   2.684   8.769  0.6472 -0.4574  0.5791
  920MOL0     C21372   5.674   2.749   8.808 -0.2744 -0.8277 -0.0493
  920MOL0     C21373   6.531   2.741   8.693 -0.2126 -0.8142  0.7528
  920MOL0     C21374   6.668   2.776   8.704 -0.4928 -0.0192 -0.4895
  920MOL0     H21375   7.140   2.782   8.625 -1.5116 -1.8587  0.4235
  920MOL0     H21376   7.394   2.804   8.605 -1.4904 -1.5436 -1.1091
  920MOL0     H21377   7.568   2.803   8.957 -3.0811  1.0340 -0.1193
  920MOL0     H21378   7.505   2.903   8.838  1.3888  2.9164  5.3800
  920MOL0     H21379   7.788   2.794   8.877  0.8428  0.4192 -2.0975
  920MOL0     H21380   7.717   2.945   8.931  0.7232  1.1319 -1.0074
  920MOL0     H21381   7.670   2.998   8.668 -0.3813  1.3507  1.2914
  920MOL0     H21382   7.774   2.855   8.640  3.5745  1.3973  0.1570
  920MOL0     H21383   7.863   3.080   8.812 -0.7176 -1.2616 -0.6199
  920MOL0     H21384   7.965   2.955   8.757 -0.6965 -0.3132  2.3804
  920MOL0     H21385   7.939   3.198   8.624  0.0056 -0.0938  2.8840
  920MOL0     H21386   7.846   3.088   8.521 -0.4262 -3.7087  0.4076
  920MOL0     H21387   8.035   3.088   8.431 -2.2066  4.1738  2.0805
  920MOL0     H21388   8.041   2.931   8.502  1.6139  0.7033 -0.9900
  920MOL0     H21389   8.197   3.017   8.694 -1.6066 -0.9551  0.0487
  920MOL0     H21390   8.255   3.020   8.522 -0.4730  0.2283 -2.4219
  920MOL0     H21391   8.167   3.269   8.657 -0.2586  0.0532  0.5168
  920MOL0     H21392   8.230   3.255   8.501  0.5204  2.0311  1.2903
  920MOL0     H21393   8.454   3.189   8.430  1.2250 -0.1624  0.4720
  920MOL0     H21394   8.739   3.143   8.461  1.7018 -0.6772  1.2594
  920MOL0     H21395   8.827   3.234   8.580 -0.3493 -1.4005  0.1292
  920MOL0     H21396   8.660   3.349   8.360  0.2456 -0.4909 -1.0975
  920MOL0     H21397   8.827   3.302   8.339 -1.4762 -3.1751  0.9709
  920MOL0     H21398   8.870   3.485   8.528 -2.2361 -1.5070  2.8529
  920MOL0     H21399   8.821   3.525   8.354  0.8278  1.8966  1.3730
  920MOL0     H21400   8.740   3.666   8.529 -0.3491 -0.2279 -1.1550
  920MOL0     H21401   8.637   3.530   8.592  0.6238  0.9170  1.4867
  920MOL0     H21402   8.418   3.488   8.580  1.1104  0.6272 -0.3503
  920MOL0     H21403   8.194   3.577   8.634  0.9168  2.5915  2.0298
  920MOL0     H21404   7.810   3.577   8.731 -0.6665 -1.6732  0.5804
  920MOL0     H21405   7.603   3.685   8.841 -0.3697  0.6501  1.8775
  920MOL0     H21406   7.498   3.853   8.984  2.1322 -1.8000 -1.4651
  920MOL0     H21407   7.383   3.789   8.873 -3.4541  0.2798  2.5916
  920MOL0     H21408   7.380   4.066   8.991  0.4170 -0.4495 -1.3143
  920MOL0     H21409   7.268   3.942   9.031  0.9164  0.3481  1.5134
  920MOL0     H21410   7.166   3.948   8.792 -1.1942  2.1616 -3.1121
  920MOL0     H21411   7.285   4.071   8.741 -0.1400 -2.2644 -1.0379
  920MOL0     H21412   7.071   4.105   8.935 -2.2579  0.8726 -1.9582
  920MOL0     H21413   7.203   4.227   8.889  0.3867  0.4034 -2.5013
  920MOL0     H21414   6.973   4.250   8.766  1.1538  1.5519  1.9521
  920MOL0     H21415   6.981   4.081   8.713  0.5565 -1.2953  5.2593
  920MOL0     H21416   7.152   4.141   8.545  2.1990  2.0270 -0.6024
  920MOL0     H21417   7.199   4.280   8.640  2.0392 -1.2902 -3.1449
  920MOL0     H21418   6.938   4.248   8.476 -0.3922  3.1072 -2.3859
  920MOL0     H21419   6.997   4.386   8.581  1.3242 -0.8007  1.9228
  920MOL0     H21420   7.184   4.422   8.410  1.4305 -0.3601 -2.9151
  920MOL0     H21421   7.018   4.432   8.336 -0.0034 -0.7874 -0.9073
  920MOL0     H21422   7.686   4.050   8.662 -0.1287  0.6658 -0.1725
  920MOL0     H21423   7.915   3.964   8.577 -1.7649  0.9983 -0.6758
  920MOL0     H21424   8.214   3.808   8.270 -2.5949  0.8299  2.8440
  920MOL0     H21425   8.436   3.737   8.230 -1.1400 -2.8115 -1.9045
  920MOL0     H21426   7.437   2.572   8.958  2.4341  1.3299 -1.2088
  920MOL0     H21427   7.195   2.527   8.962  1.0163 -0.1421 -0.3073
  920MOL0     H21428   6.796   2.464   8.751  0.8070  0.6419 -0.6533
  920MOL0     H21429   6.556   2.409   8.737  0.1787  0.6297  0.4851
  920MOL0     H21430   6.253   2.732   8.617  2.1088  0.5660 -0.1782
  920MOL0     H21431   6.250   2.729   8.790  2.2309 -0.8426  0.4271
  920MOL0     H21432   6.121   2.500   8.651  2.8165  0.6387  0.3470
  920MOL0     H21433   6.135   2.534   8.822 -2.6200  0.1766  0.3320
  920MOL0     H21434   6.012   2.751   8.643 -1.8344  0.0092 -0.6853
  920MOL0     H21435   6.001   2.723   8.821 -2.1727 -1.6808  0.5756
  920MOL0     H21436   5.857   2.606   8.589  2.7441  3.3061 -0.0371
  920MOL0     H21437   5.888   2.509   8.747 -1.7800  1.7025  4.4940
  920MOL0     H21438   5.589   2.805   8.841  0.9663  1.1034  0.0177
  920MOL0     H21439   6.455   2.809   8.656  2.8299  0.5987 -3.7273
  920MOL0     H21440   6.694   2.876   8.672 -1.9561 -0.4299 -3.2650
  921MOL0     O21441   9.967   4.255  10.769 -0.2811 -0.1885  0.2083
  921MOL0     C21442   9.955   4.376  10.755  0.3505 -0.6084 -0.2021
  921MOL0     O21443   9.837   4.436  10.737 -0.1520  0.0689  0.6005
  921MOL0     C21444   9.720   4.362  10.725  0.7089 -0.3262  0.0008
  921MOL0     C21445   9.635   4.374  10.822  0.8693  0.5131 -0.6330
  921MOL0     C21446   9.508   4.302  10.814  0.4772 -0.4582 -0.5333
  921MOL0     C21447   9.473   4.219  10.703  0.5350 -0.0455  0.4508
  921MOL0     O21448   9.356   4.143  10.714  0.1103  0.0239  0.4127
  921MOL0     C21449   9.314   4.072  10.597 -0.0364 -0.1898  0.3661
  921MOL0     C21450   9.180   3.996  10.623  0.6104 -0.5831 -0.4981
  921MOL0     C21451   9.057   4.085  10.600 -1.0065  0.0147  0.5906
  921MOL0     C21452   8.932   4.009  10.640 -0.6126  0.0540 -0.3719
  921MOL0     C21453   8.817   4.099  10.632  0.1194  0.6089 -0.6147
  921MOL0     C21454   8.670   4.027  10.638  1.5044  0.0061  0.8773
  921MOL0     C21455   8.664   3.904  10.725 -0.0852  0.1909 -0.5936
  921MOL0     C21456   8.704   3.916  10.876  0.3018 -0.0933  0.7829
  921MOL0     N21457   8.692   3.794  10.951  0.9590  0.2405 -0.9749
  921MOL0     C21458   8.738   3.668  10.912 -0.0967  0.0040 -0.3650
  921MOL0     C21459   8.700   3.579  11.010 -0.4105 -0.3994  0.6446
  921MOL0     C21460   8.750   3.429  11.027 -0.4231  0.1998 -0.7282
  921MOL0     C21461   8.637   3.337  11.081 -1.0160 -1.2431  0.5112
  921MOL0     C21462   8.509   3.339  10.996 -0.1365 -0.4736 -0.1047
  921MOL0     C21463   8.517   3.375  10.848  0.5042 -0.5227  0.1597
  921MOL0     O21464   8.613   3.306  10.778  0.0304 -0.7145  0.6035
  921MOL0     C21465   8.556   3.202  10.713  1.2613  0.4535  0.0790
  921MOL0     C21466   8.519   3.216  10.581  0.2553  0.3206  1.0243
  921MOL0     C21467   8.462   3.109  10.505  0.8446  0.1270  0.0083
  921MOL0     C21468   8.429   2.988  10.582 -1.0903  0.5742 -0.3745
  921MOL0     C21469   8.359   2.875  10.525  0.0225 -0.3032 -0.2867
  921MOL0     O21470   8.291   2.896  10.411  0.9544 -0.5990  0.2775
  921MOL0     C21471   8.204   2.816  10.347  0.4356 -1.2832  0.1126
  921MOL0     C21472   8.191   2.674  10.369  0.1314  0.5689  0.1244
  921MOL0     C21473   8.101   2.604  10.290 -0.5104  0.3200 -0.2070
  921MOL0     C21474   8.034   2.663  10.186  0.1935 -0.0722 -0.7039
  921MOL0     O21475   7.954   2.595  10.098 -0.4798  0.0556 -0.1849
  921MOL0     C21476   7.858   2.508  10.155  0.4667  0.8449  0.4439
  921MOL0     C21477   7.731   2.497  10.080  0.1777 -0.5016  0.6167
  921MOL0     C21478   7.632   2.450  10.175  0.3026  0.4960  1.7581
  921MOL0     C21479   7.644   2.301  10.208 -0.2753  0.5993 -0.0232
  921MOL0     C21480   7.613   2.211  10.085  1.0120 -0.9150 -0.4755
  921MOL0     C21481   7.652   2.060  10.119 -0.1088 -0.4934  0.2278
  921MOL0     C21482   7.701   1.984   9.998  0.2680  0.1244 -1.2139
  921MOL0     C21483   7.759   1.854  10.039 -0.2333  1.0071  0.7254
  921MOL0    Cl21484   7.643   1.744  10.133 -0.7637 -0.2393 -0.1620
  921MOL0     C21485   8.034   2.805  10.175 -0.2360  0.2512  0.0118
  921MOL0     C21486   8.134   2.881  10.252  0.0407  0.4879  0.3085
  921MOL0     O21487   8.384   2.758  10.577 -0.0565 -0.7612 -0.0439
  921MOL0     C21488   8.466   2.975  10.715  0.1567 -0.0662  0.1559
  921MOL0     C21489   8.527   3.080  10.784 -0.0772  0.4639  0.4770
  921MOL0     N21490   8.620   3.657  11.099  0.1676  0.0764 -0.2640
  921MOL0     N21491   8.627   3.781  11.075  0.8366 -0.4558  0.5335
  921MOL0     C21492   9.569   4.211  10.614  0.1731  0.1966  0.8920
  921MOL0     C21493   9.686   4.282  10.614 -0.5999 -0.1607 -0.1437
  921MOL0     C21494  10.081   4.459  10.771  0.7068 -0.1394  0.1863
  921MOL0     C21495  10.058   4.594  10.792  0.8531 -0.2202 -0.2874
  921MOL0     C21496  10.164   4.672  10.817  0.9689 -0.9118 -0.1494
  921MOL0     C21497  10.299   4.631  10.806 -0.3621 -0.1792  0.4020
  921MOL0     O21498  10.404   4.713  10.840  0.1742  0.5095  0.4101
  921MOL0     C21499  10.436   4.837  10.772  0.2848  0.3101 -0.2054
  921MOL0     C21500  10.496   4.806  10.639  0.2300  0.2890  0.0647
  921MOL0     C21501  10.632   4.729  10.635  0.2759 -0.9235  0.0434
  921MOL0     C21502  10.733   4.785  10.748  0.3014  0.6825  0.0976
  921MOL0     C21503  10.860   4.718  10.749 -0.3208 -0.2319  0.3714
  921MOL0     C21504  10.980   4.695  10.740  0.2061  0.6773  0.9053
  921MOL0     C21505  10.315   4.499  10.779  0.1530 -1.0243  0.2450
  921MOL0     C21506  10.208   4.413  10.761  0.7408 -0.3011  0.4483
  921MOL0     H21507   9.667   4.433  10.907  2.4579  0.6033 -1.2581
  921MOL0     H21508   9.441   4.332  10.894  3.2079  0.2427  1.6504
  921MOL0     H21509   9.386   3.996  10.565  0.6443  0.2131  0.9252
  921MOL0     H21510   9.317   4.138  10.509  1.4589 -0.1802  0.3910
  921MOL0     H21511   9.182   3.976  10.730  0.6099  0.0825 -0.3687
  921MOL0     H21512   9.177   3.912  10.552 -0.5629 -2.0295  1.1884
  921MOL0     H21513   9.060   4.106  10.493 -0.0026 -1.2390  0.3478
  921MOL0     H21514   9.050   4.176  10.660 -1.8998 -0.4673  1.2409
  921MOL0     H21515   8.921   3.919  10.579  1.1771  0.7668 -1.8276
  921MOL0     H21516   8.953   3.972  10.741  0.8053  2.3566  0.2535
  921MOL0     H21517   8.817   4.157  10.540 -1.9559 -1.6212 -2.1425
  921MOL0     H21518   8.822   4.175  10.711  0.3971  1.1451 -1.1469
  921MOL0     H21519   8.638   4.000  10.538 -3.0879  3.3537  1.1030
  921MOL0     H21520   8.587   4.088  10.676  1.1682  0.5468 -0.6846
  921MOL0     H21521   8.559   3.875  10.721 -0.2415  0.1974  1.9769
  921MOL0     H21522   8.723   3.825  10.677 -1.8631 -0.4070 -1.9027
  921MOL0     H21523   8.638   3.999  10.900 -1.8250 -1.3768 -0.3296
  921MOL0     H21524   8.810   3.941  10.887  0.3717  0.3537 -0.6653
  921MOL0     H21525   8.791   3.661  10.818  0.1168  1.5589 -0.3749
  921MOL0     H21526   8.824   3.424  11.107 -1.1220 -4.0128 -0.0884
  921MOL0     H21527   8.803   3.391  10.940  1.8696 -0.5807  0.9132
  921MOL0     H21528   8.623   3.376  11.183 -2.0220  1.3186 -0.5246
  921MOL0     H21529   8.677   3.236  11.088  0.5833 -0.6647  0.2851
  921MOL0     H21530   8.448   3.249  11.008 -2.1013  0.5180 -1.9862
  921MOL0     H21531   8.447   3.416  11.042  1.4227 -0.4492  2.0727
  921MOL0     H21532   8.535   3.483  10.844  1.5807 -0.5619  2.4808
  921MOL0     H21533   8.417   3.358  10.807 -0.9542  2.4959  2.1272
  921MOL0     H21534   8.534   3.305  10.521 -0.3411 -0.6569 -0.6358
  921MOL0     H21535   8.441   3.117  10.399  2.3027  1.8103 -0.1864
  921MOL0     H21536   8.254   2.623  10.442 -0.4383 -0.5021 -0.1193
  921MOL0     H21537   8.104   2.497  10.302  2.5266  0.4167  0.6397
  921MOL0     H21538   7.834   2.546  10.255 -2.3517 -0.8883  0.5277
  921MOL0     H21539   7.911   2.416  10.181  1.0594  1.0997  0.1470
  921MOL0     H21540   7.744   2.445   9.985 -0.7305  0.9639 -0.3476
  921MOL0     H21541   7.704   2.602  10.062  4.5940  0.3015 -3.1559
  921MOL0     H21542   7.541   2.470  10.118  0.5251  1.6123  1.7773
  921MOL0     H21543   7.623   2.513  10.264  1.5371  0.6613  1.7792
  921MOL0     H21544   7.741   2.280  10.255 -0.2982  1.9389  0.6697
  921MOL0     H21545   7.584   2.272  10.295 -1.1511 -2.2546 -1.4542
  921MOL0     H21546   7.672   2.248  10.001  1.1164 -0.2898 -0.1292
  921MOL0     H21547   7.506   2.225  10.069  1.2380  1.5773 -0.1343
  921MOL0     H21548   7.566   2.011  10.166  0.1020 -0.8898  0.2048
  921MOL0     H21549   7.733   2.060  10.192  1.3394  0.0822 -1.3142
  921MOL0     H21550   7.621   1.959   9.927 -0.2432 -1.1781 -0.2218
  921MOL0     H21551   7.772   2.057   9.958 -0.7157  2.5902  1.1828
  921MOL0     H21552   7.850   1.880  10.094 -0.1755  0.7526  0.7506
  921MOL0     H21553   7.792   1.808   9.946  2.3975 -0.6257  2.3357
  921MOL0     H21554   7.979   2.849  10.092 -2.5397 -2.9597 -0.3564
  921MOL0     H21555   8.135   2.989  10.237  3.5582  0.3308 -1.6320
  921MOL0     H21556   8.456   2.885  10.775  2.0687  0.3052  1.0872
  921MOL0     H21557   8.556   3.063  10.887 -0.7042 -2.4545  0.2605
  921MOL0     H21558   9.556   4.149  10.525 -2.3052  1.3173  0.3686
  921MOL0     H21559   9.748   4.271  10.526 -0.2515  0.3220  0.0379
  921MOL0     H21560   9.962   4.644  10.786 -0.1287 -1.9427  0.3110
  921MOL0     H21561  10.153   4.779  10.829  0.2365 -0.5686 -3.1865
  921MOL0     H21562  10.495   4.905  10.835 -3.4818  2.0603  1.7248
  921MOL0     H21563  10.343   4.893  10.760  0.5508  0.5485 -1.2353
  921MOL0     H21564  10.424   4.742  10.587  0.4951 -0.7477  0.9203
  921MOL0     H21565  10.500   4.904  10.592  0.9387  0.9585  1.4728
  921MOL0     H21566  10.682   4.752  10.541  0.5925 -1.9731 -0.0553
  921MOL0     H21567  10.626   4.621  10.653  1.9265 -1.2041 -0.9209
  921MOL0     H21568  10.768   4.889  10.737 -0.4929  1.1241  1.5866
  921MOL0     H21569  10.694   4.765  10.848  1.3165  1.0428  0.5912
  921MOL0     H21570  11.082   4.664  10.732  0.1784  0.9159 -0.7137
  921MOL0     H21571  10.416   4.463  10.760  0.3912 -0.9328  1.3003
  921MOL0     H21572  10.241   4.313  10.733 -1.0071 -1.4088  2.0918
  922MOL0     O21573   7.165   6.455  11.266 -0.0333 -0.8768  0.1283
  922MOL0     C21574   7.209   6.403  11.163 -0.0121  0.5620 -0.0130
  922MOL0     O21575   7.130   6.337  11.066 -0.4237  0.7409  0.0370
  922MOL0     C21576   6.997   6.333  11.073  0.3838 -0.4551 -0.1591
  922MOL0     C21577   6.916   6.441  11.059 -0.8059 -0.9787 -0.0848
  922MOL0     C21578   6.776   6.421  11.071 -0.6046  0.1444 -0.6444
  922MOL0     C21579   6.718   6.299  11.102 -1.6512  0.5484 -0.0054
  922MOL0     O21580   6.587   6.287  11.120 -0.2374 -0.0307 -0.6970
  922MOL0     C21581   6.506   6.346  11.016 -0.1470 -0.6243 -0.2730
  922MOL0     C21582   6.370   6.289  11.003  0.9530 -0.3677  0.1081
  922MOL0     C21583   6.289   6.291  11.134  0.5123  0.4384  0.0598
  922MOL0     C21584   6.143   6.239  11.128 -1.2133  0.0151 -0.5861
  922MOL0     C21585   6.054   6.337  11.058 -0.1717 -0.7082  1.4004
  922MOL0     C21586   5.968   6.418  11.144 -1.1511  0.5362 -0.0873
  922MOL0     C21587   5.906   6.543  11.080  0.2258 -0.2895  0.1711
  922MOL0     C21588   5.968   6.654  11.163  0.7391  0.5572  0.8345
  922MOL0     N21589   5.932   6.783  11.091  0.0469  0.3417 -0.7818
  922MOL0     C21590   5.816   6.843  11.085  0.2627  0.1872 -0.4419
  922MOL0     C21591   5.828   6.950  10.998  0.1204  0.3999  0.1555
  922MOL0     C21592   5.724   7.058  10.958  0.9024  0.7200  0.4820
  922MOL0     C21593   5.719   7.173  11.064  0.3436 -0.5135 -0.1761
  922MOL0     C21594   5.582   7.249  11.060 -0.0068  0.7377 -0.2813
  922MOL0     C21595   5.595   7.381  11.133 -0.2457  0.9063 -0.4069
  922MOL0     O21596   5.473   7.422  11.201 -0.7023 -0.4401  0.3138
  922MOL0     C21597   5.402   7.501  11.116  1.4666 -0.6101 -0.2980
  922MOL0     C21598   5.274   7.470  11.056  0.4774  0.0418  0.5466
  922MOL0     C21599   5.187   7.568  10.999 -0.2274  0.3477 -0.2229
  922MOL0     C21600   5.235   7.697  10.973 -0.4874 -0.2433 -0.2154
  922MOL0     C21601   5.160   7.801  10.902 -0.0825  0.0440 -0.0916
  922MOL0     O21602   5.213   7.927  10.922 -0.1552 -0.6546  0.4700
  922MOL0     C21603   5.132   8.038  10.902 -0.4590  0.1458  0.1746
  922MOL0     C21604   5.036   8.042  10.796  0.3084 -0.3819  0.4186
  922MOL0     C21605   4.956   8.163  10.790  0.0756 -0.6349  0.8706
  922MOL0     C21606   4.978   8.278  10.860  0.0815 -0.4854 -0.4164
  922MOL0     O21607   4.886   8.380  10.830 -0.5887  0.2677 -0.3288
  922MOL0     C21608   4.899   8.506  10.900 -0.4616 -0.0436  0.1641
  922MOL0     C21609   4.784   8.602  10.870 -0.1488 -0.7915 -0.1409
  922MOL0     C21610   4.793   8.735  10.936 -0.4346  0.0124  0.2057
  922MOL0     C21611   4.653   8.815  10.934 -0.2530  1.1279 -0.4035
  922MOL0     C21612   4.637   8.925  11.045  0.0998  0.3624  0.6406
  922MOL0     C21613   4.498   8.964  11.084 -0.4848  1.8609  0.1220
  922MOL0     C21614   4.510   9.103  11.158 -0.1258 -0.0517  0.1388
  922MOL0     C21615   4.374   9.163  11.184  0.0006 -0.4676  1.1296
  922MOL0    Cl21616   4.390   9.322  11.266 -0.4021 -0.2387 -0.2634
  922MOL0     C21617   5.082   8.277  10.948 -0.4520  0.4207 -0.2748
  922MOL0     C21618   5.161   8.156  10.975  1.5276 -0.4505 -0.3086
  922MOL0     O21619   5.057   7.771  10.843  0.1259 -0.5827 -0.2642
  922MOL0     C21620   5.364   7.724  11.018  0.2739  0.9257 -0.1958
  922MOL0     C21621   5.441   7.630  11.089 -0.5927 -0.4622 -0.6004
  922MOL0     N21622   5.954   6.947  10.948  0.1929 -0.8755 -0.7330
  922MOL0     N21623   6.015   6.845  10.999 -0.4353  0.2275  0.1492
  922MOL0     C21624   6.805   6.191  11.101 -0.6701 -0.6754 -0.9051
  922MOL0     C21625   6.945   6.208  11.096  0.4962 -0.1619 -1.4981
  922MOL0     C21626   7.353   6.406  11.131  0.0484  0.3033  0.1836
  922MOL0     C21627   7.459   6.381  11.223 -0.0586  0.1277  0.0853
  922MOL0     C21628   7.594   6.398  11.181 -0.4377  0.3401  0.2374
  922MOL0     C21629   7.633   6.415  11.049 -0.1170 -0.4888 -0.0801
  922MOL0     O21630   7.763   6.424  11.001 -0.0712 -0.3321 -0.4167
  922MOL0     C21631   7.867   6.386  11.080  0.7613 -0.1823 -0.1973
  922MOL0     C21632   7.968   6.319  10.988 -0.2054 -0.0719  1.2635
  922MOL0     C21633   7.904   6.191  10.925 -0.5099  0.0233 -0.4596
  922MOL0     C21634   7.889   6.075  11.018 -0.3856  0.7203  0.4969
  922MOL0     C21635   8.003   5.983  11.025  0.0477 -1.0176 -1.2191
  922MOL0     C21636   8.101   5.915  11.019 -0.6395  0.6362  0.7356
  922MOL0     C21637   7.523   6.446  10.965  0.3446 -0.3028 -0.8094
  922MOL0     C21638   7.389   6.441  11.003  1.0038  0.2619  0.2620
  922MOL0     H21639   6.948   6.540  11.027  0.4447 -1.4150 -0.2344
  922MOL0     H21640   6.722   6.514  11.054 -0.6773  0.7068  2.1357
  922MOL0     H21641   6.550   6.331  10.917  0.9957  0.8631 -0.0252
  922MOL0     H21642   6.494   6.454  11.025 -0.1858 -0.6765  0.3358
  922MOL0     H21643   6.391   6.187  10.971  0.0272 -0.5893  0.1770
  922MOL0     H21644   6.320   6.326  10.913  1.3307 -2.3121 -0.9390
  922MOL0     H21645   6.291   6.392  11.174  3.3638  0.8593 -0.9378
  922MOL0     H21646   6.341   6.218  11.197 -0.1904  0.3200  0.5122
  922MOL0     H21647   6.144   6.146  11.071 -1.7076 -0.3010 -0.0886
  922MOL0     H21648   6.101   6.216  11.226 -2.2365  1.6344 -0.6122
  922MOL0     H21649   5.985   6.278  10.996  0.8338 -0.3595 -0.1073
  922MOL0     H21650   6.116   6.391  10.986 -0.9190 -3.2903 -1.4047
  922MOL0     H21651   6.027   6.448  11.231 -0.4744 -0.9976  0.0189
  922MOL0     H21652   5.893   6.347  11.179 -1.7959  1.5320  0.6186
  922MOL0     H21653   5.927   6.553  10.973  1.5102  0.9037  0.5067
  922MOL0     H21654   5.797   6.550  11.078  0.3507  2.9024  0.1502
  922MOL0     H21655   6.077   6.642  11.161  0.4758 -2.9043 -1.1889
  922MOL0     H21656   5.915   6.649  11.258  0.3479 -0.3943  0.5781
  922MOL0     H21657   5.726   6.832  11.144 -0.6131  1.4023 -1.5150
  922MOL0     H21658   5.626   7.014  10.939  2.1229 -0.3662 -4.7509
  922MOL0     H21659   5.748   7.096  10.859  1.3979 -1.2605 -0.1990
  922MOL0     H21660   5.785   7.257  11.038 -2.4725  2.1176  0.6451
  922MOL0     H21661   5.749   7.138  11.163 -0.0604 -1.6617 -0.4469
  922MOL0     H21662   5.567   7.286  10.958 -0.2025  0.8228 -0.2229
  922MOL0     H21663   5.499   7.186  11.093 -0.5505 -0.3705 -3.4471
  922MOL0     H21664   5.625   7.449  11.051  0.1931 -1.7331 -2.5769
  922MOL0     H21665   5.674   7.388  11.209 -0.6230 -2.2339  0.3948
  922MOL0     H21666   5.240   7.368  11.067 -1.5724  0.6509  0.2055
  922MOL0     H21667   5.091   7.545  10.954 -0.9791  0.6550  1.1543
  922MOL0     H21668   5.012   7.962  10.727  3.4128 -2.5356  1.6491
  922MOL0     H21669   4.893   8.166  10.701  1.2829 -4.5151 -0.3400
  922MOL0     H21670   4.992   8.555  10.870  1.1831 -1.6899  2.2507
  922MOL0     H21671   4.907   8.494  11.008 -0.7182 -1.7327  0.0144
  922MOL0     H21672   4.685   8.555  10.869 -0.6762  0.3067 -1.2225
  922MOL0     H21673   4.798   8.631  10.766 -0.3614  1.0944  0.3173
  922MOL0     H21674   4.874   8.792  10.890  0.3074 -0.0561  1.4092
  922MOL0     H21675   4.816   8.708  11.039  1.0980 -0.1949 -0.1656
  922MOL0     H21676   4.640   8.856  10.834  1.4981  1.1488 -0.6482
  922MOL0     H21677   4.568   8.752  10.960  0.8101  0.8723  3.0052
  922MOL0     H21678   4.667   9.018  10.996 -1.3147 -0.7300 -2.5045
  922MOL0     H21679   4.694   8.903  11.136 -0.0417 -3.5495 -0.0368
  922MOL0     H21680   4.455   8.901  11.163 -1.0225  0.4303 -1.2675
  922MOL0     H21681   4.434   8.976  10.996 -0.1441  0.0535 -0.4092
  922MOL0     H21682   4.563   9.082  11.252 -0.8745 -1.2638  0.3101
  922MOL0     H21683   4.557   9.187  11.107  1.0181  0.1623  1.4762
  922MOL0     H21684   4.310   9.103  11.250 -2.4544  2.9207  2.1129
  922MOL0     H21685   4.327   9.177  11.086  3.4981  1.7347 -0.4536
  922MOL0     H21686   5.101   8.371  11.000 -3.0321  0.3693  0.9275
  922MOL0     H21687   5.243   8.168  11.046  0.6004 -0.5303  0.8178
  922MOL0     H21688   5.412   7.820  11.001  0.0707  1.4244  1.8404
  922MOL0     H21689   5.543   7.646  11.119 -0.4220 -2.8108  0.2429
  922MOL0     H21690   6.774   6.087  11.112 -2.0320 -0.2249 -0.3519
  922MOL0     H21691   7.005   6.118  11.103 -0.2041 -0.7838 -3.0143
  922MOL0     H21692   7.438   6.364  11.328 -2.2231  2.1249  0.0534
  922MOL0     H21693   7.674   6.389  11.254  1.5378  3.5370 -1.3064
  922MOL0     H21694   7.835   6.311  11.152 -0.0922  2.1325  1.9838
  922MOL0     H21695   7.916   6.470  11.131  1.5344 -1.3648  1.0898
  922MOL0     H21696   8.002   6.381  10.905  0.1373 -0.9291  0.7586
  922MOL0     H21697   8.050   6.302  11.059 -0.8746  1.7332  2.5625
  922MOL0     H21698   7.955   6.158  10.834 -0.8420 -3.4769  0.4665
  922MOL0     H21699   7.799   6.214  10.901  0.4341  3.3750 -1.9694
  922MOL0     H21700   7.848   6.098  11.117 -1.8709  0.0411  0.0692
  922MOL0     H21701   7.803   6.017  10.983 -0.7146  1.9516 -0.7992
  922MOL0     H21702   8.190   5.856  11.018 -0.8918  0.0375  3.7740
  922MOL0     H21703   7.547   6.474  10.863  1.0627 -0.5847 -0.7221
  922MOL0     H21704   7.320   6.484  10.931 -0.1788  1.2905  1.9034
  923MOL0     O21705  10.882   7.163   1.956  0.3414  0.1347 -0.4433
  923MOL0     C21706  10.868   7.165   2.081 -0.5395  0.0608  0.2389
  923MOL0     O21707  10.762   7.120   2.152  0.3130  0.7904  0.4907
  923MOL0     C21708  10.661   7.048   2.087  0.0083  0.3497 -0.8713
  923MOL0     C21709  10.540   7.047   2.153  0.0887  1.1019 -0.0306
  923MOL0     C21710  10.430   6.975   2.095  0.0261 -0.4300  0.3457
  923MOL0     C21711  10.441   6.902   1.978  0.6561  0.2008  0.2588
  923MOL0     O21712  10.335   6.840   1.914  0.0066 -0.0692  0.3405
  923MOL0     C21713  10.274   6.917   1.817  0.3168  0.5970 -0.1999
  923MOL0     C21714  10.220   6.845   1.687  0.0636 -0.3044  0.3428
  923MOL0     C21715  10.342   6.784   1.606 -0.1581  0.3190  0.4919
  923MOL0     C21716  10.278   6.696   1.500 -0.3635 -0.5199  0.5905
  923MOL0     C21717  10.372   6.616   1.416  0.6997  0.1716  0.4725
  923MOL0     C21718  10.353   6.465   1.418  0.4543 -0.2145 -0.3218
  923MOL0     C21719  10.224   6.402   1.366  0.7134  0.4036  0.1160
  923MOL0     C21720  10.105   6.399   1.458 -0.0511 -0.4889  0.4714
  923MOL0     N21721   9.984   6.325   1.410 -0.7850 -0.8254  0.2564
  923MOL0     C21722   9.858   6.345   1.446  0.0320  0.8338  0.1709
  923MOL0     C21723   9.779   6.283   1.357  0.1734 -0.3469 -1.0192
  923MOL0     C21724   9.628   6.293   1.360 -1.2737  0.1798  0.0774
  923MOL0     C21725   9.574   6.192   1.453 -0.0176  0.5509 -0.2627
  923MOL0     C21726   9.417   6.212   1.459 -0.3472  0.3115 -0.2847
  923MOL0     C21727   9.356   6.102   1.542  0.5848 -0.8592  0.3517
  923MOL0     O21728   9.213   6.135   1.556 -0.8941  0.2149 -0.4624
  923MOL0     C21729   9.130   6.028   1.583  0.2002  0.0113  0.7969
  923MOL0     C21730   9.148   5.895   1.549  0.1056 -0.2086  0.8365
  923MOL0     C21731   9.057   5.794   1.587 -0.5318  0.0623  0.6171
  923MOL0     C21732   8.943   5.831   1.652  0.9264  0.3661 -0.4638
  923MOL0     C21733   8.849   5.721   1.692  0.2180  0.5904  0.1698
  923MOL0     O21734   8.723   5.758   1.683  0.2776 -0.8182 -0.1599
  923MOL0     C21735   8.619   5.681   1.726  0.1666  0.8502 -0.2007
  923MOL0     C21736   8.521   5.739   1.796 -0.1982 -0.7600  1.1829
  923MOL0     C21737   8.399   5.673   1.830  0.5288 -0.4282 -0.1850
  923MOL0     C21738   8.370   5.544   1.787 -0.0958 -0.0454  0.4428
  923MOL0     O21739   8.247   5.502   1.836 -0.2161  0.1248 -0.0392
  923MOL0     C21740   8.188   5.391   1.770 -0.4612  0.1819 -0.7081
  923MOL0     C21741   8.221   5.252   1.829  0.4663 -0.4554  0.8194
  923MOL0     C21742   8.131   5.211   1.955 -0.1279  0.6808  0.0345
  923MOL0     C21743   8.134   5.059   1.972 -0.0736  0.5405 -0.1422
  923MOL0     C21744   8.088   5.027   2.116  0.6998 -0.1424  0.4940
  923MOL0     C21745   8.049   4.888   2.162  1.0251 -0.4726  0.0171
  923MOL0     C21746   7.995   4.889   2.308  0.3790 -0.0372  0.2031
  923MOL0     C21747   7.879   4.987   2.339 -0.7429 -0.1040  0.2562
  923MOL0    Cl21748   7.734   4.960   2.231 -0.2789  0.4271 -0.3033
  923MOL0     C21749   8.472   5.482   1.707 -0.4724 -0.1744  0.3025
  923MOL0     C21750   8.595   5.552   1.678 -0.5398  0.6753  0.6076
  923MOL0     O21751   8.887   5.607   1.739  0.5459 -0.2058 -0.0455
  923MOL0     C21752   8.917   5.967   1.680 -0.7004 -0.6750  0.9912
  923MOL0     C21753   9.006   6.065   1.642 -0.1754  0.2286  0.9342
  923MOL0     N21754   9.853   6.210   1.273 -0.3251  0.4643 -0.4952
  923MOL0     N21755   9.978   6.224   1.316 -0.0037 -0.6618  0.3102
  923MOL0     C21756  10.575   6.886   1.924 -0.2347  1.0937  0.7164
  923MOL0     C21757  10.682   6.963   1.976 -0.5981  0.4943 -0.1279
  923MOL0     C21758  10.984   7.212   2.170  0.1267  0.9645 -0.1528
  923MOL0     C21759  11.061   7.330   2.139 -0.9166  0.0853  0.7890
  923MOL0     C21760  11.160   7.361   2.234  0.4217  0.7539 -0.8346
  923MOL0     C21761  11.190   7.284   2.346 -0.3728  1.1163  0.5851
  923MOL0     O21762  11.291   7.333   2.430 -0.3162  0.1482 -0.4733
  923MOL0     C21763  11.279   7.314   2.573  0.0552  0.4134  0.2101
  923MOL0     C21764  11.381   7.220   2.614  0.5545  0.1861 -0.8241
  923MOL0     C21765  11.521   7.275   2.597  0.1003 -0.7042 -0.3412
  923MOL0     C21766  11.623   7.171   2.630 -0.2665  0.2371 -0.2995
  923MOL0     C21767  11.761   7.217   2.599  0.5087  1.0623 -0.2602
  923MOL0     C21768  11.868   7.243   2.569 -0.1626 -0.5985  0.2291
  923MOL0     C21769  11.119   7.173   2.372 -0.3755  0.0155 -0.4491
  923MOL0     C21770  11.021   7.134   2.282 -0.6783  0.3241  0.0443
  923MOL0     H21771  10.543   7.092   2.251 -1.5117 -0.2287  0.6802
  923MOL0     H21772  10.335   6.971   2.147 -0.7176 -0.5272 -0.9636
  923MOL0     H21773  10.342   6.996   1.785 -0.9511  0.7758 -2.6864
  923MOL0     H21774  10.188   6.967   1.863 -1.6898 -0.9942 -2.0466
  923MOL0     H21775  10.168   6.906   1.613  1.4512 -1.1257 -1.3827
  923MOL0     H21776  10.151   6.765   1.716 -0.0226  0.1137  1.3210
  923MOL0     H21777  10.413   6.735   1.674  1.4707  1.1098 -0.5668
  923MOL0     H21778  10.390   6.873   1.564 -2.4281  2.3341  1.8574
  923MOL0     H21779  10.209   6.626   1.545 -0.8108 -1.2609 -1.1582
  923MOL0     H21780  10.209   6.746   1.431  0.2875 -0.0657  0.2570
  923MOL0     H21781  10.473   6.630   1.456  0.9188  0.7291 -0.2581
  923MOL0     H21782  10.384   6.656   1.315  0.7837  0.7248  0.6971
  923MOL0     H21783  10.375   6.427   1.518  0.3274 -2.3749 -1.0696
  923MOL0     H21784  10.436   6.415   1.367 -0.3593 -2.1273  0.1638
  923MOL0     H21785  10.190   6.451   1.274 -0.4252  1.6893  1.1825
  923MOL0     H21786  10.258   6.303   1.334  0.0245 -0.1631  1.1021
  923MOL0     H21787  10.063   6.497   1.485 -1.3873 -1.4099  1.8658
  923MOL0     H21788  10.148   6.343   1.541  3.7044 -2.6563 -2.6247
  923MOL0     H21789   9.813   6.407   1.523  2.7700  2.4379  0.6282
  923MOL0     H21790   9.579   6.277   1.263 -2.6418 -0.9992  0.9361
  923MOL0     H21791   9.602   6.394   1.393  0.4801  0.7046 -0.0312
  923MOL0     H21792   9.608   6.211   1.555 -4.9449 -0.9949  2.0256
  923MOL0     H21793   9.586   6.089   1.418  1.2043  0.2333  1.0117
  923MOL0     H21794   9.398   6.308   1.508  3.2324 -0.1239  2.4074
  923MOL0     H21795   9.363   6.213   1.364 -0.7206 -3.0038 -0.2255
  923MOL0     H21796   9.413   6.105   1.635 -1.7192 -0.4656  1.8267
  923MOL0     H21797   9.375   6.005   1.495 -0.0583 -0.1886 -1.3849
  923MOL0     H21798   9.238   5.869   1.493  0.7835  3.7059 -0.2097
  923MOL0     H21799   9.080   5.689   1.574 -0.7971  0.3743 -3.3972
  923MOL0     H21800   8.538   5.841   1.827 -0.3180  0.0899 -1.3284
  923MOL0     H21801   8.321   5.728   1.882  0.7002  0.9205 -1.3065
  923MOL0     H21802   8.221   5.393   1.666  4.5940  0.6465  0.6714
  923MOL0     H21803   8.079   5.399   1.770 -0.8007 -2.9504 -1.4901
  923MOL0     H21804   8.328   5.247   1.846  0.7279 -1.9425 -0.8881
  923MOL0     H21805   8.189   5.198   1.739  1.7452  2.6573 -1.6630
  923MOL0     H21806   8.025   5.235   1.951 -1.1360 -3.1899 -0.9719
  923MOL0     H21807   8.170   5.259   2.045  1.6969 -0.7538  0.0860
  923MOL0     H21808   8.057   5.021   1.905 -1.2362 -1.7174  2.2750
  923MOL0     H21809   8.232   5.011   1.964 -0.4955 -0.6068  1.1842
  923MOL0     H21810   8.004   5.095   2.137  1.9716  1.5436  0.3214
  923MOL0     H21811   8.166   5.067   2.181  1.0231  3.4222 -1.7572
  923MOL0     H21812   8.137   4.824   2.155  1.1771 -0.3115  0.4157
  923MOL0     H21813   7.973   4.840   2.100  0.6955  0.2021 -0.1073
  923MOL0     H21814   7.959   4.790   2.337  0.2392 -0.4586 -1.3018
  923MOL0     H21815   8.083   4.922   2.364  0.9739  1.5346 -1.5453
  923MOL0     H21816   7.917   5.088   2.319 -1.9553 -0.1701 -2.9527
  923MOL0     H21817   7.851   4.990   2.445 -0.2805  0.1885  0.3720
  923MOL0     H21818   8.447   5.382   1.674 -1.2533  0.0187  0.2806
  923MOL0     H21819   8.675   5.512   1.616 -0.3785  1.3163  0.3933
  923MOL0     H21820   8.822   5.998   1.724  0.3775  0.1386  2.9141
  923MOL0     H21821   8.980   6.166   1.671 -1.9689  0.1245 -0.1546
  923MOL0     H21822  10.580   6.824   1.835  1.5098 -1.6677  2.6030
  923MOL0     H21823  10.779   6.948   1.930 -0.2726  0.3695  0.6026
  923MOL0     H21824  11.040   7.414   2.074 -0.0927  2.2366  3.1079
  923MOL0     H21825  11.222   7.450   2.234  1.1469  0.2677 -0.1888
  923MOL0     H21826  11.182   7.274   2.603 -1.3796  5.4026  3.3849
  923MOL0     H21827  11.280   7.410   2.625 -3.7137  0.6480  0.0745
  923MOL0     H21828  11.366   7.206   2.721  1.6365 -1.3168 -0.8345
  923MOL0     H21829  11.366   7.123   2.565 -0.4793 -0.5398  0.8364
  923MOL0     H21830  11.544   7.356   2.667  1.2519 -2.3242  1.2223
  923MOL0     H21831  11.533   7.325   2.500  2.1067 -1.4147 -0.4941
  923MOL0     H21832  11.612   7.150   2.737 -0.7723  0.9380 -0.2056
  923MOL0     H21833  11.596   7.080   2.577 -3.6606 -0.3047  2.0110
  923MOL0     H21834  11.970   7.263   2.542 -0.0885 -3.2244 -1.8263
  923MOL0     H21835  11.135   7.106   2.456  0.3649 -0.8484 -1.2512
  923MOL0     H21836  10.972   7.038   2.298  0.9195 -0.3507  1.1052
  924MOL0     O21837   5.766   9.457   8.587 -0.1071 -0.6866 -0.3597
  924MOL0     C21838   5.652   9.413   8.589 -0.6918  1.2428  0.7551
  924MOL0     O21839   5.539   9.484   8.617 -1.0150 -0.2615 -0.6125
  924MOL0     C21840   5.533   9.613   8.674  0.9396  0.9379 -0.2919
  924MOL0     C21841   5.411   9.650   8.729 -0.0365 -0.2888 -0.4624
  924MOL0     C21842   5.385   9.787   8.751 -0.5852  0.1852 -0.1913
  924MOL0     C21843   5.488   9.879   8.742 -0.7119 -0.5102  0.7041
  924MOL0     O21844   5.474  10.007   8.786  0.6400  0.1425  0.0976
  924MOL0     C21845   5.419  10.030   8.916 -0.5908  0.8945  0.9276
  924MOL0     C21846   5.449  10.179   8.956  0.4714  1.1069 -1.2656
  924MOL0     C21847   5.599  10.224   8.969  0.3926  0.1054 -0.0057
  924MOL0     C21848   5.594  10.342   9.067  0.0411  0.7910  0.1502
  924MOL0     C21849   5.721  10.425   9.055 -0.6813  0.2134  0.3981
  924MOL0     C21850   5.725  10.517   9.181  0.6134 -0.0405 -0.0655
  924MOL0     C21851   5.861  10.595   9.188  0.3096 -0.0857  0.4641
  924MOL0     C21852   5.891  10.671   9.055  1.5321 -0.9359 -0.1114
  924MOL0     N21853   5.782  10.769   9.022 -0.1112  0.1486  0.0898
  924MOL0     C21854   5.772  10.900   9.068 -1.0081  1.1316  0.8984
  924MOL0     C21855   5.650  10.941   9.033 -0.4419  0.2597 -0.1777
  924MOL0     C21856   5.574  11.060   9.077 -0.0055  0.0979 -0.0944
  924MOL0     C21857   5.650  11.190   9.092 -0.6434  0.6327 -0.4124
  924MOL0     C21858   5.548  11.305   9.070 -0.0190  0.1045 -0.5057
  924MOL0     C21859   5.589  11.442   9.136  0.5184 -0.4948  0.0987
  924MOL0     O21860   5.475  11.534   9.122  0.5938  0.1812  0.4429
  924MOL0     C21861   5.491  11.641   9.037  0.1273 -0.1024 -0.4173
  924MOL0     C21862   5.398  11.646   8.937  0.8421 -0.7496 -0.4242
  924MOL0     C21863   5.407  11.751   8.840  0.0772 -0.0583  0.4817
  924MOL0     C21864   5.506  11.854   8.856  0.4815 -0.1181 -0.0759
  924MOL0     C21865   5.518  11.968   8.753 -0.1674 -0.5445 -0.6592
  924MOL0     O21866   5.447  11.960   8.642 -0.2893 -0.6036 -0.2638
  924MOL0     C21867   5.477  12.040   8.537  0.2481  0.1498 -1.4359
  924MOL0     C21868   5.533  11.973   8.421  0.2328 -0.8909  0.0281
  924MOL0     C21869   5.549  12.048   8.308  0.2886 -0.5031  0.1954
  924MOL0     C21870   5.526  12.190   8.304  0.3668 -0.2509 -0.6050
  924MOL0     O21871   5.536  12.244   8.177 -0.2746 -0.2370  0.7403
  924MOL0     C21872   5.493  12.383   8.168  0.4354 -0.1164 -0.2947
  924MOL0     C21873   5.609  12.468   8.201 -0.5104  0.4810  0.2585
  924MOL0     C21874   5.556  12.610   8.190 -0.0190 -0.2764 -1.1684
  924MOL0     C21875   5.653  12.707   8.230  0.5963 -0.1015 -1.1091
  924MOL0     C21876   5.583  12.846   8.231  0.0643  0.7541  0.4546
  924MOL0     C21877   5.674  12.944   8.306 -0.2884 -0.4184  1.0148
  924MOL0     C21878   5.679  13.075   8.230 -0.0563 -0.6649 -0.7289
  924MOL0     C21879   5.789  13.171   8.273  0.3982  0.2002 -0.2519
  924MOL0    Cl21880   5.940  13.119   8.199  0.0886  0.0528  0.3678
  924MOL0     C21881   5.487  12.254   8.424 -0.1882 -0.4621  0.0452
  924MOL0     C21882   5.459  12.179   8.542 -0.1632 -0.6355 -0.2930
  924MOL0     O21883   5.597  12.063   8.780  0.2069  0.2145  0.1251
  924MOL0     C21884   5.610  11.832   8.947  0.3549 -0.2711  0.6247
  924MOL0     C21885   5.595  11.730   9.041  0.2750 -0.0534  0.6364
  924MOL0     N21886   5.593  10.832   8.961  0.6747 -0.4230 -0.3267
  924MOL0     N21887   5.666  10.731   8.964  0.5030 -0.0458  0.0922
  924MOL0     C21888   5.614   9.844   8.699  0.5860 -1.1153  0.0236
  924MOL0     C21889   5.627   9.712   8.655 -1.1012 -0.5138  0.5830
  924MOL0     C21890   5.629   9.275   8.543 -0.2944  0.7569 -0.0568
  924MOL0     C21891   5.731   9.178   8.521  0.6096  0.8358 -0.3114
  924MOL0     C21892   5.699   9.057   8.470  0.3528  0.3698 -0.2109
  924MOL0     C21893   5.573   9.011   8.454  0.4500 -0.6276  0.2258
  924MOL0     O21894   5.559   8.885   8.409 -0.5290 -0.0317  0.2421
  924MOL0     C21895   5.523   8.902   8.275 -0.0041 -0.0366 -0.0906
  924MOL0     C21896   5.501   8.767   8.205 -0.5541  0.2676  0.4626
  924MOL0     C21897   5.640   8.692   8.200 -0.3653 -0.3427 -0.3981
  924MOL0     C21898   5.619   8.553   8.150  0.6793 -0.1066  0.1903
  924MOL0     C21899   5.543   8.557   8.025 -0.9906 -0.5031 -0.4288
  924MOL0     C21900   5.491   8.572   7.919  0.0131  0.3543 -0.2929
  924MOL0     C21901   5.470   9.098   8.492  0.4193  0.5332 -0.4936
  924MOL0     C21902   5.494   9.230   8.526  0.2109 -0.4778 -0.4635
  924MOL0     H21903   5.332   9.576   8.737 -3.5165  3.2804  1.2286
  924MOL0     H21904   5.287   9.817   8.787 -0.2616 -1.1109  1.9455
  924MOL0     H21905   5.447   9.953   8.988 -0.9607 -1.3098 -1.1265
  924MOL0     H21906   5.311  10.017   8.902 -0.1778  0.5131 -3.0094
  924MOL0     H21907   5.407  10.192   9.056  2.3513 -0.6201 -0.1536
  924MOL0     H21908   5.391  10.235   8.882 -1.8061  2.0824  1.1032
  924MOL0     H21909   5.646  10.247   8.873 -0.1921  1.3785 -0.0064
  924MOL0     H21910   5.658  10.153   9.027 -0.2564 -0.8155 -0.4404
  924MOL0     H21911   5.504  10.397   9.041 -0.9970 -1.0707 -0.3635
  924MOL0     H21912   5.586  10.303   9.169  0.3615  0.2471 -0.0261
  924MOL0     H21913   5.713  10.486   8.964  2.0657  2.0405  1.2645
  924MOL0     H21914   5.817  10.377   9.034 -1.3761 -1.7712  1.4736
  924MOL0     H21915   5.713  10.465   9.277 -0.7587  3.7135  2.0356
  924MOL0     H21916   5.644  10.590   9.180  0.6917  0.2061  2.5850
  924MOL0     H21917   5.864  10.654   9.280  0.9012 -1.9948  1.7314
  924MOL0     H21918   5.934  10.514   9.201 -0.5574 -0.9498  0.0742
  924MOL0     H21919   5.914  10.608   8.968 -2.9731  0.5375 -2.7263
  924MOL0     H21920   5.979  10.728   9.087  0.9719 -0.8863  1.4136
  924MOL0     H21921   5.838  10.938   9.146  1.7923  0.1565 -0.8598
  924MOL0     H21922   5.533  11.026   9.172  2.2227 -0.0211  0.8901
  924MOL0     H21923   5.490  11.083   9.011 -0.5957  3.4017  1.6094
  924MOL0     H21924   5.735  11.210   9.026 -0.8511  1.7408 -0.3777
  924MOL0     H21925   5.694  11.189   9.192  1.1792 -1.0120 -1.1622
  924MOL0     H21926   5.535  11.320   8.963 -0.5517 -0.0488 -0.4666
  924MOL0     H21927   5.453  11.276   9.116 -1.8321  1.1751 -3.3442
  924MOL0     H21928   5.674  11.469   9.072  0.9947 -1.5088  0.2826
  924MOL0     H21929   5.622  11.435   9.240 -5.1190  0.1760  2.2560
  924MOL0     H21930   5.324  11.566   8.936 -1.6692  1.4423  0.0345
  924MOL0     H21931   5.339  11.750   8.755 -0.0010 -1.6816  0.5328
  924MOL0     H21932   5.528  11.865   8.410 -2.6118 -0.9073  0.5235
  924MOL0     H21933   5.582  11.997   8.218 -0.8285  0.1144 -0.5904
  924MOL0     H21934   5.402  12.396   8.228 -1.0406 -0.7315 -2.2808
  924MOL0     H21935   5.456  12.411   8.069 -2.5308  1.7526  1.1921
  924MOL0     H21936   5.689  12.456   8.126 -1.7798  2.4879 -1.5611
  924MOL0     H21937   5.663  12.449   8.294 -2.3415 -1.0235  1.0546
  924MOL0     H21938   5.463  12.621   8.247 -0.2933 -0.5562 -1.5577
  924MOL0     H21939   5.520  12.626   8.088 -2.8846 -0.5098 -0.2895
  924MOL0     H21940   5.680  12.671   8.329  0.0054 -2.4526 -1.7484
  924MOL0     H21941   5.734  12.701   8.157  0.0302  0.6540 -1.8328
  924MOL0     H21942   5.485  12.845   8.281 -0.9959  1.1282 -1.5298
  924MOL0     H21943   5.577  12.872   8.125  2.8073 -2.3123 -0.6195
  924MOL0     H21944   5.774  12.900   8.298 -0.5807 -0.9061 -0.1057
  924MOL0     H21945   5.648  12.974   8.408 -1.2320  3.0788 -0.1191
  924MOL0     H21946   5.687  13.049   8.124 -1.1486 -5.2054  0.1294
  924MOL0     H21947   5.583  13.125   8.247 -0.1942 -1.0746 -0.2804
  924MOL0     H21948   5.802  13.178   8.381  0.6973  2.2465 -0.3907
  924MOL0     H21949   5.763  13.273   8.242  2.5958  1.4112  1.6128
  924MOL0     H21950   5.493  12.362   8.432  2.6123 -0.5245 -0.2623
  924MOL0     H21951   5.427  12.239   8.627  1.7807  3.4036 -2.1501
  924MOL0     H21952   5.684  11.910   8.962 -0.3027  0.4161  0.3740
  924MOL0     H21953   5.663  11.731   9.125 -0.4117  0.8172  1.1950
  924MOL0     H21954   5.688   9.922   8.689 -0.1892 -0.2920  0.5339
  924MOL0     H21955   5.725   9.711   8.607 -2.0070  2.6903 -1.6261
  924MOL0     H21956   5.836   9.200   8.537  0.5549  0.3226  0.8603
  924MOL0     H21957   5.772   8.986   8.432 -0.4343  0.0438 -1.1509
  924MOL0     H21958   5.607   8.941   8.216 -0.6665 -0.2040 -1.1858
  924MOL0     H21959   5.439   8.970   8.264  2.5584  3.4426  0.2816
  924MOL0     H21960   5.428   8.712   8.264  0.0103 -0.3976  0.5565
  924MOL0     H21961   5.469   8.785   8.102  0.1566  0.5615  0.2874
  924MOL0     H21962   5.681   8.689   8.301  0.4495 -0.3325 -0.7217
  924MOL0     H21963   5.716   8.735   8.134  1.5091 -1.3300  1.0275
  924MOL0     H21964   5.717   8.509   8.133  0.2168 -1.5587  1.1450
  924MOL0     H21965   5.572   8.493   8.228  0.9243 -0.0546  0.3759
  924MOL0     H21966   5.442   8.587   7.825 -1.2830  0.5480  0.3953
  924MOL0     H21967   5.372   9.052   8.498  1.2811 -1.3351  0.0478
  924MOL0     H21968   5.402   9.286   8.542 -0.5783 -1.3753 -1.6283
  925MOL0     O21969  10.184   5.857   1.028  0.5326 -0.0943  0.3475
  925MOL0     C21970  10.175   5.980   1.034 -0.3436  0.0452  0.7663
  925MOL0     O21971  10.233   6.054   1.131 -0.2822 -0.5212  0.6175
  925MOL0     C21972  10.322   5.993   1.217  0.0188 -0.5459  0.0305
  925MOL0     C21973  10.454   5.984   1.181  0.9627 -0.1659  0.0501
  925MOL0     C21974  10.550   5.921   1.268 -0.2988 -0.4466  0.2620
  925MOL0     C21975  10.504   5.873   1.397 -0.0349 -0.4880  0.3449
  925MOL0     O21976  10.590   5.828   1.500 -0.5599 -0.1377  0.4461
  925MOL0     C21977  10.632   5.693   1.483 -1.2763 -0.8999  0.1348
  925MOL0     C21978  10.705   5.646   1.609 -0.8369  0.2366  0.4139
  925MOL0     C21979  10.853   5.710   1.631 -0.0059  0.3601  0.1647
  925MOL0     C21980  10.939   5.652   1.748 -0.2766  0.3342 -0.5052
  925MOL0     C21981  11.081   5.716   1.754 -0.4881  0.7275 -0.0467
  925MOL0     C21982  11.162   5.681   1.884  0.4856 -0.0857  0.6504
  925MOL0     C21983  11.292   5.749   1.881 -0.0084 -0.4154  0.3352
  925MOL0     C21984  11.370   5.692   2.004  0.2772 -0.0915  0.2473
  925MOL0     N21985  11.516   5.729   2.008  0.1336 -0.2064 -0.3886
  925MOL0     C21986  11.575   5.828   2.086 -0.5624 -0.7231 -0.3060
  925MOL0     C21987  11.707   5.800   2.101  1.1333 -0.7644  0.3316
  925MOL0     C21988  11.806   5.877   2.176  0.4482  0.3816 -0.0582
  925MOL0     C21989  11.784   5.853   2.321 -0.5112  0.2759 -0.2162
  925MOL0     C21990  11.837   5.966   2.402 -0.0752 -0.4311  0.3674
  925MOL0     C21991  11.993   5.992   2.404 -0.8999 -0.2239 -0.5419
  925MOL0     O21992  12.063   5.877   2.438  0.1779  0.3311 -0.2809
  925MOL0     C21993  12.136   5.876   2.552 -0.7810 -0.5906 -0.3534
  925MOL0     C21994  12.273   5.888   2.544 -0.6271  0.2141  0.2737
  925MOL0     C21995  12.351   5.888   2.655  0.2236 -0.4335 -1.0762
  925MOL0     C21996  12.289   5.882   2.786 -0.1100 -0.0800  0.3296
  925MOL0     C21997  12.369   5.880   2.907 -0.8465  0.4288  0.5304
  925MOL0     O21998  12.305   5.864   3.026 -0.3230  0.1643  0.8806
  925MOL0     C21999  12.366   5.904   3.141 -0.7237 -0.8094 -0.3907
  925MOL0     C22000  12.287   5.917   3.247  0.0518 -0.4497  0.1735
  925MOL0     C22001  12.335   5.941   3.382 -0.0658  0.3721  0.5099
  925MOL0     C22002  12.472   5.951   3.403  0.5938 -0.2808  0.6809
  925MOL0     O22003  12.508   5.952   3.536 -0.4164  0.5861  0.7896
  925MOL0     C22004  12.633   6.020   3.571  0.5339 -0.0059  0.1199
  925MOL0     C22005  12.641   6.026   3.729  0.4953 -0.0822 -0.8098
  925MOL0     C22006  12.664   5.889   3.792  0.1850 -0.7882  0.5485
  925MOL0     C22007  12.798   5.835   3.741  0.2822 -0.0890 -0.1064
  925MOL0     C22008  12.849   5.725   3.827  0.6566 -0.5384 -0.2909
  925MOL0     C22009  12.889   5.772   3.968 -0.0900 -0.4456 -0.2569
  925MOL0     C22010  12.942   5.657   4.057 -0.3088 -0.6658  0.3547
  925MOL0     C22011  12.956   5.722   4.195 -0.2607  0.5722  0.2815
  925MOL0    Cl22012  13.006   5.586   4.312 -0.3208  0.4271 -0.1200
  925MOL0     C22013  12.558   5.939   3.297  0.5734  0.7308 -0.2771
  925MOL0     C22014  12.510   5.925   3.166  0.7553 -0.1342 -0.5562
  925MOL0     O22015  12.493   5.895   2.895 -0.7563  0.2952  0.3796
  925MOL0     C22016  12.150   5.883   2.794  0.4336  0.9169 -0.4060
  925MOL0     C22017  12.073   5.874   2.684 -0.2192 -0.2868 -0.1197
  925MOL0     N22018  11.735   5.693   2.023  0.2316 -0.3899  0.4136
  925MOL0     N22019  11.619   5.648   1.979  0.2300 -0.2485  1.3532
  925MOL0     C22020  10.370   5.881   1.428 -0.6452 -0.2458 -1.0406
  925MOL0     C22021  10.279   5.949   1.343 -0.3739  0.2241  0.3080
  925MOL0     C22022  10.116   6.053   0.925  0.6658  0.3472 -0.9253
  925MOL0     C22023  10.071   6.188   0.941  0.3815  0.2922  0.0283
  925MOL0     C22024  10.025   6.262   0.830 -0.5859  0.1852 -0.0115
  925MOL0     C22025   9.994   6.194   0.709  0.2703  0.0201  0.0358
  925MOL0     O22026   9.936   6.269   0.606 -0.1281 -0.0830  0.0229
  925MOL0     C22027   9.973   6.227   0.468  0.2095  0.6439  0.5639
  925MOL0     C22028   9.948   6.322   0.358 -0.2131 -0.5937 -0.8615
  925MOL0     C22029   9.984   6.261   0.226 -0.9511  0.5889  1.4363
  925MOL0     C22030   9.940   6.350   0.104  0.1667 -0.7773 -0.6710
  925MOL0     C22031  10.018   6.476   0.067 -0.6555  0.9396 -0.4712
  925MOL0     C22032  10.072   6.580   0.036  0.4160 -0.4280 -0.0714
  925MOL0     C22033  10.027   6.054   0.694  0.1185 -0.5975  0.1207
  925MOL0     C22034  10.093   5.998   0.803  0.1888  0.9838 -1.0298
  925MOL0     H22035  10.476   6.023   1.082  0.6560  2.7627  1.0169
  925MOL0     H22036  10.650   5.932   1.229 -1.7772  0.5087 -3.8731
  925MOL0     H22037  10.711   5.683   1.408 -1.8941  0.9736 -0.8252
  925MOL0     H22038  10.556   5.620   1.452 -0.0000 -1.7886 -1.0091
  925MOL0     H22039  10.719   5.539   1.592  2.9072  1.0092 -2.9775
  925MOL0     H22040  10.633   5.665   1.689 -1.8511 -0.2359 -0.3585
  925MOL0     H22041  10.836   5.816   1.649 -2.3722 -0.1714  1.3839
  925MOL0     H22042  10.922   5.681   1.551  0.7132  3.0301 -0.2515
  925MOL0     H22043  10.882   5.664   1.841 -1.0048 -3.7611 -0.2395
  925MOL0     H22044  10.942   5.546   1.722 -1.4102  0.4302 -1.0403
  925MOL0     H22045  11.059   5.822   1.745 -0.5052  0.7793  0.5510
  925MOL0     H22046  11.138   5.669   1.673 -2.2766 -1.7297 -0.0077
  925MOL0     H22047  11.186   5.575   1.884  1.1525 -0.0806 -3.0645
  925MOL0     H22048  11.101   5.714   1.968 -0.1091  1.5469 -0.3597
  925MOL0     H22049  11.340   5.724   1.786 -0.6443 -3.7790  0.7678
  925MOL0     H22050  11.274   5.856   1.897 -5.5698 -0.6268 -2.2628
  925MOL0     H22051  11.360   5.583   2.007  1.2161 -0.1838  1.3542
  925MOL0     H22052  11.322   5.728   2.096  0.1328 -2.4710  1.1811
  925MOL0     H22053  11.525   5.920   2.115  0.5759  1.2449 -3.9416
  925MOL0     H22054  11.789   5.981   2.148  2.7840  0.4885 -1.3702
  925MOL0     H22055  11.905   5.849   2.137 -0.5179 -0.2521 -2.1621
  925MOL0     H22056  11.836   5.766   2.363 -3.3951 -0.4558  2.1989
  925MOL0     H22057  11.683   5.823   2.351  0.3673  0.2741  3.2196
  925MOL0     H22058  11.791   6.058   2.364  2.8920  1.5973  1.3311
  925MOL0     H22059  11.807   5.950   2.506  0.3529  1.0655  0.7506
  925MOL0     H22060  12.021   6.082   2.459  0.0898  0.9473 -2.8743
  925MOL0     H22061  12.021   6.021   2.303 -0.8623 -0.6284 -0.6501
  925MOL0     H22062  12.318   5.901   2.446 -3.3218 -1.8099 -1.3776
  925MOL0     H22063  12.459   5.890   2.643  0.0353  0.8603 -3.0642
  925MOL0     H22064  12.180   5.921   3.230 -0.0020  1.8448  0.7495
  925MOL0     H22065  12.268   5.921   3.465 -1.2630  2.2601  0.0557
  925MOL0     H22066  12.650   6.122   3.535  4.8189  0.8020  3.6682
  925MOL0     H22067  12.711   5.968   3.516  0.0232 -1.0943  0.3918
  925MOL0     H22068  12.548   6.068   3.767  0.6435  0.1718 -0.7310
  925MOL0     H22069  12.723   6.088   3.765 -1.0048  2.1744 -1.0737
  925MOL0     H22070  12.584   5.818   3.770 -0.2158 -1.2048  3.0355
  925MOL0     H22071  12.663   5.903   3.901 -0.1062 -0.9747  0.5714
  925MOL0     H22072  12.783   5.799   3.639 -1.0713  0.3607 -0.0912
  925MOL0     H22073  12.878   5.909   3.739  0.6529 -0.4153  1.3721
  925MOL0     H22074  12.935   5.678   3.778 -1.4291 -1.5666 -3.2326
  925MOL0     H22075  12.767   5.655   3.839  0.8995 -0.7937 -0.1195
  925MOL0     H22076  12.806   5.829   4.011 -0.3632 -1.2640  0.3431
  925MOL0     H22077  12.968   5.846   3.951 -1.0778  0.4711 -0.9781
  925MOL0     H22078  12.879   5.568   4.051  1.5439 -1.9889 -0.5325
  925MOL0     H22079  13.046   5.642   4.026  0.0908  1.3083  0.5485
  925MOL0     H22080  12.856   5.757   4.223 -0.8339  0.5217 -1.5836
  925MOL0     H22081  13.028   5.804   4.198  0.8461 -0.2725  5.2865
  925MOL0     H22082  12.662   5.960   3.320  0.5347  2.2625 -1.3344
  925MOL0     H22083  12.589   5.928   3.092  0.3669 -3.0290 -1.1887
  925MOL0     H22084  12.106   5.868   2.891 -0.2471  0.1257 -0.8215
  925MOL0     H22085  11.969   5.848   2.702  0.6038 -2.6124  1.7525
  925MOL0     H22086  10.353   5.838   1.526  2.5376 -1.1238 -0.7630
  925MOL0     H22087  10.180   5.975   1.379 -0.6955 -0.5472  0.0060
  925MOL0     H22088  10.079   6.248   1.031 -0.4600  2.1633 -1.0638
  925MOL0     H22089   9.998   6.367   0.826  0.3575  0.5172  1.6785
  925MOL0     H22090   9.922   6.132   0.448 -0.6413  1.6081 -2.3239
  925MOL0     H22091  10.081   6.222   0.477 -0.0136 -1.1502  7.0095
  925MOL0     H22092   9.844   6.354   0.369 -0.0895 -0.7970  1.3845
  925MOL0     H22093  10.020   6.403   0.375  2.4483 -2.8263 -0.9931
  925MOL0     H22094   9.933   6.164   0.227 -0.4864  0.3415  1.5075
  925MOL0     H22095  10.091   6.250   0.205 -1.4094  0.5133 -1.1947
  925MOL0     H22096   9.941   6.280   0.019 -0.9586  0.9662 -2.2049
  925MOL0     H22097   9.839   6.389   0.120  1.0613  1.5670 -0.2772
  925MOL0     H22098  10.109   6.665  -0.018  0.8911 -1.0253 -0.7073
  925MOL0     H22099  10.015   6.006   0.598  1.1793  0.8501 -0.7762
  925MOL0     H22100  10.122   5.893   0.805  0.8968  1.1765 -0.5496
  926MOL0     O22101   4.325  10.913   3.568 -0.5778 -0.0143  0.5332
  926MOL0     C22102   4.378  10.799   3.595  0.7686 -1.0501  0.0729
  926MOL0     O22103   4.358  10.724   3.715  0.0688 -1.3538  0.0312
  926MOL0     C22104   4.257  10.757   3.798 -0.0392  0.5589 -0.0242
  926MOL0     C22105   4.274  10.836   3.918 -0.6020  0.6501  0.3592
  926MOL0     C22106   4.158  10.882   3.982  0.0190  0.3283 -0.5741
  926MOL0     C22107   4.024  10.848   3.938 -0.3145  1.0969  0.6525
  926MOL0     O22108   3.910  10.890   3.993 -0.5658 -0.7423 -1.2916
  926MOL0     C22109   3.898  10.932   4.137  0.0057 -0.1328 -0.5893
  926MOL0     C22110   3.749  10.950   4.171 -0.7238 -0.1704 -0.5430
  926MOL0     C22111   3.701  11.097   4.145  0.1494  0.0538 -0.0749
  926MOL0     C22112   3.755  11.190   4.249  0.9929 -0.3053 -0.3273
  926MOL0     C22113   3.669  11.316   4.250 -0.9874  0.1932  0.5440
  926MOL0     C22114   3.708  11.419   4.349  0.1290  0.2095 -0.2452
  926MOL0     C22115   3.610  11.533   4.346  0.5870 -0.1720  0.0042
  926MOL0     C22116   3.657  11.635   4.441 -0.6224 -1.3238  0.2081
  926MOL0     N22117   3.782  11.706   4.414 -0.0251  0.2284  0.4465
  926MOL0     C22118   3.856  11.766   4.512  0.0984 -0.3667 -0.0248
  926MOL0     C22119   3.913  11.874   4.457 -0.0195 -0.5007  0.3345
  926MOL0     C22120   4.020  11.962   4.528 -0.1272 -0.3251  0.3318
  926MOL0     C22121   3.960  12.038   4.641  0.0714 -0.3175  0.3754
  926MOL0     C22122   4.053  12.100   4.744  0.5249  0.1965  0.4547
  926MOL0     C22123   4.145  12.004   4.831  0.2148  0.6223  0.2487
  926MOL0     O22124   4.089  11.876   4.869  0.7459 -0.0446 -0.7804
  926MOL0     C22125   4.052  11.869   5.003 -0.3263 -0.1670 -0.0061
  926MOL0     C22126   4.150  11.867   5.104  0.7411 -0.5454 -0.4488
  926MOL0     C22127   4.118  11.901   5.236 -0.6904  0.3915 -0.4133
  926MOL0     C22128   3.977  11.912   5.270 -0.5127 -0.5076 -0.4166
  926MOL0     C22129   3.929  11.924   5.415 -0.4189  0.0228 -0.1294
  926MOL0     O22130   4.019  11.988   5.494  0.2530  0.3822  0.1807
  926MOL0     C22131   3.976  12.047   5.609  0.1116 -0.8154  0.1131
  926MOL0     C22132   4.028  12.017   5.737  0.5025 -0.3462  0.2950
  926MOL0     C22133   3.992  12.089   5.852 -0.5876  0.3205  0.3146
  926MOL0     C22134   3.907  12.206   5.844 -0.2772  0.9849 -0.8319
  926MOL0     O22135   3.896  12.276   5.962  0.2645 -0.3088  0.6212
  926MOL0     C22136   3.811  12.387   5.957  1.1258  0.6276  0.1901
  926MOL0     C22137   3.829  12.459   6.093 -0.8782 -0.5051 -0.5580
  926MOL0     C22138   3.725  12.570   6.124 -0.4251 -1.0315 -1.1989
  926MOL0     C22139   3.722  12.627   6.275  0.4407 -0.2783  0.2301
  926MOL0     C22140   3.633  12.750   6.280  0.5484  0.5905  0.7903
  926MOL0     C22141   3.627  12.789   6.431  0.2395 -0.1611 -0.4935
  926MOL0     C22142   3.513  12.895   6.437  0.6009  0.4601 -0.2806
  926MOL0     C22143   3.483  12.930   6.575 -0.6278  0.5907 -0.1870
  926MOL0    Cl22144   3.339  13.038   6.585  0.0418 -0.1283  0.3003
  926MOL0     C22145   3.864  12.240   5.715 -0.2130  0.3038 -0.0028
  926MOL0     C22146   3.889  12.158   5.600  0.2289 -0.0097 -1.3713
  926MOL0     O22147   3.810  11.908   5.437 -0.0091  0.3968  0.5400
  926MOL0     C22148   3.882  11.887   5.174 -0.5176  0.0284  0.6225
  926MOL0     C22149   3.920  11.872   5.041 -0.4696  0.0326  0.1382
  926MOL0     N22150   3.879  11.868   4.320  0.0666 -0.0696  0.0924
  926MOL0     N22151   3.809  11.761   4.292 -0.1775 -0.1876 -0.5094
  926MOL0     C22152   4.008  10.763   3.829 -1.0053  0.1254 -0.3394
  926MOL0     C22153   4.126  10.715   3.766  1.1035 -0.5094  0.2221
  926MOL0     C22154   4.492  10.760   3.518  0.2228 -0.2037  0.0899
  926MOL0     C22155   4.583  10.667   3.558  0.4830 -0.2553 -0.5351
  926MOL0     C22156   4.685  10.629   3.464  0.2179  0.3463 -0.2859
  926MOL0     C22157   4.698  10.689   3.342  0.0301  0.0646 -1.4759
  926MOL0     O22158   4.804  10.641   3.263  0.3917 -0.6968  0.0707
  926MOL0     C22159   4.799  10.669   3.124  0.0620  0.2713 -0.7413
  926MOL0     C22160   4.859  10.560   3.042 -0.0549  0.0379  0.5849
  926MOL0     C22161   4.852  10.589   2.890  0.9099 -0.0855 -0.7243
  926MOL0     C22162   4.980  10.652   2.840 -0.0429  0.0046 -0.1075
  926MOL0     C22163   4.966  10.690   2.696  0.5328 -0.9252 -0.5851
  926MOL0     C22164   4.947  10.717   2.578  0.1603  1.1458  0.3698
  926MOL0     C22165   4.604  10.784   3.307  0.3620  0.4487  0.2428
  926MOL0     C22166   4.504  10.813   3.390  0.8133 -0.1573  0.7272
  926MOL0     H22167   4.372  10.872   3.947 -0.3314  0.4301 -0.2592
  926MOL0     H22168   4.176  10.957   4.058  0.0037  0.3990 -0.6394
  926MOL0     H22169   3.954  11.024   4.149 -0.8746  0.4750 -1.0090
  926MOL0     H22170   3.940  10.846   4.190  0.9815 -0.1514 -1.3516
  926MOL0     H22171   3.731  10.932   4.278 -0.9756  1.8352 -0.2133
  926MOL0     H22172   3.686  10.886   4.109  1.1058 -0.8213 -1.8003
  926MOL0     H22173   3.595  11.089   4.170  0.0183 -1.6538 -1.0023
  926MOL0     H22174   3.720  11.135   4.044 -1.4926  3.2556  0.6901
  926MOL0     H22175   3.750  11.136   4.344 -0.5843 -1.4229 -1.0168
  926MOL0     H22176   3.857  11.223   4.229  1.4260 -0.4309  1.4662
  926MOL0     H22177   3.566  11.292   4.276 -1.0205 -1.0623 -0.6312
  926MOL0     H22178   3.675  11.355   4.148 -1.9992  3.1568  1.5145
  926MOL0     H22179   3.812  11.447   4.327  0.5894 -2.0943 -1.3461
  926MOL0     H22180   3.711  11.389   4.454  1.2548  0.3583 -0.2153
  926MOL0     H22181   3.601  11.569   4.243  0.5838  1.1752  0.4615
  926MOL0     H22182   3.511  11.501   4.381  0.7260  0.2849  0.8291
  926MOL0     H22183   3.657  11.601   4.545 -0.8714 -2.1642 -0.0574
  926MOL0     H22184   3.588  11.720   4.432 -0.6365 -1.2531  0.9277
  926MOL0     H22185   3.858  11.733   4.615 -1.8195 -1.5172 -0.3088
  926MOL0     H22186   4.073  12.028   4.460  0.9567 -1.2100  0.2806
  926MOL0     H22187   4.092  11.895   4.576  0.1219  0.3179  0.8679
  926MOL0     H22188   3.894  11.971   4.696 -0.6674  2.3020  2.9442
  926MOL0     H22189   3.895  12.117   4.602 -1.1533  0.2363  3.2312
  926MOL0     H22190   4.116  12.145   4.666 -1.1567  3.9679  1.0779
  926MOL0     H22191   4.013  12.182   4.803 -0.2042  0.9579 -1.0335
  926MOL0     H22192   4.178  12.061   4.919  3.3237  0.1373 -0.4787
  926MOL0     H22193   4.232  11.977   4.771  1.9434 -0.1525  2.9225
  926MOL0     H22194   4.254  11.873   5.072  1.6814  0.0911  2.4557
  926MOL0     H22195   4.189  11.915   5.317  0.1105 -0.2305 -0.9966
  926MOL0     H22196   4.090  11.927   5.735  1.1678  0.0914  0.7540
  926MOL0     H22197   4.055  12.069   5.938 -3.2544 -2.0058  1.9235
  926MOL0     H22198   3.708  12.350   5.952  0.6603  1.9377 -4.2990
  926MOL0     H22199   3.814  12.452   5.869  0.4836  0.0386 -0.2754
  926MOL0     H22200   3.921  12.518   6.097 -0.8986 -0.4941 -0.1661
  926MOL0     H22201   3.829  12.383   6.173 -0.4932  0.4134  0.3395
  926MOL0     H22202   3.625  12.534   6.099 -0.9102 -1.2095  0.8401
  926MOL0     H22203   3.752  12.662   6.070  0.5519 -1.4078 -1.3687
  926MOL0     H22204   3.669  12.555   6.338  0.8446 -1.6759 -0.9688
  926MOL0     H22205   3.818  12.642   6.324 -0.6817  2.6500  1.7691
  926MOL0     H22206   3.531  12.734   6.244  0.2124  1.5122  1.3189
  926MOL0     H22207   3.663  12.838   6.221 -0.8272  0.1264 -0.6829
  926MOL0     H22208   3.726  12.815   6.470  1.8005 -3.8147 -1.6283
  926MOL0     H22209   3.610  12.701   6.493  3.1651 -0.2845  0.2783
  926MOL0     H22210   3.535  12.987   6.381 -0.7071  1.2944  0.5045
  926MOL0     H22211   3.416  12.855   6.405 -1.3487  3.7947  0.8459
  926MOL0     H22212   3.573  12.967   6.625  0.1591 -1.0749 -0.2753
  926MOL0     H22213   3.451  12.836   6.623 -1.3767  0.3786 -1.0763
  926MOL0     H22214   3.814  12.336   5.709  1.6826  1.5703  2.8245
  926MOL0     H22215   3.872  12.193   5.499 -3.7430  0.1745 -0.7967
  926MOL0     H22216   3.776  11.889   5.197 -0.1363 -1.2030  2.7123
  926MOL0     H22217   3.839  11.883   4.970 -1.0468 -2.9320  0.2120
  926MOL0     H22218   3.910  10.724   3.804 -0.5138 -1.5178  0.1937
  926MOL0     H22219   4.117  10.664   3.671 -0.2667  2.2410 -1.2344
  926MOL0     H22220   4.587  10.610   3.650  0.8152 -0.2547 -0.5479
  926MOL0     H22221   4.762  10.558   3.493  1.7511  1.5724 -1.1790
  926MOL0     H22222   4.844  10.768   3.110 -0.8914  0.5745 -1.7395
  926MOL0     H22223   4.698  10.692   3.089 -1.0680 -3.5092 -0.4414
  926MOL0     H22224   4.962  10.541   3.073 -0.2406 -2.1534 -0.0036
  926MOL0     H22225   4.801  10.468   3.060  0.0127 -0.5545 -1.9032
  926MOL0     H22226   4.765  10.656   2.882 -0.3415 -1.2075  1.9825
  926MOL0     H22227   4.832  10.499   2.833  1.3789 -0.0765 -0.9035
  926MOL0     H22228   5.004  10.743   2.895  0.3360 -0.8961  1.2558
  926MOL0     H22229   5.070  10.593   2.860  1.4008  2.3684  0.6322
  926MOL0     H22230   4.932  10.734   2.473 -1.6926 -1.8091  0.0514
  926MOL0     H22231   4.614  10.840   3.214  2.6253 -0.2733  0.0005
  926MOL0     H22232   4.448  10.900   3.357  0.8841  0.5895  2.4557
  927MOL0     O22233   4.440   6.654   3.853  0.5760  0.5638  0.6116
  927MOL0     C22234   4.550   6.679   3.816 -0.6272 -0.3487 -0.5064
  927MOL0     O22235   4.655   6.591   3.836 -0.9734 -0.2123 -0.8499
  927MOL0     C22236   4.637   6.464   3.874  0.7379 -0.0336  0.8135
  927MOL0     C22237   4.559   6.374   3.800  0.1078 -0.6189  0.5822
  927MOL0     C22238   4.549   6.245   3.832 -0.7425  0.0984 -0.0358
  927MOL0     C22239   4.591   6.200   3.955 -0.3619 -0.0786 -1.3182
  927MOL0     O22240   4.587   6.065   4.001  0.5934  0.5658  0.0252
  927MOL0     C22241   4.532   6.034   4.129  1.0485 -0.0937 -1.0936
  927MOL0     C22242   4.399   5.974   4.118 -0.6282  0.4991  0.0651
  927MOL0     C22243   4.423   5.840   4.042 -0.1527  0.4822 -0.6374
  927MOL0     C22244   4.303   5.751   4.023  0.0319 -0.4966 -0.1339
  927MOL0     C22245   4.339   5.607   3.999 -0.1083 -0.3266 -0.9391
  927MOL0     C22246   4.221   5.521   3.966  0.3108  0.2639 -0.4553
  927MOL0     C22247   4.125   5.498   4.084  0.0523  0.2263  0.4638
  927MOL0     C22248   4.028   5.377   4.068  0.0195 -0.3625  0.6819
  927MOL0     N22249   4.081   5.270   4.149  0.7666 -0.4717  0.2549
  927MOL0     C22250   4.003   5.204   4.239 -0.5072 -0.8768 -0.3351
  927MOL0     C22251   4.078   5.115   4.294  0.1045  0.7601  0.4717
  927MOL0     C22252   4.031   5.003   4.383  0.5376  0.0815  0.3935
  927MOL0     C22253   4.079   5.030   4.525  1.5038  0.3329  0.1156
  927MOL0     C22254   3.993   5.136   4.600 -0.5309  0.7384 -0.1685
  927MOL0     C22255   3.921   5.075   4.719  0.8076 -0.5174 -0.5775
  927MOL0     O22256   3.815   4.994   4.677  0.1999 -0.5616 -0.5406
  927MOL0     C22257   3.769   4.914   4.778 -0.0026 -0.4276  0.3941
  927MOL0     C22258   3.656   4.947   4.851 -0.9037  0.3184 -0.4303
  927MOL0     C22259   3.609   4.864   4.949  0.3118 -0.4940 -0.1294
  927MOL0     C22260   3.663   4.738   4.979  0.2363 -0.9677  0.6379
  927MOL0     C22261   3.603   4.654   5.082 -0.1059  0.6654  0.2058
  927MOL0     O22262   3.499   4.699   5.163 -0.8681 -0.4071  0.7344
  927MOL0     C22263   3.423   4.625   5.248  0.8193  0.4776  0.2334
  927MOL0     C22264   3.320   4.695   5.312  0.0642  0.0239  0.2501
  927MOL0     C22265   3.235   4.623   5.410  0.5064 -0.8188 -0.1119
  927MOL0     C22266   3.258   4.490   5.445 -0.0088 -0.3114  0.0318
  927MOL0     O22267   3.186   4.429   5.532  0.1083  0.5755 -1.1394
  927MOL0     C22268   3.053   4.386   5.482  0.3972  0.4758 -0.2275
  927MOL0     C22269   2.961   4.334   5.596  0.8995 -0.8269  0.3982
  927MOL0     C22270   2.821   4.291   5.548 -0.4489  0.2478 -0.5965
  927MOL0     C22271   2.817   4.141   5.492  0.3114 -0.1203  0.3573
  927MOL0     C22272   2.689   4.104   5.417  0.4888  0.2695  0.0028
  927MOL0     C22273   2.701   3.955   5.371 -0.4977  0.0498 -0.2353
  927MOL0     C22274   2.580   3.926   5.292  1.1089 -0.2152  0.2841
  927MOL0     C22275   2.578   3.793   5.220 -0.4985  0.6083  0.0011
  927MOL0    Cl22276   2.565   3.650   5.332 -0.8886 -0.4178  0.0388
  927MOL0     C22277   3.363   4.419   5.381 -0.6508  0.8852  0.2125
  927MOL0     C22278   3.447   4.486   5.286 -0.4853  0.5204 -0.4194
  927MOL0     O22279   3.666   4.551   5.099  0.1398 -0.8275 -1.1492
  927MOL0     C22280   3.774   4.699   4.893  0.4355 -0.2393 -1.4336
  927MOL0     C22281   3.834   4.791   4.805  0.3496 -0.6154 -0.0688
  927MOL0     N22282   4.208   5.126   4.258  0.3969 -0.4144  0.8104
  927MOL0     N22283   4.207   5.220   4.162  0.7668 -0.2610  0.2822
  927MOL0     C22284   4.666   6.288   4.038 -0.1212 -0.6720 -0.5940
  927MOL0     C22285   4.689   6.420   3.998 -0.6504  0.1710 -0.7175
  927MOL0     C22286   4.587   6.801   3.747  0.0810 -0.1505  0.0448
  927MOL0     C22287   4.512   6.917   3.760  0.5178 -0.6650  0.0985
  927MOL0     C22288   4.521   7.018   3.668  0.3486  0.4305 -0.3531
  927MOL0     C22289   4.632   7.027   3.584 -0.7006  0.6037  0.1648
  927MOL0     O22290   4.667   7.127   3.498  0.6967 -0.5318 -0.1981
  927MOL0     C22291   4.595   7.261   3.511 -1.0014  0.6167  0.0603
  927MOL0     C22292   4.643   7.366   3.405 -0.3957  0.8992 -0.5724
  927MOL0     C22293   4.796   7.371   3.408  0.5528  0.7465 -0.1176
  927MOL0     C22294   4.846   7.520   3.367 -0.1917 -0.5172 -0.3715
  927MOL0     C22295   4.993   7.527   3.376  0.0752 -0.0373 -0.8188
  927MOL0     C22296   5.115   7.531   3.385 -0.4295 -0.0226 -0.2082
  927MOL0     C22297   4.722   6.911   3.579 -0.4271 -0.7277 -0.4319
  927MOL0     C22298   4.700   6.800   3.657 -0.1495  0.7430  0.2109
  927MOL0     H22299   4.515   6.403   3.705 -0.5037  2.0851  1.5953
  927MOL0     H22300   4.513   6.167   3.766 -1.6528 -1.1781  1.8965
  927MOL0     H22301   4.519   6.120   4.195 -1.9609 -1.4782  0.2852
  927MOL0     H22302   4.607   5.967   4.173 -0.7703 -1.2685  0.3936
  927MOL0     H22303   4.330   6.047   4.075  0.2153  2.5369  1.9900
  927MOL0     H22304   4.346   5.953   4.211  2.1535  0.0013  1.6520
  927MOL0     H22305   4.503   5.787   4.095  1.9049  3.9674 -0.0138
  927MOL0     H22306   4.470   5.851   3.944  0.1166 -0.3752 -0.6176
  927MOL0     H22307   4.237   5.758   4.110 -2.0024  3.5690 -1.7686
  927MOL0     H22308   4.246   5.784   3.936 -1.2319 -1.3513  0.3433
  927MOL0     H22309   4.392   5.562   4.084  3.5385 -0.6408 -3.1381
  927MOL0     H22310   4.411   5.612   3.917 -0.0884  2.1069 -0.8446
  927MOL0     H22311   4.270   5.426   3.941  1.0617  0.7562 -0.8817
  927MOL0     H22312   4.169   5.570   3.884 -0.5697 -1.5576 -1.0378
  927MOL0     H22313   4.180   5.490   4.178  0.7176  0.5907  0.1131
  927MOL0     H22314   4.053   5.578   4.102  0.6399  0.5437  1.4574
  927MOL0     H22315   4.014   5.336   3.968  0.3284 -1.5353  1.1094
  927MOL0     H22316   3.930   5.414   4.101  0.1404 -2.0246  3.1234
  927MOL0     H22317   3.896   5.211   4.256 -0.3653 -1.2656  0.7992
  927MOL0     H22318   4.063   4.906   4.344  0.8264  1.3515 -2.8834
  927MOL0     H22319   3.922   4.996   4.379  0.2152  3.8384 -0.9888
  927MOL0     H22320   4.181   5.068   4.512  1.4888 -0.4740 -3.2616
  927MOL0     H22321   4.074   4.932   4.574 -1.0853  0.1218 -0.4492
  927MOL0     H22322   4.057   5.217   4.638 -2.6355  1.3330  2.4487
  927MOL0     H22323   3.934   5.198   4.532 -0.4009 -2.0362 -3.0432
  927MOL0     H22324   3.874   5.160   4.769  3.0818  0.6897 -0.3835
  927MOL0     H22325   3.987   5.032   4.794  0.3259  1.6050  1.1700
  927MOL0     H22326   3.597   5.039   4.851 -0.3605  0.6868  0.7196
  927MOL0     H22327   3.524   4.894   5.010 -0.5172 -2.1642 -0.4081
  927MOL0     H22328   3.293   4.798   5.290  2.2236  0.3585 -1.0458
  927MOL0     H22329   3.154   4.674   5.460 -0.1507 -1.9053 -0.0378
  927MOL0     H22330   3.047   4.306   5.407 -2.0256 -0.7333  1.1233
  927MOL0     H22331   2.996   4.467   5.436 -0.4359  0.3432  0.5405
  927MOL0     H22332   2.954   4.418   5.667  0.0624 -1.3545  0.9658
  927MOL0     H22333   3.006   4.252   5.653  0.1074 -1.4720  0.1187
  927MOL0     H22334   2.769   4.351   5.472 -0.9898 -1.0691 -1.2919
  927MOL0     H22335   2.757   4.292   5.636  1.1933  0.0105  0.6440
  927MOL0     H22336   2.906   4.120   5.431 -0.0177  0.3021 -0.2742
  927MOL0     H22337   2.828   4.069   5.574  3.9847  0.2133  0.3271
  927MOL0     H22338   2.672   4.176   5.336  0.2480  2.8046  2.1669
  927MOL0     H22339   2.601   4.121   5.480 -2.1094  4.2013 -4.1203
  927MOL0     H22340   2.691   3.889   5.458  0.9967  0.3898  0.2218
  927MOL0     H22341   2.782   3.922   5.305 -1.6631 -0.9398 -1.2328
  927MOL0     H22342   2.496   3.930   5.361  1.2596 -3.2419  0.7810
  927MOL0     H22343   2.558   4.013   5.229 -1.2180  1.9326  3.7013
  927MOL0     H22344   2.665   3.767   5.160 -2.0383 -2.0236 -1.2625
  927MOL0     H22345   2.496   3.796   5.148 -0.3364 -2.0359 -0.4072
  927MOL0     H22346   3.366   4.314   5.407  1.0316  1.1636  1.3815
  927MOL0     H22347   3.529   4.433   5.239 -0.5526  0.1173 -0.0928
  927MOL0     H22348   3.811   4.600   4.917 -0.0871 -0.7504 -2.6721
  927MOL0     H22349   3.927   4.759   4.758  0.9557  1.1164 -0.0902
  927MOL0     H22350   4.713   6.238   4.122 -0.6274 -0.2323 -0.0498
  927MOL0     H22351   4.751   6.491   4.052  2.8277 -2.6945 -0.5672
  927MOL0     H22352   4.444   6.931   3.843  0.7518  0.4702  0.1067
  927MOL0     H22353   4.453   7.103   3.670  0.8921  0.9340  2.9774
  927MOL0     H22354   4.612   7.296   3.614 -0.1109 -0.6488  0.3706
  927MOL0     H22355   4.488   7.245   3.492 -0.7822 -0.8905 -0.0497
  927MOL0     H22356   4.616   7.317   3.312  0.4030 -1.6705  0.4675
  927MOL0     H22357   4.594   7.463   3.418 -1.7893  0.2374 -0.6821
  927MOL0     H22358   4.840   7.295   3.342 -0.5567  1.3998 -1.6545
  927MOL0     H22359   4.826   7.354   3.512 -1.6262  1.0962  0.6168
  927MOL0     H22360   4.806   7.546   3.268 -0.5729 -0.0478 -0.0950
  927MOL0     H22361   4.796   7.593   3.430 -1.3444 -1.6286  0.0385
  927MOL0     H22362   5.220   7.552   3.379 -0.4025 -0.5329 -4.3982
  927MOL0     H22363   4.805   6.920   3.509  0.1171  1.5772  0.4277
  927MOL0     H22364   4.762   6.712   3.647 -1.3187  0.1578 -2.7347
  928MOL0     O22365   6.555  10.079   6.048 -0.4200 -0.3544 -0.6814
  928MOL0     C22366   6.517  10.166   5.970  1.0135  0.1462  0.0367
  928MOL0     O22367   6.401  10.237   5.984 -0.1654 -0.1764 -0.9493
  928MOL0     C22368   6.308  10.178   6.070 -0.1282 -0.2766  0.1907
  928MOL0     C22369   6.261  10.046   6.065 -0.8044  0.3778  0.0879
  928MOL0     C22370   6.164  10.000   6.161 -0.4149  0.5387  1.1622
  928MOL0     C22371   6.118  10.094   6.249 -0.3837 -0.1478 -0.5727
  928MOL0     O22372   6.011  10.065   6.334 -0.2101  0.3007 -0.6648
  928MOL0     C22373   6.013   9.938   6.401 -0.1858 -1.1199  0.8766
  928MOL0     C22374   6.005   9.958   6.553  0.8337 -0.1660  0.2841
  928MOL0     C22375   5.904  10.064   6.604 -0.3162  0.7639  0.1223
  928MOL0     C22376   5.762  10.021   6.545 -0.7878  0.0117 -0.2444
  928MOL0     C22377   5.696   9.897   6.608 -0.0771  0.4021  0.2500
  928MOL0     C22378   5.681   9.893   6.761 -0.3008 -1.0062  0.0183
  928MOL0     C22379   5.569   9.988   6.799  0.4691 -1.2200  0.4755
  928MOL0     C22380   5.530   9.992   6.950 -0.5424 -1.2381  0.4761
  928MOL0     N22381   5.428   9.893   6.978 -0.7212 -0.2914  0.0234
  928MOL0     C22382   5.442   9.761   6.992  1.1189  0.6053 -0.9260
  928MOL0     C22383   5.313   9.722   7.022  0.5648  0.7933 -0.0723
  928MOL0     C22384   5.281   9.582   7.063  0.7477  0.4286 -0.8108
  928MOL0     C22385   5.137   9.558   7.017  0.2674 -0.4614 -0.0158
  928MOL0     C22386   5.085   9.414   7.038  0.4018  0.5294 -0.6050
  928MOL0     C22387   5.168   9.301   6.967  0.0904  0.0213 -0.1618
  928MOL0     O22388   5.176   9.324   6.832 -0.2773  0.0697  0.7363
  928MOL0     C22389   5.214   9.228   6.741  0.0981  0.4578 -0.8176
  928MOL0     C22390   5.179   9.254   6.611 -0.8828  0.0810  0.2318
  928MOL0     C22391   5.206   9.162   6.514  0.4691 -0.9081  0.2528
  928MOL0     C22392   5.280   9.042   6.537  0.8834 -1.1616  0.0947
  928MOL0     C22393   5.317   8.946   6.418 -0.1497 -0.1311 -0.2608
  928MOL0     O22394   5.284   8.988   6.294 -0.5809 -0.2600 -0.0101
  928MOL0     C22395   5.340   8.941   6.172 -0.3677 -0.3405  0.7155
  928MOL0     C22396   5.314   9.026   6.059  0.5969 -0.5942 -0.1040
  928MOL0     C22397   5.372   8.992   5.939 -0.8662  0.0667  0.0279
  928MOL0     C22398   5.456   8.888   5.922 -0.7656  0.3789 -1.0790
  928MOL0     O22399   5.513   8.862   5.798 -0.3031  0.3044 -0.6695
  928MOL0     C22400   5.634   8.791   5.777 -0.0366  0.4977 -0.2366
  928MOL0     C22401   5.750   8.878   5.834 -0.3300  0.0591  0.2277
  928MOL0     C22402   5.890   8.824   5.797  0.1882 -0.8806  0.0030
  928MOL0     C22403   5.916   8.691   5.875 -0.2919  0.0595  0.1583
  928MOL0     C22404   6.055   8.641   5.832  0.1296  0.6333 -0.2669
  928MOL0     C22405   6.115   8.515   5.907 -0.7194  0.5862 -0.1773
  928MOL0     C22406   6.032   8.390   5.888  0.8475 -0.2742  0.9808
  928MOL0     C22407   5.937   8.356   5.998  0.2548  0.6722 -0.3157
  928MOL0    Cl22408   5.858   8.194   5.993  0.2796 -0.0946  0.3017
  928MOL0     C22409   5.491   8.808   6.031  0.2871  0.9319  0.2271
  928MOL0     C22410   5.428   8.827   6.155  0.2711 -1.4899 -0.0143
  928MOL0     O22411   5.360   8.829   6.442 -0.9412 -0.1291 -0.6234
  928MOL0     C22412   5.307   9.012   6.670 -1.4064  0.4391  0.7655
  928MOL0     C22413   5.276   9.103   6.771 -0.0290  0.2036  0.2494
  928MOL0     N22414   5.222   9.831   7.009 -0.8404 -0.6481 -0.1073
  928MOL0     N22415   5.294   9.933   6.987  0.0592  0.0607 -0.1908
  928MOL0     C22416   6.158  10.229   6.252  0.2065  0.5506 -0.7052
  928MOL0     C22417   6.258  10.275   6.168  0.1238  0.4623  1.3963
  928MOL0     C22418   6.610  10.202   5.863  0.2703  0.5848 -0.3332
  928MOL0     C22419   6.574  10.294   5.766 -0.1030  0.8577  1.2133
  928MOL0     C22420   6.660  10.332   5.663 -0.4079  0.2346 -0.4346
  928MOL0     C22421   6.788  10.274   5.650  0.7011 -0.4623 -0.3904
  928MOL0     O22422   6.871  10.310   5.559  0.4273  0.3592  0.0877
  928MOL0     C22423   6.933  10.442   5.574 -0.0626  0.0968  0.8391
  928MOL0     C22424   7.022  10.474   5.444  1.0085  0.3916 -0.3312
  928MOL0     C22425   6.935  10.495   5.319  0.1236 -0.2235  0.2925
  928MOL0     C22426   7.023  10.533   5.196 -0.6492 -0.0415  1.0127
  928MOL0     C22427   6.925  10.526   5.078  0.2240 -0.3312  0.6812
  928MOL0     C22428   6.840  10.532   4.992 -0.0589 -0.2136 -0.2588
  928MOL0     C22429   6.821  10.177   5.752  0.9432 -0.6358  0.7608
  928MOL0     C22430   6.735  10.135   5.854 -0.4526  0.3160  0.1567
  928MOL0     H22431   6.307   9.966   6.009  2.0206  0.2449  2.4072
  928MOL0     H22432   6.126   9.899   6.155 -1.4693  1.0116 -1.3311
  928MOL0     H22433   6.099   9.873   6.380  1.2599  0.8004  0.5807
  928MOL0     H22434   5.926   9.880   6.369 -1.9259 -0.1745  3.5252
  928MOL0     H22435   6.102   9.990   6.592  0.5932 -1.1236  1.7532
  928MOL0     H22436   5.979   9.862   6.599  3.8704 -0.5380  1.4379
  928MOL0     H22437   5.923  10.168   6.576  1.1489  0.5353  0.1655
  928MOL0     H22438   5.903  10.056   6.713  0.3003  1.2756  0.1696
  928MOL0     H22439   5.690  10.103   6.552 -1.5711 -0.7913  3.7388
  928MOL0     H22440   5.777  10.007   6.438 -0.5287  1.9127 -0.4947
  928MOL0     H22441   5.745   9.805   6.573 -0.0110 -0.4796  2.4712
  928MOL0     H22442   5.592   9.900   6.574  0.1503  0.4249 -0.4470
  928MOL0     H22443   5.776   9.913   6.811  0.3128  2.6586 -2.2678
  928MOL0     H22444   5.651   9.793   6.794  2.3537 -1.9516 -0.2228
  928MOL0     H22445   5.600  10.088   6.767  0.1072 -0.2953  2.8175
  928MOL0     H22446   5.473   9.956   6.758  0.7874 -3.9585  1.6033
  928MOL0     H22447   5.484  10.085   6.985  1.3702  0.6994 -1.8419
  928MOL0     H22448   5.622   9.980   7.009  0.2114 -1.1701 -0.6477
  928MOL0     H22449   5.526   9.695   7.011 -1.1006 -2.3908 -0.5781
  928MOL0     H22450   5.291   9.571   7.171  0.8207 -0.3826 -0.8983
  928MOL0     H22451   5.354   9.516   7.016 -1.2705 -3.0477  0.5685
  928MOL0     H22452   5.117   9.586   6.913  2.3611 -2.4712 -1.0326
  928MOL0     H22453   5.068   9.620   7.075  0.5240  0.2431 -0.4466
  928MOL0     H22454   5.077   9.389   7.144  0.1525  0.6144 -0.6033
  928MOL0     H22455   4.981   9.412   7.005  0.2072 -2.7769 -0.0836
  928MOL0     H22456   5.112   9.208   6.982 -0.7314  0.5457  0.0671
  928MOL0     H22457   5.265   9.299   7.018 -0.5068 -0.0431  1.0141
  928MOL0     H22458   5.122   9.344   6.595 -1.4704  0.0857  2.0411
  928MOL0     H22459   5.178   9.181   6.410 -2.2446  1.5262  1.2826
  928MOL0     H22460   5.248   9.112   6.067 -0.3215 -1.1163 -1.7821
  928MOL0     H22461   5.339   9.058   5.860 -1.5275  0.1536  0.3699
  928MOL0     H22462   5.634   8.774   5.669 -0.9840  0.1969 -0.1924
  928MOL0     H22463   5.622   8.698   5.832  0.2498 -0.3022 -1.4851
  928MOL0     H22464   5.733   8.885   5.942  2.0117 -4.1935  1.1045
  928MOL0     H22465   5.736   8.970   5.777  0.2417 -1.1182 -1.9385
  928MOL0     H22466   5.964   8.902   5.817 -0.8960  0.8586 -2.2160
  928MOL0     H22467   5.907   8.817   5.689 -0.0562 -2.1558  0.0386
  928MOL0     H22468   5.898   8.730   5.976 -2.0991 -0.5257  0.1106
  928MOL0     H22469   5.843   8.612   5.854  0.0780 -0.8720  2.1195
  928MOL0     H22470   6.131   8.717   5.851  1.6083 -0.5558 -1.2151
  928MOL0     H22471   6.067   8.635   5.723  1.5951  4.2754 -0.4448
  928MOL0     H22472   6.117   8.536   6.014  0.5791  0.5944 -0.1898
  928MOL0     H22473   6.219   8.495   5.879 -0.5007 -0.4118  1.2504
  928MOL0     H22474   5.961   8.399   5.805 -1.9298  3.2428  3.4579
  928MOL0     H22475   6.105   8.308   5.881  0.7067 -0.8193  4.2074
  928MOL0     H22476   5.865   8.439   6.002 -0.0652  0.3354  1.3371
  928MOL0     H22477   5.988   8.377   6.092 -1.0422  1.5462  0.2244
  928MOL0     H22478   5.559   8.723   6.032  1.1749  1.6134  1.1671
  928MOL0     H22479   5.451   8.763   6.240  2.8498 -1.1118 -0.3416
  928MOL0     H22480   5.367   8.932   6.711  1.9360  2.7606  0.8479
  928MOL0     H22481   5.291   9.091   6.878  0.7461  0.7929  0.2133
  928MOL0     H22482   6.087  10.291   6.307 -0.5240  0.0610 -1.0828
  928MOL0     H22483   6.284  10.381   6.169 -0.9615  0.8346 -1.7071
  928MOL0     H22484   6.478  10.344   5.777  1.0013  3.8758 -1.3696
  928MOL0     H22485   6.631  10.413   5.597  0.4609 -0.2372 -1.4387
  928MOL0     H22486   6.996  10.431   5.663 -0.7605 -1.7543  1.1485
  928MOL0     H22487   6.859  10.518   5.599  2.5358  3.0865  0.0965
  928MOL0     H22488   7.081  10.564   5.463  0.4243  0.5859  0.6476
  928MOL0     H22489   7.091  10.392   5.422  1.0275  0.2512  0.2409
  928MOL0     H22490   6.854  10.567   5.338  0.5966  0.0513  1.3423
  928MOL0     H22491   6.892  10.397   5.295  1.7721 -0.6127 -1.2116
  928MOL0     H22492   7.054  10.637   5.208 -1.0610  0.8373 -3.7006
  928MOL0     H22493   7.112  10.469   5.187 -0.2539  0.7664 -1.6332
  928MOL0     H22494   6.756  10.521   4.926 -2.9879  1.9951  2.7665
  928MOL0     H22495   6.923  10.140   5.754  1.2119 -0.5232 -2.9544
  928MOL0     H22496   6.772  10.063   5.926 -0.1096  1.0900  0.7752
  929MOL0     O22497   0.029   9.402   1.677  0.5785 -0.5246 -0.5170
  929MOL0     C22498  -0.060   9.335   1.621 -0.8987 -0.0768 -0.0770
  929MOL0     O22499  -0.099   9.210   1.661  0.4728 -0.4073 -0.3766
  929MOL0     C22500  -0.080   9.169   1.792 -0.1034 -0.0112 -0.6229
  929MOL0     C22501  -0.180   9.125   1.877 -0.2042 -0.9262  1.2934
  929MOL0     C22502  -0.161   9.052   1.994  0.4246  0.7340 -0.2087
  929MOL0     C22503  -0.030   9.036   2.043 -1.1898  0.9008  0.6492
  929MOL0     O22504  -0.005   8.959   2.152 -0.3442  0.6599 -0.5314
  929MOL0     C22505  -0.048   8.992   2.287 -0.7996  0.3455  0.5721
  929MOL0     C22506   0.020   8.884   2.373  0.4878 -0.7523  0.0275
  929MOL0     C22507  -0.042   8.865   2.504 -0.5157 -0.0737 -0.3667
  929MOL0     C22508   0.061   8.813   2.613 -0.1528  0.3996 -0.1449
  929MOL0     C22509   0.004   8.834   2.752 -0.0020 -0.4031 -0.4755
  929MOL0     C22510   0.105   8.829   2.859 -0.0467  0.0672  1.6554
  929MOL0     C22511   0.049   8.847   2.992  0.0252 -1.1434  0.0801
  929MOL0     C22512   0.161   8.879   3.096 -0.0002  0.8826  0.2349
  929MOL0     N22513   0.239   8.756   3.111 -0.9925 -1.5898 -0.4250
  929MOL0     C22514   0.374   8.751   3.093  0.5942 -0.4002  0.6118
  929MOL0     C22515   0.402   8.638   3.151 -0.2875  0.0653 -0.4363
  929MOL0     C22516   0.535   8.566   3.150  0.5162 -0.3759 -0.2404
  929MOL0     C22517   0.570   8.504   3.020  0.6274  0.2552  0.5534
  929MOL0     C22518   0.618   8.608   2.912 -0.5989 -0.1202  0.1355
  929MOL0     C22519   0.638   8.527   2.775 -0.8490  0.1658  0.5566
  929MOL0     O22520   0.515   8.503   2.708 -0.7527 -0.9551  0.1576
  929MOL0     C22521   0.516   8.521   2.568 -0.3616  0.5341 -1.1037
  929MOL0     C22522   0.385   8.533   2.501 -0.1757 -0.1039 -0.3562
  929MOL0     C22523   0.379   8.552   2.356 -0.4006  0.7681 -0.7141
  929MOL0     C22524   0.500   8.552   2.285  1.1092 -0.7081  0.4784
  929MOL0     C22525   0.512   8.565   2.137  0.2468  1.3054 -0.0636
  929MOL0     O22526   0.622   8.512   2.075  0.4583  0.7772 -0.3283
  929MOL0     C22527   0.609   8.505   1.937  0.1632 -0.5945 -0.0647
  929MOL0     C22528   0.677   8.596   1.858  0.2141  0.6905 -0.1103
  929MOL0     C22529   0.679   8.593   1.719 -0.2706  0.9424  0.0169
  929MOL0     C22530   0.599   8.500   1.648  0.4597  0.8659  0.7332
  929MOL0     O22531   0.600   8.492   1.511  0.5698 -0.1084  0.9352
  929MOL0     C22532   0.585   8.615   1.438 -0.3405 -0.1702  0.6798
  929MOL0     C22533   0.717   8.645   1.375  0.0636 -1.4059  0.2957
  929MOL0     C22534   0.725   8.773   1.288  0.0861 -0.9305 -0.4579
  929MOL0     C22535   0.619   8.772   1.172 -0.1121 -0.0449  0.3522
  929MOL0     C22536   0.693   8.841   1.050 -0.0568  0.0265  0.0873
  929MOL0     C22537   0.722   8.993   1.074  0.6886 -0.0496 -0.6708
  929MOL0     C22538   0.782   9.059   0.948 -0.1144 -0.5944 -0.2148
  929MOL0     C22539   0.831   9.193   0.980  1.0350 -0.3093  0.1944
  929MOL0    Cl22540   0.936   9.252   0.857 -0.1032  0.6790  0.1073
  929MOL0     C22541   0.540   8.390   1.720 -0.3033  0.3833  0.9706
  929MOL0     C22542   0.549   8.394   1.864  0.6027 -0.4668  0.3360
  929MOL0     O22543   0.408   8.596   2.075 -0.3940 -0.7533  0.0487
  929MOL0     C22544   0.628   8.530   2.347  0.1968 -0.1656  0.3355
  929MOL0     C22545   0.634   8.510   2.485  0.5406 -0.3970 -0.2360
  929MOL0     N22546   0.291   8.575   3.204 -0.0260  0.6804 -0.4499
  929MOL0     N22547   0.194   8.649   3.178  0.4092 -0.9867 -0.1858
  929MOL0     C22548   0.074   9.086   1.959 -0.5863  0.5781 -0.3116
  929MOL0     C22549   0.049   9.146   1.834  0.2524  0.7341 -0.0346
  929MOL0     C22550  -0.152   9.394   1.520 -0.0120 -0.0279  0.0079
  929MOL0     C22551  -0.263   9.329   1.468  0.4212 -0.2356  0.1419
  929MOL0     C22552  -0.342   9.397   1.374  0.3658 -0.0201  0.1582
  929MOL0     C22553  -0.316   9.535   1.339  0.0559  0.0570 -0.2677
  929MOL0     O22554  -0.377   9.606   1.241 -0.4233  0.0760 -0.5180
  929MOL0     C22555  -0.511   9.576   1.200 -0.1862 -0.6463 -0.0632
  929MOL0     C22556  -0.490   9.518   1.055  0.1833  0.8343  0.2226
  929MOL0     C22557  -0.624   9.460   1.007  0.0593  0.1864  0.1324
  929MOL0     C22558  -0.641   9.463   0.858 -0.7367  0.3650  0.8170
  929MOL0     C22559  -0.617   9.596   0.790 -0.6153  0.7777  0.1133
  929MOL0     C22560  -0.587   9.707   0.750 -0.1446  0.6289 -0.4800
  929MOL0     C22561  -0.210   9.600   1.397  2.0489 -0.2629 -0.5861
  929MOL0     C22562  -0.123   9.530   1.482 -0.1749  0.4234 -0.0308
  929MOL0     H22563  -0.275   9.134   1.825  0.4355  1.1010  0.3571
  929MOL0     H22564  -0.238   9.010   2.058  3.2364 -1.0033  2.2792
  929MOL0     H22565  -0.153   8.984   2.314 -0.9480  1.5340  0.3935
  929MOL0     H22566   0.006   9.085   2.308 -1.6956  0.6742  1.5263
  929MOL0     H22567   0.126   8.908   2.379  0.6712 -0.2275 -3.3374
  929MOL0     H22568   0.020   8.786   2.324 -0.5402 -1.7944  1.9572
  929MOL0     H22569  -0.127   8.797   2.498  1.5841 -2.7526 -1.8597
  929MOL0     H22570  -0.071   8.966   2.534  1.9393  1.0398 -1.4613
  929MOL0     H22571   0.100   8.712   2.594  0.2345  0.7122 -1.0784
  929MOL0     H22572   0.145   8.883   2.616 -2.2560  3.0334  0.8041
  929MOL0     H22573  -0.060   8.747   2.769 -3.1482  1.7691 -0.2868
  929MOL0     H22574  -0.048   8.930   2.755  0.1506 -0.3217 -0.4467
  929MOL0     H22575   0.168   8.918   2.844 -2.2913  1.4581 -0.3263
  929MOL0     H22576   0.159   8.735   2.846  0.7870  0.7401 -0.2132
  929MOL0     H22577  -0.014   8.936   2.986  1.0559 -0.2765  1.4768
  929MOL0     H22578  -0.001   8.757   3.029  1.8748 -2.4070 -0.3800
  929MOL0     H22579   0.110   8.891   3.192 -3.0035 -2.6954 -0.6453
  929MOL0     H22580   0.221   8.967   3.074  1.9805 -0.4827 -0.1239
  929MOL0     H22581   0.440   8.824   3.047 -0.8123  2.3261  2.6150
  929MOL0     H22582   0.537   8.483   3.222 -0.1133  2.0347  2.7757
  929MOL0     H22583   0.611   8.635   3.188  0.7988 -0.7754 -0.0611
  929MOL0     H22584   0.491   8.441   2.977  2.3968 -0.9670 -1.0848
  929MOL0     H22585   0.651   8.439   3.056  0.8967  1.4697  2.2682
  929MOL0     H22586   0.549   8.690   2.893 -0.8821 -0.9785 -3.1474
  929MOL0     H22587   0.702   8.654   2.965  0.2668  0.5665 -1.7285
  929MOL0     H22588   0.691   8.436   2.803 -1.8835 -0.7579 -0.4191
  929MOL0     H22589   0.708   8.588   2.718  1.2136 -1.1218  1.6176
  929MOL0     H22590   0.298   8.525   2.566 -1.4488  1.4554 -1.7721
  929MOL0     H22591   0.280   8.575   2.315 -0.7324  0.1127 -0.2958
  929MOL0     H22592   0.733   8.675   1.908 -0.1004  2.1996 -2.0302
  929MOL0     H22593   0.749   8.666   1.678  0.8259  1.3041  2.3657
  929MOL0     H22594   0.551   8.688   1.512  0.8727  0.9332  0.1986
  929MOL0     H22595   0.508   8.608   1.361  1.9625 -2.3082 -1.6184
  929MOL0     H22596   0.724   8.564   1.302 -2.6915 -0.5268 -1.0583
  929MOL0     H22597   0.794   8.652   1.453  1.3267  0.5941 -1.0412
  929MOL0     H22598   0.826   8.781   1.247  0.0114 -2.4959 -1.0096
  929MOL0     H22599   0.698   8.864   1.343  1.4675 -0.9976  0.3697
  929MOL0     H22600   0.596   8.674   1.129  2.2171 -0.7440  0.5638
  929MOL0     H22601   0.527   8.828   1.193  0.3557  2.5377 -3.4663
  929MOL0     H22602   0.625   8.841   0.964 -0.7645 -0.5782  0.6330
  929MOL0     H22603   0.778   8.780   1.018 -1.1250 -2.2194  1.2827
  929MOL0     H22604   0.799   8.997   1.151  2.7237 -1.0458 -2.5613
  929MOL0     H22605   0.628   9.034   1.112 -0.7531 -3.5797 -0.0537
  929MOL0     H22606   0.867   8.995   0.921 -0.3852 -1.4032  0.7586
  929MOL0     H22607   0.716   9.057   0.861 -1.9515 -2.4958  1.1154
  929MOL0     H22608   0.874   9.198   1.081 -3.4201  0.7493  2.3029
  929MOL0     H22609   0.752   9.266   0.995  2.7043  1.6949 -0.3479
  929MOL0     H22610   0.477   8.316   1.673 -1.9074  1.5890  1.1167
  929MOL0     H22611   0.512   8.303   1.910  2.8561 -1.9943 -0.7071
  929MOL0     H22612   0.716   8.508   2.288 -0.9758  0.0679 -1.5740
  929MOL0     H22613   0.735   8.481   2.515  0.4957  0.0554  0.3579
  929MOL0     H22614   0.177   9.057   1.980 -0.0705  3.6155  1.9934
  929MOL0     H22615   0.136   9.163   1.772  0.2933  0.3902 -0.0762
  929MOL0     H22616  -0.276   9.226   1.501 -0.8026 -0.1617 -0.0649
  929MOL0     H22617  -0.432   9.347   1.339  1.8285 -3.9109  1.4668
  929MOL0     H22618  -0.571   9.667   1.190  1.6777  0.7315  0.6125
  929MOL0     H22619  -0.561   9.505   1.267  1.9379 -1.8565  0.3429
  929MOL0     H22620  -0.439   9.587   0.987 -0.9701 -0.9313 -2.6255
  929MOL0     H22621  -0.410   9.444   1.061  0.9014  1.5187 -0.6344
  929MOL0     H22622  -0.713   9.505   1.052 -1.1862  0.0363 -2.0590
  929MOL0     H22623  -0.619   9.354   1.032 -0.6941 -0.0518 -0.6732
  929MOL0     H22624  -0.577   9.385   0.815 -3.9770 -1.3873 -1.2404
  929MOL0     H22625  -0.747   9.437   0.850 -1.3514  2.9659 -0.9385
  929MOL0     H22626  -0.551   9.806   0.732  1.5097 -0.0810 -1.2438
  929MOL0     H22627  -0.176   9.699   1.367  0.3326 -0.1063 -2.1618
  929MOL0     H22628  -0.024   9.570   1.503  0.2592 -0.8481  0.4861
  930MOL0     O22629   4.983   7.440   3.807  0.2794  0.0186  0.4930
  930MOL0     C22630   5.083   7.455   3.877 -0.1230  0.1126  0.0564
  930MOL0     O22631   5.120   7.380   3.991 -0.0698 -0.2140  0.3627
  930MOL0     C22632   5.050   7.274   4.039  1.2255  0.3127  0.8483
  930MOL0     C22633   4.973   7.182   3.965  0.3840 -0.1058 -0.5927
  930MOL0     C22634   4.895   7.078   4.024 -0.7641 -0.1686 -0.0221
  930MOL0     C22635   4.900   7.063   4.164  0.3995 -0.1831 -0.5044
  930MOL0     O22636   4.838   6.955   4.220 -0.5072 -0.3745  1.0240
  930MOL0     C22637   4.819   6.951   4.363 -0.4838  0.0594  0.6611
  930MOL0     C22638   4.724   6.831   4.378  0.1545  0.0217  0.1138
  930MOL0     C22639   4.692   6.798   4.531  0.3410 -0.0882  0.3241
  930MOL0     C22640   4.629   6.664   4.550  0.1732 -0.8101  0.6807
  930MOL0     C22641   4.609   6.620   4.696 -0.0062 -0.7538 -0.0294
  930MOL0     C22642   4.542   6.484   4.719 -0.0575 -0.6799  0.3796
  930MOL0     C22643   4.552   6.455   4.869 -0.1623 -0.8905  0.2508
  930MOL0     C22644   4.686   6.377   4.905  0.2018 -0.7456 -0.1234
  930MOL0     N22645   4.672   6.242   4.878  0.0875  0.0856 -0.3467
  930MOL0     C22646   4.704   6.171   4.757 -0.0095 -0.5073 -0.3707
  930MOL0     C22647   4.670   6.044   4.780  0.0134 -0.0743  0.4048
  930MOL0     C22648   4.698   5.930   4.680 -0.2423 -0.0252 -0.2159
  930MOL0     C22649   4.570   5.836   4.666 -0.5086 -0.6372  1.1900
  930MOL0     C22650   4.592   5.727   4.567  0.5256  0.2558  1.1145
  930MOL0     C22651   4.453   5.655   4.542 -0.0442  0.9956  1.0143
  930MOL0     O22652   4.341   5.744   4.525 -0.1557  0.1794  1.1617
  930MOL0     C22653   4.224   5.685   4.482  0.6154  1.0199 -0.2888
  930MOL0     C22654   4.211   5.547   4.483  0.6211  0.7443 -0.5795
  930MOL0     C22655   4.086   5.490   4.458 -0.2488  0.1840  0.2836
  930MOL0     C22656   3.975   5.567   4.419 -0.0695  0.5743 -0.7172
  930MOL0     C22657   3.846   5.508   4.388 -0.7392 -1.4120  0.5549
  930MOL0     O22658   3.774   5.584   4.301 -0.4361 -0.1192  0.4775
  930MOL0     C22659   3.646   5.562   4.266 -0.0256  0.3767 -0.0407
  930MOL0     C22660   3.563   5.452   4.297  0.3745 -0.2755 -0.0705
  930MOL0     C22661   3.433   5.452   4.251 -0.7067 -0.3829  0.1634
  930MOL0     C22662   3.384   5.542   4.161 -0.0969  0.1199  0.3334
  930MOL0     O22663   3.246   5.544   4.131 -0.2652 -0.2193 -0.3914
  930MOL0     C22664   3.193   5.445   4.038 -0.3039  0.5368  0.5743
  930MOL0     C22665   3.137   5.318   4.109 -0.1960  0.7264  0.3372
  930MOL0     C22666   3.074   5.342   4.247 -0.5584  0.1784  0.2185
  930MOL0     C22667   2.965   5.234   4.268  0.4645 -0.3761  0.3512
  930MOL0     C22668   2.867   5.258   4.380 -0.6384  0.2349  1.1769
  930MOL0     C22669   2.782   5.136   4.383  0.0599  0.3037  0.1807
  930MOL0     C22670   2.779   5.069   4.521 -1.0988  1.0316 -0.9571
  930MOL0     C22671   2.912   5.005   4.579  0.7997 -0.4967  0.8977
  930MOL0    Cl22672   2.988   4.898   4.458  0.2489 -0.7565  0.0315
  930MOL0     C22673   3.461   5.651   4.132 -0.1618  0.3274 -0.0813
  930MOL0     C22674   3.598   5.651   4.173  0.1668  0.2816  0.0280
  930MOL0     O22675   3.817   5.401   4.427  0.2505 -0.4072  0.9199
  930MOL0     C22676   3.993   5.703   4.423 -0.4784 -0.0554  0.1188
  930MOL0     C22677   4.114   5.762   4.462  0.2508 -0.5190  0.5259
  930MOL0     N22678   4.621   6.038   4.909  0.1295  0.3997 -0.2164
  930MOL0     N22679   4.614   6.155   4.965 -1.0485  0.0884 -0.2750
  930MOL0     C22680   4.963   7.169   4.236  1.1267  0.1437  0.3737
  930MOL0     C22681   5.035   7.276   4.176  0.0867 -0.5417 -1.1731
  930MOL0     C22682   5.187   7.555   3.830 -0.3921 -0.3746 -1.5889
  930MOL0     C22683   5.169   7.646   3.719 -0.4155 -0.2217  0.4999
  930MOL0     C22684   5.268   7.745   3.700 -0.1521  0.0003  0.8477
  930MOL0     C22685   5.382   7.766   3.780  0.0215  0.3913  0.4419
  930MOL0     O22686   5.477   7.866   3.765  0.0670  0.7111 -0.1614
  930MOL0     C22687   5.470   7.952   3.649  0.0791  0.6583  0.0622
  930MOL0     C22688   5.566   8.076   3.649  0.5603 -0.1917  0.6937
  930MOL0     C22689   5.710   8.026   3.635  0.5815  0.1061 -0.0108
  930MOL0     C22690   5.823   8.143   3.661  0.2093 -0.6119  0.8996
  930MOL0     C22691   5.801   8.245   3.556  0.3217  0.6830 -0.6721
  930MOL0     C22692   5.795   8.326   3.473  0.7261  0.5161  0.6796
  930MOL0     C22693   5.411   7.666   3.877 -0.3856 -0.2236  0.2308
  930MOL0     C22694   5.314   7.570   3.911  0.6020 -0.0301 -0.2274
  930MOL0     H22695   4.961   7.198   3.859  0.5978  3.1928 -0.2306
  930MOL0     H22696   4.843   7.004   3.963 -4.7918  1.3643  1.2180
  930MOL0     H22697   4.778   7.043   4.406 -0.3499  0.2737  0.3374
  930MOL0     H22698   4.913   6.929   4.414 -0.3136 -2.1076 -0.4713
  930MOL0     H22699   4.774   6.742   4.340  1.1282  0.6001  0.0054
  930MOL0     H22700   4.631   6.859   4.329  1.3213  1.7975 -1.2018
  930MOL0     H22701   4.619   6.872   4.564 -0.4572 -0.8665  0.3526
  930MOL0     H22702   4.772   6.817   4.602  0.7930 -2.1226  0.4305
  930MOL0     H22703   4.535   6.648   4.496  1.0581 -2.5948 -0.4545
  930MOL0     H22704   4.697   6.601   4.491  0.0745  1.3733 -1.9873
  930MOL0     H22705   4.553   6.700   4.745 -1.2547 -1.7711  0.2615
  930MOL0     H22706   4.710   6.618   4.737  1.3686  4.7760 -2.2538
  930MOL0     H22707   4.593   6.411   4.655  0.7093  1.7861 -2.0575
  930MOL0     H22708   4.436   6.485   4.690  0.0417 -1.3196 -0.0351
  930MOL0     H22709   4.550   6.545   4.930 -2.1523 -1.8402  1.7003
  930MOL0     H22710   4.467   6.391   4.897 -0.5296  0.2103  1.7337
  930MOL0     H22711   4.693   6.393   5.013 -1.0217 -0.5947 -0.0492
  930MOL0     H22712   4.765   6.420   4.843  1.5161 -2.3612  0.3599
  930MOL0     H22713   4.727   6.206   4.657  2.5306  0.4858  0.4770
  930MOL0     H22714   4.787   5.881   4.720  0.9936 -0.7220 -3.5595
  930MOL0     H22715   4.707   5.976   4.581  0.5151  0.0482 -0.1157
  930MOL0     H22716   4.482   5.894   4.635 -0.4330 -1.8012 -1.5754
  930MOL0     H22717   4.545   5.799   4.766 -1.8376  0.1152  1.1683
  930MOL0     H22718   4.633   5.757   4.470 -0.4720 -3.1043 -0.4996
  930MOL0     H22719   4.658   5.652   4.613  0.4965 -1.7473 -1.8034
  930MOL0     H22720   4.444   5.591   4.630  0.7660  1.5338  1.5045
  930MOL0     H22721   4.462   5.594   4.451 -0.6686  1.3309  0.7257
  930MOL0     H22722   4.285   5.478   4.521  0.0760 -1.4042 -3.1498
  930MOL0     H22723   4.066   5.384   4.474  1.8086 -0.0590  1.5558
  930MOL0     H22724   3.593   5.374   4.366 -0.0328  1.1025  1.7346
  930MOL0     H22725   3.369   5.373   4.287 -0.4234 -0.2938  0.8710
  930MOL0     H22726   3.273   5.418   3.968 -0.5268  0.6265  0.2832
  930MOL0     H22727   3.118   5.495   3.976  1.6762  2.2927 -0.5824
  930MOL0     H22728   3.228   5.257   4.110 -0.5080  0.2492  0.0698
  930MOL0     H22729   3.064   5.266   4.047 -0.6345 -0.6894  1.9458
  930MOL0     H22730   3.018   5.436   4.251  1.4919  1.4437  1.9728
  930MOL0     H22731   3.153   5.355   4.322  1.2044 -3.2053 -0.8552
  930MOL0     H22732   2.908   5.232   4.175 -0.0447 -0.1127  0.6515
  930MOL0     H22733   3.007   5.134   4.259 -1.2773 -1.0137 -1.1546
  930MOL0     H22734   2.814   5.353   4.371 -1.7580 -0.3039  1.8715
  930MOL0     H22735   2.927   5.268   4.471 -0.7790 -1.7588  1.5226
  930MOL0     H22736   2.801   5.060   4.307  0.9052 -1.6363  2.2170
  930MOL0     H22737   2.680   5.158   4.349  0.0221 -1.0646 -0.6658
  930MOL0     H22738   2.759   5.142   4.599  1.3835  0.2765  0.4950
  930MOL0     H22739   2.701   4.992   4.516  0.3929 -0.5911 -0.1400
  930MOL0     H22740   2.898   4.952   4.674  0.0531  0.8545  1.5663
  930MOL0     H22741   2.972   5.091   4.606 -0.3368  0.2713  1.0544
  930MOL0     H22742   3.423   5.722   4.059 -1.7650  0.1361  0.5195
  930MOL0     H22743   3.666   5.730   4.141  0.9199 -0.8012 -1.1400
  930MOL0     H22744   3.903   5.760   4.402  1.3240  2.0271 -2.5394
  930MOL0     H22745   4.128   5.868   4.479  3.1218 -0.8766  0.8018
  930MOL0     H22746   4.955   7.165   4.344  0.0335 -0.1921  0.2943
  930MOL0     H22747   5.077   7.356   4.235  1.3328 -1.9464 -0.0463
  930MOL0     H22748   5.088   7.645   3.647 -0.5687  0.7745  0.6483
  930MOL0     H22749   5.259   7.819   3.620  1.8154 -0.7038 -0.0940
  930MOL0     H22750   5.368   7.990   3.646  0.2477  1.1084 -0.0096
  930MOL0     H22751   5.493   7.886   3.564 -2.6524 -3.7819  2.3913
  930MOL0     H22752   5.529   8.147   3.575 -0.2285 -3.4183 -2.2621
  930MOL0     H22753   5.559   8.114   3.751  0.9594 -0.0267  0.6610
  930MOL0     H22754   5.719   7.970   3.541 -2.9914 -3.1466  1.3262
  930MOL0     H22755   5.710   7.944   3.707 -2.0673 -0.5150 -0.6299
  930MOL0     H22756   5.820   8.178   3.765  2.5620  0.1899  0.7375
  930MOL0     H22757   5.923   8.104   3.643  1.6597  2.9817  0.4075
  930MOL0     H22758   5.795   8.399   3.394  2.3638  0.1884  0.3396
  930MOL0     H22759   5.491   7.668   3.950 -0.4099  2.5416  0.2787
  930MOL0     H22760   5.313   7.508   3.999 -3.2470  0.0473 -0.0694
  931MOL0     O22761   1.089  10.071   8.590  0.1534 -0.1174  0.5821
  931MOL0     C22762   1.098  10.193   8.602 -0.9204 -0.2001 -0.4069
  931MOL0     O22763   1.090  10.282   8.506  0.5168 -0.0117 -0.0078
  931MOL0     C22764   1.046  10.243   8.383  0.9876  0.0171  0.7743
  931MOL0     C22765   0.920  10.280   8.332  0.5970 -0.5661  0.2577
  931MOL0     C22766   0.888  10.258   8.195 -0.4700 -0.0812 -0.6067
  931MOL0     C22767   0.973  10.188   8.117 -0.3734  0.4241  0.5580
  931MOL0     O22768   0.934  10.158   7.986  0.3878 -0.1885 -1.0682
  931MOL0     C22769   0.989  10.036   7.921  0.4662  0.2241  0.0435
  931MOL0     C22770   0.930  10.004   7.790  0.1966  0.2379  0.5105
  931MOL0     C22771   1.029   9.920   7.711 -0.2417 -0.3806  0.7225
  931MOL0     C22772   0.976   9.867   7.573  0.2347  0.0735  0.1779
  931MOL0     C22773   0.939   9.963   7.456 -0.0442  0.5356  0.8700
  931MOL0     C22774   0.833   9.900   7.360 -0.4096 -0.7878 -0.6800
  931MOL0     C22775   0.764  10.005   7.265  0.7271  0.7422 -0.0067
  931MOL0     C22776   0.620   9.959   7.235 -0.1684  0.2107 -0.4096
  931MOL0     N22777   0.528   9.980   7.355 -0.5134  0.1294 -0.4137
  931MOL0     C22778   0.444  10.075   7.374  0.4849 -0.2102  0.1559
  931MOL0     C22779   0.373  10.055   7.486  0.7258  0.9790  0.2867
  931MOL0     C22780   0.262  10.124   7.562 -0.3275  0.1831  0.0457
  931MOL0     C22781   0.140  10.037   7.585  0.5080  0.4824 -0.4132
  931MOL0     C22782   0.033  10.080   7.674  0.3995  0.5821 -0.5012
  931MOL0     C22783  -0.004  10.222   7.680  0.3043 -1.2030 -0.4810
  931MOL0     O22784  -0.117  10.253   7.586  0.3814  0.8311 -0.8512
  931MOL0     C22785  -0.251  10.244   7.619 -0.7501  0.2058 -0.9557
  931MOL0     C22786  -0.355  10.300   7.538  0.1014  0.1593  0.3589
  931MOL0     C22787  -0.485  10.284   7.575 -0.6450  0.1965  0.2364
  931MOL0     C22788  -0.530  10.227   7.699 -0.7798  0.7448  0.5001
  931MOL0     C22789  -0.671  10.200   7.721 -1.2227  0.3622 -0.5850
  931MOL0     O22790  -0.697  10.153   7.849 -0.1163  0.3031  0.6038
  931MOL0     C22791  -0.825  10.123   7.882 -0.9616 -0.8641 -0.7210
  931MOL0     C22792  -0.871  10.162   8.009 -0.5337  0.2187 -0.6266
  931MOL0     C22793  -1.008  10.128   8.041  0.0232  0.5616  0.4644
  931MOL0     C22794  -1.090  10.048   7.958 -0.6703 -0.7985 -0.1375
  931MOL0     O22795  -1.209  10.013   8.001  1.1146  0.2446  0.6133
  931MOL0     C22796  -1.287  10.092   8.091 -0.5077 -0.2382 -0.4112
  931MOL0     C22797  -1.426  10.046   8.081  0.6252 -0.2852 -0.2503
  931MOL0     C22798  -1.520  10.108   8.191 -0.5933 -0.2857 -1.1747
  931MOL0     C22799  -1.646  10.024   8.188  1.1910 -0.8342 -0.2007
  931MOL0     C22800  -1.767  10.068   8.282 -0.5321  0.0689  0.5800
  931MOL0     C22801  -1.838  10.178   8.210  0.0743  0.0375 -0.0836
  931MOL0     C22802  -1.954  10.236   8.286  1.2713 -0.6198 -1.0993
  931MOL0     C22803  -1.978  10.381   8.232  0.6636  0.0250 -0.5796
  931MOL0    Cl22804  -2.156  10.426   8.253 -0.1985 -0.1249 -0.0327
  931MOL0     C22805  -1.039  10.011   7.837  0.3984 -0.2178  0.1419
  931MOL0     C22806  -0.912  10.053   7.795  0.0306  0.4524  0.4521
  931MOL0     O22807  -0.748  10.221   7.633  0.0546 -0.2666  0.0411
  931MOL0     C22808  -0.424  10.187   7.784  0.0281  0.0937 -0.1366
  931MOL0     C22809  -0.292  10.199   7.749  0.5885 -0.6799  0.4321
  931MOL0     N22810   0.437   9.945   7.544 -0.5323  0.7505 -0.2366
  931MOL0     N22811   0.522   9.895   7.469 -1.2303 -0.0517  0.8854
  931MOL0     C22812   1.100  10.164   8.165 -0.9626 -0.0611 -0.2042
  931MOL0     C22813   1.138  10.187   8.298 -0.0332  0.1804 -0.3578
  931MOL0     C22814   1.124  10.250   8.735  0.0875  1.2682 -0.3893
  931MOL0     C22815   1.160  10.379   8.759  0.3540  0.8237  0.2981
  931MOL0     C22816   1.166  10.444   8.878  0.2559  0.6298 -0.7556
  931MOL0     C22817   1.128  10.384   8.988 -0.4524 -0.6843  0.1349
  931MOL0     O22818   1.136  10.463   9.097 -0.0781 -0.0769 -0.0498
  931MOL0     C22819   1.113  10.403   9.219  0.7171 -0.1070 -0.3191
  931MOL0     C22820   1.113  10.494   9.338 -0.3173  0.1076 -0.5149
  931MOL0     C22821   1.007  10.604   9.325 -0.3440 -0.4670 -0.0871
  931MOL0     C22822   0.872  10.588   9.395  1.1701  0.2452 -0.5792
  931MOL0     C22823   0.906  10.586   9.538  1.2379 -0.7364 -1.0715
  931MOL0     C22824   0.916  10.571   9.658 -0.3929 -0.9144 -0.0093
  931MOL0     C22825   1.088  10.245   8.984 -0.1272  0.0441 -0.2417
  931MOL0     C22826   1.084  10.182   8.855  0.2098  0.0067  0.2134
  931MOL0     H22827   0.851  10.327   8.400 -1.5043 -0.7871 -1.6143
  931MOL0     H22828   0.794  10.296   8.156 -0.5565 -0.6335 -0.9450
  931MOL0     H22829   0.958   9.948   7.978 -1.2044  1.5925  1.3463
  931MOL0     H22830   1.098  10.033   7.915  0.4917 -0.6130  0.7439
  931MOL0     H22831   0.903  10.086   7.724 -4.4152 -1.3519  0.0348
  931MOL0     H22832   0.839   9.944   7.803 -0.5135  1.2339  0.2487
  931MOL0     H22833   1.094   9.854   7.770  0.2133 -1.7576 -1.2093
  931MOL0     H22834   1.111   9.982   7.672  0.5880 -3.2201 -2.5029
  931MOL0     H22835   1.049   9.795   7.534  1.7149  1.9583 -0.7356
  931MOL0     H22836   0.887   9.813   7.606  2.4821 -4.1797 -0.0794
  931MOL0     H22837   1.030   9.998   7.408  0.7979 -3.2017 -0.6309
  931MOL0     H22838   0.899  10.056   7.497  1.0877  1.1343  0.6396
  931MOL0     H22839   0.753   9.846   7.411 -1.3434  2.5997  1.8588
  931MOL0     H22840   0.899   9.833   7.304  3.0933  2.2765 -0.5963
  931MOL0     H22841   0.750  10.108   7.298 -0.7195  0.9894 -1.3192
  931MOL0     H22842   0.818  10.009   7.170 -0.1448 -3.2261 -0.8737
  931MOL0     H22843   0.611   9.855   7.203 -1.4292 -0.6523  2.4150
  931MOL0     H22844   0.586  10.028   7.158  2.2914 -0.0816 -1.8562
  931MOL0     H22845   0.405  10.161   7.320 -2.8694 -0.2213  2.2366
  931MOL0     H22846   0.242  10.219   7.510 -1.5480 -0.7135 -1.1941
  931MOL0     H22847   0.307  10.160   7.655 -3.2368  0.8646  1.3100
  931MOL0     H22848   0.172   9.941   7.625  0.8061  0.1634 -1.3769
  931MOL0     H22849   0.093  10.020   7.488  1.6589 -1.2788 -0.7025
  931MOL0     H22850  -0.057  10.023   7.649  2.6280 -2.3575 -2.5059
  931MOL0     H22851   0.060  10.045   7.774 -1.6883 -2.3280 -0.8190
  931MOL0     H22852   0.084  10.281   7.657 -0.0409 -0.1751  0.7471
  931MOL0     H22853  -0.034  10.255   7.780 -0.5570 -1.8379 -0.5159
  931MOL0     H22854  -0.339  10.345   7.441  1.5623 -1.6815 -0.3270
  931MOL0     H22855  -0.552  10.328   7.502  0.9022 -2.5612 -3.1517
  931MOL0     H22856  -0.803  10.211   8.077 -0.6463  1.6299 -1.4890
  931MOL0     H22857  -1.033  10.155   8.143  1.2948  2.1418  0.3936
  931MOL0     H22858  -1.275  10.197   8.063 -0.8439 -0.0634  0.0875
  931MOL0     H22859  -1.256  10.077   8.195 -4.3184  1.7440  1.1834
  931MOL0     H22860  -1.436   9.937   8.092 -1.8409  0.0035  1.0541
  931MOL0     H22861  -1.469  10.066   7.983 -0.3676  1.5185  0.5064
  931MOL0     H22862  -1.528  10.215   8.174 -0.8940  0.2643  1.8109
  931MOL0     H22863  -1.469  10.101   8.287  2.7828  1.6125 -2.6613
  931MOL0     H22864  -1.687  10.009   8.088  0.7365 -1.6970  0.1057
  931MOL0     H22865  -1.609   9.929   8.228 -0.1342 -1.4853 -0.4347
  931MOL0     H22866  -1.743  10.104   8.382 -2.6983  1.5407  0.6339
  931MOL0     H22867  -1.833   9.982   8.299  2.2123 -2.4329 -0.4170
  931MOL0     H22868  -1.872  10.132   8.117  0.7284 -0.3855 -0.1124
  931MOL0     H22869  -1.769  10.261   8.194 -0.2166  0.2946 -0.0223
  931MOL0     H22870  -2.040  10.169   8.302  1.4604 -0.1669  2.5424
  931MOL0     H22871  -1.929  10.264   8.388 -3.5515  1.2367 -0.1494
  931MOL0     H22872  -1.964  10.367   8.125 -0.3343  1.8183 -0.9734
  931MOL0     H22873  -1.904  10.454   8.268  0.3476  1.2340 -2.2689
  931MOL0     H22874  -1.108   9.950   7.780  0.8556 -2.3464  1.7211
  931MOL0     H22875  -0.882  10.021   7.696 -1.5239  1.4023 -0.3670
  931MOL0     H22876  -0.449  10.162   7.887  1.8650 -4.5596 -0.5637
  931MOL0     H22877  -0.227  10.152   7.821  0.7854 -0.9234  0.0978
  931MOL0     H22878   1.177  10.112   8.109 -1.7304 -2.1841  0.5900
  931MOL0     H22879   1.243  10.172   8.320  0.3884  1.7973 -1.1417
  931MOL0     H22880   1.191  10.446   8.679  0.4766  1.4404  0.8569
  931MOL0     H22881   1.201  10.546   8.870 -2.5579  1.7226 -0.3179
  931MOL0     H22882   1.196  10.333   9.236 -0.5304 -1.5439  0.1527
  931MOL0     H22883   1.024  10.340   9.224  1.0201 -0.6454 -1.3779
  931MOL0     H22884   1.105  10.426   9.423 -0.5361  2.2522  1.2683
  931MOL0     H22885   1.217  10.528   9.343 -0.6248  1.3451 -1.8026
  931MOL0     H22886   0.987  10.609   9.217  0.8191 -0.4966 -0.3195
  931MOL0     H22887   1.052  10.699   9.354 -1.0739  0.6502 -2.3118
  931MOL0     H22888   0.805  10.674   9.387  1.0308  0.0485 -1.6811
  931MOL0     H22889   0.819  10.495   9.374 -0.2145  1.2593 -1.7634
  931MOL0     H22890   0.913  10.552   9.763  0.3265 -0.3584  0.1277
  931MOL0     H22891   1.071  10.185   9.073  2.4915  3.2769  2.7180
  931MOL0     H22892   1.069  10.075   8.842 -0.9973  0.0354  1.2153
  932MOL0     O22893   9.902   8.403   0.104  0.4276  0.6722 -0.1171
  932MOL0     C22894   9.923   8.355   0.214 -0.3243  0.4920  0.4947
  932MOL0     O22895   9.835   8.279   0.291  0.5814  0.3414 -0.0051
  932MOL0     C22896   9.713   8.235   0.251 -0.3366 -0.2666  0.2390
  932MOL0     C22897   9.701   8.123   0.171 -0.2928 -0.3469 -0.0044
  932MOL0     C22898   9.578   8.073   0.135  0.1112 -0.1185 -0.0920
  932MOL0     C22899   9.458   8.136   0.168  0.6584  0.6217  0.4703
  932MOL0     O22900   9.345   8.076   0.138  0.0628  0.5284  0.0525
  932MOL0     C22901   9.235   8.146   0.090 -0.0583 -0.2687 -0.1606
  932MOL0     C22902   9.197   8.110  -0.048  1.2020  0.2717 -0.2967
  932MOL0     C22903   9.283   8.187  -0.152  0.2165 -0.3349 -0.5204
  932MOL0     C22904   9.255   8.141  -0.290 -0.4345 -1.0893 -0.3127
  932MOL0     C22905   9.271   7.988  -0.315 -0.3585  0.0318 -0.7215
  932MOL0     C22906   9.253   7.959  -0.469 -0.7578  0.0848 -0.1413
  932MOL0     C22907   9.108   7.972  -0.518 -0.7063 -0.1839  0.0407
  932MOL0     C22908   9.103   7.886  -0.655  0.2839 -0.4799  0.1640
  932MOL0     N22909   8.980   7.897  -0.728 -0.5762 -0.2013 -0.0788
  932MOL0     C22910   8.862   7.847  -0.682  0.2822  0.6165  1.4234
  932MOL0     C22911   8.784   7.827  -0.788  0.0958 -0.2364 -0.4840
  932MOL0     C22912   8.647   7.762  -0.779 -0.1111 -0.1385  0.2808
  932MOL0     C22913   8.591   7.722  -0.920  0.1421  1.0207 -0.4338
  932MOL0     C22914   8.444   7.679  -0.901 -1.3824  0.0773 -0.5446
  932MOL0     C22915   8.387   7.640  -1.035 -0.7591  0.5289  0.0596
  932MOL0     O22916   8.346   7.770  -1.093 -0.6171 -0.1654  0.2090
  932MOL0     C22917   8.211   7.803  -1.108  0.0188  0.8220 -0.2042
  932MOL0     C22918   8.190   7.916  -1.174 -0.4036  0.3920  0.0304
  932MOL0     C22919   8.050   7.960  -1.179 -0.6657 -0.6422 -0.1095
  932MOL0     C22920   7.944   7.901  -1.114  0.7304  1.1189 -1.1324
  932MOL0     C22921   7.800   7.950  -1.110 -0.9412  0.1473  0.1466
  932MOL0     O22922   7.775   8.067  -1.164 -0.4288 -0.0692  0.6773
  932MOL0     C22923   7.649   8.125  -1.172  0.1738  0.5921  0.7993
  932MOL0     C22924   7.518   8.060  -1.160 -0.7671  0.3759  0.1314
  932MOL0     C22925   7.399   8.140  -1.179 -0.9408  0.4780  0.7113
  932MOL0     C22926   7.402   8.280  -1.193  0.2393 -0.1586 -0.7605
  932MOL0     O22927   7.290   8.359  -1.208 -0.3661  0.3370 -0.1202
  932MOL0     C22928   7.185   8.342  -1.120  0.5628  0.2412  0.1949
  932MOL0     C22929   7.060   8.435  -1.160  0.2032  1.0831  0.6656
  932MOL0     C22930   6.953   8.440  -1.043 -0.0739 -0.0748 -0.3640
  932MOL0     C22931   6.821   8.502  -1.093 -0.0243 -0.2300 -0.3019
  932MOL0     C22932   6.729   8.511  -0.970 -0.4312  0.2462 -0.0568
  932MOL0     C22933   6.770   8.609  -0.854 -0.2770 -0.6218  0.1218
  932MOL0     C22934   6.776   8.756  -0.908 -0.3632 -0.3017  0.6841
  932MOL0     C22935   6.802   8.855  -0.782 -0.5253  0.2614  0.3489
  932MOL0    Cl22936   6.654   8.857  -0.687  0.8144 -0.1528 -0.1795
  932MOL0     C22937   7.528   8.335  -1.194 -0.2944  0.8625  0.2775
  932MOL0     C22938   7.651   8.262  -1.174 -0.1838 -0.5630  0.1703
  932MOL0     O22939   7.726   7.884  -1.038  0.3206  0.2226 -0.8640
  932MOL0     C22940   7.975   7.785  -1.043  1.0324  0.6924  0.5744
  932MOL0     C22941   8.106   7.739  -1.043 -0.5970 -0.4022 -0.0489
  932MOL0     N22942   8.861   7.880  -0.896 -0.1582  0.6216  0.2651
  932MOL0     N22943   8.977   7.922  -0.857  0.4588  0.1392  0.3300
  932MOL0     C22944   9.473   8.249   0.252 -0.7803  0.8978 -0.0933
  932MOL0     C22945   9.604   8.301   0.286 -0.2833  0.2953 -0.0278
  932MOL0     C22946  10.052   8.363   0.276 -0.6715  0.2677 -0.3316
  932MOL0     C22947  10.162   8.369   0.198  0.2454  0.8150  0.6563
  932MOL0     C22948  10.293   8.371   0.253 -1.1765 -0.7823 -0.4649
  932MOL0     C22949  10.309   8.366   0.390 -1.1447 -0.5897 -0.2732
  932MOL0     O22950  10.433   8.362   0.468  0.7664  0.5827 -0.4906
  932MOL0     C22951  10.548   8.377   0.383 -0.0201  0.5965 -0.8742
  932MOL0     C22952  10.588   8.521   0.366  0.1042 -0.5871  0.2755
  932MOL0     C22953  10.736   8.542   0.414 -0.1510  1.0595 -0.2196
  932MOL0     C22954  10.773   8.687   0.393 -0.6708  0.7350 -0.3075
  932MOL0     C22955  10.913   8.697   0.351 -0.1782  0.1559  0.5427
  932MOL0     C22956  11.026   8.713   0.305  0.1243  0.3198 -0.9068
  932MOL0     C22957  10.197   8.350   0.468  0.3034  0.0119 -0.5079
  932MOL0     C22958  10.065   8.344   0.411 -0.4562 -0.1369 -0.4669
  932MOL0     H22959   9.786   8.068   0.130 -2.7723 -2.0713 -3.2652
  932MOL0     H22960   9.593   7.985   0.074  0.3280  0.2086 -0.5238
  932MOL0     H22961   9.254   8.253   0.093 -0.1859 -0.1057 -2.7745
  932MOL0     H22962   9.152   8.119   0.155  0.2584 -1.8094 -0.3393
  932MOL0     H22963   9.091   8.136  -0.057  0.7425 -0.6897  1.8136
  932MOL0     H22964   9.211   8.003  -0.064  0.5467 -0.0748  1.3205
  932MOL0     H22965   9.388   8.176  -0.123  0.1842 -0.4702 -0.4524
  932MOL0     H22966   9.261   8.291  -0.129 -0.2366 -1.4372  5.9965
  932MOL0     H22967   9.159   8.171  -0.333 -0.6147 -1.4587 -0.1708
  932MOL0     H22968   9.325   8.193  -0.355  0.0552  1.4700  2.0748
  932MOL0     H22969   9.190   7.932  -0.269 -0.6331 -0.3270 -1.6246
  932MOL0     H22970   9.369   7.954  -0.280 -0.2359  0.8688 -0.2099
  932MOL0     H22971   9.292   7.857  -0.474  0.4769  0.4857  0.7913
  932MOL0     H22972   9.327   8.016  -0.526 -1.2385 -1.0205 -1.9458
  932MOL0     H22973   9.032   7.944  -0.445  0.2923  1.8777  1.9926
  932MOL0     H22974   9.085   8.078  -0.538  0.7381  1.2619  4.8824
  932MOL0     H22975   9.114   7.778  -0.639 -0.1410 -0.6139 -0.4181
  932MOL0     H22976   9.181   7.928  -0.719 -3.2417  1.4772 -3.2463
  932MOL0     H22977   8.832   7.817  -0.582  1.2230 -3.1642  0.7210
  932MOL0     H22978   8.576   7.835  -0.739  0.5742  0.4267  0.4753
  932MOL0     H22979   8.663   7.673  -0.717  0.9442 -1.2576 -1.5134
  932MOL0     H22980   8.654   7.651  -0.974  0.6288  1.5536 -0.5708
  932MOL0     H22981   8.592   7.815  -0.978  4.2897  0.9426 -0.7991
  932MOL0     H22982   8.429   7.589  -0.840 -2.8952  2.1372  2.3324
  932MOL0     H22983   8.381   7.758  -0.859 -1.4130 -0.2928  0.1192
  932MOL0     H22984   8.309   7.563  -1.034 -0.7055  0.4794  0.4070
  932MOL0     H22985   8.454   7.595  -1.109 -1.0586 -1.7636  1.0983
  932MOL0     H22986   8.266   7.973  -1.226  0.2835 -0.0946  0.4787
  932MOL0     H22987   8.022   8.044  -1.242  2.0478  0.8875  0.5639
  932MOL0     H22988   7.512   7.954  -1.136 -1.8254  0.9922  2.8807
  932MOL0     H22989   7.299   8.103  -1.201 -1.0819  1.1547  0.1930
  932MOL0     H22990   7.208   8.378  -1.020 -1.3920  0.7993  0.4933
  932MOL0     H22991   7.154   8.237  -1.129  0.8040  0.3037 -1.9070
  932MOL0     H22992   7.021   8.403  -1.257 -0.3840  1.0617  0.9020
  932MOL0     H22993   7.097   8.534  -1.187 -2.0042  1.4487 -1.3206
  932MOL0     H22994   6.992   8.509  -0.968 -0.4296 -1.4620  1.1354
  932MOL0     H22995   6.932   8.344  -0.996 -2.8922  1.3451  1.6219
  932MOL0     H22996   6.843   8.599  -1.138 -0.2294 -0.9905 -2.1203
  932MOL0     H22997   6.777   8.436  -1.169 -0.9918 -0.7172  0.6519
  932MOL0     H22998   6.720   8.413  -0.923  0.4431  0.8493  1.4128
  932MOL0     H22999   6.628   8.529  -1.008 -0.4349  1.2255  0.3887
  932MOL0     H23000   6.867   8.584  -0.812  0.3784 -0.3145 -1.1672
  932MOL0     H23001   6.701   8.599  -0.769 -0.2887  0.6564  0.2823
  932MOL0     H23002   6.859   8.749  -0.979 -1.8614 -1.3600 -1.0618
  932MOL0     H23003   6.680   8.783  -0.954  1.2230  0.7144 -2.2876
  932MOL0     H23004   6.831   8.955  -0.815 -2.7084  1.1035  0.7571
  932MOL0     H23005   6.889   8.818  -0.727  1.5547  3.9683 -0.1216
  932MOL0     H23006   7.534   8.443  -1.204  0.9682  1.1174  2.9935
  932MOL0     H23007   7.748   8.310  -1.164 -1.4655  2.8145 -1.9225
  932MOL0     H23008   7.895   7.734  -0.989 -1.5663 -1.4104 -4.5197
  932MOL0     H23009   8.124   7.652  -0.981  3.7567  0.6071  0.4165
  932MOL0     H23010   9.391   8.299   0.302 -0.2176 -0.2840  2.1590
  932MOL0     H23011   9.592   8.396   0.336  2.3766  2.1123 -2.4954
  932MOL0     H23012  10.149   8.371   0.090 -1.5718  2.4938  0.8537
  932MOL0     H23013  10.377   8.374   0.184 -1.5638 -1.0641 -0.9509
  932MOL0     H23014  10.548   8.312   0.295  0.5205  0.9437 -1.1374
  932MOL0     H23015  10.635   8.334   0.433  1.2487  3.2708 -0.5696
  932MOL0     H23016  10.590   8.540   0.258 -0.5479  2.5878  0.7207
  932MOL0     H23017  10.511   8.590   0.403 -0.1750 -0.4744 -0.4989
  932MOL0     H23018  10.814   8.475   0.376 -1.2069 -0.0051 -0.5837
  932MOL0     H23019  10.727   8.522   0.521 -2.1226  0.6095 -0.4306
  932MOL0     H23020  10.719   8.739   0.314  0.5743  0.6441 -1.2404
  932MOL0     H23021  10.762   8.751   0.481 -2.2726  4.6355 -3.0655
  932MOL0     H23022  11.118   8.748   0.264  0.0843  2.1948  0.4509
  932MOL0     H23023  10.207   8.344   0.575 -1.6196  2.2580 -0.1046
  932MOL0     H23024   9.976   8.357   0.471 -0.6315  0.3816 -0.8347
  933MOL0     O23025  10.445   2.133   5.522  0.2408  0.0655 -0.0548
  933MOL0     C23026  10.456   2.024   5.576  0.0904  0.5367  0.9779
  933MOL0     O23027  10.359   1.929   5.577  0.2576 -0.6334 -0.1051
  933MOL0     C23028  10.230   1.984   5.573 -0.8562 -0.0155 -1.0721
  933MOL0     C23029  10.164   1.993   5.451 -0.3614  0.0105  0.1858
  933MOL0     C23030  10.034   2.041   5.450 -0.3669  0.6423  0.7079
  933MOL0     C23031   9.970   2.085   5.557 -0.0281 -0.6259  1.0388
  933MOL0     O23032   9.849   2.143   5.535  0.8096 -0.1855  0.7574
  933MOL0     C23033   9.779   2.194   5.647  1.5761 -0.0004  0.3261
  933MOL0     C23034   9.649   2.270   5.588  0.3166  0.2069  0.2843
  933MOL0     C23035   9.545   2.312   5.697 -0.3675  1.1800 -0.3117
  933MOL0     C23036   9.407   2.295   5.645  1.0467 -0.1964  1.2591
  933MOL0     C23037   9.310   2.310   5.765  0.3709 -0.1326  1.1652
  933MOL0     C23038   9.317   2.459   5.813 -0.5695 -0.4362  1.3804
  933MOL0     C23039   9.202   2.522   5.883 -0.6967  0.3137  0.1657
  933MOL0     C23040   9.223   2.484   6.035 -0.4612 -0.4592 -0.8464
  933MOL0     N23041   9.117   2.554   6.116  0.7784 -0.8879 -0.2856
  933MOL0     C23042   9.139   2.674   6.163 -0.2205  0.0330  0.8373
  933MOL0     C23043   9.035   2.698   6.243  0.3779 -0.4049  0.5101
  933MOL0     C23044   9.023   2.826   6.323 -0.2285 -0.4327 -0.3437
  933MOL0     C23045   8.892   2.840   6.402  0.2494 -0.1956 -0.5955
  933MOL0     C23046   8.882   2.977   6.473  0.0563  0.0791  0.3384
  933MOL0     C23047   8.737   3.034   6.489  0.0803  0.0692  0.2768
  933MOL0     O23048   8.669   3.045   6.366 -0.9626  0.6881  0.3416
  933MOL0     C23049   8.689   3.159   6.285  0.6910  0.4043  0.1551
  933MOL0     C23050   8.780   3.261   6.309  0.5488 -0.1316  0.9377
  933MOL0     C23051   8.786   3.371   6.222  0.4079  0.1169 -0.2881
  933MOL0     C23052   8.712   3.373   6.110  1.0629 -0.2986 -0.5357
  933MOL0     C23053   8.734   3.478   6.013 -0.2265 -0.1950  0.4659
  933MOL0     O23054   8.765   3.443   5.887 -0.9137 -0.1368  0.0117
  933MOL0     C23055   8.779   3.543   5.788  0.8801  0.2631 -0.3834
  933MOL0     C23056   8.846   3.662   5.798  0.8757  0.4065 -0.4570
  933MOL0     C23057   8.862   3.739   5.686 -0.5625  1.1989  0.9530
  933MOL0     C23058   8.819   3.706   5.559 -0.3715 -0.3744  0.0857
  933MOL0     O23059   8.832   3.798   5.462  0.3992 -0.5169  0.2021
  933MOL0     C23060   8.863   3.752   5.331 -0.6144  0.1538 -0.2244
  933MOL0     C23061   9.010   3.707   5.302  0.5129 -0.8473 -0.9169
  933MOL0     C23062   9.101   3.833   5.269  0.2590  0.5236 -0.0629
  933MOL0     C23063   9.241   3.788   5.293 -0.3444 -0.1087 -0.2360
  933MOL0     C23064   9.352   3.887   5.254  0.5719 -0.8875  0.5008
  933MOL0     C23065   9.494   3.824   5.259 -0.2166 -0.0049  0.1359
  933MOL0     C23066   9.599   3.934   5.310  0.4364 -0.2642  0.3724
  933MOL0     C23067   9.604   3.963   5.459 -0.3367  0.5634 -0.5955
  933MOL0    Cl23068   9.668   3.836   5.570  0.1952 -0.4428 -0.1928
  933MOL0     C23069   8.742   3.591   5.550 -0.7297  0.5586  0.2275
  933MOL0     C23070   8.725   3.506   5.667  0.1336 -0.9687  0.2994
  933MOL0     O23071   8.714   3.594   6.038  0.1378  0.3102 -0.1402
  933MOL0     C23072   8.621   3.270   6.087 -0.8649  0.5097 -0.8074
  933MOL0     C23073   8.615   3.158   6.174  0.0198  0.4137  0.4524
  933MOL0     N23074   8.947   2.591   6.227 -0.0124  0.2498  0.4501
  933MOL0     N23075   9.003   2.496   6.157  0.8049 -0.5625 -0.2050
  933MOL0     C23076  10.030   2.064   5.684  0.1731 -0.8819  0.2318
  933MOL0     C23077  10.160   2.019   5.684  0.1919 -0.0491 -0.2848
  933MOL0     C23078  10.586   1.970   5.615 -0.2076 -0.7935 -0.3877
  933MOL0     C23079  10.680   2.060   5.670  0.2019 -0.1467  0.2637
  933MOL0     C23080  10.801   2.015   5.720  0.4572 -0.6325  0.1515
  933MOL0     C23081  10.833   1.880   5.715  0.4820 -0.3114  0.3442
  933MOL0     O23082  10.953   1.842   5.764 -0.1342  0.7500  0.2983
  933MOL0     C23083  10.979   1.699   5.785 -0.0806  0.9984 -0.5878
  933MOL0     C23084  11.128   1.685   5.817 -0.0734  0.3116  0.8866
  933MOL0     C23085  11.155   1.692   5.972  1.3467  0.2205 -0.2030
  933MOL0     C23086  11.277   1.771   6.017 -0.3209 -0.1342 -0.8795
  933MOL0     C23087  11.294   1.906   5.964 -0.1863 -0.2489  0.1964
  933MOL0     C23088  11.302   2.019   5.920 -0.2102 -0.1721 -0.7793
  933MOL0     C23089  10.730   1.790   5.670 -0.6112 -0.1626 -0.1869
  933MOL0     C23090  10.606   1.835   5.628  0.0018  0.0251 -0.3470
  933MOL0     H23091  10.203   1.958   5.356  0.3882  0.5186  0.2971
  933MOL0     H23092   9.988   2.037   5.351  1.3183 -4.0858 -0.1463
  933MOL0     H23093   9.831   2.252   5.723  0.9269 -0.5206  1.1828
  933MOL0     H23094   9.744   2.108   5.705  2.5269  0.7898  2.1414
  933MOL0     H23095   9.597   2.206   5.516  0.1542 -0.5671  1.0768
  933MOL0     H23096   9.689   2.353   5.529 -0.1359 -0.2062 -0.6317
  933MOL0     H23097   9.569   2.414   5.728  3.1256  0.3530  0.1188
  933MOL0     H23098   9.551   2.244   5.783 -2.3110  0.9433 -0.3254
  933MOL0     H23099   9.380   2.378   5.579  0.2972  0.0535  1.8659
  933MOL0     H23100   9.402   2.197   5.595 -0.4835  2.1966 -4.0384
  933MOL0     H23101   9.346   2.253   5.851  2.1912 -0.0470  0.4942
  933MOL0     H23102   9.205   2.289   5.743 -0.0977  2.6859  0.3919
  933MOL0     H23103   9.337   2.528   5.731  0.9892 -0.4406  1.7272
  933MOL0     H23104   9.401   2.467   5.883 -0.5822 -2.1949  1.6342
  933MOL0     H23105   9.207   2.631   5.882  3.5374  0.3591  1.9145
  933MOL0     H23106   9.114   2.468   5.847  0.9735 -2.6172  0.0831
  933MOL0     H23107   9.316   2.533   6.065 -1.8890  2.7208 -1.2233
  933MOL0     H23108   9.220   2.375   6.049 -2.0799 -0.3442  0.0894
  933MOL0     H23109   9.214   2.748   6.138 -0.1488 -0.8490 -1.8491
  933MOL0     H23110   9.055   2.912   6.264  2.0170 -1.0067 -0.0397
  933MOL0     H23111   9.105   2.830   6.396 -0.7676  1.6660  0.2266
  933MOL0     H23112   8.884   2.772   6.488  2.2176 -0.5255 -0.6275
  933MOL0     H23113   8.798   2.830   6.345 -1.3540 -0.5151  1.9422
  933MOL0     H23114   8.926   2.971   6.573 -1.6478 -1.9968  1.0431
  933MOL0     H23115   8.949   3.041   6.416  2.2154  0.4508  3.1067
  933MOL0     H23116   8.755   3.132   6.534  2.5415  0.6277 -1.6732
  933MOL0     H23117   8.674   2.971   6.552  0.3139 -1.2291 -0.7517
  933MOL0     H23118   8.839   3.260   6.400  1.1572  1.8763  0.6161
  933MOL0     H23119   8.850   3.455   6.248  1.0252 -0.8983  1.7229
  933MOL0     H23120   8.885   3.704   5.890 -0.0920  0.6804 -0.1639
  933MOL0     H23121   8.926   3.825   5.701 -1.1513  1.3663  2.7750
  933MOL0     H23122   8.827   3.823   5.256 -2.1516 -0.0973  0.2464
  933MOL0     H23123   8.799   3.665   5.311 -1.5975  0.4400  1.5153
  933MOL0     H23124   9.005   3.640   5.216 -2.7026 -4.0461  1.4600
  933MOL0     H23125   9.048   3.650   5.387 -2.4082 -1.6087 -0.0236
  933MOL0     H23126   9.078   3.916   5.337  0.5598 -0.6275  1.5109
  933MOL0     H23127   9.092   3.859   5.163  0.1622  1.2737  0.1244
  933MOL0     H23128   9.254   3.759   5.397 -0.4643 -0.9525 -0.4463
  933MOL0     H23129   9.264   3.695   5.241 -1.7636  1.4018 -3.9070
  933MOL0     H23130   9.340   3.970   5.325 -1.4735  1.1845 -2.0599
  933MOL0     H23131   9.334   3.933   5.157 -0.9534 -0.3833  0.9856
  933MOL0     H23132   9.511   3.789   5.157  0.3442 -0.9241  0.5297
  933MOL0     H23133   9.502   3.746   5.336 -2.1905  0.1514  0.5474
  933MOL0     H23134   9.702   3.906   5.286  0.1283  0.8980 -2.8376
  933MOL0     H23135   9.587   4.023   5.248  0.9088  0.1793  0.8995
  933MOL0     H23136   9.500   3.981   5.489 -0.0222  1.5945 -0.0712
  933MOL0     H23137   9.662   4.055   5.468  4.1699 -1.9356 -0.9850
  933MOL0     H23138   8.692   3.568   5.456  0.8335 -0.5869 -0.3716
  933MOL0     H23139   8.663   3.417   5.657  0.0963 -1.2348  2.4283
  933MOL0     H23140   8.547   3.277   6.009 -0.7200  0.1120 -0.9871
  933MOL0     H23141   8.547   3.075   6.153 -1.0580  1.0040  1.4979
  933MOL0     H23142   9.980   2.093   5.776 -1.5610  0.5032 -1.0572
  933MOL0     H23143  10.207   2.013   5.782  1.1565  0.5987 -0.6809
  933MOL0     H23144  10.647   2.162   5.653 -2.9225 -1.2096 -0.6195
  933MOL0     H23145  10.875   2.084   5.759 -2.5263  1.4930  2.5649
  933MOL0     H23146  10.951   1.642   5.696 -0.1737 -3.5052  2.0590
  933MOL0     H23147  10.927   1.654   5.869  3.6873 -2.4050  0.2006
  933MOL0     H23148  11.157   1.583   5.787  1.5461  1.2419 -0.9123
  933MOL0     H23149  11.185   1.743   5.744  1.4300  1.2206  2.7194
  933MOL0     H23150  11.164   1.594   6.019 -0.6978 -0.3471 -0.8939
  933MOL0     H23151  11.071   1.743   6.021  1.7891 -0.5752  1.4584
  933MOL0     H23152  11.278   1.782   6.126  0.0787  2.2424 -1.0729
  933MOL0     H23153  11.366   1.712   5.995  0.9604  1.3131  0.1961
  933MOL0     H23154  11.325   2.114   5.874  1.3572  0.7738  1.7543
  933MOL0     H23155  10.742   1.683   5.678 -2.5784 -0.2979  2.4023
  933MOL0     H23156  10.550   1.751   5.586  0.0023 -1.3417  2.2019
  934MOL0     O23157   7.407  10.941  10.099  0.0002  1.3142 -0.8266
  934MOL0     C23158   7.293  10.987  10.114  0.9300 -1.0969  0.3411
  934MOL0     O23159   7.259  11.095  10.191 -0.1006 -0.1304 -0.8647
  934MOL0     C23160   7.342  11.194  10.214  0.0619 -0.8385  0.4095
  934MOL0     C23161   7.297  11.291  10.307 -0.0978 -0.3245  0.3906
  934MOL0     C23162   7.395  11.398  10.343  0.6430 -0.4039 -0.1500
  934MOL0     C23163   7.511  11.408  10.274 -0.8586  0.5168  0.3666
  934MOL0     O23164   7.594  11.518  10.297 -0.4454 -0.1392  0.5772
  934MOL0     C23165   7.742  11.501  10.305  0.3262  0.5516 -0.9631
  934MOL0     C23166   7.795  11.621  10.392  0.1710  0.2904  0.3674
  934MOL0     C23167   7.944  11.636  10.365 -0.8429  0.4690 -0.0429
  934MOL0     C23168   8.008  11.744  10.448  0.0753 -0.1879  0.0643
  934MOL0     C23169   8.151  11.772  10.383  0.2225 -1.0135 -0.7162
  934MOL0     C23170   8.224  11.883  10.465 -0.3742 -0.1192  0.9522
  934MOL0     C23171   8.359  11.905  10.394  0.1023 -0.0577  0.3579
  934MOL0     C23172   8.357  11.979  10.262 -1.2446 -0.5957  0.2693
  934MOL0     N23173   8.491  11.988  10.185  0.0273  0.2240  0.2646
  934MOL0     C23174   8.592  11.897  10.173 -0.4622  0.1578 -0.4823
  934MOL0     C23175   8.700  11.965  10.126 -0.4048  0.0321  0.3039
  934MOL0     C23176   8.825  11.895  10.088 -0.7013  0.5145 -0.1158
  934MOL0     C23177   8.874  11.893   9.940  0.3086 -0.7766  0.1510
  934MOL0     C23178   8.965  12.020   9.913  0.2866  0.3121  0.5807
  934MOL0     C23179   9.023  12.016   9.767 -0.3900  0.4752 -0.2517
  934MOL0     O23180   9.125  12.115   9.765 -0.0820  0.1412  0.0016
  934MOL0     C23181   9.244  12.088   9.705  0.5102  0.7182  0.0009
  934MOL0     C23182   9.252  11.994   9.599 -0.3620 -0.7092 -0.6143
  934MOL0     C23183   9.373  11.954   9.543  0.2447 -0.0859  0.5501
  934MOL0     C23184   9.495  12.005   9.590 -0.2030  0.3402 -0.2047
  934MOL0     C23185   9.628  11.941   9.567  1.0518 -0.4858 -0.8755
  934MOL0     O23186   9.735  12.013   9.612 -0.2386  0.4613  0.4046
  934MOL0     C23187   9.862  11.961   9.586  0.7768 -0.2877 -0.3981
  934MOL0     C23188   9.923  11.867   9.672 -0.9147  1.1276 -0.0788
  934MOL0     C23189  10.065  11.841   9.659  1.2981 -0.0001 -0.1497
  934MOL0     C23190  10.129  11.897   9.545 -0.3504  0.4363 -0.2008
  934MOL0     O23191  10.264  11.857   9.524 -0.3529 -0.7357  0.0151
  934MOL0     C23192  10.335  11.892   9.405 -1.3288 -0.1648  0.6805
  934MOL0     C23193  10.469  11.825   9.397 -0.9169  0.1020 -0.2320
  934MOL0     C23194  10.522  11.785   9.538 -0.3868  0.6382 -0.8330
  934MOL0     C23195  10.674  11.734   9.516 -0.1521 -0.0734 -0.1297
  934MOL0     C23196  10.723  11.641   9.633  0.4945  0.6289  0.0558
  934MOL0     C23197  10.847  11.560   9.589 -0.4554  0.2347 -0.4916
  934MOL0     C23198  10.863  11.434   9.672  0.3765  0.2883 -0.3943
  934MOL0     C23199  10.961  11.337   9.592  0.2867  0.4432 -0.5532
  934MOL0    Cl23200  10.900  11.264   9.445  0.2056  0.3941  0.0532
  934MOL0     C23201  10.063  11.985   9.455 -0.1323  0.3841  0.2082
  934MOL0     C23202   9.930  12.021   9.478  0.1737  1.5390  0.2120
  934MOL0     O23203   9.631  11.840   9.497  0.0752 -0.0675  0.4852
  934MOL0     C23204   9.480  12.108   9.687  0.3926 -0.8396 -0.1639
  934MOL0     C23205   9.357  12.150   9.745 -0.0396  0.6213  0.1964
  934MOL0     N23206   8.656  12.089  10.085 -0.1408  0.1810  0.3816
  934MOL0     N23207   8.533  12.102  10.114  0.3386  0.0070 -0.7331
  934MOL0     C23208   7.548  11.316  10.181 -0.0737 -0.2104  0.1071
  934MOL0     C23209   7.469  11.208  10.147  0.0644 -0.5750 -0.6010
  934MOL0     C23210   7.193  10.924  10.032 -0.2910  0.2310  0.0141
  934MOL0     C23211   7.227  10.824   9.937  0.4159  0.2000 -0.1895
  934MOL0     C23212   7.123  10.769   9.851 -0.4028 -0.4583  0.6814
  934MOL0     C23213   6.989  10.815   9.858  0.3402  0.5946  0.8232
  934MOL0     O23214   6.902  10.748   9.770 -0.2097  0.7248  0.3549
  934MOL0     C23215   6.786  10.822   9.744  0.3348  0.4788 -0.2059
  934MOL0     C23216   6.699  10.730   9.665 -0.4246 -0.4102 -0.0384
  934MOL0     C23217   6.578  10.807   9.604  0.0331  0.2277 -0.4072
  934MOL0     C23218   6.536  10.758   9.460 -0.0793 -0.8085 -0.3192
  934MOL0     C23219   6.511  10.616   9.456  0.6091  0.2104  0.0461
  934MOL0     C23220   6.489  10.491   9.444  0.6606  0.2936 -0.4050
  934MOL0     C23221   6.956  10.894   9.968  0.0614 -0.9103 -0.8254
  934MOL0     C23222   7.058  10.954  10.059 -0.2454 -0.0293  1.2225
  934MOL0     H23223   7.201  11.299  10.358 -0.7561 -2.7741 -0.3323
  934MOL0     H23224   7.372  11.472  10.418  0.1540 -1.4326  0.7404
  934MOL0     H23225   7.789  11.499  10.206  1.0557 -1.4367 -0.6070
  934MOL0     H23226   7.773  11.410  10.356 -4.1373 -1.9925 -2.2343
  934MOL0     H23227   7.768  11.583  10.491 -0.7060 -2.3968 -0.7968
  934MOL0     H23228   7.750  11.714  10.357  0.4029 -0.1228 -1.1007
  934MOL0     H23229   7.956  11.654  10.258 -1.1900  0.0923 -0.1451
  934MOL0     H23230   8.002  11.545  10.382  1.8935  2.0244 -0.4009
  934MOL0     H23231   7.942  11.831  10.456  1.9162  1.5023 -1.8292
  934MOL0     H23232   8.028  11.715  10.551  0.0134  0.7508  0.3451
  934MOL0     H23233   8.145  11.801  10.278  0.2819 -2.7429 -1.2237
  934MOL0     H23234   8.216  11.685  10.382  0.4706 -0.8350 -0.4853
  934MOL0     H23235   8.254  11.859  10.567  3.1361  0.5142  0.2102
  934MOL0     H23236   8.168  11.976  10.480  0.4193  0.4260  0.6496
  934MOL0     H23237   8.438  11.953  10.453 -0.2450  0.3734  0.4752
  934MOL0     H23238   8.394  11.808  10.357 -0.1702 -0.6106  1.5001
  934MOL0     H23239   8.325  12.082  10.282 -1.1673 -0.9355  2.3323
  934MOL0     H23240   8.280  11.947  10.191 -2.0595  1.0386  0.3666
  934MOL0     H23241   8.593  11.795  10.210 -1.6457 -0.7637 -2.7496
  934MOL0     H23242   8.802  11.789  10.106 -1.0874  0.5075 -0.6115
  934MOL0     H23243   8.904  11.925  10.157 -1.2975 -1.8448  1.7510
  934MOL0     H23244   8.792  11.889   9.868  3.0772  1.8946 -3.5187
  934MOL0     H23245   8.942  11.809   9.919  3.2198  1.7405 -1.2786
  934MOL0     H23246   8.900  12.108   9.922  0.4932  0.4388  0.8290
  934MOL0     H23247   9.043  12.030   9.989  0.1075  2.2363  0.5676
  934MOL0     H23248   8.956  12.041   9.685  0.8309  0.0611 -1.4004
  934MOL0     H23249   9.050  11.912   9.745 -1.5847 -0.0447  0.6077
  934MOL0     H23250   9.161  11.940   9.574 -0.8470  0.7571 -2.1836
  934MOL0     H23251   9.358  11.892   9.455  0.8654 -0.2155  0.5291
  934MOL0     H23252   9.867  11.833   9.759  2.3690 -2.2209  1.0176
  934MOL0     H23253  10.135  11.790   9.726  0.8883  0.0265  0.3024
  934MOL0     H23254  10.358  11.998   9.398  0.1676 -0.5264 -0.4748
  934MOL0     H23255  10.277  11.864   9.316 -0.3843  1.5219 -0.5282
  934MOL0     H23256  10.540  11.891   9.347 -2.2035  1.7677  0.0615
  934MOL0     H23257  10.452  11.733   9.339  2.0542  0.5214 -1.9421
  934MOL0     H23258  10.470  11.696   9.575  0.9811 -0.6200 -1.8164
  934MOL0     H23259  10.503  11.861   9.614 -3.1216 -3.1400  2.6901
  934MOL0     H23260  10.685  11.687   9.418  0.6759 -1.9788  0.8243
  934MOL0     H23261  10.736  11.825   9.509  2.6141 -1.9557 -2.7251
  934MOL0     H23262  10.642  11.571   9.654  0.8769  0.3290  0.5497
  934MOL0     H23263  10.749  11.698   9.722  0.3656  0.2630  0.3310
  934MOL0     H23264  10.926  11.634   9.600 -1.8335  1.4890  1.9269
  934MOL0     H23265  10.847  11.539   9.482  3.6756  3.0245 -1.2661
  934MOL0     H23266  10.901  11.464   9.770 -0.5601  2.7135 -0.6994
  934MOL0     H23267  10.767  11.385   9.689  0.1941  1.2453  1.6608
  934MOL0     H23268  10.993  11.257   9.660  1.1655  1.3014  0.0706
  934MOL0     H23269  11.044  11.398   9.555 -1.1011  1.1156 -2.7297
  934MOL0     H23270  10.119  12.022   9.370  1.7925 -0.2678  1.1203
  934MOL0     H23271   9.876  12.089   9.412 -0.4799  3.6101  2.7147
  934MOL0     H23272   9.568  12.142   9.740 -0.1344  2.1703 -1.0272
  934MOL0     H23273   9.356  12.219   9.828  2.1407  0.6980  0.2073
  934MOL0     H23274   7.643  11.333  10.131 -0.3598  2.9281  0.4160
  934MOL0     H23275   7.504  11.149  10.063 -1.4463 -1.8986 -0.3428
  934MOL0     H23276   7.334  10.814   9.918  0.4646  2.4468 -1.3417
  934MOL0     H23277   7.145  10.696   9.773 -1.1900 -1.1270  1.0748
  934MOL0     H23278   6.809  10.907   9.679  0.0901 -1.0705 -2.4384
  934MOL0     H23279   6.734  10.856   9.834  2.5077  0.0186  1.2950
  934MOL0     H23280   6.751  10.688   9.579 -0.3193  1.0786 -0.7330
  934MOL0     H23281   6.667  10.645   9.726  0.3621 -0.9290 -0.3256
  934MOL0     H23282   6.594  10.915   9.599 -3.8459  1.0385  1.0731
  934MOL0     H23283   6.494  10.804   9.675 -0.2238  0.6166 -0.6867
  934MOL0     H23284   6.442  10.810   9.437  0.6220  0.3093 -0.7852
  934MOL0     H23285   6.605  10.776   9.377 -1.5936  4.3640 -0.8164
  934MOL0     H23286   6.492  10.384   9.443  1.6752  0.2782  0.9654
  934MOL0     H23287   6.858  10.915  10.010 -0.2121 -1.1551 -1.3164
  934MOL0     H23288   7.042  11.017  10.146  0.4036  1.7477  0.1204
  935MOL0     O23289  11.113   4.586   2.568  0.1165  0.4027 -0.3811
  935MOL0     C23290  11.116   4.485   2.493  0.4487 -0.1396 -0.2996
  935MOL0     O23291  11.028   4.457   2.384  0.0290 -0.0003  0.0399
  935MOL0     C23292  10.927   4.538   2.342  0.2901 -0.6833 -0.2436
  935MOL0     C23293  10.903   4.683   2.355  0.2829 -0.1989  0.8802
  935MOL0     C23294  10.791   4.734   2.285  0.0056  0.0460  0.2617
  935MOL0     C23295  10.712   4.664   2.199 -0.4322  0.1443  0.0897
  935MOL0     O23296  10.614   4.719   2.119 -0.1782  0.5893  0.4037
  935MOL0     C23297  10.585   4.865   2.134  0.5065  0.7930 -0.3351
  935MOL0     C23298  10.469   4.905   2.042 -1.0600  0.0958  0.1173
  935MOL0     C23299  10.329   4.856   2.096  0.0842 -0.9132  0.0778
  935MOL0     C23300  10.217   4.894   1.998 -0.2501 -0.3966  0.2398
  935MOL0     C23301  10.103   4.804   2.023  0.3267  0.6227 -0.2064
  935MOL0     C23302  10.000   4.825   1.911  0.0620 -0.5434 -0.0267
  935MOL0     C23303   9.873   4.745   1.935 -0.8053  0.7768  0.1907
  935MOL0     C23304   9.781   4.750   1.818  0.5870 -0.3186 -0.1800
  935MOL0     N23305   9.648   4.693   1.843 -0.2446  0.3060 -0.1618
  935MOL0     C23306   9.534   4.747   1.892 -0.2391 -0.2078  0.5707
  935MOL0     C23307   9.452   4.644   1.923 -0.0702 -0.1634  0.3144
  935MOL0     C23308   9.312   4.649   1.983  0.2424  0.6040  0.2081
  935MOL0     C23309   9.202   4.574   1.913 -0.6738  0.0546  0.6268
  935MOL0     C23310   9.206   4.423   1.941  0.3398 -0.0759  0.7260
  935MOL0     C23311   9.070   4.365   1.899  1.0768 -0.1118  0.6053
  935MOL0     O23312   9.062   4.342   1.759 -0.3467  0.6351 -0.0830
  935MOL0     C23313   8.962   4.416   1.695 -0.0879 -0.4163 -0.2336
  935MOL0     C23314   8.829   4.384   1.709  0.1536 -0.6572 -0.0753
  935MOL0     C23315   8.731   4.471   1.675  0.2252 -0.4931 -1.0639
  935MOL0     C23316   8.764   4.593   1.608 -0.4997  0.5688 -0.3358
  935MOL0     C23317   8.658   4.679   1.561  0.1045  0.3031 -0.0763
  935MOL0     O23318   8.555   4.615   1.505 -0.4378 -0.0304  0.2343
  935MOL0     C23319   8.487   4.685   1.410 -0.4008 -0.6778 -0.0824
  935MOL0     C23320   8.399   4.787   1.443 -0.8263  0.6031  0.0315
  935MOL0     C23321   8.330   4.856   1.344  0.1017 -0.4264  0.0403
  935MOL0     C23322   8.370   4.846   1.216 -0.5945 -0.7242  1.2708
  935MOL0     O23323   8.312   4.915   1.118  0.3666 -0.0192 -0.0168
  935MOL0     C23324   8.171   4.934   1.112 -0.0213  0.7185 -0.1062
  935MOL0     C23325   8.144   5.001   0.983  1.1492 -0.9322 -0.5281
  935MOL0     C23326   8.182   4.918   0.853  0.7296 -0.6032  0.3246
  935MOL0     C23327   8.139   5.000   0.733 -1.0953  0.1152  0.0172
  935MOL0     C23328   8.133   4.917   0.610 -0.0382 -0.4361  1.8842
  935MOL0     C23329   8.067   4.991   0.493 -0.5095 -0.0385 -0.9951
  935MOL0     C23330   8.061   4.917   0.361 -0.4320 -0.1246 -0.4410
  935MOL0     C23331   7.930   4.931   0.279  0.6806  0.0349  0.4155
  935MOL0    Cl23332   7.794   4.842   0.365  0.0852  0.1689 -0.0866
  935MOL0     C23333   8.477   4.764   1.180 -0.4019 -0.3511 -0.1237
  935MOL0     C23334   8.531   4.679   1.277  0.1681  0.5831  0.1346
  935MOL0     O23335   8.670   4.794   1.579 -0.1874 -0.5410  0.3174
  935MOL0     C23336   8.904   4.630   1.600 -0.0706 -0.1204  0.0714
  935MOL0     C23337   8.998   4.536   1.649 -0.2851  0.4945  0.4087
  935MOL0     N23338   9.513   4.523   1.885 -0.2515 -0.6942 -0.1137
  935MOL0     N23339   9.626   4.559   1.834 -0.6433  1.0094 -0.4558
  935MOL0     C23340  10.742   4.531   2.185  0.4711 -0.2520 -0.1950
  935MOL0     C23341  10.838   4.463   2.265  0.4836 -0.0436  0.5444
  935MOL0     C23342  11.214   4.383   2.531  0.7435  0.5491 -0.4300
  935MOL0     C23343  11.189   4.244   2.499  1.0859 -0.7924 -0.5510
  935MOL0     C23344  11.274   4.144   2.544  0.0309 -0.2310 -0.6969
  935MOL0     C23345  11.398   4.180   2.612 -0.0102 -0.8962 -0.2786
  935MOL0     O23346  11.490   4.088   2.672 -0.0192  0.3047 -0.1678
  935MOL0     C23347  11.485   3.949   2.641  0.2023  0.0239  0.6033
  935MOL0     C23348  11.588   3.906   2.549  0.4331 -0.4004 -1.0157
  935MOL0     C23349  11.607   3.755   2.541  0.8549 -0.6364 -0.7987
  935MOL0     C23350  11.696   3.707   2.437 -0.3445 -0.8708 -0.5412
  935MOL0     C23351  11.694   3.558   2.432 -0.4234  0.3606 -0.0096
  935MOL0     C23352  11.686   3.439   2.436  0.2425  0.7095 -0.0080
  935MOL0     C23353  11.421   4.307   2.634  0.3754 -0.2323 -0.5123
  935MOL0     C23354  11.339   4.408   2.591 -0.7517 -0.5277  0.7723
  935MOL0     H23355  10.968   4.762   2.392 -2.0790  2.6171 -0.6353
  935MOL0     H23356  10.787   4.842   2.295 -0.6554 -0.0692  1.4217
  935MOL0     H23357  10.669   4.924   2.099 -0.7776  2.8605 -0.0747
  935MOL0     H23358  10.567   4.887   2.239  1.7417  1.8057 -0.3172
  935MOL0     H23359  10.488   4.861   1.944  0.2003  2.6385 -0.8699
  935MOL0     H23360  10.471   5.014   2.031 -0.4468  0.2612  1.6453
  935MOL0     H23361  10.313   4.901   2.194 -2.7612  0.9833 -1.1061
  935MOL0     H23362  10.329   4.747   2.108 -0.2357 -1.1407 -1.7050
  935MOL0     H23363  10.176   4.992   2.021  1.5724  0.5447 -0.3338
  935MOL0     H23364  10.245   4.906   1.893 -2.0433 -0.7664 -0.3236
  935MOL0     H23365  10.066   4.825   2.123  1.9049  0.2847  0.4814
  935MOL0     H23366  10.126   4.696   2.026  0.6482  0.6936 -0.0094
  935MOL0     H23367  10.052   4.796   1.819 -1.2719  1.5418 -1.5178
  935MOL0     H23368   9.973   4.931   1.913  0.7775 -0.3626  0.5540
  935MOL0     H23369   9.883   4.636   1.932 -4.1266  0.3784 -0.1931
  935MOL0     H23370   9.837   4.759   2.037 -1.3930 -1.8663  0.4139
  935MOL0     H23371   9.815   4.706   1.724 -0.4668 -1.8966  0.1402
  935MOL0     H23372   9.757   4.855   1.796 -2.6978 -0.8115  0.5842
  935MOL0     H23373   9.506   4.851   1.909 -1.2311 -0.4168  0.2934
  935MOL0     H23374   9.279   4.752   1.995  1.9289  1.2052  0.0215
  935MOL0     H23375   9.307   4.603   2.083  3.6070  0.2453  0.3312
  935MOL0     H23376   9.211   4.590   1.805  0.3541 -0.0014  0.7005
  935MOL0     H23377   9.102   4.612   1.939 -0.7530 -0.4839  1.1165
  935MOL0     H23378   9.277   4.370   1.876 -1.3674 -2.0215  0.3146
  935MOL0     H23379   9.210   4.379   2.041  0.8238 -0.2173  0.6443
  935MOL0     H23380   8.989   4.424   1.942  1.8399  1.1092  0.4164
  935MOL0     H23381   9.049   4.264   1.937 -1.3955 -0.0969 -0.5179
  935MOL0     H23382   8.804   4.291   1.759  0.2890 -0.0531  1.1316
  935MOL0     H23383   8.629   4.441   1.696  1.7513 -4.7964  1.4945
  935MOL0     H23384   8.369   4.809   1.545 -0.2238  1.3622  0.0509
  935MOL0     H23385   8.249   4.920   1.376 -0.2147  0.2223 -1.9314
  935MOL0     H23386   8.143   4.987   1.203 -4.0083  5.1844 -3.4212
  935MOL0     H23387   8.124   4.835   1.115 -1.8524  1.5486  3.0264
  935MOL0     H23388   8.200   5.094   0.983 -2.1151  1.3246  2.8906
  935MOL0     H23389   8.039   5.034   0.982  0.3723 -2.9269 -4.1520
  935MOL0     H23390   8.124   4.825   0.849 -2.3867  1.2283 -1.5489
  935MOL0     H23391   8.288   4.892   0.846  1.0137  0.2053  1.4065
  935MOL0     H23392   8.045   5.047   0.760 -1.9787 -1.2277 -0.6198
  935MOL0     H23393   8.215   5.078   0.718  0.5258 -1.4621 -0.2458
  935MOL0     H23394   8.086   4.818   0.612 -0.9850 -0.1130 -0.4628
  935MOL0     H23395   8.236   4.894   0.581  0.1139  0.2706  1.8413
  935MOL0     H23396   8.132   5.080   0.489 -1.1315  0.4907  0.2497
  935MOL0     H23397   7.968   5.020   0.528 -0.9965  0.5321 -2.7457
  935MOL0     H23398   8.147   4.960   0.308 -0.5702  1.5442  0.5933
  935MOL0     H23399   8.074   4.809   0.366  0.2246 -0.0304  0.0198
  935MOL0     H23400   7.932   4.884   0.180 -0.6052 -3.0631  1.7241
  935MOL0     H23401   7.920   5.038   0.261  1.7132  0.0145 -0.3543
  935MOL0     H23402   8.512   4.769   1.078  1.0647  0.5214  0.3958
  935MOL0     H23403   8.607   4.611   1.240 -2.1483 -3.0150  1.4348
  935MOL0     H23404   8.911   4.726   1.550 -0.1547  0.1082  0.4969
  935MOL0     H23405   9.103   4.558   1.630 -0.7042  0.5535 -2.2570
  935MOL0     H23406  10.689   4.479   2.106  1.5739  1.2149 -1.9748
  935MOL0     H23407  10.847   4.355   2.251 -1.7867 -0.0168 -2.2845
  935MOL0     H23408  11.094   4.215   2.455  0.8616 -0.6323 -0.1738
  935MOL0     H23409  11.243   4.041   2.534  0.2219 -0.3048 -0.5540
  935MOL0     H23410  11.394   3.924   2.584  1.8343 -0.1829 -2.0894
  935MOL0     H23411  11.486   3.901   2.739 -0.9019  3.8724  2.6812
  935MOL0     H23412  11.559   3.943   2.451  3.2194  0.2189 -1.7081
  935MOL0     H23413  11.686   3.945   2.578  0.4434 -0.9605 -0.2439
  935MOL0     H23414  11.514   3.698   2.531  2.1975 -2.6725 -2.7216
  935MOL0     H23415  11.653   3.714   2.632 -0.5770  0.0667  0.2752
  935MOL0     H23416  11.673   3.745   2.337  4.2348  1.4954 -0.9502
  935MOL0     H23417  11.797   3.744   2.458 -0.8595 -0.3484  1.0918
  935MOL0     H23418  11.689   3.332   2.435  4.7362  0.6203  0.3201
  935MOL0     H23419  11.523   4.325   2.668  1.2040 -3.7747 -0.7219
  935MOL0     H23420  11.380   4.509   2.585  1.9032 -1.5896 -0.3937
  936MOL0     O23421   8.470   2.064   9.191 -0.5407  1.0548 -0.2668
  936MOL0     C23422   8.354   2.033   9.175 -0.4389 -0.1079  0.1432
  936MOL0     O23423   8.280   2.078   9.066  0.1651 -1.2841  0.3877
  936MOL0     C23424   8.321   2.201   9.005 -0.2590 -0.1993  0.3743
  936MOL0     C23425   8.344   2.314   9.075  0.6093 -1.0057  0.8206
  936MOL0     C23426   8.383   2.421   8.998 -0.0038 -1.2860 -0.6941
  936MOL0     C23427   8.384   2.427   8.857 -0.7605 -0.0549  0.6736
  936MOL0     O23428   8.387   2.545   8.787  0.2222  0.1450  1.0900
  936MOL0     C23429   8.345   2.676   8.838  0.7919  0.6222  0.1906
  936MOL0     C23430   8.420   2.787   8.769  0.4416  0.5509 -0.8464
  936MOL0     C23431   8.544   2.842   8.842 -0.2581 -0.2330 -1.0522
  936MOL0     C23432   8.656   2.747   8.874  0.4781  0.0199 -0.2051
  936MOL0     C23433   8.763   2.811   8.956  0.1562  0.2721  0.9118
  936MOL0     C23434   8.848   2.693   9.009 -0.3012 -0.1885  0.1497
  936MOL0     C23435   8.964   2.735   9.100 -0.2964 -0.2844 -0.2999
  936MOL0     C23436   8.920   2.806   9.229 -0.1655 -0.5532  0.0006
  936MOL0     N23437   8.821   2.728   9.308  0.6613 -0.1149  0.0170
  936MOL0     C23438   8.831   2.591   9.326 -0.2719  0.3278  0.6851
  936MOL0     C23439   8.720   2.549   9.377 -0.6556 -0.1796  0.2844
  936MOL0     C23440   8.701   2.407   9.434 -0.3521  0.8207  1.0361
  936MOL0     C23441   8.550   2.382   9.450 -0.8395  0.4955 -0.6892
  936MOL0     C23442   8.526   2.223   9.481 -0.8943 -0.1810  0.2028
  936MOL0     C23443   8.552   2.193   9.627 -0.7677  0.4676  0.2828
  936MOL0     O23444   8.514   2.052   9.657 -0.9536 -0.2900 -0.3476
  936MOL0     C23445   8.618   1.952   9.661 -0.0842  0.1215 -0.3492
  936MOL0     C23446   8.745   1.954   9.607  0.0799 -0.5278  1.0131
  936MOL0     C23447   8.831   1.842   9.623  0.3278 -1.4437 -1.5428
  936MOL0     C23448   8.793   1.729   9.691 -0.0599 -0.1540  0.3584
  936MOL0     C23449   8.883   1.609   9.702  0.1702  0.4052 -0.3677
  936MOL0     O23450   8.976   1.580   9.604 -0.2180  0.0504  0.2103
  936MOL0     C23451   9.090   1.505   9.622 -0.0768 -0.0597 -0.3860
  936MOL0     C23452   9.130   1.462   9.750  0.1821  0.5476  0.7603
  936MOL0     C23453   9.263   1.402   9.764 -0.4854  0.5691 -0.8098
  936MOL0     C23454   9.347   1.390   9.644  0.2638 -0.2889 -0.1085
  936MOL0     O23455   9.478   1.348   9.660  0.1967  0.0832  0.2958
  936MOL0     C23456   9.488   1.229   9.581  0.8423 -0.6760  0.1829
  936MOL0     C23457   9.611   1.155   9.611 -0.5480  0.1394 -1.1568
  936MOL0     C23458   9.616   1.107   9.758  0.1810 -0.1220  0.5084
  936MOL0     C23459   9.752   1.035   9.770  0.8864 -0.0510 -0.5860
  936MOL0     C23460   9.755   0.958   9.909  0.0115  0.4055  0.1962
  936MOL0     C23461   9.895   0.915   9.958 -0.5311 -0.3194  0.4157
  936MOL0     C23462   9.949   0.807   9.873  0.7149  0.4427 -0.6194
  936MOL0     C23463  10.092   0.773   9.919 -0.4989  0.6557  0.4362
  936MOL0    Cl23464  10.202   0.917   9.960 -0.1269 -0.1849 -0.4394
  936MOL0     C23465   9.300   1.429   9.521 -1.0223  0.8368 -0.1137
  936MOL0     C23466   9.177   1.490   9.516  0.5083 -0.1480 -0.1140
  936MOL0     O23467   8.854   1.534   9.795 -0.7827 -0.0956  0.7640
  936MOL0     C23468   8.665   1.719   9.741  0.3236  0.0486  0.7394
  936MOL0     C23469   8.578   1.830   9.723 -0.0054 -1.6449 -0.1871
  936MOL0     N23470   8.635   2.651   9.384 -0.1598 -0.0097 -1.4726
  936MOL0     N23471   8.693   2.754   9.340  0.4980  0.0338 -0.3085
  936MOL0     C23472   8.366   2.306   8.789 -0.3217  0.0665 -0.3145
  936MOL0     C23473   8.334   2.191   8.868  0.6152 -0.3391  0.3967
  936MOL0     C23474   8.289   1.928   9.252 -0.8563  0.7247 -0.5256
  936MOL0     C23475   8.180   1.850   9.209 -0.7586  0.4729  0.2297
  936MOL0     C23476   8.139   1.744   9.289  0.3910  0.3769 -0.2963
  936MOL0     C23477   8.188   1.719   9.415  0.4504  1.3137 -0.0150
  936MOL0     O23478   8.146   1.604   9.482 -0.3269 -0.2882  0.4769
  936MOL0     C23479   8.136   1.604   9.624 -0.1525  0.7353  1.0794
  936MOL0     C23480   8.018   1.509   9.666 -0.4165  0.5845 -0.3123
  936MOL0     C23481   8.032   1.526   9.819 -0.0304 -1.2812 -0.1936
  936MOL0     C23482   7.925   1.446   9.898 -0.6674 -0.1779  0.2443
  936MOL0     C23483   7.975   1.437  10.037 -0.1016  0.4842 -1.3500
  936MOL0     C23484   7.999   1.442  10.160 -0.4027 -0.1511 -0.6527
  936MOL0     C23485   8.284   1.805   9.472 -0.0384 -0.5349 -0.0456
  936MOL0     C23486   8.334   1.902   9.385  0.2567 -0.6019  1.1476
  936MOL0     H23487   8.340   2.312   9.184 -0.8630  1.7129  0.9158
  936MOL0     H23488   8.411   2.508   9.056 -0.8044  0.4178 -2.7232
  936MOL0     H23489   8.350   2.695   8.946 -0.7026  0.9037  0.2248
  936MOL0     H23490   8.237   2.694   8.836  0.9734  1.7641  0.2514
  936MOL0     H23491   8.344   2.866   8.763  1.6747  2.5347  4.2350
  936MOL0     H23492   8.459   2.746   8.676  1.7416  0.8298 -0.4450
  936MOL0     H23493   8.513   2.882   8.939  1.6001  2.8656 -1.5718
  936MOL0     H23494   8.594   2.922   8.786  1.7251 -1.9031 -1.7848
  936MOL0     H23495   8.614   2.658   8.923 -0.0310  0.8895  0.9734
  936MOL0     H23496   8.704   2.707   8.784  3.5366  2.4545  0.1896
  936MOL0     H23497   8.709   2.870   9.031 -2.5623  0.9700 -1.4499
  936MOL0     H23498   8.830   2.873   8.896 -0.5071 -0.0957 -0.2358
  936MOL0     H23499   8.896   2.645   8.923  1.5366  2.1776 -0.2299
  936MOL0     H23500   8.793   2.615   9.063  2.2847 -2.0691  0.2376
  936MOL0     H23501   9.018   2.643   9.124  1.5992  0.3338 -1.9158
  936MOL0     H23502   9.035   2.801   9.049  1.8387 -2.3253 -0.1425
  936MOL0     H23503   8.876   2.902   9.202  1.0747  0.3140  0.9357
  936MOL0     H23504   9.012   2.817   9.287  0.6342 -1.0559 -1.1380
  936MOL0     H23505   8.915   2.524   9.315 -0.2849  0.5873 -1.4075
  936MOL0     H23506   8.754   2.397   9.529  2.2003  1.2162 -0.2626
  936MOL0     H23507   8.747   2.355   9.349  0.7656  3.8397 -0.3631
  936MOL0     H23508   8.495   2.432   9.370 -1.0799 -1.6563 -1.9257
  936MOL0     H23509   8.519   2.438   9.539  1.9168  1.3326 -0.1386
  936MOL0     H23510   8.422   2.208   9.453 -0.5488  0.4712 -1.5304
  936MOL0     H23511   8.588   2.159   9.417 -1.8348 -0.6075 -0.2881
  936MOL0     H23512   8.481   2.245   9.692 -0.6370  1.4705 -0.3615
  936MOL0     H23513   8.656   2.212   9.653 -0.7798  0.1073  0.6124
  936MOL0     H23514   8.770   2.038   9.543 -3.2798 -0.7983 -0.9008
  936MOL0     H23515   8.932   1.847   9.584  1.5009  0.7105  1.4260
  936MOL0     H23516   9.068   1.477   9.837 -1.8718 -2.5636  0.0077
  936MOL0     H23517   9.293   1.367   9.862  3.0578  2.9809 -0.8370
  936MOL0     H23518   9.502   1.245   9.474  1.8412 -2.5134 -0.0163
  936MOL0     H23519   9.395   1.172   9.584 -0.0794  0.8172  2.5548
  936MOL0     H23520   9.695   1.220   9.584 -1.7079  1.8180 -0.8969
  936MOL0     H23521   9.616   1.064   9.550  0.2566 -0.7211  0.1420
  936MOL0     H23522   9.535   1.037   9.781 -0.4801 -0.2470 -1.9095
  936MOL0     H23523   9.615   1.191   9.829  3.7619 -0.6642  1.3839
  936MOL0     H23524   9.779   0.973   9.685  0.8145  1.8200 -2.0367
  936MOL0     H23525   9.829   1.112   9.760  1.4647 -0.4559  0.4696
  936MOL0     H23526   9.697   0.866   9.905 -0.3536  0.4936  2.3326
  936MOL0     H23527   9.710   1.018   9.989  0.9896  1.4875 -0.0277
  936MOL0     H23528   9.880   0.891  10.063 -4.2820  0.2288  0.1272
  936MOL0     H23529   9.961   1.003   9.949 -3.2267  1.6070 -2.6647
  936MOL0     H23530   9.884   0.719   9.879  1.6699 -0.2917 -0.9249
  936MOL0     H23531   9.959   0.842   9.770  0.3547 -0.8403 -1.1111
  936MOL0     H23532  10.134   0.700   9.850 -1.5897  0.3524  0.0733
  936MOL0     H23533  10.074   0.711  10.007 -1.4664  2.0015  1.2155
  936MOL0     H23534   9.361   1.419   9.431  0.5409 -1.6310  1.1219
  936MOL0     H23535   9.155   1.532   9.418  1.1839 -0.5784 -0.4570
  936MOL0     H23536   8.640   1.636   9.807 -1.4097  0.6170  0.8391
  936MOL0     H23537   8.477   1.825   9.762  0.0966  1.6878  0.7982
  936MOL0     H23538   8.371   2.310   8.681 -1.0712  1.7138 -0.3291
  936MOL0     H23539   8.309   2.093   8.828 -0.6847  1.2497 -3.1196
  936MOL0     H23540   8.144   1.862   9.107 -3.4006  2.0186  1.2425
  936MOL0     H23541   8.071   1.669   9.250  0.1731  1.6021 -2.4241
  936MOL0     H23542   8.111   1.708   9.643 -0.7560  1.5699 -3.2540
  936MOL0     H23543   8.232   1.585   9.672 -0.9666 -1.7943  1.9032
  936MOL0     H23544   7.923   1.551   9.633  0.1935  3.8088  1.6402
  936MOL0     H23545   8.038   1.406   9.635  1.0805  1.8035 -4.0251
  936MOL0     H23546   8.022   1.632   9.844  1.3875 -1.4010  1.0379
  936MOL0     H23547   8.132   1.487   9.843  0.0535 -2.5944 -2.4279
  936MOL0     H23548   7.825   1.487   9.910 -1.2018 -0.9645 -1.1725
  936MOL0     H23549   7.914   1.347   9.851  0.9746 -0.3600  0.1758
  936MOL0     H23550   8.021   1.450  10.264 -3.4764  0.3367  0.0401
  936MOL0     H23551   8.341   1.800   9.564  1.3350  1.4152 -0.7196
  936MOL0     H23552   8.408   1.964   9.433  0.7795 -1.1329  1.0441
  937MOL0     O23553   0.433   1.030   5.745  0.0809  0.1975  0.1806
  937MOL0     C23554   0.528   1.050   5.667  0.8652 -0.7500  1.0052
  937MOL0     O23555   0.515   1.072   5.535 -0.9486 -0.2256  0.3247
  937MOL0     C23556   0.387   1.080   5.490 -0.3935 -0.6365  0.1062
  937MOL0     C23557   0.314   0.960   5.464 -0.6416 -0.3307 -0.4764
  937MOL0     C23558   0.179   0.974   5.431 -0.6334  0.0802 -1.3191
  937MOL0     C23559   0.109   1.097   5.410 -0.6882  0.2552  0.6080
  937MOL0     O23560  -0.022   1.089   5.363 -0.6178  1.1292 -0.1959
  937MOL0     C23561  -0.058   1.190   5.264  0.3010  0.4836 -0.3858
  937MOL0     C23562  -0.205   1.155   5.245  0.0427 -0.3556 -0.7264
  937MOL0     C23563  -0.281   1.260   5.162  0.6176 -1.0324 -0.5813
  937MOL0     C23564  -0.428   1.240   5.151  0.2585 -0.1332 -0.1184
  937MOL0     C23565  -0.469   1.105   5.092  0.4830  0.4563  0.0618
  937MOL0     C23566  -0.499   1.002   5.201 -0.4817  0.3113 -0.3210
  937MOL0     C23567  -0.522   0.860   5.146 -0.2287  0.4779 -0.8402
  937MOL0     C23568  -0.562   0.751   5.253 -0.3698 -0.0070  0.5506
  937MOL0     N23569  -0.478   0.752   5.372 -0.2536  0.0602  0.9854
  937MOL0     C23570  -0.338   0.726   5.369  0.3936 -0.3100  0.5046
  937MOL0     C23571  -0.306   0.714   5.499 -0.4663 -0.0646  1.0165
  937MOL0     C23572  -0.157   0.701   5.526  0.0122  0.0107 -0.4605
  937MOL0     C23573  -0.112   0.561   5.520 -0.1311  1.4624  0.3843
  937MOL0     C23574  -0.006   0.528   5.620  0.7594 -0.8646 -0.5655
  937MOL0     C23575   0.070   0.406   5.577 -0.0631  0.8910 -0.1924
  937MOL0     O23576   0.154   0.429   5.460 -0.4256  0.2807  0.0545
  937MOL0     C23577   0.263   0.354   5.439  0.4006  0.7666  0.5821
  937MOL0     C23578   0.364   0.408   5.359 -0.3398  0.3208 -0.8532
  937MOL0     C23579   0.485   0.343   5.327 -0.4658  0.5882 -0.6110
  937MOL0     C23580   0.503   0.216   5.390  0.2229 -0.1327 -0.8418
  937MOL0     C23581   0.627   0.135   5.368  0.0504 -0.4184  1.7614
  937MOL0     O23582   0.729   0.205   5.297 -0.2930  0.8237  0.3817
  937MOL0     C23583   0.835   0.132   5.236  0.3163 -0.4584 -0.3394
  937MOL0     C23584   0.823   0.059   5.124  0.2950 -0.2534 -0.1847
  937MOL0     C23585   0.934  -0.009   5.069 -0.1830  0.0231 -0.2578
  937MOL0     C23586   1.060  -0.001   5.118 -1.2375 -0.7284  0.2362
  937MOL0     O23587   1.170  -0.059   5.069 -0.0961  0.1954  0.6608
  937MOL0     C23588   1.269   0.031   5.015 -0.4514  0.6316  0.9327
  937MOL0     C23589   1.398  -0.048   4.967  0.0674  0.2203  0.2780
  937MOL0     C23590   1.509   0.047   4.924 -0.9712  0.6916 -0.3837
  937MOL0     C23591   1.503   0.102   4.785 -0.3297 -0.1201 -0.2692
  937MOL0     C23592   1.647   0.170   4.756  0.4553 -0.2206 -0.9408
  937MOL0     C23593   1.630   0.244   4.630  0.1815  0.3041 -0.1729
  937MOL0     C23594   1.549   0.383   4.643  0.6897  0.2458  0.5115
  937MOL0     C23595   1.529   0.462   4.509  0.2082  0.0718  0.6997
  937MOL0    Cl23596   1.692   0.487   4.435 -0.6287 -0.2592 -0.2925
  937MOL0     C23597   1.067   0.064   5.249 -0.3328  0.1913 -0.0704
  937MOL0     C23598   0.955   0.134   5.303  0.1971 -0.0819 -0.2956
  937MOL0     O23599   0.636   0.029   5.416  0.1142 -0.9097  0.0545
  937MOL0     C23600   0.407   0.166   5.482 -0.2440 -0.3266  0.8574
  937MOL0     C23601   0.289   0.231   5.508 -0.1284 -0.0258  0.0921
  937MOL0     N23602  -0.420   0.716   5.570  0.1218 -0.5861 -0.8043
  937MOL0     N23603  -0.521   0.731   5.495  0.2088  0.2725  0.4928
  937MOL0     C23604   0.187   1.217   5.438 -0.0319  0.1706  0.3882
  937MOL0     C23605   0.325   1.204   5.472 -0.4096 -0.5468  0.6799
  937MOL0     C23606   0.668   1.057   5.710  0.1092 -1.4075  0.6215
  937MOL0     C23607   0.695   1.043   5.842 -0.5478  0.8112 -0.5688
  937MOL0     C23608   0.826   1.032   5.895 -1.1554  0.1074 -0.1146
  937MOL0     C23609   0.931   1.025   5.805  0.2557  0.3352 -0.1754
  937MOL0     O23610   1.051   0.998   5.856 -0.3260 -0.5675  0.3856
  937MOL0     C23611   1.123   0.891   5.790  0.3944  0.3999  0.6421
  937MOL0     C23612   1.054   0.751   5.816  0.1902 -0.3248  0.1099
  937MOL0     C23613   1.037   0.731   5.965  0.1608  0.2499 -0.1840
  937MOL0     C23614   1.060   0.585   6.005 -0.0925  0.0691 -0.8437
  937MOL0     C23615   0.944   0.518   5.953 -0.0194 -0.0427 -0.7770
  937MOL0     C23616   0.848   0.456   5.921  0.0344 -0.4805 -0.3331
  937MOL0     C23617   0.902   1.040   5.668  0.1981  0.0910 -0.4475
  937MOL0     C23618   0.776   1.055   5.625 -0.2424 -0.4577  0.6274
  937MOL0     H23619   0.359   0.864   5.488 -1.3771 -1.1896 -2.3293
  937MOL0     H23620   0.120   0.886   5.411 -2.0749  1.3394 -2.8952
  937MOL0     H23621   0.003   1.188   5.172  0.2610 -0.1345 -0.4026
  937MOL0     H23622  -0.062   1.290   5.309  0.9899  0.5750 -0.5110
  937MOL0     H23623  -0.251   1.138   5.343 -1.7325  0.0200 -1.4469
  937MOL0     H23624  -0.211   1.070   5.176  0.2473 -0.5443 -0.5142
  937MOL0     H23625  -0.241   1.271   5.061 -0.2234  1.0649 -0.7435
  937MOL0     H23626  -0.257   1.352   5.215 -0.9667 -1.2961  0.6589
  937MOL0     H23627  -0.465   1.246   5.254  1.5308  0.6150  0.3136
  937MOL0     H23628  -0.479   1.315   5.090  1.2665  0.3543 -0.3770
  937MOL0     H23629  -0.390   1.080   5.021  0.3130 -2.0725  0.6931
  937MOL0     H23630  -0.560   1.115   5.033  0.9433  1.0191 -0.5736
  937MOL0     H23631  -0.587   1.044   5.251 -1.1973  0.1826 -1.4377
  937MOL0     H23632  -0.419   1.004   5.276  2.6239  0.9590 -3.4307
  937MOL0     H23633  -0.600   0.869   5.069  1.7029  2.8915 -2.6865
  937MOL0     H23634  -0.433   0.824   5.092  0.3659 -0.8317  0.9153
  937MOL0     H23635  -0.551   0.651   5.211  3.0041 -0.6540  2.5879
  937MOL0     H23636  -0.663   0.765   5.293  0.3872 -0.1898  2.6608
  937MOL0     H23637  -0.285   0.736   5.275 -2.6044  2.2380 -1.1190
  937MOL0     H23638  -0.141   0.738   5.627  1.6783 -0.6696 -0.4461
  937MOL0     H23639  -0.101   0.767   5.459  0.2055  0.8007  0.4514
  937MOL0     H23640  -0.080   0.540   5.417  0.1227  1.6445  0.4245
  937MOL0     H23641  -0.199   0.495   5.527  0.2144 -0.9909 -8.0646
  937MOL0     H23642   0.072   0.603   5.636  2.2070 -2.8956  3.0755
  937MOL0     H23643  -0.058   0.510   5.714 -0.9726  0.4448 -1.2078
  937MOL0     H23644  -0.007   0.334   5.546 -1.6946 -0.1728  5.1723
  937MOL0     H23645   0.105   0.364   5.672 -0.8572  2.4722  0.8378
  937MOL0     H23646   0.331   0.500   5.314 -2.9863 -1.0722 -1.9866
  937MOL0     H23647   0.545   0.405   5.261  0.9817  1.5232  1.4682
  937MOL0     H23648   0.730   0.068   5.068  0.6502 -1.1029 -0.9315
  937MOL0     H23649   0.905  -0.059   4.977 -3.8729  0.9147  0.2652
  937MOL0     H23650   1.289   0.113   5.085 -0.4511 -0.4451  2.2426
  937MOL0     H23651   1.221   0.085   4.933 -0.3224  2.5091  2.0297
  937MOL0     H23652   1.384  -0.111   4.879  0.3078  2.0676 -1.1445
  937MOL0     H23653   1.442  -0.112   5.043  2.5296 -0.4380 -1.5721
  937MOL0     H23654   1.606  -0.003   4.926 -1.1886  0.2857  1.0506
  937MOL0     H23655   1.521   0.119   5.006  1.1970 -2.8735  2.7684
  937MOL0     H23656   1.481   0.019   4.718 -1.8275  1.1117 -1.3868
  937MOL0     H23657   1.429   0.181   4.767  0.4363  0.5019 -0.7579
  937MOL0     H23658   1.726   0.094   4.753  0.6370 -0.2155  1.6834
  937MOL0     H23659   1.687   0.233   4.835  0.0436 -0.0882 -0.8362
  937MOL0     H23660   1.580   0.185   4.553  0.4440  0.0636 -0.1589
  937MOL0     H23661   1.725   0.272   4.583  0.4932  2.2674  1.4788
  937MOL0     H23662   1.446   0.363   4.674  1.0640  0.7259  2.1860
  937MOL0     H23663   1.596   0.449   4.716 -1.9539 -0.7040  3.2866
  937MOL0     H23664   1.461   0.547   4.521 -1.8868 -1.8708  4.6386
  937MOL0     H23665   1.472   0.409   4.432  0.0209  2.1651 -0.6792
  937MOL0     H23666   1.159   0.058   5.306  1.3276  3.1447 -2.2016
  937MOL0     H23667   0.965   0.171   5.405  0.2769 -0.1253 -0.2870
  937MOL0     H23668   0.437   0.077   5.536  0.5641 -0.2114  0.6117
  937MOL0     H23669   0.216   0.182   5.572 -2.3922  0.0973 -2.2238
  937MOL0     H23670   0.140   1.314   5.441  0.9574  0.6634  0.3373
  937MOL0     H23671   0.380   1.284   5.521 -1.6558  1.1581 -0.6092
  937MOL0     H23672   0.613   1.034   5.913 -2.9621 -1.5006 -3.3943
  937MOL0     H23673   0.852   1.024   6.000  1.5042  3.2934 -0.3664
  937MOL0     H23674   1.228   0.891   5.822  0.4489  1.5992  0.5361
  937MOL0     H23675   1.117   0.901   5.681 -1.2977 -0.2851  0.6529
  937MOL0     H23676   0.956   0.741   5.768  1.6028  0.3783 -3.2471
  937MOL0     H23677   1.125   0.682   5.769  1.4747  1.5638 -0.8441
  937MOL0     H23678   0.937   0.765   5.992 -0.3055  1.5065 -3.1190
  937MOL0     H23679   1.123   0.782   6.009  1.8320 -1.7405 -0.9536
  937MOL0     H23680   1.156   0.553   5.964  1.8120  4.3706 -0.3110
  937MOL0     H23681   1.069   0.580   6.114 -0.5398  0.1733 -0.7999
  937MOL0     H23682   0.751   0.420   5.895  0.0363 -1.5870  1.0955
  937MOL0     H23683   0.986   1.058   5.600 -0.9649  0.5402 -1.8121
  937MOL0     H23684   0.751   1.050   5.519 -2.1032 -3.6172  1.0888
  938MOL0     O23685   6.435   6.007   3.489 -0.0712 -0.2974  0.3718
  938MOL0     C23686   6.509   6.074   3.415 -0.4637  0.3698  0.3369
  938MOL0     O23687   6.656   6.068   3.405  0.5126  0.3003 -0.4593
  938MOL0     C23688   6.698   5.983   3.506  0.2749 -0.6450  0.5305
  938MOL0     C23689   6.719   5.845   3.483  0.2056 -0.1325 -0.2019
  938MOL0     C23690   6.764   5.753   3.580  0.5793 -0.8952 -0.4439
  938MOL0     C23691   6.788   5.813   3.707 -0.1576  0.4781 -0.8125
  938MOL0     O23692   6.841   5.745   3.821 -0.5282 -1.1841  0.9152
  938MOL0     C23693   6.826   5.600   3.832  0.8133 -0.0991  1.5684
  938MOL0     C23694   6.849   5.539   3.961  0.0027  0.2251 -0.3111
  938MOL0     C23695   6.766   5.612   4.067  0.5022 -0.6657  0.1334
  938MOL0     C23696   6.781   5.562   4.202  0.6024  0.8544  0.0599
  938MOL0     C23697   6.657   5.602   4.282 -1.3287 -0.2586  0.5605
  938MOL0     C23698   6.660   5.535   4.418 -0.6174 -0.6058  0.4514
  938MOL0     C23699   6.776   5.577   4.508 -0.3920  0.0999 -0.7808
  938MOL0     C23700   6.779   5.719   4.540  0.6113 -0.3535  0.1839
  938MOL0     N23701   6.837   5.743   4.672  0.4513 -0.3170 -0.6444
  938MOL0     C23702   6.970   5.751   4.704 -0.0151  0.7516 -0.0656
  938MOL0     C23703   6.960   5.730   4.839 -0.0048 -0.1972 -0.1874
  938MOL0     C23704   7.092   5.705   4.910 -0.1514  0.4326  0.4882
  938MOL0     C23705   7.118   5.553   4.918 -0.7689 -0.4249 -0.0186
  938MOL0     C23706   7.232   5.501   4.824  0.6824  0.4285  0.0993
  938MOL0     C23707   7.235   5.346   4.820 -0.4488  0.1301  0.3504
  938MOL0     O23708   7.343   5.294   4.746  0.0356 -0.2803 -0.2934
  938MOL0     C23709   7.335   5.159   4.724 -0.4198  0.3213  0.6883
  938MOL0     C23710   7.317   5.113   4.589 -0.0394  1.1054  0.2410
  938MOL0     C23711   7.303   4.976   4.565  0.7939  0.7588 -1.6030
  938MOL0     C23712   7.295   4.885   4.676 -0.2844 -0.1107  0.4564
  938MOL0     C23713   7.277   4.744   4.652  0.0754 -0.3092 -0.1723
  938MOL0     O23714   7.265   4.661   4.764  0.3973 -0.3353 -0.8002
  938MOL0     C23715   7.290   4.524   4.763  0.5219 -0.1048  0.0789
  938MOL0     C23716   7.294   4.435   4.651  0.9463 -0.1703  0.1604
  938MOL0     C23717   7.338   4.302   4.676 -0.2831 -0.4009  0.3821
  938MOL0     C23718   7.367   4.254   4.800  0.2857 -0.0148 -0.0944
  938MOL0     O23719   7.432   4.136   4.816 -0.1562  0.0283  0.1109
  938MOL0     C23720   7.569   4.142   4.760 -0.9439 -0.1767  0.0072
  938MOL0     C23721   7.653   4.019   4.806 -0.7866 -0.0325  1.3108
  938MOL0     C23722   7.704   4.045   4.945  0.2551  0.9942 -0.2387
  938MOL0     C23723   7.806   3.941   4.999  0.1295  0.2852 -0.9592
  938MOL0     C23724   7.853   3.970   5.141  0.2841 -0.3431 -0.3686
  938MOL0     C23725   7.742   3.970   5.250  0.5840 -1.1292  0.1056
  938MOL0     C23726   7.807   3.999   5.389  0.2984 -0.3822  0.3054
  938MOL0     C23727   7.711   4.030   5.497  0.9071 -0.0750  0.2722
  938MOL0    Cl23728   7.805   4.088   5.643 -0.0140  0.3278 -0.5177
  938MOL0     C23729   7.342   4.331   4.906 -0.3127 -0.4068 -0.0905
  938MOL0     C23730   7.296   4.470   4.898 -0.9424  0.2042  0.0980
  938MOL0     O23731   7.284   4.703   4.539 -0.3725  0.5680  0.3291
  938MOL0     C23732   7.312   4.933   4.811  0.3787 -0.1778  1.1578
  938MOL0     C23733   7.322   5.071   4.831 -0.2408 -0.0818 -0.5584
  938MOL0     N23734   6.828   5.727   4.886 -0.1956  0.2273  0.7609
  938MOL0     N23735   6.761   5.732   4.783 -0.4154  0.0096 -0.1788
  938MOL0     C23736   6.770   5.950   3.721 -0.1268  0.5833 -0.0761
  938MOL0     C23737   6.726   6.037   3.630 -0.0747 -0.3400  0.4072
  938MOL0     C23738   6.443   6.173   3.337 -0.4005 -0.3917 -0.0767
  938MOL0     C23739   6.306   6.189   3.320 -0.5980  0.5125 -0.7078
  938MOL0     C23740   6.252   6.285   3.237 -0.7379 -0.2458  0.4446
  938MOL0     C23741   6.326   6.387   3.190 -1.0074  0.7414 -0.3861
  938MOL0     O23742   6.267   6.496   3.135  0.9040 -0.2706  0.3352
  938MOL0     C23743   6.342   6.576   3.034 -0.6979 -0.4749  0.2778
  938MOL0     C23744   6.256   6.683   2.964 -0.6264 -0.0274 -0.3353
  938MOL0     C23745   6.190   6.781   3.066  0.3649 -0.9171 -0.1841
  938MOL0     C23746   6.283   6.879   3.131 -1.2258 -0.1602 -0.9435
  938MOL0     C23747   6.222   6.964   3.236  0.1006 -0.7385  0.3630
  938MOL0     C23748   6.160   7.031   3.316  0.2706  0.5914  0.3182
  938MOL0     C23749   6.467   6.378   3.202  0.4205  0.4629  0.0171
  938MOL0     C23750   6.527   6.271   3.272 -0.0391  0.4450 -0.1732
  938MOL0     H23751   6.691   5.802   3.388  0.3440 -0.0140 -0.2961
  938MOL0     H23752   6.770   5.648   3.557  2.7772 -1.1638  1.0415
  938MOL0     H23753   6.889   5.559   3.752  0.3169  3.2687 -0.7786
  938MOL0     H23754   6.721   5.589   3.806  1.1795 -0.6938  0.2211
  938MOL0     H23755   6.952   5.528   3.997  0.1165  2.0826  0.0158
  938MOL0     H23756   6.804   5.439   3.951 -1.5137  0.5836  2.0088
  938MOL0     H23757   6.661   5.616   4.038  0.1061  1.4836  1.6115
  938MOL0     H23758   6.798   5.716   4.061  0.6219 -0.7553 -0.9447
  938MOL0     H23759   6.797   5.454   4.209  4.2885  1.3227  0.8376
  938MOL0     H23760   6.866   5.614   4.247  0.6878 -1.1415  2.3680
  938MOL0     H23761   6.569   5.558   4.235 -0.5611 -1.4333  0.1693
  938MOL0     H23762   6.657   5.711   4.277  0.5688 -0.2515 -0.2042
  938MOL0     H23763   6.668   5.427   4.407  1.2943 -0.7040  2.3068
  938MOL0     H23764   6.565   5.557   4.468 -1.1222 -1.3541 -0.1712
  938MOL0     H23765   6.775   5.522   4.602 -0.3691  0.6284 -0.4640
  938MOL0     H23766   6.868   5.558   4.451 -0.5903  2.7444 -2.1434
  938MOL0     H23767   6.675   5.753   4.543 -0.5087 -3.3580 -0.6974
  938MOL0     H23768   6.831   5.775   4.462  0.8620  0.0138  0.6112
  938MOL0     H23769   7.051   5.764   4.632  2.6634 -1.6395  2.2889
  938MOL0     H23770   7.111   5.736   5.014  1.6082 -0.4460  0.4715
  938MOL0     H23771   7.176   5.743   4.851  0.1524 -1.0162 -0.0451
  938MOL0     H23772   7.028   5.496   4.895  0.1065 -1.7068 -0.4133
  938MOL0     H23773   7.140   5.524   5.021  2.1433  1.3632  0.0005
  938MOL0     H23774   7.220   5.540   4.723  1.6816  2.7007  0.7721
  938MOL0     H23775   7.323   5.539   4.872  0.6221  2.6566 -1.3804
  938MOL0     H23776   7.153   5.318   4.754  0.4315  1.4860 -1.3768
  938MOL0     H23777   7.222   5.305   4.921  3.4440  1.0291  1.3932
  938MOL0     H23778   7.323   5.181   4.504  2.8340  1.1101  0.3286
  938MOL0     H23779   7.283   4.939   4.464 -0.4103 -1.9015 -0.4801
  938MOL0     H23780   7.289   4.451   4.544  0.6778 -1.5751 -0.0571
  938MOL0     H23781   7.345   4.250   4.582  1.1774 -0.1235  0.3184
  938MOL0     H23782   7.621   4.235   4.785 -2.3885  0.5757  0.3506
  938MOL0     H23783   7.571   4.145   4.651  0.5443  4.0199 -0.0297
  938MOL0     H23784   7.743   4.010   4.744 -0.2337  4.1332  1.2476
  938MOL0     H23785   7.590   3.930   4.811 -1.3529  0.4059  2.3548
  938MOL0     H23786   7.614   4.054   5.006  0.9355  1.6202  0.7058
  938MOL0     H23787   7.761   4.137   4.930  2.7149 -0.1944  1.0534
  938MOL0     H23788   7.753   3.847   5.018 -1.4282  1.3441  0.2055
  938MOL0     H23789   7.893   3.925   4.934  1.7455 -0.4491  1.2701
  938MOL0     H23790   7.901   4.068   5.139  2.3635 -1.3191 -1.4733
  938MOL0     H23791   7.944   3.915   5.168  1.8518  0.4802 -3.5288
  938MOL0     H23792   7.685   3.878   5.236  2.0146 -1.7271 -2.3260
  938MOL0     H23793   7.679   4.060   5.244 -2.6549 -3.0782  1.8453
  938MOL0     H23794   7.869   3.919   5.432 -0.6913  0.4747  3.6935
  938MOL0     H23795   7.862   4.091   5.367  3.7220 -1.7098  2.4568
  938MOL0     H23796   7.650   3.942   5.520  1.8664 -0.8470 -0.0620
  938MOL0     H23797   7.655   4.113   5.454  3.0929  0.7586 -1.1267
  938MOL0     H23798   7.373   4.297   5.004 -2.3889  0.6801  1.0122
  938MOL0     H23799   7.272   4.533   4.983  0.3659  0.4305  0.3234
  938MOL0     H23800   7.319   4.865   4.895  1.1196 -0.7617  0.6366
  938MOL0     H23801   7.297   5.107   4.931 -1.6205  2.3473 -1.6882
  938MOL0     H23802   6.811   5.977   3.819  2.2704 -4.3272  0.6211
  938MOL0     H23803   6.728   6.143   3.650 -0.4339 -0.3674  0.5843
  938MOL0     H23804   6.245   6.114   3.368  0.6158  0.5378  0.9554
  938MOL0     H23805   6.146   6.305   3.224 -0.4045  1.0104 -0.5602
  938MOL0     H23806   6.395   6.517   2.958  1.1524  2.3985 -0.8436
  938MOL0     H23807   6.415   6.632   3.092 -0.6308 -1.0903  0.8017
  938MOL0     H23808   6.315   6.741   2.892  0.9186 -3.4850 -2.0867
  938MOL0     H23809   6.171   6.646   2.906 -0.1488  3.7433 -3.9691
  938MOL0     H23810   6.139   6.716   3.138 -1.8878 -0.6089 -1.4278
  938MOL0     H23811   6.112   6.831   3.008  0.0451 -1.0689  0.1121
  938MOL0     H23812   6.367   6.829   3.180 -1.4970 -0.0908 -0.4029
  938MOL0     H23813   6.317   6.944   3.050 -3.3610  0.3387 -1.5000
  938MOL0     H23814   6.101   7.090   3.383 -1.7848 -1.1014  0.1112
  938MOL0     H23815   6.536   6.452   3.164  0.3196  1.6719  2.0162
  938MOL0     H23816   6.635   6.265   3.265 -0.1415  0.2635 -2.1950
  939MOL0     O23817   1.059   0.358   6.617  0.0843 -0.5746  0.4886
  939MOL0     C23818   1.106   0.253   6.568  0.2092 -0.5240 -0.3308
  939MOL0     O23819   1.097   0.135   6.619 -0.1533 -0.3718  0.1712
  939MOL0     C23820   1.008   0.109   6.723 -0.1383 -0.1742 -0.0068
  939MOL0     C23821   0.871   0.136   6.720 -0.4959  0.3075 -0.3994
  939MOL0     C23822   0.782   0.091   6.813  0.2473 -0.5571  0.3056
  939MOL0     C23823   0.821   0.011   6.917 -0.1655 -0.7205 -0.2248
  939MOL0     O23824   0.742  -0.049   7.013  0.1055 -0.1464 -0.5198
  939MOL0     C23825   0.653   0.033   7.085 -0.1909 -0.1037 -0.4151
  939MOL0     C23826   0.544  -0.030   7.168 -0.9318  0.6147 -0.4761
  939MOL0     C23827   0.490   0.062   7.279  0.1560  0.1372 -0.8052
  939MOL0     C23828   0.452   0.200   7.232 -0.1277 -0.3843  0.3550
  939MOL0     C23829   0.389   0.293   7.339 -0.1168  0.5333  0.5979
  939MOL0     C23830   0.266   0.225   7.410 -0.4565 -0.4233  0.0323
  939MOL0     C23831   0.171   0.330   7.472 -1.0526 -0.1303 -0.5528
  939MOL0     C23832   0.214   0.389   7.608 -0.5818  0.4340  0.5606
  939MOL0     N23833   0.097   0.434   7.690  0.5575  0.5461 -0.0193
  939MOL0     C23834   0.057   0.560   7.705 -0.8812 -0.6349 -0.1670
  939MOL0     C23835  -0.029   0.570   7.810 -0.5998  0.0489 -0.8009
  939MOL0     C23836  -0.087   0.695   7.878  0.1204 -0.0788  0.4244
  939MOL0     C23837  -0.209   0.747   7.804  0.8402  0.8447 -0.1142
  939MOL0     C23838  -0.314   0.640   7.796  0.4093  0.1125  1.2559
  939MOL0     C23839  -0.357   0.576   7.933  0.4337 -0.3415 -0.0508
  939MOL0     O23840  -0.382   0.671   8.032 -0.1972  0.2062  0.3965
  939MOL0     C23841  -0.509   0.701   8.063  0.5233 -0.1236 -0.4837
  939MOL0     C23842  -0.536   0.800   8.156 -0.2645  1.1736  0.0006
  939MOL0     C23843  -0.654   0.846   8.201  0.1180 -0.6456 -0.4128
  939MOL0     C23844  -0.767   0.792   8.142 -0.6767  0.2109  0.0886
  939MOL0     C23845  -0.902   0.836   8.181  0.9888  0.0108 -0.4880
  939MOL0     O23846  -1.007   0.753   8.161  0.1019  0.2672  0.4693
  939MOL0     C23847  -1.135   0.792   8.204 -0.2374  0.5047  0.2798
  939MOL0     C23848  -1.214   0.705   8.281 -1.0907 -0.0216 -0.5498
  939MOL0     C23849  -1.339   0.730   8.322 -0.3489 -0.2740 -0.5261
  939MOL0     C23850  -1.393   0.860   8.307 -0.0535  0.2572  0.6017
  939MOL0     O23851  -1.516   0.876   8.373  0.8966  0.4834 -0.4215
  939MOL0     C23852  -1.592   0.992   8.348 -0.7216 -0.9225  0.1822
  939MOL0     C23853  -1.713   0.990   8.427  0.6749  0.0354  0.8233
  939MOL0     C23854  -1.815   1.102   8.407  0.5162 -0.4767 -0.2299
  939MOL0     C23855  -1.949   1.084   8.497 -0.2137  0.7460  0.3626
  939MOL0     C23856  -2.057   1.198   8.486  0.0976  0.3000  0.1191
  939MOL0     C23857  -2.010   1.324   8.558 -0.7503 -0.2899 -0.0566
  939MOL0     C23858  -2.118   1.429   8.598  0.4779  0.2175  0.5539
  939MOL0     C23859  -2.224   1.458   8.481  0.9416  0.2232 -0.1217
  939MOL0    Cl23860  -2.378   1.356   8.507 -0.0679 -0.1874  0.3998
  939MOL0     C23861  -1.323   0.945   8.215 -0.1535  0.2787 -0.2040
  939MOL0     C23862  -1.196   0.914   8.157  0.2349  0.2318 -1.3707
  939MOL0     O23863  -0.918   0.951   8.227 -0.3345  0.3032  0.3305
  939MOL0     C23864  -0.759   0.697   8.041 -1.4396  0.5899 -0.2163
  939MOL0     C23865  -0.626   0.647   8.002  0.3161  0.1038  0.0777
  939MOL0     N23866  -0.050   0.438   7.847  1.1737 -0.1021 -0.7960
  939MOL0     N23867   0.030   0.365   7.787 -0.2474  0.6808 -0.6937
  939MOL0     C23868   0.966  -0.004   6.931  0.3242 -0.8640  0.8535
  939MOL0     C23869   1.052   0.039   6.833  0.1170 -0.0534  0.0176
  939MOL0     C23870   1.203   0.261   6.456  0.3553 -0.4265  0.0638
  939MOL0     C23871   1.194   0.369   6.373 -0.5253  0.7248  0.0172
  939MOL0     C23872   1.290   0.383   6.279 -0.1182  1.0681  0.0903
  939MOL0     C23873   1.387   0.291   6.236 -0.6485  1.3220 -1.5602
  939MOL0     O23874   1.480   0.329   6.138 -0.2929 -0.0467  0.1778
  939MOL0     C23875   1.605   0.266   6.125  0.5508 -0.9694  0.4313
  939MOL0     C23876   1.698   0.271   6.250 -0.1455 -0.0944 -0.6330
  939MOL0     C23877   1.732   0.415   6.291 -0.6762 -0.2570  0.2699
  939MOL0     C23878   1.835   0.477   6.194 -0.0676  0.2101  0.0221
  939MOL0     C23879   1.863   0.616   6.222 -0.7543 -1.2538 -0.5959
  939MOL0     C23880   1.906   0.712   6.282  0.0607 -0.9824 -0.3422
  939MOL0     C23881   1.392   0.182   6.322  0.9719 -0.4900 -0.4634
  939MOL0     C23882   1.305   0.159   6.430  0.1247 -0.2595  0.6746
  939MOL0     H23883   0.827   0.190   6.637 -1.9657  0.2688  0.3139
  939MOL0     H23884   0.675   0.106   6.800 -0.3258 -4.1302 -0.0267
  939MOL0     H23885   0.591   0.100   7.023 -2.6658 -1.4368  0.4578
  939MOL0     H23886   0.707   0.095   7.156  1.5354  0.2440 -1.9576
  939MOL0     H23887   0.602  -0.109   7.217 -1.7635  1.7943  2.6444
  939MOL0     H23888   0.461  -0.071   7.110 -1.4401 -1.4947  1.6218
  939MOL0     H23889   0.561   0.080   7.360 -1.5388 -1.2448  1.0793
  939MOL0     H23890   0.408   0.013   7.332  0.9167  0.3870  0.6421
  939MOL0     H23891   0.539   0.256   7.195  1.1064 -1.0788  2.0431
  939MOL0     H23892   0.380   0.174   7.154  1.6543  0.4951 -1.7102
  939MOL0     H23893   0.375   0.392   7.295  2.9648  1.2044  0.8746
  939MOL0     H23894   0.461   0.322   7.416 -2.1347  0.8679  2.4702
  939MOL0     H23895   0.301   0.143   7.473 -2.3980 -2.9710 -1.9732
  939MOL0     H23896   0.214   0.165   7.334  0.3465 -0.5339 -0.4435
  939MOL0     H23897   0.143   0.415   7.407 -1.0041  0.7426  0.5422
  939MOL0     H23898   0.083   0.268   7.488 -0.8735 -0.0052  1.0186
  939MOL0     H23899   0.295   0.462   7.603  2.3115 -2.5649 -0.1107
  939MOL0     H23900   0.273   0.311   7.655 -2.0077 -0.5732  0.7580
  939MOL0     H23901   0.090   0.641   7.641  0.7034 -2.4272 -1.7327
  939MOL0     H23902  -0.009   0.771   7.877  0.4916 -0.4356 -1.6402
  939MOL0     H23903  -0.113   0.683   7.984  1.7186  2.2944  1.1549
  939MOL0     H23904  -0.179   0.780   7.703  1.2867  1.7434  0.2979
  939MOL0     H23905  -0.252   0.824   7.869 -0.4892 -1.3807  1.7846
  939MOL0     H23906  -0.396   0.689   7.741  1.0453 -1.3802 -1.1971
  939MOL0     H23907  -0.289   0.554   7.733 -0.9132 -1.2622  2.5130
  939MOL0     H23908  -0.277   0.510   7.969  0.2477 -1.1056 -0.9946
  939MOL0     H23909  -0.438   0.507   7.906 -0.4060  1.3929 -2.3127
  939MOL0     H23910  -0.453   0.845   8.210 -2.2281  2.6218  2.0042
  939MOL0     H23911  -0.674   0.913   8.284 -1.1732 -1.8165  0.2628
  939MOL0     H23912  -1.159   0.617   8.313  3.0338  3.0339  1.7436
  939MOL0     H23913  -1.387   0.663   8.391 -0.7967  0.3550 -0.2181
  939MOL0     H23914  -1.617   0.981   8.242  0.2915 -6.1279  0.2226
  939MOL0     H23915  -1.539   1.085   8.366 -0.4029 -0.4940 -2.5530
  939MOL0     H23916  -1.688   0.987   8.534 -0.4351  3.1906  1.2904
  939MOL0     H23917  -1.765   0.898   8.400 -0.4516  0.0435  2.7306
  939MOL0     H23918  -1.849   1.117   8.304  1.0800 -1.3995 -0.5575
  939MOL0     H23919  -1.763   1.191   8.443  1.9793 -1.7882  1.0343
  939MOL0     H23920  -1.991   0.988   8.466 -0.1325  1.0910 -0.8732
  939MOL0     H23921  -1.906   1.067   8.596  2.5293  0.9657 -0.7028
  939MOL0     H23922  -2.137   1.150   8.543  0.2401 -1.1272 -0.8398
  939MOL0     H23923  -2.090   1.230   8.387  2.4694  0.4275 -0.7077
  939MOL0     H23924  -1.942   1.374   8.488 -2.3575  0.9167 -0.8225
  939MOL0     H23925  -1.946   1.292   8.640 -0.9416  0.6185  0.4541
  939MOL0     H23926  -2.176   1.397   8.685 -1.9429  2.7208 -0.0125
  939MOL0     H23927  -2.074   1.527   8.618  1.2352  0.0225 -0.0742
  939MOL0     H23928  -2.173   1.454   8.384 -2.1136  1.4415 -1.9171
  939MOL0     H23929  -2.256   1.563   8.486  2.0544  0.7485 -2.5785
  939MOL0     H23930  -1.360   1.043   8.185  0.8248  2.2173  4.1058
  939MOL0     H23931  -1.138   0.991   8.107  0.8432  1.9617  1.7096
  939MOL0     H23932  -0.855   0.660   8.008 -1.8924 -0.0307  1.6469
  939MOL0     H23933  -0.630   0.569   7.926  0.2870 -0.1227  0.3111
  939MOL0     H23934   1.002  -0.042   7.027  0.9768  0.7545  1.2808
  939MOL0     H23935   1.159   0.019   6.837  0.2613  0.7882  0.4922
  939MOL0     H23936   1.129   0.453   6.392 -1.9529 -0.5497  1.0772
  939MOL0     H23937   1.292   0.485   6.242 -0.8101  1.3826  0.8779
  939MOL0     H23938   1.656   0.316   6.042 -0.2769  2.1441  1.6369
  939MOL0     H23939   1.584   0.164   6.091 -0.4080  0.0682 -2.3788
  939MOL0     H23940   1.641   0.227   6.332 -0.3361  0.6477 -0.3619
  939MOL0     H23941   1.781   0.206   6.221  0.0062  0.6310 -1.9276
  939MOL0     H23942   1.776   0.415   6.391 -2.8855  0.5400  1.3157
  939MOL0     H23943   1.637   0.470   6.293 -0.5478  0.0103 -0.5853
  939MOL0     H23944   1.921   0.408   6.199 -0.4999 -0.5777 -2.3486
  939MOL0     H23945   1.801   0.465   6.091 -2.9049  1.1230  0.7750
  939MOL0     H23946   1.949   0.789   6.342  1.3075 -1.7873 -0.1743
  939MOL0     H23947   1.465   0.104   6.302 -0.0791 -1.5728 -0.1751
  939MOL0     H23948   1.329   0.068   6.484  3.2692 -2.1971 -3.4594
  940MOL0     O23949   2.836   9.970   5.451 -0.2453 -0.1936  0.0903
  940MOL0     C23950   2.925   9.883   5.463  0.3806  1.2057 -0.1622
  940MOL0     O23951   2.939   9.799   5.565  0.3212  0.1637 -0.5624
  940MOL0     C23952   2.850   9.820   5.663  0.2527  0.2497 -0.8484
  940MOL0     C23953   2.738   9.731   5.665 -0.3863 -0.5321 -0.6717
  940MOL0     C23954   2.635   9.754   5.753 -0.2093  0.6196 -0.2382
  940MOL0     C23955   2.634   9.852   5.846  0.5224  0.0615 -0.4969
  940MOL0     O23956   2.524   9.862   5.930 -0.7828  0.1840  0.5415
  940MOL0     C23957   2.552   9.915   6.068 -0.1898  0.2989 -0.9124
  940MOL0     C23958   2.521  10.066   6.073 -0.1530  0.3601  0.9180
  940MOL0     C23959   2.366  10.091   6.058  0.2872 -0.6293 -0.2990
  940MOL0     C23960   2.334  10.242   6.092  0.8091 -0.7508 -0.4441
  940MOL0     C23961   2.188  10.290   6.062  0.1085 -0.1188  0.2088
  940MOL0     C23962   2.084  10.195   6.113 -0.4857  0.7664  0.1512
  940MOL0     C23963   2.084  10.148   6.261 -0.5071  0.7454 -0.1473
  940MOL0     C23964   2.047  10.256   6.359  0.4210  0.9272  0.1400
  940MOL0     N23965   1.927  10.329   6.327 -0.0082  0.2895 -0.7104
  940MOL0     C23966   1.800  10.272   6.321  0.2759  0.0537 -0.9327
  940MOL0     C23967   1.710  10.374   6.306  0.0220  0.1278 -0.5972
  940MOL0     C23968   1.561  10.371   6.293  0.4364  0.1056 -0.1332
  940MOL0     C23969   1.467  10.475   6.363 -0.0058  0.7064 -0.3637
  940MOL0     C23970   1.328  10.490   6.299 -0.5842 -0.3705 -0.0138
  940MOL0     C23971   1.233  10.569   6.382  0.1237 -0.3112  0.5365
  940MOL0     O23972   1.215  10.486   6.490 -1.0541  0.7166  0.1211
  940MOL0     C23973   1.114  10.521   6.575 -0.3489  1.1192  0.4425
  940MOL0     C23974   1.024  10.631   6.551 -0.7758  0.1187  0.1329
  940MOL0     C23975   0.910  10.651   6.630 -0.5302  0.3817 -0.4452
  940MOL0     C23976   0.891  10.567   6.743  1.0369  0.3306  0.4812
  940MOL0     C23977   0.763  10.579   6.823 -0.6277 -0.0363  0.2504
  940MOL0     O23978   0.732  10.474   6.909 -0.2595  0.2058  0.1634
  940MOL0     C23979   0.623  10.454   6.996 -0.8871 -1.2806 -0.1964
  940MOL0     C23980   0.493  10.513   6.975 -0.0764  0.4116 -0.3172
  940MOL0     C23981   0.382  10.477   7.067 -0.0400  0.7388  1.4183
  940MOL0     C23982   0.406  10.378   7.170  0.1780 -0.2352 -0.3444
  940MOL0     O23983   0.301  10.345   7.256 -0.5212 -0.1529  0.2487
  940MOL0     C23984   0.167  10.350   7.196  0.5357 -1.0771 -1.2821
  940MOL0     C23985   0.059  10.274   7.286 -0.6712  0.7472 -0.0961
  940MOL0     C23986  -0.066  10.216   7.232  1.0915  0.6513  0.3042
  940MOL0     C23987  -0.177  10.315   7.189 -0.1588  0.5348  0.4188
  940MOL0     C23988  -0.321  10.246   7.164 -0.7801  0.2983 -0.1252
  940MOL0     C23989  -0.407  10.342   7.086 -0.1307  0.0450  0.2840
  940MOL0     C23990  -0.554  10.296   7.082  0.4319  0.0676  1.4068
  940MOL0     C23991  -0.637  10.334   6.964 -0.1338  0.7829  0.0332
  940MOL0    Cl23992  -0.544  10.278   6.826 -0.1314 -0.1041 -0.3473
  940MOL0     C23993   0.541  10.336   7.185  0.8499 -0.1707  0.4182
  940MOL0     C23994   0.649  10.374   7.105 -0.1907  1.2134 -0.0662
  940MOL0     O23995   0.689  10.671   6.803  0.8469 -0.3139 -0.1104
  940MOL0     C23996   0.978  10.459   6.766 -0.0355  0.5855  0.3142
  940MOL0     C23997   1.085  10.434   6.683 -0.6225  0.6252  0.9410
  940MOL0     N23998   1.785  10.491   6.313 -0.1407  0.3615 -0.0265
  940MOL0     N23999   1.906  10.465   6.333  0.3080  0.2308  0.0840
  940MOL0     C24000   2.753   9.925   5.858 -0.0929  0.2560  0.1317
  940MOL0     C24001   2.856   9.913   5.767  0.0721  0.6220 -0.6278
  940MOL0     C24002   2.994   9.837   5.338 -0.4797 -0.1784 -0.0355
  940MOL0     C24003   3.096   9.745   5.331  0.0947  0.5865 -0.2913
  940MOL0     C24004   3.149   9.694   5.207 -1.0401  0.8785 -0.7706
  940MOL0     C24005   3.109   9.757   5.089  0.6390 -0.3565  0.1385
  940MOL0     O24006   3.167   9.726   4.966  0.3480  0.0062  0.0444
  940MOL0     C24007   3.287   9.645   4.957  0.1760  0.7764  0.1973
  940MOL0     C24008   3.304   9.575   4.825 -1.1126 -0.8191 -0.2998
  940MOL0     C24009   3.171   9.504   4.786 -0.2637 -0.7732  0.1239
  940MOL0     C24010   3.184   9.400   4.675  0.2356  0.6068 -0.0329
  940MOL0     C24011   3.303   9.312   4.686  0.4071 -0.8177  0.4300
  940MOL0     C24012   3.404   9.239   4.672  0.8610 -0.0068 -0.4479
  940MOL0     C24013   3.024   9.865   5.098  0.3262 -0.7372 -0.1902
  940MOL0     C24014   2.964   9.898   5.216  0.1998 -0.1025 -0.6206
  940MOL0     H24015   2.733   9.658   5.585 -2.7901 -0.7296 -0.3970
  940MOL0     H24016   2.550   9.688   5.742  0.1978 -0.0860  0.6596
  940MOL0     H24017   2.658   9.903   6.093 -0.4857 -1.6924 -0.4437
  940MOL0     H24018   2.494   9.856   6.140  0.7345  1.1924  0.6135
  940MOL0     H24019   2.574  10.117   5.992 -2.6705  0.9723 -0.4434
  940MOL0     H24020   2.557  10.101   6.170  3.5361 -4.5416  1.7068
  940MOL0     H24021   2.310  10.032   6.132 -0.7080 -1.3898 -1.6166
  940MOL0     H24022   2.328  10.053   5.963 -3.6263  0.5688  0.6271
  940MOL0     H24023   2.369  10.273   6.191  0.1416  0.8791 -0.6782
  940MOL0     H24024   2.396  10.304   6.026  2.0101 -0.5594  0.8163
  940MOL0     H24025   2.165  10.303   5.956  1.1454 -0.9175 -0.1344
  940MOL0     H24026   2.177  10.386   6.113 -2.1116  0.0584 -0.4948
  940MOL0     H24027   2.097  10.107   6.050 -0.9210  0.5161  0.3984
  940MOL0     H24028   1.983  10.234   6.097 -0.8689 -0.6959 -1.2263
  940MOL0     H24029   2.021  10.060   6.275  1.3436 -0.9075 -1.5197
  940MOL0     H24030   2.187  10.113   6.273 -1.3780 -1.5711  1.3923
  940MOL0     H24031   2.133  10.323   6.367  1.6840 -0.7595  1.3736
  940MOL0     H24032   2.036  10.214   6.459  1.6857  0.2408  0.0077
  940MOL0     H24033   1.774  10.166   6.325 -0.3057  0.2200  0.8379
  940MOL0     H24034   1.522  10.275   6.326 -2.8993  1.6637  0.9085
  940MOL0     H24035   1.552  10.387   6.185  0.5509 -0.6689 -0.2615
  940MOL0     H24036   1.513  10.574   6.358 -1.1013  1.2203 -0.5630
  940MOL0     H24037   1.466  10.441   6.467 -0.9019 -3.2285 -1.4903
  940MOL0     H24038   1.330  10.540   6.201 -2.0568 -0.2053  0.0200
  940MOL0     H24039   1.280  10.393   6.288 -0.8969 -0.1748 -0.3975
  940MOL0     H24040   1.145  10.591   6.321  1.3695  2.7807 -0.3638
  940MOL0     H24041   1.283  10.665   6.401  1.5859 -0.6740 -1.1916
  940MOL0     H24042   1.030  10.688   6.458 -2.5983 -0.6543 -0.4973
  940MOL0     H24043   0.833  10.719   6.596 -0.0570 -0.4039 -3.3420
  940MOL0     H24044   0.475  10.595   6.906  0.3673 -0.6651 -1.7780
  940MOL0     H24045   0.298  10.543   7.046  0.6776  1.5464  0.9733
  940MOL0     H24046   0.166  10.310   7.094 -1.7310 -3.1485 -0.5302
  940MOL0     H24047   0.136  10.454   7.184  0.3931 -0.9818 -0.1931
  940MOL0     H24048   0.037  10.348   7.364  4.1571  1.0294  1.2907
  940MOL0     H24049   0.126  10.196   7.323 -0.5931 -0.7200 -3.0810
  940MOL0     H24050  -0.119  10.159   7.309 -2.8859 -0.8119 -3.1040
  940MOL0     H24051  -0.040  10.148   7.150 -0.3801  0.4959 -0.0568
  940MOL0     H24052  -0.170  10.397   7.262  3.1139  0.1087  0.7362
  940MOL0     H24053  -0.144  10.360   7.094 -0.0387 -2.0776 -0.8587
  940MOL0     H24054  -0.366  10.206   7.256 -2.2464  0.2185 -0.8455
  940MOL0     H24055  -0.311  10.157   7.101 -1.1838  1.0338 -1.2362
  940MOL0     H24056  -0.359  10.354   6.988 -0.2208  0.5097  0.2935
  940MOL0     H24057  -0.402  10.438   7.139 -1.0908  0.3497 -0.1577
  940MOL0     H24058  -0.550  10.186   7.083  2.4748  0.0364 -0.6121
  940MOL0     H24059  -0.605  10.328   7.173  0.5698  0.7276  1.2539
  940MOL0     H24060  -0.670  10.438   6.960 -3.6310 -0.1734  0.9024
  940MOL0     H24061  -0.728  10.272   6.962  0.4865 -0.2893 -3.9994
  940MOL0     H24062   0.565  10.261   7.260 -2.7783 -1.8248  0.1646
  940MOL0     H24063   0.749  10.335   7.123 -1.4457 -2.1841  0.3297
  940MOL0     H24064   0.967  10.393   6.851 -0.2727  1.1948  0.7603
  940MOL0     H24065   1.133  10.337   6.674 -1.6564  0.1587  0.1721
  940MOL0     H24066   2.772   9.990   5.943 -0.3036 -0.8432  1.0434
  940MOL0     H24067   2.932   9.990   5.782 -0.2881  1.7277 -3.7682
  940MOL0     H24068   3.118   9.690   5.422 -0.6078 -1.4505 -1.2878
  940MOL0     H24069   3.216   9.609   5.216 -2.6164 -0.4921 -1.3239
  940MOL0     H24070   3.297   9.570   5.036  2.4238  1.7038  0.8791
  940MOL0     H24071   3.364   9.723   4.965  0.0481  0.9503 -0.2546
  940MOL0     H24072   3.329   9.648   4.748 -0.9287 -1.3339 -0.7380
  940MOL0     H24073   3.382   9.499   4.837 -0.7201 -0.3534  0.1586
  940MOL0     H24074   3.106   9.584   4.750 -1.3857 -1.5807  0.3170
  940MOL0     H24075   3.132   9.458   4.877  0.4980 -1.9622 -0.1375
  940MOL0     H24076   3.096   9.336   4.680 -0.6303  1.8146  0.7112
  940MOL0     H24077   3.185   9.450   4.578  2.0586  0.5435 -0.0816
  940MOL0     H24078   3.479   9.163   4.668 -2.5684 -3.8284  1.1390
  940MOL0     H24079   2.996   9.923   5.011  2.0915  1.1528  0.4389
  940MOL0     H24080   2.900   9.984   5.200 -1.2940 -1.0466  0.0602
  941MOL0     O24081   0.115  10.995   5.505  0.0542  0.3793 -0.6894
  941MOL0     C24082   0.233  10.953   5.513 -0.5200  0.7657  0.1950
  941MOL0     O24083   0.330  10.977   5.414 -0.6868  0.2870 -0.1703
  941MOL0     C24084   0.335  11.076   5.314  0.5626  0.4495 -0.0157
  941MOL0     C24085   0.225  11.139   5.260  0.1149  0.0360  0.2664
  941MOL0     C24086   0.240  11.231   5.160 -0.3205 -0.1005 -0.0675
  941MOL0     C24087   0.366  11.275   5.116  0.3359 -0.6093  0.5860
  941MOL0     O24088   0.365  11.386   5.029 -0.8935  0.5211  0.0272
  941MOL0     C24089   0.336  11.515   5.076  0.7645 -1.9037  0.4090
  941MOL0     C24090   0.373  11.627   4.969 -0.0122  0.5127 -0.9163
  941MOL0     C24091   0.530  11.639   4.941  0.3909  0.2485 -0.3521
  941MOL0     C24092   0.552  11.722   4.820 -0.1756  0.3520  1.4032
  941MOL0     C24093   0.697  11.698   4.760 -0.6694 -0.0738  0.5200
  941MOL0     C24094   0.824  11.734   4.838  0.0882  0.2768 -0.4475
  941MOL0     C24095   0.856  11.882   4.846  0.0714  0.3621 -0.0899
  941MOL0     C24096   1.000  11.918   4.837  0.3187 -0.2980 -0.6327
  941MOL0     N24097   1.083  11.856   4.947 -0.2980 -0.4938 -0.3122
  941MOL0     C24098   1.143  11.910   5.052 -0.4391  0.0607 -0.7722
  941MOL0     C24099   1.237  11.828   5.105 -0.6124 -0.4255 -0.1533
  941MOL0     C24100   1.322  11.868   5.232  0.0173  0.8216  0.6528
  941MOL0     C24101   1.249  11.830   5.356 -0.1714  0.5598 -0.2190
  941MOL0     C24102   1.130  11.920   5.393 -0.8554  1.4500  0.6682
  941MOL0     C24103   0.990  11.854   5.413  0.1422  0.4413 -0.2584
  941MOL0     O24104   0.920  11.959   5.484 -0.4015  0.5568  0.1626
  941MOL0     C24105   0.794  11.935   5.549 -0.0968  0.4832 -0.8428
  941MOL0     C24106   0.735  11.808   5.578 -0.7179  0.2961 -0.5721
  941MOL0     C24107   0.609  11.797   5.631  0.7835  0.3493 -0.5025
  941MOL0     C24108   0.547  11.914   5.673 -0.7399 -0.3529 -0.7633
  941MOL0     C24109   0.418  11.897   5.736  0.2200 -0.1988 -0.5225
  941MOL0     O24110   0.407  11.779   5.808  0.1712 -0.0985 -0.1960
  941MOL0     C24111   0.301  11.738   5.889 -0.2973  1.3166  0.5067
  941MOL0     C24112   0.321  11.615   5.957  0.8504  0.6358 -0.1425
  941MOL0     C24113   0.226  11.561   6.042 -0.0670  0.1976 -0.0061
  941MOL0     C24114   0.097  11.620   6.061  0.1461 -0.5787 -0.1910
  941MOL0     O24115  -0.004  11.590   6.143 -0.0077  0.0519 -0.5234
  941MOL0     C24116  -0.128  11.549   6.082  0.0868 -1.0873 -0.7617
  941MOL0     C24117  -0.176  11.414   6.141  0.2729  0.9765  0.2782
  941MOL0     C24118  -0.245  11.425   6.278  0.9796  1.6228  0.1640
  941MOL0     C24119  -0.367  11.515   6.286 -0.1030  0.1974  0.2029
  941MOL0     C24120  -0.455  11.506   6.155 -0.0911 -0.6858 -0.0755
  941MOL0     C24121  -0.587  11.583   6.137 -0.9019  0.5808 -0.3486
  941MOL0     C24122  -0.666  11.522   6.018 -0.4396 -0.5744  0.0554
  941MOL0     C24123  -0.609  11.530   5.876 -0.5288  0.2666 -0.5619
  941MOL0    Cl24124  -0.590  11.693   5.816  0.2607 -0.4377 -0.0058
  941MOL0     C24125   0.079  11.740   6.000 -1.0647 -0.6614  0.3533
  941MOL0     C24126   0.173  11.809   5.913  0.4809  0.3347  0.3225
  941MOL0     O24127   0.327  11.984   5.721 -1.0220  0.3774  0.2313
  941MOL0     C24128   0.602  12.043   5.642 -0.1183  0.1975 -0.0608
  941MOL0     C24129   0.723  12.047   5.582 -0.6501  0.9111 -0.6114
  941MOL0     N24130   1.238  11.721   5.015  0.2934  0.1908  0.6094
  941MOL0     N24131   1.149  11.742   4.919  0.5939 -0.1459 -0.0828
  941MOL0     C24132   0.478  11.209   5.164 -0.1624  0.3628  0.8894
  941MOL0     C24133   0.458  11.109   5.266 -0.7199 -1.3253  0.0333
  941MOL0     C24134   0.255  10.847   5.619 -0.5781  0.9073  0.2397
  941MOL0     C24135   0.194  10.851   5.747 -0.6666  0.8662  0.5921
  941MOL0     C24136   0.218  10.738   5.827 -0.1416  1.1056 -0.0399
  941MOL0     C24137   0.294  10.629   5.783  0.7079 -0.0421 -0.2537
  941MOL0     O24138   0.341  10.535   5.870 -0.1754  0.0914  0.1105
  941MOL0     C24139   0.442  10.588   5.951  0.2201 -1.0465  0.1807
  941MOL0     C24140   0.539  10.469   5.976  0.6232  0.7326 -0.2846
  941MOL0     C24141   0.636  10.426   5.859 -0.0995 -0.0145 -0.6749
  941MOL0     C24142   0.666  10.272   5.856  0.6706  0.2485  0.5497
  941MOL0     C24143   0.757  10.232   5.747  0.0424 -0.6375 -1.0183
  941MOL0     C24144   0.844  10.199   5.668  0.9455 -0.6879  0.7125
  941MOL0     C24145   0.342  10.618   5.647  0.7461 -0.3394 -0.5971
  941MOL0     C24146   0.328  10.738   5.567 -0.1968  0.7152 -2.4854
  941MOL0     H24147   0.127  11.114   5.299  0.2420 -2.3927 -0.8049
  941MOL0     H24148   0.147  11.268   5.119 -1.8553 -3.1018  0.3608
  941MOL0     H24149   0.377  11.544   5.173  0.0309  1.3954 -0.1612
  941MOL0     H24150   0.230  11.537   5.089  1.1783  0.2242  0.5823
  941MOL0     H24151   0.342  11.729   4.996 -1.3426  0.2926 -1.5276
  941MOL0     H24152   0.321  11.593   4.878  0.7266 -0.2084 -1.0756
  941MOL0     H24153   0.569  11.539   4.921 -2.5872 -0.6970 -2.0217
  941MOL0     H24154   0.589  11.679   5.024  0.0186  1.2953 -0.5699
  941MOL0     H24155   0.479  11.715   4.739 -1.1540  1.7257  2.1383
  941MOL0     H24156   0.539  11.826   4.852  0.8729  0.2096  2.3400
  941MOL0     H24157   0.696  11.762   4.672 -3.3398 -2.8077 -1.6398
  941MOL0     H24158   0.707  11.592   4.735  1.2337  0.5756 -1.9820
  941MOL0     H24159   0.911  11.682   4.795 -0.5484 -2.6898  1.5145
  941MOL0     H24160   0.827  11.686   4.936  2.7766 -1.5613 -1.3063
  941MOL0     H24161   0.815  11.938   4.762  0.9479  3.6390  1.5056
  941MOL0     H24162   0.807  11.930   4.931 -1.2325  0.9132 -1.1287
  941MOL0     H24163   1.008  12.027   4.852 -0.3214 -0.1406 -1.3962
  941MOL0     H24164   1.049  11.888   4.744  3.2804  1.9131  0.0437
  941MOL0     H24165   1.123  12.007   5.096 -0.1706 -0.6631  1.0050
  941MOL0     H24166   1.333  11.977   5.223  0.6286  0.7478  0.4585
  941MOL0     H24167   1.421  11.820   5.224 -0.5689 -0.4755  0.9007
  941MOL0     H24168   1.322  11.810   5.435  0.2137 -0.7613 -0.8692
  941MOL0     H24169   1.214  11.728   5.338 -0.7996  0.6302  0.5707
  941MOL0     H24170   1.160  11.954   5.492  0.6984 -2.1571  1.6288
  941MOL0     H24171   1.116  11.994   5.314  0.6505  0.1827 -0.8787
  941MOL0     H24172   0.999  11.760   5.467 -2.6557 -0.2066 -0.7492
  941MOL0     H24173   0.945  11.838   5.315  2.5453  0.1007 -1.3646
  941MOL0     H24174   0.782  11.712   5.559 -2.9722 -1.4792  2.1488
  941MOL0     H24175   0.579  11.696   5.658  1.1656  1.0191  2.8284
  941MOL0     H24176   0.413  11.560   5.943  1.0593  1.3362 -1.7869
  941MOL0     H24177   0.244  11.464   6.087 -2.1208 -0.1013  0.2651
  941MOL0     H24178  -0.117  11.560   5.974  1.6473  0.2649 -0.5066
  941MOL0     H24179  -0.205  11.623   6.104 -0.4933 -1.4689 -1.4665
  941MOL0     H24180  -0.092  11.345   6.151 -0.3169 -0.2561 -2.4181
  941MOL0     H24181  -0.237  11.369   6.062 -0.2780  2.6275 -0.2775
  941MOL0     H24182  -0.177  11.452   6.359 -0.5579 -1.0147  2.5065
  941MOL0     H24183  -0.271  11.322   6.304 -1.0693  2.4235  1.5901
  941MOL0     H24184  -0.433  11.501   6.372 -0.7121  0.6051 -0.1914
  941MOL0     H24185  -0.323  11.616   6.290 -1.0059  0.5923  0.4840
  941MOL0     H24186  -0.476  11.401   6.134 -0.9114 -0.2229 -1.7977
  941MOL0     H24187  -0.395  11.541   6.070 -0.1510 -3.8236 -1.5456
  941MOL0     H24188  -0.556  11.687   6.122  0.2797  0.6053  1.8556
  941MOL0     H24189  -0.654  11.571   6.223 -2.7860 -3.5169 -2.1215
  941MOL0     H24190  -0.684  11.414   6.028 -1.3766 -0.2711  2.3080
  941MOL0     H24191  -0.758  11.582   6.015  0.8635  1.5041  0.2033
  941MOL0     H24192  -0.672  11.475   5.805 -0.5689 -1.2645  0.6045
  941MOL0     H24193  -0.508  11.489   5.876 -0.6912 -0.1623 -1.2176
  941MOL0     H24194  -0.012  11.798   6.015 -1.4036 -1.7262  3.1348
  941MOL0     H24195   0.129  11.899   5.872 -0.6696 -0.7357 -0.8990
  941MOL0     H24196   0.555  12.133   5.682  0.2311 -0.3105  1.6008
  941MOL0     H24197   0.770  12.140   5.552 -1.0025  1.9622  1.8387
  941MOL0     H24198   0.576  11.240   5.129 -0.3695  1.2191  1.0429
  941MOL0     H24199   0.545  11.054   5.301  1.5178  0.5571 -2.2122
  941MOL0     H24200   0.132  10.936   5.775 -1.2897 -0.1626  2.5123
  941MOL0     H24201   0.183  10.742   5.929 -1.7530 -0.7633 -0.4458
  941MOL0     H24202   0.392  10.610   6.046 -0.1596 -1.5547  0.1069
  941MOL0     H24203   0.497  10.678   5.923 -2.1795  1.8146  3.7086
  941MOL0     H24204   0.600  10.486   6.065  0.2221 -1.0824  0.3669
  941MOL0     H24205   0.475  10.383   5.997  2.5527 -0.2620  1.8345
  941MOL0     H24206   0.730  10.478   5.878 -1.0171  0.7481  2.4580
  941MOL0     H24207   0.588  10.454   5.765  2.5033 -0.5731 -2.2596
  941MOL0     H24208   0.704  10.245   5.955  1.5493 -1.7048 -0.2787
  941MOL0     H24209   0.576  10.219   5.825 -0.1460  2.8697 -1.9032
  941MOL0     H24210   0.913  10.163   5.594  2.7235  0.4301  1.7733
  941MOL0     H24211   0.389  10.528   5.609  2.3188 -1.0110  2.5969
  941MOL0     H24212   0.376  10.735   5.470  1.2753  1.7217 -1.8411
  942MOL0     O24213   6.660   3.217   1.398 -0.3846  0.6033  0.1448
  942MOL0     C24214   6.722   3.249   1.298  0.7131 -0.0931  0.3997
  942MOL0     O24215   6.860   3.232   1.281 -0.2855  0.3231  0.0232
  942MOL0     C24216   6.949   3.206   1.385 -0.1395 -0.5522  0.4434
  942MOL0     C24217   7.084   3.224   1.356 -0.4329  0.5585 -0.1917
  942MOL0     C24218   7.181   3.213   1.455  0.7100  0.8627 -0.4786
  942MOL0     C24219   7.144   3.157   1.580  0.1984 -0.0338 -0.2054
  942MOL0     O24220   7.228   3.135   1.684 -0.2542 -0.7281 -0.0322
  942MOL0     C24221   7.243   3.253   1.763  0.4123  0.8686 -0.5399
  942MOL0     C24222   7.307   3.212   1.901 -0.4864  0.3152  0.0701
  942MOL0     C24223   7.467   3.201   1.888  0.1333 -0.4186  0.0893
  942MOL0     C24224   7.516   3.200   2.026  0.2356 -0.2187 -0.0717
  942MOL0     C24225   7.671   3.209   2.035  0.0388 -0.0843  0.2356
  942MOL0     C24226   7.701   3.134   2.167 -0.0806 -0.8537 -0.0122
  942MOL0     C24227   7.850   3.181   2.204  0.8250 -0.0327  0.7088
  942MOL0     C24228   7.916   3.084   2.307 -0.0413 -0.2515 -0.2102
  942MOL0     N24229   7.972   2.960   2.243 -0.2810 -0.2266 -0.0023
  942MOL0     C24230   7.907   2.855   2.203  0.8787 -0.2237  0.1075
  942MOL0     C24231   7.991   2.749   2.175  0.5692  0.1813  0.3590
  942MOL0     C24232   7.944   2.609   2.130  0.1465  0.4751  0.4958
  942MOL0     C24233   7.965   2.576   1.979  0.5940  0.3641 -0.8753
  942MOL0     C24234   8.109   2.525   1.942  0.5670 -0.7141 -0.5271
  942MOL0     C24235   8.179   2.428   2.044 -0.1175 -0.7697 -0.7358
  942MOL0     O24236   8.088   2.322   2.070 -0.1378 -0.7487 -0.5754
  942MOL0     C24237   8.137   2.221   2.156  0.6106 -0.5926 -0.2740
  942MOL0     C24238   8.163   2.261   2.293 -0.3661  0.1821  0.4062
  942MOL0     C24239   8.198   2.151   2.379  0.3718 -0.1616  0.5113
  942MOL0     C24240   8.209   2.018   2.340 -0.2585  0.0934  0.4728
  942MOL0     C24241   8.242   1.913   2.445  0.4753 -0.0042  0.5908
  942MOL0     O24242   8.287   1.941   2.568 -0.3111 -0.5199  0.4997
  942MOL0     C24243   8.310   1.844   2.666 -0.3675 -0.3209 -0.1759
  942MOL0     C24244   8.209   1.762   2.706 -0.7245 -0.0268 -0.5671
  942MOL0     C24245   8.223   1.671   2.810  0.6347 -0.3960 -0.2631
  942MOL0     C24246   8.346   1.662   2.873  1.4348 -0.5400  0.2192
  942MOL0     O24247   8.352   1.575   2.971 -0.1172 -0.1051  0.0013
  942MOL0     C24248   8.306   1.436   2.938  0.1040 -0.6153  0.5648
  942MOL0     C24249   8.356   1.339   3.038  1.7363 -0.0502 -0.1176
  942MOL0     C24250   8.510   1.337   3.060  0.8841 -0.1279  0.2921
  942MOL0     C24251   8.564   1.205   3.136 -0.2378 -0.9859 -0.1029
  942MOL0     C24252   8.721   1.193   3.126  1.1744 -0.6324  0.6228
  942MOL0     C24253   8.761   1.094   3.229  0.3247  0.2484  0.1018
  942MOL0     C24254   8.911   1.084   3.231 -0.3029  0.1739  0.1638
  942MOL0     C24255   8.960   1.017   3.360 -0.2065  0.8791 -0.1639
  942MOL0    Cl24256   8.899   0.852   3.402 -0.3260  0.1537 -0.1176
  942MOL0     C24257   8.456   1.733   2.822  0.1114  1.0828 -0.3932
  942MOL0     C24258   8.437   1.826   2.722 -0.7424  0.3024  0.7936
  942MOL0     O24259   8.207   1.807   2.412 -0.0652  0.9735 -0.5386
  942MOL0     C24260   8.182   1.991   2.207  0.1557 -0.6870  0.3726
  942MOL0     C24261   8.145   2.084   2.118 -0.2279  0.6519 -0.4406
  942MOL0     N24262   8.123   2.799   2.204 -0.4206  0.1777  0.6969
  942MOL0     N24263   8.102   2.922   2.244  0.2974 -0.5458 -0.9619
  942MOL0     C24264   7.010   3.133   1.603  0.1911 -0.7051  0.2237
  942MOL0     C24265   6.907   3.155   1.508  0.1910 -0.1492  0.0525
  942MOL0     C24266   6.652   3.299   1.182  0.6456 -0.6483 -0.7455
  942MOL0     C24267   6.717   3.356   1.078 -1.4783 -0.5455  1.1407
  942MOL0     C24268   6.655   3.424   0.969  0.8252  0.1456  0.2889
  942MOL0     C24269   6.515   3.439   0.975 -0.3562 -0.2771 -1.2137
  942MOL0     O24270   6.433   3.505   0.882 -0.6431 -0.0090 -0.1584
  942MOL0     C24271   6.497   3.572   0.773 -0.5613 -0.3052  0.3105
  942MOL0     C24272   6.400   3.686   0.740  1.1970  0.3995  0.3996
  942MOL0     C24273   6.387   3.797   0.843 -0.6287 -0.4840 -0.6739
  942MOL0     C24274   6.319   3.921   0.789  0.3610  0.0102 -0.0684
  942MOL0     C24275   6.419   3.989   0.702 -0.2722 -0.1171 -0.3912
  942MOL0     C24276   6.506   4.059   0.649 -0.4509  1.1247 -0.4460
  942MOL0     C24277   6.452   3.378   1.081  0.7995 -0.4352  0.0896
  942MOL0     C24278   6.510   3.315   1.185  0.1279 -0.8448  0.9214
  942MOL0     H24279   7.116   3.258   1.258 -0.3639 -1.1865 -0.8048
  942MOL0     H24280   7.290   3.220   1.453  0.8426 -0.5958 -2.7334
  942MOL0     H24281   7.149   3.304   1.783  1.2953  1.6360  2.0509
  942MOL0     H24282   7.304   3.329   1.712  0.0873  1.8079  0.4308
  942MOL0     H24283   7.276   3.108   1.913  0.9104  0.1474  3.4539
  942MOL0     H24284   7.274   3.273   1.986 -0.1563 -0.5941  0.8653
  942MOL0     H24285   7.499   3.284   1.825 -2.1136 -0.2805 -0.9855
  942MOL0     H24286   7.487   3.107   1.837 -3.7200 -2.5092  1.9649
  942MOL0     H24287   7.476   3.285   2.082  0.1986 -1.5194  2.0118
  942MOL0     H24288   7.473   3.115   2.080 -1.5820  0.3000 -0.6454
  942MOL0     H24289   7.703   3.314   2.035 -1.0550  0.2612  1.3208
  942MOL0     H24290   7.718   3.145   1.959 -2.0235  0.1728 -1.3512
  942MOL0     H24291   7.693   3.027   2.149 -0.6563 -1.0530  1.3614
  942MOL0     H24292   7.635   3.160   2.250  0.1558  2.7389 -0.7520
  942MOL0     H24293   7.914   3.185   2.115 -0.3815 -3.1980 -0.4075
  942MOL0     H24294   7.841   3.285   2.239  0.4083  1.5107 -3.4944
  942MOL0     H24295   7.837   3.051   2.374 -2.4559 -0.5032 -2.9864
  942MOL0     H24296   8.001   3.130   2.359  1.5079 -2.7373 -0.3713
  942MOL0     H24297   7.799   2.862   2.202  0.6829 -2.2081  1.6283
  942MOL0     H24298   7.838   2.593   2.150  0.7588 -1.1926  2.8417
  942MOL0     H24299   7.983   2.525   2.188  0.6779  0.0994 -0.3795
  942MOL0     H24300   7.941   2.658   1.910 -2.0776 -0.7909 -1.4204
  942MOL0     H24301   7.901   2.497   1.940  0.3974  1.0639 -1.9892
  942MOL0     H24302   8.107   2.481   1.842  3.4283  1.9461 -1.9438
  942MOL0     H24303   8.169   2.615   1.924  2.2346 -1.6342  0.2097
  942MOL0     H24304   8.200   2.481   2.137 -3.6245 -1.7275  0.7669
  942MOL0     H24305   8.274   2.387   2.007  1.3939 -1.8696  3.6720
  942MOL0     H24306   8.153   2.363   2.329  1.8752  1.4715 -2.2384
  942MOL0     H24307   8.234   2.166   2.480  0.6572  1.7415  0.1737
  942MOL0     H24308   8.113   1.787   2.662 -0.0114  2.6392 -0.7778
  942MOL0     H24309   8.141   1.629   2.868  0.1767  2.2706  1.1799
  942MOL0     H24310   8.337   1.414   2.835 -1.1168 -0.9611  0.2489
  942MOL0     H24311   8.198   1.448   2.952 -0.0613 -0.1526 -0.8782
  942MOL0     H24312   8.309   1.241   3.023  1.6449 -0.0973  0.4771
  942MOL0     H24313   8.323   1.361   3.139  0.1138 -1.7281 -0.2179
  942MOL0     H24314   8.537   1.423   3.121 -2.1116  1.6117 -0.6051
  942MOL0     H24315   8.561   1.339   2.963  3.0059  2.2424  1.3527
  942MOL0     H24316   8.542   1.213   3.242  4.1261  3.1163  0.8237
  942MOL0     H24317   8.523   1.112   3.097 -1.2721  0.2135 -2.0318
  942MOL0     H24318   8.771   1.289   3.146 -3.0647  2.1565 -0.7790
  942MOL0     H24319   8.734   1.152   3.026 -0.6087  3.4880 -1.5502
  942MOL0     H24320   8.718   0.995   3.211 -0.3537  0.3051  1.2693
  942MOL0     H24321   8.722   1.127   3.326 -0.3289 -0.5676  0.1259
  942MOL0     H24322   8.958   1.038   3.143  2.0036  4.0271 -0.8707
  942MOL0     H24323   8.943   1.189   3.233 -2.6937  0.9703 -0.5552
  942MOL0     H24324   8.950   1.070   3.456 -0.0558 -1.7339  1.3792
  942MOL0     H24325   9.069   1.018   3.348 -0.1125 -0.0333  0.5036
  942MOL0     H24326   8.554   1.701   2.858 -0.3488 -0.0108 -0.0763
  942MOL0     H24327   8.510   1.883   2.665 -2.1289 -2.0779 -3.8781
  942MOL0     H24328   8.202   1.890   2.174  1.2820 -0.5510  0.6014
  942MOL0     H24329   8.115   2.061   2.017 -0.0825 -2.8038  0.1891
  942MOL0     H24330   6.972   3.083   1.691  2.5003 -1.0195  1.1151
  942MOL0     H24331   6.802   3.135   1.529 -0.5970  2.3504 -1.1762
  942MOL0     H24332   6.824   3.364   1.063 -1.8175  0.9426 -1.1079
  942MOL0     H24333   6.708   3.500   0.913 -2.0281  0.3671 -2.3555
  942MOL0     H24334   6.513   3.501   0.692 -0.8817 -2.7759  2.3148
  942MOL0     H24335   6.593   3.615   0.805 -0.6947 -0.9737  1.6547
  942MOL0     H24336   6.457   3.721   0.653  4.4128 -0.7499  1.9005
  942MOL0     H24337   6.298   3.656   0.714  1.2395 -0.2259  0.9330
  942MOL0     H24338   6.484   3.828   0.885 -1.3905  0.3553  0.5522
  942MOL0     H24339   6.332   3.754   0.928  1.2872 -2.3452 -0.2970
  942MOL0     H24340   6.225   3.899   0.736 -1.0617  0.9769  1.9326
  942MOL0     H24341   6.293   3.987   0.872 -1.6427  1.3011 -1.6112
  942MOL0     H24342   6.595   4.107   0.613  0.0255 -0.9635 -2.3405
  942MOL0     H24343   6.344   3.372   1.082  0.7904 -1.1963 -1.6556
  942MOL0     H24344   6.454   3.264   1.262 -0.8312 -0.2823  0.6058
  943MOL0     O24345   2.947  11.198   5.882 -0.5075 -0.3453  0.3032
  943MOL0     C24346   2.841  11.182   5.943 -0.5688  0.1006 -0.7893
  943MOL0     O24347   2.777  11.061   5.971 -1.2829  0.2563 -0.1990
  943MOL0     C24348   2.841  10.954   5.930 -1.1723  0.2726  0.3148
  943MOL0     C24349   2.888  10.855   6.013 -0.2742  0.2212  0.0127
  943MOL0     C24350   2.968  10.753   5.963  0.0274  0.6047  0.9690
  943MOL0     C24351   2.993  10.742   5.819  0.0255 -0.7857  0.5412
  943MOL0     O24352   3.066  10.645   5.755 -0.4716 -0.3479  0.0866
  943MOL0     C24353   3.208  10.628   5.808 -0.4481  0.0288 -0.1259
  943MOL0     C24354   3.302  10.531   5.726 -0.3071  0.1475 -0.0576
  943MOL0     C24355   3.267  10.383   5.725  0.6113 -0.7056 -0.9855
  943MOL0     C24356   3.343  10.307   5.623  0.0843 -0.2172  0.3459
  943MOL0     C24357   3.364  10.160   5.648 -0.8394 -0.0260  0.7312
  943MOL0     C24358   3.246  10.062   5.646 -0.1939  0.8075 -0.2552
  943MOL0     C24359   3.282   9.924   5.679  1.3807  0.4238  0.0303
  943MOL0     C24360   3.338   9.913   5.825  0.4946 -0.1014 -0.5678
  943MOL0     N24361   3.233   9.935   5.920  0.7128 -0.4137  0.2640
  943MOL0     C24362   3.134   9.847   5.960  0.1365 -0.4135 -0.4289
  943MOL0     C24363   3.063   9.918   6.047 -0.3538  0.0472 -0.0683
  943MOL0     C24364   2.958   9.849   6.141  0.1901  0.3350  0.5327
  943MOL0     C24365   3.032   9.758   6.243 -0.1777  0.1188 -0.2400
  943MOL0     C24366   3.118   9.843   6.343 -0.7004  0.7210  0.2358
  943MOL0     C24367   3.038   9.950   6.419  0.3466  0.1821 -0.0421
  943MOL0     O24368   2.911   9.902   6.485 -1.0425  0.0338 -0.4199
  943MOL0     C24369   2.808   9.989   6.492  0.3423 -0.1073 -0.3885
  943MOL0     C24370   2.820  10.107   6.568  0.5336 -0.7537  0.2970
  943MOL0     C24371   2.718  10.204   6.571  0.3741 -0.0070 -0.0314
  943MOL0     C24372   2.598  10.190   6.510 -0.5842  1.2443 -0.2566
  943MOL0     C24373   2.485  10.284   6.496  0.1398 -0.1785  0.0318
  943MOL0     O24374   2.506  10.404   6.568 -0.0907  0.2822 -0.1439
  943MOL0     C24375   2.405  10.502   6.581 -0.0711  1.7999  0.1534
  943MOL0     C24376   2.318  10.524   6.480  0.1923  0.6316  0.4861
  943MOL0     C24377   2.204  10.599   6.494 -0.7712 -0.6580  0.1777
  943MOL0     C24378   2.193  10.682   6.612 -0.2252 -0.1628  0.0539
  943MOL0     O24379   2.104  10.785   6.621  0.3297 -0.3691 -0.2772
  943MOL0     C24380   1.973  10.748   6.571 -0.0329  0.7742 -0.2626
  943MOL0     C24381   1.869  10.811   6.665 -0.6822  0.8555 -0.3347
  943MOL0     C24382   1.726  10.764   6.629 -0.9300 -0.3911  0.1110
  943MOL0     C24383   1.623  10.811   6.744  0.6503 -0.3047  0.2322
  943MOL0     C24384   1.473  10.790   6.698 -0.1478 -0.1190  0.0890
  943MOL0     C24385   1.382  10.827   6.816 -0.1185  0.5297 -0.3209
  943MOL0     C24386   1.245  10.765   6.785  0.2377 -0.2480  0.6585
  943MOL0     C24387   1.140  10.783   6.893 -0.7662  0.8737  0.2145
  943MOL0    Cl24388   1.013  10.904   6.840 -0.0944 -0.0350 -0.6296
  943MOL0     C24389   2.289  10.667   6.718  0.1431  0.7159 -0.3332
  943MOL0     C24390   2.397  10.578   6.695  0.1943 -0.5688 -0.5546
  943MOL0     O24391   2.381  10.248   6.443  0.3896 -0.6777 -0.3721
  943MOL0     C24392   2.568  10.061   6.457 -0.4587  0.4231  0.2310
  943MOL0     C24393   2.674   9.966   6.437  0.5095 -0.5268 -0.7787
  943MOL0     N24394   3.098  10.051   6.047 -0.5803  0.4395  0.9779
  943MOL0     N24395   3.206  10.055   5.972 -0.0474  0.9570 -0.0858
  943MOL0     C24396   2.917  10.826   5.728 -0.6875  0.6462 -0.2229
  943MOL0     C24397   2.850  10.933   5.789  0.5961 -0.3531 -1.0365
  943MOL0     C24398   2.776  11.306   5.992  0.4662 -0.1728 -0.3224
  943MOL0     C24399   2.694  11.299   6.100 -0.0677 -0.8670 -0.1126
  943MOL0     C24400   2.646  11.415   6.159  0.3042  0.0319  0.0974
  943MOL0     C24401   2.678  11.538   6.103  0.3649  0.3256  0.9777
  943MOL0     O24402   2.627  11.651   6.146  0.7207 -0.0419  0.1183
  943MOL0     C24403   2.570  11.663   6.274  0.7818 -0.6193 -1.5306
  943MOL0     C24404   2.555  11.812   6.301 -0.1886  0.3480  0.8011
  943MOL0     C24405   2.693  11.865   6.349 -0.4404 -0.8881 -0.1578
  943MOL0     C24406   2.682  12.007   6.397 -0.8038  0.7050 -0.6205
  943MOL0     C24407   2.709  12.091   6.275 -0.9866 -0.0455  0.7063
  943MOL0     C24408   2.692  12.152   6.173 -0.9078 -0.0680  0.0225
  943MOL0     C24409   2.755  11.545   5.986 -0.0143  0.3277 -0.2619
  943MOL0     C24410   2.802  11.425   5.931  0.2649 -0.0695  0.8914
  943MOL0     H24411   2.880  10.864   6.121 -1.2253 -2.2535  0.2195
  943MOL0     H24412   3.023  10.679   6.020  0.9471 -0.6732 -1.4249
  943MOL0     H24413   3.208  10.594   5.912  3.1608  0.2057  0.0372
  943MOL0     H24414   3.252  10.726   5.791  0.1251 -0.3104 -0.6483
  943MOL0     H24415   3.405  10.543   5.761  0.7101  0.4763 -2.8845
  943MOL0     H24416   3.308  10.568   5.623  1.5825  1.4807  0.4656
  943MOL0     H24417   3.162  10.359   5.705  0.8372 -1.5794 -1.1517
  943MOL0     H24418   3.301  10.343   5.821  2.6358 -2.5286 -2.3649
  943MOL0     H24419   3.295  10.316   5.525  1.9613 -2.1181 -0.8460
  943MOL0     H24420   3.442  10.352   5.616 -0.4519  1.1046  0.9744
  943MOL0     H24421   3.416  10.159   5.744  2.4762 -0.0618 -0.9000
  943MOL0     H24422   3.447  10.121   5.588  0.8293 -0.8483  3.3928
  943MOL0     H24423   3.187  10.060   5.554 -0.7432  0.8039  0.0913
  943MOL0     H24424   3.177  10.097   5.724 -1.4026 -3.8892  1.1211
  943MOL0     H24425   3.185   9.875   5.664  0.6749  1.8939 -0.3263
  943MOL0     H24426   3.358   9.892   5.608 -0.0872  1.4141 -2.0620
  943MOL0     H24427   3.422   9.979   5.850  3.3296 -4.6789  4.1939
  943MOL0     H24428   3.370   9.810   5.846 -2.7923 -0.7700  2.0039
  943MOL0     H24429   3.112   9.749   5.920 -1.1436  1.0603 -3.7068
  943MOL0     H24430   2.890   9.787   6.082 -0.7230 -0.1084  2.0080
  943MOL0     H24431   2.903   9.922   6.201  2.2061 -0.4752  3.6005
  943MOL0     H24432   3.097   9.688   6.190 -2.4594 -1.7852 -0.7051
  943MOL0     H24433   2.960   9.696   6.297 -2.9499  2.4866 -0.9864
  943MOL0     H24434   3.158   9.775   6.419  0.3900  0.6377 -0.3919
  943MOL0     H24435   3.210   9.882   6.298 -0.2290 -1.7915 -1.2015
  943MOL0     H24436   3.011  10.035   6.357 -1.1156  0.7913  1.3659
  943MOL0     H24437   3.104   9.996   6.493 -0.1772 -1.6841  1.6706
  943MOL0     H24438   2.911  10.130   6.622  0.0380 -1.3892  1.4180
  943MOL0     H24439   2.726  10.296   6.628 -0.8249  1.1682 -1.6520
  943MOL0     H24440   2.310  10.479   6.382 -0.2536 -0.1133  0.8505
  943MOL0     H24441   2.140  10.603   6.407 -1.2305  1.4557  0.5846
  943MOL0     H24442   1.964  10.640   6.555  4.0113 -0.1089  1.9135
  943MOL0     H24443   1.960  10.795   6.473 -0.6260  0.1294 -0.5055
  943MOL0     H24444   1.871  10.920   6.677 -0.2222  0.6322  2.0566
  943MOL0     H24445   1.888  10.766   6.762  2.3290  1.3493 -0.5902
  943MOL0     H24446   1.719  10.654   6.624  1.3154 -0.6221  0.9752
  943MOL0     H24447   1.693  10.809   6.535  0.4733 -1.5332 -0.9704
  943MOL0     H24448   1.628  10.744   6.831 -1.9742 -1.4524 -0.3938
  943MOL0     H24449   1.637  10.916   6.770 -1.8837  0.6528 -1.8205
  943MOL0     H24450   1.455  10.683   6.681  1.5616 -0.4342  0.0849
  943MOL0     H24451   1.454  10.858   6.615 -2.3177 -2.3998 -1.4460
  943MOL0     H24452   1.361  10.930   6.846 -2.7792 -0.0303 -0.0204
  943MOL0     H24453   1.417  10.774   6.905 -0.9873 -0.3550 -0.4949
  943MOL0     H24454   1.206  10.814   6.695  1.3127 -1.5847 -0.6005
  943MOL0     H24455   1.250  10.660   6.757 -0.6894  0.0074 -0.5529
  943MOL0     H24456   1.175  10.814   6.992  0.9501  0.2195 -0.1582
  943MOL0     H24457   1.104  10.680   6.903 -1.4742  0.7482 -2.7127
  943MOL0     H24458   2.299  10.731   6.805  0.6517  2.6895 -1.7764
  943MOL0     H24459   2.474  10.573   6.771  1.1511  2.1560 -1.2029
  943MOL0     H24460   2.481  10.049   6.393 -0.1249  1.6873 -0.5055
  943MOL0     H24461   2.658   9.901   6.351  1.0394 -0.2650 -1.0853
  943MOL0     H24462   2.937  10.816   5.622 -0.9346  1.1498 -0.3199
  943MOL0     H24463   2.806  11.004   5.720 -1.5469 -0.4363  0.1725
  943MOL0     H24464   2.674  11.201   6.143 -0.3364 -0.0271  1.8006
  943MOL0     H24465   2.581  11.401   6.245  3.5518  0.6411  2.8745
  943MOL0     H24466   2.633  11.612   6.348 -0.3612  2.1172  1.5533
  943MOL0     H24467   2.473  11.613   6.279  0.3805  0.2431  0.5865
  943MOL0     H24468   2.538  11.855   6.202  0.6341 -5.8232 -2.4863
  943MOL0     H24469   2.469  11.825   6.367 -0.5946 -4.2918  1.5303
  943MOL0     H24470   2.773  11.860   6.274 -0.0598  0.8730  0.0879
  943MOL0     H24471   2.717  11.800   6.434  0.8891 -2.2101 -1.4891
  943MOL0     H24472   2.585  12.022   6.445 -0.8886 -2.8522  0.6738
  943MOL0     H24473   2.765  12.015   6.468  0.5690 -0.7352 -1.9740
  943MOL0     H24474   2.667  12.194   6.078  3.5633  1.1221 -0.8446
  943MOL0     H24475   2.770  11.638   5.932  0.4356 -1.1139 -2.7541
  943MOL0     H24476   2.864  11.446   5.845 -0.7361  1.9737  0.6033
  944MOL0     O24477   3.547   1.749   6.045  0.2465  0.3803  0.1940
  944MOL0     C24478   3.480   1.652   6.017  0.8600 -0.1527 -0.5535
  944MOL0     O24479   3.350   1.623   6.048  0.3609  0.5255  0.4334
  944MOL0     C24480   3.284   1.719   6.119  0.5849  0.8660 -0.8505
  944MOL0     C24481   3.211   1.680   6.232 -0.3766  0.1808 -0.4796
  944MOL0     C24482   3.144   1.766   6.313 -0.0483 -0.4054 -0.0128
  944MOL0     C24483   3.122   1.901   6.266  0.1912 -0.7376  0.3247
  944MOL0     O24484   3.035   1.995   6.318 -0.7490  0.1294  0.5157
  944MOL0     C24485   2.988   1.981   6.443 -0.3512 -0.0308 -0.0216
  944MOL0     C24486   2.903   2.103   6.468  0.3948 -0.2889  0.4726
  944MOL0     C24487   2.966   2.201   6.575  0.2665  0.4584 -0.7177
  944MOL0     C24488   2.909   2.341   6.568  0.4213  0.4651  0.1718
  944MOL0     C24489   2.969   2.424   6.681 -0.1702  0.5805  0.0619
  944MOL0     C24490   2.919   2.567   6.676  0.0960 -0.5167 -0.3275
  944MOL0     C24491   3.002   2.665   6.761 -0.6282  0.1767 -0.3515
  944MOL0     C24492   2.951   2.807   6.762  0.5218 -0.3466  0.0442
  944MOL0     N24493   2.839   2.826   6.853  0.0833  0.6442 -0.2513
  944MOL0     C24494   2.706   2.831   6.813 -0.7091  2.0566  1.6435
  944MOL0     C24495   2.627   2.818   6.918  0.4477  0.2167 -0.7667
  944MOL0     C24496   2.481   2.819   6.927  0.0785  0.2387 -1.2366
  944MOL0     C24497   2.417   2.944   6.979 -1.0107 -0.1880  0.1131
  944MOL0     C24498   2.273   2.938   7.020 -0.2377 -0.2093  0.3002
  944MOL0     C24499   2.216   3.082   7.051 -0.0594  0.4608  0.2078
  944MOL0     O24500   2.308   3.166   7.129  0.5554  0.1957 -0.1168
  944MOL0     C24501   2.271   3.191   7.259  0.0850  0.3718  0.8387
  944MOL0     C24502   2.266   3.323   7.304 -0.4573  0.0086 -0.3494
  944MOL0     C24503   2.239   3.355   7.435  0.3319  0.0642 -1.2044
  944MOL0     C24504   2.216   3.263   7.532  1.0475  0.2174  0.4723
  944MOL0     C24505   2.182   3.295   7.669 -0.1925 -0.1255  0.4259
  944MOL0     O24506   2.154   3.428   7.684  0.3290 -0.5640  0.4617
  944MOL0     C24507   2.097   3.482   7.794 -0.4483 -0.0155  0.3590
  944MOL0     C24508   2.105   3.428   7.922  0.0657 -0.0714  0.0500
  944MOL0     C24509   2.034   3.489   8.024 -0.0077 -0.1679  0.7675
  944MOL0     C24510   1.980   3.611   8.011  0.4475 -0.4205  0.1695
  944MOL0     O24511   1.947   3.672   8.130  0.2568  0.6321  0.3138
  944MOL0     C24512   1.888   3.803   8.131 -0.1235  0.4147  0.0670
  944MOL0     C24513   1.997   3.912   8.102 -0.4568  0.7152  0.1609
  944MOL0     C24514   2.116   3.903   8.193 -0.0134 -0.2274  0.0092
  944MOL0     C24515   2.236   3.991   8.130  0.5623  0.9229  0.4627
  944MOL0     C24516   2.333   4.034   8.231  0.1810 -0.3107 -0.1561
  944MOL0     C24517   2.360   3.928   8.345  0.5706  1.4012  0.5590
  944MOL0     C24518   2.490   3.958   8.425 -0.0641  0.0438  0.9431
  944MOL0     C24519   2.518   3.838   8.512  0.4793 -0.5589 -0.0592
  944MOL0    Cl24520   2.374   3.833   8.622  0.3902  0.0369  0.0228
  944MOL0     C24521   1.980   3.675   7.882 -0.0030 -0.0090 -0.2097
  944MOL0     C24522   2.019   3.599   7.772 -0.3523 -0.2903  0.2522
  944MOL0     O24523   2.166   3.203   7.749  0.7040  0.2379 -0.1458
  944MOL0     C24524   2.212   3.127   7.488  0.4515 -0.3805  0.6165
  944MOL0     C24525   2.245   3.094   7.353  0.0741 -0.2579  0.0613
  944MOL0     N24526   2.710   2.799   7.026  0.7227 -0.2139 -0.4994
  944MOL0     N24527   2.832   2.798   6.989  0.1475 -0.2289  0.2557
  944MOL0     C24528   3.178   1.931   6.140  0.6764 -0.1301 -0.3636
  944MOL0     C24529   3.274   1.852   6.076  0.9888 -0.3080 -0.2298
  944MOL0     C24530   3.561   1.550   5.944 -0.0395  0.7363 -0.1627
  944MOL0     C24531   3.688   1.565   5.911 -0.5253 -0.3160  1.0013
  944MOL0     C24532   3.758   1.473   5.837 -0.5382 -0.1183  0.0223
  944MOL0     C24533   3.703   1.358   5.785 -0.1148 -0.0581 -2.0610
  944MOL0     O24534   3.770   1.261   5.711  0.3412 -0.1225 -0.1611
  944MOL0     C24535   3.870   1.312   5.615 -0.1566 -0.1291 -0.2756
  944MOL0     C24536   3.900   1.217   5.496  0.5252  0.3034  0.1423
  944MOL0     C24537   3.993   1.267   5.379 -0.0441  0.2707 -0.2845
  944MOL0     C24538   4.018   1.169   5.260 -0.0816  0.9102 -0.0280
  944MOL0     C24539   4.054   1.043   5.325 -0.5592 -0.3652  0.7725
  944MOL0     C24540   4.085   0.931   5.363  0.2223  0.0387  0.6534
  944MOL0     C24541   3.568   1.339   5.815  0.2044  0.0447 -0.2443
  944MOL0     C24542   3.498   1.425   5.900  0.3841 -0.5932 -0.6489
  944MOL0     H24543   3.213   1.576   6.264  0.2628  0.1881 -0.4868
  944MOL0     H24544   3.112   1.730   6.410  0.8101 -2.6215 -0.5142
  944MOL0     H24545   3.066   1.999   6.518 -2.0121  2.8876  1.1809
  944MOL0     H24546   2.941   1.884   6.459  0.3338 -0.1483  1.5407
  944MOL0     H24547   2.803   2.070   6.495  0.6745 -1.3721  0.2408
  944MOL0     H24548   2.893   2.150   6.370  2.2832 -1.9713 -0.6081
  944MOL0     H24549   3.075   2.203   6.589  0.0830 -1.3178  1.3806
  944MOL0     H24550   2.930   2.148   6.663  0.0000  0.9282 -0.5437
  944MOL0     H24551   2.934   2.379   6.468 -1.0632 -0.0747 -0.4321
  944MOL0     H24552   2.800   2.336   6.568  0.4637 -1.6779  0.5191
  944MOL0     H24553   3.078   2.432   6.670 -0.2024 -2.0666 -5.5385
  944MOL0     H24554   2.949   2.374   6.776 -1.3696  0.8533 -0.0296
  944MOL0     H24555   2.815   2.559   6.707 -0.0797  3.0725  0.4266
  944MOL0     H24556   2.926   2.608   6.575  0.7053  0.6359  0.1633
  944MOL0     H24557   3.018   2.628   6.862 -0.6243 -2.2292 -1.1690
  944MOL0     H24558   3.101   2.676   6.714 -0.8764  0.0724 -0.9111
  944MOL0     H24559   2.918   2.843   6.664 -2.5071  1.0218  1.4182
  944MOL0     H24560   3.034   2.874   6.788 -0.9237  1.8901 -0.7979
  944MOL0     H24561   2.678   2.829   6.708  0.1687 -2.3492  1.3324
  944MOL0     H24562   2.446   2.739   6.994  0.6515  1.5839  0.7614
  944MOL0     H24563   2.444   2.796   6.826  0.6471  0.5010 -1.5040
  944MOL0     H24564   2.445   3.021   6.907  0.6176 -2.0815 -1.3894
  944MOL0     H24565   2.476   2.959   7.070 -0.6036  1.3868 -0.3792
  944MOL0     H24566   2.202   2.900   6.946 -0.0638  1.5409 -0.8472
  944MOL0     H24567   2.271   2.874   7.108  0.7549  0.8692  1.1370
  944MOL0     H24568   2.115   3.080   7.094 -0.6279 -1.8456 -1.0974
  944MOL0     H24569   2.219   3.138   6.957  1.4159 -3.3825 -2.2712
  944MOL0     H24570   2.295   3.389   7.224  1.2279 -0.8745 -0.5266
  944MOL0     H24571   2.247   3.461   7.454  2.0926 -0.2554  0.0567
  944MOL0     H24572   2.165   3.341   7.946 -0.3716 -0.9238 -1.8039
  944MOL0     H24573   2.039   3.445   8.123  3.8656 -0.3996  0.6221
  944MOL0     H24574   1.836   3.827   8.224  1.0674  4.0080 -0.0391
  944MOL0     H24575   1.814   3.809   8.051  2.3604  1.8133 -2.3303
  944MOL0     H24576   1.948   4.010   8.112 -1.0323  0.6550 -1.6636
  944MOL0     H24577   2.035   3.914   7.999  1.7850 -2.6350  0.7547
  944MOL0     H24578   2.152   3.801   8.199  1.4077  0.2455 -0.2122
  944MOL0     H24579   2.090   3.949   8.289  0.7414  0.8093 -0.2698
  944MOL0     H24580   2.282   3.939   8.045 -0.7796  0.1538  0.1786
  944MOL0     H24581   2.206   4.089   8.090  0.3839  0.6483 -0.0967
  944MOL0     H24582   2.285   4.119   8.280 -0.0176 -0.6754  0.2846
  944MOL0     H24583   2.414   4.070   8.167  1.6254 -1.1002  1.1542
  944MOL0     H24584   2.375   3.830   8.298  2.5479  0.8389  2.1862
  944MOL0     H24585   2.284   3.931   8.423 -0.3759  1.4799 -0.3426
  944MOL0     H24586   2.571   3.969   8.353 -0.5276  0.8670  0.5338
  944MOL0     H24587   2.479   4.052   8.478  1.1219  2.6550 -2.9928
  944MOL0     H24588   2.610   3.869   8.563  0.1274 -0.8564  0.7684
  944MOL0     H24589   2.537   3.742   8.464 -0.2539 -1.0269  0.5579
  944MOL0     H24590   1.944   3.777   7.868  0.2300  0.2072  0.6977
  944MOL0     H24591   2.004   3.642   7.674 -2.4092 -4.0143 -1.2335
  944MOL0     H24592   2.189   3.046   7.557  2.7765 -0.7994  1.0145
  944MOL0     H24593   2.243   2.990   7.323 -0.5356 -0.5798  1.1482
  944MOL0     H24594   3.156   2.028   6.097 -1.9236 -0.8002 -0.7325
  944MOL0     H24595   3.328   1.886   5.988  1.0811  1.2539  0.3927
  944MOL0     H24596   3.747   1.652   5.939 -1.8665  1.3514 -1.0392
  944MOL0     H24597   3.863   1.493   5.819 -1.3800  2.1562 -3.3788
  944MOL0     H24598   3.963   1.335   5.668  0.1378 -0.2629 -0.7379
  944MOL0     H24599   3.847   1.415   5.585  1.8619  0.1527 -1.0024
  944MOL0     H24600   3.925   1.119   5.538 -0.8079 -1.1105 -2.1494
  944MOL0     H24601   3.800   1.197   5.457  1.0606 -0.0862 -1.0697
  944MOL0     H24602   4.088   1.295   5.425  1.0919 -0.7989 -1.8740
  944MOL0     H24603   3.944   1.354   5.333 -0.2030 -0.0925 -0.8184
  944MOL0     H24604   3.922   1.152   5.210  0.6214 -0.2605 -1.0330
  944MOL0     H24605   4.094   1.206   5.191 -0.8027  1.3537 -0.5994
  944MOL0     H24606   4.099   0.827   5.387  1.7670  0.1383  0.3136
  944MOL0     H24607   3.516   1.267   5.753 -0.3042  1.8248 -1.9946
  944MOL0     H24608   3.390   1.425   5.913  0.5141 -0.6069  0.4813
  945MOL0     O24609   6.579   9.183   2.365  0.2166  0.6695  0.2472
  945MOL0     C24610   6.621   9.073   2.337 -0.0629  0.5200 -0.3951
  945MOL0     O24611   6.548   8.970   2.286  0.1466 -0.9327  0.2693
  945MOL0     C24612   6.416   8.987   2.240  0.2594  0.1902 -0.5889
  945MOL0     C24613   6.304   8.984   2.333  1.3152  0.0775 -0.0108
  945MOL0     C24614   6.173   8.996   2.294 -0.2109 -0.0102 -0.1311
  945MOL0     C24615   6.144   9.001   2.159  1.6295 -0.1632  0.2091
  945MOL0     O24616   6.020   8.984   2.100  0.3890 -0.2186  0.2863
  945MOL0     C24617   5.910   8.937   2.175 -0.1546  0.3169  0.8395
  945MOL0     C24618   5.831   9.048   2.238 -0.1059  0.4480  0.3418
  945MOL0     C24619   5.746   9.119   2.135 -0.8672 -1.1925 -0.8784
  945MOL0     C24620   5.661   9.215   2.216 -1.3104 -0.8501  0.1288
  945MOL0     C24621   5.584   9.306   2.125 -0.9670 -0.8274 -0.1781
  945MOL0     C24622   5.472   9.372   2.204  0.8774  0.1410  0.0622
  945MOL0     C24623   5.485   9.414   2.353 -1.3997  0.4122  0.3681
  945MOL0     C24624   5.397   9.532   2.386  0.0472 -0.0119  0.2235
  945MOL0     N24625   5.412   9.599   2.513 -0.0794  0.0702 -0.2714
  945MOL0     C24626   5.520   9.614   2.588  0.1287 -0.5330 -0.5203
  945MOL0     C24627   5.468   9.682   2.701 -0.8420 -0.0913  0.3321
  945MOL0     C24628   5.544   9.728   2.822 -0.1687 -0.3697 -0.2440
  945MOL0     C24629   5.630   9.612   2.872 -0.0954  0.7022 -0.1499
  945MOL0     C24630   5.677   9.633   3.018 -0.3405 -0.1973 -0.3384
  945MOL0     C24631   5.740   9.499   3.072  0.0228 -0.6698  0.0420
  945MOL0     O24632   5.884   9.498   3.040 -0.3765 -0.5082  0.3826
  945MOL0     C24633   5.976   9.552   3.127 -0.1300  0.0481  0.1672
  945MOL0     C24634   5.943   9.611   3.249  0.5937  0.7288 -0.1115
  945MOL0     C24635   6.055   9.663   3.317  0.5781 -0.1307 -0.2860
  945MOL0     C24636   6.186   9.644   3.285 -0.6289  0.1629  0.0397
  945MOL0     C24637   6.309   9.697   3.358  0.3385  0.0884  0.0853
  945MOL0     O24638   6.290   9.710   3.495 -0.4399 -0.1152 -0.0825
  945MOL0     C24639   6.394   9.669   3.577 -0.4383  0.7788 -0.1729
  945MOL0     C24640   6.367   9.584   3.680  0.0217  0.7260  0.3299
  945MOL0     C24641   6.464   9.544   3.767 -0.2506  0.6068 -0.1340
  945MOL0     C24642   6.596   9.581   3.757 -0.3055 -0.4206 -0.4265
  945MOL0     O24643   6.685   9.528   3.850 -0.4835 -0.2798 -0.0824
  945MOL0     C24644   6.818   9.583   3.857 -0.2034 -0.2978  0.2496
  945MOL0     C24645   6.889   9.514   3.963  0.3508 -0.0842  0.4469
  945MOL0     C24646   6.846   9.573   4.095  0.1480 -0.5891  0.2667
  945MOL0     C24647   6.928   9.517   4.214 -0.4369  0.1743  0.8276
  945MOL0     C24648   6.885   9.572   4.342 -0.7145 -0.3836 -0.9375
  945MOL0     C24649   6.985   9.521   4.446  0.6989  0.3068  0.1960
  945MOL0     C24650   6.955   9.583   4.582  0.2942  0.2479 -0.6833
  945MOL0     C24651   7.058   9.563   4.695 -0.3096 -0.3314  0.1844
  945MOL0    Cl24652   6.980   9.480   4.831 -0.2613  0.5887  0.2624
  945MOL0     C24653   6.631   9.670   3.661  0.7108 -0.7224  0.0240
  945MOL0     C24654   6.530   9.717   3.578 -0.3001 -0.7873  0.8223
  945MOL0     O24655   6.411   9.700   3.300 -0.3646 -0.4561  0.2379
  945MOL0     C24656   6.218   9.579   3.158 -0.3956  0.5846 -0.9158
  945MOL0     C24657   6.114   9.528   3.080  0.6628 -0.3594 -0.0149
  945MOL0     N24658   5.340   9.713   2.686  0.2723  0.3333 -0.5404
  945MOL0     N24659   5.309   9.654   2.576  0.0489  0.5999  0.0334
  945MOL0     C24660   6.251   9.015   2.071  0.9883  0.3197 -0.0566
  945MOL0     C24661   6.381   9.008   2.107 -1.0021 -0.0632 -0.6437
  945MOL0     C24662   6.768   9.057   2.364  0.4073  0.1953  1.3088
  945MOL0     C24663   6.852   9.158   2.416 -0.4406  1.0453  0.0623
  945MOL0     C24664   6.997   9.131   2.421 -0.2172  0.2858 -0.8377
  945MOL0     C24665   7.046   8.999   2.390 -0.2797 -1.0486  0.5440
  945MOL0     O24666   7.173   8.972   2.429  0.0938  0.1638 -0.5275
  945MOL0     C24667   7.269   9.063   2.486  0.4301  0.4689  0.9723
  945MOL0     C24668   7.367   8.986   2.575 -0.2288  0.3130  0.8491
  945MOL0     C24669   7.304   8.870   2.662 -0.2007 -0.0398  0.0007
  945MOL0     C24670   7.369   8.731   2.679  0.2256  0.1117 -0.2447
  945MOL0     C24671   7.505   8.747   2.736  0.1203 -0.4265  0.0031
  945MOL0     C24672   7.610   8.767   2.792 -0.6034 -0.1863  0.0570
  945MOL0     C24673   6.959   8.904   2.322 -0.7596 -0.8651  0.4299
  945MOL0     C24674   6.827   8.938   2.309  0.0167 -0.0521 -0.5315
  945MOL0     H24675   6.331   8.965   2.436 -1.1356 -2.0745  0.3254
  945MOL0     H24676   6.108   8.995   2.381 -1.0600 -1.6862 -0.7549
  945MOL0     H24677   5.942   8.867   2.253 -1.2190 -2.6990 -1.2245
  945MOL0     H24678   5.854   8.868   2.111  1.7055 -1.2374  0.7760
  945MOL0     H24679   5.907   9.110   2.286  0.5964  1.3966 -1.8808
  945MOL0     H24680   5.763   9.004   2.312 -1.3074  1.4869 -0.1078
  945MOL0     H24681   5.690   9.052   2.069  1.3756 -1.9652 -2.1226
  945MOL0     H24682   5.810   9.184   2.074 -0.2319  3.2638  3.8209
  945MOL0     H24683   5.605   9.156   2.289 -1.2647 -3.6735 -1.9641
  945MOL0     H24684   5.733   9.271   2.277 -1.9487  0.2220 -0.0692
  945MOL0     H24685   5.533   9.252   2.044 -1.3071 -0.1505 -0.4167
  945MOL0     H24686   5.652   9.380   2.084  0.0810 -0.7170  1.6427
  945MOL0     H24687   5.399   9.291   2.214  0.7605  0.4192  1.7312
  945MOL0     H24688   5.431   9.443   2.131  2.7331 -0.1298 -1.3192
  945MOL0     H24689   5.465   9.333   2.424 -3.4581  0.6924  0.1653
  945MOL0     H24690   5.589   9.446   2.366 -1.5739  1.3342 -0.4238
  945MOL0     H24691   5.296   9.492   2.379 -0.6236  1.8339 -1.6432
  945MOL0     H24692   5.402   9.600   2.301  1.6272 -0.1886  0.1400
  945MOL0     H24693   5.616   9.566   2.572 -0.0397 -1.5381  1.2775
  945MOL0     H24694   5.472   9.760   2.898 -1.7662 -1.2949 -1.3097
  945MOL0     H24695   5.607   9.812   2.793 -1.8878  0.5533 -1.4841
  945MOL0     H24696   5.717   9.588   2.810  1.4244  1.1603  1.7134
  945MOL0     H24697   5.570   9.521   2.869 -0.0567  0.6644  0.1881
  945MOL0     H24698   5.751   9.713   3.025  0.3777 -0.6203 -2.3581
  945MOL0     H24699   5.596   9.655   3.089 -0.0041  0.5761 -0.1840
  945MOL0     H24700   5.697   9.410   3.026 -2.6249  0.6303 -0.2409
  945MOL0     H24701   5.726   9.495   3.180 -0.8933  0.5213 -0.0082
  945MOL0     H24702   5.842   9.639   3.274  0.7567  1.5327 -0.3294
  945MOL0     H24703   6.034   9.728   3.402 -0.1501 -0.1858 -0.4174
  945MOL0     H24704   6.278   9.522   3.689 -0.0085  0.9765  2.3432
  945MOL0     H24705   6.433   9.483   3.851  0.4164  1.7199  0.9451
  945MOL0     H24706   6.818   9.692   3.856  2.0198 -0.1760 -3.1036
  945MOL0     H24707   6.868   9.557   3.763 -0.6927  0.2594 -0.1767
  945MOL0     H24708   6.995   9.529   3.941  0.1851 -1.2893 -1.3823
  945MOL0     H24709   6.869   9.408   3.947  1.1099 -0.1390 -0.1935
  945MOL0     H24710   6.739   9.553   4.106  0.3424 -1.4474  0.7165
  945MOL0     H24711   6.870   9.679   4.089 -2.1258  0.2791  3.9197
  945MOL0     H24712   6.928   9.409   4.232 -1.9748 -0.0183 -0.2092
  945MOL0     H24713   7.032   9.522   4.179 -1.0398 -3.6481 -2.2667
  945MOL0     H24714   6.794   9.522   4.378  0.7961 -1.9292  0.8891
  945MOL0     H24715   6.877   9.681   4.349 -1.4639 -0.5038  0.6199
  945MOL0     H24716   7.085   9.535   4.404  1.1773  0.0054  1.1940
  945MOL0     H24717   6.980   9.412   4.455  0.5379  0.0341 -2.3307
  945MOL0     H24718   6.972   9.691   4.575  3.4007 -0.0837  0.1002
  945MOL0     H24719   6.852   9.564   4.614  1.0980 -3.0953  0.2347
  945MOL0     H24720   7.096   9.660   4.729 -1.3749  0.9607 -2.0458
  945MOL0     H24721   7.147   9.507   4.664 -0.3386 -0.4714  0.3564
  945MOL0     H24722   6.726   9.723   3.668 -0.7309  1.8110  2.4017
  945MOL0     H24723   6.550   9.789   3.499  0.8901 -0.6133  1.2511
  945MOL0     H24724   6.317   9.565   3.118  0.8827 -3.9335  2.8904
  945MOL0     H24725   6.112   9.470   2.989 -2.6333  1.9125 -1.6291
  945MOL0     H24726   6.223   9.030   1.967 -3.6972  0.0639  0.9516
  945MOL0     H24727   6.452   9.021   2.026  0.3651  1.9034  0.7655
  945MOL0     H24728   6.806   9.255   2.432 -1.1678  1.2519 -2.8012
  945MOL0     H24729   7.060   9.215   2.451  1.7961 -1.2197 -0.6420
  945MOL0     H24730   7.206   9.127   2.549 -1.1865  0.6288 -0.7403
  945MOL0     H24731   7.319   9.126   2.413 -0.9677 -0.6275 -1.0163
  945MOL0     H24732   7.428   8.925   2.508 -0.5144 -0.0826  0.9414
  945MOL0     H24733   7.430   9.062   2.621 -1.0662  1.7924 -0.3651
  945MOL0     H24734   7.195   8.863   2.657 -0.0647 -1.0675 -3.4193
  945MOL0     H24735   7.300   8.911   2.764 -1.1580  3.8011 -1.3876
  945MOL0     H24736   7.310   8.670   2.748  1.6091 -0.4331  0.4862
  945MOL0     H24737   7.361   8.688   2.579 -0.9482 -0.0788 -0.0881
  945MOL0     H24738   7.702   8.775   2.847 -0.7369 -0.7656  0.3835
  945MOL0     H24739   6.990   8.813   2.272  2.2766  0.5661 -0.5426
  945MOL0     H24740   6.768   8.858   2.265  0.4646 -0.8229  0.2345
  946MOL0     O24741   8.009   3.998   7.631 -0.5414 -0.0454 -1.1911
  946MOL0     C24742   8.014   4.076   7.729 -0.1543 -0.2242  0.1820
  946MOL0     O24743   8.129   4.142   7.776 -0.2131  0.1791 -0.2747
  946MOL0     C24744   8.250   4.114   7.716 -0.4549  0.5157  0.3702
  946MOL0     C24745   8.274   4.125   7.577  0.1534  0.3224  0.4722
  946MOL0     C24746   8.404   4.123   7.529  0.3586 -0.7576 -0.0212
  946MOL0     C24747   8.510   4.119   7.617  0.5831  0.8783 -1.1369
  946MOL0     O24748   8.636   4.115   7.562 -0.3240  0.6247  0.1872
  946MOL0     C24749   8.754   4.149   7.644 -1.7556  0.0365  0.5517
  946MOL0     C24750   8.869   4.146   7.544  0.8491  0.2082 -0.4886
  946MOL0     C24751   9.007   4.191   7.593 -0.2604 -0.6170 -0.0069
  946MOL0     C24752   9.112   4.185   7.477  0.8186  0.4117 -0.1335
  946MOL0     C24753   9.256   4.230   7.528  0.4204  0.1250 -0.4762
  946MOL0     C24754   9.370   4.158   7.447 -0.3809 -0.3625  0.0355
  946MOL0     C24755   9.508   4.224   7.446 -0.0904 -0.0902  0.9677
  946MOL0     C24756   9.578   4.220   7.582  0.7108  0.1908 -0.0128
  946MOL0     N24757   9.715   4.264   7.574  0.1657 -1.1669 -0.1416
  946MOL0     C24758   9.835   4.191   7.590  0.3112  0.2869  0.2814
  946MOL0     C24759   9.931   4.282   7.565  0.3514 -0.8050  0.3727
  946MOL0     C24760  10.080   4.259   7.578 -0.0238  0.0968  0.2089
  946MOL0     C24761  10.142   4.299   7.719  0.0704  0.7045 -0.0644
  946MOL0     C24762  10.140   4.186   7.825  0.2445 -0.7546  0.7768
  946MOL0     C24763  10.240   4.073   7.794  0.8506  0.1694 -0.9697
  946MOL0     O24764  10.378   4.115   7.804  0.7393 -0.6339 -0.0960
  946MOL0     C24765  10.465   4.010   7.808  0.0177  0.2298  0.3591
  946MOL0     C24766  10.603   4.036   7.816 -0.2562  0.4785 -0.0494
  946MOL0     C24767  10.695   3.932   7.849  0.4115 -0.7171 -0.1103
  946MOL0     C24768  10.661   3.799   7.860 -0.1754  0.4030  0.5123
  946MOL0     C24769  10.751   3.694   7.900 -0.2794  0.5847 -0.2781
  946MOL0     O24770  10.858   3.745   7.963 -0.0068  0.0246  0.0543
  946MOL0     C24771  10.943   3.679   8.041 -0.0245 -0.4533  0.3972
  946MOL0     C24772  11.083   3.699   8.017 -1.2547 -0.1880 -0.3961
  946MOL0     C24773  11.181   3.648   8.100  0.0285 -0.1687 -0.2281
  946MOL0     C24774  11.149   3.559   8.201  0.2999  0.1096 -0.3635
  946MOL0     O24775  11.262   3.515   8.279  0.0166  0.1674 -0.5612
  946MOL0     C24776  11.248   3.419   8.383  0.9238  0.0759 -0.5181
  946MOL0     C24777  11.367   3.436   8.480 -0.0963 -0.3734  0.2387
  946MOL0     C24778  11.497   3.369   8.446 -0.2400  0.0468  0.1717
  946MOL0     C24779  11.490   3.220   8.395 -0.2149 -0.4507 -0.3409
  946MOL0     C24780  11.622   3.148   8.415 -0.2036  0.6914  0.1145
  946MOL0     C24781  11.736   3.201   8.342 -0.3400 -0.0310 -0.9614
  946MOL0     C24782  11.867   3.143   8.384  0.7192 -0.3652 -0.4466
  946MOL0     C24783  11.979   3.215   8.314 -0.3987  0.5285  0.3578
  946MOL0    Cl24784  12.146   3.177   8.385 -0.1623  0.1247 -0.0514
  946MOL0     C24785  11.015   3.525   8.216 -0.9331 -0.2721  0.1350
  946MOL0     C24786  10.915   3.582   8.141  0.1114  0.0151  0.0696
  946MOL0     O24787  10.727   3.571   7.886 -0.5853 -0.2331  0.1817
  946MOL0     C24788  10.519   3.772   7.833  0.3937 -0.5109  0.4365
  946MOL0     C24789  10.432   3.875   7.807  0.2551 -0.1105  0.4037
  946MOL0     N24790   9.875   4.398   7.526  0.4361 -0.1326  0.0560
  946MOL0     N24791   9.744   4.392   7.540  0.1167 -0.1469 -0.5512
  946MOL0     C24792   8.488   4.110   7.756 -0.4433 -0.7317  0.6970
  946MOL0     C24793   8.358   4.104   7.802 -0.4208 -0.4705  0.5537
  946MOL0     C24794   7.884   4.096   7.801 -0.3787  0.0573  0.6950
  946MOL0     C24795   7.772   4.041   7.755  0.3753 -0.2663 -0.7913
  946MOL0     C24796   7.647   4.061   7.824  0.9593 -0.6805  0.2772
  946MOL0     C24797   7.636   4.110   7.957  0.2087  1.0618 -0.9890
  946MOL0     O24798   7.519   4.104   8.038 -0.4463  0.8489 -0.1251
  946MOL0     C24799   7.522   4.175   8.160 -0.2702  0.4034 -0.0205
  946MOL0     C24800   7.552   4.078   8.270 -0.5073  0.2164  0.1612
  946MOL0     C24801   7.577   4.145   8.405  0.1649 -1.0838 -0.7867
  946MOL0     C24802   7.446   4.172   8.493  0.6373  1.2769  0.1341
  946MOL0     C24803   7.485   4.243   8.613 -0.4612 -0.1722  0.2906
  946MOL0     C24804   7.518   4.298   8.713  0.6210 -0.4625  0.1948
  946MOL0     C24805   7.761   4.159   8.008  0.6904  1.2592 -0.0405
  946MOL0     C24806   7.882   4.144   7.937 -0.1061  0.0949  0.3500
  946MOL0     H24807   8.186   4.137   7.515  1.2152  4.0405 -0.5726
  946MOL0     H24808   8.408   4.107   7.422 -2.8998 -1.5359 -0.1237
  946MOL0     H24809   8.781   4.092   7.734  3.5494  2.8244  1.1264
  946MOL0     H24810   8.750   4.252   7.680  3.3097  0.5528  0.3838
  946MOL0     H24811   8.844   4.206   7.456 -0.6450  1.3711  0.6786
  946MOL0     H24812   8.873   4.041   7.511 -2.9954  0.7188 -3.2012
  946MOL0     H24813   9.034   4.122   7.673 -0.5739  1.8061  2.3171
  946MOL0     H24814   9.004   4.295   7.628 -2.0015 -0.9257  0.8405
  946MOL0     H24815   9.123   4.089   7.425  1.1801  1.6262 -2.4274
  946MOL0     H24816   9.090   4.257   7.398 -0.0811  0.5183  0.2030
  946MOL0     H24817   9.263   4.210   7.635 -1.8002 -1.9191 -0.6127
  946MOL0     H24818   9.269   4.338   7.515 -2.8630  0.8619  1.0634
  946MOL0     H24819   9.333   4.142   7.346 -1.8069 -0.0759  0.4911
  946MOL0     H24820   9.383   4.064   7.502  3.3111 -0.0240 -0.0195
  946MOL0     H24821   9.560   4.154   7.380  0.3501 -0.1993  1.4240
  946MOL0     H24822   9.514   4.323   7.401 -1.9821 -1.1485 -1.9146
  946MOL0     H24823   9.577   4.114   7.612 -0.8318 -0.7620 -3.0132
  946MOL0     H24824   9.524   4.283   7.652  3.0774  1.7637  0.5272
  946MOL0     H24825   9.858   4.091   7.624  3.1396  0.4330 -0.9214
  946MOL0     H24826  10.112   4.318   7.492  2.1029 -1.4658 -0.1547
  946MOL0     H24827  10.101   4.157   7.546  1.2212 -0.6478  3.0758
  946MOL0     H24828  10.076   4.374   7.763 -2.8444  0.8264 -4.1071
  946MOL0     H24829  10.247   4.330   7.711  0.8888 -1.6228  0.9331
  946MOL0     H24830  10.163   4.233   7.921  0.9665 -1.9060  1.1874
  946MOL0     H24831  10.036   4.151   7.832 -1.4305  2.2465 -4.0923
  946MOL0     H24832  10.222   4.022   7.699 -0.9291  1.3587 -1.3143
  946MOL0     H24833  10.213   4.003   7.873 -1.5497  0.2044 -1.6941
  946MOL0     H24834  10.644   4.134   7.794  1.6853 -0.6301 -1.7448
  946MOL0     H24835  10.794   3.971   7.871 -0.8817  1.8946  1.4989
  946MOL0     H24836  11.105   3.759   7.929 -0.8116 -1.8672 -1.4669
  946MOL0     H24837  11.276   3.695   8.075 -0.1768  0.4979  0.2166
  946MOL0     H24838  11.245   3.314   8.349 -1.1727 -0.5077  1.2272
  946MOL0     H24839  11.153   3.430   8.434 -0.3114 -0.9108 -2.4582
  946MOL0     H24840  11.342   3.403   8.582  3.7725  1.5696  2.0309
  946MOL0     H24841  11.391   3.543   8.489 -0.0743 -0.5552  3.6922
  946MOL0     H24842  11.572   3.389   8.523 -0.3771  0.2837  0.2474
  946MOL0     H24843  11.539   3.415   8.356 -0.6251 -1.0426 -0.5898
  946MOL0     H24844  11.405   3.167   8.439 -1.1489 -0.6133 -2.2242
  946MOL0     H24845  11.459   3.224   8.290 -3.4266  0.8269  0.5317
  946MOL0     H24846  11.613   3.041   8.392 -2.0924  1.2612 -2.1901
  946MOL0     H24847  11.641   3.156   8.522  0.9590 -0.0109 -0.0225
  946MOL0     H24848  11.745   3.309   8.359 -1.2804 -0.0186 -0.4539
  946MOL0     H24849  11.728   3.178   8.236  2.0639  0.5242 -1.3050
  946MOL0     H24850  11.892   3.167   8.487  0.0560  3.4775 -1.0536
  946MOL0     H24851  11.870   3.034   8.371  3.0163 -0.3910 -0.0138
  946MOL0     H24852  11.984   3.321   8.342  0.4738  0.6152 -0.0815
  946MOL0     H24853  11.980   3.202   8.205 -1.4691 -2.7487  0.6509
  946MOL0     H24854  10.994   3.449   8.290 -2.1157  0.4830  0.5914
  946MOL0     H24855  10.810   3.571   8.166 -0.0211 -2.0355 -1.1083
  946MOL0     H24856  10.482   3.671   7.848 -0.0185 -0.8243 -2.3166
  946MOL0     H24857  10.328   3.847   7.803  0.1402 -0.1161  2.5250
  946MOL0     H24858   8.573   4.116   7.823  1.0106  1.5593 -1.2095
  946MOL0     H24859   8.345   4.102   7.910 -0.5663 -0.5771  0.5351
  946MOL0     H24860   7.779   3.990   7.659 -0.7477  2.2002 -2.2654
  946MOL0     H24861   7.561   4.009   7.782  2.8107 -1.7205 -2.5199
  946MOL0     H24862   7.429   4.228   8.185 -0.2485  0.5700 -0.2972
  946MOL0     H24863   7.590   4.260   8.162 -0.5917  0.6636 -0.1147
  946MOL0     H24864   7.469   4.007   8.270  1.2289 -1.9454 -0.4424
  946MOL0     H24865   7.638   4.016   8.243 -0.7090  0.2374 -0.5748
  946MOL0     H24866   7.625   4.242   8.410  0.3419 -1.2276  0.9644
  946MOL0     H24867   7.642   4.080   8.465  0.3226  1.1552  1.6505
  946MOL0     H24868   7.367   4.224   8.437 -0.0440 -0.5570 -0.6881
  946MOL0     H24869   7.403   4.078   8.528 -2.2559  2.2952 -0.4087
  946MOL0     H24870   7.550   4.354   8.798 -0.8453  1.8954 -0.7057
  946MOL0     H24871   7.776   4.195   8.109 -0.7930 -0.4359  0.8323
  946MOL0     H24872   7.972   4.194   7.971 -1.6811  1.9351  2.0919
  947MOL0     O24873   3.386   2.818   8.077  0.6538  0.7010 -0.0258
  947MOL0     C24874   3.289   2.837   8.146  0.6937 -0.8746 -0.4875
  947MOL0     O24875   3.195   2.743   8.160  0.0074 -0.2703 -0.3216
  947MOL0     C24876   3.219   2.615   8.111  0.4803 -0.9952  0.0729
  947MOL0     C24877   3.320   2.533   8.153 -0.2384 -0.4014  0.0408
  947MOL0     C24878   3.338   2.409   8.089 -0.6775 -0.0571  0.3947
  947MOL0     C24879   3.234   2.348   8.012  0.3566 -0.5390  0.1993
  947MOL0     O24880   3.249   2.217   7.972 -0.0707  0.1092 -0.3004
  947MOL0     C24881   3.120   2.153   7.935 -1.4035 -0.1732  0.4233
  947MOL0     C24882   3.162   2.018   7.870  0.5446  0.6856  0.3256
  947MOL0     C24883   3.205   1.917   7.979 -0.8625  0.1189  0.3279
  947MOL0     C24884   3.212   1.779   7.920 -0.0497  0.8940  0.3907
  947MOL0     C24885   3.272   1.661   7.988  0.4921 -0.0577 -0.5002
  947MOL0     C24886   3.418   1.708   8.032  0.2401  0.9689 -0.5693
  947MOL0     C24887   3.490   1.578   8.087 -0.5078 -0.1941 -0.3085
  947MOL0     C24888   3.436   1.525   8.211  0.0592  0.2878  0.2587
  947MOL0     N24889   3.427   1.630   8.311  0.3964 -0.9502 -0.7151
  947MOL0     C24890   3.535   1.688   8.375  0.0645 -0.1149  0.2218
  947MOL0     C24891   3.489   1.776   8.461 -0.1263 -0.0547 -0.1145
  947MOL0     C24892   3.553   1.869   8.569  0.0095 -0.6998 -0.0242
  947MOL0     C24893   3.541   1.811   8.710 -0.8818  1.2789  0.4617
  947MOL0     C24894   3.662   1.739   8.764  0.1048 -0.0280 -0.6561
  947MOL0     C24895   3.648   1.697   8.912  0.6960 -0.6626 -1.0084
  947MOL0     O24896   3.684   1.825   8.988  0.2645  0.1644 -0.1270
  947MOL0     C24897   3.819   1.842   9.011  0.7704 -0.0919  1.4090
  947MOL0     C24898   3.849   1.949   9.092  0.8288  0.2317  0.3850
  947MOL0     C24899   3.985   1.980   9.108  0.5171 -0.4403 -0.1115
  947MOL0     C24900   4.093   1.908   9.047  0.3263 -0.4303 -0.6775
  947MOL0     C24901   4.236   1.933   9.094  1.0518  0.2254  0.8250
  947MOL0     O24902   4.330   1.857   9.038 -0.8767  0.1422  0.0235
  947MOL0     C24903   4.459   1.889   9.047  0.4428 -0.3245 -0.0091
  947MOL0     C24904   4.552   1.825   9.140  1.0138  0.2327 -0.8187
  947MOL0     C24905   4.684   1.857   9.142 -0.7662  0.0484 -0.0607
  947MOL0     C24906   4.740   1.957   9.070  0.4213  1.1362  0.5046
  947MOL0     O24907   4.872   1.982   9.102 -0.0801  0.5409 -0.1197
  947MOL0     C24908   4.935   2.083   9.032  0.2188  0.2335 -0.1365
  947MOL0     C24909   5.076   2.107   9.088 -0.1839 -0.5279  0.9019
  947MOL0     C24910   5.166   2.207   9.026  0.1319 -1.3123 -0.5435
  947MOL0     C24911   5.105   2.344   9.069  0.0337 -1.0843 -0.2145
  947MOL0     C24912   5.192   2.456   9.014 -0.8825  0.0243 -0.1474
  947MOL0     C24913   5.140   2.603   9.030  0.2870 -0.8691  0.9102
  947MOL0     C24914   5.248   2.713   9.000 -0.7186 -0.6480 -0.8393
  947MOL0     C24915   5.316   2.754   9.128  0.6600 -0.4312 -0.4236
  947MOL0    Cl24916   5.461   2.849   9.086  0.3168 -0.0760 -0.3109
  947MOL0     C24917   4.662   2.023   8.977  0.7279  0.8403 -0.5570
  947MOL0     C24918   4.525   1.983   8.966  1.1586 -0.2798 -0.1411
  947MOL0     O24919   4.247   2.033   9.168  0.2261  0.0415  0.2420
  947MOL0     C24920   4.057   1.813   8.955 -0.0904 -0.1326 -0.4097
  947MOL0     C24921   3.921   1.775   8.945 -0.4033 -0.4876 -0.0051
  947MOL0     N24922   3.349   1.772   8.445 -0.5673 -0.1996  0.1372
  947MOL0     N24923   3.312   1.686   8.361  0.9506  0.7847 -0.4638
  947MOL0     C24924   3.127   2.436   7.984  0.8357 -0.5913 -0.0269
  947MOL0     C24925   3.118   2.565   8.029 -0.0598 -0.0333 -0.4812
  947MOL0     C24926   3.291   2.958   8.223  0.1374  0.1585  0.2279
  947MOL0     C24927   3.370   3.067   8.179 -0.5070  0.0645  1.0287
  947MOL0     C24928   3.366   3.186   8.253  0.1433 -0.3619  0.9778
  947MOL0     C24929   3.284   3.197   8.367  0.2185  0.2796 -0.4481
  947MOL0     O24930   3.277   3.313   8.447  0.5603 -0.0284  0.2496
  947MOL0     C24931   3.293   3.439   8.387  0.5780 -0.4889  0.7645
  947MOL0     C24932   3.286   3.537   8.503  0.7152 -1.0035  0.8354
  947MOL0     C24933   3.285   3.689   8.449  0.5276  0.4712  0.4492
  947MOL0     C24934   3.312   3.792   8.562 -0.6347  0.5447  0.6956
  947MOL0     C24935   3.337   3.914   8.491  0.0653 -0.0116  0.8687
  947MOL0     C24936   3.360   4.020   8.438 -0.8975 -0.1453  0.1345
  947MOL0     C24937   3.217   3.087   8.420  0.0324 -0.2480  0.4675
  947MOL0     C24938   3.211   2.966   8.341  0.9941  0.7401 -0.5079
  947MOL0     H24939   3.393   2.574   8.222  0.6069 -0.1654 -0.9774
  947MOL0     H24940   3.417   2.339   8.115 -3.1859 -2.4065  2.2915
  947MOL0     H24941   3.077   2.210   7.852 -1.5865  1.7036  1.7324
  947MOL0     H24942   3.046   2.143   8.015  0.2070 -1.1962  1.8454
  947MOL0     H24943   3.235   2.026   7.789  1.0025  2.1927  0.8520
  947MOL0     H24944   3.083   1.960   7.821  1.5300 -2.7505  2.4921
  947MOL0     H24945   3.126   1.922   8.055 -0.7636  3.0542  0.3826
  947MOL0     H24946   3.296   1.960   8.023 -2.9535  3.6574  1.6738
  947MOL0     H24947   3.112   1.755   7.882  0.0976  1.6479 -0.5018
  947MOL0     H24948   3.263   1.778   7.824  1.0980  2.3283  0.9509
  947MOL0     H24949   3.263   1.580   7.915 -1.1159  2.6100 -3.5118
  947MOL0     H24950   3.215   1.646   8.080 -0.9077 -0.5309 -1.4109
  947MOL0     H24951   3.404   1.777   8.115 -1.6701 -2.8047  2.5513
  947MOL0     H24952   3.469   1.742   7.941 -1.7036 -0.1748 -2.1844
  947MOL0     H24953   3.491   1.510   8.002 -0.0152 -1.6674  0.8433
  947MOL0     H24954   3.592   1.603   8.117 -0.7610  1.0832 -0.4264
  947MOL0     H24955   3.494   1.436   8.239  0.3040  0.0116 -1.0664
  947MOL0     H24956   3.332   1.495   8.194  0.3383 -1.0990  0.8554
  947MOL0     H24957   3.641   1.672   8.363  0.3421 -0.3087  2.4964
  947MOL0     H24958   3.505   1.968   8.569 -0.8160 -0.8865  4.5785
  947MOL0     H24959   3.655   1.866   8.528 -0.4337 -2.0574 -1.0778
  947MOL0     H24960   3.454   1.745   8.716  0.6770 -1.0174 -0.6108
  947MOL0     H24961   3.533   1.901   8.771  0.1646  1.1053  0.8781
  947MOL0     H24962   3.691   1.647   8.711  1.2630  0.2660 -0.5555
  947MOL0     H24963   3.742   1.813   8.757  0.6557 -0.7902 -3.3657
  947MOL0     H24964   3.705   1.611   8.948  0.8051 -1.3242 -2.6678
  947MOL0     H24965   3.542   1.669   8.923  0.7876 -0.5440  0.3623
  947MOL0     H24966   3.767   2.014   9.119 -1.5675 -2.9282  1.3121
  947MOL0     H24967   3.999   2.063   9.176  1.3058  0.7658 -1.6676
  947MOL0     H24968   4.518   1.742   9.201  2.2223 -1.5309 -2.4126
  947MOL0     H24969   4.738   1.794   9.213 -2.5825  0.1586  1.5141
  947MOL0     H24970   4.879   2.177   9.024  0.1968  0.1873 -0.5340
  947MOL0     H24971   4.953   2.032   8.937  0.0428  0.4596 -0.2939
  947MOL0     H24972   5.135   2.015   9.082  1.3632  0.5007 -1.0176
  947MOL0     H24973   5.068   2.125   9.195  3.9209  1.3894  1.0907
  947MOL0     H24974   5.175   2.192   8.918 -2.1916 -0.9984 -0.8339
  947MOL0     H24975   5.260   2.195   9.080  0.1530 -2.2875 -0.7813
  947MOL0     H24976   5.003   2.357   9.033  0.8427  1.2781 -1.8225
  947MOL0     H24977   5.098   2.349   9.178 -0.9358  2.9073 -0.3286
  947MOL0     H24978   5.214   2.449   8.907 -1.1262 -2.8025 -0.0854
  947MOL0     H24979   5.285   2.446   9.072 -0.3151  2.1996 -0.5547
  947MOL0     H24980   5.091   2.625   9.125  0.5037 -1.0668  1.0674
  947MOL0     H24981   5.065   2.608   8.951 -2.4017 -1.3372  3.2685
  947MOL0     H24982   5.320   2.682   8.923  1.4675  0.3130  0.7170
  947MOL0     H24983   5.198   2.805   8.969 -0.6569  0.2597  1.5396
  947MOL0     H24984   5.356   2.667   9.182  3.9013  0.0598 -1.8325
  947MOL0     H24985   5.258   2.822   9.190 -0.0670 -0.6870 -0.8078
  947MOL0     H24986   4.701   2.106   8.920  0.4822  1.6964  0.4943
  947MOL0     H24987   4.462   2.047   8.905  0.2620  0.7419  1.7862
  947MOL0     H24988   4.122   1.751   8.895  0.1017 -0.9770  0.6362
  947MOL0     H24989   3.896   1.691   8.881  0.3636  0.6258 -1.8475
  947MOL0     H24990   3.051   2.396   7.919 -0.0214 -5.0540  3.2516
  947MOL0     H24991   3.037   2.634   8.010  0.1780 -0.0217 -1.5273
  947MOL0     H24992   3.436   3.064   8.093 -2.1541 -1.4971 -0.2472
  947MOL0     H24993   3.417   3.271   8.208 -1.2501 -0.3821 -0.7305
  947MOL0     H24994   3.213   3.463   8.316  0.5205 -0.3657  0.8692
  947MOL0     H24995   3.393   3.440   8.342 -0.2258  0.8205 -1.1401
  947MOL0     H24996   3.194   3.513   8.557  0.2586 -2.8274 -0.6832
  947MOL0     H24997   3.372   3.530   8.570  0.1956  0.4436  1.7052
  947MOL0     H24998   3.182   3.713   8.422  0.6622  1.8444  1.1163
  947MOL0     H24999   3.352   3.705   8.364 -1.0645  1.5711 -0.6506
  947MOL0     H25000   3.228   3.796   8.632 -1.6068  2.1229 -0.5165
  947MOL0     H25001   3.399   3.760   8.620 -0.8355  0.0329  0.7186
  947MOL0     H25002   3.373   4.113   8.385  0.8484 -1.2056 -1.4203
  947MOL0     H25003   3.167   3.089   8.516  1.8402  2.1062  1.4779
  947MOL0     H25004   3.147   2.886   8.377  2.2572 -0.4562 -0.8614
  948MOL0     O25005   8.334  10.898   7.651 -0.2386 -0.5212  0.2738
  948MOL0     C25006   8.387  10.966   7.736  0.0779  0.0777 -1.0873
  948MOL0     O25007   8.375  10.948   7.872 -0.2188  0.5229 -0.3310
  948MOL0     C25008   8.265  10.892   7.933 -0.8568 -0.3903  0.0805
  948MOL0     C25009   8.288  10.823   8.055 -0.3842  0.7234  0.3458
  948MOL0     C25010   8.179  10.762   8.127  0.0940 -0.4564 -0.4759
  948MOL0     C25011   8.050  10.769   8.061  0.8907 -0.1097 -0.6565
  948MOL0     O25012   7.950  10.691   8.103 -0.6761 -0.2098 -0.8355
  948MOL0     C25013   7.824  10.755   8.103 -0.3954  0.0711  0.2881
  948MOL0     C25014   7.733  10.702   8.218 -0.4181 -0.3936  0.4694
  948MOL0     C25015   7.741  10.551   8.246  0.1256 -0.4115  0.6005
  948MOL0     C25016   7.682  10.500   8.384 -0.0098 -0.5202 -0.0222
  948MOL0     C25017   7.618  10.360   8.371 -0.2374 -0.6251 -0.0127
  948MOL0     C25018   7.544  10.317   8.498 -0.3767  0.3478  0.4739
  948MOL0     C25019   7.523  10.165   8.486  0.1858 -0.2870  0.6889
  948MOL0     C25020   7.418  10.110   8.585  0.0073  0.4580  0.4375
  948MOL0     N25021   7.469  10.106   8.724 -0.7443  0.3455  0.1267
  948MOL0     C25022   7.495   9.992   8.791  0.1937  0.1706 -0.1397
  948MOL0     C25023   7.521  10.035   8.923  0.0859 -0.1674  0.6059
  948MOL0     C25024   7.541   9.967   9.046 -0.1349 -0.3034  0.3420
  948MOL0     C25025   7.694   9.970   9.071 -0.4427  0.8204  0.2004
  948MOL0     C25026   7.750   9.870   9.171  0.3093  1.0762  0.2871
  948MOL0     C25027   7.762   9.731   9.113  0.0054  0.5227 -0.1337
  948MOL0     O25028   7.814   9.645   9.225 -0.1786 -0.2212  0.3989
  948MOL0     C25029   7.949   9.627   9.240 -0.3658  0.1685  0.5411
  948MOL0     C25030   8.049   9.641   9.130 -0.8112  0.0079 -0.6969
  948MOL0     C25031   8.179   9.602   9.150 -1.2150  0.6208  0.9298
  948MOL0     C25032   8.223   9.538   9.266  1.1635 -0.1045 -0.9830
  948MOL0     C25033   8.359   9.468   9.296 -0.4949 -0.1257  0.4438
  948MOL0     O25034   8.393   9.429   9.421  0.4205 -0.1615  0.1602
  948MOL0     C25035   8.514   9.374   9.429 -0.0313 -0.1329  0.4819
  948MOL0     C25036   8.607   9.450   9.503 -0.0407  0.4972  0.4747
  948MOL0     C25037   8.730   9.394   9.519 -0.3749  0.1986  0.1016
  948MOL0     C25038   8.773   9.267   9.471  0.3999  0.1933  0.7292
  948MOL0     O25039   8.893   9.214   9.471  0.2843 -0.6861  0.2648
  948MOL0     C25040   8.994   9.264   9.557  0.1890  0.9188 -0.2272
  948MOL0     C25041   9.129   9.205   9.504  0.2447  0.5825 -0.1342
  948MOL0     C25042   9.160   9.062   9.543  1.6459 -0.6158  0.4064
  948MOL0     C25043   9.281   9.008   9.469  0.6390  0.5349  0.0839
  948MOL0     C25044   9.342   8.883   9.536 -0.3975 -0.3944 -1.1816
  948MOL0     C25045   9.469   8.839   9.476  0.0343 -0.4636  0.9328
  948MOL0     C25046   9.457   8.785   9.333  0.4592  0.1023  0.0965
  948MOL0     C25047   9.591   8.744   9.289  0.6454 -0.4349 -0.1693
  948MOL0    Cl25048   9.669   8.616   9.392  0.5946 -0.0812 -0.2089
  948MOL0     C25049   8.680   9.195   9.404  0.4131 -0.5503  0.7390
  948MOL0     C25050   8.547   9.251   9.377 -0.7679 -0.0371  0.3616
  948MOL0     O25051   8.434   9.458   9.198  0.5538 -0.5066 -0.1486
  948MOL0     C25052   8.124   9.510   9.366 -0.0681 -1.0012  1.0358
  948MOL0     C25053   8.000   9.567   9.358  0.8867 -1.4262  0.5167
  948MOL0     N25054   7.525  10.172   8.928  0.8504  0.1094  0.3768
  948MOL0     N25055   7.496  10.212   8.806  0.2837  0.3057 -0.0402
  948MOL0     C25056   8.031  10.846   7.940  0.2843 -0.2316 -0.0320
  948MOL0     C25057   8.138  10.909   7.880 -0.1670  0.0990 -0.1287
  948MOL0     C25058   8.463  11.083   7.695  1.2724 -0.0564 -0.5388
  948MOL0     C25059   8.515  11.168   7.796 -0.0499 -0.4060 -0.3888
  948MOL0     C25060   8.607  11.263   7.757  0.2173 -0.3007 -0.4749
  948MOL0     C25061   8.637  11.283   7.627  0.2862 -0.2973  0.7267
  948MOL0     O25062   8.709  11.396   7.595  0.0319  0.1686  0.2331
  948MOL0     C25063   8.742  11.429   7.462  0.6808 -0.7374 -0.2929
  948MOL0     C25064   8.859  11.346   7.407  1.1261 -0.0442 -0.3165
  948MOL0     C25065   8.901  11.384   7.265 -1.0741  0.4992 -0.8947
  948MOL0     C25066   8.995  11.508   7.281 -0.0077  0.6033 -0.4910
  948MOL0     C25067   9.066  11.535   7.154 -0.3236 -0.2991  0.1318
  948MOL0     C25068   9.119  11.577   7.051  0.5609 -0.9320  0.9489
  948MOL0     C25069   8.590  11.194   7.531  0.0906  0.8659 -0.0322
  948MOL0     C25070   8.491  11.104   7.565  0.4054 -0.5442  0.8302
  948MOL0     H25071   8.388  10.820   8.096  0.5960  1.2412 -1.8239
  948MOL0     H25072   8.197  10.708   8.219  0.4062 -1.2752 -0.9974
  948MOL0     H25073   7.775  10.730   8.009 -1.9957  0.7034  0.9099
  948MOL0     H25074   7.832  10.864   8.113 -1.0060  0.0730  0.7971
  948MOL0     H25075   7.633  10.726   8.180  0.4670  2.6167 -0.1416
  948MOL0     H25076   7.742  10.750   8.316 -0.1392 -3.3983  2.0319
  948MOL0     H25077   7.849  10.536   8.254  0.5344  1.7162 -0.4171
  948MOL0     H25078   7.699  10.487   8.168  1.8783 -2.9072  1.5556
  948MOL0     H25079   7.764  10.499   8.457  1.7874 -2.1076 -1.9343
  948MOL0     H25080   7.607  10.570   8.420 -1.0474 -1.5049 -0.1976
  948MOL0     H25081   7.697  10.285   8.354  1.9170  1.2428  1.1616
  948MOL0     H25082   7.549  10.361   8.287 -0.4700  2.2692  0.1301
  948MOL0     H25083   7.451  10.370   8.520 -0.6473  0.0210  0.1355
  948MOL0     H25084   7.612  10.338   8.581  1.2202 -2.8685  0.1372
  948MOL0     H25085   7.487  10.135   8.387  0.5576 -1.4032  0.8693
  948MOL0     H25086   7.618  10.112   8.504  0.8111  0.5981  0.0561
  948MOL0     H25087   7.392  10.009   8.552 -2.5609  0.9981  0.5527
  948MOL0     H25088   7.327  10.171   8.583 -0.1431  0.2229 -1.3200
  948MOL0     H25089   7.489   9.890   8.753  0.6131 -0.0126  0.2678
  948MOL0     H25090   7.513   9.861   9.045 -1.8380  0.0522 -3.0942
  948MOL0     H25091   7.489  10.015   9.129 -2.8276 -2.1588 -0.1258
  948MOL0     H25092   7.726  10.072   9.096  0.3582  1.1326 -1.8865
  948MOL0     H25093   7.739   9.950   8.973 -2.1959 -2.9700 -0.0148
  948MOL0     H25094   7.853   9.884   9.203  0.6663  1.5773 -1.0218
  948MOL0     H25095   7.696   9.872   9.266  3.2477 -0.4694  2.1499
  948MOL0     H25096   7.843   9.720   9.040 -0.2380 -1.4003 -0.1758
  948MOL0     H25097   7.673   9.693   9.062 -1.2121  2.1868  0.6773
  948MOL0     H25098   8.029   9.681   9.031 -3.0628  0.5465 -0.0645
  948MOL0     H25099   8.246   9.638   9.072  1.0949 -1.0313  2.0298
  948MOL0     H25100   8.575   9.530   9.569  0.5336 -0.5973  2.1755
  948MOL0     H25101   8.804   9.443   9.581  2.9226 -3.8030 -0.1769
  948MOL0     H25102   8.990   9.238   9.664  0.9914  0.7661 -0.2258
  948MOL0     H25103   8.994   9.373   9.550 -2.0268  0.9411 -0.4833
  948MOL0     H25104   9.221   9.251   9.541  1.3394 -1.8247  0.3219
  948MOL0     H25105   9.130   9.212   9.395 -0.7538  0.8001 -0.1440
  948MOL0     H25106   9.068   9.013   9.512  0.3506  2.2871 -0.7197
  948MOL0     H25107   9.180   9.049   9.650 -1.2685  1.4241  1.3178
  948MOL0     H25108   9.246   8.985   9.368  0.4574  2.8039 -0.4319
  948MOL0     H25109   9.370   9.071   9.465  0.4818  0.7767  0.3522
  948MOL0     H25110   9.271   8.801   9.544  1.1604 -2.0143 -2.8029
  948MOL0     H25111   9.372   8.920   9.635  0.5995 -0.6237 -1.3869
  948MOL0     H25112   9.505   8.761   9.542 -0.8667 -1.1290  0.6593
  948MOL0     H25113   9.528   8.931   9.467 -0.9923  0.0848 -0.6961
  948MOL0     H25114   9.383   8.704   9.330 -0.5603  1.0231 -0.4924
  948MOL0     H25115   9.422   8.868   9.270  3.4876  0.4599 -1.2995
  948MOL0     H25116   9.658   8.830   9.284  0.5447 -0.2132  1.7334
  948MOL0     H25117   9.592   8.713   9.184  2.7170 -1.0275 -0.0289
  948MOL0     H25118   8.694   9.097   9.359 -0.8632 -0.1186 -0.6921
  948MOL0     H25119   8.481   9.198   9.309 -0.3429  0.3872 -0.3915
  948MOL0     H25120   8.150   9.453   9.455  0.9427 -1.1762  0.6336
  948MOL0     H25121   7.925   9.549   9.435  1.3637 -3.6141  0.5067
  948MOL0     H25122   7.941  10.866   7.883  0.2160 -0.4288  0.0045
  948MOL0     H25123   8.131  10.970   7.791  0.8441 -0.3129 -0.5081
  948MOL0     H25124   8.499  11.164   7.904 -0.0850  0.6484 -0.3418
  948MOL0     H25125   8.646  11.336   7.828  0.6365  2.3963 -3.2863
  948MOL0     H25126   8.761  11.536   7.453 -1.1043 -0.5656 -3.1138
  948MOL0     H25127   8.654  11.412   7.400 -0.5001  2.3600  0.3441
  948MOL0     H25128   8.940  11.356   7.479  1.1726  1.5189 -0.5507
  948MOL0     H25129   8.829  11.241   7.404 -0.7125  0.4635 -2.0346
  948MOL0     H25130   8.829  11.395   7.183  0.3268 -1.5979 -2.5062
  948MOL0     H25131   8.961  11.302   7.224  0.6244  0.4433  1.4642
  948MOL0     H25132   8.921  11.589   7.285 -0.8695 -0.0332 -2.1876
  948MOL0     H25133   9.062  11.522   7.366  0.3193 -0.1374 -0.6176
  948MOL0     H25134   9.168  11.604   6.960  1.4413 -2.5556  0.9068
  948MOL0     H25135   8.622  11.197   7.428  4.3191  0.0768  1.0900
  948MOL0     H25136   8.436  11.043   7.492 -2.0003  1.4806  0.8058
  949MOL0     O25137  10.769   6.284   5.201 -1.0004 -0.3644  0.3746
  949MOL0     C25138  10.681   6.355   5.157  0.3376  0.6644  0.5919
  949MOL0     O25139  10.697   6.463   5.070  0.3308  0.1407 -0.2819
  949MOL0     C25140  10.827   6.473   5.014  0.7759 -0.2058 -0.3305
  949MOL0     C25141  10.825   6.487   4.879 -0.6969  0.0651  0.0701
  949MOL0     C25142  10.948   6.521   4.812 -0.1995  0.0973 -0.0061
  949MOL0     C25143  11.070   6.527   4.878  0.2565  0.0540 -0.7849
  949MOL0     O25144  11.183   6.553   4.811 -0.5090 -0.4601 -0.3657
  949MOL0     C25145  11.184   6.647   4.701 -0.1255  0.3825  0.3148
  949MOL0     C25146  11.171   6.792   4.761  0.3230 -0.0678  0.3499
  949MOL0     C25147  11.179   6.896   4.649 -0.3598  0.2229  0.9500
  949MOL0     C25148  11.179   7.035   4.696 -0.2874 -0.5090 -0.1417
  949MOL0     C25149  11.161   7.134   4.581 -0.3017  0.1438 -0.6422
  949MOL0     C25150  11.183   7.272   4.616  0.4046  0.0728 -0.5246
  949MOL0     C25151  11.089   7.319   4.731 -0.4869  0.7416  0.1904
  949MOL0     C25152  10.940   7.302   4.700  0.0195  0.5539  0.1439
  949MOL0     N25153  10.851   7.370   4.790 -0.6578  0.1454  0.3501
  949MOL0     C25154  10.743   7.439   4.764 -0.9732 -0.9761 -0.1435
  949MOL0     C25155  10.701   7.471   4.895  0.2242 -1.4936 -0.1141
  949MOL0     C25156  10.600   7.577   4.922 -0.1656  0.7609  0.1604
  949MOL0     C25157  10.464   7.506   4.923  1.4335  0.4658 -0.0250
  949MOL0     C25158  10.343   7.575   4.860 -0.1425 -1.0488 -0.6271
  949MOL0     C25159  10.203   7.511   4.882  0.4244 -0.3015 -0.6033
  949MOL0     O25160  10.098   7.609   4.889 -0.5792 -0.3227 -0.7216
  949MOL0     C25161   9.970   7.578   4.850  1.2929  1.0980  0.2424
  949MOL0     C25162   9.899   7.457   4.885 -0.6102 -0.5779  0.8261
  949MOL0     C25163   9.772   7.435   4.823  0.1275  0.5545 -0.0156
  949MOL0     C25164   9.694   7.540   4.770  0.7743  0.7865  0.5497
  949MOL0     C25165   9.558   7.525   4.724 -0.1026  0.4801  0.5441
  949MOL0     O25166   9.491   7.403   4.744 -0.1587 -0.2707 -1.1391
  949MOL0     C25167   9.353   7.386   4.716  0.4811 -1.2968 -0.1438
  949MOL0     C25168   9.314   7.361   4.590 -0.4183  0.2147 -0.0328
  949MOL0     C25169   9.180   7.326   4.563 -0.5160  0.5209  0.0353
  949MOL0     C25170   9.080   7.322   4.665 -0.2518 -0.7312 -0.2795
  949MOL0     O25171   8.957   7.275   4.630 -0.8253  0.3280 -0.2706
  949MOL0     C25172   8.860   7.252   4.739 -0.4953 -0.0858  0.9374
  949MOL0     C25173   8.772   7.363   4.800 -0.0870  0.3607  0.2339
  949MOL0     C25174   8.740   7.473   4.704 -0.0823  1.1157  1.0034
  949MOL0     C25175   8.664   7.589   4.765 -0.1696 -0.5908  0.3846
  949MOL0     C25176   8.647   7.703   4.673 -0.2975 -0.0492 -0.2797
  949MOL0     C25177   8.586   7.834   4.730  0.1936  0.6001 -0.0907
  949MOL0     C25178   8.446   7.807   4.794 -0.5460  0.6369 -0.5751
  949MOL0     C25179   8.366   7.935   4.836  0.0986  0.4439 -0.6383
  949MOL0    Cl25180   8.229   7.899   4.942 -0.3243  0.3636  0.0764
  949MOL0     C25181   9.126   7.371   4.790 -0.6646 -0.3125 -0.6701
  949MOL0     C25182   9.267   7.395   4.819  0.7450  0.8616 -0.1166
  949MOL0     O25183   9.514   7.611   4.641 -0.5143  0.1617 -0.3932
  949MOL0     C25184   9.765   7.657   4.751  0.2166 -0.5256 -0.8542
  949MOL0     C25185   9.897   7.668   4.786 -0.2531 -0.2631 -0.1224
  949MOL0     N25186  10.768   7.395   4.986 -0.2527 -0.9361 -0.1815
  949MOL0     N25187  10.851   7.324   4.918  0.0606  0.0881  0.0232
  949MOL0     C25188  11.068   6.535   5.018  0.6077  0.5360  0.1071
  949MOL0     C25189  10.942   6.503   5.077 -0.3766  0.5293 -0.6369
  949MOL0     C25190  10.547   6.318   5.207  0.4424 -0.0837  0.4002
  949MOL0     C25191  10.453   6.428   5.220 -0.2567  1.7045 -0.5644
  949MOL0     C25192  10.317   6.397   5.253  0.3887  0.3898 -0.0044
  949MOL0     C25193  10.273   6.256   5.275 -0.7670 -0.8325  0.8397
  949MOL0     O25194  10.149   6.207   5.292  0.0214  0.5021  0.6552
  949MOL0     C25195  10.038   6.287   5.304  0.2479 -0.4055  0.2390
  949MOL0     C25196   9.921   6.198   5.341  0.2461  0.3290 -0.7703
  949MOL0     C25197   9.948   6.081   5.436  0.4294 -0.8930 -0.6949
  949MOL0     C25198   9.813   6.016   5.483  0.1769 -1.3448  0.6116
  949MOL0     C25199   9.830   5.868   5.457  0.9011  0.1815  0.2095
  949MOL0     C25200   9.850   5.753   5.412 -1.2792  0.3288 -0.4557
  949MOL0     C25201  10.378   6.161   5.272 -0.4220 -0.5840 -0.1432
  949MOL0     C25202  10.510   6.190   5.236 -1.0883 -0.3104 -0.6432
  949MOL0     H25203  10.728   6.489   4.830 -0.3037  0.1621 -0.7375
  949MOL0     H25204  10.946   6.529   4.703 -0.9671  1.0277  0.0615
  949MOL0     H25205  11.114   6.613   4.624  0.9355 -0.7993 -0.1668
  949MOL0     H25206  11.285   6.646   4.658 -0.6317  0.9013 -0.9383
  949MOL0     H25207  11.243   6.828   4.835 -0.8939  2.3163  0.4604
  949MOL0     H25208  11.067   6.796   4.796 -1.1394  1.4818 -3.6068
  949MOL0     H25209  11.100   6.881   4.575 -1.5998  1.9944  1.8645
  949MOL0     H25210  11.274   6.879   4.596 -0.3588 -2.7292  1.7414
  949MOL0     H25211  11.106   7.050   4.776  0.9039 -1.2399  1.1343
  949MOL0     H25212  11.276   7.064   4.738 -0.8716 -1.1710  1.7464
  949MOL0     H25213  11.058   7.128   4.542 -0.2552 -2.3450 -0.5310
  949MOL0     H25214  11.224   7.106   4.496  1.4566  1.4179  0.1829
  949MOL0     H25215  11.173   7.340   4.531 -1.0752 -2.3236 -2.4313
  949MOL0     H25216  11.278   7.295   4.664 -0.4628  0.4126  1.1025
  949MOL0     H25217  11.114   7.270   4.826 -3.9575  1.9720  1.9424
  949MOL0     H25218  11.097   7.427   4.741 -1.7185  1.1773 -2.5922
  949MOL0     H25219  10.912   7.197   4.715  1.4171  0.2183  0.5338
  949MOL0     H25220  10.924   7.332   4.596 -1.5653  2.2996  0.8369
  949MOL0     H25221  10.716   7.498   4.678 -0.3271  2.8174  2.0090
  949MOL0     H25222  10.604   7.635   4.829 -1.9360 -1.6674 -1.5606
  949MOL0     H25223  10.618   7.632   5.015  0.1904 -4.2762  3.4539
  949MOL0     H25224  10.445   7.501   5.030  4.2305 -0.5722  0.5016
  949MOL0     H25225  10.462   7.412   4.867 -0.0931  2.5143 -3.7662
  949MOL0     H25226  10.355   7.669   4.914  2.5873 -2.0559  0.6903
  949MOL0     H25227  10.356   7.582   4.751 -3.6145 -0.0736 -1.0950
  949MOL0     H25228  10.207   7.446   4.970 -0.1356  0.4169 -0.0401
  949MOL0     H25229  10.184   7.439   4.801 -2.4780  0.2126 -0.5011
  949MOL0     H25230   9.953   7.380   4.940  0.7972  0.3536  0.8137
  949MOL0     H25231   9.732   7.335   4.835  2.0189 -0.4861 -1.6216
  949MOL0     H25232   9.385   7.348   4.508 -0.6303 -2.1769  0.0930
  949MOL0     H25233   9.157   7.316   4.458  0.0415  1.2241 -0.1620
  949MOL0     H25234   8.913   7.189   4.811  2.6320 -0.8586 -1.8081
  949MOL0     H25235   8.797   7.180   4.686  1.5975 -0.2968 -1.4554
  949MOL0     H25236   8.836   7.409   4.877  2.6000 -0.0619 -1.5932
  949MOL0     H25237   8.677   7.324   4.838 -0.5289 -0.8216 -1.9222
  949MOL0     H25238   8.675   7.440   4.622  1.4598 -0.1730  0.2596
  949MOL0     H25239   8.833   7.504   4.656  0.8609 -0.1229  1.9598
  949MOL0     H25240   8.578   7.567   4.828  0.1997 -0.8355  0.8129
  949MOL0     H25241   8.735   7.624   4.841  0.3935 -1.2043  0.1607
  949MOL0     H25242   8.586   7.676   4.586  2.0476  2.1274 -2.8147
  949MOL0     H25243   8.749   7.733   4.645 -0.8142  2.3304  0.1640
  949MOL0     H25244   8.579   7.910   4.653  2.4903  0.7483 -0.2267
  949MOL0     H25245   8.651   7.884   4.802  1.0514  0.8405 -1.0109
  949MOL0     H25246   8.392   7.745   4.722  2.1567  1.6877 -3.7323
  949MOL0     H25247   8.466   7.753   4.887 -0.1065  2.3364  0.3578
  949MOL0     H25248   8.330   7.987   4.746  2.1123  0.5766 -1.4250
  949MOL0     H25249   8.439   8.001   4.884  4.3428 -2.8593 -1.9669
  949MOL0     H25250   9.066   7.376   4.880 -0.6650  1.3188 -0.7239
  949MOL0     H25251   9.294   7.416   4.922 -1.3615  1.1192  0.4230
  949MOL0     H25252   9.722   7.746   4.706 -0.3055 -0.7847 -0.8632
  949MOL0     H25253   9.935   7.769   4.794 -2.7265  0.9888 -2.4307
  949MOL0     H25254  11.159   6.571   5.066 -0.6486  0.5719  2.6069
  949MOL0     H25255  10.923   6.502   5.184  1.1810 -1.4838 -0.3065
  949MOL0     H25256  10.485   6.530   5.204  2.5408  1.6708  3.3990
  949MOL0     H25257  10.242   6.475   5.249  1.1792  1.1162 -1.3647
  949MOL0     H25258  10.014   6.331   5.207 -1.3428 -1.2428  0.2158
  949MOL0     H25259  10.040   6.358   5.387  0.8768 -0.1752  0.0283
  949MOL0     H25260   9.844   6.260   5.388 -0.3111 -1.5723  0.9548
  949MOL0     H25261   9.877   6.161   5.249  2.4348  0.3827 -1.9009
  949MOL0     H25262   9.991   6.128   5.525 -1.5202  2.0431 -1.1858
  949MOL0     H25263  10.020   6.007   5.399  3.0922  0.8498  0.6801
  949MOL0     H25264   9.784   6.040   5.585 -1.3643  0.4025 -0.1852
  949MOL0     H25265   9.735   6.063   5.423  2.1517  0.6970 -0.5647
  949MOL0     H25266   9.880   5.657   5.377  2.8596  0.9419  0.8613
  949MOL0     H25267  10.353   6.057   5.293  0.2880 -0.5668  0.8472
  949MOL0     H25268  10.592   6.120   5.236  0.2625  1.1885  0.5994
  950MOL0     O25269   7.023   1.610   6.961  0.0785 -0.1823 -0.0346
  950MOL0     C25270   6.958   1.524   6.899  0.0171  0.0989 -0.5574
  950MOL0     O25271   6.835   1.478   6.941 -0.2656 -0.8678  0.4249
  950MOL0     C25272   6.775   1.507   7.061  0.5395 -0.1896 -0.0217
  950MOL0     C25273   6.841   1.535   7.180  0.1588  0.5323 -0.2191
  950MOL0     C25274   6.783   1.594   7.291  0.3977 -1.3627  0.2962
  950MOL0     C25275   6.643   1.608   7.298 -0.3017  0.0382 -0.0710
  950MOL0     O25276   6.578   1.689   7.380  0.2005 -0.0212 -0.3085
  950MOL0     C25277   6.640   1.697   7.506  0.7242 -0.2223 -0.2015
  950MOL0     C25278   6.543   1.727   7.623 -0.1042 -0.4828 -1.8382
  950MOL0     C25279   6.601   1.746   7.754  0.0331  0.0137 -0.6477
  950MOL0     C25280   6.508   1.786   7.879 -1.3809  0.2280 -0.1959
  950MOL0     C25281   6.453   1.932   7.860  0.7317  0.3625 -0.2395
  950MOL0     C25282   6.557   2.042   7.881  0.1448 -0.6198  0.1972
  950MOL0     C25283   6.604   2.045   8.028  0.5822 -0.5610  0.1859
  950MOL0     C25284   6.586   2.195   8.077  0.1552 -0.5837 -0.0533
  950MOL0     N25285   6.646   2.219   8.208  0.4274 -0.8249 -0.0949
  950MOL0     C25286   6.761   2.165   8.259  0.0028 -0.6419 -0.2453
  950MOL0     C25287   6.770   2.235   8.377  0.4222 -0.5830  0.0724
  950MOL0     C25288   6.897   2.227   8.464  0.5214  0.3866  0.0151
  950MOL0     C25289   7.023   2.255   8.386  0.0072 -0.7677  0.6691
  950MOL0     C25290   7.145   2.169   8.422  0.1268  0.7280 -0.1902
  950MOL0     C25291   7.274   2.228   8.368 -0.1553 -0.1955  0.8929
  950MOL0     O25292   7.272   2.249   8.231  0.4281  0.2194 -0.6004
  950MOL0     C25293   7.271   2.150   8.140  0.9431 -0.8480  0.0207
  950MOL0     C25294   7.224   2.176   8.011  0.2579  0.4026 -1.2260
  950MOL0     C25295   7.251   2.087   7.907  0.8747  0.4964 -0.7937
  950MOL0     C25296   7.321   1.966   7.929  0.7046 -0.8483 -1.7714
  950MOL0     C25297   7.361   1.885   7.819 -0.5285  0.2497  0.9153
  950MOL0     O25298   7.312   1.912   7.698  0.7741  0.2592 -0.6728
  950MOL0     C25299   7.335   1.831   7.595  0.6273 -0.3448  0.7239
  950MOL0     C25300   7.367   1.908   7.484  0.3460  0.5556 -0.2659
  950MOL0     C25301   7.387   1.837   7.364  0.1133 -0.5144 -0.8855
  950MOL0     C25302   7.369   1.697   7.351 -0.0611 -0.7956 -0.0673
  950MOL0     O25303   7.386   1.638   7.226  0.3846 -0.2757  0.7608
  950MOL0     C25304   7.312   1.696   7.121 -0.5570  0.4298  0.5298
  950MOL0     C25305   7.412   1.750   7.006 -0.8492 -0.3604 -0.3094
  950MOL0     C25306   7.344   1.803   6.884  0.3852  0.0500 -0.1518
  950MOL0     C25307   7.444   1.799   6.767  0.2008  0.2065 -1.1158
  950MOL0     C25308   7.395   1.886   6.654 -0.0983 -0.9358  0.2182
  950MOL0     C25309   7.480   1.894   6.524  0.3504  0.1368 -0.6356
  950MOL0     C25310   7.408   1.974   6.409 -0.2310 -0.0249 -0.0792
  950MOL0     C25311   7.436   1.896   6.281  0.0574 -0.1125 -0.5624
  950MOL0    Cl25312   7.610   1.874   6.264 -0.1568 -0.1226  0.3845
  950MOL0     C25313   7.324   1.626   7.468 -0.8933  0.6591 -0.1972
  950MOL0     C25314   7.292   1.693   7.584  0.3540  0.6196  0.8518
  950MOL0     O25315   7.439   1.788   7.836  0.1843 -0.0189 -0.1635
  950MOL0     C25316   7.362   1.942   8.062 -0.9566  0.2536  0.3677
  950MOL0     C25317   7.338   2.029   8.161  0.2905 -0.8623 -0.8303
  950MOL0     N25318   6.660   2.308   8.396 -0.1061 -0.1927 -1.0128
  950MOL0     N25319   6.579   2.295   8.298 -0.0040  0.5693  0.4919
  950MOL0     C25320   6.575   1.565   7.184 -0.4511 -0.0430  0.3196
  950MOL0     C25321   6.635   1.522   7.065  0.3752  1.1279  1.0359
  950MOL0     C25322   6.998   1.472   6.766  0.5876 -0.1871 -0.1660
  950MOL0     C25323   6.916   1.388   6.686 -0.1653  0.1625  0.3818
  950MOL0     C25324   6.947   1.340   6.559  0.1615 -0.8955 -0.1448
  950MOL0     C25325   7.072   1.365   6.505 -0.0176 -0.6275  0.5110
  950MOL0     O25326   7.070   1.341   6.373 -0.2552  0.5347  0.8272
  950MOL0     C25327   7.183   1.370   6.289 -0.4172  0.1547 -0.0697
  950MOL0     C25328   7.203   1.525   6.278  0.8082 -1.0099 -0.0477
  950MOL0     C25329   7.076   1.603   6.255  0.8759 -0.4224 -0.2386
  950MOL0     C25330   7.033   1.587   6.107 -0.2523  0.6238 -0.1273
  950MOL0     C25331   7.098   1.698   6.036 -0.6165 -0.3400 -0.6066
  950MOL0     C25332   7.169   1.782   5.982 -0.1097  0.4917  0.0251
  950MOL0     C25333   7.168   1.446   6.578  0.0740  0.1958  0.1923
  950MOL0     C25334   7.127   1.488   6.704  0.2407  0.6470 -0.5176
  950MOL0     H25335   6.946   1.506   7.183  0.3071  1.1487  2.3470
  950MOL0     H25336   6.844   1.641   7.367  0.1880  3.0873 -1.9822
  950MOL0     H25337   6.707   1.783   7.496  1.3116 -0.7965 -1.4599
  950MOL0     H25338   6.702   1.609   7.525 -0.3020 -0.8169  0.4569
  950MOL0     H25339   6.468   1.648   7.621 -2.0598  1.3116 -2.0756
  950MOL0     H25340   6.495   1.820   7.593  2.1839  0.4424 -2.8970
  950MOL0     H25341   6.684   1.817   7.751 -0.2860  0.3677 -1.2766
  950MOL0     H25342   6.641   1.647   7.776  1.5747  0.7910  0.2525
  950MOL0     H25343   6.431   1.709   7.888 -1.2629  0.1784  0.4274
  950MOL0     H25344   6.575   1.783   7.965 -0.8368  1.7192 -0.5346
  950MOL0     H25345   6.377   1.943   7.938  1.0182 -0.7871  0.2168
  950MOL0     H25346   6.400   1.951   7.766 -1.4797  0.4935  0.9696
  950MOL0     H25347   6.516   2.139   7.851 -2.3072 -0.7542  2.7565
  950MOL0     H25348   6.645   2.016   7.821  0.4106 -1.8726  1.0770
  950MOL0     H25349   6.546   1.976   8.092  1.9211 -1.4273  0.4964
  950MOL0     H25350   6.703   2.002   8.045  1.6119  1.1089 -1.2657
  950MOL0     H25351   6.479   2.216   8.070  0.4262  1.1304  0.4480
  950MOL0     H25352   6.636   2.276   8.022 -1.2406  2.1595  2.4601
  950MOL0     H25353   6.838   2.109   8.207  0.6643  0.1307 -0.1207
  950MOL0     H25354   6.894   2.127   8.506 -2.1593  0.6218  0.5680
  950MOL0     H25355   6.894   2.305   8.541  0.2974 -0.3059  0.7097
  950MOL0     H25356   7.056   2.357   8.408 -2.4435  0.3249 -0.3229
  950MOL0     H25357   7.000   2.248   8.280 -1.6324  0.5134  0.8972
  950MOL0     H25358   7.152   2.142   8.528  0.8379  2.7348  0.3140
  950MOL0     H25359   7.147   2.075   8.366 -0.8590  1.5678 -1.6914
  950MOL0     H25360   7.359   2.169   8.402 -0.5908 -0.5660  1.3733
  950MOL0     H25361   7.285   2.327   8.414  1.1755  1.7896 -3.1977
  950MOL0     H25362   7.187   2.276   7.991 -1.0209  0.7194  2.1836
  950MOL0     H25363   7.214   2.108   7.807  1.1938 -3.4640 -1.8955
  950MOL0     H25364   7.370   2.016   7.499 -0.4292  0.2604  2.5803
  950MOL0     H25365   7.420   1.907   7.287 -1.8601  3.2591  1.4272
  950MOL0     H25366   7.266   1.787   7.160 -0.7287 -0.0775  1.5551
  950MOL0     H25367   7.241   1.619   7.087  1.5050 -0.7545 -1.3649
  950MOL0     H25368   7.469   1.664   6.969  0.9828  0.4925  0.3631
  950MOL0     H25369   7.491   1.812   7.051 -0.7862 -0.6591 -0.0107
  950MOL0     H25370   7.313   1.907   6.894 -1.9848 -0.5678 -0.5340
  950MOL0     H25371   7.255   1.745   6.860  2.0033 -2.6658  0.0259
  950MOL0     H25372   7.532   1.856   6.800 -0.8918  2.1827 -1.4384
  950MOL0     H25373   7.474   1.700   6.733  0.0072  0.6264 -2.5997
  950MOL0     H25374   7.377   1.984   6.700 -2.4643 -1.1809 -0.0645
  950MOL0     H25375   7.301   1.844   6.616 -1.5442 -0.1201  2.5936
  950MOL0     H25376   7.491   1.792   6.488  0.0870  0.3317 -1.2750
  950MOL0     H25377   7.576   1.943   6.544 -0.5635  2.4501 -1.5184
  950MOL0     H25378   7.300   1.974   6.424 -0.3690  0.1460 -1.0254
  950MOL0     H25379   7.424   2.082   6.408 -2.3351  0.3201 -0.6028
  950MOL0     H25380   7.392   1.953   6.198  1.7897  4.6494  1.3793
  950MOL0     H25381   7.390   1.797   6.287  1.5488 -0.9100 -1.6151
  950MOL0     H25382   7.317   1.517   7.469  0.8892  0.5008 -0.9375
  950MOL0     H25383   7.239   1.648   7.667 -3.1326  4.6374  1.1118
  950MOL0     H25384   7.408   1.848   8.093 -1.7928 -0.4539 -0.4910
  950MOL0     H25385   7.370   1.993   8.259  1.4787 -0.6569 -1.1236
  950MOL0     H25386   6.466   1.571   7.181 -0.6029 -2.3434 -1.7749
  950MOL0     H25387   6.572   1.494   6.981  1.2323  3.3011 -0.4196
  950MOL0     H25388   6.821   1.352   6.723  0.0552  0.4754  1.2583
  950MOL0     H25389   6.865   1.285   6.515 -2.2445  2.0480  0.3538
  950MOL0     H25390   7.167   1.324   6.191  1.0170 -2.0868  0.6753
  950MOL0     H25391   7.277   1.322   6.315 -0.2094  0.5326 -0.1051
  950MOL0     H25392   7.248   1.571   6.367 -1.8640 -0.7896  1.2941
  950MOL0     H25393   7.274   1.553   6.200  0.4691  0.8382  0.2503
  950MOL0     H25394   7.084   1.708   6.286  1.6264 -0.5565  0.0298
  950MOL0     H25395   7.004   1.548   6.317  0.7107  0.2344  0.1663
  950MOL0     H25396   7.063   1.491   6.064 -3.6884  1.0675 -4.1336
  950MOL0     H25397   6.923   1.586   6.104 -0.2766  1.7598 -2.5828
  950MOL0     H25398   7.216   1.864   5.930 -1.5217  0.3804 -1.4881
  950MOL0     H25399   7.264   1.455   6.530  0.0556 -0.2775  0.0681
  950MOL0     H25400   7.196   1.545   6.766  0.0642  0.8630 -0.5186
  951MOL0     O25401   5.659   4.586   8.093 -0.4561  0.2322  0.9163
  951MOL0     C25402   5.680   4.650   7.990  0.7707 -0.1565 -0.0119
  951MOL0     O25403   5.793   4.722   7.955  0.4702  0.7469 -0.1468
  951MOL0     C25404   5.861   4.740   8.070 -0.7573 -0.5182 -0.4414
  951MOL0     C25405   5.981   4.678   8.081  0.1507 -0.3825  0.3751
  951MOL0     C25406   6.050   4.685   8.202  0.1061 -0.3333 -0.0093
  951MOL0     C25407   6.007   4.756   8.316 -0.2405  0.2284  0.7698
  951MOL0     O25408   6.092   4.774   8.422  0.1874 -0.2213 -0.5122
  951MOL0     C25409   6.074   4.882   8.516  0.0825  0.2281  0.1487
  951MOL0     C25410   6.184   4.893   8.616  0.5752 -0.2055  0.1228
  951MOL0     C25411   6.317   4.902   8.543  0.0918 -0.3308  0.7495
  951MOL0     C25412   6.431   4.948   8.626  0.1744  0.5023 -0.1363
  951MOL0     C25413   6.472   4.862   8.751  0.6581  0.3828  1.2976
  951MOL0     C25414   6.615   4.897   8.799 -0.4597 -0.6802  0.0312
  951MOL0     C25415   6.682   4.813   8.914  0.1242  0.1582  0.8141
  951MOL0     C25416   6.835   4.809   8.924  0.7131  0.0282 -0.0086
  951MOL0     N25417   6.896   4.719   9.023  0.7890 -0.2988 -0.2076
  951MOL0     C25418   6.943   4.591   9.007  1.2359 -0.8041 -0.1376
  951MOL0     C25419   7.008   4.560   9.122 -0.5693  0.5298 -0.3238
  951MOL0     C25420   7.084   4.427   9.122 -0.6023 -0.1769 -0.1910
  951MOL0     C25421   7.235   4.462   9.091 -0.4534  0.5541  1.7917
  951MOL0     C25422   7.316   4.340   9.140  0.7462 -0.3187  0.0408
  951MOL0     C25423   7.467   4.354   9.128  0.4481  0.2961 -0.0704
  951MOL0     O25424   7.530   4.232   9.165  0.4059  1.3061 -0.9166
  951MOL0     C25425   7.662   4.227   9.134  0.7469 -0.9432 -0.5707
  951MOL0     C25426   7.753   4.321   9.187  0.3284 -0.9039 -0.5854
  951MOL0     C25427   7.884   4.323   9.153  0.1564  0.6036  0.8402
  951MOL0     C25428   7.943   4.218   9.075  0.6825  0.6996 -0.8981
  951MOL0     C25429   8.085   4.213   9.046  0.6366 -0.6352  0.5740
  951MOL0     O25430   8.142   4.329   9.064 -0.0545 -0.0149  0.2871
  951MOL0     C25431   8.266   4.341   9.002  0.1239 -0.2339  0.4908
  951MOL0     C25432   8.375   4.278   9.052  0.2947  0.0916  0.4841
  951MOL0     C25433   8.499   4.279   8.986  0.5723 -0.5820 -0.5306
  951MOL0     C25434   8.515   4.364   8.873 -0.1564  0.7573  0.2298
  951MOL0     O25435   8.639   4.377   8.817  0.0083  0.9694 -0.4095
  951MOL0     C25436   8.640   4.389   8.665  0.5208  0.0578 -1.0287
  951MOL0     C25437   8.793   4.427   8.636  0.1149 -0.2873  0.0985
  951MOL0     C25438   8.813   4.464   8.495 -0.2572 -0.1102 -0.4397
  951MOL0     C25439   8.955   4.517   8.466 -0.7635  0.5826  0.1374
  951MOL0     C25440   8.963   4.581   8.323 -0.3833 -0.0138 -1.0821
  951MOL0     C25441   9.062   4.683   8.289 -0.1152 -1.0382 -0.7887
  951MOL0     C25442   9.196   4.643   8.353 -0.5131  0.5545  0.4838
  951MOL0     C25443   9.305   4.738   8.290 -0.4311  0.8598  0.2985
  951MOL0    Cl25444   9.469   4.706   8.377 -0.1477  0.0444  0.1613
  951MOL0     C25445   8.404   4.425   8.819 -0.3428 -0.7357  0.2488
  951MOL0     C25446   8.277   4.411   8.877 -0.6067  0.0123 -0.1511
  951MOL0     O25447   8.129   4.107   8.995 -0.2787 -0.4013  0.7615
  951MOL0     C25448   7.858   4.104   9.040  1.0046 -0.7628 -0.8658
  951MOL0     C25449   7.715   4.117   9.059  0.4423  0.0626  0.4808
  951MOL0     N25450   6.994   4.661   9.209 -0.2233  0.3625  0.2608
  951MOL0     N25451   6.926   4.754   9.149 -0.6401 -0.2862  0.5174
  951MOL0     C25452   5.892   4.830   8.295  0.0671 -0.9976  0.1819
  951MOL0     C25453   5.823   4.835   8.174 -0.2374 -0.5490 -0.1449
  951MOL0     C25454   5.561   4.666   7.903  0.8990  0.4507  0.0786
  951MOL0     C25455   5.437   4.598   7.927  0.1537 -0.3600 -0.9341
  951MOL0     C25456   5.331   4.613   7.838 -0.4427  1.2748  0.5023
  951MOL0     C25457   5.337   4.694   7.724  0.1017 -0.4760  0.2713
  951MOL0     O25458   5.238   4.728   7.638 -0.0048 -0.1663 -0.0108
  951MOL0     C25459   5.100   4.688   7.663 -0.0142 -0.4380  0.3217
  951MOL0     C25460   5.071   4.571   7.577 -0.0931 -0.4418  0.2514
  951MOL0     C25461   4.922   4.520   7.592 -0.2717  0.0751 -0.1827
  951MOL0     C25462   4.802   4.627   7.593  0.9544  0.2931  0.1532
  951MOL0     C25463   4.796   4.706   7.465  0.3819 -0.6791  0.1228
  951MOL0     C25464   4.802   4.780   7.365 -0.6362 -0.4765 -0.0248
  951MOL0     C25465   5.465   4.748   7.700  0.7406  0.4340 -0.3276
  951MOL0     C25466   5.578   4.734   7.788  0.0876  0.0891  0.3635
  951MOL0     H25467   6.006   4.614   7.997  0.7619  1.1480 -0.6592
  951MOL0     H25468   6.153   4.651   8.210 -0.1159 -1.5267 -1.5998
  951MOL0     H25469   5.984   4.862   8.576 -2.0964  5.8486 -0.6665
  951MOL0     H25470   6.063   4.978   8.466  0.0494 -0.2204 -0.7164
  951MOL0     H25471   6.184   4.805   8.681  4.1443 -0.2133  0.3146
  951MOL0     H25472   6.152   4.981   8.672 -1.3362 -0.0822 -1.0961
  951MOL0     H25473   6.315   4.972   8.459 -2.7381  0.6857  1.5546
  951MOL0     H25474   6.329   4.799   8.508 -0.1572 -0.3370  0.6799
  951MOL0     H25475   6.518   4.951   8.560 -1.0086 -0.8993 -1.8399
  951MOL0     H25476   6.410   5.049   8.662  1.4394  0.0235  2.0830
  951MOL0     H25477   6.476   4.759   8.716  4.2527  0.9910 -0.5550
  951MOL0     H25478   6.401   4.877   8.833  1.0306  1.7221  1.4056
  951MOL0     H25479   6.634   4.999   8.833  0.4613  0.4317 -3.4022
  951MOL0     H25480   6.668   4.891   8.703 -1.0105 -2.1582 -0.2011
  951MOL0     H25481   6.634   4.847   9.007 -3.4239 -1.7787 -0.1355
  951MOL0     H25482   6.633   4.716   8.908 -3.4574  1.8087  0.7638
  951MOL0     H25483   6.867   4.908   8.959  1.4649  0.0120 -0.6388
  951MOL0     H25484   6.880   4.785   8.828 -1.5648 -4.1080 -0.3015
  951MOL0     H25485   6.949   4.541   8.911 -0.7351 -1.1569 -0.1161
  951MOL0     H25486   7.036   4.352   9.059 -2.2343  3.5403 -3.8338
  951MOL0     H25487   7.082   4.398   9.228  2.2320 -1.8318 -0.4955
  951MOL0     H25488   7.264   4.556   9.139  2.5194  0.2189  0.8738
  951MOL0     H25489   7.257   4.478   8.985 -0.2816  0.6604  1.8442
  951MOL0     H25490   7.288   4.322   9.244  0.4487  0.2847  0.0682
  951MOL0     H25491   7.292   4.250   9.083  2.1710 -0.5505 -0.2297
  951MOL0     H25492   7.498   4.437   9.192 -0.5319  1.6732 -1.3209
  951MOL0     H25493   7.500   4.376   9.026  2.1526 -2.2738 -0.1816
  951MOL0     H25494   7.726   4.400   9.256  1.5312 -0.4349 -0.6251
  951MOL0     H25495   7.946   4.404   9.189  0.2005  1.1692 -0.4262
  951MOL0     H25496   8.358   4.231   9.148  1.3818 -0.3973  0.4519
  951MOL0     H25497   8.576   4.212   9.022  1.9319  0.2596 -1.7608
  951MOL0     H25498   8.584   4.471   8.618 -0.5580 -0.5312 -0.8091
  951MOL0     H25499   8.598   4.293   8.633 -3.7738 -0.3887  4.3424
  951MOL0     H25500   8.862   4.346   8.661  0.1059 -0.2855  0.1263
  951MOL0     H25501   8.806   4.514   8.700 -0.8419 -0.3288  0.3687
  951MOL0     H25502   8.744   4.547   8.476 -0.3840 -0.0728  0.1588
  951MOL0     H25503   8.795   4.378   8.431 -0.9129  0.3541 -0.8920
  951MOL0     H25504   8.986   4.589   8.542  2.3752 -0.4126 -0.0566
  951MOL0     H25505   9.028   4.436   8.460  3.8273  4.1924  1.4081
  951MOL0     H25506   8.871   4.631   8.293 -0.8079 -0.6305 -0.8162
  951MOL0     H25507   8.959   4.487   8.268 -3.0192 -0.3227 -0.5004
  951MOL0     H25508   9.020   4.775   8.331 -1.3962 -0.9573 -2.1769
  951MOL0     H25509   9.070   4.681   8.180 -0.1227 -4.4566 -0.8256
  951MOL0     H25510   9.186   4.663   8.460  1.4945  2.5748  0.3603
  951MOL0     H25511   9.225   4.545   8.316 -2.5240  0.3937 -0.8537
  951MOL0     H25512   9.281   4.843   8.305  0.9480  1.2194  0.1296
  951MOL0     H25513   9.330   4.707   8.188  1.3048 -0.9634  1.1949
  951MOL0     H25514   8.413   4.491   8.733  0.2618 -0.2885  0.6468
  951MOL0     H25515   8.182   4.450   8.841  0.4274  2.9360  0.0399
  951MOL0     H25516   7.912   4.021   8.994  1.0386 -1.1246 -0.1847
  951MOL0     H25517   7.647   4.045   9.014  0.9225 -0.0788 -0.0377
  951MOL0     H25518   5.856   4.892   8.377 -0.7086 -1.1080 -0.0649
  951MOL0     H25519   5.734   4.897   8.168  0.7079  0.7095 -4.4976
  951MOL0     H25520   5.417   4.546   8.021 -0.3936 -0.1296 -0.9196
  951MOL0     H25521   5.240   4.572   7.882  0.4064  1.3161  2.3960
  951MOL0     H25522   5.046   4.778   7.631  0.7297 -0.4692 -1.1165
  951MOL0     H25523   5.080   4.674   7.769  1.6082  0.6967  0.8187
  951MOL0     H25524   5.101   4.604   7.477  3.1610  3.6398  2.2561
  951MOL0     H25525   5.134   4.494   7.621 -1.0492  0.2427  3.0087
  951MOL0     H25526   4.920   4.454   7.679  1.9774  0.0641 -0.0749
  951MOL0     H25527   4.905   4.464   7.500  2.1121  0.3179 -0.8325
  951MOL0     H25528   4.704   4.581   7.603 -0.0301  2.4428  1.1613
  951MOL0     H25529   4.813   4.698   7.676  2.9830  0.6251 -0.3243
  951MOL0     H25530   4.813   4.849   7.283 -1.3382  3.7388  3.0784
  951MOL0     H25531   5.476   4.799   7.605  3.5618 -0.6004 -0.6519
  951MOL0     H25532   5.673   4.776   7.758  1.7688 -2.5351  1.6972
  952MOL0     O25533   8.327   7.099   6.515 -0.7046 -0.2737 -0.8963
  952MOL0     C25534   8.337   7.190   6.432 -0.3693  0.3699  0.0417
  952MOL0     O25535   8.433   7.286   6.426 -0.5004 -0.4615  0.2272
  952MOL0     C25536   8.564   7.277   6.488  0.2554 -0.5651 -0.1642
  952MOL0     C25537   8.674   7.336   6.427  0.6783 -0.0322  0.2687
  952MOL0     C25538   8.793   7.340   6.493  1.3073  0.6586  0.6243
  952MOL0     C25539   8.814   7.281   6.618  0.4132  0.7650  0.5420
  952MOL0     O25540   8.937   7.264   6.674 -0.0401 -0.3896  0.0630
  952MOL0     C25541   9.043   7.337   6.607 -0.2827 -0.5611 -0.0334
  952MOL0     C25542   9.157   7.299   6.695  0.8548 -1.0435 -0.3837
  952MOL0     C25543   9.278   7.385   6.659  0.7737 -0.4066  0.6387
  952MOL0     C25544   9.381   7.360   6.764  1.0200  0.3564  0.8488
  952MOL0     C25545   9.508   7.428   6.748  0.3973 -0.8547 -0.0469
  952MOL0     C25546   9.585   7.416   6.619 -0.0577 -0.3754  1.0894
  952MOL0     C25547   9.712   7.506   6.622  0.4574  0.3075 -0.4438
  952MOL0     C25548   9.831   7.428   6.672  0.3169 -0.5642 -0.0950
  952MOL0     N25549   9.882   7.323   6.580 -0.0169  0.9531 -0.3047
  952MOL0     C25550   9.847   7.190   6.593 -0.4720  0.1321  0.6197
  952MOL0     C25551   9.909   7.129   6.490 -0.3930  1.6614 -0.1027
  952MOL0     C25552   9.887   6.983   6.461  0.0026 -0.8845 -0.8967
  952MOL0     C25553   9.998   6.917   6.369  0.7272  0.4813 -1.1045
  952MOL0     C25554   9.962   6.778   6.319  0.0234  0.5100 -0.2365
  952MOL0     C25555   9.829   6.766   6.244  0.0386 -0.5114 -0.7923
  952MOL0     O25556   9.812   6.629   6.192  0.6748  0.5498 -1.0634
  952MOL0     C25557   9.685   6.602   6.141 -0.5319  0.3508 -0.9766
  952MOL0     C25558   9.668   6.608   5.998 -0.5819 -0.7609  0.3929
  952MOL0     C25559   9.546   6.609   5.945  0.9833  0.4397 -1.0624
  952MOL0     C25560   9.428   6.582   6.019 -0.4816  0.3186  0.1717
  952MOL0     C25561   9.302   6.579   5.955 -0.0406  0.0133 -0.5198
  952MOL0     O25562   9.205   6.535   6.043  0.8302 -0.5902 -0.5122
  952MOL0     C25563   9.073   6.507   6.010 -0.9129  0.1056 -0.4449
  952MOL0     C25564   8.987   6.477   6.119 -0.4081 -0.0913 -0.4351
  952MOL0     C25565   8.856   6.440   6.100 -0.0859  0.7680  0.2594
  952MOL0     C25566   8.794   6.446   5.976 -0.1303 -0.4379  0.5930
  952MOL0     O25567   8.659   6.429   5.960  0.4508  0.1212 -0.0800
  952MOL0     C25568   8.594   6.517   5.875  0.2172  0.1145  0.1257
  952MOL0     C25569   8.576   6.652   5.947 -0.6351  0.4774 -0.2916
  952MOL0     C25570   8.475   6.644   6.056 -0.6599 -0.4446 -0.2315
  952MOL0     C25571   8.331   6.690   6.016 -1.4773 -0.0059 -0.8622
  952MOL0     C25572   8.237   6.698   6.133 -0.6923 -0.3437  0.5906
  952MOL0     C25573   8.100   6.706   6.066 -0.8433  0.8753 -0.2231
  952MOL0     C25574   7.992   6.710   6.163  0.4756  0.2102 -0.7287
  952MOL0     C25575   7.855   6.732   6.093 -0.4178  0.6828 -0.0376
  952MOL0    Cl25576   7.793   6.894   6.124 -0.3060  0.3731  0.1948
  952MOL0     C25577   8.873   6.483   5.862  0.5598  0.6423 -0.6584
  952MOL0     C25578   9.013   6.501   5.883  0.0082  0.3636  0.1206
  952MOL0     O25579   9.284   6.610   5.838 -0.2971 -0.5043 -0.2164
  952MOL0     C25580   9.449   6.551   6.162 -0.0420 -0.2995 -0.2930
  952MOL0     C25581   9.582   6.559   6.218 -0.4863 -0.2238 -0.2798
  952MOL0     N25582   9.982   7.220   6.418  0.4004  0.0635 -0.8223
  952MOL0     N25583   9.966   7.333   6.476  0.0932 -0.6328 -0.1295
  952MOL0     C25584   8.702   7.216   6.676 -1.1392 -0.1567 -0.0972
  952MOL0     C25585   8.570   7.224   6.617 -0.9432 -0.1799  0.2504
  952MOL0     C25586   8.233   7.205   6.330 -0.0140 -0.3709 -0.1086
  952MOL0     C25587   8.158   7.096   6.282  0.3331 -0.6920 -0.0239
  952MOL0     C25588   8.074   7.106   6.171  0.7023  0.5239  0.1126
  952MOL0     C25589   8.066   7.221   6.096  0.9005 -0.8761  0.7895
  952MOL0     O25590   7.999   7.241   5.970 -0.3638 -0.2136 -0.4948
  952MOL0     C25591   7.969   7.125   5.899 -0.1162 -0.2312  1.4297
  952MOL0     C25592   7.946   7.148   5.746 -0.1370  0.8179 -0.2410
  952MOL0     C25593   8.070   7.149   5.655 -0.6853  1.2556  0.1237
  952MOL0     C25594   8.053   7.139   5.504  0.9502  0.3162 -0.0684
  952MOL0     C25595   7.972   7.250   5.453 -0.2357  0.4296  0.8604
  952MOL0     C25596   7.891   7.321   5.399 -0.3104  1.1076  0.2169
  952MOL0     C25597   8.135   7.328   6.138 -0.7580  0.1760  0.5213
  952MOL0     C25598   8.218   7.323   6.253  0.3269 -0.7138  0.5054
  952MOL0     H25599   8.657   7.359   6.323 -0.8105 -2.8256 -0.1924
  952MOL0     H25600   8.877   7.366   6.430 -0.0803 -1.1035 -2.1795
  952MOL0     H25601   9.034   7.444   6.628  0.9567 -0.1903 -1.2735
  952MOL0     H25602   9.064   7.312   6.502 -3.3782 -1.2885 -0.6050
  952MOL0     H25603   9.180   7.198   6.662  2.0829 -0.5653 -1.0786
  952MOL0     H25604   9.127   7.293   6.800  1.8019  0.5139  0.0101
  952MOL0     H25605   9.250   7.490   6.654  1.3138 -0.2399  1.1209
  952MOL0     H25606   9.314   7.370   6.556 -0.7880  0.3366 -0.0527
  952MOL0     H25607   9.321   7.389   6.850 -2.9009 -0.7599 -1.2884
  952MOL0     H25608   9.401   7.252   6.764  2.3151  0.5487 -0.7783
  952MOL0     H25609   9.566   7.380   6.827 -0.6294 -0.4571  0.9824
  952MOL0     H25610   9.505   7.534   6.778  3.5408 -0.8712  0.6645
  952MOL0     H25611   9.525   7.451   6.534  0.2429  0.0578  1.0556
  952MOL0     H25612   9.612   7.313   6.594  2.1400  0.1568  1.0620
  952MOL0     H25613   9.739   7.541   6.523  0.3939  1.4569 -0.0680
  952MOL0     H25614   9.695   7.590   6.691  2.3826 -0.9403  1.6804
  952MOL0     H25615   9.816   7.397   6.775 -2.1209 -0.8367 -0.4751
  952MOL0     H25616   9.909   7.504   6.682  1.7901 -2.0944  0.5294
  952MOL0     H25617   9.789   7.135   6.667 -1.8659 -1.2447 -1.3918
  952MOL0     H25618   9.789   6.993   6.413  0.0795  2.5600 -0.6048
  952MOL0     H25619   9.867   6.917   6.545  0.4451 -0.0853 -0.1430
  952MOL0     H25620  10.092   6.914   6.424 -0.2397  1.7204  0.7211
  952MOL0     H25621  10.015   6.970   6.275 -0.7763  1.3649 -0.9172
  952MOL0     H25622  10.045   6.733   6.264  2.0109 -0.8641  3.5358
  952MOL0     H25623   9.961   6.721   6.413 -0.1398  0.0492 -0.5145
  952MOL0     H25624   9.830   6.832   6.157 -0.7162  0.3006 -0.1957
  952MOL0     H25625   9.748   6.796   6.311 -0.6947 -1.1075 -1.3841
  952MOL0     H25626   9.751   6.618   5.929 -0.2264 -0.3506  0.8715
  952MOL0     H25627   9.532   6.616   5.837 -0.0181 -2.4005 -1.2046
  952MOL0     H25628   9.026   6.462   6.219  1.0035 -1.2122 -1.1210
  952MOL0     H25629   8.793   6.417   6.185 -4.3488  0.0039 -2.8069
  952MOL0     H25630   8.497   6.466   5.876 -0.2562  0.9745  2.1990
  952MOL0     H25631   8.627   6.531   5.772 -0.9376  1.5677 -0.0799
  952MOL0     H25632   8.534   6.725   5.877  0.5612 -0.1040 -1.6774
  952MOL0     H25633   8.675   6.691   5.973 -1.2158  1.6358  0.2508
  952MOL0     H25634   8.507   6.698   6.145 -1.0856 -0.5990  0.0190
  952MOL0     H25635   8.473   6.545   6.104 -1.0749 -0.0249  0.6359
  952MOL0     H25636   8.343   6.789   5.971  3.4678  1.3395  2.5581
  952MOL0     H25637   8.293   6.612   5.949  0.3259  0.3589 -2.4107
  952MOL0     H25638   8.255   6.789   6.190 -0.7046  1.0084 -1.4631
  952MOL0     H25639   8.248   6.622   6.211  0.4262  1.2922  2.0972
  952MOL0     H25640   8.085   6.619   6.001  0.5761 -2.4032  3.4471
  952MOL0     H25641   8.100   6.794   6.000 -3.7774  0.3316 -1.1025
  952MOL0     H25642   8.001   6.612   6.210  4.8544  1.2277  1.0598
  952MOL0     H25643   8.019   6.790   6.232  2.3229 -0.4929 -0.5945
  952MOL0     H25644   7.788   6.653   6.128  1.3038 -1.5269 -1.5051
  952MOL0     H25645   7.859   6.714   5.985 -2.3997  0.4105 -0.1143
  952MOL0     H25646   8.831   6.486   5.762  3.0203 -0.6680 -1.8254
  952MOL0     H25647   9.066   6.506   5.788 -1.0664  0.1939 -0.5028
  952MOL0     H25648   9.363   6.528   6.225 -1.7424  1.7736 -1.7283
  952MOL0     H25649   9.609   6.546   6.322 -2.2527 -4.3719 -0.1493
  952MOL0     H25650   8.724   7.173   6.773  1.8635  2.1563  0.4128
  952MOL0     H25651   8.488   7.176   6.670 -1.4460  1.1920  0.7755
  952MOL0     H25652   8.163   6.999   6.329  1.4159 -1.1912 -1.1198
  952MOL0     H25653   8.011   7.026   6.131 -1.2060  2.6674 -1.4327
  952MOL0     H25654   7.871   7.088   5.930 -0.0475  0.7276  2.8496
  952MOL0     H25655   8.046   7.046   5.902 -0.9121 -1.5287 -3.6044
  952MOL0     H25656   7.881   7.071   5.704 -0.2285  1.0767 -0.5765
  952MOL0     H25657   7.882   7.236   5.736 -1.8054 -0.0899  1.7508
  952MOL0     H25658   8.141   7.070   5.680 -0.0650  1.7951  0.0884
  952MOL0     H25659   8.120   7.245   5.673  0.6398  0.9950 -1.8731
  952MOL0     H25660   8.157   7.145   5.473  1.3896 -4.1817 -0.1239
  952MOL0     H25661   8.011   7.040   5.483  0.5003  0.1238  1.5684
  952MOL0     H25662   7.814   7.386   5.362 -3.2364 -3.3197 -2.3602
  952MOL0     H25663   8.148   7.422   6.084  0.9565 -1.4808 -2.1906
  952MOL0     H25664   8.266   7.419   6.270  1.8213 -1.3310 -0.0839
  953MOL0     O25665  10.783   7.775   7.472 -0.7869 -0.0129  0.1213
  953MOL0     C25666  10.787   7.859   7.385 -0.3008 -0.1208 -0.4262
  953MOL0     O25667  10.741   7.983   7.403 -0.1194 -0.4827  0.1843
  953MOL0     C25668  10.689   8.017   7.520  0.6051 -0.2100  1.0429
  953MOL0     C25669  10.551   8.035   7.552 -1.5029  0.0793 -0.2813
  953MOL0     C25670  10.507   8.077   7.668 -0.6033  0.4240  0.2209
  953MOL0     C25671  10.608   8.108   7.770 -0.1949  0.2898 -0.3150
  953MOL0     O25672  10.553   8.137   7.891  0.3661 -0.4337 -0.5949
  953MOL0     C25673  10.629   8.135   8.011 -0.5671  0.4160  1.2502
  953MOL0     C25674  10.514   8.127   8.119 -0.8716  0.6104 -0.2487
  953MOL0     C25675  10.463   8.266   8.150  0.2603 -0.0366 -0.1808
  953MOL0     C25676  10.418   8.284   8.301  0.4920  0.3416  1.0365
  953MOL0     C25677  10.297   8.190   8.340 -0.4774  0.2485 -0.7100
  953MOL0     C25678  10.237   8.250   8.479  0.0721 -0.9741  0.7002
  953MOL0     C25679  10.128   8.151   8.532 -0.0111  0.3809 -0.0541
  953MOL0     C25680  10.006   8.216   8.607 -0.6756 -0.1523  0.0408
  953MOL0     N25681  10.034   8.264   8.748 -0.2383 -0.1085  0.1885
  953MOL0     C25682   9.934   8.323   8.821  0.4934  0.2775 -0.8959
  953MOL0     C25683   9.996   8.378   8.930  0.5862  0.5328  0.0806
  953MOL0     C25684   9.932   8.452   9.034 -0.3597 -0.3949 -0.2924
  953MOL0     C25685   9.896   8.602   9.004 -1.0540 -0.0422  0.4669
  953MOL0     C25686   9.781   8.617   8.895 -0.1356 -0.4512  0.3602
  953MOL0     C25687   9.649   8.554   8.918  0.3202  0.0602 -0.4928
  953MOL0     O25688   9.647   8.414   8.883 -0.2419 -0.2203 -0.4589
  953MOL0     C25689   9.528   8.352   8.866  0.7963  0.1192  0.3748
  953MOL0     C25690   9.539   8.250   8.780 -1.1670 -0.0342 -0.6089
  953MOL0     C25691   9.434   8.163   8.747  0.2559  0.0084  0.1299
  953MOL0     C25692   9.312   8.188   8.815 -0.1603  0.2772  0.3596
  953MOL0     C25693   9.192   8.107   8.790  0.6879  0.8614 -0.3962
  953MOL0     O25694   9.070   8.165   8.811 -0.1903 -0.0267  0.6095
  953MOL0     C25695   8.956   8.092   8.819  0.2089  0.6488 -0.0157
  953MOL0     C25696   8.834   8.169   8.816  0.2250  0.7383  0.1056
  953MOL0     C25697   8.710   8.106   8.822 -0.4562  0.1160  0.2739
  953MOL0     C25698   8.700   7.965   8.843  0.3917  0.2951 -0.6693
  953MOL0     O25699   8.568   7.911   8.847 -0.0935  0.5126  0.3140
  953MOL0     C25700   8.533   7.805   8.758  0.5568 -0.8156 -0.4236
  953MOL0     C25701   8.556   7.859   8.604 -1.4025  0.5539 -0.5546
  953MOL0     C25702   8.449   7.961   8.549 -0.2090  0.2917 -0.2678
  953MOL0     C25703   8.305   7.913   8.578 -0.7851 -0.0714  0.0742
  953MOL0     C25704   8.210   7.996   8.495  0.4868 -0.3538  0.3724
  953MOL0     C25705   8.070   7.995   8.552  0.2517 -0.0180  0.2907
  953MOL0     C25706   7.973   8.082   8.471 -0.2064  0.0145 -0.3848
  953MOL0     C25707   7.848   8.124   8.550 -0.5271 -0.0323  0.0439
  953MOL0    Cl25708   7.778   7.986   8.643  0.3865 -0.4859  0.0576
  953MOL0     C25709   8.815   7.887   8.851 -0.3326 -0.0056  0.9350
  953MOL0     C25710   8.937   7.949   8.819 -0.5693  0.2810 -0.1115
  953MOL0     O25711   9.217   7.989   8.772  0.4488 -0.2286 -0.2116
  953MOL0     C25712   9.301   8.298   8.915  0.2343  0.7487  0.2371
  953MOL0     C25713   9.412   8.377   8.941  1.3622  0.2256  0.2323
  953MOL0     N25714  10.132   8.361   8.910 -0.5364  0.8807 -0.4941
  953MOL0     N25715  10.154   8.287   8.807  0.1847  0.8670  0.0882
  953MOL0     C25716  10.742   8.096   7.739  0.5541 -0.5170 -0.4409
  953MOL0     C25717  10.775   8.047   7.617 -0.4360 -0.3221 -0.3056
  953MOL0     C25718  10.845   7.826   7.257 -0.4599 -1.0370  0.2882
  953MOL0     C25719  10.917   7.710   7.248  0.6316 -0.9526 -0.0081
  953MOL0     C25720  10.985   7.671   7.127  0.4269 -0.2291 -0.1421
  953MOL0     C25721  10.979   7.762   7.021  0.2786 -0.3679  0.3019
  953MOL0     O25722  11.039   7.735   6.904  0.3808  0.1403 -0.0580
  953MOL0     C25723  10.956   7.698   6.794 -0.4034  0.1433  0.3049
  953MOL0     C25724  11.042   7.673   6.670  1.4172 -1.1814 -0.3840
  953MOL0     C25725  11.104   7.539   6.697 -0.5686 -0.1473 -0.0067
  953MOL0     C25726  11.206   7.509   6.585  0.1518 -0.1080  0.4968
  953MOL0     C25727  11.271   7.379   6.622  0.7118  0.4272 -0.3838
  953MOL0     C25728  11.295   7.262   6.645 -0.3507  0.1258 -1.2636
  953MOL0     C25729  10.902   7.883   7.033 -0.3344  0.4152 -0.4481
  953MOL0     C25730  10.829   7.914   7.154 -0.4304 -0.6610 -0.1481
  953MOL0     H25731  10.489   8.000   7.470 -0.7729 -0.8016 -0.4729
  953MOL0     H25732  10.403   8.082   7.697 -0.5118  1.0070  0.4777
  953MOL0     H25733  10.687   8.227   8.018  0.5716  0.0927 -2.1144
  953MOL0     H25734  10.689   8.044   7.998 -0.1759  1.0798 -2.6970
  953MOL0     H25735  10.562   8.069   8.199 -2.6288 -0.7722 -0.1391
  953MOL0     H25736  10.424   8.068   8.103 -2.4016  1.5697  3.6511
  953MOL0     H25737  10.384   8.291   8.079 -1.1343 -1.3227  0.8702
  953MOL0     H25738  10.552   8.329   8.141  0.0581  0.4789  1.1848
  953MOL0     H25739  10.500   8.283   8.374 -0.0523 -0.6511  1.6442
  953MOL0     H25740  10.386   8.389   8.307  2.5992  1.0189  1.1091
  953MOL0     H25741  10.330   8.086   8.354  2.6150  1.2030  0.0096
  953MOL0     H25742  10.211   8.187   8.273 -1.9422  2.8148  0.8999
  953MOL0     H25743  10.191   8.345   8.454  0.6142 -1.0803 -0.8253
  953MOL0     H25744  10.314   8.284   8.549 -1.8400  1.0970  1.8822
  953MOL0     H25745  10.095   8.097   8.443 -1.6252  1.8950 -0.4376
  953MOL0     H25746  10.172   8.072   8.594  0.0304 -0.3210 -0.9604
  953MOL0     H25747   9.918   8.151   8.605  0.4338 -1.6907 -0.2095
  953MOL0     H25748   9.970   8.301   8.547  0.5529  1.6740  1.7569
  953MOL0     H25749   9.830   8.308   8.792  0.7760 -3.0355 -0.5950
  953MOL0     H25750  10.006   8.464   9.114 -0.2786 -1.1747 -0.2503
  953MOL0     H25751   9.847   8.403   9.082  0.9046 -0.3457  2.1445
  953MOL0     H25752   9.973   8.670   8.968 -1.2531  1.5506  2.8255
  953MOL0     H25753   9.867   8.644   9.101  1.8460 -0.0371  1.4345
  953MOL0     H25754   9.761   8.723   8.875  4.2631  0.6383  0.6829
  953MOL0     H25755   9.836   8.592   8.804 -2.8459 -0.7452 -1.2853
  953MOL0     H25756   9.580   8.608   8.851  0.3574 -0.9633 -1.3750
  953MOL0     H25757   9.629   8.572   9.024  3.9395  0.2435  0.2728
  953MOL0     H25758   9.630   8.238   8.723  0.7368  2.8809  1.5093
  953MOL0     H25759   9.436   8.083   8.675 -0.2580  0.1125 -0.0100
  953MOL0     H25760   8.832   8.277   8.806  0.8238  0.5887 -2.2844
  953MOL0     H25761   8.616   8.157   8.840 -1.1635 -0.1752 -2.2719
  953MOL0     H25762   8.427   7.783   8.769  0.3815  0.3561  0.3471
  953MOL0     H25763   8.588   7.710   8.766 -0.4230 -1.4159 -0.6761
  953MOL0     H25764   8.542   7.774   8.537  1.6376  0.0871 -0.7485
  953MOL0     H25765   8.658   7.899   8.604 -0.9249 -0.3265  2.5910
  953MOL0     H25766   8.467   7.961   8.441 -0.9805 -2.1015 -0.4391
  953MOL0     H25767   8.472   8.058   8.595  0.4026 -0.2222  0.5278
  953MOL0     H25768   8.288   7.807   8.559 -0.7412  0.1788 -1.4487
  953MOL0     H25769   8.301   7.942   8.684  0.1075  1.1567 -0.2078
  953MOL0     H25770   8.209   7.966   8.390  2.1894  0.4565  0.0917
  953MOL0     H25771   8.245   8.100   8.491  0.5758 -0.3392  1.2774
  953MOL0     H25772   8.070   8.043   8.650 -1.3317  0.2705  0.1830
  953MOL0     H25773   8.033   7.893   8.566  0.3076 -0.2026 -0.8011
  953MOL0     H25774   8.014   8.182   8.453 -2.9085  0.9974 -1.5526
  953MOL0     H25775   7.965   8.043   8.369  0.1152  2.5022 -1.4358
  953MOL0     H25776   7.770   8.158   8.481 -0.0163 -2.0058 -1.6146
  953MOL0     H25777   7.869   8.199   8.626  0.2427 -0.6940  0.5039
  953MOL0     H25778   8.789   7.782   8.856  0.1148 -0.2399 -0.9566
  953MOL0     H25779   9.019   7.879   8.803 -1.8320 -1.2710 -0.0217
  953MOL0     H25780   9.208   8.312   8.968  1.2681  0.8581  2.0900
  953MOL0     H25781   9.408   8.469   8.999  1.0186  1.0178 -1.0012
  953MOL0     H25782  10.819   8.138   7.803 -1.9949  1.5906  1.5115
  953MOL0     H25783  10.882   8.054   7.597 -0.0907 -2.1132  0.6940
  953MOL0     H25784  10.922   7.639   7.330 -2.2968 -0.0286  1.0913
  953MOL0     H25785  11.046   7.582   7.116 -0.9484 -0.9262 -3.4419
  953MOL0     H25786  10.892   7.785   6.778 -1.2518 -0.6075 -0.4407
  953MOL0     H25787  10.897   7.611   6.822 -2.0987  0.6357 -1.5455
  953MOL0     H25788  10.985   7.684   6.578 -0.7630  1.0456  1.1025
  953MOL0     H25789  11.112   7.757   6.657 -0.6975  0.6157 -0.7149
  953MOL0     H25790  11.025   7.464   6.686  0.5390 -1.4663  0.7136
  953MOL0     H25791  11.159   7.540   6.792  1.2820  2.7919 -0.9921
  953MOL0     H25792  11.152   7.496   6.490  1.7704 -0.1153 -0.4680
  953MOL0     H25793  11.282   7.588   6.588  2.5337 -2.2655  2.6026
  953MOL0     H25794  11.326   7.168   6.688 -0.6906  1.4323  2.1924
  953MOL0     H25795  10.885   7.948   6.948 -0.7477 -0.6683 -1.2082
  953MOL0     H25796  10.773   8.007   7.158 -0.9072 -0.9872  1.4201
  954MOL0     O25797   7.570   2.918   4.537 -0.2449  0.4438 -0.2490
  954MOL0     C25798   7.659   2.935   4.463 -0.9947 -0.5408 -0.3800
  954MOL0     O25799   7.787   2.991   4.504  0.6348  0.3177  0.5795
  954MOL0     C25800   7.821   3.016   4.638 -0.3456 -0.6858 -0.9970
  954MOL0     C25801   7.737   3.048   4.744  0.1779  0.5125  0.5800
  954MOL0     C25802   7.787   3.090   4.861 -0.6170  0.1487 -0.3484
  954MOL0     C25803   7.921   3.076   4.896 -0.2183 -1.1322 -0.5815
  954MOL0     O25804   7.974   3.122   5.015  0.7041  0.2267 -0.2603
  954MOL0     C25805   7.921   3.060   5.124  0.6629 -0.2517 -0.1702
  954MOL0     C25806   8.027   3.066   5.228  0.7726 -0.9510  0.3621
  954MOL0     C25807   7.999   2.973   5.340  0.5456  1.5578 -0.2721
  954MOL0     C25808   7.849   2.985   5.384  0.3789 -0.5690  0.4858
  954MOL0     C25809   7.817   2.906   5.509  0.0247 -0.3831  0.7962
  954MOL0     C25810   7.886   2.955   5.646  0.6318  0.4118  0.5778
  954MOL0     C25811   7.874   2.857   5.750 -0.1854  0.5050  0.3885
  954MOL0     C25812   7.952   2.902   5.874  0.2733 -0.7619  0.3985
  954MOL0     N25813   7.884   3.014   5.944  0.4436 -0.6966 -1.0733
  954MOL0     C25814   7.754   3.022   5.976  0.2953  0.7992 -0.0114
  954MOL0     C25815   7.739   3.145   6.032  1.0382  0.1576  0.2963
  954MOL0     C25816   7.603   3.221   6.067 -1.0789 -0.2695  0.2325
  954MOL0     C25817   7.583   3.348   5.994  0.0239  0.8234  0.2506
  954MOL0     C25818   7.467   3.435   6.047  0.6241  0.6973 -0.3874
  954MOL0     C25819   7.329   3.366   6.011  0.4975 -0.0643  0.6224
  954MOL0     O25820   7.281   3.418   5.886 -1.0895 -0.6450  0.0100
  954MOL0     C25821   7.153   3.411   5.852 -0.0182  0.6148 -0.4141
  954MOL0     C25822   7.050   3.449   5.934  0.1067 -0.7074 -0.3118
  954MOL0     C25823   6.919   3.449   5.901  0.3862  0.3964  0.4199
  954MOL0     C25824   6.883   3.416   5.768  0.1884  0.6251 -0.2898
  954MOL0     C25825   6.733   3.398   5.745  0.4599 -0.3765 -0.5954
  954MOL0     O25826   6.701   3.380   5.611  0.1150 -0.0601 -0.0047
  954MOL0     C25827   6.576   3.386   5.571  0.8973  0.1135  0.3176
  954MOL0     C25828   6.526   3.265   5.534  0.0489 -0.3164  0.1779
  954MOL0     C25829   6.394   3.244   5.496 -0.6767 -0.0003 -0.2065
  954MOL0     C25830   6.313   3.354   5.494 -1.1282 -0.0912 -0.8817
  954MOL0     O25831   6.193   3.362   5.446  0.1777  0.2334  0.1710
  954MOL0     C25832   6.106   3.264   5.500  0.0997  0.3733 -0.6742
  954MOL0     C25833   5.963   3.275   5.453 -0.1408  0.2525  0.1988
  954MOL0     C25834   5.947   3.211   5.314 -0.7026 -0.7790 -0.2642
  954MOL0     C25835   6.021   3.271   5.190  0.2644  0.0272  0.0084
  954MOL0     C25836   6.152   3.206   5.161 -0.6379 -0.0585 -0.4493
  954MOL0     C25837   6.261   3.299   5.095  0.3720 -0.7915 -0.5761
  954MOL0     C25838   6.369   3.217   5.043 -0.9652  0.5122  0.6687
  954MOL0     C25839   6.487   3.305   4.986 -0.0469  0.9957  0.4493
  954MOL0    Cl25840   6.640   3.194   4.973  0.3822 -0.5336 -0.2202
  954MOL0     C25841   6.362   3.482   5.538 -0.5864 -0.0585 -0.1307
  954MOL0     C25842   6.496   3.495   5.578 -1.1155  0.0634  0.3352
  954MOL0     O25843   6.654   3.397   5.845  1.1392 -0.5792  0.9753
  954MOL0     C25844   6.980   3.377   5.680 -0.9211  0.7739  0.9602
  954MOL0     C25845   7.114   3.367   5.720  1.0761 -0.1511  0.6626
  954MOL0     N25846   7.860   3.207   6.039  0.1157 -0.2057 -0.0665
  954MOL0     N25847   7.946   3.128   5.989  0.3200  0.3014  0.0764
  954MOL0     C25848   8.012   3.045   4.796 -0.0016 -0.9047  0.0789
  954MOL0     C25849   7.961   3.024   4.665  0.0654 -0.7355 -1.1018
  954MOL0     C25850   7.639   2.891   4.327 -0.4814 -0.0728 -0.5239
  954MOL0     C25851   7.739   2.913   4.234  0.6096 -0.2332 -0.3273
  954MOL0     C25852   7.718   2.896   4.099 -0.4554 -0.7558 -0.0918
  954MOL0     C25853   7.588   2.871   4.037  0.5045 -0.3947 -0.5023
  954MOL0     O25854   7.549   2.870   3.905  0.5263  0.3622 -0.0722
  954MOL0     C25855   7.646   2.917   3.810  0.2667 -0.1326 -0.1423
  954MOL0     C25856   7.657   3.064   3.819  0.7052 -0.6603  0.0980
  954MOL0     C25857   7.727   3.124   3.697 -0.2779  0.4504 -0.0443
  954MOL0     C25858   7.721   3.274   3.700 -1.2520 -0.4304  0.3331
  954MOL0     C25859   7.812   3.323   3.598  0.0559 -0.1659 -0.0418
  954MOL0     C25860   7.883   3.365   3.511 -0.0138 -0.7738 -0.0588
  954MOL0     C25861   7.496   2.830   4.131 -0.7188 -1.2995 -0.4581
  954MOL0     C25862   7.518   2.846   4.272 -0.1372 -0.8390 -0.5239
  954MOL0     H25863   7.630   3.048   4.727  0.2224 -0.2703  0.2845
  954MOL0     H25864   7.728   3.115   4.948 -0.3531  0.7400 -0.3316
  954MOL0     H25865   7.887   2.958   5.102  2.2511 -1.1670  1.3691
  954MOL0     H25866   7.834   3.116   5.160  0.7564 -1.6264  2.4821
  954MOL0     H25867   8.030   3.169   5.265 -1.6387 -0.2768 -1.1115
  954MOL0     H25868   8.120   3.049   5.172 -0.6619  0.8151 -2.8226
  954MOL0     H25869   8.081   2.963   5.412 -0.0341  1.9868  0.4574
  954MOL0     H25870   8.004   2.880   5.283  0.3167  1.9125 -0.8813
  954MOL0     H25871   7.835   3.089   5.417 -1.0591 -1.1514  1.8152
  954MOL0     H25872   7.775   2.955   5.309  1.2539  1.9636 -1.5343
  954MOL0     H25873   7.840   2.799   5.499  0.3718 -0.3211  0.8906
  954MOL0     H25874   7.712   2.894   5.535  0.1054 -0.9378  0.8892
  954MOL0     H25875   7.826   3.041   5.677 -1.0612  0.1297 -1.6165
  954MOL0     H25876   7.990   2.989   5.649  0.0053  2.3419  1.9956
  954MOL0     H25877   7.774   2.834   5.787  1.1144 -3.2434  2.1097
  954MOL0     H25878   7.906   2.763   5.705  2.4504  1.6622 -0.3964
  954MOL0     H25879   8.056   2.930   5.854 -0.1126 -0.7938 -1.8369
  954MOL0     H25880   7.953   2.812   5.936  3.0948 -0.9952  0.1244
  954MOL0     H25881   7.674   2.949   5.968  0.8186  0.3198 -1.3525
  954MOL0     H25882   7.617   3.248   6.172 -2.2850  0.1516  0.3053
  954MOL0     H25883   7.512   3.161   6.068 -1.3328  0.1181  0.8702
  954MOL0     H25884   7.553   3.315   5.894 -0.8839 -0.3655  0.8861
  954MOL0     H25885   7.673   3.409   5.987 -0.4487  1.4191 -0.9180
  954MOL0     H25886   7.471   3.427   6.156  2.4885 -0.1186 -0.4750
  954MOL0     H25887   7.496   3.536   6.018 -0.9500  1.1375 -0.5471
  954MOL0     H25888   7.262   3.392   6.094 -0.5749  2.1672 -0.8581
  954MOL0     H25889   7.333   3.257   6.008  3.2552 -0.0034 -2.0729
  954MOL0     H25890   7.071   3.471   6.038  1.8434  0.3072 -0.8270
  954MOL0     H25891   6.846   3.469   5.979  2.2075  4.6096  1.3448
  954MOL0     H25892   6.597   3.183   5.529  2.1412  1.3605  1.0736
  954MOL0     H25893   6.349   3.148   5.472 -1.1845  0.3961 -0.8672
  954MOL0     H25894   6.091   3.270   5.608 -2.2295 -2.5512 -0.7174
  954MOL0     H25895   6.128   3.161   5.469 -2.6004 -0.4684 -0.0300
  954MOL0     H25896   5.929   3.379   5.456 -2.9431 -0.5283 -0.7586
  954MOL0     H25897   5.900   3.224   5.526 -0.9198 -0.4789 -0.9541
  954MOL0     H25898   5.843   3.208   5.282 -1.4184 -2.5795  1.9717
  954MOL0     H25899   5.977   3.106   5.326  0.1007 -0.3747  1.8323
  954MOL0     H25900   5.958   3.264   5.101  3.2976 -2.0044 -2.2103
  954MOL0     H25901   6.037   3.376   5.214 -1.1886 -0.1367  1.9472
  954MOL0     H25902   6.142   3.119   5.096 -0.7522 -1.0433  0.8420
  954MOL0     H25903   6.197   3.175   5.256  2.5769  3.6281 -0.5046
  954MOL0     H25904   6.297   3.372   5.168 -0.4227 -0.9684  0.0097
  954MOL0     H25905   6.227   3.365   5.014 -1.3449  0.7487  1.3099
  954MOL0     H25906   6.419   3.146   5.110  3.6195  0.9296 -1.8447
  954MOL0     H25907   6.327   3.154   4.964  3.5992  0.4868 -2.1409
  954MOL0     H25908   6.517   3.388   5.050  3.3892  0.9098 -0.8766
  954MOL0     H25909   6.469   3.348   4.887  2.1897  0.0202 -0.4647
  954MOL0     H25910   6.292   3.564   5.528 -0.0535  0.2140 -2.2907
  954MOL0     H25911   6.543   3.585   5.617  2.2674 -1.9564  1.3548
  954MOL0     H25912   6.964   3.345   5.577  2.5037  3.0351 -0.4695
  954MOL0     H25913   7.191   3.334   5.651 -0.3893 -2.1070 -0.1379
  954MOL0     H25914   8.119   3.043   4.815  0.2595  0.7291 -1.0732
  954MOL0     H25915   8.017   3.008   4.573  0.8955 -1.3000 -0.5183
  954MOL0     H25916   7.836   2.934   4.277  0.3844 -1.5679  0.8957
  954MOL0     H25917   7.808   2.897   4.038 -0.1818 -3.2093  0.1837
  954MOL0     H25918   7.621   2.878   3.711 -2.4758 -0.6720  0.6638
  954MOL0     H25919   7.739   2.861   3.819 -1.0037 -2.3403 -0.0894
  954MOL0     H25920   7.562   3.114   3.840  2.0228  1.8359  0.5254
  954MOL0     H25921   7.729   3.086   3.898  3.6217 -1.6624 -2.1011
  954MOL0     H25922   7.683   3.081   3.607  0.5929 -0.9876  0.1776
  954MOL0     H25923   7.831   3.090   3.695 -0.8138 -1.3282 -2.4374
  954MOL0     H25924   7.620   3.300   3.666 -0.0936  0.0280 -3.1977
  954MOL0     H25925   7.743   3.333   3.789 -1.8413  1.3686 -0.6559
  954MOL0     H25926   7.949   3.410   3.438  1.1792  1.5547  2.2863
  954MOL0     H25927   7.407   2.780   4.093 -0.7534 -1.2272 -0.4727
  954MOL0     H25928   7.431   2.818   4.331 -0.2363  0.4429 -0.0207
  955MOL0     O25929  10.442   4.606   6.619  0.0830  0.6024 -0.2368
  955MOL0     C25930  10.460   4.492   6.591  0.1772 -0.3677 -0.8822
  955MOL0     O25931  10.578   4.446   6.546 -0.9699 -0.2834 -1.0171
  955MOL0     C25932  10.689   4.525   6.535 -0.1578 -1.2013 -0.1345
  955MOL0     C25933  10.737   4.553   6.410 -0.7649  0.4062 -0.2597
  955MOL0     C25934  10.854   4.634   6.405 -0.6097  0.4621 -0.1564
  955MOL0     C25935  10.924   4.685   6.516 -0.1543  0.0132 -0.0733
  955MOL0     O25936  11.036   4.753   6.478 -0.4692 -0.1421 -0.0650
  955MOL0     C25937  11.148   4.739   6.564  1.0316 -0.2596 -0.1243
  955MOL0     C25938  11.268   4.715   6.480  0.1692 -0.1423  0.7079
  955MOL0     C25939  11.393   4.702   6.568 -0.2321 -0.5870  0.1953
  955MOL0     C25940  11.514   4.682   6.480 -0.0274 -0.1049 -0.5327
  955MOL0     C25941  11.645   4.673   6.560  0.3474  0.1959 -0.3025
  955MOL0     C25942  11.756   4.640   6.463  0.3564 -0.4590  0.2228
  955MOL0     C25943  11.879   4.582   6.539  0.1260 -0.9010 -0.3175
  955MOL0     C25944  11.986   4.691   6.578 -0.0094 -0.3417  0.4803
  955MOL0     N25945  12.119   4.638   6.614  0.7805 -0.5551 -0.1013
  955MOL0     C25946  12.150   4.522   6.687 -0.7652  0.8149  0.8304
  955MOL0     C25947  12.289   4.532   6.700 -1.0343 -0.0711 -0.7666
  955MOL0     C25948  12.368   4.412   6.749 -1.3716  0.0361 -0.4506
  955MOL0     C25949  12.411   4.322   6.634  0.2711 -0.5753  0.4139
  955MOL0     C25950  12.494   4.197   6.677  0.2866  0.2152  0.1193
  955MOL0     C25951  12.547   4.119   6.560  0.1751 -0.6432  1.0999
  955MOL0     O25952  12.614   4.000   6.613  0.8686  0.5317 -0.3163
  955MOL0     C25953  12.727   3.946   6.549  0.6863 -0.3057  0.9490
  955MOL0     C25954  12.837   3.898   6.620 -0.2122  0.1280  0.3715
  955MOL0     C25955  12.959   3.859   6.565  0.3475  0.5352  0.8688
  955MOL0     C25956  12.980   3.867   6.433 -0.5832  0.5205  0.3632
  955MOL0     C25957  13.097   3.806   6.380  0.6038 -0.6370  0.5281
  955MOL0     O25958  13.200   3.769   6.449 -1.1285 -0.3208  0.1813
  955MOL0     C25959  13.291   3.678   6.391  0.2249  0.3258 -0.0126
  955MOL0     C25960  13.425   3.687   6.435  0.6947  0.5964  0.3726
  955MOL0     C25961  13.523   3.608   6.368 -0.1871 -0.0875  0.3375
  955MOL0     C25962  13.485   3.512   6.272  0.4757  0.4414  0.3310
  955MOL0     O25963  13.577   3.416   6.235  0.3214 -0.6704  0.3790
  955MOL0     C25964  13.566   3.349   6.112 -0.4278 -0.0526  0.7068
  955MOL0     C25965  13.702   3.305   6.060  0.3207 -0.0999  0.4337
  955MOL0     C25966  13.773   3.201   6.150  0.2218  0.0261 -0.2048
  955MOL0     C25967  13.896   3.137   6.089  0.0478 -0.3126  0.2191
  955MOL0     C25968  13.938   3.017   6.178  0.4759 -0.1942  0.7367
  955MOL0     C25969  13.972   3.044   6.314  0.5420  0.3726  0.2337
  955MOL0     C25970  14.028   2.926   6.400 -0.8115 -0.3197 -0.2598
  955MOL0     C25971  14.059   2.795   6.305  0.2148 -1.0752 -0.6805
  955MOL0    Cl25972  14.119   2.663   6.392  0.1497  0.0241  0.0227
  955MOL0     C25973  13.352   3.507   6.227 -0.1787  0.2458  0.8724
  955MOL0     C25974  13.251   3.592   6.286  0.5051 -0.3463 -0.1546
  955MOL0     O25975  13.087   3.798   6.254  0.5108  0.6046 -0.6908
  955MOL0     C25976  12.879   3.934   6.357 -0.9833  1.3889 -0.3089
  955MOL0     C25977  12.756   3.969   6.407  0.0413 -0.3300 -0.0543
  955MOL0     N25978  12.335   4.644   6.636  0.2697 -0.5638  0.3896
  955MOL0     N25979  12.231   4.710   6.594  0.3505  0.9083 -0.3104
  955MOL0     C25980  10.874   4.657   6.643  0.5357  0.3921  0.0247
  955MOL0     C25981  10.759   4.576   6.655 -0.1458 -0.5074  0.9118
  955MOL0     C25982  10.349   4.398   6.599  0.3467  0.4394 -0.2145
  955MOL0     C25983  10.361   4.263   6.552  0.0679  0.0842  1.1925
  955MOL0     C25984  10.245   4.187   6.559 -0.3323  0.7631  1.2257
  955MOL0     C25985  10.125   4.225   6.615 -0.5009  0.5831  0.8289
  955MOL0     O25986  10.024   4.135   6.615  0.2847  0.4541 -0.1757
  955MOL0     C25987   9.898   4.176   6.668  0.0289  0.2959  0.2003
  955MOL0     C25988   9.801   4.055   6.666  0.4752 -0.5571 -0.4919
  955MOL0     C25989   9.664   4.108   6.704 -0.0500  0.7568 -0.2386
  955MOL0     C25990   9.551   4.010   6.709  0.6075  0.0130  0.1882
  955MOL0     C25991   9.536   3.919   6.592  0.0772 -0.1550 -0.4751
  955MOL0     C25992   9.514   3.849   6.498 -0.1194 -0.2740  0.0521
  955MOL0     C25993  10.105   4.363   6.654  0.2818  1.3024 -0.4647
  955MOL0     C25994  10.226   4.437   6.649  0.4523 -0.5176 -0.4282
  955MOL0     H25995  10.678   4.511   6.329 -3.5554  0.9705  1.3250
  955MOL0     H25996  10.907   4.648   6.311 -2.4045 -0.2976 -1.3349
  955MOL0     H25997  11.129   4.655   6.631 -0.3382 -1.6538 -2.1561
  955MOL0     H25998  11.166   4.825   6.630  2.2933  0.9152 -1.8996
  955MOL0     H25999  11.278   4.804   6.416 -2.9923  1.4639  2.2072
  955MOL0     H26000  11.242   4.628   6.419 -0.1506 -1.2733  2.3854
  955MOL0     H26001  11.382   4.613   6.631 -1.1572 -0.4827  0.1970
  955MOL0     H26002  11.405   4.786   6.638  0.0115  1.1752 -1.8737
  955MOL0     H26003  11.491   4.589   6.427  1.1647 -0.4155 -0.5415
  955MOL0     H26004  11.529   4.765   6.410 -0.5274  1.4162  1.0888
  955MOL0     H26005  11.627   4.596   6.635  1.5799  1.2785  1.1696
  955MOL0     H26006  11.660   4.762   6.622 -1.0778 -1.4069  2.5290
  955MOL0     H26007  11.785   4.725   6.401  0.0997 -0.8247 -0.4020
  955MOL0     H26008  11.715   4.565   6.395 -0.0347 -0.0051 -0.0532
  955MOL0     H26009  11.836   4.526   6.623 -1.9716 -1.3089 -1.5996
  955MOL0     H26010  11.927   4.502   6.483  2.6898 -0.6867  1.3761
  955MOL0     H26011  11.949   4.737   6.670  0.3013 -0.8545  0.8687
  955MOL0     H26012  11.998   4.764   6.497 -1.5489  1.5579  1.8622
  955MOL0     H26013  12.091   4.438   6.723  0.7181 -0.4744  0.3439
  955MOL0     H26014  12.307   4.366   6.827 -1.4544  1.4754  0.3635
  955MOL0     H26015  12.457   4.433   6.809 -1.4178  0.5997 -0.5760
  955MOL0     H26016  12.470   4.373   6.557  0.3579  0.3630  1.0965
  955MOL0     H26017  12.314   4.290   6.597  0.7959 -0.0769 -1.5078
  955MOL0     H26018  12.582   4.243   6.722  1.5594 -0.7861 -1.2637
  955MOL0     H26019  12.439   4.139   6.752 -1.1576 -0.0199 -1.0739
  955MOL0     H26020  12.618   4.175   6.499  0.4665 -0.6169  1.4585
  955MOL0     H26021  12.465   4.095   6.492  0.3912 -0.1947  0.6750
  955MOL0     H26022  12.820   3.895   6.727 -2.3879 -0.7496  0.0530
  955MOL0     H26023  13.046   3.814   6.612 -0.3567  1.0254  2.7100
  955MOL0     H26024  13.445   3.761   6.512  0.2009 -0.2117  1.3070
  955MOL0     H26025  13.623   3.609   6.409  0.5044 -0.9526 -1.2055
  955MOL0     H26026  13.525   3.416   6.036 -0.7301  1.0628  1.8072
  955MOL0     H26027  13.497   3.265   6.120  0.3265 -0.5784  1.8939
  955MOL0     H26028  13.768   3.389   6.035  2.4399 -2.1237 -1.1123
  955MOL0     H26029  13.687   3.265   5.959 -3.7468  5.6063 -1.7771
  955MOL0     H26030  13.701   3.128   6.189 -0.2577 -0.7308 -2.3813
  955MOL0     H26031  13.820   3.255   6.233  1.7570  0.6762 -1.4268
  955MOL0     H26032  13.877   3.095   5.990 -1.5178  0.9858 -0.0693
  955MOL0     H26033  13.980   3.206   6.088 -0.0209 -0.2344 -0.1020
  955MOL0     H26034  14.024   2.983   6.119  0.1226  1.5498 -0.8531
  955MOL0     H26035  13.862   2.939   6.167  0.8714 -0.3775 -0.9127
  955MOL0     H26036  13.886   3.093   6.362 -1.5175 -0.8223 -2.0109
  955MOL0     H26037  14.043   3.126   6.301  1.6118 -0.5385  0.2125
  955MOL0     H26038  14.125   2.951   6.443 -0.0237  0.5268 -2.3854
  955MOL0     H26039  13.942   2.901   6.462  0.7909 -2.3016  1.2730
  955MOL0     H26040  14.135   2.823   6.232 -1.9778 -1.0940 -3.1074
  955MOL0     H26041  13.975   2.758   6.246 -1.3549  2.8310 -1.1939
  955MOL0     H26042  13.318   3.433   6.156  1.2561 -0.5467  0.9774
  955MOL0     H26043  13.150   3.576   6.248  0.0007  0.6453  0.7160
  955MOL0     H26044  12.906   3.935   6.252 -3.2364  0.5015 -0.9499
  955MOL0     H26045  12.689   4.011   6.333  1.9934 -0.9744 -2.3150
  955MOL0     H26046  10.931   4.684   6.732  1.5865 -3.7202  0.7844
  955MOL0     H26047  10.712   4.551   6.750  0.1391 -3.2041  0.4354
  955MOL0     H26048  10.453   4.221   6.513  2.4547  4.5986  1.3184
  955MOL0     H26049  10.262   4.084   6.527  1.1531  0.8231  1.7408
  955MOL0     H26050   9.868   4.259   6.604  0.7226 -0.2846 -0.9276
  955MOL0     H26051   9.908   4.216   6.769  0.4552 -0.2045  0.3645
  955MOL0     H26052   9.788   4.034   6.559 -1.8813  2.5808 -0.9872
  955MOL0     H26053   9.842   3.985   6.739  0.3545  3.3538  3.7543
  955MOL0     H26054   9.631   4.191   6.640  2.0696 -0.6344 -3.3880
  955MOL0     H26055   9.687   4.146   6.803  0.5534  0.6016 -0.3161
  955MOL0     H26056   9.559   3.952   6.802  2.1926 -3.0564 -1.6814
  955MOL0     H26057   9.462   4.074   6.710  0.3519 -0.3181 -0.4589
  955MOL0     H26058   9.485   3.793   6.411 -5.5757 -0.7585  1.7720
  955MOL0     H26059  10.024   4.412   6.707  2.5399  0.1512  4.5874
  955MOL0     H26060  10.207   4.536   6.689  2.4405  0.5815 -1.9910
  956MOL0     O26061   4.092   6.966   3.964  0.8673 -0.4482  0.2538
  956MOL0     C26062   4.186   6.922   4.028 -1.5463 -0.7695  0.8635
  956MOL0     O26063   4.197   6.798   4.075 -0.2225 -0.6104  0.7784
  956MOL0     C26064   4.086   6.722   4.043  0.6197  0.1860 -0.1904
  956MOL0     C26065   4.081   6.632   3.932  0.1344 -1.4142 -0.3493
  956MOL0     C26066   3.969   6.554   3.905 -0.2821 -0.0522  0.3359
  956MOL0     C26067   3.848   6.561   3.976 -0.3176  0.1718  0.5525
  956MOL0     O26068   3.735   6.491   3.943  0.9309  0.0347 -0.3209
  956MOL0     C26069   3.671   6.413   4.046  1.1206 -0.5165  0.2698
  956MOL0     C26070   3.580   6.296   3.983 -0.1416 -0.1479  0.6272
  956MOL0     C26071   3.497   6.231   4.078  0.0168 -0.2475 -0.4347
  956MOL0     C26072   3.585   6.133   4.160  1.0598 -0.9331  0.3665
  956MOL0     C26073   3.482   6.041   4.238  0.7501 -0.9286  0.0295
  956MOL0     C26074   3.527   5.985   4.366 -0.1790  1.0120 -0.3652
  956MOL0     C26075   3.418   5.908   4.456  0.5424  0.4306  0.1701
  956MOL0     C26076   3.499   5.819   4.548  0.2447  0.3942  0.3355
  956MOL0     N26077   3.570   5.893   4.651  0.5004  0.6060 -0.7122
  956MOL0     C26078   3.531   5.919   4.779  0.2729 -0.2612  0.2392
  956MOL0     C26079   3.642   5.956   4.847  0.4250  0.1516 -0.9885
  956MOL0     C26080   3.652   6.016   4.987 -0.4174  0.4600 -0.1760
  956MOL0     C26081   3.666   6.174   4.978  0.8277 -0.3960 -0.4297
  956MOL0     C26082   3.803   6.224   4.933  0.7279  1.1293 -0.1656
  956MOL0     C26083   3.797   6.368   4.886  0.4396  0.1603 -0.4347
  956MOL0     O26084   3.930   6.416   4.902 -0.1924  0.1301 -0.3150
  956MOL0     C26085   3.931   6.555   4.897  0.3281  0.4140  0.8036
  956MOL0     C26086   4.034   6.619   4.967  0.1231  0.1440 -0.0167
  956MOL0     C26087   4.047   6.756   4.979 -0.3992 -0.6460  0.0976
  956MOL0     C26088   3.972   6.833   4.891  0.1078  0.3881  0.1489
  956MOL0     C26089   3.989   6.983   4.887  0.3048  0.2499 -0.9963
  956MOL0     O26090   3.885   7.059   4.833 -0.6305 -0.7099 -0.0492
  956MOL0     C26091   3.894   7.193   4.837  0.2759  0.0562 -0.5773
  956MOL0     C26092   4.007   7.265   4.793  0.1094 -0.0766 -0.1344
  956MOL0     C26093   4.014   7.404   4.796 -0.0284 -0.6626  0.4947
  956MOL0     C26094   3.910   7.470   4.847  0.2551 -0.3318 -0.5691
  956MOL0     O26095   3.896   7.607   4.871 -0.0354 -0.2898 -0.3020
  956MOL0     C26096   4.002   7.695   4.830  0.0118 -0.8576  0.2363
  956MOL0     C26097   4.106   7.686   4.933 -0.2130 -0.0614 -0.3940
  956MOL0     C26098   4.210   7.798   4.898 -0.5380  0.0186 -0.4395
  956MOL0     C26099   4.308   7.818   5.025 -0.0543 -0.5053  0.3124
  956MOL0     C26100   4.444   7.880   5.001 -0.0627  0.7481 -0.5249
  956MOL0     C26101   4.434   8.021   4.945 -0.4988  0.1729 -0.1457
  956MOL0     C26102   4.343   8.118   5.037  0.2353 -0.5407  0.8158
  956MOL0     C26103   4.364   8.258   4.969  0.3733 -0.8189  0.1444
  956MOL0    Cl26104   4.290   8.400   5.064 -0.2474 -0.0463 -0.2343
  956MOL0     C26105   3.796   7.396   4.884 -0.0591  0.1831  0.4016
  956MOL0     C26106   3.787   7.258   4.888  0.3746  0.0608  0.1404
  956MOL0     O26107   4.087   7.025   4.955  0.4277 -0.2491  0.7487
  956MOL0     C26108   3.861   6.773   4.826 -0.5182 -0.4191  0.6984
  956MOL0     C26109   3.844   6.633   4.827 -0.3349 -0.9339 -0.1372
  956MOL0     N26110   3.749   5.935   4.758 -0.3222 -0.0905 -0.2296
  956MOL0     N26111   3.703   5.894   4.648  0.5071 -0.0522  0.1139
  956MOL0     C26112   3.848   6.659   4.076  0.6345 -0.5932  0.3656
  956MOL0     C26113   3.964   6.735   4.106 -0.6127 -0.1015 -1.7688
  956MOL0     C26114   4.287   7.017   4.082  0.4309 -0.4918 -0.3514
  956MOL0     C26115   4.268   7.145   4.030 -0.0959  0.6587 -0.8174
  956MOL0     C26116   4.344   7.246   4.081  0.8567 -0.6128  0.7374
  956MOL0     C26117   4.453   7.218   4.165  0.2856 -0.0073  0.3714
  956MOL0     O26118   4.539   7.308   4.217 -0.4732  0.1086  0.6511
  956MOL0     C26119   4.622   7.383   4.132  1.2946 -0.3826  0.3853
  956MOL0     C26120   4.624   7.542   4.148  1.0453  0.1102 -0.0164
  956MOL0     C26121   4.745   7.581   4.061 -0.4017 -0.2241 -0.5364
  956MOL0     C26122   4.764   7.725   4.057 -0.1762 -0.7093  0.3670
  956MOL0     C26123   4.639   7.798   4.023 -0.1374  1.0229  0.2397
  956MOL0     C26124   4.534   7.849   3.991  0.4102 -0.3864  0.8156
  956MOL0     C26125   4.475   7.085   4.203  0.1467  0.2604  0.3976
  956MOL0     C26126   4.387   6.985   4.172 -0.0125 -0.4457  0.5683
  956MOL0     H26127   4.162   6.628   3.859 -0.4226  2.6278 -1.4346
  956MOL0     H26128   3.948   6.491   3.819  0.7310  0.5428 -0.3748
  956MOL0     H26129   3.614   6.476   4.115  1.2226  1.0853 -1.0347
  956MOL0     H26130   3.744   6.355   4.104  1.6199 -0.2188 -0.0427
  956MOL0     H26131   3.658   6.231   3.942  1.0446  1.8361 -0.4857
  956MOL0     H26132   3.521   6.336   3.900 -0.7029 -1.5419  0.3364
  956MOL0     H26133   3.414   6.174   4.035  0.1769 -0.8846  0.0780
  956MOL0     H26134   3.452   6.306   4.143  2.9798  2.1213 -0.8946
  956MOL0     H26135   3.657   6.079   4.098  4.2037  3.7979 -0.5864
  956MOL0     H26136   3.640   6.197   4.230 -0.1990  1.3023 -0.5846
  956MOL0     H26137   3.445   5.966   4.167 -2.9029  1.8227 -1.2483
  956MOL0     H26138   3.402   6.106   4.274  1.5895  1.0547 -1.5245
  956MOL0     H26139   3.567   6.056   4.439 -0.0279 -1.7917  2.5290
  956MOL0     H26140   3.612   5.922   4.336  1.7234  4.8071 -3.8362
  956MOL0     H26141   3.362   5.979   4.516  1.8046  1.3740  0.2709
  956MOL0     H26142   3.352   5.843   4.397  1.3768 -0.1116 -0.1911
  956MOL0     H26143   3.567   5.754   4.493  0.3342  1.8709 -1.4162
  956MOL0     H26144   3.431   5.756   4.605  0.0876 -0.2725 -0.5595
  956MOL0     H26145   3.434   5.903   4.824 -0.5719 -2.3654 -2.1072
  956MOL0     H26146   3.730   5.963   5.042 -1.6775 -1.2316  0.0681
  956MOL0     H26147   3.562   5.994   5.046 -0.2195  2.3365  0.8982
  956MOL0     H26148   3.666   6.207   5.082  0.1291 -0.5630 -0.3704
  956MOL0     H26149   3.578   6.216   4.928 -2.0414 -3.0822  1.9494
  956MOL0     H26150   3.870   6.214   5.019  1.8391 -3.9401 -1.2430
  956MOL0     H26151   3.832   6.148   4.860 -1.7231  1.4939 -1.6252
  956MOL0     H26152   3.729   6.418   4.956 -1.3177 -0.4178 -1.6725
  956MOL0     H26153   3.767   6.388   4.783 -1.9855  4.2581  0.8092
  956MOL0     H26154   4.106   6.563   5.027 -0.2675  2.3082  2.6218
  956MOL0     H26155   4.123   6.813   5.031 -1.7913  2.5737 -1.1633
  956MOL0     H26156   4.088   7.211   4.745 -1.0137 -1.6282 -0.3456
  956MOL0     H26157   4.101   7.463   4.767 -1.6154  0.7341 -1.7755
  956MOL0     H26158   3.964   7.797   4.843  0.0786 -0.4843 -2.0458
  956MOL0     H26159   4.044   7.676   4.731 -0.2957  0.2407 -0.1241
  956MOL0     H26160   4.151   7.587   4.932  0.1736 -0.1652  4.1810
  956MOL0     H26161   4.065   7.700   5.034 -0.3442 -2.5150 -0.0447
  956MOL0     H26162   4.167   7.898   4.886 -2.1921 -0.7204 -1.1137
  956MOL0     H26163   4.258   7.774   4.803 -3.5704  0.6081 -2.2459
  956MOL0     H26164   4.260   7.876   5.105 -0.3282  0.1331 -0.3112
  956MOL0     H26165   4.317   7.716   5.064 -1.9256 -0.7055  0.2876
  956MOL0     H26166   4.500   7.816   4.932 -0.2016 -1.4120  1.2428
  956MOL0     H26167   4.499   7.883   5.095  2.4090 -0.0431 -1.8694
  956MOL0     H26168   4.400   8.034   4.841 -3.1427  6.5955  1.0589
  956MOL0     H26169   4.540   8.047   4.950 -0.6821  0.8662  0.1647
  956MOL0     H26170   4.237   8.090   5.039  0.2081 -0.4574  2.7020
  956MOL0     H26171   4.369   8.123   5.144 -2.2174  1.3353  1.3999
  956MOL0     H26172   4.319   8.264   4.869  3.7787  0.5988 -1.4737
  956MOL0     H26173   4.468   8.274   4.940 -0.2291 -0.7069 -2.2331
  956MOL0     H26174   3.704   7.438   4.923  0.8388 -0.6812  3.7737
  956MOL0     H26175   3.691   7.215   4.916  0.4339  1.8458  3.7664
  956MOL0     H26176   3.793   6.838   4.772 -0.0381 -1.3464 -1.0903
  956MOL0     H26177   3.755   6.587   4.785  0.4786 -1.8941 -0.8424
  956MOL0     H26178   3.760   6.666   4.140  0.5939  1.9498  0.1288
  956MOL0     H26179   3.961   6.808   4.187  1.5702  0.1758 -1.8767
  956MOL0     H26180   4.193   7.171   3.956 -0.1876 -0.6922 -1.2356
  956MOL0     H26181   4.307   7.345   4.057 -0.3463 -0.8019  1.7064
  956MOL0     H26182   4.595   7.351   4.031  0.8844 -2.6562  1.1589
  956MOL0     H26183   4.726   7.355   4.152  1.7050  2.3165  2.7056
  956MOL0     H26184   4.530   7.593   4.125  2.0530  2.9080  1.5860
  956MOL0     H26185   4.649   7.571   4.250 -0.1010  2.0955 -0.2384
  956MOL0     H26186   4.728   7.541   3.960  0.0228 -1.9907  0.0651
  956MOL0     H26187   4.835   7.529   4.097 -0.5023 -0.3606 -0.4828
  956MOL0     H26188   4.800   7.757   4.156  1.8085  0.0131 -0.5301
  956MOL0     H26189   4.840   7.757   3.985 -2.1162  1.3352 -0.9283
  956MOL0     H26190   4.434   7.885   3.974  0.6892 -0.7575 -2.0464
  956MOL0     H26191   4.562   7.067   4.265  0.8563 -0.3272 -0.7458
  956MOL0     H26192   4.396   6.883   4.209 -1.6680 -0.8678 -0.1172
  957MOL0     O26193   2.942   4.847  11.360  0.1613  0.2582 -0.6839
  957MOL0     C26194   3.017   4.907  11.435 -0.0238 -0.0308 -0.1529
  957MOL0     O26195   3.144   4.913  11.418 -0.2643 -0.1505 -0.2083
  957MOL0     C26196   3.215   4.837  11.319 -0.0021  0.2464 -0.1830
  957MOL0     C26197   3.166   4.722  11.252  0.1788 -0.0339  0.9429
  957MOL0     C26198   3.252   4.654  11.161 -0.1796 -0.2571  0.2716
  957MOL0     C26199   3.385   4.693  11.146 -0.1259  0.0557 -0.9312
  957MOL0     O26200   3.455   4.619  11.055 -0.6986  0.2025 -0.6988
  957MOL0     C26201   3.563   4.676  10.979  0.0460 -0.5026 -0.9609
  957MOL0     C26202   3.590   4.597  10.854 -0.5182  0.5573  1.0712
  957MOL0     C26203   3.456   4.604  10.770 -0.0950 -0.7505  0.3797
  957MOL0     C26204   3.484   4.544  10.624 -0.1363 -0.0369 -0.4200
  957MOL0     C26205   3.360   4.552  10.541  0.4313 -0.0486  0.6986
  957MOL0     C26206   3.388   4.529  10.389  0.4417  1.4031  0.1161
  957MOL0     C26207   3.456   4.397  10.360  0.4680 -0.3805  0.7526
  957MOL0     C26208   3.599   4.403  10.325 -1.1891 -0.9323 -0.9435
  957MOL0     N26209   3.632   4.261  10.293 -0.2780 -0.2042 -0.6367
  957MOL0     C26210   3.637   4.210  10.169 -0.6211  0.2584  0.0601
  957MOL0     C26211   3.667   4.076  10.184  0.4066  0.8115  0.4288
  957MOL0     C26212   3.690   3.974  10.076 -2.1534  0.0152 -0.3575
  957MOL0     C26213   3.562   3.913  10.031 -0.8033 -0.3578 -0.0926
  957MOL0     C26214   3.583   3.810   9.915 -1.2954 -0.2992  0.2096
  957MOL0     C26215   3.473   3.705   9.905  0.1081 -0.8691 -0.0018
  957MOL0     O26216   3.347   3.768   9.913  0.2359 -0.2589  0.2971
  957MOL0     C26217   3.301   3.838   9.809 -1.1251  0.4344  0.6266
  957MOL0     C26218   3.235   3.960   9.819  1.3635  0.9414 -0.4473
  957MOL0     C26219   3.181   4.020   9.699 -0.0306  0.9955  0.2694
  957MOL0     C26220   3.187   3.961   9.573  0.3458 -0.1136 -0.4193
  957MOL0     C26221   3.113   4.012   9.462  0.0242 -1.2427 -0.3002
  957MOL0     O26222   3.026   4.118   9.487 -0.0516  0.1862 -0.4445
  957MOL0     C26223   2.968   4.182   9.378 -0.4806  0.3193  0.2452
  957MOL0     C26224   2.869   4.115   9.299 -0.0735  0.3311  0.1575
  957MOL0     C26225   2.830   4.177   9.175  0.0304  0.3570  1.0332
  957MOL0     C26226   2.867   4.303   9.148 -0.1484 -0.0608 -0.0096
  957MOL0     O26227   2.833   4.373   9.037  0.1346  0.3282 -0.4848
  957MOL0     C26228   2.780   4.300   8.917  0.8860  0.3271  0.7702
  957MOL0     C26229   2.740   4.388   8.804 -0.0517  0.0029  1.0182
  957MOL0     C26230   2.686   4.298   8.693 -0.2960 -0.8024 -0.3577
  957MOL0     C26231   2.662   4.394   8.578 -0.3653  0.7712 -0.5673
  957MOL0     C26232   2.535   4.477   8.589  0.0962 -0.7782 -0.7978
  957MOL0     C26233   2.431   4.443   8.486 -1.1394  0.4600 -0.2815
  957MOL0     C26234   2.304   4.528   8.482 -1.0377  0.0424  0.7562
  957MOL0     C26235   2.239   4.515   8.341 -0.1702 -0.2295 -0.2166
  957MOL0    Cl26236   2.071   4.567   8.349  0.0318  0.3496 -0.8697
  957MOL0     C26237   2.945   4.377   9.247 -0.5850 -0.4210  0.4567
  957MOL0     C26238   2.999   4.312   9.357  0.5063 -0.1885 -0.4497
  957MOL0     O26239   3.146   3.977   9.344  0.6044  0.2211  0.4920
  957MOL0     C26240   3.266   3.848   9.556  0.1442 -0.6581 -0.1237
  957MOL0     C26241   3.329   3.791   9.672  0.1219  0.2698 -1.2053
  957MOL0     N26242   3.697   4.049  10.319 -0.2569 -0.0106  1.1595
  957MOL0     N26243   3.680   4.163  10.382  0.2557 -0.5981 -0.1682
  957MOL0     C26244   3.431   4.810  11.212  0.5112  0.9817  0.0242
  957MOL0     C26245   3.345   4.886  11.296 -0.2747  1.1430 -0.1669
  957MOL0     C26246   2.953   4.998  11.536 -0.3175  0.0807  0.7193
  957MOL0     C26247   2.814   5.027  11.536 -0.4448  0.9915  0.3622
  957MOL0     C26248   2.761   5.121  11.624  1.3618  0.2623 -0.2347
  957MOL0     C26249   2.845   5.190  11.707 -0.7834  0.1594 -0.7651
  957MOL0     O26250   2.796   5.305  11.769 -0.0567  0.1007  0.3209
  957MOL0     C26251   2.857   5.437  11.757  0.3239  0.0785  0.3835
  957MOL0     C26252   2.791   5.521  11.869  0.2013  1.7962 -0.1522
  957MOL0     C26253   2.633   5.530  11.853 -0.0239  0.1302 -0.1681
  957MOL0     C26254   2.550   5.505  11.993 -0.3270  0.7558  0.2563
  957MOL0     C26255   2.595   5.383  12.053  0.0891 -0.6894 -0.2231
  957MOL0     C26256   2.630   5.281  12.111  0.7058  0.0154  0.4547
  957MOL0     C26257   2.984   5.164  11.716  1.1681 -0.3786  0.8315
  957MOL0     C26258   3.033   5.065  11.629 -0.7383  0.1717 -0.7649
  957MOL0     H26259   3.071   4.670  11.242  1.1564 -1.6249 -0.7122
  957MOL0     H26260   3.228   4.557  11.119 -0.6678 -0.3692  0.7849
  957MOL0     H26261   3.655   4.680  11.038 -1.4256  1.1672  1.4119
  957MOL0     H26262   3.554   4.784  10.965 -1.2311 -0.3630  0.5955
  957MOL0     H26263   3.609   4.493  10.884 -1.1025  0.3377  0.7066
  957MOL0     H26264   3.678   4.634  10.802 -0.8614  1.8787  1.3875
  957MOL0     H26265   3.434   4.710  10.752 -3.1616 -1.0029  1.9705
  957MOL0     H26266   3.372   4.550  10.815  0.2235  0.7263  2.9719
  957MOL0     H26267   3.559   4.586  10.558 -3.8208  3.1561 -3.0203
  957MOL0     H26268   3.513   4.438  10.633 -1.5313 -0.3557  0.7924
  957MOL0     H26269   3.306   4.647  10.555  3.4077  1.8214  0.4445
  957MOL0     H26270   3.303   4.464  10.572 -2.2786  0.2074 -2.9052
  957MOL0     H26271   3.446   4.609  10.342 -1.0744  2.1663 -0.5176
  957MOL0     H26272   3.289   4.525  10.343  0.4645  2.4873 -0.0522
  957MOL0     H26273   3.443   4.312  10.428  1.5479 -1.9304 -0.8776
  957MOL0     H26274   3.400   4.379  10.268  1.9365  1.7630 -0.6676
  957MOL0     H26275   3.668   4.444  10.399 -2.3409 -0.1386 -0.2698
  957MOL0     H26276   3.612   4.471  10.240 -0.2369 -0.2254 -0.2546
  957MOL0     H26277   3.639   4.265  10.075 -3.6986 -0.8804 -0.7937
  957MOL0     H26278   3.759   3.897  10.112 -1.8358 -0.7012 -2.3486
  957MOL0     H26279   3.745   4.020   9.994 -0.1787 -1.5254  0.0148
  957MOL0     H26280   3.500   3.995   9.994 -1.1979 -0.3323  0.6093
  957MOL0     H26281   3.504   3.866  10.111  0.2489  1.4990  1.8510
  957MOL0     H26282   3.593   3.872   9.826  2.4372  2.9714  2.5751
  957MOL0     H26283   3.678   3.758   9.928 -1.3096 -0.5018 -0.4495
  957MOL0     H26284   3.481   3.642   9.994  0.3744  1.0205  1.3578
  957MOL0     H26285   3.489   3.631   9.826  4.7317 -1.0078  0.7504
  957MOL0     H26286   3.209   4.008   9.913  4.6839  1.6907  0.2079
  957MOL0     H26287   3.109   4.099   9.717 -1.9036 -0.6247  0.2079
  957MOL0     H26288   2.832   4.014   9.316 -2.2045  0.4209 -3.1500
  957MOL0     H26289   2.770   4.120   9.104  3.1080 -1.2486 -0.5142
  957MOL0     H26290   2.686   4.248   8.940  0.3476 -1.2915 -4.0247
  957MOL0     H26291   2.840   4.218   8.875 -0.4130  0.6542 -1.9278
  957MOL0     H26292   2.834   4.431   8.768 -0.0956 -1.3860 -0.8841
  957MOL0     H26293   2.680   4.479   8.813  2.0618  2.0079 -2.6009
  957MOL0     H26294   2.591   4.253   8.723 -0.1436 -1.2972 -0.6025
  957MOL0     H26295   2.761   4.223   8.665 -1.1949 -2.5977  1.6930
  957MOL0     H26296   2.742   4.468   8.566  0.8621 -0.2414  0.9675
  957MOL0     H26297   2.656   4.329   8.490  1.1827 -0.4901  0.2205
  957MOL0     H26298   2.563   4.582   8.575 -2.0905  0.1781  1.4419
  957MOL0     H26299   2.485   4.461   8.684 -0.4700 -3.0261 -1.4157
  957MOL0     H26300   2.394   4.345   8.516 -2.1161  1.2590  1.3364
  957MOL0     H26301   2.492   4.448   8.396 -0.2512 -2.8247  0.0359
  957MOL0     H26302   2.231   4.495   8.557 -0.3805  1.4058  2.0340
  957MOL0     H26303   2.334   4.630   8.509  0.2480 -0.0742 -0.1533
  957MOL0     H26304   2.226   4.412   8.306 -1.9315 -0.4460  0.9247
  957MOL0     H26305   2.304   4.573   8.275 -0.1911 -0.3624 -0.3540
  957MOL0     H26306   2.971   4.481   9.232 -2.1796 -0.2379 -1.2999
  957MOL0     H26307   3.064   4.368   9.424 -0.9769  1.6682 -0.4806
  957MOL0     H26308   3.268   3.804   9.457 -1.3104  0.2286 -0.5846
  957MOL0     H26309   3.395   3.706   9.657  0.9856  0.6603  0.1813
  957MOL0     H26310   3.535   4.836  11.198  1.2075 -1.8198 -0.4713
  957MOL0     H26311   3.381   4.980  11.334  1.0105  1.2175 -1.4581
  957MOL0     H26312   2.764   4.961  11.466  0.4818 -0.2377  0.8224
  957MOL0     H26313   2.658   5.152  11.613  1.6838  1.6152  0.3914
  957MOL0     H26314   2.842   5.478  11.658  0.5450 -0.5384  0.0860
  957MOL0     H26315   2.965   5.438  11.775  0.1672 -0.2329  1.4568
  957MOL0     H26316   2.823   5.492  11.970  3.7667  3.5134 -0.6406
  957MOL0     H26317   2.830   5.623  11.863 -0.2361  1.9641 -0.1742
  957MOL0     H26318   2.600   5.437  11.806  0.5631 -1.5404  2.4994
  957MOL0     H26319   2.607   5.624  11.803  1.9689  1.2906  0.8151
  957MOL0     H26320   2.582   5.586  12.058  3.2729  0.7502 -1.2782
  957MOL0     H26321   2.443   5.517  11.971 -0.4650 -0.7707  0.0195
  957MOL0     H26322   2.685   5.215  12.174  0.9471 -0.1352  0.0888
  957MOL0     H26323   3.038   5.218  11.793  0.8497  0.5078  0.4472
  957MOL0     H26324   3.136   5.037  11.647  0.2066  3.7602  0.3509
  958MOL0     O26325   9.408   1.990   1.818 -0.1815  0.4301 -0.0769
  958MOL0     C26326   9.390   2.101   1.870 -0.7263  0.5017 -0.9478
  958MOL0     O26327   9.477   2.206   1.870  0.5543  0.0295  0.0846
  958MOL0     C26328   9.585   2.194   1.792 -0.5615 -0.2464  0.1408
  958MOL0     C26329   9.582   2.250   1.668 -0.0053  0.0607  0.2334
  958MOL0     C26330   9.684   2.246   1.575  0.4652  0.5806 -1.0574
  958MOL0     C26331   9.809   2.189   1.618  0.3146 -0.6595  0.9075
  958MOL0     O26332   9.919   2.185   1.542  0.4805  0.1766 -0.8782
  958MOL0     C26333   9.988   2.307   1.527  0.3764  0.1661  0.1068
  958MOL0     C26334  10.116   2.270   1.455 -0.2202 -0.7200  0.2045
  958MOL0     C26335  10.109   2.211   1.313 -0.0626 -0.3291  0.1913
  958MOL0     C26336  10.030   2.299   1.215 -0.5220 -0.0662 -0.3981
  958MOL0     C26337   9.998   2.257   1.075  0.4464  0.0007 -0.4080
  958MOL0     C26338  10.138   2.238   1.006  0.2800  0.0085  0.4117
  958MOL0     C26339  10.127   2.220   0.861 -0.7208  0.1272 -0.0212
  958MOL0     C26340  10.254   2.156   0.803 -0.7275 -0.8222 -0.5196
  958MOL0     N26341  10.218   2.091   0.682 -0.2460  0.0300  0.4452
  958MOL0     C26342  10.146   1.972   0.671  0.4512  0.2853 -0.2354
  958MOL0     C26343  10.106   1.968   0.544  0.2483 -0.1342 -1.1341
  958MOL0     C26344  10.029   1.865   0.482  0.4116  0.2779 -1.0298
  958MOL0     C26345  10.105   1.813   0.349 -0.0364 -0.0773 -0.0163
  958MOL0     C26346  10.033   1.706   0.284  0.5102  0.1424  0.4457
  958MOL0     C26347   9.895   1.752   0.233 -0.2445 -0.0818 -0.0435
  958MOL0     O26348   9.899   1.846   0.130 -0.5936  0.5922  0.7088
  958MOL0     C26349   9.987   1.824   0.025 -1.1760 -0.1307 -0.0823
  958MOL0     C26350  10.089   1.918   0.004  0.3604  0.1244  0.1279
  958MOL0     C26351  10.192   1.909  -0.086 -0.2201 -0.5188  0.2403
  958MOL0     C26352  10.203   1.795  -0.164 -0.9045  0.5138  0.8590
  958MOL0     C26353  10.324   1.775  -0.247  0.1227 -0.3009 -0.1506
  958MOL0     O26354  10.321   1.670  -0.324  0.4840 -0.2191 -0.3542
  958MOL0     C26355  10.429   1.619  -0.392 -0.1510 -0.3930 -0.7488
  958MOL0     C26356  10.565   1.619  -0.341  0.2456  0.3216  0.3393
  958MOL0     C26357  10.664   1.548  -0.411 -0.0855  0.3353  0.5611
  958MOL0     C26358  10.636   1.482  -0.531  0.0093  0.4799  0.1250
  958MOL0     O26359  10.716   1.395  -0.593  0.3816  0.1827 -0.4352
  958MOL0     C26360  10.828   1.337  -0.528  0.9028  0.5136 -0.3933
  958MOL0     C26361  10.899   1.236  -0.624  0.3995  0.4615 -0.3886
  958MOL0     C26362  10.921   1.290  -0.767 -0.0572 -0.1569  0.3727
  958MOL0     C26363  11.014   1.187  -0.834  0.9518 -0.6443  0.3373
  958MOL0     C26364  11.007   1.192  -0.983 -0.4709  0.8771  0.8164
  958MOL0     C26365  11.107   1.102  -1.051 -0.3817  0.4566  0.6188
  958MOL0     C26366  11.085   0.953  -1.037 -0.0763  0.1758  1.1275
  958MOL0     C26367  11.204   0.856  -1.071  0.9036  0.8680  0.2798
  958MOL0    Cl26368  11.279   0.882  -1.223 -0.1415 -0.2543 -0.6729
  958MOL0     C26369  10.506   1.494  -0.583  0.4559 -0.2622 -0.8349
  958MOL0     C26370  10.407   1.567  -0.518  1.1527 -0.0200 -0.4669
  958MOL0     O26371  10.418   1.854  -0.250  0.2978 -0.0844  0.4502
  958MOL0     C26372  10.100   1.695  -0.148  0.0119 -0.4247 -0.1271
  958MOL0     C26373   9.994   1.708  -0.055 -0.1090  0.8742  0.5337
  958MOL0     N26374  10.164   2.076   0.489 -0.5564 -0.1991  0.6350
  958MOL0     N26375  10.232   2.151   0.566 -0.6689  0.0387  1.0481
  958MOL0     C26376   9.801   2.116   1.733 -0.3414  0.3989 -0.7889
  958MOL0     C26377   9.701   2.131   1.824  0.2830  0.0425 -0.5250
  958MOL0     C26378   9.268   2.103   1.954  0.0119  0.6685 -0.1983
  958MOL0     C26379   9.222   1.972   1.995  0.3286 -0.1246  0.4216
  958MOL0     C26380   9.106   1.953   2.068 -0.2919 -0.3439 -0.3425
  958MOL0     C26381   9.030   2.061   2.098  0.6774 -0.2990 -0.9407
  958MOL0     O26382   8.915   2.034   2.162 -0.1517 -0.7915  0.1132
  958MOL0     C26383   8.801   2.126   2.158  0.5486  0.9857 -0.1357
  958MOL0     C26384   8.750   2.152   2.011  0.1191 -0.4998  0.3037
  958MOL0     C26385   8.626   2.253   2.009 -0.3495  0.3856  0.1158
  958MOL0     C26386   8.670   2.393   2.018 -0.2072 -0.0877  0.3701
  958MOL0     C26387   8.570   2.497   2.040  0.0269  0.2646  0.1999
  958MOL0     C26388   8.501   2.592   2.053  0.6750 -0.4861  0.2180
  958MOL0     C26389   9.076   2.190   2.065  0.6670 -0.4940 -0.7281
  958MOL0     C26390   9.199   2.207   2.003  1.0455  0.0301 -0.8955
  958MOL0     H26391   9.486   2.296   1.645  0.2669  0.0695 -0.9437
  958MOL0     H26392   9.663   2.284   1.476 -2.4454 -0.5283 -0.9571
  958MOL0     H26393   9.998   2.353   1.626  0.7299  1.1345 -0.3607
  958MOL0     H26394   9.926   2.383   1.477  2.2200 -0.7001 -3.8677
  958MOL0     H26395  10.170   2.192   1.509 -0.0532 -2.4214 -2.2378
  958MOL0     H26396  10.186   2.355   1.456  0.8642 -1.5934  0.2951
  958MOL0     H26397  10.057   2.115   1.308 -1.6334  0.4636  0.8584
  958MOL0     H26398  10.209   2.180   1.279 -0.1851 -4.1101  2.6965
  958MOL0     H26399   9.940   2.327   1.271  0.4737  1.7498  0.3975
  958MOL0     H26400  10.081   2.397   1.215  1.3458 -0.8384  3.2896
  958MOL0     H26401   9.923   2.321   1.027 -2.4240 -2.3776  0.5548
  958MOL0     H26402   9.937   2.166   1.071 -0.0931  0.3784 -1.0246
  958MOL0     H26403  10.188   2.145   1.037 -1.0428 -2.1967 -3.4413
  958MOL0     H26404  10.201   2.326   1.019 -1.7603  1.5589  0.2615
  958MOL0     H26405  10.038   2.156   0.860  0.0976 -1.1002  1.2920
  958MOL0     H26406  10.095   2.315   0.818 -0.3538  0.5476  0.6146
  958MOL0     H26407  10.301   2.077   0.862  5.1178  1.1046 -1.9666
  958MOL0     H26408  10.328   2.233   0.780 -1.3776 -0.1680 -0.4409
  958MOL0     H26409  10.121   1.913   0.759 -0.6315  0.5518 -0.3487
  958MOL0     H26410   9.934   1.912   0.453 -0.1826 -0.7952 -0.9028
  958MOL0     H26411  10.009   1.782   0.550 -0.4137  0.1220 -1.4489
  958MOL0     H26412  10.203   1.769   0.370 -0.8952 -2.9239 -1.3430
  958MOL0     H26413  10.115   1.895   0.277  1.8633  0.7758  1.1630
  958MOL0     H26414  10.099   1.673   0.203  2.7817  2.4824  1.1900
  958MOL0     H26415  10.015   1.625   0.355 -1.9918  0.3673  0.1423
  958MOL0     H26416   9.827   1.785   0.312 -0.9317 -1.5019 -0.0203
  958MOL0     H26417   9.852   1.661   0.190 -0.5966 -0.5027  1.1560
  958MOL0     H26418  10.064   1.997   0.074 -0.3683 -2.0642  2.5018
  958MOL0     H26419  10.253   1.998  -0.098  0.6491 -0.9332  1.4786
  958MOL0     H26420  10.585   1.651  -0.239  0.2358  0.3909  0.3194
  958MOL0     H26421  10.761   1.531  -0.365 -0.9537 -1.5522  1.8486
  958MOL0     H26422  10.799   1.280  -0.440 -1.9475 -1.5210 -2.4593
  958MOL0     H26423  10.899   1.409  -0.486  0.4469 -0.4114  2.1130
  958MOL0     H26424  10.838   1.146  -0.631  0.0417  0.7883 -1.9421
  958MOL0     H26425  10.994   1.205  -0.580 -1.8095 -2.2841  2.9130
  958MOL0     H26426  10.958   1.391  -0.750 -2.2969  0.4031  2.5718
  958MOL0     H26427  10.826   1.297  -0.821  0.7165 -0.2690 -1.0572
  958MOL0     H26428  11.114   1.199  -0.790  1.0285  0.0747 -0.0340
  958MOL0     H26429  10.989   1.085  -0.801 -1.1794  0.5440  2.6709
  958MOL0     H26430  11.028   1.296  -1.008  1.8837  1.1218  3.3544
  958MOL0     H26431  10.903   1.173  -1.011  0.3914 -1.8557 -0.8889
  958MOL0     H26432  11.207   1.126  -1.014  0.1431 -0.6649 -0.0191
  958MOL0     H26433  11.116   1.127  -1.157 -1.4724 -4.5742 -0.9322
  958MOL0     H26434  11.058   0.940  -0.932 -1.3682  3.9234  1.4255
  958MOL0     H26435  10.994   0.919  -1.087 -0.2277  1.5432  0.4126
  958MOL0     H26436  11.163   0.755  -1.076  1.2588  0.7866 -1.6445
  958MOL0     H26437  11.280   0.857  -0.992  0.1167  0.8143  1.0551
  958MOL0     H26438  10.469   1.456  -0.677 -2.6080  2.4450 -0.9248
  958MOL0     H26439  10.310   1.579  -0.565  1.6307  2.3843 -1.0032
  958MOL0     H26440  10.110   1.602  -0.203  2.4196  0.6268 -1.6731
  958MOL0     H26441   9.938   1.617  -0.033  2.3899 -0.9903 -0.3428
  958MOL0     H26442   9.887   2.055   1.759 -0.4937 -0.2057 -1.6677
  958MOL0     H26443   9.713   2.097   1.927 -0.2848  2.2143  0.3161
  958MOL0     H26444   9.280   1.883   1.971  1.1580  0.5668 -0.2233
  958MOL0     H26445   9.074   1.852   2.089 -0.3585 -0.8361 -2.5317
  958MOL0     H26446   8.828   2.225   2.197  2.4718  1.0484 -1.4996
  958MOL0     H26447   8.721   2.084   2.220  2.4386 -2.4440  0.2678
  958MOL0     H26448   8.828   2.202   1.953 -1.7555  0.8616 -1.1748
  958MOL0     H26449   8.729   2.051   1.975  0.1246 -0.3944  0.0019
  958MOL0     H26450   8.564   2.224   2.094 -2.9024 -1.1137 -2.1156
  958MOL0     H26451   8.562   2.229   1.924 -0.0532 -2.2767  0.5629
  958MOL0     H26452   8.747   2.399   2.096  0.5357  1.8894 -0.4428
  958MOL0     H26453   8.705   2.404   1.915 -0.5134 -0.1309  0.2591
  958MOL0     H26454   8.436   2.677   2.047  0.3705 -0.8316 -2.4512
  958MOL0     H26455   9.011   2.275   2.083  1.1462 -0.0811 -0.9298
  958MOL0     H26456   9.240   2.305   1.980 -1.1349  0.9256 -1.1767
  959MOL0     O26457   9.787   8.752   5.583  0.0160  0.6164 -0.3288
  959MOL0     C26458   9.853   8.852   5.542  0.3509 -0.0418 -0.2697
  959MOL0     O26459   9.793   8.979   5.521  0.0658 -0.7149 -0.5101
  959MOL0     C26460   9.654   8.975   5.503 -0.3812 -0.0601 -0.2848
  959MOL0     C26461   9.602   9.101   5.491 -0.5087 -0.4180  0.6705
  959MOL0     C26462   9.468   9.122   5.461 -0.8609 -0.0843 -0.0125
  959MOL0     C26463   9.379   9.017   5.450  0.3326 -0.0917 -0.5268
  959MOL0     O26464   9.253   9.056   5.435  0.2317 -0.7241  0.0845
  959MOL0     C26465   9.141   8.963   5.458  0.1062  0.5343 -0.6846
  959MOL0     C26466   9.013   9.033   5.442  0.3597  0.1414  0.6638
  959MOL0     C26467   8.897   8.938   5.430  0.5631  0.0905  0.2430
  959MOL0     C26468   8.763   9.019   5.433 -0.0289  0.5886 -0.6435
  959MOL0     C26469   8.652   8.951   5.360  0.0020 -0.0737  0.4671
  959MOL0     C26470   8.637   8.802   5.401  0.2934  0.0701 -0.0857
  959MOL0     C26471   8.530   8.729   5.310 -0.5037  0.2226  0.1138
  959MOL0     C26472   8.577   8.580   5.315 -0.3078  0.5264  0.8954
  959MOL0     N26473   8.677   8.551   5.209  0.4783  0.2852  0.2608
  959MOL0     C26474   8.812   8.524   5.225 -1.1173 -0.5464  0.6875
  959MOL0     C26475   8.849   8.466   5.111 -0.0568 -0.8113  0.6045
  959MOL0     C26476   8.979   8.398   5.072 -0.0621 -0.0082 -0.2796
  959MOL0     C26477   8.957   8.241   5.087  0.6850  0.2363 -0.4227
  959MOL0     C26478   9.091   8.169   5.060 -0.5792  0.1829 -0.7999
  959MOL0     C26479   9.169   8.198   4.931  0.1658  0.5727 -0.7734
  959MOL0     O26480   9.074   8.208   4.823  0.7034 -0.4444 -0.5580
  959MOL0     C26481   9.124   8.222   4.698  0.0035  0.2530  0.7087
  959MOL0     C26482   9.032   8.199   4.593 -0.4859 -0.2708  0.3650
  959MOL0     C26483   9.071   8.198   4.466 -0.7844 -1.2428  0.1896
  959MOL0     C26484   9.190   8.252   4.432 -0.9406 -0.5530  0.7451
  959MOL0     C26485   9.236   8.269   4.292  0.1750 -0.2898  0.4451
  959MOL0     O26486   9.366   8.303   4.270 -0.0491 -0.4731  0.2986
  959MOL0     C26487   9.411   8.322   4.137 -0.1212  0.0528 -0.7640
  959MOL0     C26488   9.545   8.291   4.114 -0.9049  0.1206 -0.2262
  959MOL0     C26489   9.601   8.334   3.998  0.0817  0.3293  0.4689
  959MOL0     C26490   9.530   8.405   3.899 -0.4901  0.6257 -1.0156
  959MOL0     O26491   9.611   8.447   3.789  0.2340  0.0302  0.1683
  959MOL0     C26492   9.568   8.546   3.697  0.1704 -0.0946 -0.9064
  959MOL0     C26493   9.640   8.528   3.561  0.6142 -0.4869 -0.2683
  959MOL0     C26494   9.792   8.504   3.555  0.3396  0.1786 -0.9701
  959MOL0     C26495   9.884   8.572   3.660  0.8965  0.9993  0.1507
  959MOL0     C26496  10.032   8.545   3.627 -0.1428 -0.6264 -0.9956
  959MOL0     C26497  10.118   8.564   3.751  0.3981  0.6656  0.1698
  959MOL0     C26498  10.262   8.593   3.702 -0.7766 -0.5498 -0.7654
  959MOL0     C26499  10.356   8.578   3.822  0.1396 -0.2257 -0.3359
  959MOL0    Cl26500  10.392   8.410   3.861  0.2465 -0.0970  0.1169
  959MOL0     C26501   9.390   8.427   3.922 -1.0539  0.1815  0.6054
  959MOL0     C26502   9.333   8.380   4.038  0.6911  0.7759  0.3150
  959MOL0     O26503   9.154   8.239   4.201  0.3862 -0.0944  0.0179
  959MOL0     C26504   9.286   8.275   4.533 -0.2238  0.6836  0.9535
  959MOL0     C26505   9.258   8.246   4.663 -0.2242 -1.0956 -0.3843
  959MOL0     N26506   8.754   8.484   5.016 -0.3752  0.6001 -0.3761
  959MOL0     N26507   8.648   8.532   5.074 -1.1358 -0.6388  0.2467
  959MOL0     C26508   9.427   8.886   5.460 -0.0952  0.6553  0.1304
  959MOL0     C26509   9.558   8.869   5.497 -0.0557  0.3162  0.3926
  959MOL0     C26510  10.002   8.849   5.549  0.4710 -0.0613 -0.5433
  959MOL0     C26511  10.073   8.963   5.566 -0.4546  0.3839  0.2132
  959MOL0     C26512  10.207   8.966   5.566 -0.0610 -0.1353  0.4604
  959MOL0     C26513  10.282   8.853   5.550  0.4618  0.0630  0.5193
  959MOL0     O26514  10.418   8.854   5.534 -0.0926  0.1891 -0.3586
  959MOL0     C26515  10.497   8.871   5.652  0.4921 -0.3856 -0.6766
  959MOL0     C26516  10.622   8.951   5.615  0.5715  0.1639  0.0103
  959MOL0     C26517  10.729   8.971   5.720  0.6093 -0.4685  0.1364
  959MOL0     C26518  10.851   9.037   5.657  0.5870 -1.1645 -1.1600
  959MOL0     C26519  10.949   9.083   5.758 -0.9048  0.0423  0.5817
  959MOL0     C26520  11.021   9.123   5.852 -0.5250  0.2164  0.6636
  959MOL0     C26521  10.208   8.732   5.545 -0.2641 -0.4004 -0.8838
  959MOL0     C26522  10.070   8.728   5.548  0.4446  0.4338  0.5222
  959MOL0     H26523   9.680   9.177   5.489  1.5252 -2.3050  2.6282
  959MOL0     H26524   9.441   9.224   5.436 -2.9510 -0.2485  1.3005
  959MOL0     H26525   9.157   8.923   5.558  0.3467 -1.2034 -1.3771
  959MOL0     H26526   9.131   8.878   5.390  0.7996 -0.2618  0.1806
  959MOL0     H26527   9.017   9.098   5.354 -2.5402  0.5376  0.7099
  959MOL0     H26528   9.005   9.098   5.530 -0.2896 -0.3713  0.9917
  959MOL0     H26529   8.903   8.872   5.517 -1.2101  0.4227  0.6556
  959MOL0     H26530   8.909   8.879   5.339  3.6670  4.1162 -2.3235
  959MOL0     H26531   8.730   9.031   5.536 -1.9970 -1.9817 -0.8850
  959MOL0     H26532   8.788   9.118   5.393  0.9171  1.4112  1.8173
  959MOL0     H26533   8.677   8.953   5.253 -0.1275 -0.9948  0.4106
  959MOL0     H26534   8.558   9.006   5.371 -0.3744  0.0972 -2.5268
  959MOL0     H26535   8.626   8.799   5.509  2.7543 -2.6483  0.2256
  959MOL0     H26536   8.729   8.749   5.373 -0.1810 -0.3329 -0.9280
  959MOL0     H26537   8.426   8.731   5.344 -0.9203 -1.2047 -0.9764
  959MOL0     H26538   8.544   8.774   5.211  1.9091  1.8575  1.0981
  959MOL0     H26539   8.487   8.522   5.293  0.1455  0.1982 -0.1514
  959MOL0     H26540   8.605   8.536   5.411 -0.5898  0.0761  0.7752
  959MOL0     H26541   8.873   8.554   5.310 -1.6070  0.8542  0.5666
  959MOL0     H26542   9.057   8.430   5.142  2.6697 -2.7374 -1.8231
  959MOL0     H26543   9.015   8.432   4.974  2.3826  1.4236  1.0237
  959MOL0     H26544   8.872   8.209   5.027 -1.0349 -3.5737  3.4884
  959MOL0     H26545   8.939   8.215   5.192  4.0083  0.2691  0.2600
  959MOL0     H26546   9.158   8.192   5.143 -1.2753 -2.3039  0.5621
  959MOL0     H26547   9.075   8.060   5.066  0.7832 -0.1018 -1.7679
  959MOL0     H26548   9.231   8.114   4.900  1.8412  1.6249 -0.4152
  959MOL0     H26549   9.220   8.295   4.941  1.5370 -0.1910  0.0044
  959MOL0     H26550   8.926   8.176   4.605 -0.2024 -1.1676  1.2385
  959MOL0     H26551   8.997   8.173   4.390 -0.4481  0.1024 -0.6284
  959MOL0     H26552   9.604   8.236   4.187  0.1392 -1.8548 -2.4279
  959MOL0     H26553   9.705   8.308   3.982 -0.3834  0.2314 -3.3392
  959MOL0     H26554   9.587   8.643   3.744 -0.7178 -0.8438  1.0951
  959MOL0     H26555   9.459   8.548   3.689  0.2856  2.8418 -3.4077
  959MOL0     H26556   9.599   8.613   3.505 -4.4579 -1.6634  1.1818
  959MOL0     H26557   9.589   8.454   3.500 -0.2288  0.5680 -0.8845
  959MOL0     H26558   9.830   8.525   3.454 -1.8037  1.8858 -1.4895
  959MOL0     H26559   9.814   8.397   3.564 -0.9328 -0.0430 -0.3042
  959MOL0     H26560   9.869   8.680   3.664  1.1963  1.0516 -0.1931
  959MOL0     H26561   9.863   8.530   3.759 -0.0986 -2.7960 -1.4703
  959MOL0     H26562  10.052   8.630   3.562  2.7825  3.4028  4.3673
  959MOL0     H26563  10.052   8.454   3.570 -0.7768 -0.0627 -2.1389
  959MOL0     H26564  10.109   8.477   3.817 -1.4027  0.3633 -0.4361
  959MOL0     H26565  10.077   8.648   3.806 -1.6813  0.8661 -1.5499
  959MOL0     H26566  10.301   8.525   3.626 -0.7562 -1.9072  0.4186
  959MOL0     H26567  10.281   8.695   3.668  1.3932 -0.1635  1.3482
  959MOL0     H26568  10.316   8.626   3.912 -0.0266 -2.8694  1.1192
  959MOL0     H26569  10.456   8.616   3.801  1.8146 -2.8661  2.1054
  959MOL0     H26570   9.329   8.486   3.854  2.5627  3.8884  0.1572
  959MOL0     H26571   9.230   8.401   4.066 -0.1207 -3.4693  1.1481
  959MOL0     H26572   9.381   8.316   4.501  0.0546 -2.9616 -3.9165
  959MOL0     H26573   9.333   8.257   4.740 -1.8938  0.0932  1.1749
  959MOL0     H26574   9.350   8.810   5.448 -2.4840  2.6243  1.9301
  959MOL0     H26575   9.573   8.764   5.516 -3.1477  0.0101  1.7905
  959MOL0     H26576  10.020   9.058   5.565  0.3114  0.8348  0.6673
  959MOL0     H26577  10.242   9.068   5.578 -2.4477  1.1210 -2.0951
  959MOL0     H26578  10.515   8.773   5.697  1.3720 -0.4418 -1.1230
  959MOL0     H26579  10.438   8.924   5.727  2.8224 -1.4818  2.1028
  959MOL0     H26580  10.670   8.907   5.528  4.1101  1.3144  1.2163
  959MOL0     H26581  10.595   9.057   5.608  1.3794  0.2882 -1.5734
  959MOL0     H26582  10.747   8.870   5.758  3.2429  0.3422  1.2334
  959MOL0     H26583  10.688   9.041   5.794 -0.0698 -0.0930 -0.5809
  959MOL0     H26584  10.901   8.975   5.582  0.8302 -1.9944 -0.3394
  959MOL0     H26585  10.815   9.119   5.596 -1.6741 -3.2009 -2.7519
  959MOL0     H26586  11.078   9.190   5.913 -1.5215  6.1850 -3.9985
  959MOL0     H26587  10.252   8.635   5.530  1.1225  0.1106 -0.2905
  959MOL0     H26588  10.017   8.634   5.534 -0.7155  1.2599 -0.8011
  960MOL0     O26589   7.645   7.774  10.893 -0.2378  0.2422  0.4448
  960MOL0     C26590   7.658   7.814  11.008 -0.4349  0.0094  0.0029
  960MOL0     O26591   7.578   7.772  11.106 -0.1290  0.0181  0.2379
  960MOL0     C26592   7.443   7.755  11.084  0.7513 -0.6225 -0.0996
  960MOL0     C26593   7.397   7.647  11.149  0.5715  0.1872  0.6873
  960MOL0     C26594   7.264   7.606  11.133 -0.3936 -0.4746  0.4958
  960MOL0     C26595   7.164   7.688  11.067 -1.5282  0.9590  0.5542
  960MOL0     O26596   7.037   7.648  11.036 -0.9613  0.4458 -0.8922
  960MOL0     C26597   6.946   7.709  11.127 -0.9175 -1.4246  0.3240
  960MOL0     C26598   6.808   7.705  11.070 -0.2871  0.3505  0.1888
  960MOL0     C26599   6.708   7.764  11.175  0.5813  0.5156 -0.5777
  960MOL0     C26600   6.561   7.741  11.146  0.4774  0.8250 -0.1133
  960MOL0     C26601   6.476   7.866  11.135 -0.0755 -0.1799 -0.7365
  960MOL0     C26602   6.327   7.836  11.155 -0.3116  0.5062 -0.8897
  960MOL0     C26603   6.251   7.975  11.161 -0.2515 -0.0252  0.0027
  960MOL0     C26604   6.102   7.931  11.167  0.5410 -0.7406  0.0462
  960MOL0     N26605   6.008   8.043  11.193 -0.0872  0.3667 -0.2596
  960MOL0     C26606   5.906   8.042  11.281 -0.1235  0.5699 -0.2366
  960MOL0     C26607   5.828   8.150  11.246  0.1534  0.6650  0.0837
  960MOL0     C26608   5.706   8.186  11.324 -0.0044 -0.1164 -0.0175
  960MOL0     C26609   5.686   8.331  11.325 -0.1130  0.7430  0.0290
  960MOL0     C26610   5.567   8.377  11.415  0.2722  0.2591 -0.9164
  960MOL0     C26611   5.432   8.355  11.359 -0.7393  0.5456 -0.0884
  960MOL0     O26612   5.432   8.442  11.241  0.0899 -0.3955  0.4988
  960MOL0     C26613   5.333   8.540  11.236 -0.4367  0.2105  0.0330
  960MOL0     C26614   5.376   8.676  11.213  0.7910  0.0707  0.2445
  960MOL0     C26615   5.275   8.778  11.212  0.0911  1.1019 -0.4080
  960MOL0     C26616   5.142   8.741  11.209  0.8390 -0.4024 -0.8623
  960MOL0     C26617   5.048   8.850  11.203 -0.4404  0.6142  0.1996
  960MOL0     O26618   5.083   8.975  11.155 -0.7533  0.4189  0.8249
  960MOL0     C26619   4.995   9.073  11.147  0.1849  0.3878  1.6477
  960MOL0     C26620   4.951   9.132  11.272 -0.1681 -0.0691 -0.1651
  960MOL0     C26621   4.901   9.262  11.263 -0.6347 -0.0276 -0.0085
  960MOL0     C26622   4.869   9.324  11.143  0.0009  0.1720  0.1142
  960MOL0     O26623   4.840   9.463  11.127 -0.4335 -0.1259  0.4360
  960MOL0     C26624   4.889   9.555  11.234  1.1825 -0.0090  0.3927
  960MOL0     C26625   5.040   9.569  11.211  0.4262 -0.5203 -0.1438
  960MOL0     C26626   5.099   9.683  11.285  0.2908  0.4629  0.4500
  960MOL0     C26627   5.249   9.698  11.249 -0.0353  0.0122 -0.6512
  960MOL0     C26628   5.342   9.767  11.354 -0.1092  0.3855  0.4811
  960MOL0     C26629   5.300   9.913  11.358 -0.7868  0.2545  0.6462
  960MOL0     C26630   5.369   9.997  11.473  1.3454 -0.6629 -0.3842
  960MOL0     C26631   5.295  10.128  11.509 -0.1072  0.0500 -0.2989
  960MOL0    Cl26632   5.137  10.094  11.587 -0.1917 -0.2124  0.1059
  960MOL0     C26633   4.894   9.261  11.028  0.2300  0.2028 -0.2137
  960MOL0     C26634   4.960   9.142  11.021  1.0214  0.9137 -0.0287
  960MOL0     O26635   4.940   8.831  11.254 -0.1296  1.0039  0.6478
  960MOL0     C26636   5.103   8.607  11.232  0.3417  0.0836 -0.3830
  960MOL0     C26637   5.198   8.500  11.247  0.7899 -0.9992  0.6889
  960MOL0     N26638   5.892   8.222  11.147  0.0124 -1.2660 -0.0121
  960MOL0     N26639   5.998   8.154  11.113 -0.3985  0.4146  0.2351
  960MOL0     C26640   7.216   7.803  11.002 -0.6622 -0.5526  0.2223
  960MOL0     C26641   7.353   7.836  11.020  0.6852  0.1233  0.9327
  960MOL0     C26642   7.779   7.895  11.042 -0.2328  0.0377  1.0131
  960MOL0     C26643   7.801   7.953  11.169  0.3487 -0.8248 -0.4697
  960MOL0     C26644   7.918   8.026  11.199 -0.4486  0.0296 -0.4480
  960MOL0     C26645   8.031   8.032  11.115  0.2227  0.0408 -0.5582
  960MOL0     O26646   8.140   8.113  11.149  0.2389  0.0406  0.0485
  960MOL0     C26647   8.271   8.077  11.096  0.4555  0.1248  0.3455
  960MOL0     C26648   8.355   8.199  11.138 -0.9661 -0.2912  0.7745
  960MOL0     C26649   8.324   8.322  11.052  0.1315  0.3146  0.0384
  960MOL0     C26650   8.418   8.437  11.075 -0.7193  0.8043  0.2738
  960MOL0     C26651   8.357   8.569  11.039  0.4435  0.4936 -0.6160
  960MOL0     C26652   8.315   8.674  10.997 -0.0648 -0.6451  0.7678
  960MOL0     C26653   8.011   7.975  10.991  0.4878 -0.7494  0.1859
  960MOL0     C26654   7.886   7.905  10.951 -0.3940  0.5673 -0.2167
  960MOL0     H26655   7.446   7.599  11.233 -0.7193 -1.4390  0.5559
  960MOL0     H26656   7.217   7.527  11.191 -0.5173  1.0814  2.6281
  960MOL0     H26657   6.974   7.813  11.148  1.0210 -1.6453 -0.9290
  960MOL0     H26658   6.948   7.641  11.213 -2.2971 -3.4157 -1.1402
  960MOL0     H26659   6.785   7.599  11.055  0.0134  0.3908 -0.5674
  960MOL0     H26660   6.796   7.759  10.976  1.3226  0.6344  0.1162
  960MOL0     H26661   6.724   7.871  11.187  1.2666  0.1908  1.8223
  960MOL0     H26662   6.725   7.716  11.272  0.0878  1.7777  0.1507
  960MOL0     H26663   6.557   7.678  11.056  2.1403  2.1912 -1.2007
  960MOL0     H26664   6.529   7.693  11.239 -1.0736  1.6630 -0.1836
  960MOL0     H26665   6.490   7.921  11.042 -1.3869 -0.2853 -1.0109
  960MOL0     H26666   6.492   7.928  11.224  0.3167 -0.7856 -0.3840
  960MOL0     H26667   6.305   7.783  11.248  1.1563  1.2146 -0.1213
  960MOL0     H26668   6.297   7.777  11.067  1.7353 -1.1266 -0.5614
  960MOL0     H26669   6.282   8.022  11.255  2.6716 -0.6801 -0.5084
  960MOL0     H26670   6.270   8.042  11.077  4.1995  1.2871  1.7451
  960MOL0     H26671   6.084   7.854  11.242  0.5272 -1.7453 -0.9525
  960MOL0     H26672   6.072   7.894  11.069 -0.3089 -0.7548  0.3069
  960MOL0     H26673   5.891   7.959  11.350  0.1835 -0.2110 -1.0872
  960MOL0     H26674   5.708   8.156  11.429 -1.2656 -1.1715 -0.2757
  960MOL0     H26675   5.614   8.143  11.285  0.3858  1.0710 -2.4086
  960MOL0     H26676   5.663   8.364  11.224 -2.9859  5.2139  1.8456
  960MOL0     H26677   5.775   8.376  11.370  0.1432 -1.2875  1.7417
  960MOL0     H26678   5.573   8.319  11.508 -0.0968  0.9310 -0.4594
  960MOL0     H26679   5.576   8.484  11.434  0.8929  0.0074  0.3053
  960MOL0     H26680   5.358   8.387  11.433  0.6713  1.1218  1.1361
  960MOL0     H26681   5.414   8.248  11.346 -2.8367  0.5102  2.2696
  960MOL0     H26682   5.482   8.690  11.197  0.8735 -0.5090  0.2633
  960MOL0     H26683   5.298   8.885  11.210 -1.9295  1.5634 -0.5005
  960MOL0     H26684   4.960   9.071  11.361 -1.7007 -0.9805 -0.5993
  960MOL0     H26685   4.879   9.312  11.357 -3.0456  1.4438 -1.2711
  960MOL0     H26686   4.876   9.536  11.341 -0.0594  2.2880  0.7235
  960MOL0     H26687   4.840   9.652  11.221 -2.1832 -1.2347  2.5511
  960MOL0     H26688   5.062   9.575  11.104 -0.1325 -0.9008 -0.2824
  960MOL0     H26689   5.081   9.473  11.245 -1.4341 -0.9463  1.0292
  960MOL0     H26690   5.077   9.670  11.391 -3.7317  2.1040  0.0164
  960MOL0     H26691   5.048   9.779  11.269 -2.0984 -0.7522  0.3888
  960MOL0     H26692   5.289   9.597  11.235  0.2856 -0.1915  1.4203
  960MOL0     H26693   5.253   9.739  11.147  0.6170 -2.6538 -1.7717
  960MOL0     H26694   5.447   9.770  11.325  0.4516 -0.7650  2.2582
  960MOL0     H26695   5.332   9.724  11.454 -0.0846 -0.2115  0.2299
  960MOL0     H26696   5.192   9.913  11.370 -0.8261 -3.6513  1.4031
  960MOL0     H26697   5.318   9.953  11.257 -0.3477 -3.5486 -0.9293
  960MOL0     H26698   5.364   9.926  11.556  1.4431 -3.4236 -2.6109
  960MOL0     H26699   5.475  10.005  11.449  1.2570  1.8897 -0.2332
  960MOL0     H26700   5.285  10.188  11.418  0.3464  0.0448 -0.3533
  960MOL0     H26701   5.349  10.188  11.583  0.2550 -2.0771  1.2556
  960MOL0     H26702   4.876   9.317  10.937 -1.9385 -1.2348 -0.7667
  960MOL0     H26703   4.998   9.107  10.926 -0.2849 -0.3109 -0.1360
  960MOL0     H26704   5.003   8.566  11.231  0.3727 -0.1311  1.4213
  960MOL0     H26705   5.166   8.397  11.261 -0.7526 -0.3743  2.0909
  960MOL0     H26706   7.141   7.853  10.941 -4.4043 -4.0506  1.5265
  960MOL0     H26707   7.381   7.927  10.968 -2.5227  0.3787 -0.6019
  960MOL0     H26708   7.735   7.969  11.254  2.7647  2.4901  0.9823
  960MOL0     H26709   7.930   8.069  11.298  0.4228  1.7178 -1.2451
  960MOL0     H26710   8.278   8.066  10.988  2.9385 -3.2545  0.6788
  960MOL0     H26711   8.315   7.980  11.120 -0.4922 -1.8916 -4.8500
  960MOL0     H26712   8.339   8.222  11.243 -2.0701  1.6328  0.2428
  960MOL0     H26713   8.463   8.183  11.127 -1.0315 -1.4635  1.7009
  960MOL0     H26714   8.221   8.355  11.069  0.3298  0.8000  0.3223
  960MOL0     H26715   8.344   8.291  10.949 -0.1132 -1.0648  0.3879
  960MOL0     H26716   8.445   8.448  11.180  1.5412  1.6167 -0.3172
  960MOL0     H26717   8.506   8.422  11.011 -1.6971 -0.5920 -0.8056
  960MOL0     H26718   8.276   8.761  10.950 -1.0018  0.2050  3.0052
  960MOL0     H26719   8.078   7.979  10.905  0.4979  1.4579  0.2425
  960MOL0     H26720   7.887   7.851  10.857 -0.5055 -1.3238  0.8281
  961MOL0     O26721   5.605   5.810   9.076 -0.2844 -0.1750  0.1994
  961MOL0     C26722   5.692   5.800   8.990  0.0678 -0.2647 -0.1590
  961MOL0     O26723   5.693   5.866   8.870  0.6304  0.0506  0.1248
  961MOL0     C26724   5.581   5.920   8.810  0.3400 -0.8868 -0.7726
  961MOL0     C26725   5.597   6.023   8.719 -0.1916  0.0069  0.6325
  961MOL0     C26726   5.485   6.087   8.659 -0.2868 -0.3617  0.6344
  961MOL0     C26727   5.353   6.045   8.677  0.0073  0.6474  1.2049
  961MOL0     O26728   5.238   6.087   8.612 -0.1318 -0.4132  0.9120
  961MOL0     C26729   5.250   6.196   8.511 -0.2270  0.0045 -0.3828
  961MOL0     C26730   5.299   6.142   8.366 -0.1907  0.1204 -0.2354
  961MOL0     C26731   5.222   6.015   8.330 -0.2564  0.9566  0.9983
  961MOL0     C26732   5.263   5.978   8.184  0.0767  0.4399  0.4532
  961MOL0     C26733   5.184   5.847   8.145  0.4106 -0.1065  0.0927
  961MOL0     C26734   5.030   5.877   8.127 -0.4113 -0.6231  0.1236
  961MOL0     C26735   4.967   5.768   8.051  0.3430 -0.3110  0.1243
  961MOL0     C26736   5.007   5.774   7.899 -0.0117 -0.4773  0.2406
  961MOL0     N26737   5.017   5.893   7.816  0.1159  0.2638  0.8886
  961MOL0     C26738   4.925   5.996   7.818  0.1630  0.1211 -0.1575
  961MOL0     C26739   4.961   6.076   7.716 -0.0523 -0.0868 -0.0414
  961MOL0     C26740   4.893   6.206   7.689  0.6696 -0.0977  0.6755
  961MOL0     C26741   4.985   6.307   7.769  0.5118  0.3015  0.3031
  961MOL0     C26742   4.950   6.300   7.927 -0.6365  0.2319  0.7215
  961MOL0     C26743   5.029   6.416   8.011  0.2668 -0.1329  1.2109
  961MOL0     O26744   5.159   6.431   7.959  0.6260 -0.3098  0.3521
  961MOL0     C26745   5.244   6.489   8.053  0.6994  0.6082 -0.0935
  961MOL0     C26746   5.211   6.568   8.166 -0.4478  0.4042  0.6595
  961MOL0     C26747   5.310   6.593   8.267  0.1207 -0.5642  0.4395
  961MOL0     C26748   5.437   6.538   8.256 -0.6350  0.5400  0.3836
  961MOL0     C26749   5.531   6.580   8.363  0.3191  1.3008  0.7886
  961MOL0     O26750   5.476   6.601   8.486  0.2474  0.2188  0.0588
  961MOL0     C26751   5.560   6.630   8.590 -0.0151  0.2112  0.6746
  961MOL0     C26752   5.585   6.763   8.632 -0.7105 -0.1989  0.1016
  961MOL0     C26753   5.664   6.791   8.742 -0.4633  0.2599 -0.9689
  961MOL0     C26754   5.736   6.676   8.806 -1.0087 -0.6809  0.4577
  961MOL0     O26755   5.834   6.696   8.905 -0.9835  0.3346 -0.0872
  961MOL0     C26756   5.826   6.821   8.972  0.1062 -0.3538 -0.3827
  961MOL0     C26757   5.873   6.826   9.117 -1.4878  0.5516  0.0270
  961MOL0     C26758   5.801   6.909   9.215 -0.8170  0.7145  0.4714
  961MOL0     C26759   5.845   7.056   9.200  0.2568  0.4889  0.0113
  961MOL0     C26760   5.806   7.124   9.332  0.0312  0.4302 -0.1958
  961MOL0     C26761   5.829   7.274   9.333  0.0118  0.6840 -0.1387
  961MOL0     C26762   5.968   7.332   9.347  0.1726  0.8695  0.2810
  961MOL0     C26763   5.984   7.480   9.324 -0.3006  0.0952  0.2330
  961MOL0    Cl26764   5.883   7.582   9.424 -0.0235 -0.3042  0.2756
  961MOL0     C26765   5.719   6.549   8.756  0.2368 -0.4964 -0.0479
  961MOL0     C26766   5.627   6.525   8.657  0.4799  0.8258  0.6848
  961MOL0     O26767   5.646   6.591   8.325  0.1551 -0.1939  0.7075
  961MOL0     C26768   5.479   6.477   8.140 -0.1619  0.9037  0.2427
  961MOL0     C26769   5.381   6.452   8.037 -0.1471 -0.5949 -0.5242
  961MOL0     N26770   5.061   6.013   7.645 -1.4621  0.0553 -0.7569
  961MOL0     N26771   5.093   5.901   7.708 -0.2685  0.0989 -0.0975
  961MOL0     C26772   5.336   5.928   8.757  0.3965  0.4568  0.2874
  961MOL0     C26773   5.450   5.863   8.819  0.3042 -0.0730 -0.7349
  961MOL0     C26774   5.827   5.743   9.034 -0.5270  0.2056  0.1786
  961MOL0     C26775   5.936   5.736   8.941  0.5369  0.8271  0.9431
  961MOL0     C26776   6.063   5.678   8.982  0.2667  0.1162 -0.0964
  961MOL0     C26777   6.081   5.649   9.113 -0.3633  0.3553 -0.8267
  961MOL0     O26778   6.201   5.606   9.166  0.1995 -0.1666 -0.4091
  961MOL0     C26779   6.202   5.460   9.191 -0.0727  0.4740 -0.2783
  961MOL0     C26780   6.260   5.379   9.061 -0.1019  0.4425  0.0038
  961MOL0     C26781   6.410   5.383   9.050 -0.3238 -0.1259 -0.3031
  961MOL0     C26782   6.478   5.339   9.184  0.1179 -0.5928  0.8789
  961MOL0     C26783   6.626   5.314   9.160  0.3655 -0.7589  0.3542
  961MOL0     C26784   6.735   5.280   9.122 -0.8678 -0.4709 -0.3076
  961MOL0     C26785   5.984   5.668   9.206  0.7713  0.4641  1.1205
  961MOL0     C26786   5.854   5.703   9.170 -0.5403  0.4163  0.1166
  961MOL0     H26787   5.698   6.063   8.708  0.0843 -0.7732  0.3032
  961MOL0     H26788   5.503   6.170   8.591 -0.0996 -0.8634  0.0703
  961MOL0     H26789   5.329   6.262   8.548 -1.1929  0.0770  1.6586
  961MOL0     H26790   5.156   6.250   8.498 -1.2587 -1.3559  1.0674
  961MOL0     H26791   5.408   6.129   8.362  0.0019  1.1228  0.8394
  961MOL0     H26792   5.279   6.225   8.297  2.3529  1.1346  0.1310
  961MOL0     H26793   5.115   6.037   8.340 -0.1727  2.6004 -1.1392
  961MOL0     H26794   5.253   5.938   8.401 -0.2420 -2.6344 -2.5684
  961MOL0     H26795   5.223   6.052   8.115  1.1234 -0.8516 -1.6337
  961MOL0     H26796   5.370   5.963   8.169 -0.4320 -2.5577 -0.8956
  961MOL0     H26797   5.189   5.764   8.217 -1.8774  0.5121  1.0620
  961MOL0     H26798   5.223   5.810   8.050  2.6488 -4.3341  2.3256
  961MOL0     H26799   5.008   5.979   8.096  0.1077  0.3931  2.8042
  961MOL0     H26800   4.996   5.876   8.231 -0.2928 -0.4047  0.1649
  961MOL0     H26801   4.992   5.668   8.088 -0.3081 -0.7504 -0.5816
  961MOL0     H26802   4.858   5.778   8.057  0.2401  0.6104 -2.3279
  961MOL0     H26803   4.936   5.707   7.849  0.3732  0.0459 -1.0736
  961MOL0     H26804   5.100   5.718   7.888 -0.0329 -0.3539 -0.6966
  961MOL0     H26805   4.851   6.007   7.896  0.3479 -1.6930  0.3159
  961MOL0     H26806   4.788   6.211   7.721  0.0702 -3.1260 -0.5270
  961MOL0     H26807   4.896   6.224   7.581  1.0299 -1.1887  0.4961
  961MOL0     H26808   4.978   6.413   7.741 -0.2050  0.7028  1.8661
  961MOL0     H26809   5.086   6.273   7.744  0.1560  0.5436 -1.6165
  961MOL0     H26810   4.844   6.300   7.953 -0.2818 -1.7288  2.4709
  961MOL0     H26811   4.984   6.205   7.970  1.2310  0.3232 -0.4382
  961MOL0     H26812   5.025   6.382   8.114 -1.8930 -0.9503  0.8986
  961MOL0     H26813   4.985   6.514   7.992  3.2882  0.8893 -1.4754
  961MOL0     H26814   5.109   6.604   8.168 -0.4489  0.4102  0.4614
  961MOL0     H26815   5.287   6.653   8.355  2.6030 -1.6128  1.8961
  961MOL0     H26816   5.519   6.836   8.585 -2.3502 -3.6199 -3.4300
  961MOL0     H26817   5.673   6.898   8.759 -1.4283  0.0846  0.9331
  961MOL0     H26818   5.721   6.849   8.988 -0.3357 -2.6207  1.0387
  961MOL0     H26819   5.881   6.903   8.924  0.1004  0.3408  0.7317
  961MOL0     H26820   5.981   6.843   9.118 -1.3048 -0.5518  0.7945
  961MOL0     H26821   5.856   6.728   9.161 -4.9409  1.9856  2.3039
  961MOL0     H26822   5.829   6.869   9.312  0.4427 -3.1708 -1.2797
  961MOL0     H26823   5.694   6.891   9.228 -0.6753 -1.4223 -0.7224
  961MOL0     H26824   5.954   7.056   9.188  0.0784 -1.5090 -2.4286
  961MOL0     H26825   5.791   7.107   9.120 -0.3222 -0.3134 -0.1193
  961MOL0     H26826   5.869   7.078   9.408 -0.9788  0.5820  0.7558
  961MOL0     H26827   5.703   7.104   9.361  0.3719 -2.0515 -0.4999
  961MOL0     H26828   5.770   7.315   9.415  0.6955 -0.0591  0.7370
  961MOL0     H26829   5.773   7.302   9.243 -2.5979 -1.7345  0.5893
  961MOL0     H26830   6.004   7.320   9.450  0.0427 -0.2403  0.2122
  961MOL0     H26831   6.032   7.263   9.291 -0.3403 -0.8832  1.7461
  961MOL0     H26832   5.967   7.502   9.219 -0.9368  0.8654  0.4905
  961MOL0     H26833   6.089   7.508   9.336  0.0558 -1.4075  0.8598
  961MOL0     H26834   5.788   6.470   8.783  2.8882  1.7891  0.3422
  961MOL0     H26835   5.606   6.425   8.622  0.8462  0.4729  1.4588
  961MOL0     H26836   5.579   6.437   8.132  0.5078  2.5814 -0.2608
  961MOL0     H26837   5.396   6.393   7.947 -2.9693  0.4172 -1.7785
  961MOL0     H26838   5.235   5.892   8.773 -0.4128  2.1393 -0.7170
  961MOL0     H26839   5.419   5.774   8.872  1.1566 -0.1025 -0.2827
  961MOL0     H26840   5.915   5.761   8.837  1.0761  1.1642  0.9081
  961MOL0     H26841   6.135   5.685   8.901 -1.8739  1.9197 -2.0335
  961MOL0     H26842   6.103   5.415   9.202  0.1959 -0.7893 -2.5990
  961MOL0     H26843   6.257   5.429   9.281 -2.3780  0.1982  1.1252
  961MOL0     H26844   6.218   5.281   9.086 -0.3635  1.3921  3.9447
  961MOL0     H26845   6.208   5.412   8.971 -0.9224 -2.3691 -0.6401
  961MOL0     H26846   6.458   5.478   9.025  0.9807 -0.9526 -1.0716
  961MOL0     H26847   6.443   5.316   8.969 -1.1099  1.4432 -1.9731
  961MOL0     H26848   6.488   5.429   9.245  1.6883  1.0983 -1.6547
  961MOL0     H26849   6.420   5.263   9.237  1.9445 -0.3322  3.4655
  961MOL0     H26850   6.832   5.258   9.085 -1.0591  0.5938 -1.5258
  961MOL0     H26851   6.011   5.654   9.311  2.6106  0.6147  0.7016
  961MOL0     H26852   5.771   5.714   9.238  0.5942  2.5363  1.2633
  962MOL0     O26853   6.991   0.398  10.381 -0.1701 -0.3099 -0.9716
  962MOL0     C26854   6.996   0.497  10.312  0.1868 -0.8582  0.1039
  962MOL0     O26855   6.881   0.567  10.266 -0.4095  0.1172 -0.3751
  962MOL0     C26856   6.752   0.554  10.300 -0.6858 -0.9579 -0.0861
  962MOL0     C26857   6.657   0.616  10.219  0.3365 -0.2556 -0.2218
  962MOL0     C26858   6.526   0.608  10.238  0.3157  0.5146 -0.6064
  962MOL0     C26859   6.477   0.553  10.354  0.6133 -0.8171 -0.7523
  962MOL0     O26860   6.342   0.567  10.377 -0.6808  0.8358  0.6603
  962MOL0     C26861   6.258   0.481  10.454  0.3408 -0.0395  0.2001
  962MOL0     C26862   6.116   0.550  10.478  0.3863 -0.6964 -0.8331
  962MOL0     C26863   6.018   0.468  10.552  0.6669 -1.0191 -0.0906
  962MOL0     C26864   5.987   0.336  10.477  0.0756 -1.0373 -0.0364
  962MOL0     C26865   5.869   0.262  10.550 -0.1453 -0.1086 -0.0530
  962MOL0     C26866   5.924   0.187  10.670 -0.0932  0.0624 -0.2606
  962MOL0     C26867   5.807   0.110  10.742 -0.4958 -0.9051  0.0490
  962MOL0     C26868   5.831   0.005  10.846 -0.1954  0.8425  0.5015
  962MOL0     N26869   5.972  -0.004  10.888 -0.7518 -0.0513 -0.1229
  962MOL0     C26870   6.041   0.067  10.981  0.1414 -1.1501 -0.2653
  962MOL0     C26871   6.168   0.021  10.987 -0.3984 -0.3576 -0.6184
  962MOL0     C26872   6.280   0.072  11.070  0.0559  0.0563  0.6891
  962MOL0     C26873   6.362  -0.047  11.119 -0.3366 -0.0547 -0.4523
  962MOL0     C26874   6.485  -0.008  11.204  0.5955 -0.3990 -0.1657
  962MOL0     C26875   6.452  -0.007  11.352 -0.2060  0.3018 -0.4957
  962MOL0     O26876   6.322   0.063  11.374 -0.4609 -0.4853  0.6785
  962MOL0     C26877   6.255   0.033  11.492  0.1920 -0.0973  0.2503
  962MOL0     C26878   6.320  -0.021  11.610  0.0837  0.0303  0.2896
  962MOL0     C26879   6.256  -0.023  11.732 -0.4328 -0.0430 -0.1407
  962MOL0     C26880   6.138   0.048  11.748  0.1420 -0.8841  0.0488
  962MOL0     C26881   6.071   0.064  11.880 -0.3201  0.7648  0.3320
  962MOL0     O26882   6.148   0.028  11.980  0.2143  0.3724 -0.0333
  962MOL0     C26883   6.089  -0.017  12.092 -0.2645  0.5929 -0.7908
  962MOL0     C26884   6.156   0.013  12.213 -0.0326  0.3600 -0.1531
  962MOL0     C26885   6.096  -0.015  12.339  0.1334  0.4762 -0.0423
  962MOL0     C26886   5.993  -0.106  12.337 -0.6198 -0.1862 -0.4813
  962MOL0     O26887   5.965  -0.158  12.462  0.5592 -0.2320  0.0792
  962MOL0     C26888   5.850  -0.245  12.476 -0.2471  0.6915 -0.5662
  962MOL0     C26889   5.831  -0.286  12.630  0.3213 -0.4236 -0.2831
  962MOL0     C26890   5.778  -0.164  12.711  0.6009  0.3029 -0.6309
  962MOL0     C26891   5.628  -0.125  12.687 -0.7147  0.3565  0.0075
  962MOL0     C26892   5.585  -0.026  12.786 -0.6075 -0.2123 -0.0618
  962MOL0     C26893   5.443   0.017  12.752  0.9242 -0.2672 -0.0962
  962MOL0     C26894   5.379   0.117  12.861  0.2051 -0.4715  0.3688
  962MOL0     C26895   5.389   0.268  12.836  0.6162 -0.5119 -1.1332
  962MOL0    Cl26896   5.555   0.334  12.846 -0.0652 -0.1130  0.4079
  962MOL0     C26897   5.931  -0.148  12.213  0.1196 -0.3303  0.6183
  962MOL0     C26898   5.981  -0.099  12.092 -1.1735  0.1029 -0.8724
  962MOL0     O26899   5.952   0.093  11.898 -0.0875 -0.5048  0.6757
  962MOL0     C26900   6.076   0.106  11.640 -0.6255 -1.0730  0.9996
  962MOL0     C26901   6.129   0.094  11.516 -0.6500  0.0961 -0.2482
  962MOL0     N26902   6.172  -0.072  10.885 -0.1570  0.0555  0.2192
  962MOL0     N26903   6.055  -0.089  10.829 -0.8780  0.0774  0.6143
  962MOL0     C26904   6.569   0.498  10.448  0.3478  0.6523  1.4542
  962MOL0     C26905   6.702   0.483  10.405 -0.4054  0.8936 -0.2724
  962MOL0     C26906   7.126   0.528  10.242  0.5191 -0.9423  0.6384
  962MOL0     C26907   7.135   0.612  10.125  0.2281  1.3020 -0.2960
  962MOL0     C26908   7.260   0.634  10.062 -0.5524  0.1443 -0.1829
  962MOL0     C26909   7.377   0.567  10.113 -0.1514  0.6062 -0.7242
  962MOL0     O26910   7.494   0.611  10.051  0.3690  0.1834  0.3179
  962MOL0     C26911   7.622   0.580  10.112  0.0425  0.7707 -0.5613
  962MOL0     C26912   7.735   0.632  10.016 -0.5887 -0.7521 -0.3754
  962MOL0     C26913   7.726   0.785  10.011 -0.6422  0.5932  0.5234
  962MOL0     C26914   7.842   0.860   9.949 -0.4093 -0.1190 -0.6046
  962MOL0     C26915   7.968   0.800   9.987  0.2932  0.0196  0.2264
  962MOL0     C26916   8.074   0.740  10.010  0.7004 -0.0034 -0.5818
  962MOL0     C26917   7.368   0.472  10.223 -0.4436 -0.4134  0.3007
  962MOL0     C26918   7.237   0.452  10.281  0.0016  0.4226  1.4903
  962MOL0     H26919   6.694   0.654  10.124  1.5928  0.5676  0.5702
  962MOL0     H26920   6.456   0.649  10.167 -0.5609 -0.3853 -0.2846
  962MOL0     H26921   6.296   0.441  10.549 -2.7411 -2.0281  0.7258
  962MOL0     H26922   6.250   0.389  10.397 -1.1882  0.3507 -0.2412
  962MOL0     H26923   6.070   0.579  10.383 -0.3060 -1.0065 -0.6016
  962MOL0     H26924   6.132   0.644  10.532 -0.5058 -0.8032 -0.3548
  962MOL0     H26925   5.920   0.511  10.575  0.3605 -1.2517 -0.9198
  962MOL0     H26926   6.063   0.443  10.649  1.5017 -2.2204 -0.7610
  962MOL0     H26927   5.941   0.373  10.385 -2.6651  0.7359  1.9009
  962MOL0     H26928   6.077   0.275  10.462  0.1632 -0.8035 -0.4627
  962MOL0     H26929   5.826   0.189  10.481 -0.8528 -0.1353  0.4010
  962MOL0     H26930   5.792   0.333  10.582 -1.0752 -1.1462  0.0816
  962MOL0     H26931   5.960   0.268  10.734 -0.2467  0.8860 -1.1824
  962MOL0     H26932   6.007   0.120  10.646 -1.1445 -0.8243 -1.5309
  962MOL0     H26933   5.737   0.178  10.792  0.0049 -0.1622 -0.2514
  962MOL0     H26934   5.738   0.088  10.660 -0.9423  2.7042 -0.7207
  962MOL0     H26935   5.814  -0.094  10.803  0.4252  0.6357  0.7151
  962MOL0     H26936   5.771   0.013  10.937  1.6915 -1.3024  2.0754
  962MOL0     H26937   5.998   0.146  11.041 -2.3140 -2.4714 -0.1558
  962MOL0     H26938   6.233   0.138  11.144  1.3361  2.3320 -0.4131
  962MOL0     H26939   6.343   0.128  11.000 -0.3444 -1.1112 -0.6401
  962MOL0     H26940   6.390  -0.103  11.029  1.4355 -0.3196  0.2326
  962MOL0     H26941   6.295  -0.116  11.171 -3.4537 -0.3094 -4.3481
  962MOL0     H26942   6.566  -0.078  11.182  0.9732  0.6718 -2.4165
  962MOL0     H26943   6.517   0.090  11.169  1.7605 -0.7104 -0.0068
  962MOL0     H26944   6.535   0.037  11.407  0.3340  0.9312 -1.7866
  962MOL0     H26945   6.452  -0.111  11.388 -0.8514  0.5879  0.3591
  962MOL0     H26946   6.415  -0.074  11.607 -0.1403 -0.3337 -1.3019
  962MOL0     H26947   6.314  -0.061  11.815  1.6409  2.9372 -0.0868
  962MOL0     H26948   6.241   0.080  12.207  0.9286 -0.6352  1.6962
  962MOL0     H26949   6.133   0.025  12.434  1.0725  0.6375 -0.4573
  962MOL0     H26950   5.870  -0.340  12.424 -1.6815  0.0695 -0.0451
  962MOL0     H26951   5.757  -0.205  12.435 -1.6267 -3.3297 -1.8692
  962MOL0     H26952   5.930  -0.304  12.671  0.8472  1.9096 -0.3797
  962MOL0     H26953   5.759  -0.368  12.638  0.1368 -0.3392 -0.9629
  962MOL0     H26954   5.842  -0.080  12.682 -4.4739  4.1134 -2.0329
  962MOL0     H26955   5.807  -0.184  12.815 -0.1402 -1.4917 -0.7234
  962MOL0     H26956   5.608  -0.093  12.584  3.6726  2.1897 -0.4837
  962MOL0     H26957   5.563  -0.213  12.697  1.7067 -1.3702  1.8857
  962MOL0     H26958   5.650   0.062  12.777  1.9561 -1.8412  1.3057
  962MOL0     H26959   5.601  -0.054  12.891 -0.5293  1.0915  0.2986
  962MOL0     H26960   5.388  -0.077  12.763  2.2474 -1.4529 -2.7247
  962MOL0     H26961   5.424   0.058  12.653 -0.1536  0.8768  0.5576
  962MOL0     H26962   5.272   0.104  12.847  0.2834 -0.7101 -0.0284
  962MOL0     H26963   5.413   0.097  12.963  2.1489 -3.9563 -0.7816
  962MOL0     H26964   5.339   0.326  12.914  1.6199 -1.9818  0.6779
  962MOL0     H26965   5.347   0.291  12.738 -1.9611  0.8238  0.1945
  962MOL0     H26966   5.843  -0.212  12.213 -0.3923  0.2180 -2.4378
  962MOL0     H26967   5.946  -0.146  12.000 -1.8802  0.4646 -0.8003
  962MOL0     H26968   5.978   0.152  11.643 -1.4818 -2.4544 -1.9392
  962MOL0     H26969   6.077   0.136  11.431  0.0819 -2.7551 -2.2850
  962MOL0     H26970   6.533   0.455  10.541 -2.5916 -0.2453  0.0173
  962MOL0     H26971   6.775   0.428  10.464  0.0425  2.6547  0.9216
  962MOL0     H26972   7.040   0.656  10.095 -2.8400 -5.2255 -1.8819
  962MOL0     H26973   7.282   0.706   9.983 -0.0216  0.1724 -0.0123
  962MOL0     H26974   7.633   0.471  10.117  1.0427  0.8257 -1.2071
  962MOL0     H26975   7.627   0.629  10.210 -1.7594 -1.9937  1.0734
  962MOL0     H26976   7.836   0.604  10.048  1.5192  4.6567 -1.2821
  962MOL0     H26977   7.726   0.607   9.910 -1.3511  1.4523 -0.8948
  962MOL0     H26978   7.724   0.801  10.120 -0.0003  0.0980  0.6107
  962MOL0     H26979   7.633   0.810   9.959  0.2069  3.2396  0.1217
  962MOL0     H26980   7.830   0.868   9.840 -2.0271  0.0669 -0.4471
  962MOL0     H26981   7.835   0.961   9.991 -1.0672 -0.0257 -0.9172
  962MOL0     H26982   8.157   0.672  10.007  2.0211  1.5406 -0.6749
  962MOL0     H26983   7.457   0.432  10.272  0.0241 -1.6564 -1.4797
  962MOL0     H26984   7.222   0.367  10.347  1.3562 -0.0860  1.1671
  963MOL0     O26985   2.090   6.816   1.299 -0.0505  0.8469 -0.1013
  963MOL0     C26986   2.001   6.808   1.385  0.2587 -0.4127 -0.4920
  963MOL0     O26987   1.874   6.764   1.367  0.4560  0.1602  0.3150
  963MOL0     C26988   1.840   6.685   1.258 -1.1167  0.9303 -0.6470
  963MOL0     C26989   1.935   6.584   1.210  0.1889  0.6169  0.1365
  963MOL0     C26990   1.874   6.506   1.111 -0.6394 -0.1334 -0.4488
  963MOL0     C26991   1.742   6.512   1.067 -0.2688  0.4544  1.1092
  963MOL0     O26992   1.690   6.429   0.972  0.6161 -0.0030  0.2362
  963MOL0     C26993   1.609   6.318   1.025 -0.6436 -0.1613 -0.8852
  963MOL0     C26994   1.548   6.241   0.902 -0.6654 -0.0257  0.4378
  963MOL0     C26995   1.446   6.137   0.945 -0.0788 -0.6381 -1.0910
  963MOL0     C26996   1.408   6.047   0.830  0.5077 -0.2129 -0.3124
  963MOL0     C26997   1.383   5.898   0.881 -0.2237 -0.2109 -0.1737
  963MOL0     C26998   1.500   5.806   0.899  0.2293  0.9319  0.8030
  963MOL0     C26999   1.477   5.681   0.983  0.2197  0.5298  0.2284
  963MOL0     C27000   1.620   5.623   1.002  0.3661 -0.5923  0.3054
  963MOL0     N27001   1.641   5.504   1.097 -0.2291  0.4146 -0.3713
  963MOL0     C27002   1.666   5.526   1.232 -0.2075 -0.7474  0.0577
  963MOL0     C27003   1.670   5.396   1.273  0.8399  0.5305  0.9634
  963MOL0     C27004   1.685   5.366   1.427 -0.4767  0.5256 -0.3869
  963MOL0     C27005   1.556   5.332   1.500  0.4242  0.7621  0.1572
  963MOL0     C27006   1.579   5.299   1.650 -0.2066 -0.1267 -0.8298
  963MOL0     C27007   1.457   5.310   1.743 -0.4382 -0.9545  0.5683
  963MOL0     O27008   1.345   5.237   1.698 -0.5979 -0.3347 -0.1720
  963MOL0     C27009   1.224   5.299   1.686  0.4288  1.0623  0.1921
  963MOL0     C27010   1.146   5.259   1.579  0.0719 -0.7096 -0.1841
  963MOL0     C27011   1.018   5.317   1.552 -0.0709  0.0676  0.4495
  963MOL0     C27012   0.978   5.435   1.625  0.3675  0.1847  0.3311
  963MOL0     C27013   0.854   5.519   1.580  0.0442 -0.8622  0.2273
  963MOL0     O27014   0.851   5.648   1.614  0.1560  0.0797 -0.3162
  963MOL0     C27015   0.730   5.718   1.613  0.4626 -0.9038  0.2068
  963MOL0     C27016   0.613   5.667   1.675  0.3383  0.4812 -0.2162
  963MOL0     C27017   0.496   5.736   1.666 -0.0110 -0.4774  0.5426
  963MOL0     C27018   0.493   5.870   1.625  0.8715 -1.0586  0.5889
  963MOL0     O27019   0.386   5.957   1.601 -0.0629 -0.0352  0.1432
  963MOL0     C27020   0.262   5.912   1.655 -0.8525 -0.2805 -0.0127
  963MOL0     C27021   0.187   5.826   1.559 -0.3582 -0.0132  0.1120
  963MOL0     C27022   0.195   5.874   1.410 -0.3780  0.0077 -0.5003
  963MOL0     C27023   0.072   5.847   1.330 -0.4926 -0.1261 -0.1784
  963MOL0     C27024   0.072   5.896   1.186 -0.5266 -0.3380 -0.0760
  963MOL0     C27025  -0.052   5.840   1.108  0.1934  0.1718 -0.3799
  963MOL0     C27026  -0.049   5.915   0.964  1.0163  0.0428 -0.0453
  963MOL0     C27027  -0.175   5.865   0.888  0.6190 -0.5267  0.5741
  963MOL0    Cl27028  -0.124   5.708   0.801 -0.2108  0.0466  0.1844
  963MOL0     C27029   0.613   5.911   1.564 -0.3044 -0.6916 -0.5137
  963MOL0     C27030   0.736   5.850   1.558  0.7164 -0.2086 -0.1469
  963MOL0     O27031   0.767   5.460   1.519 -0.1190  0.1997  0.1982
  963MOL0     C27032   1.058   5.473   1.729 -0.3251  0.1043 -0.1853
  963MOL0     C27033   1.180   5.403   1.763 -0.5247  0.6346  0.6586
  963MOL0     N27034   1.634   5.309   1.172  0.3551  0.8745 -0.4494
  963MOL0     N27035   1.617   5.369   1.057  0.1785  0.6363 -0.7098
  963MOL0     C27036   1.659   6.613   1.116  0.1208  0.7214 -0.6092
  963MOL0     C27037   1.712   6.701   1.203 -1.0979  0.8638 -0.6274
  963MOL0     C27038   2.037   6.850   1.529  0.1794  0.3279 -0.2089
  963MOL0     C27039   1.945   6.850   1.635  1.3728  0.2547 -1.7524
  963MOL0     C27040   1.975   6.884   1.766 -0.0388 -0.8522  0.1585
  963MOL0     C27041   2.102   6.924   1.799 -0.8045 -0.8108 -0.1185
  963MOL0     O27042   2.157   6.956   1.921 -0.1749 -0.2585  0.4335
  963MOL0     C27043   2.074   7.012   2.027  0.3959 -0.4521  1.0563
  963MOL0     C27044   2.040   7.160   1.994  0.0122  0.2532 -0.2547
  963MOL0     C27045   1.988   7.237   2.113  0.9808 -0.8172 -0.6070
  963MOL0     C27046   1.839   7.210   2.130 -0.0319  0.3111  0.4862
  963MOL0     C27047   1.783   7.323   2.205  1.5928  0.5182  1.3370
  963MOL0     C27048   1.747   7.419   2.269 -0.2786  0.4731 -0.6250
  963MOL0     C27049   2.191   6.935   1.692 -0.6516  0.7255  0.2297
  963MOL0     C27050   2.165   6.904   1.563 -0.6543  1.0456 -0.1789
  963MOL0     H27051   2.036   6.563   1.245  0.3092  1.9778  0.6569
  963MOL0     H27052   1.921   6.417   1.070 -2.1483 -1.4582  0.5878
  963MOL0     H27053   1.528   6.347   1.092 -0.4863  0.8551 -1.1140
  963MOL0     H27054   1.672   6.246   1.078  1.5239  1.7401 -0.7419
  963MOL0     H27055   1.633   6.190   0.856  0.8678 -0.3569  3.3884
  963MOL0     H27056   1.513   6.319   0.835 -2.4763 -0.7073  0.5240
  963MOL0     H27057   1.361   6.189   0.990  2.0362  0.2915  2.2686
  963MOL0     H27058   1.493   6.082   1.027  0.3845  1.7325  0.3253
  963MOL0     H27059   1.316   6.091   0.792  0.8867  0.6696 -0.2283
  963MOL0     H27060   1.485   6.046   0.753  0.9083  0.4846  0.0643
  963MOL0     H27061   1.311   5.858   0.809 -0.0764  0.4435 -0.6958
  963MOL0     H27062   1.331   5.902   0.977  0.4150 -2.1203  0.3066
  963MOL0     H27063   1.586   5.868   0.928  1.7515 -1.0615  0.8087
  963MOL0     H27064   1.518   5.758   0.803  3.0960 -1.3561  2.3188
  963MOL0     H27065   1.436   5.692   1.083 -1.2246 -1.1443 -0.1367
  963MOL0     H27066   1.408   5.614   0.931  0.9791 -0.8583  0.9601
  963MOL0     H27067   1.691   5.696   1.045  3.2373 -1.2596 -2.8427
  963MOL0     H27068   1.656   5.605   0.901 -1.3597  0.5697 -0.5599
  963MOL0     H27069   1.678   5.622   1.281  3.9475 -0.5826 -0.9286
  963MOL0     H27070   1.728   5.455   1.474  2.2694  0.8040 -3.0900
  963MOL0     H27071   1.759   5.294   1.463 -1.7014  0.5287  2.3543
  963MOL0     H27072   1.508   5.246   1.453  0.3712  0.3928  0.8735
  963MOL0     H27073   1.488   5.416   1.486  0.9950  0.9468 -1.8523
  963MOL0     H27074   1.634   5.204   1.658 -0.9452 -0.4238  1.5297
  963MOL0     H27075   1.650   5.373   1.686  4.5456 -4.6199  0.2835
  963MOL0     H27076   1.437   5.418   1.749 -0.2363 -0.8645 -0.3485
  963MOL0     H27077   1.493   5.277   1.841  2.0318 -0.4803 -0.1351
  963MOL0     H27078   1.165   5.169   1.522  0.3075 -0.5165 -0.4201
  963MOL0     H27079   0.954   5.268   1.480 -1.1337 -0.9328  1.9977
  963MOL0     H27080   0.596   5.570   1.721  1.2609  0.6200  0.4511
  963MOL0     H27081   0.417   5.692   1.724 -0.9969  1.8001  1.0441
  963MOL0     H27082   0.198   5.998   1.676 -1.0862  0.4698 -3.2093
  963MOL0     H27083   0.277   5.861   1.751 -2.2970  1.4026  1.1658
  963MOL0     H27084   0.085   5.827   1.600 -1.0348  0.8541 -1.4705
  963MOL0     H27085   0.237   5.730   1.570  0.9262  0.7313  1.1486
  963MOL0     H27086   0.293   5.842   1.376  0.8621  1.8052  1.1622
  963MOL0     H27087   0.209   5.983   1.409  0.2530 -0.0637  0.0357
  963MOL0     H27088   0.069   5.738   1.320  3.0803 -0.2458 -1.3851
  963MOL0     H27089  -0.015   5.871   1.391  0.4676 -1.5455  1.8584
  963MOL0     H27090   0.166   5.880   1.135 -0.0978 -1.7268  1.0862
  963MOL0     H27091   0.065   6.005   1.184 -0.3852 -0.3422 -1.2798
  963MOL0     H27092  -0.147   5.856   1.160 -0.5235  0.2837 -1.6867
  963MOL0     H27093  -0.028   5.735   1.086  2.3895  0.0902  1.8757
  963MOL0     H27094  -0.048   6.023   0.984 -2.9500 -0.2906  3.0912
  963MOL0     H27095   0.040   5.884   0.909  1.6777  4.1942 -1.7211
  963MOL0     H27096  -0.199   5.936   0.809 -3.8069 -0.1499  1.9606
  963MOL0     H27097  -0.265   5.847   0.947 -1.3823 -0.2428 -2.1814
  963MOL0     H27098   0.611   6.017   1.540 -3.1057  0.4536  3.6786
  963MOL0     H27099   0.818   5.892   1.501  0.6597 -1.7455 -1.4376
  963MOL0     H27100   1.033   5.555   1.795 -2.7263  1.1289 -2.2042
  963MOL0     H27101   1.253   5.431   1.838  2.0270 -2.8783 -0.1971
  963MOL0     H27102   1.556   6.626   1.086  0.3443  1.9516 -0.8937
  963MOL0     H27103   1.649   6.780   1.242  1.2837  1.9159  1.3541
  963MOL0     H27104   1.842   6.822   1.613  0.7890  0.8882  0.0368
  963MOL0     H27105   1.894   6.873   1.838 -1.5241  0.7299 -1.1732
  963MOL0     H27106   2.133   7.012   2.119 -2.6914  1.2852  3.2268
  963MOL0     H27107   1.983   6.956   2.048 -1.1545  0.2431 -2.9355
  963MOL0     H27108   2.128   7.213   1.958  0.8768 -1.4349 -0.7224
  963MOL0     H27109   1.966   7.158   1.913 -0.4611  2.9231  0.0078
  963MOL0     H27110   1.991   7.344   2.094  0.0755 -0.3338  1.6971
  963MOL0     H27111   2.034   7.228   2.212 -0.9398  1.9598  0.6496
  963MOL0     H27112   1.796   7.209   2.030  1.2547  4.6411 -0.3558
  963MOL0     H27113   1.823   7.120   2.190 -2.9191 -2.1166 -3.4513
  963MOL0     H27114   1.708   7.498   2.330  0.9776  0.0881  0.7154
  963MOL0     H27115   2.291   6.963   1.724 -0.9372  0.8672  1.0363
  963MOL0     H27116   2.238   6.916   1.484 -1.0197  1.6790 -0.4234
  964MOL0     O27117  10.803   0.565   1.893 -0.1848  0.7063  0.3802
  964MOL0     C27118  10.877   0.560   1.997  0.4016  0.2148 -0.6369
  964MOL0     O27119  10.932   0.667   2.069 -0.1570 -0.2951  1.0357
  964MOL0     C27120  10.873   0.781   2.025 -0.4092 -0.7691 -0.7594
  964MOL0     C27121  10.970   0.882   1.999  0.6322 -0.7300 -0.9924
  964MOL0     C27122  10.923   1.016   1.985  1.0258 -0.8097  0.2582
  964MOL0     C27123  10.786   1.048   1.986  0.4091 -0.7468 -0.4312
  964MOL0     O27124  10.752   1.182   1.981  0.7512 -0.2617  0.8985
  964MOL0     C27125  10.782   1.228   1.851 -0.0740 -0.0006 -0.6275
  964MOL0     C27126  10.699   1.349   1.810 -0.5904 -0.7149  0.6375
  964MOL0     C27127  10.762   1.436   1.700  0.2890 -0.1355 -0.0599
  964MOL0     C27128  10.757   1.356   1.566  0.8839 -0.1799  0.2608
  964MOL0     C27129  10.785   1.452   1.452 -0.3330 -0.6968  0.2843
  964MOL0     C27130  10.767   1.383   1.315  0.2409  0.6686  1.0066
  964MOL0     C27131  10.825   1.465   1.203 -0.0370  0.1143  0.4439
  964MOL0     C27132  10.820   1.382   1.069 -0.3351 -0.0738  0.0901
  964MOL0     N27133  10.902   1.448   0.965  0.4888 -0.1055 -0.7460
  964MOL0     C27134  10.867   1.571   0.911 -0.3341  1.4527 -0.2893
  964MOL0     C27135  10.965   1.582   0.818  0.2605  0.1647  0.3111
  964MOL0     C27136  10.971   1.691   0.723 -0.5683  0.3619  0.4966
  964MOL0     C27137  10.981   1.649   0.568  0.5370 -0.4117  0.7895
  964MOL0     C27138  10.981   1.778   0.480  0.6198 -0.0587 -0.4094
  964MOL0     C27139  11.096   1.886   0.493 -0.3986  0.9178  0.1880
  964MOL0     O27140  11.053   1.974   0.374 -0.1517 -0.6972 -0.7561
  964MOL0     C27141  11.141   1.996   0.268  0.2023 -0.5290  0.7775
  964MOL0     C27142  11.235   1.901   0.229 -1.1251  0.0869 -0.2776
  964MOL0     C27143  11.322   1.923   0.122 -0.1036  0.4344  0.2179
  964MOL0     C27144  11.313   2.045   0.055 -0.2040 -0.7444  0.4658
  964MOL0     C27145  11.394   2.084  -0.066  0.0274  0.1852  0.4814
  964MOL0     O27146  11.409   1.982  -0.147  0.4168 -0.3845  0.1980
  964MOL0     C27147  11.514   2.003  -0.235 -0.0472 -0.7013  0.9241
  964MOL0     C27148  11.489   1.986  -0.370 -0.4759 -0.0836  0.6160
  964MOL0     C27149  11.590   2.005  -0.469 -0.4583 -0.2874  0.4096
  964MOL0     C27150  11.723   2.031  -0.426  0.3921  0.4670  0.3324
  964MOL0     O27151  11.833   2.053  -0.500  0.3228  0.3885  0.0961
  964MOL0     C27152  11.826   1.996  -0.627 -0.4463 -0.5379 -0.0955
  964MOL0     C27153  11.970   1.997  -0.678  0.2089 -0.4391 -0.5975
  964MOL0     C27154  11.977   1.914  -0.809  0.0965  0.5007  0.2827
  964MOL0     C27155  12.123   1.881  -0.866  1.2920 -0.1128 -0.4891
  964MOL0     C27156  12.134   1.891  -1.014 -0.5650  0.1320  0.3817
  964MOL0     C27157  12.266   1.849  -1.072 -0.6228 -0.3414  0.5545
  964MOL0     C27158  12.397   1.886  -0.993  0.0964 -0.3193  0.0025
  964MOL0     C27159  12.428   2.036  -0.997 -0.0856 -0.0628  1.4390
  964MOL0    Cl27160  12.460   2.094  -1.167  0.0150  0.2864 -0.4224
  964MOL0     C27161  11.754   2.026  -0.291 -0.0587 -0.7467 -0.0939
  964MOL0     C27162  11.651   2.019  -0.199  0.6280 -0.9306 -0.5560
  964MOL0     O27163  11.435   2.195  -0.088  0.4793  0.0879  0.1613
  964MOL0     C27164  11.232   2.142   0.105 -0.2457  0.7427  0.6499
  964MOL0     C27165  11.148   2.119   0.208  0.4642 -0.2669 -0.0769
  964MOL0     N27166  11.049   1.480   0.821 -0.7149  0.5065 -0.8546
  964MOL0     N27167  11.016   1.397   0.908 -0.1455  0.0954 -1.2740
  964MOL0     C27168  10.703   0.944   2.010 -0.1011  0.0287  0.1877
  964MOL0     C27169  10.740   0.808   2.037  0.5197 -0.3386  0.4444
  964MOL0     C27170  10.895   0.425   2.059  0.0935 -0.6439  0.1405
  964MOL0     C27171  10.800   0.328   2.056 -0.8082 -0.0394 -0.4199
  964MOL0     C27172  10.817   0.223   2.136 -0.2218 -0.1895 -0.4102
  964MOL0     C27173  10.918   0.205   2.222 -0.5735 -0.0494 -0.8559
  964MOL0     O27174  10.927   0.090   2.295  0.4361 -0.1330 -0.2649
  964MOL0     C27175  10.985   0.108   2.427  0.1421  0.6806 -0.2280
  964MOL0     C27176  10.927  -0.008   2.512 -0.8030 -0.5438  0.4030
  964MOL0     C27177  10.774   0.007   2.545 -0.7573  0.2244 -0.0481
  964MOL0     C27178  10.734  -0.084   2.660  0.7707 -0.0948  0.0083
  964MOL0     C27179  10.801  -0.069   2.786  0.3258 -0.3511  0.1867
  964MOL0     C27180  10.835  -0.076   2.905  1.1097  0.3739 -0.4736
  964MOL0     C27181  11.023   0.306   2.227  0.2275  1.0184  1.0638
  964MOL0     C27182  11.006   0.416   2.151  0.0583  0.9210 -0.0866
  964MOL0     H27183  11.077   0.868   1.988  0.9995  2.7688 -3.8926
  964MOL0     H27184  11.002   1.087   1.963 -0.6940  1.2892  0.4869
  964MOL0     H27185  10.759   1.150   1.778 -0.3289 -0.7967  0.2809
  964MOL0     H27186  10.885   1.263   1.843  0.3530 -1.2966 -1.0415
  964MOL0     H27187  10.690   1.420   1.893 -1.5144  0.7546 -0.6729
  964MOL0     H27188  10.593   1.324   1.794 -1.4658  2.3535  1.0166
  964MOL0     H27189  10.861   1.456   1.741  1.0529 -0.8365 -1.5248
  964MOL0     H27190  10.713   1.534   1.698 -1.6944 -0.9523  2.3806
  964MOL0     H27191  10.826   1.271   1.562  2.1166  0.7085  1.7896
  964MOL0     H27192  10.662   1.312   1.534  0.8946 -0.9901  1.2828
  964MOL0     H27193  10.885   1.496   1.458 -0.7934  0.3190  0.7146
  964MOL0     H27194  10.725   1.544   1.458 -0.9836 -1.2316  2.7244
  964MOL0     H27195  10.661   1.361   1.300  0.4865 -1.6212  2.1819
  964MOL0     H27196  10.812   1.284   1.319 -0.5730 -0.0472 -3.0527
  964MOL0     H27197  10.763   1.555   1.201  1.1376  0.9243 -0.5433
  964MOL0     H27198  10.927   1.496   1.226 -0.2906  0.5680  0.9818
  964MOL0     H27199  10.718   1.374   1.030 -1.3309 -0.2603  2.5215
  964MOL0     H27200  10.863   1.283   1.090 -2.3420 -1.0028  0.0236
  964MOL0     H27201  10.781   1.634   0.933 -0.4504  0.8390  1.0904
  964MOL0     H27202  11.056   1.757   0.746  0.8695 -0.7269 -1.4474
  964MOL0     H27203  10.895   1.769   0.727  1.0122  1.9550  1.1301
  964MOL0     H27204  10.895   1.583   0.553 -1.2801  1.4333  2.3499
  964MOL0     H27205  11.080   1.605   0.552  1.0154  1.3673 -1.5459
  964MOL0     H27206  10.972   1.753   0.374 -0.2443 -0.5820 -0.2193
  964MOL0     H27207  10.887   1.828   0.504  1.5766  0.9358  1.5302
  964MOL0     H27208  11.190   1.834   0.472 -1.5160 -0.8712 -0.6303
  964MOL0     H27209  11.093   1.940   0.588  2.6993 -0.1147  0.9972
  964MOL0     H27210  11.252   1.799   0.264 -1.7400 -0.2216 -0.8510
  964MOL0     H27211  11.387   1.842   0.092  1.4437  0.7535  2.4305
  964MOL0     H27212  11.397   1.958  -0.420  1.7327 -0.8883 -3.4230
  964MOL0     H27213  11.570   1.978  -0.572  1.5972  1.9714 -0.6830
  964MOL0     H27214  11.759   2.041  -0.701  1.0584 -0.5562 -1.5455
  964MOL0     H27215  11.804   1.889  -0.633  2.5546 -1.1860 -3.4496
  964MOL0     H27216  12.030   1.953  -0.599  0.6480 -3.0251 -2.2426
  964MOL0     H27217  11.996   2.103  -0.691  3.6154 -0.5901  3.1905
  964MOL0     H27218  11.935   1.991  -0.875  1.3499  1.1949  0.2619
  964MOL0     H27219  11.907   1.829  -0.807 -1.3316  1.6551  1.9645
  964MOL0     H27220  12.185   1.956  -0.816 -0.0853 -0.7395  2.3778
  964MOL0     H27221  12.155   1.785  -0.824  1.3217  0.1039 -0.0037
  964MOL0     H27222  12.120   1.989  -1.062 -0.7401 -0.4433 -0.7833
  964MOL0     H27223  12.055   1.827  -1.052 -1.9409  1.2769  1.2061
  964MOL0     H27224  12.286   1.901  -1.166 -0.5931 -0.1650  0.6602
  964MOL0     H27225  12.267   1.741  -1.091 -0.0323 -0.5113  1.4645
  964MOL0     H27226  12.388   1.839  -0.895 -1.2979 -1.0496 -0.4503
  964MOL0     H27227  12.489   1.840  -1.030 -0.4442 -0.7672 -0.8262
  964MOL0     H27228  12.522   2.056  -0.945  1.0053 -0.1165 -0.4285
  964MOL0     H27229  12.350   2.092  -0.946 -0.7252  0.7900 -0.3730
  964MOL0     H27230  11.858   2.025  -0.262 -0.2185  1.4187  0.7575
  964MOL0     H27231  11.675   2.021  -0.093 -1.2874  1.2192 -0.0925
  964MOL0     H27232  11.222   2.241   0.061 -2.1657  0.7576  1.0283
  964MOL0     H27233  11.080   2.200   0.235  0.2159  0.6740 -3.1805
  964MOL0     H27234  10.598   0.970   2.024  0.4495  2.4811  0.1231
  964MOL0     H27235  10.677   0.725   2.068 -1.2490  1.1484  1.0057
  964MOL0     H27236  10.718   0.334   1.985  0.0583 -0.2819 -1.4690
  964MOL0     H27237  10.741   0.146   2.144  1.5462 -2.0465 -0.7789
  964MOL0     H27238  10.974   0.206   2.474 -0.4455  2.0743 -3.0719
  964MOL0     H27239  11.093   0.089   2.424 -0.0507 -0.4280 -0.7186
  964MOL0     H27240  10.940  -0.106   2.464 -2.3065 -1.6426  2.0827
  964MOL0     H27241  10.986  -0.006   2.604 -1.9003  2.8061  1.1785
  964MOL0     H27242  10.731  -0.005   2.445  1.2894  0.1514 -0.9724
  964MOL0     H27243  10.750   0.102   2.594 -0.9894  2.1530 -3.5408
  964MOL0     H27244  10.629  -0.057   2.679  0.7782 -1.0108  1.5350
  964MOL0     H27245  10.731  -0.191   2.636 -1.6538 -0.1339  0.2496
  964MOL0     H27246  10.869  -0.091   3.006  0.0885  1.1054 -0.0111
  964MOL0     H27247  11.118   0.283   2.275 -0.3881 -0.9146  1.4512
  964MOL0     H27248  11.083   0.492   2.159 -1.0201  2.1990 -1.2218
  965MOL0     O27249   7.257   0.209   4.247 -0.3145 -0.2046  0.9755
  965MOL0     C27250   7.328   0.270   4.322  0.2260  0.6839  0.5956
  965MOL0     O27251   7.448   0.317   4.294 -0.1075 -0.3627  0.2015
  965MOL0     C27252   7.510   0.279   4.179 -0.2481 -0.4841  0.4707
  965MOL0     C27253   7.514   0.369   4.068 -0.3409 -0.7127 -0.3329
  965MOL0     C27254   7.586   0.345   3.954 -0.5136 -0.6863 -0.0681
  965MOL0     C27255   7.666   0.241   3.945 -0.0234  0.4450 -0.5036
  965MOL0     O27256   7.714   0.214   3.822  0.5241 -0.0427 -0.1491
  965MOL0     C27257   7.683   0.076   3.775 -0.1139  0.0699 -0.4578
  965MOL0     C27258   7.710   0.074   3.630 -0.9436 -0.3447 -0.0897
  965MOL0     C27259   7.668  -0.048   3.554  0.6707  0.9430  0.3836
  965MOL0     C27260   7.702  -0.025   3.400 -0.3580  0.1121 -0.4931
  965MOL0     C27261   7.658  -0.126   3.302  0.3149  0.3781  0.6875
  965MOL0     C27262   7.714  -0.101   3.161  0.2479 -0.6096  0.2528
  965MOL0     C27263   7.724  -0.233   3.077  0.2381  0.2647 -0.1817
  965MOL0     C27264   7.589  -0.248   3.001  0.2939  0.1746 -0.0200
  965MOL0     N27265   7.602  -0.359   2.912  0.4525  0.6477 -0.2273
  965MOL0     C27266   7.624  -0.360   2.776 -0.0439 -0.6332  0.1952
  965MOL0     C27267   7.662  -0.482   2.745  0.5091  1.0298  0.6667
  965MOL0     C27268   7.716  -0.523   2.613 -0.1364  0.2522  0.0007
  965MOL0     C27269   7.610  -0.526   2.511  0.0118  0.1728 -0.2483
  965MOL0     C27270   7.639  -0.612   2.389  0.1443  0.2287  0.0164
  965MOL0     C27271   7.785  -0.612   2.333  0.2778  0.2299  0.2184
  965MOL0     O27272   7.793  -0.685   2.212  0.7612  0.4978 -0.3751
  965MOL0     C27273   7.780  -0.629   2.079  0.2189 -0.7747  0.2383
  965MOL0     C27274   7.681  -0.543   2.038 -0.2643 -0.3320 -1.3292
  965MOL0     C27275   7.644  -0.524   1.906  0.2326 -0.2437 -0.9814
  965MOL0     C27276   7.721  -0.583   1.804 -0.0253 -0.3913 -0.3506
  965MOL0     C27277   7.687  -0.569   1.660  0.0075  0.3629  0.1424
  965MOL0     O27278   7.596  -0.474   1.636  0.2943 -0.1977  0.0206
  965MOL0     C27279   7.587  -0.426   1.507  0.5593  0.5287 -0.9717
  965MOL0     C27280   7.661  -0.309   1.475 -0.1387 -0.8738  0.7232
  965MOL0     C27281   7.641  -0.257   1.344  0.7672  0.6460 -0.1424
  965MOL0     C27282   7.544  -0.307   1.257 -0.5486  0.5531  0.0859
  965MOL0     O27283   7.512  -0.275   1.129 -0.2594 -0.0356 -0.2879
  965MOL0     C27284   7.578  -0.167   1.071  0.2659  0.1801  0.0796
  965MOL0     C27285   7.555  -0.134   0.921  0.0729  0.3413  0.2961
  965MOL0     C27286   7.412  -0.064   0.881 -0.3285  0.5650 -0.4964
  965MOL0     C27287   7.381  -0.049   0.736 -0.1583  0.3149 -0.5197
  965MOL0     C27288   7.270   0.050   0.711 -0.0599  0.9874  0.1369
  965MOL0     C27289   7.210   0.055   0.567 -0.2032  0.0622 -0.7563
  965MOL0     C27290   7.323   0.100   0.470 -0.6263  0.3370 -1.0367
  965MOL0     C27291   7.275   0.106   0.330  0.0873 -0.1622 -0.0225
  965MOL0    Cl27292   7.367   0.219   0.228  0.1210 -0.1768 -0.1638
  965MOL0     C27293   7.481  -0.423   1.296 -0.9176 -0.4476  0.0795
  965MOL0     C27294   7.509  -0.484   1.419  0.4036 -1.0327  0.1337
  965MOL0     O27295   7.757  -0.618   1.573  0.4396 -0.7414  0.6020
  965MOL0     C27296   7.824  -0.670   1.843 -0.2789 -0.6056  0.7909
  965MOL0     C27297   7.852  -0.699   1.976  0.0925 -0.0328 -0.6649
  965MOL0     N27298   7.647  -0.560   2.861 -0.4739  0.1198 -0.6941
  965MOL0     N27299   7.608  -0.483   2.958  0.2322 -0.0339  0.1849
  965MOL0     C27300   7.674   0.145   4.052  1.0389  0.0126 -0.0459
  965MOL0     C27301   7.606   0.171   4.174  0.0036  0.2473 -0.1764
  965MOL0     C27302   7.281   0.292   4.461 -1.2165 -0.4195  0.4163
  965MOL0     C27303   7.366   0.313   4.565 -0.2031 -0.3179 -0.2704
  965MOL0     C27304   7.314   0.343   4.690  0.0531 -0.2365 -0.5730
  965MOL0     C27305   7.174   0.347   4.710  0.1133  0.2919 -0.6490
  965MOL0     O27306   7.144   0.405   4.825 -0.0019 -0.1537  0.1534
  965MOL0     C27307   7.009   0.399   4.870  0.9112  0.1460  0.0449
  965MOL0     C27308   6.934   0.527   4.904 -0.7837  0.5334  0.9079
  965MOL0     C27309   6.889   0.593   4.774 -0.6395  0.0058  0.0464
  965MOL0     C27310   6.742   0.593   4.746 -0.2554 -0.0606 -0.2256
  965MOL0     C27311   6.661   0.654   4.854 -0.0885 -0.2020  1.2134
  965MOL0     C27312   6.601   0.698   4.943  0.2416 -1.9150 -0.3860
  965MOL0     C27313   7.092   0.323   4.602 -0.8280  0.3718 -1.0424
  965MOL0     C27314   7.144   0.286   4.478  0.6152 -0.4076 -1.2351
  965MOL0     H27315   7.448   0.455   4.071 -1.6873 -1.6760 -1.0449
  965MOL0     H27316   7.572   0.410   3.868  1.3567 -0.7349 -0.4534
  965MOL0     H27317   7.582   0.036   3.792 -0.4786  1.6958  1.5390
  965MOL0     H27318   7.748  -0.004   3.813 -1.3054 -2.2268 -2.8808
  965MOL0     H27319   7.817   0.096   3.620 -0.7296 -0.0592  2.1604
  965MOL0     H27320   7.667   0.167   3.591  1.1899  0.5985 -0.3311
  965MOL0     H27321   7.562  -0.070   3.566  0.3426  0.6527 -2.4210
  965MOL0     H27322   7.730  -0.126   3.600 -1.6428  2.1518  6.4876
  965MOL0     H27323   7.665   0.074   3.373 -0.0107  0.7906  1.3789
  965MOL0     H27324   7.811  -0.016   3.400 -0.0328 -2.7722 -1.3598
  965MOL0     H27325   7.550  -0.133   3.282  0.0797 -1.0458  2.2230
  965MOL0     H27326   7.691  -0.218   3.351  0.3822  0.8718  1.6020
  965MOL0     H27327   7.819  -0.076   3.178  1.5999 -3.1212 -3.2593
  965MOL0     H27328   7.672  -0.020   3.102 -0.5883  0.3609  2.1022
  965MOL0     H27329   7.805  -0.216   3.006 -0.3792  2.1961 -0.4905
  965MOL0     H27330   7.748  -0.317   3.143 -0.9590 -2.3739 -2.8589
  965MOL0     H27331   7.582  -0.158   2.940 -1.8513  0.8113  1.0356
  965MOL0     H27332   7.503  -0.255   3.069 -0.6300  1.6744 -0.9684
  965MOL0     H27333   7.639  -0.279   2.706  1.2025  0.2951  1.4749
  965MOL0     H27334   7.766  -0.619   2.624  0.6581  0.5457 -0.9329
  965MOL0     H27335   7.799  -0.457   2.588 -1.0368  1.3303 -0.2545
  965MOL0     H27336   7.594  -0.422   2.481 -1.9712  0.6815  2.2647
  965MOL0     H27337   7.513  -0.557   2.551  1.7250 -2.6296  2.1593
  965MOL0     H27338   7.626  -0.717   2.416 -3.6193  0.2332 -1.1452
  965MOL0     H27339   7.560  -0.591   2.316  1.6365  1.9648 -1.2034
  965MOL0     H27340   7.852  -0.655   2.408  3.3978 -0.7821 -2.8719
  965MOL0     H27341   7.819  -0.509   2.318  1.8482 -0.0239  1.7580
  965MOL0     H27342   7.609  -0.515   2.114  0.7461 -3.4013  0.9639
  965MOL0     H27343   7.567  -0.458   1.869  0.1509 -1.3227 -2.8534
  965MOL0     H27344   7.729  -0.258   1.542 -1.3647  0.2115  1.1737
  965MOL0     H27345   7.697  -0.177   1.297  0.9687  0.3948 -0.3301
  965MOL0     H27346   7.686  -0.181   1.082  0.7060  1.5662 -1.8699
  965MOL0     H27347   7.552  -0.072   1.117  1.0421  1.4151 -1.8628
  965MOL0     H27348   7.573  -0.224   0.860  0.8851 -0.7226  2.0427
  965MOL0     H27349   7.637  -0.063   0.903  1.7626 -1.3110  1.1424
  965MOL0     H27350   7.408   0.036   0.924 -4.3515 -0.4748  2.0942
  965MOL0     H27351   7.339  -0.120   0.940  2.4111  2.2597  5.2443
  965MOL0     H27352   7.477  -0.026   0.691  0.2179 -2.4007 -1.2770
  965MOL0     H27353   7.351  -0.149   0.702 -2.2825 -0.0992  2.1588
  965MOL0     H27354   7.311   0.145   0.745 -2.3665  1.8839  0.5825
  965MOL0     H27355   7.186   0.025   0.776  0.1157 -1.6234 -0.5226
  965MOL0     H27356   7.126   0.125   0.570  0.9106  1.4248 -1.0669
  965MOL0     H27357   7.179  -0.049   0.552 -2.7921  0.4340  1.3105
  965MOL0     H27358   7.367   0.190   0.513 -3.3201  0.2718  2.3624
  965MOL0     H27359   7.392   0.015   0.472  0.8335  1.4800  1.3582
  965MOL0     H27360   7.174   0.143   0.345  0.4857  1.5359 -1.1888
  965MOL0     H27361   7.266   0.005   0.290 -1.2763 -1.4351  3.1997
  965MOL0     H27362   7.417  -0.478   1.228  2.8489 -2.3263 -2.2588
  965MOL0     H27363   7.468  -0.583   1.437  1.2768 -2.1714 -3.2753
  965MOL0     H27364   7.894  -0.718   1.775  1.9812  2.5472  0.6342
  965MOL0     H27365   7.929  -0.773   1.994  1.2683  0.9804 -1.3241
  965MOL0     H27366   7.744   0.063   4.041 -1.7076 -2.5290 -0.0007
  965MOL0     H27367   7.609   0.100   4.256 -4.3926 -0.4670 -0.3776
  965MOL0     H27368   7.474   0.316   4.554  0.5264 -2.9146  3.9325
  965MOL0     H27369   7.388   0.368   4.766 -0.9760  1.4468 -0.0788
  965MOL0     H27370   6.994   0.342   4.962 -4.2933 -0.5118 -0.9183
  965MOL0     H27371   6.944   0.343   4.802  2.9138 -0.3639 -1.5562
  965MOL0     H27372   6.847   0.491   4.959  0.2147 -3.9432 -0.0350
  965MOL0     H27373   6.999   0.597   4.957  0.7105  0.9663 -1.3278
  965MOL0     H27374   6.948   0.562   4.687 -1.1944 -1.5401  0.2003
  965MOL0     H27375   6.921   0.698   4.776 -0.9684  0.4344 -5.0040
  965MOL0     H27376   6.710   0.629   4.647 -1.0031 -1.2390 -0.4186
  965MOL0     H27377   6.704   0.491   4.747  2.8666 -1.3823  2.3775
  965MOL0     H27378   6.539   0.742   5.018  1.8257 -1.9384  0.9788
  965MOL0     H27379   6.986   0.348   4.604 -1.0687 -0.2315 -3.1653
  965MOL0     H27380   7.074   0.270   4.396 -1.2041 -0.2842  0.2347
  966MOL0     O27381   7.895   6.390   6.622  0.6318  0.1733  0.2574
  966MOL0     C27382   7.888   6.490   6.543  0.6116 -0.7626  0.0494
  966MOL0     O27383   7.981   6.583   6.509  0.5771 -0.2400  0.8758
  966MOL0     C27384   8.092   6.598   6.576 -0.2001 -0.1866 -0.2148
  966MOL0     C27385   8.128   6.554   6.708 -0.2060  0.0567  0.8327
  966MOL0     C27386   8.257   6.580   6.759 -0.1916 -0.3125  0.7770
  966MOL0     C27387   8.346   6.662   6.680 -0.8230  1.0046  0.3880
  966MOL0     O27388   8.462   6.705   6.740 -0.5518  0.1089 -0.2116
  966MOL0     C27389   8.530   6.810   6.673  0.2853 -0.2084 -1.0911
  966MOL0     C27390   8.658   6.870   6.734 -0.5351 -0.1667  0.0733
  966MOL0     C27391   8.761   6.770   6.781 -0.2417 -0.6304 -0.6911
  966MOL0     C27392   8.864   6.860   6.856 -0.1180 -0.4627  0.1947
  966MOL0     C27393   8.974   6.785   6.943  0.6616  0.2032 -1.0577
  966MOL0     C27394   9.085   6.714   6.862 -0.7155 -0.1556 -0.2388
  966MOL0     C27395   9.181   6.816   6.791  0.3624  0.4599 -0.5972
  966MOL0     C27396   9.264   6.755   6.680  0.6687  1.4402 -0.5267
  966MOL0     N27397   9.352   6.865   6.622  0.6767  0.2829  0.6770
  966MOL0     C27398   9.321   6.923   6.498 -0.5670 -0.4288  0.3046
  966MOL0     C27399   9.419   7.012   6.478 -0.4897 -0.1789  0.1655
  966MOL0     C27400   9.424   7.116   6.372 -0.9957  0.2184 -1.0137
  966MOL0     C27401   9.520   7.077   6.261 -0.1933 -0.2667 -0.6696
  966MOL0     C27402   9.512   6.935   6.205 -0.2259  0.0423 -0.4892
  966MOL0     C27403   9.376   6.913   6.136 -0.9735 -0.8474  0.3075
  966MOL0     O27404   9.368   6.963   6.000  0.1949 -0.3109  0.0396
  966MOL0     C27405   9.247   6.975   5.948 -0.3595 -0.7967  0.4913
  966MOL0     C27406   9.147   6.884   5.971  0.7092 -1.0468 -0.1243
  966MOL0     C27407   9.025   6.894   5.899 -0.2843  0.9779  0.6443
  966MOL0     C27408   8.997   6.991   5.807 -1.3473 -0.1590  0.4391
  966MOL0     C27409   8.873   6.989   5.716  0.4508  0.3422  0.1523
  966MOL0     O27410   8.803   6.874   5.721 -0.8333 -0.2249  0.3922
  966MOL0     C27411   8.685   6.870   5.643 -0.1633 -0.0858 -0.5022
  966MOL0     C27412   8.685   6.774   5.544  0.4200 -2.0600  0.2365
  966MOL0     C27413   8.567   6.743   5.474 -0.4085 -0.0428  0.3355
  966MOL0     C27414   8.444   6.813   5.504  0.4458  0.2216 -0.2448
  966MOL0     O27415   8.334   6.804   5.424  0.2971 -0.2662 -0.0737
  966MOL0     C27416   8.369   6.801   5.279  0.2490  0.6927  0.4014
  966MOL0     C27417   8.235   6.826   5.201 -0.8537 -0.5661  0.5621
  966MOL0     C27418   8.206   6.971   5.167  0.5425  1.2973 -0.0522
  966MOL0     C27419   8.074   6.981   5.090 -1.0844 -0.1308  0.4978
  966MOL0     C27420   8.014   7.123   5.076 -0.3105 -0.1355 -0.5701
  966MOL0     C27421   7.875   7.113   5.000 -0.1891 -0.5800  0.4865
  966MOL0     C27422   7.779   7.229   5.026  0.4788 -0.4610  0.0271
  966MOL0     C27423   7.839   7.360   5.006 -0.6119 -0.6758 -0.7330
  966MOL0    Cl27424   7.755   7.499   5.076  0.2374 -0.1122 -0.1061
  966MOL0     C27425   8.452   6.913   5.602  0.2411 -0.6610  0.5673
  966MOL0     C27426   8.567   6.944   5.674 -0.5468 -0.1794 -1.4999
  966MOL0     O27427   8.841   7.085   5.652  0.1903  0.3785 -0.2134
  966MOL0     C27428   9.104   7.084   5.783  0.2081 -0.2487 -0.4806
  966MOL0     C27429   9.223   7.067   5.855 -0.5221  0.5906  0.0593
  966MOL0     N27430   9.515   7.000   6.578 -0.1745  0.0085 -0.4504
  966MOL0     N27431   9.471   6.918   6.666 -0.1674 -0.0040  0.3688
  966MOL0     C27432   8.311   6.695   6.546  0.7486  0.0851  0.2900
  966MOL0     C27433   8.180   6.663   6.505 -0.8637  0.1579  0.1575
  966MOL0     C27434   7.758   6.539   6.511  0.2437 -1.2464 -0.1029
  966MOL0     C27435   7.738   6.670   6.472 -0.3983  0.9021  0.0612
  966MOL0     C27436   7.614   6.709   6.423 -0.1880  0.7905  0.1330
  966MOL0     C27437   7.510   6.624   6.414  0.7203  0.3899 -0.7293
  966MOL0     O27438   7.394   6.677   6.353 -0.4891  1.1942 -1.2746
  966MOL0     C27439   7.343   6.594   6.246 -0.2518  0.2587 -0.9626
  966MOL0     C27440   7.239   6.669   6.167  0.1050  0.7075  0.3603
  966MOL0     C27441   7.287   6.751   6.052  0.0356  0.2547  0.3196
  966MOL0     C27442   7.166   6.818   5.984  0.1234 -0.4825  0.6571
  966MOL0     C27443   7.213   6.904   5.871 -0.1092  0.6443 -0.7154
  966MOL0     C27444   7.233   6.971   5.771 -0.6348 -0.4088 -0.5140
  966MOL0     C27445   7.531   6.486   6.466  0.2489  0.0401  0.6158
  966MOL0     C27446   7.656   6.443   6.501 -0.1265  0.3333  0.0956
  966MOL0     H27447   8.054   6.487   6.752 -0.6754 -1.4142 -1.9779
  966MOL0     H27448   8.282   6.536   6.855  1.1306  1.2046  1.1883
  966MOL0     H27449   8.460   6.889   6.645  0.4584  0.3913  0.1274
  966MOL0     H27450   8.560   6.756   6.582  0.4409 -0.5828 -0.8173
  966MOL0     H27451   8.629   6.939   6.814 -1.8837  0.9263 -1.3183
  966MOL0     H27452   8.703   6.933   6.657 -0.2693  2.1912  2.0288
  966MOL0     H27453   8.806   6.706   6.704  0.1775  0.1012 -1.0625
  966MOL0     H27454   8.720   6.699   6.853  0.7630 -3.3056 -2.5785
  966MOL0     H27455   8.916   6.919   6.780 -0.3054 -0.6195 -0.0554
  966MOL0     H27456   8.813   6.928   6.926 -0.1827 -1.4050  1.0884
  966MOL0     H27457   8.934   6.708   7.009 -0.0425  0.2665 -1.4075
  966MOL0     H27458   9.034   6.842   7.015 -1.3352  2.7970 -1.3118
  966MOL0     H27459   9.034   6.656   6.785  1.6232  0.8423 -2.6630
  966MOL0     H27460   9.135   6.639   6.924 -3.5358 -1.8471  0.1820
  966MOL0     H27461   9.128   6.897   6.740  0.8480 -0.1803 -2.1627
  966MOL0     H27462   9.239   6.863   6.872 -1.5944  3.2442 -0.6376
  966MOL0     H27463   9.203   6.709   6.602 -1.9109  0.5243  1.8699
  966MOL0     H27464   9.334   6.683   6.724  0.0801  0.7669 -0.6791
  966MOL0     H27465   9.234   6.912   6.434  1.6041  1.8745 -3.4188
  966MOL0     H27466   9.458   7.208   6.419  1.6286  0.5284 -3.2055
  966MOL0     H27467   9.321   7.141   6.345 -0.9219  4.6740  1.7998
  966MOL0     H27468   9.617   7.084   6.311 -0.8477 -1.0580  0.8052
  966MOL0     H27469   9.522   7.147   6.177 -0.7619 -0.5151 -0.8925
  966MOL0     H27470   9.585   6.922   6.125 -1.5485 -0.4369 -1.6514
  966MOL0     H27471   9.535   6.855   6.277 -1.3576 -1.7077 -1.9860
  966MOL0     H27472   9.305   6.953   6.209 -0.1153  0.6542  0.3665
  966MOL0     H27473   9.362   6.805   6.133  1.8468 -1.2817 -0.9051
  966MOL0     H27474   9.140   6.803   6.042 -3.1872 -0.7078  0.1350
  966MOL0     H27475   8.959   6.812   5.927  0.2888  0.3371  0.1598
  966MOL0     H27476   8.781   6.734   5.513  1.0591 -2.2765  2.3450
  966MOL0     H27477   8.576   6.677   5.388  0.8552 -0.2856  0.6423
  966MOL0     H27478   8.409   6.706   5.243  0.2479  0.3661  1.2460
  966MOL0     H27479   8.441   6.879   5.253 -2.5758  2.4551 -2.9404
  966MOL0     H27480   8.151   6.777   5.252  0.6376 -2.1535  1.6004
  966MOL0     H27481   8.248   6.775   5.105 -1.9443 -1.2290  0.7451
  966MOL0     H27482   8.291   7.006   5.107  0.2139  0.9200 -0.7537
  966MOL0     H27483   8.188   7.035   5.254 -0.2260  1.0550 -0.0227
  966MOL0     H27484   8.093   6.928   4.997  2.1656  0.5840  0.6535
  966MOL0     H27485   8.004   6.920   5.148  2.8465 -1.3754  4.4705
  966MOL0     H27486   8.081   7.188   5.019 -2.0313  4.7445  2.3702
  966MOL0     H27487   8.003   7.165   5.176 -1.6059 -0.0434 -0.7353
  966MOL0     H27488   7.837   7.018   5.040  1.4593 -1.3997  0.2282
  966MOL0     H27489   7.883   7.107   4.891 -2.2736  2.7986  0.0358
  966MOL0     H27490   7.691   7.211   4.965  0.6943  0.6299 -0.6406
  966MOL0     H27491   7.759   7.231   5.133  2.7733 -1.5724  0.5427
  966MOL0     H27492   7.854   7.382   4.900  3.4214 -1.8975 -0.5717
  966MOL0     H27493   7.942   7.358   5.043 -0.5935 -2.0776 -0.8192
  966MOL0     H27494   8.363   6.974   5.613  0.5175  0.8057 -3.5661
  966MOL0     H27495   8.574   7.020   5.752 -2.0438 -1.9700  0.4991
  966MOL0     H27496   9.103   7.172   5.720  1.0661 -0.5178 -0.8769
  966MOL0     H27497   9.295   7.148   5.843 -3.6010  3.4382 -0.8220
  966MOL0     H27498   8.374   6.750   6.477  1.2849 -0.2253  0.5225
  966MOL0     H27499   8.147   6.690   6.405 -3.8009  0.4575  1.0967
  966MOL0     H27500   7.814   6.742   6.446  1.1433 -1.1273 -1.3302
  966MOL0     H27501   7.609   6.807   6.377 -0.8110  0.1602 -1.1929
  966MOL0     H27502   7.296   6.507   6.292 -0.7661  0.6710 -0.6936
  966MOL0     H27503   7.425   6.568   6.179 -1.8938 -3.0529 -1.8913
  966MOL0     H27504   7.186   6.591   6.112  2.2632  0.0759 -0.9454
  966MOL0     H27505   7.177   6.736   6.227 -0.1915  0.9555 -0.2135
  966MOL0     H27506   7.327   6.679   5.980  1.0746 -0.6748  1.7667
  966MOL0     H27507   7.351   6.832   6.088 -1.0264  0.4676  1.8555
  966MOL0     H27508   7.090   6.745   5.958  2.3844 -2.1524 -1.8155
  966MOL0     H27509   7.110   6.879   6.055  1.6660  0.2796  1.2838
  966MOL0     H27510   7.252   7.037   5.689  5.5425  4.1292  3.6667
  966MOL0     H27511   7.451   6.413   6.458  2.5594 -2.4688 -2.0574
  966MOL0     H27512   7.663   6.339   6.530  4.1026  0.6819  0.9312
  967MOL0     O27513   3.811   5.716   8.021  0.4449 -0.6024 -0.1297
  967MOL0     C27514   3.766   5.649   8.117 -0.1528  0.0243  0.5590
  967MOL0     O27515   3.641   5.638   8.149  0.1137  0.2220 -0.4092
  967MOL0     C27516   3.546   5.725   8.087  0.4162 -0.1365 -0.3501
  967MOL0     C27517   3.490   5.691   7.964 -0.1001 -0.0550  0.6809
  967MOL0     C27518   3.387   5.761   7.898 -0.3620 -0.2329  0.6820
  967MOL0     C27519   3.339   5.873   7.962 -0.2709 -1.2855 -0.6370
  967MOL0     O27520   3.245   5.961   7.927 -0.7767 -0.9291  0.7443
  967MOL0     C27521   3.198   5.940   7.795  0.4015 -0.6478  0.8204
  967MOL0     C27522   3.087   6.040   7.765  0.8214  1.0685  0.5552
  967MOL0     C27523   2.952   5.973   7.792 -0.7489  0.6384 -0.1812
  967MOL0     C27524   2.831   6.043   7.729 -0.1212  0.0903 -0.7276
  967MOL0     C27525   2.703   5.968   7.772  0.2157 -0.5203 -0.3924
  967MOL0     C27526   2.582   6.040   7.716 -0.1153 -0.4722  0.2857
  967MOL0     C27527   2.539   6.178   7.771  0.2029 -0.2885  0.8953
  967MOL0     C27528   2.420   6.250   7.707 -0.2728  0.8294  0.1437
  967MOL0     N27529   2.392   6.223   7.569  0.6337 -0.4086  0.2166
  967MOL0     C27530   2.283   6.153   7.519 -0.1643 -0.6335  0.2010
  967MOL0     C27531   2.298   6.163   7.385 -0.2786  0.1901 -0.6756
  967MOL0     C27532   2.205   6.113   7.284  0.2723 -0.3624 -0.3689
  967MOL0     C27533   2.274   6.031   7.172  1.0032 -0.5255 -0.0636
  967MOL0     C27534   2.322   5.898   7.241 -0.2948  0.6703 -0.2665
  967MOL0     C27535   2.459   5.897   7.301  0.0851 -0.5112  0.5736
  967MOL0     O27536   2.495   5.758   7.331  0.0814 -0.3094  0.3344
  967MOL0     C27537   2.627   5.725   7.361 -0.2411 -0.0721 -0.1633
  967MOL0     C27538   2.656   5.592   7.391 -0.3056  0.7263  0.8556
  967MOL0     C27539   2.782   5.560   7.446 -0.4093 -0.4923 -0.5296
  967MOL0     C27540   2.887   5.649   7.451 -0.2468  0.1110  0.6033
  967MOL0     C27541   3.029   5.615   7.477 -0.1553  0.8027 -0.5510
  967MOL0     O27542   3.126   5.704   7.435  0.0109 -0.5890  0.0176
  967MOL0     C27543   3.264   5.687   7.453 -0.2300 -1.0963  0.2255
  967MOL0     C27544   3.329   5.599   7.548 -0.1694 -0.0515  0.0825
  967MOL0     C27545   3.465   5.600   7.563  0.1028  0.2855  0.0636
  967MOL0     C27546   3.539   5.695   7.490 -0.0436  0.2675 -0.5733
  967MOL0     O27547   3.676   5.688   7.508 -0.0118  0.5549 -0.2597
  967MOL0     C27548   3.725   5.717   7.637 -0.7880 -0.7410  0.9531
  967MOL0     C27549   3.861   5.663   7.664  0.6964  0.0651  0.1143
  967MOL0     C27550   3.858   5.509   7.710  0.2532 -0.5534  1.1371
  967MOL0     C27551   4.000   5.442   7.717  0.4734  0.1650  0.7887
  967MOL0     C27552   4.104   5.504   7.814 -0.3289  0.7005 -1.4833
  967MOL0     C27553   4.235   5.428   7.814  0.3398 -0.1087  0.1363
  967MOL0     C27554   4.350   5.487   7.886 -1.0472 -0.2532  0.2927
  967MOL0     C27555   4.400   5.618   7.819  0.5062 -0.0306  0.4577
  967MOL0    Cl27556   4.535   5.663   7.918 -0.1081 -0.7247 -0.0197
  967MOL0     C27557   3.485   5.781   7.394  0.2075 -0.3791 -0.4816
  967MOL0     C27558   3.344   5.780   7.378 -0.2926 -0.9385  0.1669
  967MOL0     O27559   3.051   5.525   7.554  0.1471 -0.1211  0.3393
  967MOL0     C27560   2.863   5.776   7.409  0.3174  1.0336  0.3855
  967MOL0     C27561   2.728   5.818   7.386 -0.6338 -0.7063  0.0144
  967MOL0     N27562   2.409   6.237   7.362 -0.3935  0.9923  0.9097
  967MOL0     N27563   2.472   6.261   7.467 -0.0640  0.2505 -0.0448
  967MOL0     C27564   3.392   5.913   8.090 -0.4800 -0.3947  0.5365
  967MOL0     C27565   3.492   5.837   8.150 -0.6304 -0.3359 -0.0703
  967MOL0     C27566   3.864   5.566   8.195  0.4724  0.1842 -0.1046
  967MOL0     C27567   3.830   5.442   8.237  0.3833  1.0626 -0.0028
  967MOL0     C27568   3.925   5.369   8.313 -0.1199 -0.6302  0.2402
  967MOL0     C27569   4.035   5.433   8.362  0.1628 -0.1257  1.1229
  967MOL0     O27570   4.103   5.369   8.461  0.2669 -0.5759  0.0999
  967MOL0     C27571   4.166   5.449   8.565 -0.3542  0.5786 -0.0687
  967MOL0     C27572   4.086   5.515   8.662 -0.3906 -0.4681 -0.2781
  967MOL0     C27573   4.170   5.592   8.760  0.5952  0.6642 -0.9803
  967MOL0     C27574   4.087   5.640   8.882 -0.0074 -0.0835 -0.3350
  967MOL0     C27575   4.177   5.685   8.997  0.5440 -0.2698  0.1678
  967MOL0     C27576   4.247   5.709   9.092  0.0186 -0.4678  0.5871
  967MOL0     C27577   4.079   5.552   8.302  0.5212 -0.2105  0.1521
  967MOL0     C27578   3.998   5.616   8.215  0.3415 -0.2838  0.0442
  967MOL0     H27579   3.524   5.604   7.909 -2.3642 -1.2413  1.0318
  967MOL0     H27580   3.350   5.726   7.802  3.6351 -0.3614 -1.0084
  967MOL0     H27581   3.167   5.836   7.781  1.8056 -0.7451 -2.3909
  967MOL0     H27582   3.269   5.939   7.712  0.3705  1.5104  0.7109
  967MOL0     H27583   3.101   6.050   7.657  0.7054  0.1534  0.4477
  967MOL0     H27584   3.086   6.130   7.827 -0.6138  1.0861  0.5199
  967MOL0     H27585   2.944   5.965   7.901  1.8703  2.5116  0.2508
  967MOL0     H27586   2.959   5.875   7.745  1.7209  1.3120 -1.3753
  967MOL0     H27587   2.837   6.145   7.769 -1.7835 -0.4255  0.9688
  967MOL0     H27588   2.846   6.042   7.621 -0.5327  0.0628 -0.7863
  967MOL0     H27589   2.700   5.960   7.881  5.0662  0.5543  0.0436
  967MOL0     H27590   2.709   5.867   7.729 -0.1038  1.2395 -5.1446
  967MOL0     H27591   2.499   5.970   7.729 -1.5305  1.5036  2.7642
  967MOL0     H27592   2.610   6.052   7.611 -0.8009  1.6078  0.3004
  967MOL0     H27593   2.516   6.161   7.876 -1.3538  2.8040  1.1595
  967MOL0     H27594   2.627   6.242   7.778 -1.0379  1.5799  0.1950
  967MOL0     H27595   2.439   6.357   7.718  1.7801  0.5920 -0.6668
  967MOL0     H27596   2.332   6.224   7.766  0.4178  0.6791  1.1357
  967MOL0     H27597   2.191   6.120   7.565 -0.2434  1.8560  2.0368
  967MOL0     H27598   2.161   6.204   7.243  0.2397  0.8930  2.2365
  967MOL0     H27599   2.135   6.043   7.330  0.7395  0.2307  1.3422
  967MOL0     H27600   2.359   6.078   7.121 -2.7979  3.0663 -3.8073
  967MOL0     H27601   2.204   6.006   7.092  0.9200  0.3330 -0.2667
  967MOL0     H27602   2.246   5.854   7.307  0.7799 -1.3217 -0.2647
  967MOL0     H27603   2.322   5.829   7.155 -0.8338 -1.8331  1.6083
  967MOL0     H27604   2.456   5.956   7.393 -1.2948  1.5586 -0.7079
  967MOL0     H27605   2.532   5.934   7.229  0.8548  0.8136  1.9875
  967MOL0     H27606   2.577   5.519   7.379 -0.3929  0.8492  0.6761
  967MOL0     H27607   2.799   5.459   7.483  0.9152 -0.4936 -1.0945
  967MOL0     H27608   3.270   5.546   7.623 -1.5375  0.3212 -0.7030
  967MOL0     H27609   3.513   5.542   7.641  1.7862  0.0161 -1.1188
  967MOL0     H27610   3.655   5.696   7.718 -2.5460 -0.3909 -0.4238
  967MOL0     H27611   3.750   5.823   7.636  2.2663 -1.3410 -1.7346
  967MOL0     H27612   3.898   5.733   7.740  1.1538 -0.1688  0.1112
  967MOL0     H27613   3.925   5.664   7.575 -0.0117 -1.5497 -0.4406
  967MOL0     H27614   3.791   5.465   7.636  0.2058  0.4559  0.5666
  967MOL0     H27615   3.806   5.504   7.806 -1.6617 -0.8425  0.1126
  967MOL0     H27616   3.998   5.338   7.752 -0.7494  1.5619  5.6173
  967MOL0     H27617   4.048   5.446   7.619 -0.9255 -0.5181  0.0437
  967MOL0     H27618   4.053   5.490   7.910  0.4219  0.3516 -1.1263
  967MOL0     H27619   4.135   5.607   7.798 -0.2992  0.5636 -2.3702
  967MOL0     H27620   4.262   5.404   7.711 -3.6799 -1.1776 -0.8699
  967MOL0     H27621   4.210   5.331   7.856  0.8495  0.1012  0.9365
  967MOL0     H27622   4.335   5.495   7.994  0.9037 -1.4082  0.6840
  967MOL0     H27623   4.436   5.421   7.875  0.8473  2.1797 -0.3945
  967MOL0     H27624   4.327   5.700   7.824 -0.0047 -0.3903 -0.7487
  967MOL0     H27625   4.434   5.595   7.717  2.0332 -1.0574  1.1606
  967MOL0     H27626   3.552   5.850   7.345  0.3166  0.0275  0.2215
  967MOL0     H27627   3.302   5.843   7.301 -0.6061 -0.1522  0.9560
  967MOL0     H27628   2.950   5.842   7.415  1.5558 -0.2509 -2.0492
  967MOL0     H27629   2.713   5.924   7.373  1.0321 -0.3956  0.3471
  967MOL0     H27630   3.347   6.005   8.125  2.2911  1.0495  0.5331
  967MOL0     H27631   3.540   5.870   8.242  0.8780 -0.5690 -0.7319
  967MOL0     H27632   3.737   5.402   8.198  1.1632  2.4030 -3.7271
  967MOL0     H27633   3.891   5.272   8.350 -4.3192 -0.2314 -1.9087
  967MOL0     H27634   4.246   5.515   8.530  0.6400 -1.1686 -1.2990
  967MOL0     H27635   4.217   5.365   8.614 -0.8448 -1.1461 -2.3335
  967MOL0     H27636   4.013   5.579   8.613  0.6804  3.6696  2.9230
  967MOL0     H27637   4.039   5.429   8.711  0.0287  0.2314  1.4335
  967MOL0     H27638   4.213   5.678   8.708  2.9967 -1.3108 -2.4357
  967MOL0     H27639   4.240   5.513   8.791  0.9195  0.2128 -2.7936
  967MOL0     H27640   4.012   5.714   8.854  1.3665  2.5397  2.4352
  967MOL0     H27641   4.036   5.553   8.924 -2.6690  1.0959 -0.9464
  967MOL0     H27642   4.319   5.718   9.171  1.2993 -0.5257 -0.5412
  967MOL0     H27643   4.178   5.585   8.331 -0.3386  3.1359 -0.3031
  967MOL0     H27644   4.026   5.720   8.200 -1.1258  0.7526  3.4860
  968MOL0     O27645   9.150   5.003   8.107 -0.6370  0.5168  0.4272
  968MOL0     C27646   9.053   5.078   8.146  0.5661 -0.0104  0.7984
  968MOL0     O27647   9.019   5.115   8.267  0.1829 -0.6677 -0.2917
  968MOL0     C27648   9.086   5.062   8.372 -0.7609 -0.5510 -1.1780
  968MOL0     C27649   9.006   4.984   8.463 -1.1212 -0.5624 -0.3339
  968MOL0     C27650   9.064   4.918   8.568 -0.9854  0.7089  0.2765
  968MOL0     C27651   9.200   4.943   8.612  0.2362  0.3699  0.0569
  968MOL0     O27652   9.250   4.879   8.725 -0.3094 -0.0222  0.3896
  968MOL0     C27653   9.390   4.849   8.731  0.9651 -0.4504 -0.1076
  968MOL0     C27654   9.412   4.745   8.842 -0.1107 -0.3250  0.8243
  968MOL0     C27655   9.356   4.612   8.786  0.3153  0.1442 -0.0917
  968MOL0     C27656   9.434   4.481   8.830  0.2760 -0.2094 -0.1591
  968MOL0     C27657   9.375   4.355   8.759 -0.5078 -0.5971 -0.3020
  968MOL0     C27658   9.421   4.221   8.813 -0.1448  0.1136 -0.3501
  968MOL0     C27659   9.349   4.099   8.749  0.5718  0.3698 -0.6629
  968MOL0     C27660   9.402   3.961   8.795 -0.2798 -0.0537 -0.6725
  968MOL0     N27661   9.321   3.862   8.730  0.5736  0.1858  0.1246
  968MOL0     C27662   9.355   3.818   8.608 -0.4455 -0.7367 -0.1177
  968MOL0     C27663   9.291   3.695   8.604  0.6088 -0.5698 -0.3064
  968MOL0     C27664   9.296   3.594   8.490  0.0503 -0.7800 -1.1162
  968MOL0     C27665   9.297   3.650   8.347 -0.2276 -0.3515 -0.4769
  968MOL0     C27666   9.276   3.531   8.254  0.3218 -0.1246  0.0157
  968MOL0     C27667   9.300   3.582   8.111  0.5103 -0.1325  0.2316
  968MOL0     O27668   9.407   3.680   8.111 -0.1140 -0.2472  0.5014
  968MOL0     C27669   9.536   3.637   8.136  1.1835 -0.7512  0.4015
  968MOL0     C27670   9.621   3.733   8.189  0.0009 -0.7291 -0.5336
  968MOL0     C27671   9.754   3.701   8.227  0.9794 -0.1200 -0.2386
  968MOL0     C27672   9.806   3.575   8.214  0.3506  1.2559 -0.7965
  968MOL0     C27673   9.946   3.535   8.262  0.1071 -0.9486 -0.5970
  968MOL0     O27674  10.013   3.651   8.288  0.8829 -0.0294 -0.0200
  968MOL0     C27675  10.122   3.660   8.369  1.0203 -0.7078  0.2787
  968MOL0     C27676  10.234   3.585   8.343 -0.0172 -0.0836  1.0610
  968MOL0     C27677  10.354   3.620   8.396 -0.9266  0.2174 -0.3724
  968MOL0     C27678  10.366   3.720   8.493  0.6126  0.0635  0.0463
  968MOL0     O27679  10.490   3.776   8.529  0.0318  0.3940  0.8484
  968MOL0     C27680  10.612   3.704   8.499  0.4045  0.2137  0.2335
  968MOL0     C27681  10.737   3.728   8.573 -0.1112  0.3373 -0.3010
  968MOL0     C27682  10.725   3.734   8.729 -1.1725 -0.4222 -0.4632
  968MOL0     C27683  10.665   3.595   8.777 -0.5740  0.0188  0.6191
  968MOL0     C27684  10.710   3.579   8.924  0.2184 -0.4748  0.4514
  968MOL0     C27685  10.647   3.453   8.970 -0.1957 -0.5955 -0.0549
  968MOL0     C27686  10.692   3.429   9.118  0.7403  0.0552  0.8181
  968MOL0     C27687  10.606   3.338   9.193 -0.4506  0.1061 -0.9028
  968MOL0    Cl27688  10.614   3.173   9.106 -0.8093 -0.2708 -0.2993
  968MOL0     C27689  10.247   3.804   8.522 -0.9195 -0.1354 -0.4265
  968MOL0     C27690  10.131   3.774   8.458 -0.0677 -0.8553  0.3111
  968MOL0     O27691   9.983   3.419   8.273  0.0247  0.0255  0.1414
  968MOL0     C27692   9.708   3.476   8.163  0.3859  0.1790 -0.4422
  968MOL0     C27693   9.576   3.505   8.130  0.0940  0.0726 -0.1790
  968MOL0     N27694   9.219   3.677   8.718 -0.2755  0.1839  0.3726
  968MOL0     N27695   9.234   3.782   8.795  0.1098  0.5069  0.2031
  968MOL0     C27696   9.273   5.023   8.527  0.2963 -0.6110  0.1338
  968MOL0     C27697   9.212   5.088   8.415  0.6250 -0.2244  0.9658
  968MOL0     C27698   8.978   5.140   8.045 -0.1438  0.3561  0.6450
  968MOL0     C27699   8.965   5.281   8.047  0.1388  0.1589  0.3208
  968MOL0     C27700   8.882   5.347   7.959 -0.4527  0.4230  0.3860
  968MOL0     C27701   8.816   5.270   7.855 -0.3671  0.1328  0.2570
  968MOL0     O27702   8.742   5.319   7.756  0.2026  0.8697  0.0950
  968MOL0     C27703   8.605   5.360   7.801 -0.4419  0.7486 -0.4473
  968MOL0     C27704   8.599   5.512   7.822 -0.5686 -0.3699  0.6493
  968MOL0     C27705   8.599   5.581   7.683 -0.4899  0.2710 -0.0026
  968MOL0     C27706   8.623   5.737   7.689 -0.4329 -0.4776 -0.5603
  968MOL0     C27707   8.583   5.799   7.566  0.2324  0.0346 -0.1813
  968MOL0     C27708   8.549   5.861   7.466  0.1043 -0.3072 -0.4230
  968MOL0     C27709   8.824   5.121   7.859 -0.0728 -0.1100 -0.3770
  968MOL0     C27710   8.912   5.063   7.952  0.1908  0.2787  0.6126
  968MOL0     H27711   8.901   4.965   8.443 -1.3876 -1.3461  1.6077
  968MOL0     H27712   9.005   4.843   8.618 -1.2433  0.0185 -1.0085
  968MOL0     H27713   9.442   4.943   8.752 -2.3906  1.6335 -0.4520
  968MOL0     H27714   9.416   4.804   8.635  0.1630 -4.5427  1.3868
  968MOL0     H27715   9.351   4.765   8.930 -2.1523  0.4844 -0.6827
  968MOL0     H27716   9.518   4.744   8.868 -0.2991  0.7075  1.6997
  968MOL0     H27717   9.354   4.609   8.677 -3.1252  0.4938 -0.1691
  968MOL0     H27718   9.250   4.589   8.801  0.5586 -1.4017 -0.5891
  968MOL0     H27719   9.542   4.489   8.813 -0.0685  0.4535 -2.3207
  968MOL0     H27720   9.403   4.464   8.933 -0.3048 -3.4968 -0.7745
  968MOL0     H27721   9.410   4.372   8.657 -0.6096  1.1113 -0.0742
  968MOL0     H27722   9.266   4.358   8.768 -0.5308  4.2748  0.5003
  968MOL0     H27723   9.411   4.210   8.922  1.6870 -2.5294 -0.3538
  968MOL0     H27724   9.528   4.207   8.797  0.2254 -4.1848  3.5740
  968MOL0     H27725   9.242   4.110   8.770  0.8328  0.0606  0.9859
  968MOL0     H27726   9.368   4.106   8.642 -0.9208  0.7912 -0.9286
  968MOL0     H27727   9.388   3.953   8.904 -0.2037 -2.3106 -0.7895
  968MOL0     H27728   9.507   3.956   8.765 -0.2893  2.7472 -1.4692
  968MOL0     H27729   9.421   3.863   8.535  0.0909 -0.0612  0.7733
  968MOL0     H27730   9.217   3.520   8.499  1.2795 -1.8525  2.3234
  968MOL0     H27731   9.385   3.531   8.500  0.1881 -0.8264 -2.4249
  968MOL0     H27732   9.390   3.707   8.336  0.9094 -2.3443 -1.6041
  968MOL0     H27733   9.208   3.711   8.327 -0.8050 -1.7464 -2.4015
  968MOL0     H27734   9.343   3.448   8.280 -1.1627 -0.7473  2.1499
  968MOL0     H27735   9.176   3.489   8.269  1.0182 -1.8954  0.0087
  968MOL0     H27736   9.210   3.630   8.071  0.9106  1.8296  1.5618
  968MOL0     H27737   9.318   3.497   8.044  0.8274  0.4382 -0.4177
  968MOL0     H27738   9.589   3.837   8.187 -2.1281 -1.1158  3.3115
  968MOL0     H27739   9.821   3.785   8.244  1.0621 -0.1575 -0.3824
  968MOL0     H27740  10.219   3.501   8.276  3.1451 -0.9843  1.3029
  968MOL0     H27741  10.448   3.576   8.363 -1.2760 -2.1198  1.4989
  968MOL0     H27742  10.644   3.720   8.396 -1.6736 -1.3664 -0.7508
  968MOL0     H27743  10.595   3.597   8.518 -1.5159  0.8019  2.3840
  968MOL0     H27744  10.775   3.826   8.544 -1.6113  0.6894 -1.1704
  968MOL0     H27745  10.806   3.648   8.544  1.3974  1.4076  0.1907
  968MOL0     H27746  10.660   3.816   8.761  0.9407  0.7141  1.1557
  968MOL0     H27747  10.827   3.746   8.766 -1.0917 -1.4100 -0.3290
  968MOL0     H27748  10.558   3.596   8.753 -0.5957  0.4490  0.7228
  968MOL0     H27749  10.711   3.513   8.722 -0.1283 -1.7210  3.3695
  968MOL0     H27750  10.675   3.664   8.983  2.3443  2.2286 -1.8777
  968MOL0     H27751  10.817   3.584   8.943  0.0362  0.3927  1.3511
  968MOL0     H27752  10.685   3.369   8.909  1.7967  0.9980 -1.1493
  968MOL0     H27753  10.538   3.455   8.969 -0.2298 -1.3309 -1.3498
  968MOL0     H27754  10.796   3.396   9.121  1.0390  1.0489  1.9337
  968MOL0     H27755  10.684   3.527   9.166  2.8047  1.9083 -2.2539
  968MOL0     H27756  10.500   3.365   9.194 -0.1737  1.2389 -1.0630
  968MOL0     H27757  10.636   3.319   9.296 -0.3751 -1.5583 -1.1926
  968MOL0     H27758  10.255   3.888   8.591  3.3917 -0.0617 -0.7271
  968MOL0     H27759  10.056   3.852   8.468  0.9064  0.1606 -0.0766
  968MOL0     H27760   9.749   3.376   8.152 -0.9774 -0.2202 -2.4653
  968MOL0     H27761   9.511   3.424   8.098 -1.7894  1.5422 -0.2759
  968MOL0     H27762   9.379   5.042   8.540  0.1160  1.2077 -0.8711
  968MOL0     H27763   9.267   5.147   8.343 -1.7733  1.7234  0.6013
  968MOL0     H27764   9.007   5.339   8.128  0.7994 -1.6069  1.2930
  968MOL0     H27765   8.881   5.455   7.959  2.9007  0.5430 -0.5369
  968MOL0     H27766   8.573   5.312   7.894  1.3754  2.2271  1.0349
  968MOL0     H27767   8.540   5.336   7.717 -0.9134  2.3075 -0.5529
  968MOL0     H27768   8.522   5.556   7.886  1.3233  2.0915  1.4064
  968MOL0     H27769   8.692   5.544   7.870 -0.3073  0.1588 -0.1960
  968MOL0     H27770   8.508   5.574   7.622 -0.3543  0.8379 -0.2727
  968MOL0     H27771   8.673   5.534   7.617 -0.3179 -0.7433  0.8796
  968MOL0     H27772   8.546   5.767   7.761  1.9689  0.4589  1.7647
  968MOL0     H27773   8.722   5.765   7.725 -1.7933  1.6681  1.7731
  968MOL0     H27774   8.529   5.927   7.384  3.6852  2.0164  0.3331
  968MOL0     H27775   8.785   5.060   7.779  0.0847  2.7106 -2.7960
  968MOL0     H27776   8.919   4.954   7.955 -0.0150  0.2562  0.3643
  969MOL0     O27777   5.947   8.423  10.217 -0.6215 -0.0418 -0.6449
  969MOL0     C27778   6.029   8.484  10.146 -0.2605 -0.1888  0.1109
  969MOL0     O27779   6.166   8.457  10.153 -0.1109 -0.0016 -0.0172
  969MOL0     C27780   6.216   8.356  10.226 -0.0795  0.1743 -0.5191
  969MOL0     C27781   6.156   8.232  10.265 -0.1511  0.0001  0.2265
  969MOL0     C27782   6.239   8.135  10.316  0.6495  0.7674  0.0573
  969MOL0     C27783   6.379   8.138  10.329  0.3435 -0.4785  1.7240
  969MOL0     O27784   6.449   8.029  10.378  0.2348  0.9760 -0.0382
  969MOL0     C27785   6.579   8.063  10.430  0.2506  0.6334 -0.4455
  969MOL0     C27786   6.609   7.932  10.516 -0.8153 -0.6295  0.3875
  969MOL0     C27787   6.754   7.896  10.512 -0.1904  0.8439 -0.3140
  969MOL0     C27788   6.771   7.758  10.589 -0.1680 -0.7198 -0.7155
  969MOL0     C27789   6.913   7.706  10.598  0.2295  0.4753 -0.3969
  969MOL0     C27790   6.934   7.592  10.698 -0.0359  0.4115  0.0439
  969MOL0     C27791   7.065   7.513  10.658 -1.1766  0.0659 -0.8733
  969MOL0     C27792   7.087   7.401  10.774 -0.0059 -0.3106 -0.1644
  969MOL0     N27793   7.217   7.323  10.776  0.3560 -0.0589 -0.5245
  969MOL0     C27794   7.340   7.378  10.812  1.1449 -0.8204 -0.4115
  969MOL0     C27795   7.433   7.294  10.772  0.5561 -0.9945 -0.9817
  969MOL0     C27796   7.572   7.328  10.771  0.3861 -0.1020 -0.0857
  969MOL0     C27797   7.643   7.244  10.871 -0.3636 -0.5134 -0.1168
  969MOL0     C27798   7.638   7.302  11.012 -1.5174 -0.1895  0.1509
  969MOL0     C27799   7.764   7.381  11.066 -0.2032  0.0619  0.3927
  969MOL0     O27800   7.792   7.463  10.955  0.0081 -0.9462 -0.4015
  969MOL0     C27801   7.917   7.520  10.946  0.6480 -0.3732  0.3835
  969MOL0     C27802   7.997   7.559  11.053  0.6923 -0.4243 -0.3237
  969MOL0     C27803   8.111   7.636  11.031 -0.5224 -0.2061  0.0951
  969MOL0     C27804   8.155   7.666  10.903 -0.0819 -0.1950  0.0764
  969MOL0     C27805   8.279   7.743  10.876 -0.1742 -0.5572  0.3808
  969MOL0     O27806   8.368   7.767  10.984 -0.4508 -0.5099 -0.3046
  969MOL0     C27807   8.477   7.851  10.971  0.3931 -0.8302  0.3268
  969MOL0     C27808   8.487   7.957  10.875  0.2341  0.4701 -0.0576
  969MOL0     C27809   8.606   8.039  10.870  1.3037  0.5698 -0.4595
  969MOL0     C27810   8.720   8.004  10.944  0.8444  0.5856 -0.5313
  969MOL0     O27811   8.837   8.076  10.950 -0.7145 -0.1895 -0.0923
  969MOL0     C27812   8.840   8.218  10.915 -0.8224  0.2086 -0.2672
  969MOL0     C27813   8.787   8.312  11.019  0.2302  0.3439 -0.6911
  969MOL0     C27814   8.877   8.318  11.145 -1.2914 -0.3454  0.0338
  969MOL0     C27815   8.840   8.429  11.247 -0.3201 -0.0652 -0.1355
  969MOL0     C27816   8.891   8.391  11.394 -1.2661  0.0362 -0.5056
  969MOL0     C27817   8.838   8.492  11.505 -0.3967  0.4367 -0.2696
  969MOL0     C27818   8.906   8.629  11.498  0.6006 -0.2271  0.0854
  969MOL0     C27819   9.036   8.637  11.583  0.1941 -0.4109 -1.2660
  969MOL0    Cl27820   9.120   8.801  11.587  0.1352 -0.0465  0.1593
  969MOL0     C27821   8.711   7.891  11.029 -0.4366  0.5175 -0.6943
  969MOL0     C27822   8.591   7.822  11.044 -0.7253 -0.4551 -0.7736
  969MOL0     O27823   8.309   7.767  10.757  0.2742  0.4223  0.9328
  969MOL0     C27824   8.075   7.619  10.795 -0.0054  0.9042 -0.7975
  969MOL0     C27825   7.956   7.555  10.814  0.3187 -0.4373  0.0715
  969MOL0     N27826   7.368   7.185  10.729 -1.3363  0.3089  0.3111
  969MOL0     N27827   7.241   7.204  10.721 -0.2353  0.2460 -0.6571
  969MOL0     C27828   6.433   8.259  10.283 -0.3783 -0.3218  0.1810
  969MOL0     C27829   6.354   8.360  10.226  0.1191 -1.6363 -0.4268
  969MOL0     C27830   5.991   8.592  10.070  0.5149  0.0496 -0.6900
  969MOL0     C27831   6.075   8.685  10.007  0.2560 -0.2710  0.2082
  969MOL0     C27832   6.029   8.795   9.941  0.1806  0.4540  0.3000
  969MOL0     C27833   5.889   8.819   9.923  0.4732 -0.4554 -0.8941
  969MOL0     O27834   5.847   8.922   9.841 -0.4572 -0.0075 -0.6026
  969MOL0     C27835   5.948   8.998   9.764  0.8188 -0.5187  0.1011
  969MOL0     C27836   5.868   9.083   9.668  0.0840 -0.9627  0.9283
  969MOL0     C27837   5.968   9.170   9.592 -0.4801  0.2950  0.4734
  969MOL0     C27838   5.895   9.256   9.496 -0.8859 -1.3768  0.2839
  969MOL0     C27839   5.851   9.377   9.560  0.9256  0.5954 -0.1418
  969MOL0     C27840   5.825   9.476   9.627  0.2784 -0.5372  0.2010
  969MOL0     C27841   5.801   8.722   9.971 -0.5238 -0.4961 -0.1665
  969MOL0     C27842   5.847   8.613  10.052 -0.3763 -0.1648  0.1644
  969MOL0     H27843   6.049   8.213  10.261  0.1036 -2.1817  1.6676
  969MOL0     H27844   6.188   8.048  10.358  0.8830 -0.2513 -1.6679
  969MOL0     H27845   6.574   8.147  10.500 -1.3936  0.4553 -0.3118
  969MOL0     H27846   6.640   8.064  10.340 -1.5265 -2.3273 -1.8408
  969MOL0     H27847   6.545   7.850  10.482 -0.8019 -1.4498  2.2213
  969MOL0     H27848   6.592   7.947  10.623  3.7030 -0.3291  1.2279
  969MOL0     H27849   6.812   7.981  10.551 -2.9083  2.5509  0.3173
  969MOL0     H27850   6.803   7.888  10.415  0.5700 -3.1134  0.2392
  969MOL0     H27851   6.732   7.762  10.691 -2.6527 -1.7809 -1.5318
  969MOL0     H27852   6.711   7.681  10.541  1.0041 -0.8741 -1.9962
  969MOL0     H27853   6.985   7.785  10.621  2.2621 -1.4475  0.2255
  969MOL0     H27854   6.935   7.668  10.498 -3.4241 -0.0553 -1.1415
  969MOL0     H27855   6.844   7.531  10.687  0.5612 -0.2419 -1.5556
  969MOL0     H27856   6.939   7.632  10.799 -0.4414 -0.3874  0.3946
  969MOL0     H27857   7.064   7.467  10.559  0.4803 -0.3626 -0.7164
  969MOL0     H27858   7.151   7.580  10.665  0.9037 -2.4783 -0.7124
  969MOL0     H27859   7.002   7.332  10.780 -1.4183  1.4073  0.2848
  969MOL0     H27860   7.074   7.452  10.870  2.0803  0.8203 -0.4246
  969MOL0     H27861   7.361   7.477  10.852  1.1746 -0.8930 -0.2449
  969MOL0     H27862   7.593   7.435  10.778  2.3944 -0.5048  0.6739
  969MOL0     H27863   7.620   7.312  10.674 -1.5161 -0.1513 -1.0786
  969MOL0     H27864   7.748   7.219  10.851  0.3879  0.8991  1.7891
  969MOL0     H27865   7.597   7.145  10.874  1.4790 -1.4237 -0.2361
  969MOL0     H27866   7.548   7.364  11.003 -0.1902  1.5497 -2.6610
  969MOL0     H27867   7.638   7.217  11.080  2.9830  0.6857  1.5877
  969MOL0     H27868   7.852   7.317  11.077  0.4550  1.1170  1.6260
  969MOL0     H27869   7.766   7.442  11.157 -0.8789  0.9989 -0.1970
  969MOL0     H27870   7.973   7.526  11.154  0.0483 -1.1249 -0.6930
  969MOL0     H27871   8.167   7.666  11.120 -2.4133  1.6713  0.7234
  969MOL0     H27872   8.400   7.978  10.814  1.2405  1.6966 -1.1180
  969MOL0     H27873   8.603   8.119  10.797 -1.1529  0.8919 -0.1084
  969MOL0     H27874   8.811   8.230  10.810  1.4312 -2.2053 -1.2892
  969MOL0     H27875   8.948   8.236  10.913 -0.4740 -1.3467  1.8288
  969MOL0     H27876   8.683   8.281  11.032 -0.6634  3.1707 -0.3507
  969MOL0     H27877   8.781   8.410  10.970 -1.3064 -0.3212 -1.8950
  969MOL0     H27878   8.981   8.333  11.114 -1.4875  0.2184 -0.3520
  969MOL0     H27879   8.861   8.222  11.196  0.5612  0.6450  2.7042
  969MOL0     H27880   8.876   8.528  11.219  1.0092 -0.2764  0.7548
  969MOL0     H27881   8.731   8.436  11.240 -0.1976  0.3700 -2.3000
  969MOL0     H27882   8.999   8.381  11.384 -0.9695 -0.1882  2.1502
  969MOL0     H27883   8.860   8.292  11.427  1.0149 -0.3886  0.5159
  969MOL0     H27884   8.880   8.455  11.599 -0.5580  1.1702  0.0969
  969MOL0     H27885   8.729   8.500  11.508 -0.7715 -3.2930  2.4831
  969MOL0     H27886   8.947   8.661  11.402 -0.4835  1.4412  0.1522
  969MOL0     H27887   8.839   8.708  11.533 -0.7734 -1.2050 -0.2419
  969MOL0     H27888   9.112   8.565  11.551 -0.4064 -1.0094 -1.3554
  969MOL0     H27889   9.014   8.629  11.690  1.0392 -0.2802 -1.0736
  969MOL0     H27890   8.793   7.863  11.095  0.8406  1.9018 -1.5992
  969MOL0     H27891   8.584   7.745  11.121 -0.1843 -0.5034 -0.7707
  969MOL0     H27892   8.099   7.634  10.690  0.4905  1.7956 -0.5602
  969MOL0     H27893   7.896   7.515  10.732  1.2326 -2.0762  0.1538
  969MOL0     H27894   6.541   8.267  10.288 -0.2009 -0.7028 -2.1122
  969MOL0     H27895   6.395   8.453  10.188 -3.0429 -0.2517 -0.7433
  969MOL0     H27896   6.181   8.665  10.014  0.5678  0.9352 -0.6349
  969MOL0     H27897   6.106   8.865   9.909 -0.9416  0.9543 -1.4681
  969MOL0     H27898   5.998   8.926   9.700 -1.0183 -0.3509 -1.6318
  969MOL0     H27899   6.013   9.057   9.829  0.1094 -0.5282  0.8387
  969MOL0     H27900   5.805   9.026   9.599 -2.4539  0.5473  1.8193
  969MOL0     H27901   5.799   9.147   9.725  0.9328  0.5290  0.3269
  969MOL0     H27902   6.028   9.105   9.527 -0.0387  0.8073  0.3557
  969MOL0     H27903   6.028   9.227   9.663 -0.9414  3.4972 -1.4783
  969MOL0     H27904   5.973   9.296   9.430 -1.3603  0.6786  0.8848
  969MOL0     H27905   5.812   9.204   9.449 -2.0133  0.2641  0.3560
  969MOL0     H27906   5.791   9.571   9.662  0.3362  0.1026 -1.3710
  969MOL0     H27907   5.700   8.716   9.931  0.1367 -4.2682 -1.6829
  969MOL0     H27908   5.769   8.542  10.078  0.9522 -1.0800  1.8670
  970MOL0     O27909   4.364   8.292   9.691  0.3577  0.4357  0.3407
  970MOL0     C27910   4.272   8.275   9.764 -0.5072 -0.3136 -0.8670
  970MOL0     O27911   4.145   8.330   9.754 -0.1928 -0.0315  0.1656
  970MOL0     C27912   4.082   8.340   9.628 -0.5184  0.0991  0.5847
  970MOL0     C27913   3.979   8.432   9.610 -0.5254 -0.0300  1.1233
  970MOL0     C27914   3.905   8.436   9.491 -0.2380 -0.0635 -1.1749
  970MOL0     C27915   3.936   8.353   9.384  0.1097  0.1477  0.2565
  970MOL0     O27916   3.854   8.365   9.274  0.2644  0.5183 -0.3774
  970MOL0     C27917   3.845   8.261   9.180  0.9336 -0.0112  0.5703
  970MOL0     C27918   3.744   8.298   9.059 -0.7756  0.0027 -0.2603
  970MOL0     C27919   3.804   8.411   8.976  0.0259 -0.0206 -0.5005
  970MOL0     C27920   3.709   8.455   8.860 -0.2195  0.1418 -1.0736
  970MOL0     C27921   3.699   8.340   8.761  1.0101 -0.1455 -0.2935
  970MOL0     C27922   3.815   8.298   8.678 -0.6517 -0.2311  0.2390
  970MOL0     C27923   3.863   8.407   8.588 -0.0940 -0.6365 -0.4311
  970MOL0     C27924   3.763   8.466   8.485 -0.1852  0.3341 -0.8135
  970MOL0     N27925   3.693   8.365   8.395 -0.6320 -0.3828 -0.0519
  970MOL0     C27926   3.601   8.408   8.298 -0.5886 -0.4918  0.0334
  970MOL0     C27927   3.541   8.302   8.243 -0.9809 -1.7606  0.2143
  970MOL0     C27928   3.446   8.298   8.122  0.6442  0.0363 -0.1549
  970MOL0     C27929   3.489   8.389   8.006  0.2318 -0.7196  0.8152
  970MOL0     C27930   3.623   8.344   7.953 -0.3053  0.8673 -0.4908
  970MOL0     C27931   3.664   8.419   7.834  0.6210  0.5055 -0.1385
  970MOL0     O27932   3.563   8.406   7.731  0.0534 -0.8922  0.2741
  970MOL0     C27933   3.590   8.470   7.614 -0.8473 -0.3846  1.1111
  970MOL0     C27934   3.573   8.397   7.486  0.6004 -0.0855 -0.3347
  970MOL0     C27935   3.576   8.464   7.364 -0.0839  1.2086  0.1113
  970MOL0     C27936   3.615   8.594   7.358  0.1586 -0.4728  0.5078
  970MOL0     C27937   3.633   8.666   7.220 -0.1388  0.5956  0.4764
  970MOL0     O27938   3.652   8.799   7.210 -0.3664 -0.5546  0.1293
  970MOL0     C27939   3.642   8.869   7.090  0.7182  0.3913 -0.3070
  970MOL0     C27940   3.587   8.827   6.968 -0.1565  0.5122 -0.0976
  970MOL0     C27941   3.596   8.906   6.859 -0.5377 -0.9299  0.7371
  970MOL0     C27942   3.650   9.032   6.858 -0.0036 -0.5313 -0.5339
  970MOL0     O27943   3.656   9.105   6.734  0.6822  0.2373 -1.0985
  970MOL0     C27944   3.777   9.178   6.713 -0.1001  0.3637 -0.0209
  970MOL0     C27945   3.805   9.170   6.565 -0.2788 -0.5010 -0.6813
  970MOL0     C27946   3.882   9.045   6.526  0.2521 -1.2929 -0.8863
  970MOL0     C27947   3.883   9.019   6.384 -0.4940  0.6395 -0.7564
  970MOL0     C27948   3.938   9.132   6.295 -0.8844  0.4489  0.5309
  970MOL0     C27949   4.084   9.173   6.331 -0.4382 -0.1660  1.1845
  970MOL0     C27950   4.153   9.244   6.206 -0.0741 -0.1048 -0.0099
  970MOL0     C27951   4.274   9.315   6.249 -0.4222 -0.6198 -0.9724
  970MOL0    Cl27952   4.373   9.343   6.106  0.2234 -0.0988  0.4922
  970MOL0     C27953   3.708   9.076   6.981  0.5041 -0.4704  0.4658
  970MOL0     C27954   3.696   9.000   7.094  1.1926  0.9327  0.4377
  970MOL0     O27955   3.634   8.592   7.122 -0.3757 -0.2012 -1.0474
  970MOL0     C27956   3.643   8.658   7.476  0.4766 -0.2004 -0.0579
  970MOL0     C27957   3.617   8.606   7.605  0.1100 -0.4203 -0.0268
  970MOL0     N27958   3.586   8.193   8.313 -0.6210  0.0158  0.7059
  970MOL0     N27959   3.682   8.231   8.403  0.5757  1.2929  0.9042
  970MOL0     C27960   4.042   8.267   9.393  0.2284  0.1778 -0.6129
  970MOL0     C27961   4.113   8.259   9.513 -0.2211  0.1864 -0.2538
  970MOL0     C27962   4.299   8.219   9.888  0.3296  0.5036  0.4796
  970MOL0     C27963   4.424   8.168   9.933  0.0767  0.2286 -0.7265
  970MOL0     C27964   4.440   8.114  10.063  0.6439 -0.8352 -0.1142
  970MOL0     C27965   4.347   8.128  10.165  0.4337 -0.0771 -0.8452
  970MOL0     O27966   4.392   8.100  10.294 -0.2571 -0.0202  0.0450
  970MOL0     C27967   4.278   8.068  10.379 -0.4125 -0.3257  0.1075
  970MOL0     C27968   4.324   8.020  10.517  0.0614  0.0330 -0.5026
  970MOL0     C27969   4.206   8.008  10.621  0.9883  0.3717  0.2194
  970MOL0     C27970   4.240   7.888  10.708 -0.4873 -0.4805 -0.3097
  970MOL0     C27971   4.134   7.859  10.793 -0.2436 -0.7943  0.4905
  970MOL0     C27972   4.030   7.838  10.859  0.2815 -0.1073  0.7788
  970MOL0     C27973   4.215   8.177  10.124 -0.4211  0.0801  0.9114
  970MOL0     C27974   4.195   8.214   9.990  0.0735 -0.7806 -0.3835
  970MOL0     H27975   3.946   8.485   9.699 -1.3642  1.4622 -0.0448
  970MOL0     H27976   3.831   8.514   9.477  1.0143  1.1660 -1.2063
  970MOL0     H27977   3.815   8.168   9.229 -1.7311  1.1685  1.3489
  970MOL0     H27978   3.944   8.238   9.138  0.4803  0.8230 -1.0503
  970MOL0     H27979   3.647   8.314   9.108  0.1466  1.3418  1.2221
  970MOL0     H27980   3.742   8.201   9.009  1.2104 -2.0513  3.2271
  970MOL0     H27981   3.904   8.379   8.945 -0.4095 -1.5632 -0.3586
  970MOL0     H27982   3.809   8.506   9.031  0.4241  2.4291 -4.4022
  970MOL0     H27983   3.612   8.469   8.908  0.0524 -3.5978  0.9338
  970MOL0     H27984   3.730   8.550   8.810 -1.6160  1.4590  0.7192
  970MOL0     H27985   3.621   8.368   8.689  0.0535  0.2516  0.8661
  970MOL0     H27986   3.651   8.256   8.811 -2.4842  2.1640  0.6422
  970MOL0     H27987   3.793   8.211   8.615 -0.2964 -0.4049  0.3549
  970MOL0     H27988   3.901   8.281   8.743 -2.3882  0.0133  2.7163
  970MOL0     H27989   3.882   8.500   8.643  1.9320 -1.5845  0.5490
  970MOL0     H27990   3.955   8.377   8.537 -0.1371  0.3217 -1.1036
  970MOL0     H27991   3.816   8.534   8.417  1.0544  1.4128  1.1261
  970MOL0     H27992   3.685   8.524   8.536  0.8048  1.0826 -0.0948
  970MOL0     H27993   3.598   8.509   8.259 -0.8450 -0.0687  1.1156
  970MOL0     H27994   3.348   8.324   8.164  1.0626 -1.8264  2.2208
  970MOL0     H27995   3.429   8.197   8.086 -3.3508  1.4076 -2.7495
  970MOL0     H27996   3.487   8.493   8.039 -0.1388  0.1240 -1.6797
  970MOL0     H27997   3.413   8.387   7.927 -1.2928  3.0495  1.9676
  970MOL0     H27998   3.705   8.345   8.025 -0.5216  0.3424 -0.2261
  970MOL0     H27999   3.617   8.238   7.926 -2.1862  0.9177 -0.4066
  970MOL0     H28000   3.763   8.391   7.798  0.3559  0.2564 -0.6906
  970MOL0     H28001   3.674   8.523   7.865  0.7455  0.0088  1.5886
  970MOL0     H28002   3.559   8.290   7.496  0.7893 -0.2562 -1.7167
  970MOL0     H28003   3.568   8.416   7.267 -2.0149 -1.7154  1.5631
  970MOL0     H28004   3.533   8.737   6.943  0.7760 -0.5317  1.4392
  970MOL0     H28005   3.557   8.867   6.765 -0.0125  0.2025  0.0239
  970MOL0     H28006   3.860   9.132   6.768 -1.6273 -0.5579  1.6428
  970MOL0     H28007   3.771   9.282   6.747  0.7625  0.8654 -1.3290
  970MOL0     H28008   3.855   9.265   6.543  1.8416 -1.7981 -1.7934
  970MOL0     H28009   3.714   9.177   6.505 -0.0264 -0.0491 -1.0184
  970MOL0     H28010   3.838   8.957   6.575 -0.0701 -0.1071  1.0746
  970MOL0     H28011   3.986   9.050   6.559 -0.8153 -1.1564  2.9363
  970MOL0     H28012   3.946   8.932   6.366  0.8962  1.0161  1.8224
  970MOL0     H28013   3.788   8.986   6.341 -0.0017  1.2131 -2.3695
  970MOL0     H28014   3.876   9.222   6.295  0.2695  1.3070  2.2946
  970MOL0     H28015   3.939   9.089   6.194 -1.5169  0.3648  0.5573
  970MOL0     H28016   4.141   9.091   6.374  1.0192 -0.4754 -1.1357
  970MOL0     H28017   4.077   9.253   6.405 -3.4171 -1.0608  2.0193
  970MOL0     H28018   4.178   9.162   6.138 -2.5346  0.3037 -1.5363
  970MOL0     H28019   4.092   9.324   6.162  2.0700  1.8880  0.4963
  970MOL0     H28020   4.326   9.250   6.319  0.1520 -2.9413 -3.3880
  970MOL0     H28021   4.244   9.409   6.295  2.5541  0.5105 -1.1325
  970MOL0     H28022   3.754   9.174   6.992 -0.2056 -0.0741  0.0263
  970MOL0     H28023   3.724   9.034   7.194 -2.1352  0.4368  1.6727
  970MOL0     H28024   3.651   8.764   7.457  2.5498 -0.9114 -4.2680
  970MOL0     H28025   3.623   8.670   7.692 -1.8562  0.6920 -0.6301
  970MOL0     H28026   4.073   8.203   9.311 -0.0960  1.7029 -1.9755
  970MOL0     H28027   4.195   8.188   9.507  0.9191  1.4616 -0.4112
  970MOL0     H28028   4.500   8.160   9.855 -0.1640 -0.0640 -0.9308
  970MOL0     H28029   4.538   8.068  10.076  2.1776  2.3843  0.9724
  970MOL0     H28030   4.211   7.996  10.332 -2.4304  2.1587 -1.0744
  970MOL0     H28031   4.218   8.155  10.407 -0.5856  0.7354 -3.1922
  970MOL0     H28032   4.359   7.916  10.507 -0.0100 -0.0512  0.0996
  970MOL0     H28033   4.407   8.072  10.566 -1.3541 -1.3131  3.7560
  970MOL0     H28034   4.110   7.988  10.572  0.2830 -0.4382  1.8611
  970MOL0     H28035   4.181   8.099  10.677  0.4629  1.8310 -2.2004
  970MOL0     H28036   4.258   7.795  10.655  2.9845  0.2067 -0.5723
  970MOL0     H28037   4.330   7.903  10.768  1.0983 -0.5802 -2.5718
  970MOL0     H28038   3.938   7.821  10.911 -0.3469 -0.1208 -0.2951
  970MOL0     H28039   4.124   8.183  10.183  0.7676  1.0236  2.7643
  970MOL0     H28040   4.098   8.261   9.973  1.3929  2.0092 -0.6972
  971MOL0     O28041   5.385   9.671   9.177 -0.9544  0.7527  0.0186
  971MOL0     C28042   5.444   9.589   9.242 -0.1045  0.4039 -0.5974
  971MOL0     O28043   5.408   9.551   9.370 -0.4463 -0.3396  0.5324
  971MOL0     C28044   5.302   9.616   9.426 -0.7948 -0.4250 -0.8875
  971MOL0     C28045   5.168   9.593   9.385  0.3494 -0.9449  0.4215
  971MOL0     C28046   5.063   9.682   9.426  0.4429  0.1994 -0.4239
  971MOL0     C28047   5.091   9.776   9.524 -0.8298 -0.3347 -0.1049
  971MOL0     O28048   4.989   9.853   9.571  0.0524  0.1350  0.5085
  971MOL0     C28049   5.019  10.000   9.594 -0.3755 -0.1137  0.4178
  971MOL0     C28050   4.913  10.102   9.600 -0.8078 -0.3075 -0.0341
  971MOL0     C28051   4.824  10.094   9.723 -0.1507 -0.7709  0.5507
  971MOL0     C28052   4.759  10.235   9.745  0.3661  1.2883 -0.7495
  971MOL0     C28053   4.647  10.212   9.844 -0.0209 -0.3980 -0.3574
  971MOL0     C28054   4.594  10.342   9.901 -0.0105  0.6970  0.2750
  971MOL0     C28055   4.465  10.321   9.977 -0.2225  1.4086 -0.0276
  971MOL0     C28056   4.466  10.236  10.102 -0.6301 -0.0297 -0.0342
  971MOL0     N28057   4.475  10.319  10.223  0.0964 -0.2148  0.7496
  971MOL0     C28058   4.360  10.380  10.282 -0.6051  0.5657 -0.8889
  971MOL0     C28059   4.410  10.424  10.399  1.2531  0.2005  0.0766
  971MOL0     C28060   4.331  10.509  10.496 -0.9200  0.3480 -0.9140
  971MOL0     C28061   4.218  10.412  10.564  0.4800 -0.8779 -0.4861
  971MOL0     C28062   4.149  10.482  10.685  0.3460 -0.4792 -0.3844
  971MOL0     C28063   4.071  10.377  10.772  0.5192 -0.1946  0.1037
  971MOL0     O28064   4.037  10.440  10.899  0.3999 -0.6488 -0.0770
  971MOL0     C28065   3.903  10.458  10.934  0.7309 -0.3242 -0.3481
  971MOL0     C28066   3.884  10.558  11.036  0.6146 -0.6731  0.5043
  971MOL0     C28067   3.756  10.585  11.076  1.0018  0.6180 -0.1793
  971MOL0     C28068   3.642  10.512  11.030  0.5343  0.1800  0.2874
  971MOL0     C28069   3.508  10.528  11.106 -0.4521 -0.3715 -0.4011
  971MOL0     O28070   3.505  10.631  11.202 -0.3305 -0.3937  0.4623
  971MOL0     C28071   3.399  10.660  11.281  1.3674  0.6358  0.0221
  971MOL0     C28072   3.273  10.594  11.292  0.4505 -0.5528  0.6125
  971MOL0     C28073   3.189  10.617  11.406 -0.0952  0.3236  0.0108
  971MOL0     C28074   3.213  10.724  11.494 -0.1258 -0.2372 -0.0554
  971MOL0     O28075   3.130  10.774  11.594 -0.2649  0.8617 -0.4435
  971MOL0     C28076   3.004  10.703  11.617 -0.7643  0.3031 -0.5371
  971MOL0     C28077   2.925  10.772  11.727 -0.2449 -0.9735  0.5912
  971MOL0     C28078   2.892  10.915  11.682 -0.1665 -0.4983 -0.7810
  971MOL0     C28079   2.823  10.992  11.794  0.6030 -0.9485 -0.6094
  971MOL0     C28080   2.919  11.028  11.907  0.1821  1.4651 -0.2106
  971MOL0     C28081   3.037  11.119  11.874 -0.0189 -1.0802 -0.7754
  971MOL0     C28082   3.080  11.206  11.998  0.0340 -0.5833 -0.0961
  971MOL0     C28083   3.200  11.295  11.955 -0.7169 -0.1180  0.4225
  971MOL0    Cl28084   3.255  11.376  12.100  0.3385  0.0823 -0.0768
  971MOL0     C28085   3.326  10.796  11.468 -0.4259 -0.4059 -0.0966
  971MOL0     C28086   3.418  10.761  11.368  1.3120 -1.1320 -0.6956
  971MOL0     O28087   3.416  10.454  11.080  0.1137 -0.7856 -0.0473
  971MOL0     C28088   3.666  10.422  10.935  0.1968  0.0750 -0.0152
  971MOL0     C28089   3.794  10.393  10.886 -0.0549 -0.5369 -0.2520
  971MOL0     N28090   4.543  10.382  10.414  0.1055  0.0459  0.1013
  971MOL0     N28091   4.577  10.322  10.309 -0.6220  0.3291 -0.2969
  971MOL0     C28092   5.215   9.774   9.593 -0.4837  0.0967  1.0343
  971MOL0     C28093   5.315   9.694   9.542 -0.1484 -0.6995 -0.4934
  971MOL0     C28094   5.576   9.542   9.184  0.0464  0.2588  0.0146
  971MOL0     C28095   5.689   9.518   9.266 -0.4852  0.6187 -0.0887
  971MOL0     C28096   5.813   9.471   9.209  0.3542 -0.1541  0.0343
  971MOL0     C28097   5.818   9.447   9.065 -0.3739 -0.9509  0.1410
  971MOL0     O28098   5.937   9.401   9.024 -0.0622  0.1032 -0.0327
  971MOL0     C28099   5.961   9.376   8.886 -0.6076 -1.1720  0.8682
  971MOL0     C28100   6.094   9.302   8.861 -0.2779  0.7470  0.4346
  971MOL0     C28101   6.193   9.409   8.878  0.4656  0.1846 -0.6404
  971MOL0     C28102   6.318   9.378   8.951 -0.0757  0.0741  0.2074
  971MOL0     C28103   6.373   9.498   9.004 -0.1112 -0.2235 -0.2867
  971MOL0     C28104   6.446   9.570   9.064  0.0699 -0.2244 -0.2314
  971MOL0     C28105   5.708   9.466   8.990  0.1932 -0.3253  0.5351
  971MOL0     C28106   5.589   9.515   9.046  0.5343 -0.6720  0.7561
  971MOL0     H28107   5.150   9.511   9.316 -0.3242 -0.6197  0.2051
  971MOL0     H28108   4.965   9.663   9.384  0.8622  0.5486 -1.6223
  971MOL0     H28109   5.080  10.028   9.507 -0.5281 -0.2907  0.2497
  971MOL0     H28110   5.086  10.003   9.679  2.0481 -1.7250 -1.3049
  971MOL0     H28111   4.840  10.081   9.522 -1.8231  0.5863  0.6432
  971MOL0     H28112   4.961  10.200   9.594  1.4760 -1.4661 -2.8222
  971MOL0     H28113   4.893  10.070   9.804  2.5923 -1.8620 -1.9312
  971MOL0     H28114   4.743  10.020   9.718 -1.2990  0.3639  1.4524
  971MOL0     H28115   4.827  10.307   9.792 -0.2563  1.7180 -0.4971
  971MOL0     H28116   4.718  10.278   9.653  0.4799  1.9042 -0.5213
  971MOL0     H28117   4.686  10.148   9.924  2.1684  0.1421 -0.9288
  971MOL0     H28118   4.570  10.155   9.790 -0.2200 -2.2696  1.7605
  971MOL0     H28119   4.564  10.414   9.824  0.6326 -0.7478 -1.3656
  971MOL0     H28120   4.672  10.379   9.968  0.9301 -3.8193  2.0133
  971MOL0     H28121   4.418  10.420   9.988 -2.0118  0.7574 -1.3309
  971MOL0     H28122   4.403  10.260   9.911  0.3119 -1.5887  2.0768
  971MOL0     H28123   4.555  10.173  10.098  0.3023  1.2863 -3.5043
  971MOL0     H28124   4.378  10.172  10.115 -0.6613 -0.0201 -0.1979
  971MOL0     H28125   4.268  10.380  10.225 -0.6626  1.9349 -0.8432
  971MOL0     H28126   4.283  10.592  10.444 -1.7364 -0.6735 -1.8300
  971MOL0     H28127   4.392  10.559  10.571 -0.7426 -0.6508 -0.3727
  971MOL0     H28128   4.251  10.315  10.601  0.0801 -1.3863 -1.4506
  971MOL0     H28129   4.146  10.393  10.484  0.9859  0.5848 -1.3367
  971MOL0     H28130   4.225  10.518  10.756  1.7485 -3.3537 -0.2671
  971MOL0     H28131   4.089  10.569  10.657 -1.8451 -2.4285 -2.1285
  971MOL0     H28132   4.135  10.289  10.790  1.7538  0.6627  0.0590
  971MOL0     H28133   3.982  10.338  10.722  0.0191 -0.5975  1.2748
  971MOL0     H28134   3.970  10.611  11.076  2.3707 -2.7418 -0.3453
  971MOL0     H28135   3.748  10.654  11.160 -0.4969  0.4137 -0.1268
  971MOL0     H28136   3.242  10.512  11.227 -0.6917  1.0685 -0.9713
  971MOL0     H28137   3.109  10.545  11.417 -1.0348  1.6457  2.9530
  971MOL0     H28138   3.025  10.598  11.639  0.5498  0.4779 -0.8807
  971MOL0     H28139   2.931  10.713  11.536 -2.8524 -0.1316  1.1973
  971MOL0     H28140   2.992  10.778  11.814  0.7680  1.0301 -0.2710
  971MOL0     H28141   2.834  10.715  11.750  0.3139 -0.8167  3.6574
  971MOL0     H28142   2.820  10.916  11.599 -0.4458  3.4254 -0.6602
  971MOL0     H28143   2.982  10.961  11.638  0.3645 -1.8034 -1.1167
  971MOL0     H28144   2.785  11.080  11.743 -0.4775 -0.8280  0.3459
  971MOL0     H28145   2.741  10.930  11.831  0.7898  0.4272  2.4657
  971MOL0     H28146   2.951  10.936  11.955 -0.3454  1.5762  0.3533
  971MOL0     H28147   2.856  11.078  11.981  0.8356  1.1560  0.5679
  971MOL0     H28148   3.031  11.189  11.789 -0.5372  1.1734  1.0098
  971MOL0     H28149   3.119  11.060  11.833  0.1137 -0.5063 -1.3729
  971MOL0     H28150   2.993  11.271  12.015  0.9998  0.8848 -0.5894
  971MOL0     H28151   3.083  11.146  12.089 -3.5480 -1.2668 -0.2588
  971MOL0     H28152   3.174  11.367  11.876  0.0136 -3.0725 -2.7551
  971MOL0     H28153   3.279  11.233  11.913 -2.8309 -2.9393  0.3161
  971MOL0     H28154   3.326  10.888  11.526 -0.5170 -1.9537  2.5470
  971MOL0     H28155   3.514  10.811  11.371 -0.1708  1.8742  0.2893
  971MOL0     H28156   3.582  10.357  10.911 -0.6710  1.5996 -1.2610
  971MOL0     H28157   3.785  10.302  10.827  0.7861 -0.4079 -0.5884
  971MOL0     H28158   5.221   9.846   9.674  0.2349  0.9642  0.2306
  971MOL0     H28159   5.415   9.712   9.582  0.2842 -1.5072 -1.2047
  971MOL0     H28160   5.690   9.551   9.369  4.0239 -2.5169  1.1716
  971MOL0     H28161   5.908   9.465   9.261  1.6479 -2.8678 -2.3674
  971MOL0     H28162   5.948   9.469   8.830  1.8172 -0.2083  1.7685
  971MOL0     H28163   5.883   9.310   8.848 -2.2897 -0.8951  3.5193
  971MOL0     H28164   6.099   9.220   8.934  0.3719 -1.1645 -1.6706
  971MOL0     H28165   6.096   9.258   8.761  0.9660 -1.6057  1.4168
  971MOL0     H28166   6.146   9.494   8.928  3.0641  0.3999  1.6492
  971MOL0     H28167   6.225   9.441   8.778 -0.0194 -0.6390 -1.0749
  971MOL0     H28168   6.300   9.306   9.032 -1.4995  0.7934  0.5703
  971MOL0     H28169   6.391   9.330   8.885  1.0011  0.1675  1.2955
  971MOL0     H28170   6.520   9.611   9.130  0.5932  0.4250 -1.2130
  971MOL0     H28171   5.707   9.438   8.885  1.2083 -2.1497  0.9621
  971MOL0     H28172   5.506   9.524   8.977 -0.7656 -1.9535  2.0995
  972MOL0     O28173   2.782   9.950   8.502  0.9452  0.5137  0.1203
  972MOL0     C28174   2.731   9.977   8.394  0.2153 -0.7248 -0.3687
  972MOL0     O28175   2.678  10.101   8.361 -0.0531  0.6495 -0.7776
  972MOL0     C28176   2.725  10.206   8.424  0.6317  0.1491 -0.1064
  972MOL0     C28177   2.653  10.246   8.542 -0.1238 -1.1217  0.2402
  972MOL0     C28178   2.705  10.362   8.609  0.1739  0.1379 -0.5171
  972MOL0     C28179   2.823  10.426   8.582 -0.3367 -1.2107 -1.3021
  972MOL0     O28180   2.860  10.536   8.664 -0.3933 -0.2208 -0.4788
  972MOL0     C28181   2.968  10.607   8.616 -0.9598  0.4908  0.1257
  972MOL0     C28182   2.945  10.703   8.507  0.1037  0.0106  0.2789
  972MOL0     C28183   2.824  10.790   8.542  0.8924  0.0562 -0.5245
  972MOL0     C28184   2.825  10.920   8.459 -0.1523  0.0915  0.4584
  972MOL0     C28185   2.760  11.038   8.533 -0.0069  0.2642 -1.3825
  972MOL0     C28186   2.751  11.165   8.450 -0.4401 -0.0761 -0.3366
  972MOL0     C28187   2.666  11.279   8.520 -0.0229  0.0676 -0.9517
  972MOL0     C28188   2.729  11.296   8.658  0.6199 -0.1156  0.0788
  972MOL0     N28189   2.686  11.425   8.720  0.3864 -0.2095 -0.1947
  972MOL0     C28190   2.556  11.461   8.762 -0.6652  0.1676  0.3383
  972MOL0     C28191   2.564  11.596   8.782 -0.0630 -0.1096  0.3084
  972MOL0     C28192   2.449  11.693   8.788 -0.0763  0.3938  0.1656
  972MOL0     C28193   2.376  11.685   8.921 -0.2476 -0.3380 -0.0330
  972MOL0     C28194   2.247  11.755   8.926  0.2044  0.0737  0.7606
  972MOL0     C28195   2.243  11.888   8.854 -0.1606 -0.0761 -0.4847
  972MOL0     O28196   2.125  11.946   8.890  0.5555 -0.5149  0.8993
  972MOL0     C28197   2.104  12.036   8.993  0.2517  0.1826  0.2489
  972MOL0     C28198   2.199  12.125   9.047 -0.9666 -0.1791  0.0964
  972MOL0     C28199   2.164  12.221   9.146 -0.8181  0.1344  0.1258
  972MOL0     C28200   2.035  12.227   9.200 -0.7659  0.5442 -0.5422
  972MOL0     C28201   1.999  12.314   9.316 -0.1827 -0.3396  0.0236
  972MOL0     O28202   1.872  12.291   9.361 -0.2958  0.2361  0.3116
  972MOL0     C28203   1.825  12.316   9.489  0.4854  0.1337 -0.1848
  972MOL0     C28204   1.681  12.303   9.494  0.2408  0.6528 -0.4612
  972MOL0     C28205   1.615  12.300   9.621 -0.2590  0.1161  0.3597
  972MOL0     C28206   1.689  12.318   9.740 -0.1816  0.5434  0.0230
  972MOL0     O28207   1.634  12.326   9.865 -0.6553  0.3128 -0.5322
  972MOL0     C28208   1.497  12.307   9.884  0.4718 -0.3275  0.5519
  972MOL0     C28209   1.455  12.330  10.036  0.1939  0.9258  0.3410
  972MOL0     C28210   1.474  12.476  10.086 -0.1061  0.0959 -0.2759
  972MOL0     C28211   1.620  12.519  10.097  0.2545 -0.7284  0.9613
  972MOL0     C28212   1.636  12.661  10.148 -0.7680  1.2356  0.9375
  972MOL0     C28213   1.613  12.663  10.298  0.5992  0.3744 -0.2228
  972MOL0     C28214   1.651  12.787  10.372  0.4240 -0.1038 -0.1797
  972MOL0     C28215   1.604  12.794  10.516 -0.4769  0.6722 -0.2753
  972MOL0    Cl28216   1.649  12.641  10.603  0.3231  0.3214  0.2736
  972MOL0     C28217   1.829  12.341   9.737 -0.2481  0.6233 -0.0913
  972MOL0     C28218   1.896  12.338   9.605 -0.2519  0.1844 -0.3496
  972MOL0     O28219   2.087  12.373   9.374  0.2211 -0.3766 -0.1374
  972MOL0     C28220   1.943  12.144   9.140 -0.3375  0.4172 -0.4856
  972MOL0     C28221   1.980  12.048   9.044 -0.7030  0.3545 -0.5487
  972MOL0     N28222   2.691  11.643   8.763  0.2956 -0.0387 -0.7857
  972MOL0     N28223   2.757  11.539   8.717  0.1163  0.1347 -0.3640
  972MOL0     C28224   2.892  10.378   8.470  0.1297  0.4782 -0.1504
  972MOL0     C28225   2.849  10.266   8.397  0.2488 -0.3121  0.0351
  972MOL0     C28226   2.717   9.868   8.291 -0.1971  0.5039 -0.9319
  972MOL0     C28227   2.619   9.874   8.186  1.0381  0.1709  1.1397
  972MOL0     C28228   2.603   9.760   8.097 -0.2281 -0.1176 -0.0158
  972MOL0     C28229   2.700   9.649   8.077  1.1673  0.0788 -0.3073
  972MOL0     O28230   2.680   9.560   7.977 -0.0091  0.2617  0.4294
  972MOL0     C28231   2.735   9.433   7.981 -0.2604 -0.0141  0.1227
  972MOL0     C28232   2.882   9.426   7.924  0.6759  0.4787 -0.2913
  972MOL0     C28233   2.946   9.291   7.935  1.5188  0.2555 -0.4018
  972MOL0     C28234   3.085   9.284   7.878  0.7504 -0.2201 -0.3349
  972MOL0     C28235   3.088   9.272   7.733 -0.8500 -0.4519  1.2897
  972MOL0     C28236   3.105   9.275   7.610  0.4252  0.1872 -0.2861
  972MOL0     C28237   2.800   9.651   8.180 -0.0881  0.0496 -0.6507
  972MOL0     C28238   2.807   9.756   8.278 -0.2242 -0.9730 -0.1026
  972MOL0     H28239   2.556  10.208   8.573 -2.2658  2.5366 -1.2632
  972MOL0     H28240   2.656  10.386   8.703  0.5363  0.0057 -0.2925
  972MOL0     H28241   3.057  10.550   8.589 -0.8361  0.6256  0.2450
  972MOL0     H28242   2.991  10.664   8.707  1.8469  0.3886 -0.4351
  972MOL0     H28243   2.927  10.650   8.413 -0.3389 -0.2563  0.5116
  972MOL0     H28244   3.039  10.754   8.483  1.4175 -3.2163 -2.2901
  972MOL0     H28245   2.815  10.807   8.650 -2.8533  0.5601 -0.7640
  972MOL0     H28246   2.736  10.731   8.516  1.6277 -1.1920 -0.2507
  972MOL0     H28247   2.929  10.945   8.439 -0.0929  0.0482  0.7176
  972MOL0     H28248   2.769  10.905   8.366 -0.5593 -0.5832  0.7987
  972MOL0     H28249   2.799  11.044   8.635 -0.4269 -1.2327 -1.1059
  972MOL0     H28250   2.654  11.022   8.555  0.0587  1.6252  0.0570
  972MOL0     H28251   2.693  11.135   8.362  1.0711  0.8276 -1.7000
  972MOL0     H28252   2.854  11.194   8.424 -0.3715  1.0093  1.0284
  972MOL0     H28253   2.676  11.366   8.454  0.9738  0.3593 -0.4444
  972MOL0     H28254   2.559  11.259   8.532 -0.0537  1.2177  1.3136
  972MOL0     H28255   2.838  11.287   8.655  0.6938 -0.1595  1.9333
  972MOL0     H28256   2.698  11.213   8.722 -0.0907  0.1291  0.0607
  972MOL0     H28257   2.471  11.393   8.763  1.2555 -2.5183 -2.0082
  972MOL0     H28258   2.371  11.687   8.712 -0.0456  0.0809  0.1580
  972MOL0     H28259   2.485  11.794   8.767 -4.2974  2.2023  0.5967
  972MOL0     H28260   2.439  11.731   8.997 -3.8988  2.7634  1.4765
  972MOL0     H28261   2.361  11.578   8.937 -0.5163 -0.3815 -0.5306
  972MOL0     H28262   2.178  11.694   8.868 -1.8601  2.8526  0.0602
  972MOL0     H28263   2.210  11.766   9.028  0.9635 -4.2457  1.6930
  972MOL0     H28264   2.236  11.876   8.745 -4.7771 -0.5881 -0.3414
  972MOL0     H28265   2.326  11.955   8.877 -0.9141  0.1314  1.9323
  972MOL0     H28266   2.300  12.130   9.006 -0.8897 -0.9786  0.1734
  972MOL0     H28267   2.244  12.274   9.197 -3.5376 -0.0018  5.2108
  972MOL0     H28268   1.612  12.293   9.412 -0.8191  1.7078  0.2786
  972MOL0     H28269   1.507  12.292   9.620 -0.3425  1.1171 -0.1724
  972MOL0     H28270   1.478  12.208   9.840 -1.1395 -0.0589  0.6154
  972MOL0     H28271   1.443  12.384   9.828  1.3305  0.2271  0.4656
  972MOL0     H28272   1.525  12.269  10.095  1.0982  0.1861 -1.4353
  972MOL0     H28273   1.355  12.296  10.065  0.9818 -0.5152  1.5844
  972MOL0     H28274   1.429  12.482  10.185 -0.1800 -0.3473 -0.2846
  972MOL0     H28275   1.421  12.538  10.012  1.4210 -1.0501 -2.4449
  972MOL0     H28276   1.678  12.452  10.161  0.3438  0.4679  2.2052
  972MOL0     H28277   1.665  12.511   9.998  2.6909 -1.2224  2.0399
  972MOL0     H28278   1.567  12.732  10.101 -0.1132  2.2594  1.4954
  972MOL0     H28279   1.738  12.700  10.145 -0.7968  1.2574 -0.2299
  972MOL0     H28280   1.667  12.580  10.344  2.5477  0.8492 -1.5319
  972MOL0     H28281   1.507  12.642  10.317  1.0790 -1.8275  0.2636
  972MOL0     H28282   1.760  12.798  10.367  0.6022 -0.9981  1.3251
  972MOL0     H28283   1.612  12.873  10.315  1.0612  0.5445  0.3450
  972MOL0     H28284   1.498  12.819  10.511 -0.0194  2.6630 -4.0287
  972MOL0     H28285   1.648  12.880  10.567 -0.4426  0.8403 -0.5832
  972MOL0     H28286   1.883  12.350   9.830  0.0193  4.1446 -0.4362
  972MOL0     H28287   2.005  12.338   9.595 -0.1690 -0.1976  0.5264
  972MOL0     H28288   1.838  12.144   9.165 -0.3570 -0.1212 -0.5654
  972MOL0     H28289   1.902  11.985   9.002  2.1957 -2.9824 -1.3777
  972MOL0     H28290   2.988  10.418   8.440  0.5262 -2.2487 -3.0230
  972MOL0     H28291   2.888  10.217   8.308 -0.3196 -2.4640  0.9046
  972MOL0     H28292   2.551   9.959   8.190  0.0449 -0.4470 -1.1387
  972MOL0     H28293   2.529   9.756   8.018 -1.0073  1.1468  0.6119
  972MOL0     H28294   2.671   9.376   7.914 -0.9201  1.5839 -0.6697
  972MOL0     H28295   2.736   9.390   8.082  1.7314 -0.5608 -0.0920
  972MOL0     H28296   2.886   9.457   7.819  2.5593  1.6573  0.0757
  972MOL0     H28297   2.936   9.495   7.990  1.1225 -1.0380  0.9972
  972MOL0     H28298   2.887   9.217   7.881  2.0611 -0.6682  0.2517
  972MOL0     H28299   2.949   9.271   8.042  1.2645 -2.3619 -0.8262
  972MOL0     H28300   3.127   9.380   7.907 -1.0537  0.3885  0.4237
  972MOL0     H28301   3.143   9.206   7.928 -1.1065 -1.4117  0.0493
  972MOL0     H28302   3.106   9.279   7.503 -0.8804 -0.4345 -0.3407
  972MOL0     H28303   2.871   9.569   8.187  0.6718  0.8178  1.8541
  972MOL0     H28304   2.892   9.747   8.345  3.4915  4.3425 -3.3416
  973MOL0     O28305   2.911   1.736   2.900  0.3806 -1.0031 -0.2577
  973MOL0     C28306   2.908   1.848   2.965 -0.9729  1.3436  0.4282
  973MOL0     O28307   2.858   1.868   3.083 -0.7677 -0.1758  0.0606
  973MOL0     C28308   2.793   1.766   3.135  0.3364 -0.1823 -0.1345
  973MOL0     C28309   2.858   1.679   3.212 -0.7049 -0.6155  0.4199
  973MOL0     C28310   2.801   1.579   3.283  0.2457  0.2681 -0.1350
  973MOL0     C28311   2.663   1.564   3.274  1.1365  0.3270 -0.2922
  973MOL0     O28312   2.614   1.457   3.348 -0.0330  0.3001 -0.1839
  973MOL0     C28313   2.499   1.385   3.295  0.3723  0.9155  0.0223
  973MOL0     C28314   2.454   1.274   3.383 -0.3061  0.0602  0.9062
  973MOL0     C28315   2.306   1.289   3.413 -0.3827 -0.5774  0.2766
  973MOL0     C28316   2.254   1.179   3.504 -0.3192 -0.1053  0.4623
  973MOL0     C28317   2.115   1.207   3.565  0.9862 -0.7038  0.3919
  973MOL0     C28318   2.015   1.221   3.451  0.2148  0.2875 -0.7414
  973MOL0     C28319   1.857   1.230   3.486 -0.1743 -0.3241  0.5041
  973MOL0     C28320   1.788   1.100   3.545 -0.4337 -1.5091  0.3422
  973MOL0     N28321   1.679   1.143   3.640  0.0842 -0.3961  0.2244
  973MOL0     C28322   1.574   1.212   3.595 -0.0342 -0.3702  0.6176
  973MOL0     C28323   1.533   1.269   3.714  0.4762  0.1664 -0.1067
  973MOL0     C28324   1.419   1.358   3.726 -0.8560 -0.4563  1.1836
  973MOL0     C28325   1.318   1.297   3.820  0.5797 -0.0674 -0.2223
  973MOL0     C28326   1.233   1.179   3.761 -0.3829  0.1413  1.0757
  973MOL0     C28327   1.106   1.163   3.838 -0.2553 -0.9814  0.0481
  973MOL0     O28328   1.026   1.048   3.800 -0.4199 -0.3792  0.5858
  973MOL0     C28329   0.913   1.012   3.863 -0.7932 -0.8061 -0.6249
  973MOL0     C28330   0.873   0.881   3.850  0.0869  0.4069 -0.1213
  973MOL0     C28331   0.760   0.839   3.912  1.1863 -0.8713 -0.5470
  973MOL0     C28332   0.686   0.923   4.005 -0.4971  0.7096 -0.1489
  973MOL0     C28333   0.564   0.873   4.071  0.5087  0.1485 -0.0768
  973MOL0     O28334   0.510   0.969   4.158 -0.2937  0.7108 -0.4211
  973MOL0     C28335   0.379   0.972   4.204 -0.7846 -0.3450 -0.4665
  973MOL0     C28336   0.280   0.872   4.192  0.6629 -0.3325 -0.4521
  973MOL0     C28337   0.147   0.873   4.245  0.2974  0.2158 -0.5572
  973MOL0     C28338   0.117   0.981   4.333  0.5012  1.7003 -0.3188
  973MOL0     O28339  -0.002   0.987   4.399 -0.2343 -0.1719 -0.0311
  973MOL0     C28340  -0.098   1.063   4.317  0.4439  0.5344  0.1026
  973MOL0     C28341  -0.236   1.037   4.378 -0.0803  0.1725 -0.1258
  973MOL0     C28342  -0.351   1.105   4.295  0.7496  0.9866  0.1797
  973MOL0     C28343  -0.467   1.133   4.385  0.4335  0.4874  1.3519
  973MOL0     C28344  -0.598   1.141   4.298 -0.7801  0.4490  0.3762
  973MOL0     C28345  -0.709   1.199   4.375 -0.2424  0.6399  0.8410
  973MOL0     C28346  -0.826   1.217   4.280 -0.7645  0.6153  0.2419
  973MOL0     C28347  -0.948   1.239   4.358  0.4119 -0.5061  0.3610
  973MOL0    Cl28348  -1.007   1.079   4.395  0.0244 -0.2643 -0.2462
  973MOL0     C28349   0.210   1.081   4.341 -0.3983 -0.1600 -0.7430
  973MOL0     C28350   0.334   1.076   4.282  0.1565 -0.7455  0.4763
  973MOL0     O28351   0.525   0.760   4.048  0.2369 -0.2117 -0.7229
  973MOL0     C28352   0.748   1.040   4.042  0.3027  0.8165 -0.4481
  973MOL0     C28353   0.855   1.081   3.966 -0.2698  0.1535 -0.8950
  973MOL0     N28354   1.604   1.220   3.821 -0.7014 -0.1587  0.2908
  973MOL0     N28355   1.703   1.156   3.775 -0.9059 -0.7895 -0.2322
  973MOL0     C28356   2.589   1.652   3.188  0.9098  0.7546  0.2237
  973MOL0     C28357   2.647   1.754   3.116  0.2610  0.3458  0.2194
  973MOL0     C28358   2.965   1.958   2.883  0.1865  0.5453  0.3294
  973MOL0     C28359   2.962   1.955   2.748 -0.0995 -0.9006 -0.3475
  973MOL0     C28360   3.023   2.063   2.684 -0.5289  0.5247  0.1587
  973MOL0     C28361   3.074   2.167   2.754 -0.4109  0.1101  0.1682
  973MOL0     O28362   3.133   2.266   2.680 -0.6082 -1.0622  0.0854
  973MOL0     C28363   3.200   2.376   2.744  0.6857 -0.0372  0.5507
  973MOL0     C28364   3.261   2.469   2.651 -0.1448 -0.1601  0.8526
  973MOL0     C28365   3.335   2.590   2.712  0.6415  0.5742 -0.7018
  973MOL0     C28366   3.379   2.702   2.610 -0.1199 -0.1753  0.9042
  973MOL0     C28367   3.278   2.734   2.515  0.0179  0.3601 -0.0136
  973MOL0     C28368   3.179   2.756   2.445  0.3657 -0.2196  1.5360
  973MOL0     C28369   3.075   2.167   2.890  0.4457 -0.0372 -0.0239
  973MOL0     C28370   3.017   2.059   2.958  0.2333  0.1814 -0.0297
  973MOL0     H28371   2.965   1.697   3.215 -1.0296  1.8292 -0.5739
  973MOL0     H28372   2.855   1.511   3.348 -0.5324  1.8111  2.2665
  973MOL0     H28373   2.531   1.340   3.201 -0.5112 -0.2985  0.2771
  973MOL0     H28374   2.415   1.445   3.258  0.5601  0.1699 -1.6914
  973MOL0     H28375   2.502   1.291   3.480  0.5639 -0.7197  0.6239
  973MOL0     H28376   2.479   1.173   3.349  0.0884  0.8332 -1.2648
  973MOL0     H28377   2.245   1.286   3.322 -2.3093 -0.2508  1.5021
  973MOL0     H28378   2.293   1.388   3.459  2.5504  0.3065 -0.5822
  973MOL0     H28379   2.247   1.084   3.451 -0.2327 -1.4428  2.7561
  973MOL0     H28380   2.319   1.169   3.591 -0.8814  1.6665  1.1180
  973MOL0     H28381   2.120   1.291   3.634 -1.8883  0.1552 -0.3324
  973MOL0     H28382   2.077   1.124   3.626  0.8287 -2.2558 -1.6993
  973MOL0     H28383   2.025   1.145   3.373  2.2993 -2.0255  1.5834
  973MOL0     H28384   2.046   1.311   3.397 -1.8648  1.0271 -0.7606
  973MOL0     H28385   1.851   1.306   3.565  1.1171  1.8422 -1.3702
  973MOL0     H28386   1.797   1.265   3.402 -1.2217 -2.2707  0.3907
  973MOL0     H28387   1.860   1.048   3.609 -1.1731 -0.5339  2.0308
  973MOL0     H28388   1.752   1.042   3.460 -1.1892  2.0829 -1.9986
  973MOL0     H28389   1.544   1.226   3.492  3.6535 -1.0936 -0.6684
  973MOL0     H28390   1.373   1.377   3.628 -1.2989 -0.5218  1.3769
  973MOL0     H28391   1.469   1.454   3.745 -1.6786  0.3928 -0.6079
  973MOL0     H28392   1.248   1.376   3.847 -1.1626 -1.1516 -1.3797
  973MOL0     H28393   1.363   1.266   3.915  0.5622  0.5372 -0.0156
  973MOL0     H28394   1.220   1.190   3.653  2.8695  1.4387  0.7080
  973MOL0     H28395   1.283   1.082   3.761 -0.0786  0.2317 -1.4060
  973MOL0     H28396   1.046   1.254   3.829  0.3048 -0.5605  0.5308
  973MOL0     H28397   1.127   1.135   3.942 -1.9471 -1.0812  0.3924
  973MOL0     H28398   0.925   0.813   3.783  0.1667 -1.0406  1.3716
  973MOL0     H28399   0.719   0.740   3.894  0.9246 -0.5503 -1.7886
  973MOL0     H28400   0.314   0.787   4.134  2.1948 -1.1425  1.4980
  973MOL0     H28401   0.077   0.793   4.222 -0.2856  0.7603 -0.7250
  973MOL0     H28402  -0.109   1.014   4.220  0.8358  1.6143 -0.4988
  973MOL0     H28403  -0.081   1.170   4.300  0.7882  1.0537  3.1248
  973MOL0     H28404  -0.240   1.100   4.468 -0.3153 -0.4288  0.2919
  973MOL0     H28405  -0.256   0.933   4.402 -1.2377  0.1457 -1.1175
  973MOL0     H28406  -0.373   1.035   4.214  0.9521 -0.3756  1.2688
  973MOL0     H28407  -0.317   1.198   4.249  3.7465 -0.2020 -0.2355
  973MOL0     H28408  -0.478   1.048   4.454 -2.0581 -0.4849 -0.1122
  973MOL0     H28409  -0.450   1.223   4.445  2.1013 -1.7716  4.5687
  973MOL0     H28410  -0.614   1.048   4.241 -1.4806 -0.0877  1.4263
  973MOL0     H28411  -0.579   1.213   4.218 -0.2225 -1.0469 -0.9023
  973MOL0     H28412  -0.684   1.301   4.404  2.1611  0.2715  0.2808
  973MOL0     H28413  -0.742   1.143   4.463  1.1101  0.7411  1.4385
  973MOL0     H28414  -0.803   1.309   4.225  2.4560  1.3732  2.5503
  973MOL0     H28415  -0.840   1.142   4.202 -1.6524 -2.3945  3.0933
  973MOL0     H28416  -1.024   1.293   4.301  0.8426 -1.4562 -1.1944
  973MOL0     H28417  -0.927   1.304   4.443  3.0505 -0.2512 -0.4014
  973MOL0     H28418   0.183   1.173   4.392  3.1240  0.0328  1.0205
  973MOL0     H28419   0.398   1.161   4.305  1.6747 -0.9882 -2.3933
  973MOL0     H28420   0.689   1.102   4.108 -1.3848 -1.2135  0.0718
  973MOL0     H28421   0.893   1.182   3.981  2.1677 -0.6051 -1.4720
  973MOL0     H28422   2.483   1.628   3.181  1.4334 -1.5520 -0.7982
  973MOL0     H28423   2.596   1.827   3.054  1.8712 -0.2440 -1.9402
  973MOL0     H28424   2.914   1.873   2.696  2.2962 -1.9644 -1.0281
  973MOL0     H28425   3.023   2.081   2.577 -0.9728 -0.8481 -0.0841
  973MOL0     H28426   3.286   2.338   2.800  1.0792 -1.4850 -0.9857
  973MOL0     H28427   3.133   2.420   2.819  1.2791 -0.6846  1.4807
  973MOL0     H28428   3.332   2.414   2.590 -0.0471 -0.2313  1.0301
  973MOL0     H28429   3.172   2.491   2.591  0.3044 -2.8223 -0.9540
  973MOL0     H28430   3.423   2.550   2.762 -0.0923 -0.6169 -0.3080
  973MOL0     H28431   3.267   2.635   2.785  0.0451 -0.0020 -0.8926
  973MOL0     H28432   3.408   2.794   2.662 -1.7429  2.1010 -1.8803
  973MOL0     H28433   3.460   2.667   2.545 -0.4689 -0.4589  0.6142
  973MOL0     H28434   3.099   2.772   2.375  1.8002  2.4349  0.3168
  973MOL0     H28435   3.113   2.247   2.952 -2.0530  1.9034 -0.8027
  973MOL0     H28436   3.012   2.068   3.066 -1.4594  2.4585 -0.2304
  974MOL0     O28437  10.919   1.519   4.459  0.2877 -0.4130  0.0298
  974MOL0     C28438  10.984   1.624   4.479 -0.1649 -0.0429  0.3025
  974MOL0     O28439  10.936   1.754   4.478  0.3832 -0.1921  0.2716
  974MOL0     C28440  10.808   1.787   4.423 -0.1319  1.2034 -0.5586
  974MOL0     C28441  10.752   1.906   4.458  0.4424 -0.7297  0.1202
  974MOL0     C28442  10.630   1.953   4.401 -0.0050 -0.2109  0.1244
  974MOL0     C28443  10.571   1.876   4.302  0.0705  0.2422  0.7856
  974MOL0     O28444  10.458   1.919   4.235 -0.4668 -0.3504 -0.0997
  974MOL0     C28445  10.355   1.983   4.302 -0.6951  0.4461 -0.6884
  974MOL0     C28446  10.245   2.040   4.218 -0.3411 -0.2209 -0.1483
  974MOL0     C28447  10.291   2.160   4.137  0.3627 -0.3261 -0.5334
  974MOL0     C28448  10.214   2.183   4.003 -0.0435  0.6194 -0.3841
  974MOL0     C28449  10.301   2.255   3.900  0.1719 -0.0655  0.0400
  974MOL0     C28450  10.227   2.266   3.764 -0.4288 -0.5644  0.1402
  974MOL0     C28451  10.327   2.302   3.646  0.1282 -0.0368 -0.4059
  974MOL0     C28452  10.373   2.450   3.657  0.4297  0.7075 -0.6423
  974MOL0     N28453  10.499   2.471   3.596  0.4485  0.4677 -0.1896
  974MOL0     C28454  10.522   2.525   3.469  0.9234 -0.5844  0.3262
  974MOL0     C28455  10.650   2.566   3.472 -1.0772  0.7911 -0.0221
  974MOL0     C28456  10.723   2.635   3.362 -0.8533 -0.3480 -0.2206
  974MOL0     C28457  10.772   2.533   3.251  0.5488 -0.0092  1.0546
  974MOL0     C28458  10.657   2.534   3.150  0.1187 -0.6217 -0.0230
  974MOL0     C28459  10.705   2.443   3.034 -0.3271 -0.1807 -0.6297
  974MOL0     O28460  10.800   2.501   2.943  0.7990 -0.5873  0.4252
  974MOL0     C28461  10.773   2.577   2.837  0.8088 -0.2914  0.1787
  974MOL0     C28462  10.857   2.690   2.809 -0.0355 -0.5413  0.5457
  974MOL0     C28463  10.835   2.769   2.695 -0.3126  1.7066 -0.0588
  974MOL0     C28464  10.725   2.743   2.615  0.4574 -1.0005  0.2786
  974MOL0     C28465  10.713   2.813   2.478  0.5189 -0.5134  0.6585
  974MOL0     O28466  10.629   2.756   2.388  0.4070  0.6280 -0.6351
  974MOL0     C28467  10.602   2.825   2.270  0.3365  0.0641 -0.7122
  974MOL0     C28468  10.468   2.840   2.237 -0.0970  0.5017 -0.1005
  974MOL0     C28469  10.437   2.895   2.110  0.8065 -0.9694  0.3776
  974MOL0     C28470  10.534   2.934   2.016 -1.0004  0.8124  0.2534
  974MOL0     O28471  10.485   3.010   1.906  0.7252 -0.2507  0.4715
  974MOL0     C28472  10.582   3.085   1.835  0.2008  0.7814 -0.2678
  974MOL0     C28473  10.510   3.181   1.740  0.3938  0.0102  0.4767
  974MOL0     C28474  10.458   3.109   1.609  1.6141  0.1512 -0.1253
  974MOL0     C28475  10.409   3.201   1.490 -0.3902 -0.4237 -0.7399
  974MOL0     C28476  10.502   3.237   1.381 -0.9254 -0.2210  0.3767
  974MOL0     C28477  10.589   3.349   1.438  0.3645 -1.3651  0.4215
  974MOL0     C28478  10.689   3.399   1.328 -0.1947  0.3390 -0.1581
  974MOL0     C28479  10.797   3.482   1.398  0.6721 -0.5866 -0.1368
  974MOL0    Cl28480  10.734   3.652   1.410  0.0567 -0.1950 -0.1452
  974MOL0     C28481  10.664   2.918   2.053 -0.3905 -0.0566  0.6425
  974MOL0     C28482  10.701   2.875   2.178  0.1959 -0.4911 -0.9896
  974MOL0     O28483  10.768   2.921   2.461  0.2066  0.3910 -0.8168
  974MOL0     C28484  10.638   2.636   2.644  0.1714 -0.6884 -0.0357
  974MOL0     C28485  10.661   2.555   2.752 -0.4614 -0.3321  0.5862
  974MOL0     N28486  10.710   2.516   3.589  0.0580  0.2615  1.1674
  974MOL0     N28487  10.621   2.457   3.661  0.1467 -0.1418 -0.0520
  974MOL0     C28488  10.636   1.750   4.261  0.5788 -0.9342 -0.1522
  974MOL0     C28489  10.756   1.707   4.322  0.3551  0.2749  0.4948
  974MOL0     C28490  11.120   1.587   4.506 -0.0193 -0.2192  0.3607
  974MOL0     C28491  11.221   1.685   4.521  0.7358  1.0295  0.0031
  974MOL0     C28492  11.351   1.639   4.548 -0.9853 -0.2024  0.5863
  974MOL0     C28493  11.389   1.502   4.563  0.8358 -0.0253 -0.8972
  974MOL0     O28494  11.519   1.470   4.591  0.6171  0.0682  0.5246
  974MOL0     C28495  11.623   1.507   4.496  0.0434  0.8539  0.5479
  974MOL0     C28496  11.755   1.567   4.555  0.5549  0.7401 -0.5898
  974MOL0     C28497  11.867   1.586   4.443  0.1137 -0.6851  0.1389
  974MOL0     C28498  12.010   1.554   4.494  0.0399 -0.9835 -0.4288
  974MOL0     C28499  12.041   1.417   4.463  0.9543  0.1993  0.3191
  974MOL0     C28500  12.048   1.306   4.411 -0.2135 -0.8384 -0.4049
  974MOL0     C28501  11.287   1.401   4.542  0.0047  0.6621  0.0032
  974MOL0     C28502  11.158   1.450   4.523 -0.7000  0.4237  0.0442
  974MOL0     H28503  10.802   1.958   4.539  0.8156  1.6715 -1.5727
  974MOL0     H28504  10.582   2.045   4.433  0.9501 -0.1255  1.3595
  974MOL0     H28505  10.389   2.070   4.360 -1.2098 -0.2837  0.7662
  974MOL0     H28506  10.294   1.918   4.366  2.1545 -2.4352 -0.6112
  974MOL0     H28507  10.158   2.065   4.280  0.0916  0.0036  0.3829
  974MOL0     H28508  10.205   1.976   4.139  0.6158  1.5063 -2.1394
  974MOL0     H28509  10.394   2.141   4.106  1.2222  0.8136  1.4684
  974MOL0     H28510  10.286   2.246   4.204  0.7956 -1.0883  0.4892
  974MOL0     H28511  10.173   2.089   3.966  0.8000 -0.7535  1.9120
  974MOL0     H28512  10.123   2.240   4.024  0.0465  0.4955  0.3599
  974MOL0     H28513  10.400   2.210   3.891  1.6914  3.1502 -0.8203
  974MOL0     H28514  10.303   2.352   3.949 -0.4857 -0.9141  1.8305
  974MOL0     H28515  10.142   2.334   3.774  0.6238  0.6073  1.6047
  974MOL0     H28516  10.185   2.169   3.735  0.8985 -1.6573  1.6197
  974MOL0     H28517  10.409   2.230   3.658  1.1641  1.1800  0.0503
  974MOL0     H28518  10.287   2.292   3.545  3.2550 -1.6783 -1.6007
  974MOL0     H28519  10.397   2.470   3.762 -2.7749  0.3877  0.2801
  974MOL0     H28520  10.301   2.522   3.616  2.1391  2.0138 -1.5059
  974MOL0     H28521  10.456   2.561   3.391  2.1564 -0.1985 -0.5551
  974MOL0     H28522  10.811   2.671   3.416 -0.1188 -1.4018 -0.6715
  974MOL0     H28523  10.651   2.711   3.331  1.8970  1.4381 -2.8134
  974MOL0     H28524  10.802   2.435   3.289  2.2857 -0.6954 -1.7703
  974MOL0     H28525  10.867   2.558   3.203  1.1631 -2.8810  0.5828
  974MOL0     H28526  10.565   2.494   3.195  1.0723 -0.5186  2.1276
  974MOL0     H28527  10.638   2.636   3.117  1.1621 -0.3986  0.0325
  974MOL0     H28528  10.615   2.413   2.980  0.3575 -1.0023 -1.3413
  974MOL0     H28529  10.745   2.348   3.069 -2.5445 -1.1138 -0.4690
  974MOL0     H28530  10.938   2.723   2.873 -0.6499 -0.1298  1.1212
  974MOL0     H28531  10.906   2.850   2.684 -0.4522  2.0167  1.2240
  974MOL0     H28532  10.398   2.813   2.315  0.9647  0.6389  0.9259
  974MOL0     H28533  10.334   2.919   2.083  1.4290 -1.3736 -2.7358
  974MOL0     H28534  10.650   3.029   1.770  0.9372  0.7776  0.4892
  974MOL0     H28535  10.627   3.153   1.907 -1.3577 -1.3611  2.9454
  974MOL0     H28536  10.557   3.275   1.709 -0.3989  1.1360  2.5009
  974MOL0     H28537  10.428   3.224   1.797  0.4301 -2.0513  2.1707
  974MOL0     H28538  10.372   3.054   1.646  2.1155  1.5784  3.6259
  974MOL0     H28539  10.527   3.037   1.565  2.9484  2.7555 -2.6481
  974MOL0     H28540  10.324   3.154   1.441 -0.3216  0.1661 -1.4344
  974MOL0     H28541  10.381   3.298   1.532  0.5063  0.5771 -2.3408
  974MOL0     H28542  10.454   3.280   1.292 -1.9175 -0.3454  0.8442
  974MOL0     H28543  10.554   3.146   1.350 -0.2525  0.2106  0.2130
  974MOL0     H28544  10.651   3.316   1.521  3.0078 -0.0015 -0.8850
  974MOL0     H28545  10.528   3.437   1.462  0.4742 -1.5905  1.6040
  974MOL0     H28546  10.737   3.311   1.284  0.0856  0.5365 -0.2476
  974MOL0     H28547  10.659   3.471   1.252  1.1216  0.1696 -0.8627
  974MOL0     H28548  10.895   3.490   1.350  1.4389  2.3214  1.6684
  974MOL0     H28549  10.819   3.461   1.503 -1.5022  2.4997  1.0879
  974MOL0     H28550  10.746   2.949   1.990 -2.1448  2.9903 -0.3491
  974MOL0     H28551  10.807   2.858   2.197 -0.4924 -1.5697  2.9027
  974MOL0     H28552  10.559   2.611   2.575  1.1660  0.5088 -1.6863
  974MOL0     H28553  10.580   2.485   2.771 -1.1118 -0.4134 -2.1056
  974MOL0     H28554  10.595   1.700   4.175  0.2259 -0.9603  0.0308
  974MOL0     H28555  10.799   1.615   4.283 -0.9602 -0.9884  1.8893
  974MOL0     H28556  11.205   1.791   4.510 -2.3340  0.6015 -0.4247
  974MOL0     H28557  11.435   1.709   4.547 -0.7911 -0.3972  1.7096
  974MOL0     H28558  11.587   1.558   4.406 -0.2597  0.4734  0.4488
  974MOL0     H28559  11.663   1.413   4.456 -0.0115  1.3992 -0.8035
  974MOL0     H28560  11.729   1.666   4.594 -2.1884 -0.2753  0.4062
  974MOL0     H28561  11.785   1.496   4.633 -1.5507  2.7531  2.2847
  974MOL0     H28562  11.869   1.693   4.423  1.4619 -0.4787  1.2655
  974MOL0     H28563  11.835   1.526   4.357  1.8145 -0.1369 -0.9274
  974MOL0     H28564  12.088   1.615   4.448 -0.5025  0.9374  1.0689
  974MOL0     H28565  12.005   1.571   4.602 -0.8143  2.4691 -0.8760
  974MOL0     H28566  12.051   1.209   4.367 -4.6130 -0.5220 -1.9980
  974MOL0     H28567  11.320   1.298   4.545  1.4793  1.0617 -1.3487
  974MOL0     H28568  11.085   1.371   4.507  1.0637 -0.6796 -3.7314
  975MOL0     O28569   5.843   2.278   0.064  0.0705 -0.4820 -0.1542
  975MOL0     C28570   5.884   2.332   0.163  0.0670 -0.8945  0.7804
  975MOL0     O28571   5.996   2.416   0.173  0.1998  0.9090 -0.0568
  975MOL0     C28572   6.060   2.460   0.063 -0.6836  1.4232 -0.5302
  975MOL0     C28573   5.982   2.532  -0.034  0.4502  0.3639 -0.6019
  975MOL0     C28574   6.047   2.592  -0.137  0.6372 -0.4852  0.1655
  975MOL0     C28575   6.183   2.572  -0.154 -0.1497 -0.2028  0.3356
  975MOL0     O28576   6.230   2.619  -0.277  0.3026  0.4757 -0.0221
  975MOL0     C28577   6.354   2.567  -0.331  0.0890 -0.2116 -0.0320
  975MOL0     C28578   6.342   2.550  -0.480 -0.8783  0.2232 -0.4106
  975MOL0     C28579   6.489   2.537  -0.546  0.8550 -0.1209 -0.4519
  975MOL0     C28580   6.560   2.399  -0.525  0.6389  0.0284 -0.0158
  975MOL0     C28581   6.673   2.364  -0.630 -0.1373 -0.8580  0.3546
  975MOL0     C28582   6.783   2.473  -0.653  0.7694  0.1682  0.2238
  975MOL0     C28583   6.880   2.432  -0.755  0.2448 -0.1707 -0.7099
  975MOL0     C28584   6.840   2.429  -0.903 -0.4328 -0.4697 -0.0996
  975MOL0     N28585   6.949   2.391  -0.993 -0.0777 -0.4027  0.4517
  975MOL0     C28586   7.046   2.285  -0.996 -1.2744 -0.8890 -0.2130
  975MOL0     C28587   7.133   2.316  -1.099 -0.2969  0.4472 -0.9294
  975MOL0     C28588   7.264   2.245  -1.151 -0.5961  1.3823  0.1808
  975MOL0     C28589   7.237   2.148  -1.261  0.9090 -0.2328  1.0230
  975MOL0     C28590   7.245   1.992  -1.237  0.1138  0.1593 -0.7688
  975MOL0     C28591   7.209   1.896  -1.357  0.6681  0.3691  0.3300
  975MOL0     O28592   7.095   1.947  -1.435  0.0116 -0.6021 -0.1597
  975MOL0     C28593   6.967   1.906  -1.400 -0.0942 -0.0769  0.5755
  975MOL0     C28594   6.873   1.908  -1.507 -0.3412 -0.1539  0.0120
  975MOL0     C28595   6.738   1.870  -1.489 -0.2620 -0.6403 -0.8847
  975MOL0     C28596   6.695   1.812  -1.367  0.3069  0.7341  0.1390
  975MOL0     C28597   6.556   1.760  -1.346 -0.3489 -0.9266 -0.1105
  975MOL0     O28598   6.477   1.768  -1.459  0.2058  0.0600 -0.7510
  975MOL0     C28599   6.352   1.717  -1.460  1.3988  0.6981  0.9334
  975MOL0     C28600   6.309   1.589  -1.405 -0.7254  0.0330  0.1637
  975MOL0     C28601   6.174   1.544  -1.426  0.3165  0.2402 -0.5089
  975MOL0     C28602   6.083   1.613  -1.498 -0.3112 -1.3293 -0.0176
  975MOL0     O28603   5.950   1.572  -1.500  0.8091 -0.3435  0.1836
  975MOL0     C28604   5.850   1.675  -1.514 -0.2350 -0.5005 -0.2016
  975MOL0     C28605   5.714   1.633  -1.443 -0.2278 -0.7084  0.5630
  975MOL0     C28606   5.635   1.534  -1.530 -0.5792  0.1867 -0.6416
  975MOL0     C28607   5.501   1.491  -1.468 -0.5088  0.7076  0.4042
  975MOL0     C28608   5.447   1.372  -1.555  0.4555 -1.0011 -0.0746
  975MOL0     C28609   5.310   1.332  -1.491  0.3876 -0.0006  0.4391
  975MOL0     C28610   5.231   1.247  -1.590 -1.0723  0.0946 -0.3584
  975MOL0     C28611   5.084   1.257  -1.564 -0.1157  0.4652 -0.5873
  975MOL0    Cl28612   5.003   1.156  -1.677 -0.2626 -0.0972  0.3278
  975MOL0     C28613   6.130   1.741  -1.552  0.7488 -1.0979 -0.8281
  975MOL0     C28614   6.260   1.783  -1.540  0.6165 -0.0677 -0.6192
  975MOL0     O28615   6.527   1.714  -1.239 -0.2443 -0.1036 -0.2794
  975MOL0     C28616   6.789   1.803  -1.265  0.6610  0.7875  0.8226
  975MOL0     C28617   6.924   1.846  -1.278  0.0756 -0.3958  0.1670
  975MOL0     N28618   7.095   2.438  -1.149 -0.5848  0.4107 -0.0609
  975MOL0     N28619   6.987   2.476  -1.093  0.0021 -0.1403 -0.4578
  975MOL0     C28620   6.266   2.511  -0.059  0.5415 -0.4489 -0.1104
  975MOL0     C28621   6.201   2.452   0.044 -0.1564  0.2406  0.1627
  975MOL0     C28622   5.808   2.308   0.292 -0.0730  0.6910  0.1807
  975MOL0     C28623   5.856   2.335   0.422 -0.6137 -0.2930 -0.5116
  975MOL0     C28624   5.784   2.310   0.541  1.2859 -0.5293 -0.0515
  975MOL0     C28625   5.658   2.264   0.539  1.1719  0.6784  0.2652
  975MOL0     O28626   5.601   2.231   0.665 -0.1345  0.5496 -0.4426
  975MOL0     C28627   5.505   2.123   0.672 -0.3594 -0.5133 -0.6408
  975MOL0     C28628   5.574   1.989   0.632 -0.2035 -1.0074  0.1811
  975MOL0     C28629   5.694   1.949   0.737  0.9223 -0.7884 -0.1867
  975MOL0     C28630   5.757   1.814   0.693  0.0908 -0.2956  0.7086
  975MOL0     C28631   5.816   1.746   0.809 -0.5083 -0.9325  0.2018
  975MOL0     C28632   5.860   1.680   0.902  0.0692  0.1951 -0.2945
  975MOL0     C28633   5.606   2.243   0.409  0.4903 -0.3772 -0.4125
  975MOL0     C28634   5.683   2.250   0.289  0.8692 -0.2492  0.0503
  975MOL0     H28635   5.875   2.543  -0.024  0.5965  1.7626 -0.3208
  975MOL0     H28636   5.988   2.634  -0.218 -1.4038 -2.2640  0.6557
  975MOL0     H28637   6.384   2.473  -0.285 -0.3686  0.6100  2.0742
  975MOL0     H28638   6.439   2.634  -0.316  0.1473 -0.3411  0.2186
  975MOL0     H28639   6.298   2.642  -0.520  2.1240  0.2918 -3.9862
  975MOL0     H28640   6.274   2.467  -0.500  0.4993 -0.8838 -0.6369
  975MOL0     H28641   6.550   2.616  -0.499  0.4317 -0.6774  1.1084
  975MOL0     H28642   6.477   2.541  -0.654  1.2041  4.2422 -0.5326
  975MOL0     H28643   6.604   2.390  -0.426  1.1381  0.5264 -0.1906
  975MOL0     H28644   6.475   2.329  -0.527  0.5594  0.1283 -0.3376
  975MOL0     H28645   6.624   2.348  -0.727 -0.2879 -0.9528  0.4478
  975MOL0     H28646   6.727   2.270  -0.612 -0.8983 -1.3780 -0.0462
  975MOL0     H28647   6.826   2.519  -0.564  1.8225 -2.2502  1.0287
  975MOL0     H28648   6.714   2.541  -0.705 -2.5253 -1.9071  1.4952
  975MOL0     H28649   6.958   2.508  -0.747 -1.0547  1.1553 -0.0786
  975MOL0     H28650   6.930   2.337  -0.735 -1.1536 -1.8854 -4.5111
  975MOL0     H28651   6.801   2.527  -0.929 -1.3185 -0.7833  0.0177
  975MOL0     H28652   6.759   2.357  -0.917  0.0057 -0.7942 -1.0491
  975MOL0     H28653   7.050   2.207  -0.922  2.5718 -1.4140 -0.7681
  975MOL0     H28654   7.301   2.190  -1.064  1.4734 -0.6065 -1.8149
  975MOL0     H28655   7.336   2.324  -1.176  0.1310  0.7489  0.2397
  975MOL0     H28656   7.306   2.178  -1.339 -1.4910  2.1837 -0.3294
  975MOL0     H28657   7.135   2.161  -1.300  1.0198 -1.8032  0.1282
  975MOL0     H28658   7.335   1.954  -1.187  0.3711  1.4944 -0.1472
  975MOL0     H28659   7.171   1.977  -1.158 -0.3450  0.6173 -1.1057
  975MOL0     H28660   7.193   1.797  -1.313 -0.1484 -0.1061 -0.9485
  975MOL0     H28661   7.299   1.889  -1.418  1.1140  0.2111  1.0040
  975MOL0     H28662   6.908   1.940  -1.604  3.2576 -0.2070  1.1474
  975MOL0     H28663   6.664   1.865  -1.568 -2.2059 -1.6479  0.8891
  975MOL0     H28664   6.373   1.533  -1.337  0.9720 -0.0073 -1.3907
  975MOL0     H28665   6.141   1.451  -1.380  1.0934 -0.5347 -1.4839
  975MOL0     H28666   5.833   1.707  -1.617  1.2910  2.3274  0.3090
  975MOL0     H28667   5.890   1.761  -1.459 -1.0026 -2.2276  3.3291
  975MOL0     H28668   5.653   1.719  -1.412  2.1417  0.0680  3.4482
  975MOL0     H28669   5.742   1.584  -1.350 -0.2378 -1.2794  0.2653
  975MOL0     H28670   5.708   1.457  -1.558  2.3877  2.8233 -0.7640
  975MOL0     H28671   5.603   1.577  -1.626  1.8242 -2.1509 -2.6543
  975MOL0     H28672   5.512   1.462  -1.363 -0.1346  0.5137  0.3107
  975MOL0     H28673   5.426   1.571  -1.476 -0.6230  0.4260 -2.8657
  975MOL0     H28674   5.518   1.289  -1.558  1.4645 -0.1302 -0.6776
  975MOL0     H28675   5.431   1.407  -1.657  1.1931 -0.1335  0.0967
  975MOL0     H28676   5.251   1.422  -1.472  0.1376  0.3253 -1.6389
  975MOL0     H28677   5.327   1.286  -1.393  0.4571 -1.6143 -0.2904
  975MOL0     H28678   5.260   1.271  -1.693  0.1037 -2.7764 -0.7881
  975MOL0     H28679   5.254   1.142  -1.570  3.6054  0.9705  0.0208
  975MOL0     H28680   5.058   1.363  -1.569  1.7912  1.1409  1.9582
  975MOL0     H28681   5.066   1.226  -1.460  1.7597  3.9045  0.9131
  975MOL0     H28682   6.062   1.810  -1.601 -0.4658  1.0362  3.3159
  975MOL0     H28683   6.291   1.879  -1.582 -0.5585  0.2332 -0.8363
  975MOL0     H28684   6.765   1.732  -1.186  0.0936 -0.8988 -0.7874
  975MOL0     H28685   6.995   1.850  -1.195  1.9309  0.4546 -1.3702
  975MOL0     H28686   6.374   2.522  -0.061  0.4834  1.0628  1.9952
  975MOL0     H28687   6.247   2.400   0.128 -2.5267 -0.7994  0.9000
  975MOL0     H28688   5.950   2.385   0.443 -1.4788  0.8313  0.8747
  975MOL0     H28689   5.827   2.343   0.635  0.8160 -0.6131  0.1976
  975MOL0     H28690   5.417   2.137   0.608 -3.8023 -4.2923  2.7008
  975MOL0     H28691   5.478   2.118   0.778  2.7153 -0.6762  0.2360
  975MOL0     H28692   5.499   1.910   0.640  0.1460 -1.6069 -1.8724
  975MOL0     H28693   5.618   1.975   0.533  2.6665  1.5451  0.9428
  975MOL0     H28694   5.643   1.927   0.831  0.9989  0.4725  0.1681
  975MOL0     H28695   5.771   2.024   0.760 -2.0340  1.6181  2.9790
  975MOL0     H28696   5.678   1.754   0.647 -2.4513  1.2254  2.7850
  975MOL0     H28697   5.837   1.831   0.621 -0.3120  1.1208  0.5700
  975MOL0     H28698   5.886   1.620   0.987 -0.4205  1.9813  1.1913
  975MOL0     H28699   5.509   2.197   0.392 -0.3957  0.4349  1.9650
  975MOL0     H28700   5.641   2.213   0.195  0.9539 -2.1666  0.7192
  976MOL0     O28701   6.730   7.493   3.005  0.1016  0.4972  0.4204
  976MOL0     C28702   6.666   7.389   2.974 -0.1941  0.0150 -0.0357
  976MOL0     O28703   6.590   7.308   3.051  0.0978 -0.1356 -0.6251
  976MOL0     C28704   6.556   7.336   3.180  0.1423  0.7159  0.0172
  976MOL0     C28705   6.462   7.245   3.239 -0.3450 -0.0407  0.2973
  976MOL0     C28706   6.411   7.277   3.369  0.7129  0.0429  0.3316
  976MOL0     C28707   6.448   7.383   3.446  0.1145  0.2487  0.3856
  976MOL0     O28708   6.397   7.408   3.571  0.2541  0.2509 -0.2238
  976MOL0     C28709   6.486   7.476   3.668 -0.1904  0.1134  1.2410
  976MOL0     C28710   6.432   7.441   3.809 -0.5104  0.8221  0.1185
  976MOL0     C28711   6.294   7.494   3.855 -0.6140  0.1317 -0.2019
  976MOL0     C28712   6.282   7.490   4.004  0.4139 -0.3250 -0.1526
  976MOL0     C28713   6.156   7.550   4.064 -0.5768 -0.5446  0.1330
  976MOL0     C28714   6.134   7.550   4.218 -0.2808  0.2144 -0.3710
  976MOL0     C28715   5.983   7.543   4.256 -0.7478  0.8732  0.1823
  976MOL0     C28716   5.920   7.679   4.221 -0.7525 -0.9305 -0.4477
  976MOL0     N28717   5.922   7.753   4.353 -0.4014  0.2363  0.1727
  976MOL0     C28718   5.826   7.737   4.445  0.8029 -0.4831  0.5796
  976MOL0     C28719   5.863   7.814   4.548  0.3092  0.1362  0.5444
  976MOL0     C28720   5.780   7.846   4.669  0.5485  0.5447  0.8295
  976MOL0     C28721   5.841   7.823   4.803  0.2289 -0.3681 -0.0152
  976MOL0     C28722   5.751   7.874   4.920 -0.0611 -0.0702 -0.2308
  976MOL0     C28723   5.620   7.799   4.927 -0.2121  0.2040 -0.5155
  976MOL0     O28724   5.544   7.841   5.038  0.2132 -0.0522  0.0526
  976MOL0     C28725   5.426   7.789   5.066 -0.0003  0.5220  0.1551
  976MOL0     C28726   5.364   7.683   5.003  0.0197  0.5859 -0.0751
  976MOL0     C28727   5.234   7.648   5.032 -0.3388 -0.7688 -1.0142
  976MOL0     C28728   5.171   7.712   5.142 -0.7670  0.4783  0.4652
  976MOL0     C28729   5.041   7.656   5.182  0.5114 -0.0537 -0.8201
  976MOL0     O28730   5.009   7.537   5.141 -0.0319  0.6023  0.5560
  976MOL0     C28731   4.877   7.513   5.160 -0.0773  1.0355 -1.3836
  976MOL0     C28732   4.777   7.587   5.097  0.3079  1.0574  0.2280
  976MOL0     C28733   4.643   7.560   5.103 -0.1369  0.2002  0.6180
  976MOL0     C28734   4.603   7.450   5.181  0.1164 -0.5643  0.0563
  976MOL0     O28735   4.471   7.424   5.191  0.8315  0.3990 -0.1146
  976MOL0     C28736   4.421   7.307   5.117  0.3122 -0.6229  0.0204
  976MOL0     C28737   4.365   7.205   5.223 -0.6249 -0.8696  0.0129
  976MOL0     C28738   4.254   7.263   5.319  0.2774 -1.0935  0.1052
  976MOL0     C28739   4.115   7.259   5.254 -0.8632  0.3376 -0.8215
  976MOL0     C28740   4.006   7.316   5.351 -0.5401  0.3610  0.1567
  976MOL0     C28741   3.866   7.325   5.303  0.5756  0.7083 -0.2288
  976MOL0     C28742   3.805   7.184   5.284 -0.5070  0.7130 -0.1397
  976MOL0     C28743   3.647   7.183   5.281  0.6349  0.1173  0.2543
  976MOL0    Cl28744   3.562   7.248   5.429  0.0984  0.0279  0.5709
  976MOL0     C28745   4.702   7.372   5.232  0.4660  0.1127 -0.2738
  976MOL0     C28746   4.837   7.403   5.238 -0.4039  0.1047  0.4503
  976MOL0     O28747   4.974   7.722   5.262 -0.3679  0.2731 -0.1861
  976MOL0     C28748   5.236   7.813   5.208  0.5444 -0.1141  0.1173
  976MOL0     C28749   5.366   7.847   5.169 -1.2887 -0.1683 -0.3569
  976MOL0     N28750   5.989   7.866   4.526  0.3512  0.1958 -0.2697
  976MOL0     N28751   6.030   7.828   4.409 -0.0317 -0.3747 -0.6194
  976MOL0     C28752   6.557   7.459   3.402  0.3679  0.1486  0.2197
  976MOL0     C28753   6.610   7.431   3.275 -0.0310  1.3183  0.5894
  976MOL0     C28754   6.662   7.355   2.829  0.4392 -0.0318  0.5960
  976MOL0     C28755   6.732   7.430   2.737 -0.6921 -0.1393  0.0268
  976MOL0     C28756   6.725   7.417   2.597 -0.2025  0.7243 -0.8398
  976MOL0     C28757   6.611   7.348   2.546  0.1544 -0.8542 -0.3067
  976MOL0     O28758   6.597   7.350   2.409 -0.4728 -0.0189 -0.1644
  976MOL0     C28759   6.466   7.327   2.364 -0.0300 -0.7221  0.7658
  976MOL0     C28760   6.465   7.342   2.214  0.1617  0.0441  0.3590
  976MOL0     C28761   6.501   7.216   2.148 -0.3067  0.2191  1.1376
  976MOL0     C28762   6.483   7.217   1.993  0.2005  0.9287 -0.8275
  976MOL0     C28763   6.491   7.354   1.933  0.9598 -0.6677  0.6269
  976MOL0     C28764   6.517   7.473   1.921 -0.7812 -0.7164 -0.4398
  976MOL0     C28765   6.534   7.277   2.632 -0.4659  0.9832 -0.3105
  976MOL0     C28766   6.565   7.271   2.769  0.3209 -1.5283 -0.0281
  976MOL0     H28767   6.420   7.165   3.178  1.2737  0.6370 -1.8395
  976MOL0     H28768   6.332   7.214   3.409  0.1026  1.6438  1.8326
  976MOL0     H28769   6.492   7.584   3.652 -0.0158  0.1490  1.5298
  976MOL0     H28770   6.587   7.435   3.662 -0.7041 -1.0098 -0.6220
  976MOL0     H28771   6.498   7.492   3.880  1.5931  0.9951 -1.8833
  976MOL0     H28772   6.443   7.332   3.810  0.1306  0.8550 -1.5068
  976MOL0     H28773   6.225   7.428   3.801  1.3598 -0.0209 -2.7282
  976MOL0     H28774   6.260   7.594   3.825 -2.6712 -0.7248 -0.9364
  976MOL0     H28775   6.274   7.383   4.026 -3.1939  0.0034  0.8978
  976MOL0     H28776   6.371   7.530   4.054 -0.1024  1.8762 -0.8858
  976MOL0     H28777   6.067   7.498   4.026 -1.2248 -0.7769  1.8698
  976MOL0     H28778   6.161   7.654   4.030  2.3729 -0.7115 -0.1937
  976MOL0     H28779   6.192   7.637   4.251  1.0631 -1.1040  0.8404
  976MOL0     H28780   6.182   7.461   4.259  1.9387  1.3602 -0.3388
  976MOL0     H28781   5.936   7.467   4.193  0.4243  1.2132 -1.1436
  976MOL0     H28782   5.971   7.528   4.364 -0.9107 -0.5542 -0.0056
  976MOL0     H28783   5.813   7.670   4.200 -1.2815  0.2132  1.5284
  976MOL0     H28784   5.976   7.727   4.140 -3.0591 -0.8881 -2.1214
  976MOL0     H28785   5.733   7.682   4.440  0.4692  0.1957 -1.3390
  976MOL0     H28786   5.694   7.780   4.667 -0.1935  1.4781 -1.6015
  976MOL0     H28787   5.739   7.946   4.654 -3.3866 -1.1838 -1.2715
  976MOL0     H28788   5.929   7.887   4.793 -0.5752  0.7842 -0.0725
  976MOL0     H28789   5.870   7.720   4.821  0.6365 -0.2104  0.2387
  976MOL0     H28790   5.796   7.861   5.019 -1.1151 -0.0938  0.2608
  976MOL0     H28791   5.746   7.982   4.906  1.1894  0.2826  1.7544
  976MOL0     H28792   5.647   7.694   4.942 -3.3560 -0.6319  0.0154
  976MOL0     H28793   5.574   7.815   4.829  0.8664 -0.8284 -1.2151
  976MOL0     H28794   5.413   7.622   4.928  1.3407  4.0435 -2.2366
  976MOL0     H28795   5.185   7.562   4.986 -1.3988 -0.9287  0.3586
  976MOL0     H28796   4.800   7.663   5.023  0.5988 -0.7327 -1.6051
  976MOL0     H28797   4.573   7.628   5.055 -0.0342 -0.0003  0.1836
  976MOL0     H28798   4.487   7.262   5.042 -0.5273  1.2271 -1.9673
  976MOL0     H28799   4.334   7.342   5.061  1.4761 -1.7720 -2.6993
  976MOL0     H28800   4.451   7.161   5.274 -1.5876 -2.7739  0.0990
  976MOL0     H28801   4.323   7.118   5.172  1.6822 -3.3365  2.0533
  976MOL0     H28802   4.269   7.370   5.337  0.6962 -1.3394  1.3620
  976MOL0     H28803   4.251   7.221   5.420  1.7749  1.4106  1.2779
  976MOL0     H28804   4.112   7.319   5.163 -3.6410  0.3834 -0.7903
  976MOL0     H28805   4.085   7.157   5.229  1.1383  0.1127 -2.5750
  976MOL0     H28806   4.038   7.419   5.373  0.4445 -0.3678  2.4339
  976MOL0     H28807   4.015   7.279   5.453 -1.3900  0.3747  0.2442
  976MOL0     H28808   3.867   7.390   5.215  4.1933  2.4073  0.8897
  976MOL0     H28809   3.807   7.374   5.382  1.2308  0.1644  0.6188
  976MOL0     H28810   3.836   7.147   5.186  1.4789  1.3325  0.2198
  976MOL0     H28811   3.843   7.110   5.356 -0.1024  0.7965 -0.2692
  976MOL0     H28812   3.616   7.081   5.259  0.8062  0.2279 -0.5110
  976MOL0     H28813   3.614   7.245   5.197  2.0058 -2.1597 -2.1085
  976MOL0     H28814   4.670   7.283   5.286 -1.7975 -1.5046 -3.9516
  976MOL0     H28815   4.908   7.345   5.295  1.5749  0.1315 -1.8308
  976MOL0     H28816   5.191   7.885   5.275  1.4092  0.8623 -0.3310
  976MOL0     H28817   5.411   7.933   5.219 -1.8442  0.6538 -1.2480
  976MOL0     H28818   6.598   7.533   3.470 -0.2410 -2.0368  3.1670
  976MOL0     H28819   6.684   7.505   3.248 -1.9977  4.1187  2.3365
  976MOL0     H28820   6.811   7.497   2.769  1.9347 -2.4956 -1.0258
  976MOL0     H28821   6.781   7.468   2.519  1.2866  0.3624 -0.0617
  976MOL0     H28822   6.392   7.388   2.417 -0.7497 -1.8452  1.0796
  976MOL0     H28823   6.441   7.223   2.387 -1.6370 -0.0346  2.3219
  976MOL0     H28824   6.363   7.365   2.181 -0.7742 -0.3627  2.7489
  976MOL0     H28825   6.524   7.428   2.181 -0.7405  0.9412  1.0041
  976MOL0     H28826   6.463   7.124   2.192 -1.7847  2.2491  4.5128
  976MOL0     H28827   6.610   7.204   2.151 -0.2039  1.1958  1.9821
  976MOL0     H28828   6.555   7.148   1.947  0.3810  1.9706 -2.1828
  976MOL0     H28829   6.377   7.191   1.988  0.2604 -2.2202  5.1165
  976MOL0     H28830   6.539   7.578   1.927 -1.4895 -0.6254  3.0994
  976MOL0     H28831   6.461   7.214   2.582  1.2555  1.4171 -3.7350
  976MOL0     H28832   6.507   7.219   2.844 -0.2382 -1.5085 -0.4337
  977MOL0     O28833   8.838   0.960   5.611  0.1944 -0.2287  0.7357
  977MOL0     C28834   8.911   0.954   5.713  0.0380  0.1744  1.0007
  977MOL0     O28835   8.880   0.989   5.833  0.1138  0.2501 -0.5929
  977MOL0     C28836   8.768   1.061   5.857  0.4039  0.2041  0.2050
  977MOL0     C28837   8.666   0.994   5.929  1.0501 -0.2380  0.0510
  977MOL0     C28838   8.548   1.066   5.977  1.0900 -0.4235  0.5238
  977MOL0     C28839   8.531   1.202   5.948 -0.3709  0.9471 -0.0550
  977MOL0     O28840   8.417   1.257   5.990  1.0349 -0.4492  0.3423
  977MOL0     C28841   8.350   1.364   5.917 -0.3857 -0.3586 -0.1269
  977MOL0     C28842   8.222   1.397   6.000  0.1910 -0.3977  0.5953
  977MOL0     C28843   8.259   1.467   6.140  1.2376 -0.2512 -0.8561
  977MOL0     C28844   8.130   1.481   6.224 -0.7962 -0.5970 -0.3105
  977MOL0     C28845   8.081   1.340   6.272 -0.3465 -0.8024  1.4148
  977MOL0     C28846   7.981   1.353   6.385 -0.0006 -0.4479  0.5724
  977MOL0     C28847   7.921   1.209   6.426  0.0133 -0.9791  0.4864
  977MOL0     C28848   7.812   1.173   6.328 -0.2553 -0.8975  0.2513
  977MOL0     N28849   7.785   1.031   6.346  0.3217  0.2004  0.0598
  977MOL0     C28850   7.867   0.919   6.341  0.1202  0.8475  0.5271
  977MOL0     C28851   7.782   0.816   6.339  0.3641  0.3545  0.0128
  977MOL0     C28852   7.819   0.668   6.319  0.6386  0.0031 -0.3679
  977MOL0     C28853   7.746   0.586   6.433  0.2673  0.0480 -0.0734
  977MOL0     C28854   7.793   0.442   6.456 -0.3346 -0.7758 -0.2831
  977MOL0     C28855   7.710   0.352   6.555  0.3879 -0.6531  0.8784
  977MOL0     O28856   7.684   0.429   6.678 -0.2900 -0.2118  0.1731
  977MOL0     C28857   7.598   0.379   6.767 -0.3953  0.1257 -1.3523
  977MOL0     C28858   7.604   0.420   6.903  0.3672 -0.5073 -0.9233
  977MOL0     C28859   7.514   0.357   7.000 -0.7290  0.1808 -0.8436
  977MOL0     C28860   7.428   0.258   6.966 -0.1010 -0.2754 -0.7133
  977MOL0     C28861   7.337   0.187   7.062 -0.2538 -0.2257  0.5903
  977MOL0     O28862   7.298   0.269   7.170  0.2320  0.8146 -0.2510
  977MOL0     C28863   7.205   0.240   7.265 -0.3898  0.0604 -1.3358
  977MOL0     C28864   7.172   0.338   7.354  0.2748  0.3381  0.3205
  977MOL0     C28865   7.081   0.320   7.455  0.5196 -0.2564  0.2863
  977MOL0     C28866   7.018   0.196   7.478 -0.4939 -0.6281 -0.1454
  977MOL0     O28867   6.929   0.196   7.581 -0.6459 -0.5240  0.0807
  977MOL0     C28868   6.841   0.084   7.594 -0.3546 -0.4972  0.2718
  977MOL0     C28869   6.729   0.123   7.683 -0.7056 -0.1766 -0.3711
  977MOL0     C28870   6.636   0.013   7.708  0.0886 -0.9713  0.1108
  977MOL0     C28871   6.521   0.037   7.811  0.3040 -0.9667 -0.1198
  977MOL0     C28872   6.428  -0.091   7.817 -0.6204 -0.2383  0.8180
  977MOL0     C28873   6.318  -0.066   7.916  0.2464  0.1461 -0.3025
  977MOL0     C28874   6.197  -0.156   7.892  0.6429 -0.1117 -0.5099
  977MOL0     C28875   6.126  -0.185   8.022 -0.5810 -0.1414  0.3063
  977MOL0    Cl28876   5.972  -0.266   7.989  0.0271  0.4688 -0.0715
  977MOL0     C28877   7.053   0.096   7.392  0.6944 -0.2494 -0.0153
  977MOL0     C28878   7.149   0.116   7.297  0.3313 -0.0812 -0.6404
  977MOL0     O28879   7.291   0.073   7.031 -0.6717  0.3856 -0.2991
  977MOL0     C28880   7.418   0.223   6.824 -0.0883 -1.1708 -0.1531
  977MOL0     C28881   7.497   0.289   6.735 -1.0086  0.2701  0.2893
  977MOL0     N28882   7.659   0.858   6.361 -0.3796  0.4509 -0.6360
  977MOL0     N28883   7.653   0.981   6.362 -0.3536 -0.8025  1.1608
  977MOL0     C28884   8.634   1.268   5.881 -0.4227 -0.6381  0.9177
  977MOL0     C28885   8.744   1.198   5.834 -0.2530  0.5867 -0.1564
  977MOL0     C28886   9.052   0.898   5.696 -0.1592 -0.4701 -0.0617
  977MOL0     C28887   9.102   0.868   5.567  0.1331 -0.3142  0.4499
  977MOL0     C28888   9.222   0.797   5.551  0.2560 -0.0236 -1.3836
  977MOL0     C28889   9.285   0.757   5.668  0.1088 -0.0025  0.1889
  977MOL0     O28890   9.406   0.694   5.681 -0.0142 -0.3096  0.5064
  977MOL0     C28891   9.456   0.601   5.588  0.4603 -1.0314  0.6677
  977MOL0     C28892   9.582   0.525   5.633  0.4463  0.1321  0.0622
  977MOL0     C28893   9.703   0.625   5.662  0.2581 -0.4984  0.2415
  977MOL0     C28894   9.802   0.640   5.555 -0.2257 -0.5143  0.6349
  977MOL0     C28895   9.874   0.511   5.540  0.1379  0.2664 -0.3208
  977MOL0     C28896   9.932   0.414   5.511 -0.4375  0.1181 -0.7778
  977MOL0     C28897   9.238   0.785   5.794 -0.2423  0.4127 -1.5402
  977MOL0     C28898   9.118   0.854   5.816 -0.7826 -0.4223  1.0672
  977MOL0     H28899   8.679   0.890   5.956  0.5143  0.2221  2.2113
  977MOL0     H28900   8.482   1.020   6.049 -2.2258  0.8280 -1.4602
  977MOL0     H28901   8.320   1.339   5.815  0.0933  0.0413 -0.3703
  977MOL0     H28902   8.411   1.454   5.908 -1.4094  0.5143  1.1156
  977MOL0     H28903   8.173   1.300   6.019 -1.3324  0.8430  3.8500
  977MOL0     H28904   8.154   1.453   5.935 -3.6246 -2.1911  2.6853
  977MOL0     H28905   8.306   1.563   6.118 -2.1703  1.4238 -1.3851
  977MOL0     H28906   8.322   1.398   6.198  1.4701 -1.2805 -2.2907
  977MOL0     H28907   8.149   1.536   6.316 -0.8307 -0.1215 -0.5805
  977MOL0     H28908   8.059   1.538   6.163  0.6005  1.3175 -0.2117
  977MOL0     H28909   8.173   1.287   6.299 -0.5512 -3.4146 -2.2109
  977MOL0     H28910   8.044   1.285   6.185 -0.0118  1.8001 -0.5122
  977MOL0     H28911   7.906   1.427   6.356  1.8786  0.0407 -3.9645
  977MOL0     H28912   8.044   1.392   6.465  0.9252  0.9543 -0.7910
  977MOL0     H28913   8.002   1.136   6.437  2.6038  1.0991 -2.8590
  977MOL0     H28914   7.868   1.218   6.521 -2.4012 -1.3395 -0.7553
  977MOL0     H28915   7.842   1.198   6.226  1.4949  0.5607  1.0493
  977MOL0     H28916   7.725   1.231   6.358 -0.8018 -1.9121  0.6772
  977MOL0     H28917   7.970   0.912   6.310 -0.8103  0.6573 -2.9423
  977MOL0     H28918   7.927   0.660   6.337  0.5737 -0.1591 -0.0368
  977MOL0     H28919   7.794   0.630   6.220 -2.3710 -0.1169  0.3467
  977MOL0     H28920   7.642   0.593   6.400 -0.0755  0.4087  1.0530
  977MOL0     H28921   7.758   0.648   6.522  0.3420  2.8195 -1.8696
  977MOL0     H28922   7.783   0.394   6.358  1.3829 -2.6496  0.3850
  977MOL0     H28923   7.900   0.436   6.477  0.5362  2.5507 -2.9472
  977MOL0     H28924   7.770   0.262   6.573  0.1476 -1.3317 -1.2999
  977MOL0     H28925   7.619   0.330   6.499  0.8622  2.8580 -1.6449
  977MOL0     H28926   7.678   0.496   6.925 -1.4651  1.7939 -2.2361
  977MOL0     H28927   7.535   0.372   7.106  2.7258 -1.6618 -1.1279
  977MOL0     H28928   7.219   0.436   7.341  0.6243 -0.0001 -1.1358
  977MOL0     H28929   7.067   0.412   7.511 -2.2060  0.6376 -1.6704
  977MOL0     H28930   6.897   0.002   7.640  1.2771  2.4807  4.2816
  977MOL0     H28931   6.799   0.053   7.499 -0.9335  1.1003 -0.0247
  977MOL0     H28932   6.670   0.209   7.650  1.2465  0.5432 -2.2010
  977MOL0     H28933   6.777   0.138   7.780  4.9817 -2.5923 -2.3988
  977MOL0     H28934   6.698  -0.066   7.752 -0.5796 -3.2872 -2.7611
  977MOL0     H28935   6.590  -0.027   7.617 -2.9277 -1.1425  1.5882
  977MOL0     H28936   6.565   0.055   7.909  1.8172 -1.5238 -0.6658
  977MOL0     H28937   6.453   0.117   7.779 -2.6536 -1.7663  3.5550
  977MOL0     H28938   6.478  -0.188   7.831 -0.4398 -0.3185 -0.2977
  977MOL0     H28939   6.389  -0.118   7.718  2.4969  0.7244 -0.8051
  977MOL0     H28940   6.288   0.039   7.911  3.4583  1.2080  0.1395
  977MOL0     H28941   6.361  -0.079   8.015  0.2385  1.3831 -0.1180
  977MOL0     H28942   6.134  -0.109   7.817  1.0034  1.3684  0.0847
  977MOL0     H28943   6.232  -0.252   7.852  1.1609 -0.1435 -0.0011
  977MOL0     H28944   6.107  -0.094   8.081 -0.3299  0.5366 -0.6366
  977MOL0     H28945   6.183  -0.244   8.094  0.2813  3.0177  2.4226
  977MOL0     H28946   7.019  -0.006   7.408 -1.7110  0.4233 -0.4198
  977MOL0     H28947   7.194   0.037   7.238  0.7865  0.7534 -1.4439
  977MOL0     H28948   7.353   0.140   6.797  1.4762 -1.2814 -4.3261
  977MOL0     H28949   7.501   0.238   6.639 -0.9265  0.1175  0.3737
  977MOL0     H28950   8.622   1.371   5.850  1.0032 -1.5094 -3.1617
  977MOL0     H28951   8.814   1.248   5.767  1.2400 -0.7826  0.2981
  977MOL0     H28952   9.043   0.906   5.484 -0.0882  0.5240  0.9891
  977MOL0     H28953   9.252   0.773   5.449 -2.2336  0.5121 -2.3138
  977MOL0     H28954   9.475   0.649   5.492  1.5934 -1.4213  0.6892
  977MOL0     H28955   9.370   0.536   5.571 -1.0704  0.2241  2.9386
  977MOL0     H28956   9.556   0.490   5.733  0.7801 -2.2907 -0.6228
  977MOL0     H28957   9.604   0.440   5.567  2.6917 -1.1541  2.3157
  977MOL0     H28958   9.751   0.592   5.754 -0.5201  0.6886  1.1113
  977MOL0     H28959   9.665   0.727   5.676  0.8263 -0.0830 -1.0931
  977MOL0     H28960   9.763   0.681   5.462 -0.3491 -1.7041  0.1541
  977MOL0     H28961   9.875   0.714   5.589 -0.6490  0.3763 -0.3602
  977MOL0     H28962   9.971   0.319   5.481 -0.0295 -0.0266  0.1599
  977MOL0     H28963   9.267   0.721   5.877 -0.0127  1.9041 -0.4335
  977MOL0     H28964   9.081   0.864   5.918 -1.1449 -2.6881  1.2140
  978MOL0     O28965   5.895  10.568   8.460 -0.4226 -0.3989  0.2601
  978MOL0     C28966   5.823  10.573   8.563  0.8531  0.0265 -0.3810
  978MOL0     O28967   5.846  10.651   8.667  0.3988 -0.7345  0.5495
  978MOL0     C28968   5.957  10.730   8.680 -0.3111 -0.2807  0.8062
  978MOL0     C28969   6.087  10.691   8.666  0.7592  0.9153 -0.4087
  978MOL0     C28970   6.185  10.778   8.697  0.1543 -0.1431  0.2904
  978MOL0     C28971   6.158  10.901   8.764 -0.1622 -0.2521  0.5404
  978MOL0     O28972   6.267  10.963   8.804  0.2099  0.4441  0.1104
  978MOL0     C28973   6.246  11.105   8.821 -0.1395  0.2263 -0.9912
  978MOL0     C28974   6.367  11.179   8.872 -0.0564  0.5367  0.3272
  978MOL0     C28975   6.334  11.326   8.837 -0.1587  0.1641  0.1627
  978MOL0     C28976   6.441  11.418   8.895 -1.7210  0.7159 -0.0389
  978MOL0     C28977   6.426  11.555   8.846 -0.5989 -1.2921  0.2644
  978MOL0     C28978   6.320  11.624   8.942 -0.3604  0.3139  0.1213
  978MOL0     C28979   6.283  11.763   8.899 -0.5447 -0.4512  0.1566
  978MOL0     C28980   6.159  11.814   8.984 -0.3183 -0.1043 -0.5543
  978MOL0     N28981   6.048  11.727   8.972  0.2840 -0.3753 -0.2727
  978MOL0     C28982   5.967  11.719   8.870  0.3310  0.2090 -0.9387
  978MOL0     C28983   5.884  11.618   8.898  0.0801 -0.4325  0.3596
  978MOL0     C28984   5.775  11.568   8.810  0.7014  0.2066 -0.2265
  978MOL0     C28985   5.824  11.463   8.711 -0.0301  0.5435 -0.6662
  978MOL0     C28986   5.725  11.433   8.595  0.8509  0.2427 -0.2989
  978MOL0     C28987   5.588  11.369   8.629 -0.1398 -0.9747 -0.7894
  978MOL0     O28988   5.582  11.229   8.647  0.2369 -0.2116 -0.8946
  978MOL0     C28989   5.463  11.168   8.670  0.4862  0.7250  0.6761
  978MOL0     C28990   5.332  11.225   8.658 -0.7989  0.4287  0.1735
  978MOL0     C28991   5.222  11.150   8.689 -0.2749  0.3831 -0.0262
  978MOL0     C28992   5.237  11.025   8.743 -0.0319  0.1082 -0.8710
  978MOL0     C28993   5.115  10.953   8.776  0.6368  0.4183 -0.4686
  978MOL0     O28994   5.131  10.823   8.789  0.1639  0.4537 -0.2220
  978MOL0     C28995   5.021  10.748   8.831 -0.2394 -0.5083 -0.4050
  978MOL0     C28996   4.981  10.643   8.752 -0.1335 -0.2160  0.8070
  978MOL0     C28997   4.867  10.559   8.786  0.7470 -1.2392  0.3400
  978MOL0     C28998   4.803  10.593   8.904  0.7855 -0.5863  0.6884
  978MOL0     O28999   4.698  10.523   8.966  0.4601 -0.0153  0.3958
  978MOL0     C29000   4.678  10.382   8.942  0.1286  0.2847 -0.3030
  978MOL0     C29001   4.533  10.352   8.991  0.6472 -0.0378 -0.4894
  978MOL0     C29002   4.470  10.219   8.962  0.3839 -0.2469  0.6470
  978MOL0     C29003   4.331  10.203   9.030 -0.6265 -0.7804 -0.3614
  978MOL0     C29004   4.268  10.074   8.978  0.7430  0.2994  0.8871
  978MOL0     C29005   4.233  10.079   8.825  0.4808  0.2404 -0.7579
  978MOL0     C29006   4.141   9.970   8.766 -0.5355  0.2582  0.4242
  978MOL0     C29007   4.001   9.989   8.822  0.3982  0.1766  0.7976
  978MOL0    Cl29008   3.894   9.882   8.726  0.1586 -0.1867 -0.4766
  978MOL0     C29009   4.842  10.695   8.991 -0.5474  0.1315 -0.6798
  978MOL0     C29010   4.946  10.778   8.950 -0.3161  0.3343  0.2026
  978MOL0     O29011   5.002  11.011   8.780 -0.2457 -0.1897  0.2727
  978MOL0     C29012   5.366  10.966   8.749  0.5470 -0.6127 -0.4146
  978MOL0     C29013   5.479  11.041   8.717 -0.4537  0.3639  0.0052
  978MOL0     N29014   5.909  11.567   9.019 -0.2519 -0.2785  0.3066
  978MOL0     N29015   6.018  11.625   9.061 -0.6010 -0.1883  0.3812
  978MOL0     C29016   6.025  10.947   8.773 -0.5774  0.8643 -0.0419
  978MOL0     C29017   5.925  10.859   8.727  0.4909 -0.2656 -0.7213
  978MOL0     C29018   5.702  10.482   8.563 -0.0722  0.0894 -0.4602
  978MOL0     C29019   5.601  10.489   8.659 -0.2410  0.6106 -0.8942
  978MOL0     C29020   5.470  10.434   8.654 -0.3933  0.2547  0.4075
  978MOL0     C29021   5.448  10.360   8.527  0.6041  0.1320  0.3096
  978MOL0     O29022   5.327  10.302   8.496 -0.1911 -0.0826  0.2848
  978MOL0     C29023   5.204  10.331   8.551  0.5938 -0.6833 -0.2512
  978MOL0     C29024   5.130  10.195   8.541 -0.0326  0.9791 -0.4503
  978MOL0     C29025   5.015  10.191   8.646 -0.5952 -0.1593  0.5560
  978MOL0     C29026   4.969  10.044   8.672 -1.2186 -1.1638 -0.1595
  978MOL0     C29027   4.837  10.032   8.740 -1.0504 -0.3373  0.5959
  978MOL0     C29028   4.726  10.039   8.795  0.0481  1.0214  0.0436
  978MOL0     C29029   5.553  10.331   8.446 -0.1419  0.7530  0.3751
  978MOL0     C29030   5.677  10.392   8.457  0.0721 -0.6898 -0.2744
  978MOL0     H29031   6.100  10.592   8.624  2.0214  1.7690 -2.1648
  978MOL0     H29032   6.289  10.746   8.688 -0.1607 -2.8089  3.8351
  978MOL0     H29033   6.169  11.131   8.894  0.2056 -0.1451 -0.4823
  978MOL0     H29034   6.221  11.148   8.724 -1.6308 -0.2001 -0.8127
  978MOL0     H29035   6.462  11.161   8.821 -0.9425  2.0942 -2.0703
  978MOL0     H29036   6.381  11.161   8.979 -0.8423 -1.9844  0.0625
  978MOL0     H29037   6.232  11.354   8.865 -0.8250 -1.0338 -0.9618
  978MOL0     H29038   6.319  11.336   8.729 -3.0195 -1.1806  0.3289
  978MOL0     H29039   6.423  11.431   9.001  0.3205  0.6537  0.3707
  978MOL0     H29040   6.544  11.379   8.896 -1.6945  0.5994  3.1909
  978MOL0     H29041   6.383  11.550   8.746  0.3928 -1.7806 -0.1444
  978MOL0     H29042   6.515  11.619   8.845 -1.6966  0.4795 -3.5655
  978MOL0     H29043   6.369  11.632   9.039 -1.2880  1.4935  0.5123
  978MOL0     H29044   6.232  11.561   8.957  1.4336 -2.8156 -1.3904
  978MOL0     H29045   6.374  11.824   8.900 -1.4759  1.1184 -2.1747
  978MOL0     H29046   6.240  11.759   8.799 -0.3458  2.2546 -0.1077
  978MOL0     H29047   6.127  11.912   8.947 -3.1367 -0.5805  0.3949
  978MOL0     H29048   6.179  11.821   9.091 -3.8380 -1.1239  0.3040
  978MOL0     H29049   5.984  11.757   8.770  0.1857  0.0731 -1.0136
  978MOL0     H29050   5.720  11.643   8.754 -0.0407  0.2994  0.5939
  978MOL0     H29051   5.697  11.525   8.875 -1.3957  4.0504  0.1003
  978MOL0     H29052   5.857  11.377   8.770  2.6734  1.7739 -0.2740
  978MOL0     H29053   5.923  11.489   8.673  2.6424 -0.6802  4.4848
  978MOL0     H29054   5.699  11.525   8.541  0.4521  0.0609 -0.4233
  978MOL0     H29055   5.781  11.371   8.525 -0.0087  1.4955 -2.1957
  978MOL0     H29056   5.522  11.392   8.546  0.5924  2.6036 -0.5734
  978MOL0     H29057   5.560  11.416   8.724 -0.8622 -0.1697 -1.3854
  978MOL0     H29058   5.316  11.324   8.617  2.9201  0.3356 -1.9300
  978MOL0     H29059   5.124  11.194   8.675  0.2009  0.8175 -2.4433
  978MOL0     H29060   5.041  10.620   8.665 -0.3046 -0.6381  0.7940
  978MOL0     H29061   4.830  10.489   8.712 -2.1367  3.4614 -3.2270
  978MOL0     H29062   4.755  10.328   8.999  1.2908  0.7458 -1.3819
  978MOL0     H29063   4.681  10.352   8.837  0.0778  0.5028 -0.3684
  978MOL0     H29064   4.465  10.419   8.937  2.8114  0.5464 -2.6983
  978MOL0     H29065   4.533  10.362   9.100  0.4151  0.0148 -0.4936
  978MOL0     H29066   4.535  10.144   9.007 -0.2879 -1.2083  0.0343
  978MOL0     H29067   4.464  10.210   8.853 -3.3339 -0.1172  0.7377
  978MOL0     H29068   4.341  10.197   9.138 -0.2603  0.6415 -0.2904
  978MOL0     H29069   4.268  10.288   9.003 -2.1295 -1.9074 -0.5012
  978MOL0     H29070   4.171  10.055   9.025  0.7744 -1.4425  0.3371
  978MOL0     H29071   4.320   9.978   8.989 -2.2415 -1.3279  2.0247
  978MOL0     H29072   4.327  10.070   8.770  0.4930 -1.0128 -0.5731
  978MOL0     H29073   4.182  10.174   8.806 -2.9149 -0.5368  3.1318
  978MOL0     H29074   4.136   9.996   8.660  0.2580  1.8253  0.7418
  978MOL0     H29075   4.178   9.868   8.781 -1.8314 -0.5412 -1.4007
  978MOL0     H29076   3.992  10.095   8.798  2.8865  0.2390 -0.1354
  978MOL0     H29077   3.986   9.964   8.928  1.4182  0.0132  0.9092
  978MOL0     H29078   4.797  10.716   9.087  1.0769  1.4666 -0.1652
  978MOL0     H29079   4.969  10.859   9.019  0.7710  1.0400 -0.9649
  978MOL0     H29080   5.380  10.859   8.759  1.7310 -0.2851  2.2049
  978MOL0     H29081   5.582  11.008   8.723  0.5676  3.0408 -1.0016
  978MOL0     H29082   6.002  11.050   8.797  2.3984  0.9628  3.1451
  978MOL0     H29083   5.818  10.873   8.738  0.8929  1.4137  1.9928
  978MOL0     H29084   5.601  10.569   8.733 -3.6027 -3.1810  3.8915
  978MOL0     H29085   5.398  10.459   8.731  1.8703  2.4480  1.9479
  978MOL0     H29086   5.158  10.408   8.489 -1.8354 -1.5220  0.4245
  978MOL0     H29087   5.206  10.359   8.657 -2.0546 -1.0226 -0.0550
  978MOL0     H29088   5.083  10.184   8.443 -1.5087 -0.6007  0.3873
  978MOL0     H29089   5.187  10.104   8.564 -0.0472  0.5015 -2.1527
  978MOL0     H29090   4.929  10.250   8.615 -0.5090 -0.2704  0.0914
  978MOL0     H29091   5.050  10.242   8.736  1.5168 -1.2050  0.3979
  978MOL0     H29092   4.967   9.978   8.585 -2.5341  1.0448 -1.9098
  978MOL0     H29093   5.050  10.001   8.731 -1.2788 -2.8068 -1.2069
  978MOL0     H29094   4.624  10.038   8.827  0.2992  1.3846  0.8997
  978MOL0     H29095   5.534  10.252   8.374  2.9172  1.1217 -0.9756
  978MOL0     H29096   5.751  10.359   8.386  0.4820 -4.8049  1.8025
  979MOL0     O29097   0.970  10.626   2.290 -1.5832  0.0669 -0.3378
  979MOL0     C29098   0.954  10.720   2.211 -0.5789  0.0920  0.3984
  979MOL0     O29099   0.851  10.725   2.115 -0.4594 -0.2518  0.0626
  979MOL0     C29100   0.770  10.615   2.105  0.3701 -0.6009  1.0387
  979MOL0     C29101   0.794  10.525   1.992 -0.6782 -0.2698 -0.1276
  979MOL0     C29102   0.700  10.422   1.992  0.5301 -0.2081  0.9213
  979MOL0     C29103   0.597  10.402   2.082 -0.6031 -1.2044  0.2601
  979MOL0     O29104   0.524  10.295   2.090  0.6577 -0.0777  1.0677
  979MOL0     C29105   0.598  10.174   2.045  0.2159 -0.6628 -0.5011
  979MOL0     C29106   0.508  10.051   2.055  0.5100 -0.0026 -1.0541
  979MOL0     C29107   0.459  10.018   2.196 -0.8448 -0.3299  0.3566
  979MOL0     C29108   0.318  10.090   2.228  0.3183 -0.5949  0.9551
  979MOL0     C29109   0.248  10.044   2.361 -0.6239  0.0987 -0.1652
  979MOL0     C29110   0.234   9.895   2.357  0.6501  0.4336  0.0953
  979MOL0     C29111   0.159   9.859   2.487 -0.3743 -0.0510  0.4532
  979MOL0     C29112   0.007   9.896   2.496  0.8267  0.5114  0.3987
  979MOL0     N29113  -0.049   9.845   2.625 -0.0124  0.3225  0.3978
  979MOL0     C29114  -0.042   9.899   2.756 -0.0108  0.3909  0.1649
  979MOL0     C29115  -0.145   9.830   2.818  0.5974 -0.0426 -0.3445
  979MOL0     C29116  -0.205   9.851   2.965 -0.3131  0.0636 -0.1566
  979MOL0     C29117  -0.097   9.841   3.069  0.1824 -0.2336 -0.2137
  979MOL0     C29118  -0.027   9.699   3.075  0.7275  0.9346 -0.2997
  979MOL0     C29119   0.073   9.690   3.196 -0.2552  0.6329  0.1037
  979MOL0     O29120   0.188   9.773   3.177 -0.1344 -0.3870  1.1138
  979MOL0     C29121   0.260   9.758   3.061 -0.5506 -0.3878 -0.3037
  979MOL0     C29122   0.293   9.864   2.980  0.5501 -0.0997  0.1551
  979MOL0     C29123   0.366   9.842   2.860 -0.0325  0.2510  0.1711
  979MOL0     C29124   0.407   9.721   2.824  0.5153 -0.2568  0.3430
  979MOL0     C29125   0.479   9.706   2.695 -0.4442  0.3011  0.9226
  979MOL0     O29126   0.519   9.816   2.623 -0.0205 -0.3058 -0.3751
  979MOL0     C29127   0.635   9.801   2.545  0.1308  0.5587 -0.0797
  979MOL0     C29128   0.759   9.815   2.610  0.0510 -1.0843  0.2007
  979MOL0     C29129   0.881   9.825   2.543 -0.5346 -0.5560  0.6732
  979MOL0     C29130   0.888   9.827   2.403  0.9308 -0.3935  0.1509
  979MOL0     O29131   1.004   9.849   2.325  0.0554 -0.3222  0.3711
  979MOL0     C29132   1.121   9.864   2.399 -1.0842  1.3593 -0.2822
  979MOL0     C29133   1.240   9.907   2.304 -0.4233 -1.1886  0.5387
  979MOL0     C29134   1.234  10.058   2.273 -0.2655 -0.7667  0.2487
  979MOL0     C29135   1.279  10.084   2.129  0.4753  0.6905  0.4971
  979MOL0     C29136   1.280  10.234   2.101  0.1426  0.1614 -0.0233
  979MOL0     C29137   1.309  10.271   1.957  0.1897  0.1209  0.0439
  979MOL0     C29138   1.291  10.421   1.950 -0.6273  0.2430 -0.5453
  979MOL0     C29139   1.285  10.467   1.814  0.4247 -0.0752  0.7956
  979MOL0    Cl29140   1.237  10.642   1.818 -0.1142 -0.1246 -0.6067
  979MOL0     C29141   0.761   9.801   2.343 -0.2014  0.2147 -0.1823
  979MOL0     C29142   0.632   9.790   2.408 -0.4757  0.0261  0.0387
  979MOL0     O29143   0.517   9.591   2.673 -0.0801 -0.1852  0.9840
  979MOL0     C29144   0.382   9.619   2.910  0.5958  0.5814  0.0139
  979MOL0     C29145   0.305   9.630   3.027  0.6739  0.5080  0.3533
  979MOL0     N29146  -0.200   9.740   2.729 -0.0769 -0.5773 -0.5162
  979MOL0     N29147  -0.146   9.756   2.621 -0.0608  0.5308 -0.1546
  979MOL0     C29148   0.575  10.496   2.176  0.1360 -0.1411  0.2232
  979MOL0     C29149   0.666  10.602   2.189  0.6293  0.5954 -0.4261
  979MOL0     C29150   1.032  10.839   2.241 -0.9887 -0.4054 -0.5203
  979MOL0     C29151   1.067  10.931   2.139  0.1114 -0.0972  0.1374
  979MOL0     C29152   1.146  11.050   2.163  1.0382  0.6268 -0.1294
  979MOL0     C29153   1.194  11.073   2.290  1.5501  0.3465  0.3717
  979MOL0     O29154   1.249  11.192   2.314 -0.3039  0.9827 -0.2602
  979MOL0     C29155   1.285  11.236   2.438  0.1586  0.0815 -0.8095
  979MOL0     C29156   1.422  11.179   2.463 -0.2051  0.5614  0.0170
  979MOL0     C29157   1.440  11.154   2.610 -0.2392 -0.3252  0.4492
  979MOL0     C29158   1.552  11.043   2.618 -0.6906 -0.2224 -0.9194
  979MOL0     C29159   1.505  10.904   2.598 -0.2087 -0.4034 -0.7239
  979MOL0     C29160   1.453  10.798   2.578 -0.2070  0.1746 -0.8258
  979MOL0     C29161   1.170  10.977   2.395  0.0491  1.1682  0.4041
  979MOL0     C29162   1.089  10.864   2.365 -0.2819 -0.3645 -0.1517
  979MOL0     H29163   0.871  10.536   1.916 -1.1161 -1.0506 -0.6897
  979MOL0     H29164   0.701  10.360   1.902 -1.5087  2.0460 -0.7791
  979MOL0     H29165   0.687  10.176   2.109 -0.6731  2.1102  0.8466
  979MOL0     H29166   0.627  10.177   1.940  0.0272  0.6512 -0.5365
  979MOL0     H29167   0.559   9.960   2.023  1.0853  0.2810 -0.9717
  979MOL0     H29168   0.427  10.065   1.984 -0.0340  2.5562 -0.0479
  979MOL0     H29169   0.529  10.037   2.278  0.8137 -1.2017 -0.7886
  979MOL0     H29170   0.439   9.910   2.189 -0.2993 -0.4196  0.1376
  979MOL0     H29171   0.337  10.198   2.228 -0.1673 -0.4241 -1.9778
  979MOL0     H29172   0.241  10.083   2.151  1.8129  2.4520 -1.0108
  979MOL0     H29173   0.157  10.104   2.359 -0.2946  0.5981 -0.2710
  979MOL0     H29174   0.316  10.070   2.442  0.7283  0.0075 -1.2207
  979MOL0     H29175   0.322   9.831   2.354 -0.9360 -2.0180  1.9376
  979MOL0     H29176   0.174   9.862   2.271  0.8472 -3.4822  1.2647
  979MOL0     H29177   0.170   9.751   2.500 -1.5713 -0.2270  0.1689
  979MOL0     H29178   0.208   9.909   2.571  0.6444  0.0491 -0.1879
  979MOL0     H29179  -0.041   9.860   2.405  2.3831  1.3892 -0.8146
  979MOL0     H29180  -0.010  10.004   2.496  0.6702  0.5612 -2.5937
  979MOL0     H29181   0.009   9.985   2.797 -0.9666  1.1111 -0.1096
  979MOL0     H29182  -0.274   9.770   2.992  2.1288 -2.5676 -1.2502
  979MOL0     H29183  -0.259   9.946   2.969 -0.8179 -0.2577  1.9484
  979MOL0     H29184  -0.133   9.864   3.170  1.3377  1.6998 -0.1826
  979MOL0     H29185  -0.034   9.925   3.039  0.3325 -0.6273 -1.0155
  979MOL0     H29186  -0.110   9.628   3.085  1.9296 -0.2691  2.4411
  979MOL0     H29187   0.027   9.665   2.986 -1.5904 -3.2184 -0.3477
  979MOL0     H29188   0.105   9.587   3.214 -0.6779  0.4247 -0.3127
  979MOL0     H29189   0.035   9.728   3.292  3.0380 -1.1020  2.2720
  979MOL0     H29190   0.257   9.963   3.005 -1.2612 -0.4730 -0.7351
  979MOL0     H29191   0.387   9.934   2.806  1.2814  1.6224  2.7883
  979MOL0     H29192   0.754   9.837   2.717 -3.1216 -0.0844 -0.0480
  979MOL0     H29193   0.972   9.839   2.600  0.7513  2.0581 -1.7645
  979MOL0     H29194   1.140   9.761   2.429 -4.1135 -0.6551 -4.3767
  979MOL0     H29195   1.112   9.936   2.481  2.0201  2.1263 -0.4821
  979MOL0     H29196   1.234   9.854   2.209 -1.2718  1.4733 -1.0163
  979MOL0     H29197   1.335   9.885   2.354  0.1100  0.0086  0.1134
  979MOL0     H29198   1.314  10.107   2.331  1.8219 -0.6819 -2.4855
  979MOL0     H29199   1.140  10.111   2.288 -0.4831 -0.3195 -2.3078
  979MOL0     H29200   1.381  10.052   2.108  0.3643  2.0731 -2.8893
  979MOL0     H29201   1.211  10.034   2.059  1.5811  2.1011 -1.7022
  979MOL0     H29202   1.360  10.276   2.162  2.5212 -2.3890 -1.1643
  979MOL0     H29203   1.178  10.269   2.119  0.2845  1.1345 -0.9621
  979MOL0     H29204   1.243  10.215   1.890 -0.1700  1.3229 -0.6316
  979MOL0     H29205   1.413  10.246   1.936  0.5853  0.3159  1.6168
  979MOL0     H29206   1.194  10.451   1.991 -1.2124 -0.6993 -1.2203
  979MOL0     H29207   1.367  10.479   2.004 -0.3110 -2.2656  1.9308
  979MOL0     H29208   1.218  10.399   1.761 -2.2839  2.2523  1.0181
  979MOL0     H29209   1.382  10.457   1.764  0.7954 -1.8786  1.7864
  979MOL0     H29210   0.765   9.816   2.235 -2.0999  5.2127  0.1629
  979MOL0     H29211   0.540   9.776   2.352 -0.9443 -0.3802  0.8898
  979MOL0     H29212   0.420   9.522   2.881  1.7155  1.2478 -0.8494
  979MOL0     H29213   0.281   9.538   3.081 -2.0037 -1.3613 -3.5789
  979MOL0     H29214   0.492  10.485   2.244 -0.8431  0.6524 -0.7955
  979MOL0     H29215   0.664  10.678   2.266  0.0278 -0.5014  0.6726
  979MOL0     H29216   1.035  10.914   2.037  3.1756 -0.3688 -0.8661
  979MOL0     H29217   1.151  11.126   2.086  1.9547  0.9712  0.2490
  979MOL0     H29218   1.221  11.197   2.518  3.3724 -0.3640  1.7809
  979MOL0     H29219   1.288  11.346   2.439  0.0276  0.1625  2.1478
  979MOL0     H29220   1.454  11.094   2.402  2.3593  2.2412 -1.1668
  979MOL0     H29221   1.494  11.253   2.428 -0.2518  1.0556  0.9256
  979MOL0     H29222   1.350  11.130   2.667 -1.3225  1.0940 -0.5998
  979MOL0     H29223   1.473  11.252   2.645  0.6480 -0.1405 -0.8423
  979MOL0     H29224   1.630  11.068   2.546  0.7253  1.2080  0.9950
  979MOL0     H29225   1.593  11.050   2.719 -2.6409 -0.6672 -0.0575
  979MOL0     H29226   1.409  10.703   2.554 -1.5868  1.4198 -3.8393
  979MOL0     H29227   1.206  10.979   2.497  1.8543 -1.3391 -0.0753
  979MOL0     H29228   1.063  10.790   2.441  1.7953  0.9003  1.9236
  980MOL0     O29229   3.942   7.825   2.542 -0.2264 -0.7459  0.7551
  980MOL0     C29230   3.994   7.861   2.435 -0.1097 -0.2660  0.1474
  980MOL0     O29231   3.926   7.927   2.332 -0.3660  0.2678 -0.1709
  980MOL0     C29232   3.791   7.950   2.330  0.7755  0.8556  0.9385
  980MOL0     C29233   3.690   7.903   2.415 -1.1055 -0.3204  0.1678
  980MOL0     C29234   3.558   7.941   2.399 -0.1839  0.6434  0.3159
  980MOL0     C29235   3.522   8.023   2.289 -0.5431  0.7583 -1.0336
  980MOL0     O29236   3.395   8.052   2.260  0.1694 -0.0711  0.5362
  980MOL0     C29237   3.304   8.095   2.361  0.7154 -0.7204  0.2275
  980MOL0     C29238   3.194   8.180   2.298 -0.8143 -0.3461  0.7433
  980MOL0     C29239   3.131   8.094   2.189  0.7964  0.7315 -0.2001
  980MOL0     C29240   3.004   8.157   2.129 -0.4546 -0.4288 -0.0406
  980MOL0     C29241   3.035   8.251   2.002  0.8288  0.6877  0.1226
  980MOL0     C29242   3.116   8.182   1.878 -0.0676 -0.1885  0.5261
  980MOL0     C29243   3.052   8.219   1.747 -0.2277 -0.1213  0.5400
  980MOL0     C29244   3.126   8.178   1.625  0.0838 -0.3658  1.0672
  980MOL0     N29245   3.027   8.171   1.510  0.7731 -0.1406 -0.8877
  980MOL0     C29246   2.944   8.277   1.477  0.2537  0.1343  0.6827
  980MOL0     C29247   2.863   8.221   1.389  0.3440  0.2742 -0.1831
  980MOL0     C29248   2.762   8.301   1.314  0.8281 -0.7489 -0.3653
  980MOL0     C29249   2.616   8.273   1.356  0.8689 -0.3479  0.5426
  980MOL0     C29250   2.526   8.352   1.262  0.1030  0.8645 -0.0805
  980MOL0     C29251   2.526   8.280   1.118 -0.0314  0.1031 -0.0734
  980MOL0     O29252   2.419   8.339   1.047 -0.9542  0.0135  0.3249
  980MOL0     C29253   2.292   8.300   1.071  0.4194 -0.3447 -0.7385
  980MOL0     C29254   2.255   8.178   1.130  0.2409  0.2451 -0.3625
  980MOL0     C29255   2.120   8.150   1.139  0.5980  0.3639 -0.1826
  980MOL0     C29256   2.016   8.228   1.096  0.6508 -1.2836  0.2207
  980MOL0     C29257   1.881   8.193   1.109 -0.1686 -0.1261  0.2386
  980MOL0     O29258   1.856   8.058   1.142 -0.4333 -0.6250  0.3135
  980MOL0     C29259   1.725   8.048   1.175  0.3380 -0.2845 -0.7862
  980MOL0     C29260   1.618   8.047   1.075 -0.5861 -0.8067  0.6496
  980MOL0     C29261   1.489   8.016   1.109  0.2007  0.1262 -0.0098
  980MOL0     C29262   1.451   7.984   1.237  0.1548  0.3300 -0.1507
  980MOL0     O29263   1.325   7.959   1.283  0.4757  0.5235  0.2945
  980MOL0     C29264   1.230   7.902   1.187 -0.5531 -0.8803  0.3039
  980MOL0     C29265   1.121   7.814   1.252 -1.0743 -0.5727 -0.2761
  980MOL0     C29266   0.993   7.890   1.291  0.4921 -0.1448 -0.2666
  980MOL0     C29267   0.916   7.819   1.411 -0.0650 -0.1830  0.4496
  980MOL0     C29268   0.889   7.668   1.409  0.8515 -0.6978  0.9268
  980MOL0     C29269   0.799   7.629   1.524 -0.1874 -0.1766  0.3138
  980MOL0     C29270   0.779   7.474   1.522 -0.2212  0.6827  1.1638
  980MOL0     C29271   0.710   7.439   1.649  0.4510  0.3372 -0.5098
  980MOL0    Cl29272   0.809   7.457   1.793 -0.1768 -0.0755  0.0300
  980MOL0     C29273   1.548   7.981   1.335 -0.8313  0.9372 -0.2367
  980MOL0     C29274   1.683   7.995   1.304 -0.3531 -0.2700 -0.3852
  980MOL0     O29275   1.808   8.284   1.105  0.4719 -0.3008  0.6394
  980MOL0     C29276   2.050   8.339   1.015  0.0216  0.5722  0.3786
  980MOL0     C29277   2.191   8.369   1.005 -1.0038 -0.1002  1.3591
  980MOL0     N29278   2.898   8.085   1.368 -0.6324  0.5372  1.0346
  980MOL0     N29279   2.990   8.054   1.451 -0.1050  0.1531  0.7897
  980MOL0     C29280   3.620   8.060   2.193 -0.7437 -0.4638 -0.6745
  980MOL0     C29281   3.755   8.023   2.218  0.5033  0.1575 -0.3215
  980MOL0     C29282   4.131   7.811   2.413  1.0777  0.0560  1.0037
  980MOL0     C29283   4.178   7.822   2.280 -0.1081 -1.0880 -0.4965
  980MOL0     C29284   4.308   7.765   2.252 -0.5814 -0.6866  0.0784
  980MOL0     C29285   4.388   7.710   2.355 -0.0331  0.1945 -0.2005
  980MOL0     O29286   4.505   7.659   2.314 -0.0005 -1.3228  1.0121
  980MOL0     C29287   4.603   7.616   2.408  0.2050  0.4284  1.2925
  980MOL0     C29288   4.723   7.575   2.325 -1.5079 -0.4161 -0.4773
  980MOL0     C29289   4.848   7.525   2.409  0.8010 -0.3091 -0.1952
  980MOL0     C29290   4.900   7.631   2.514 -0.0203  1.1160  0.1677
  980MOL0     C29291   4.954   7.751   2.451 -0.2126  0.4857  0.3622
  980MOL0     C29292   5.002   7.847   2.403 -0.3244  0.5707 -0.7450
  980MOL0     C29293   4.343   7.722   2.487 -1.7202  0.4401 -0.5418
  980MOL0     C29294   4.212   7.767   2.514 -0.7395  0.0162  0.4350
  980MOL0     H29295   3.721   7.831   2.490  1.1087  1.6289  1.2693
  980MOL0     H29296   3.474   7.902   2.455  0.5830 -0.4675  0.7409
  980MOL0     H29297   3.359   8.153   2.436 -1.1416 -1.2921  2.1330
  980MOL0     H29298   3.251   8.021   2.421 -0.4773 -0.8309 -0.9211
  980MOL0     H29299   3.235   8.276   2.265 -2.3363  1.4464  3.6577
  980MOL0     H29300   3.121   8.198   2.377 -1.7821  0.7218 -0.3388
  980MOL0     H29301   3.106   8.001   2.241  0.5802  0.7615 -0.2533
  980MOL0     H29302   3.199   8.077   2.105  0.7166  1.8510 -0.5029
  980MOL0     H29303   2.945   8.068   2.105  1.3573 -1.5964 -0.3448
  980MOL0     H29304   2.954   8.220   2.203 -0.2100  1.0637 -1.1087
  980MOL0     H29305   3.100   8.334   2.031  0.4006 -0.0510  3.5023
  980MOL0     H29306   2.939   8.289   1.965  0.1068 -1.6822 -0.6277
  980MOL0     H29307   3.116   8.073   1.887 -1.2606 -0.3967 -1.3299
  980MOL0     H29308   3.215   8.228   1.880 -0.6772  1.1898  0.1508
  980MOL0     H29309   2.950   8.181   1.753 -1.2014  2.1137 -0.7962
  980MOL0     H29310   3.048   8.328   1.743  2.8418  0.0991  0.8992
  980MOL0     H29311   3.171   8.082   1.650  1.5997 -0.4629 -1.5781
  980MOL0     H29312   3.210   8.248   1.617 -0.7259  1.0047  3.4814
  980MOL0     H29313   2.931   8.376   1.518 -1.9476 -1.0627  3.1559
  980MOL0     H29314   2.783   8.266   1.213  0.9338 -3.3720  0.5002
  980MOL0     H29315   2.772   8.407   1.342 -0.7678 -1.0301  1.4964
  980MOL0     H29316   2.588   8.312   1.454  1.1727  0.0318  0.4798
  980MOL0     H29317   2.608   8.163   1.357  3.3293 -0.6104 -0.6269
  980MOL0     H29318   2.426   8.354   1.307  0.5216 -1.6246  1.1302
  980MOL0     H29319   2.545   8.457   1.241 -1.3049  1.0371 -0.5797
  980MOL0     H29320   2.512   8.171   1.112  0.0602 -0.0144  1.4547
  980MOL0     H29321   2.615   8.297   1.057  0.6196  0.8271  1.0289
  980MOL0     H29322   2.320   8.103   1.173 -2.4968 -1.6858  0.6998
  980MOL0     H29323   2.100   8.058   1.194  0.4017  1.0029  0.8286
  980MOL0     H29324   1.646   8.063   0.971  0.1619 -1.4057  0.7584
  980MOL0     H29325   1.413   8.032   1.033 -0.5431  0.2601  0.7469
  980MOL0     H29326   1.284   7.837   1.118  2.1580 -0.8891  2.2863
  980MOL0     H29327   1.177   7.984   1.136 -0.1537 -0.4478  0.5827
  980MOL0     H29328   1.175   7.770   1.337  2.4058  5.3005  1.1539
  980MOL0     H29329   1.092   7.745   1.172 -2.0276 -0.5468  0.0418
  980MOL0     H29330   0.920   7.888   1.210 -0.6165 -1.6032  0.7203
  980MOL0     H29331   1.022   7.994   1.312  0.6822 -0.2378 -0.0528
  980MOL0     H29332   0.975   7.839   1.500  0.0445  0.0920  0.3168
  980MOL0     H29333   0.823   7.875   1.426 -0.3402 -1.0173  2.0239
  980MOL0     H29334   0.992   7.632   1.401  1.1196  0.3831 -2.2404
  980MOL0     H29335   0.835   7.637   1.319  0.5386  0.6746  0.6176
  980MOL0     H29336   0.701   7.676   1.515 -1.6109 -2.9186  0.4087
  980MOL0     H29337   0.850   7.659   1.616 -0.1723 -3.0668  1.3348
  980MOL0     H29338   0.719   7.438   1.437  4.4066 -2.3383 -1.2325
  980MOL0     H29339   0.878   7.428   1.519  0.3738  1.9538  0.6451
  980MOL0     H29340   0.680   7.334   1.646 -0.1503  0.3282  2.5567
  980MOL0     H29341   0.617   7.496   1.660  0.2668  0.6265 -3.0930
  980MOL0     H29342   1.509   7.966   1.435 -1.2612 -0.5826 -0.6112
  980MOL0     H29343   1.763   7.989   1.378  3.1059  1.5580 -3.6259
  980MOL0     H29344   1.977   8.405   0.968 -1.4008 -1.2192 -0.0744
  980MOL0     H29345   2.226   8.457   0.951 -4.7808  2.0806  2.0515
  980MOL0     H29346   3.598   8.127   2.110 -1.8175  1.6697  1.2352
  980MOL0     H29347   3.818   8.064   2.140  0.0926  0.3420 -0.5624
  980MOL0     H29348   4.120   7.869   2.201  0.7133  1.1371  0.1487
  980MOL0     H29349   4.339   7.764   2.148 -1.6130 -0.9280 -0.2455
  980MOL0     H29350   4.562   7.535   2.469 -1.7384  1.7140  1.7840
  980MOL0     H29351   4.624   7.705   2.469 -1.1654  2.5452 -1.1332
  980MOL0     H29352   4.688   7.499   2.254 -1.8062 -0.3621 -0.3912
  980MOL0     H29353   4.765   7.664   2.277  2.0401 -1.2738  0.7564
  980MOL0     H29354   4.927   7.503   2.337  1.3745  0.6902  0.1034
  980MOL0     H29355   4.822   7.436   2.468 -0.6935  1.7678  2.5399
  980MOL0     H29356   4.814   7.662   2.575 -2.1567  1.2355 -2.6867
  980MOL0     H29357   4.976   7.581   2.575 -0.5468 -3.2375 -2.3538
  980MOL0     H29358   5.037   7.946   2.378  0.7403  0.4524  0.1725
  980MOL0     H29359   4.403   7.684   2.569 -2.7587  0.1662  0.1119
  980MOL0     H29360   4.175   7.778   2.616  0.6630  0.8195  0.8851
  981MOL0     O29361   6.649   4.984   5.248 -0.2261 -0.1132  0.1692
  981MOL0     C29362   6.700   4.962   5.357  0.5762 -0.1868  0.0454
  981MOL0     O29363   6.631   4.955   5.472  0.3366  0.2493 -0.7193
  981MOL0     C29364   6.498   4.998   5.476  0.0318  0.5200 -0.3287
  981MOL0     C29365   6.466   5.122   5.523 -0.0800 -0.8477  0.1987
  981MOL0     C29366   6.330   5.166   5.525 -0.2484 -0.0691  0.2076
  981MOL0     C29367   6.223   5.074   5.493 -0.2140 -0.4471 -0.7490
  981MOL0     O29368   6.089   5.128   5.505 -0.0823  0.1489  0.9276
  981MOL0     C29369   5.987   5.027   5.520 -0.2763 -0.4821 -0.2309
  981MOL0     C29370   5.899   5.104   5.618 -0.4803  0.2787  0.3606
  981MOL0     C29371   5.746   5.081   5.622  0.3227  0.0984  0.5804
  981MOL0     C29372   5.681   5.090   5.478 -0.2101 -0.2635 -0.5387
  981MOL0     C29373   5.527   5.103   5.478 -0.1661  0.0712 -0.3015
  981MOL0     C29374   5.459   4.974   5.516  0.2203  1.0398  0.0756
  981MOL0     C29375   5.305   4.981   5.485 -0.5114 -0.7355 -0.2598
  981MOL0     C29376   5.211   4.871   5.531  0.3843 -1.5257  0.9585
  981MOL0     N29377   5.265   4.813   5.652  0.4445 -0.0610  0.2647
  981MOL0     C29378   5.228   4.853   5.778  0.1785  0.8646 -0.4165
  981MOL0     C29379   5.284   4.762   5.853  0.5940  0.1701 -0.8365
  981MOL0     C29380   5.272   4.743   6.006 -1.2541 -0.1791  0.2797
  981MOL0     C29381   5.404   4.763   6.077 -0.5760 -0.5785 -0.3558
  981MOL0     C29382   5.410   4.692   6.218  0.1952  0.0962 -0.9905
  981MOL0     C29383   5.320   4.758   6.331 -0.2364  0.4674  0.5917
  981MOL0     O29384   5.385   4.885   6.346  0.6150  1.1183 -0.1344
  981MOL0     C29385   5.314   4.985   6.399 -0.1326  0.3220 -0.4891
  981MOL0     C29386   5.312   5.102   6.327 -0.5876 -0.2722 -0.5012
  981MOL0     C29387   5.218   5.199   6.366 -0.2912 -0.4865  0.3593
  981MOL0     C29388   5.152   5.196   6.487 -0.2822  0.0100  0.7007
  981MOL0     C29389   5.073   5.306   6.523 -0.3942 -0.4160 -0.0061
  981MOL0     O29390   5.042   5.401   6.427 -0.4155  0.3912 -0.9109
  981MOL0     C29391   4.982   5.523   6.462  0.7006  1.0324  0.0140
  981MOL0     C29392   5.005   5.636   6.385 -0.3294 -0.5969 -0.0483
  981MOL0     C29393   4.939   5.761   6.406  0.5302  0.6420 -0.6088
  981MOL0     C29394   4.844   5.767   6.507 -0.2641  1.1489 -0.2726
  981MOL0     O29395   4.780   5.882   6.533  0.5281  0.4448 -0.0049
  981MOL0     C29396   4.713   5.883   6.662 -1.1789 -0.2990 -0.1647
  981MOL0     C29397   4.658   6.025   6.675 -0.4849  0.1984 -0.2017
  981MOL0     C29398   4.772   6.124   6.668  0.7057 -0.5907 -0.8505
  981MOL0     C29399   4.712   6.253   6.603  0.1737 -0.3139 -0.3149
  981MOL0     C29400   4.605   6.309   6.697 -0.5744  0.5580  0.6143
  981MOL0     C29401   4.548   6.428   6.640 -0.1545 -0.1275 -0.3650
  981MOL0     C29402   4.434   6.402   6.531 -0.2723 -0.1787 -0.1571
  981MOL0     C29403   4.362   6.533   6.515 -0.0210  0.1312  0.5940
  981MOL0    Cl29404   4.303   6.617   6.658 -0.2662  0.1968  0.0393
  981MOL0     C29405   4.805   5.645   6.569 -0.7021  0.2148  0.4827
  981MOL0     C29406   4.871   5.528   6.545 -0.5809  0.3911 -0.0548
  981MOL0     O29407   5.047   5.315   6.644  0.2159  0.2561  0.1945
  981MOL0     C29408   5.168   5.077   6.565 -0.1044  0.0410 -0.2663
  981MOL0     C29409   5.240   4.970   6.516  0.1857  0.4698  0.1687
  981MOL0     N29410   5.369   4.680   5.777  0.8108  0.5696  0.6032
  981MOL0     N29411   5.355   4.716   5.652  0.2793  0.3713  0.3826
  981MOL0     C29412   6.263   4.943   5.462 -1.0046  0.0900  0.0495
  981MOL0     C29413   6.398   4.907   5.442  0.4951 -0.1979 -0.0333
  981MOL0     C29414   6.843   4.939   5.376 -0.1251  0.1164  0.5436
  981MOL0     C29415   6.900   4.931   5.501  0.3157 -0.9581 -0.5273
  981MOL0     C29416   7.033   4.912   5.514 -0.3585  0.5573  0.1873
  981MOL0     C29417   7.120   4.884   5.410  0.5780  0.0862 -0.3144
  981MOL0     O29418   7.251   4.863   5.419  0.0541  0.1640 -0.2961
  981MOL0     C29419   7.314   4.891   5.543 -0.6060  0.3379 -0.5064
  981MOL0     C29420   7.464   4.893   5.523 -0.5724  0.7537  0.2201
  981MOL0     C29421   7.514   4.993   5.411  0.3616  0.4132  0.2399
  981MOL0     C29422   7.614   5.100   5.487 -0.0467 -0.1891 -0.2938
  981MOL0     C29423   7.758   5.081   5.461 -0.6565  0.9633  0.0039
  981MOL0     C29424   7.870   5.040   5.432  0.1615 -0.3330 -0.0890
  981MOL0     C29425   7.058   4.899   5.278 -0.1448 -0.2125 -0.7148
  981MOL0     C29426   6.926   4.921   5.265 -0.6339 -0.4030  0.4582
  981MOL0     H29427   6.550   5.184   5.554  1.1372 -2.8529  1.0469
  981MOL0     H29428   6.298   5.267   5.550 -1.3972  0.4431 -2.9285
  981MOL0     H29429   6.027   4.937   5.569 -0.3082  0.8371  2.3739
  981MOL0     H29430   5.927   5.000   5.432 -0.5971  0.6784 -0.3766
  981MOL0     H29431   5.901   5.213   5.612 -1.1574  0.8321  5.5920
  981MOL0     H29432   5.923   5.080   5.722 -0.5979 -0.4260  0.2297
  981MOL0     H29433   5.702   5.159   5.685  2.3131  2.1375 -0.4128
  981MOL0     H29434   5.731   4.979   5.660  2.2553 -0.6436 -0.5348
  981MOL0     H29435   5.733   5.164   5.416 -0.9747 -2.8551 -4.5972
  981MOL0     H29436   5.705   5.005   5.414  0.0581  1.6180 -3.1223
  981MOL0     H29437   5.484   5.134   5.382 -2.7081 -2.2591 -0.0565
  981MOL0     H29438   5.484   5.181   5.541 -2.9219 -2.1661  0.8302
  981MOL0     H29439   5.472   4.959   5.623 -0.1685 -2.0412 -0.2160
  981MOL0     H29440   5.501   4.882   5.473 -0.2035  0.3624  1.0678
  981MOL0     H29441   5.265   5.075   5.524 -0.1683 -1.0907  0.9649
  981MOL0     H29442   5.293   4.976   5.376 -1.7937 -0.0649 -0.1596
  981MOL0     H29443   5.190   4.810   5.443  0.1069  2.3409 -1.9308
  981MOL0     H29444   5.115   4.914   5.563 -0.5823 -2.6367 -0.3686
  981MOL0     H29445   5.172   4.941   5.807 -0.7013  0.0538  0.4285
  981MOL0     H29446   5.247   4.640   6.033  3.3552 -1.1865  1.6594
  981MOL0     H29447   5.200   4.810   6.054 -1.5914 -0.5094  0.2291
  981MOL0     H29448   5.421   4.869   6.097 -0.6546 -0.6867  0.3320
  981MOL0     H29449   5.482   4.714   6.018 -2.4131 -3.5475 -0.5243
  981MOL0     H29450   5.380   4.588   6.204  2.1605 -0.4814 -1.1802
  981MOL0     H29451   5.507   4.679   6.267 -0.2963  1.3528  0.4109
  981MOL0     H29452   5.320   4.702   6.426 -0.4599  1.2377  1.0529
  981MOL0     H29453   5.219   4.766   6.290 -1.2647  0.7130  2.9603
  981MOL0     H29454   5.371   5.114   6.237  0.6404 -1.6494  0.0613
  981MOL0     H29455   5.195   5.281   6.298 -1.7656 -1.4929 -0.4151
  981MOL0     H29456   5.070   5.630   6.299 -0.7847 -0.3135 -0.4173
  981MOL0     H29457   4.965   5.857   6.362  0.8526  0.0665 -1.7250
  981MOL0     H29458   4.787   5.856   6.739  0.7860  0.5614 -1.6477
  981MOL0     H29459   4.629   5.815   6.679  0.0684 -2.5237 -2.1917
  981MOL0     H29460   4.608   6.033   6.772 -1.6680 -0.2221 -0.7653
  981MOL0     H29461   4.578   6.043   6.603 -0.2500 -1.3273 -0.8839
  981MOL0     H29462   4.862   6.086   6.619  3.2452  2.9641  0.5685
  981MOL0     H29463   4.783   6.153   6.774 -0.7155 -1.6449 -0.3922
  981MOL0     H29464   4.790   6.329   6.590  0.9599 -1.1967 -0.8519
  981MOL0     H29465   4.667   6.238   6.504  0.4572 -0.6645 -0.3925
  981MOL0     H29466   4.654   6.335   6.791  3.1561 -1.2630 -0.6342
  981MOL0     H29467   4.514   6.251   6.718  0.4977 -1.2597  0.4328
  981MOL0     H29468   4.619   6.498   6.595 -2.0490  1.6936 -0.6846
  981MOL0     H29469   4.512   6.485   6.727 -0.0248 -0.9878  0.2698
  981MOL0     H29470   4.478   6.348   6.446 -0.1692 -0.6330  0.1812
  981MOL0     H29471   4.356   6.338   6.572 -0.1446 -0.1196  0.1809
  981MOL0     H29472   4.284   6.521   6.440 -1.2234  2.6857  1.3597
  981MOL0     H29473   4.440   6.592   6.465 -0.3669  0.1674  0.0995
  981MOL0     H29474   4.723   5.633   6.639 -1.0683  3.2066  0.6614
  981MOL0     H29475   4.844   5.439   6.602  1.8185 -0.4704 -0.1249
  981MOL0     H29476   5.115   5.055   6.657 -1.4238 -3.1738 -1.6192
  981MOL0     H29477   5.236   4.881   6.577 -1.3802  0.3892  0.0040
  981MOL0     H29478   6.194   4.867   5.425 -1.0250  1.5805 -3.3075
  981MOL0     H29479   6.442   4.814   5.408 -0.1863  0.1029 -1.8132
  981MOL0     H29480   6.851   4.949   5.597  1.6657 -2.6091  0.5360
  981MOL0     H29481   7.069   4.939   5.613  0.6329 -0.7815  0.2162
  981MOL0     H29482   7.297   4.802   5.605  0.5327  1.3479  1.3339
  981MOL0     H29483   7.277   4.979   5.596  0.2265  0.6497 -0.4284
  981MOL0     H29484   7.515   4.905   5.620 -1.0630 -0.1526  0.6064
  981MOL0     H29485   7.490   4.791   5.495 -1.5699  0.8514 -1.1162
  981MOL0     H29486   7.424   5.042   5.372 -1.4093 -2.1280  0.8728
  981MOL0     H29487   7.562   4.943   5.326  3.1841  3.4121 -0.1218
  981MOL0     H29488   7.580   5.197   5.449 -0.5370  0.8858  2.5902
  981MOL0     H29489   7.592   5.110   5.594 -0.1626  1.0352 -0.4097
  981MOL0     H29490   7.969   5.000   5.426 -0.1636 -2.9104  5.5128
  981MOL0     H29491   7.115   4.887   5.187  0.1812  2.0623 -0.8692
  981MOL0     H29492   6.878   4.938   5.169  1.2983  3.2724 -0.0355
  982MOL0     O29493   3.778   5.251   1.539  0.0391 -0.8087  0.1625
  982MOL0     C29494   3.761   5.347   1.463 -0.0466 -0.6257  0.3446
  982MOL0     O29495   3.705   5.465   1.506 -0.7483 -0.9882  0.0575
  982MOL0     C29496   3.678   5.482   1.642 -0.7181 -0.1120 -0.7877
  982MOL0     C29497   3.747   5.584   1.704  0.0282  0.2692  0.3517
  982MOL0     C29498   3.710   5.630   1.835  0.4479 -0.1130  0.0223
  982MOL0     C29499   3.602   5.564   1.904 -0.1722 -0.3042  0.6090
  982MOL0     O29500   3.567   5.611   2.025 -0.2662 -0.7592  0.5194
  982MOL0     C29501   3.492   5.534   2.107 -0.0483  0.9732 -0.4204
  982MOL0     C29502   3.509   5.586   2.243  0.1592 -1.1904 -0.1865
  982MOL0     C29503   3.415   5.526   2.342 -0.0239  0.9728 -0.2274
  982MOL0     C29504   3.269   5.571   2.314 -0.1669 -0.5514  0.0977
  982MOL0     C29505   3.191   5.560   2.452 -0.2701  0.8787 -0.1802
  982MOL0     C29506   3.046   5.623   2.428  0.1742  0.3268  0.7914
  982MOL0     C29507   2.981   5.632   2.565  0.6787 -0.0717  0.0619
  982MOL0     C29508   2.829   5.631   2.549  0.4381  0.2434 -0.3217
  982MOL0     N29509   2.746   5.608   2.676 -0.8070 -0.1808  0.7361
  982MOL0     C29510   2.722   5.482   2.728  0.6974 -0.3350  0.8306
  982MOL0     C29511   2.668   5.507   2.843 -0.3345 -0.5115 -0.7390
  982MOL0     C29512   2.626   5.403   2.942 -0.7958 -0.1514  1.0161
  982MOL0     C29513   2.581   5.467   3.076  0.5589 -0.4513  0.7442
  982MOL0     C29514   2.701   5.520   3.156  0.2206  0.0143  0.8029
  982MOL0     C29515   2.809   5.416   3.196 -0.4341 -0.7474  1.1431
  982MOL0     O29516   2.747   5.312   3.280  0.1164  0.4736  0.1613
  982MOL0     C29517   2.827   5.223   3.342 -0.1027  0.0132 -0.1561
  982MOL0     C29518   2.761   5.132   3.436  0.3540 -0.2668  0.2509
  982MOL0     C29519   2.834   5.036   3.501 -0.2478  0.1839 -0.3618
  982MOL0     C29520   2.975   5.023   3.490  1.4144 -0.3628 -0.1258
  982MOL0     C29521   3.047   4.902   3.553  0.4970 -0.2158  0.2733
  982MOL0     O29522   3.179   4.921   3.556  0.5079  0.6081 -0.1103
  982MOL0     C29523   3.281   4.840   3.595 -0.8887 -0.3680 -0.8069
  982MOL0     C29524   3.406   4.898   3.576 -0.2244  0.5133 -0.0452
  982MOL0     C29525   3.518   4.828   3.608 -0.2227  0.3958  0.4209
  982MOL0     C29526   3.503   4.700   3.660 -0.4037 -0.0554 -0.5487
  982MOL0     O29527   3.618   4.633   3.685 -0.3425  0.2939  0.2947
  982MOL0     C29528   3.619   4.532   3.779  0.0698  0.2679 -0.2071
  982MOL0     C29529   3.753   4.470   3.804  0.7089 -0.6756 -0.0650
  982MOL0     C29530   3.845   4.451   3.684 -0.3379  0.9795  0.3522
  982MOL0     C29531   3.929   4.579   3.654 -0.2421  0.2747 -0.4552
  982MOL0     C29532   4.019   4.556   3.530 -0.2504 -0.4042 -0.5522
  982MOL0     C29533   3.932   4.616   3.410 -0.3823  0.2330  0.6406
  982MOL0     C29534   4.007   4.590   3.282  0.0627  0.6115 -0.1651
  982MOL0     C29535   3.966   4.691   3.170 -0.7312 -0.7742 -0.1610
  982MOL0    Cl29536   3.799   4.672   3.103 -0.2515 -0.4753  0.0562
  982MOL0     C29537   3.378   4.641   3.678 -0.0705 -0.2327 -0.4145
  982MOL0     C29538   3.264   4.711   3.642  0.1682  0.1295 -0.7739
  982MOL0     O29539   2.983   4.801   3.596  0.5500  0.6425  0.3587
  982MOL0     C29540   3.045   5.125   3.414 -0.2852 -0.3869 -0.0746
  982MOL0     C29541   2.964   5.218   3.338  0.3393  0.4613 -1.0525
  982MOL0     N29542   2.664   5.642   2.857  0.0335 -0.4305 -0.1793
  982MOL0     N29543   2.703   5.706   2.763 -0.4110  0.1272  0.0252
  982MOL0     C29544   3.547   5.453   1.842  0.0520  1.4411  0.0733
  982MOL0     C29545   3.591   5.409   1.711  0.3292 -0.2014 -0.3100
  982MOL0     C29546   3.813   5.344   1.318  0.7282  0.3362  0.0934
  982MOL0     C29547   3.826   5.463   1.256  1.4601 -0.3994  0.3305
  982MOL0     C29548   3.884   5.483   1.129  1.1428 -0.5495  0.8104
  982MOL0     C29549   3.927   5.373   1.062 -0.0834  0.1296 -0.0960
  982MOL0     O29550   3.989   5.382   0.948  0.0853 -0.2102  0.6875
  982MOL0     C29551   4.104   5.453   0.915 -0.1289  0.4853  0.3223
  982MOL0     C29552   4.142   5.399   0.779 -0.3552 -0.5485 -0.3023
  982MOL0     C29553   4.242   5.475   0.688  0.1243  0.4441 -0.5859
  982MOL0     C29554   4.353   5.539   0.764 -0.1766 -0.2242 -0.0900
  982MOL0     C29555   4.410   5.638   0.676  0.3303 -0.3669 -1.1869
  982MOL0     C29556   4.456   5.704   0.581  0.2017 -0.2177 -0.1358
  982MOL0     C29557   3.911   5.248   1.126  0.1884 -0.0149  0.0047
  982MOL0     C29558   3.844   5.227   1.248 -0.5717  0.3608  0.6337
  982MOL0     H29559   3.830   5.632   1.654  0.7742  0.5643  1.8195
  982MOL0     H29560   3.757   5.713   1.886 -0.4497  2.6588 -3.2638
  982MOL0     H29561   3.524   5.430   2.119 -0.7194  1.0643  2.9257
  982MOL0     H29562   3.387   5.525   2.076 -0.7840 -1.2812  2.2891
  982MOL0     H29563   3.490   5.694   2.239  0.0590 -1.2352 -1.0893
  982MOL0     H29564   3.610   5.570   2.283  0.1944 -1.5675 -0.4239
  982MOL0     H29565   3.443   5.549   2.445 -0.0001  0.3930 -0.1019
  982MOL0     H29566   3.428   5.418   2.339 -1.1093  0.8330 -0.2431
  982MOL0     H29567   3.264   5.676   2.285 -0.0761 -1.0683 -1.9079
  982MOL0     H29568   3.231   5.510   2.232  1.1992  1.0806 -1.8485
  982MOL0     H29569   3.237   5.625   2.527  0.4686  1.4531 -1.1192
  982MOL0     H29570   3.188   5.457   2.489  1.3164  1.0668  0.5390
  982MOL0     H29571   3.001   5.557   2.354  0.7703  1.6203 -0.7853
  982MOL0     H29572   3.050   5.720   2.377  2.5577 -0.7418 -1.2586
  982MOL0     H29573   3.021   5.562   2.639  0.3635  1.5033  1.8081
  982MOL0     H29574   3.011   5.728   2.608 -0.7570 -1.0051  3.5137
  982MOL0     H29575   2.782   5.553   2.488 -2.0393 -0.3185  2.0818
  982MOL0     H29576   2.798   5.730   2.516 -2.4797 -0.5868 -0.3116
  982MOL0     H29577   2.744   5.388   2.679 -1.8660  0.8634 -3.1384
  982MOL0     H29578   2.707   5.333   2.967 -0.6409 -0.5911 -0.5966
  982MOL0     H29579   2.547   5.341   2.898 -2.1923  0.5487  2.4568
  982MOL0     H29580   2.523   5.393   3.132  0.0730 -2.0504 -1.7379
  982MOL0     H29581   2.510   5.545   3.047  0.4691 -1.2870 -1.4601
  982MOL0     H29582   2.746   5.598   3.094 -0.4100  0.1573  0.5116
  982MOL0     H29583   2.683   5.579   3.246 -1.0262  0.4809  0.2750
  982MOL0     H29584   2.887   5.470   3.250 -2.6355  1.8362  1.9379
  982MOL0     H29585   2.851   5.367   3.108 -2.4041 -1.5462  0.5941
  982MOL0     H29586   2.654   5.137   3.451  0.2620 -1.4368  0.0346
  982MOL0     H29587   2.780   4.983   3.578 -0.2421  0.0063 -0.4784
  982MOL0     H29588   3.403   4.997   3.534 -2.0477  0.0571 -1.0833
  982MOL0     H29589   3.612   4.874   3.579 -0.4946  1.2077  0.7796
  982MOL0     H29590   3.564   4.447   3.738  1.9063 -0.5175 -1.1228
  982MOL0     H29591   3.564   4.559   3.869 -0.1224 -1.5312  0.2384
  982MOL0     H29592   3.738   4.370   3.846  2.7846 -0.8156  0.4542
  982MOL0     H29593   3.808   4.533   3.874  1.2595 -1.0823 -0.1272
  982MOL0     H29594   3.789   4.423   3.594  1.0800  0.5591 -0.4322
  982MOL0     H29595   3.916   4.369   3.695  0.0402  0.8169 -2.5047
  982MOL0     H29596   3.860   4.664   3.648 -2.3835 -1.0961  2.2850
  982MOL0     H29597   3.980   4.608   3.747 -2.7304 -3.1954  2.3154
  982MOL0     H29598   4.047   4.451   3.518 -1.1603 -0.6261 -0.7735
  982MOL0     H29599   4.114   4.611   3.538  0.2934 -1.4260  0.2281
  982MOL0     H29600   3.929   4.725   3.425  0.0699  0.4632 -0.7795
  982MOL0     H29601   3.833   4.573   3.396 -1.4265  2.6810 -0.0574
  982MOL0     H29602   4.114   4.593   3.307  0.5136 -5.5781  0.2021
  982MOL0     H29603   3.986   4.486   3.257 -1.5335  1.3322 -2.0522
  982MOL0     H29604   4.027   4.687   3.079 -0.6687 -0.7625 -0.1199
  982MOL0     H29605   3.965   4.794   3.208  0.8310 -0.4970 -0.8084
  982MOL0     H29606   3.353   4.541   3.710 -1.9106 -0.7473 -3.1512
  982MOL0     H29607   3.166   4.667   3.657 -1.0186  1.3543 -4.0554
  982MOL0     H29608   3.153   5.130   3.410  0.1149 -4.8333 -0.1323
  982MOL0     H29609   3.017   5.287   3.272 -0.7625  0.6065 -1.8098
  982MOL0     H29610   3.468   5.405   1.899  1.3534 -3.5177 -1.8120
  982MOL0     H29611   3.547   5.323   1.663  0.8515  0.0651 -1.3025
  982MOL0     H29612   3.800   5.561   1.296  0.0149 -0.1207 -1.1915
  982MOL0     H29613   3.889   5.578   1.077  0.0375 -1.9364 -2.0165
  982MOL0     H29614   4.188   5.433   0.982 -0.8829  1.9028  1.7419
  982MOL0     H29615   4.081   5.560   0.908  0.0502  0.5096  0.0944
  982MOL0     H29616   4.178   5.296   0.783  0.5697 -0.5005 -3.8289
  982MOL0     H29617   4.045   5.397   0.729 -0.6739  2.1377  0.0467
  982MOL0     H29618   4.184   5.542   0.623 -0.6813  1.0646  0.7354
  982MOL0     H29619   4.278   5.407   0.611 -1.5934 -0.0011 -1.0363
  982MOL0     H29620   4.323   5.599   0.850  0.1256  1.9884 -1.4471
  982MOL0     H29621   4.426   5.464   0.796 -0.5903 -0.6297 -0.0980
  982MOL0     H29622   4.482   5.745   0.485  1.7825 -0.9695 -0.0570
  982MOL0     H29623   3.941   5.151   1.088 -2.0428 -0.8057  0.0796
  982MOL0     H29624   3.827   5.132   1.295 -2.1749 -0.4623 -1.4364
  983MOL0     O29625   4.479   9.038   6.535  0.5712  0.6086  0.4025
  983MOL0     C29626   4.526   8.975   6.446  0.7774  0.0548  0.7854
  983MOL0     O29627   4.470   8.859   6.394 -0.1214 -0.1553  0.3662
  983MOL0     C29628   4.355   8.795   6.421  0.4144  0.7051  0.2550
  983MOL0     C29629   4.328   8.745   6.551  0.9302  0.6635 -0.2998
  983MOL0     C29630   4.200   8.698   6.593 -0.6148  0.1375  0.7493
  983MOL0     C29631   4.107   8.684   6.484 -0.7691 -1.0778 -0.1649
  983MOL0     O29632   3.980   8.629   6.502  0.1039 -0.4376 -0.5620
  983MOL0     C29633   3.936   8.524   6.602  0.0914 -0.4308 -0.6475
  983MOL0     C29634   3.802   8.530   6.663 -0.2747 -0.7105 -0.5715
  983MOL0     C29635   3.691   8.525   6.550  0.0263  0.2311 -0.4219
  983MOL0     C29636   3.657   8.384   6.507 -0.4305 -0.1365  0.1524
  983MOL0     C29637   3.532   8.373   6.425  0.8105  1.2082  0.1825
  983MOL0     C29638   3.506   8.232   6.382  0.0707  0.1149  0.5473
  983MOL0     C29639   3.593   8.162   6.269 -0.0826  0.6585 -0.0918
  983MOL0     C29640   3.542   8.026   6.241 -0.8063 -0.7816  0.4824
  983MOL0     N29641   3.425   8.016   6.145 -0.4644  0.0079 -0.1126
  983MOL0     C29642   3.289   8.039   6.164 -0.0382 -0.1075  0.1592
  983MOL0     C29643   3.224   8.039   6.055  1.1452  0.2138  0.7322
  983MOL0     C29644   3.069   8.067   6.029 -1.3116 -0.8930 -0.4252
  983MOL0     C29645   2.989   7.940   6.016 -0.0689 -0.0807 -0.0222
  983MOL0     C29646   2.920   7.895   5.887  0.8294  0.3298 -0.7250
  983MOL0     C29647   2.794   7.982   5.843 -0.1159  0.3357 -0.6197
  983MOL0     O29648   2.849   8.103   5.783 -0.2803  1.0758  0.4591
  983MOL0     C29649   2.770   8.178   5.699  0.2965 -1.4062 -0.4629
  983MOL0     C29650   2.631   8.201   5.719  1.1472 -0.4463 -0.0057
  983MOL0     C29651   2.551   8.272   5.620  0.0736  0.3013 -0.3992
  983MOL0     C29652   2.619   8.337   5.513  0.4268  0.8226 -0.7469
  983MOL0     C29653   2.544   8.402   5.398  0.1542 -0.7194 -0.7484
  983MOL0     O29654   2.403   8.377   5.391 -0.4086 -0.9518  0.6559
  983MOL0     C29655   2.327   8.431   5.294  1.7618  0.0070  0.5168
  983MOL0     C29656   2.236   8.527   5.331  0.2751 -0.0255 -0.5515
  983MOL0     C29657   2.135   8.576   5.252  0.0336 -1.0593  0.8715
  983MOL0     C29658   2.131   8.531   5.118 -0.5289 -0.2412  0.2176
  983MOL0     O29659   2.031   8.583   5.036  0.6182  0.4805 -0.5770
  983MOL0     C29660   2.014   8.547   4.897 -0.1509 -0.1499  0.0302
  983MOL0     C29661   1.895   8.623   4.834 -0.2480  0.1053 -0.4253
  983MOL0     C29662   1.930   8.766   4.810  0.4785  0.2109 -0.6624
  983MOL0     C29663   1.810   8.850   4.781 -0.1440 -0.0452  0.4202
  983MOL0     C29664   1.839   8.999   4.810  0.1166 -0.4706  0.0171
  983MOL0     C29665   1.715   9.077   4.770 -0.9615 -0.6133  0.4537
  983MOL0     C29666   1.731   9.220   4.822  1.1876  0.0077  0.2599
  983MOL0     C29667   1.626   9.316   4.763 -0.1554  0.6610  0.3545
  983MOL0    Cl29668   1.647   9.335   4.583  0.3434  0.0729 -0.6829
  983MOL0     C29669   2.215   8.435   5.084  0.4226  0.5294 -0.1747
  983MOL0     C29670   2.313   8.383   5.170 -0.9456 -0.5258  0.5938
  983MOL0     O29671   2.604   8.481   5.331  0.5484 -1.0149  0.9572
  983MOL0     C29672   2.760   8.331   5.505 -0.1544  0.1343  0.2692
  983MOL0     C29673   2.837   8.252   5.592  0.4145 -0.4006 -0.3423
  983MOL0     N29674   3.320   7.983   5.962 -0.7082 -0.2411 -0.3708
  983MOL0     N29675   3.434   7.972   6.017 -0.9066 -0.0385 -0.1036
  983MOL0     C29676   4.139   8.714   6.347 -0.2611 -0.1747  0.2103
  983MOL0     C29677   4.260   8.784   6.323  0.2604  0.1827 -1.8657
  983MOL0     C29678   4.638   9.029   6.370 -0.4077 -0.7412 -0.0129
  983MOL0     C29679   4.753   8.947   6.349 -0.7193 -0.1570  0.2088
  983MOL0     C29680   4.855   8.993   6.265 -0.5471  0.4816  0.4134
  983MOL0     C29681   4.852   9.121   6.210 -0.8031  0.0636  1.0868
  983MOL0     O29682   4.957   9.155   6.136 -0.1786 -0.1849  0.4164
  983MOL0     C29683   4.958   9.288   6.076 -1.1161  1.0171 -0.0852
  983MOL0     C29684   5.024   9.394   6.171 -0.5006 -0.5987  0.1530
  983MOL0     C29685   5.178   9.373   6.188  0.2554 -0.1413  0.7934
  983MOL0     C29686   5.226   9.471   6.291  0.8322 -0.0779  0.0188
  983MOL0     C29687   5.366   9.443   6.316  0.5816  0.9765  0.0973
  983MOL0     C29688   5.469   9.406   6.348  0.1031 -0.3804  0.0138
  983MOL0     C29689   4.744   9.208   6.244  0.9256 -0.1631  0.1207
  983MOL0     C29690   4.640   9.162   6.326 -0.4003 -0.9171 -0.4329
  983MOL0     H29691   4.411   8.762   6.619  2.4769  1.7221 -2.3239
  983MOL0     H29692   4.195   8.652   6.691  0.9347 -1.0127  0.3350
  983MOL0     H29693   4.007   8.531   6.684  1.0504  0.0740 -1.4999
  983MOL0     H29694   3.941   8.422   6.562  0.2358 -1.8930  2.7909
  983MOL0     H29695   3.785   8.625   6.714 -1.2016 -1.2757  0.2169
  983MOL0     H29696   3.805   8.468   6.753  0.7970  1.0150  0.6494
  983MOL0     H29697   3.735   8.587   6.472  0.0965 -0.3521 -0.8566
  983MOL0     H29698   3.607   8.580   6.594 -0.1843  1.4880 -2.2774
  983MOL0     H29699   3.732   8.354   6.434 -2.1732 -1.0466 -1.3457
  983MOL0     H29700   3.643   8.311   6.587 -0.8669  0.8276  0.9740
  983MOL0     H29701   3.539   8.447   6.344 -2.1298  2.5737  1.0367
  983MOL0     H29702   3.453   8.392   6.499  1.9574  3.4251  0.9472
  983MOL0     H29703   3.406   8.244   6.338 -0.1294 -1.6063  0.4629
  983MOL0     H29704   3.507   8.165   6.469 -0.4534 -0.0146  0.4614
  983MOL0     H29705   3.598   8.218   6.176  1.1158  0.1020 -0.3731
  983MOL0     H29706   3.695   8.144   6.305 -1.3010 -3.2405  2.0118
  983MOL0     H29707   3.507   7.972   6.329 -3.1496  0.1284  0.1941
  983MOL0     H29708   3.622   7.962   6.204 -1.4295 -1.5136  0.3870
  983MOL0     H29709   3.238   8.048   6.260 -1.2533 -0.4188 -0.4437
  983MOL0     H29710   3.065   8.135   5.942 -0.1034  1.0518  0.9595
  983MOL0     H29711   3.034   8.124   6.116  1.1325 -0.5549  0.4113
  983MOL0     H29712   2.921   7.929   6.102 -0.8506 -1.9770 -0.8310
  983MOL0     H29713   3.057   7.860   6.046 -0.4203  0.6269  3.0769
  983MOL0     H29714   2.994   7.888   5.807  0.8804  0.1428 -0.6617
  983MOL0     H29715   2.879   7.797   5.911  1.9516 -0.4497 -1.8816
  983MOL0     H29716   2.743   7.999   5.938 -3.4871 -1.2606 -1.9968
  983MOL0     H29717   2.736   7.920   5.774 -0.2768 -0.5730  0.2908
  983MOL0     H29718   2.586   8.143   5.799 -1.2214  0.5272 -0.5455
  983MOL0     H29719   2.444   8.284   5.627  0.1629  0.4775  0.8011
  983MOL0     H29720   2.254   8.566   5.431  2.3906 -0.1446 -0.8489
  983MOL0     H29721   2.061   8.649   5.283 -2.8179 -1.3835 -4.0549
  983MOL0     H29722   1.988   8.441   4.889 -1.4410 -0.1768  3.2285
  983MOL0     H29723   2.107   8.560   4.841 -0.9173  2.1758 -0.8515
  983MOL0     H29724   1.807   8.614   4.897  2.0025 -1.4875  2.7962
  983MOL0     H29725   1.868   8.574   4.740  0.3456 -0.1690 -0.4597
  983MOL0     H29726   2.005   8.770   4.731  0.9202  1.3336 -0.2112
  983MOL0     H29727   1.991   8.801   4.894 -1.3205  0.3228  0.6486
  983MOL0     H29728   1.762   8.842   4.683 -1.6575  1.9260  0.9295
  983MOL0     H29729   1.734   8.812   4.850  0.9178 -1.0985  1.0324
  983MOL0     H29730   1.920   9.030   4.742  2.3142 -1.0891  2.1972
  983MOL0     H29731   1.880   9.010   4.911  1.2494  1.1633 -0.5682
  983MOL0     H29732   1.624   9.036   4.816  1.1095 -3.3291  2.5261
  983MOL0     H29733   1.704   9.083   4.662  0.7122  0.8695  0.3182
  983MOL0     H29734   1.738   9.213   4.931 -0.2085 -3.2164  0.2647
  983MOL0     H29735   1.831   9.247   4.788  1.4823 -1.8276 -0.4972
  983MOL0     H29736   1.643   9.418   4.798  0.2226 -0.3400  3.4002
  983MOL0     H29737   1.524   9.283   4.786 -0.3266  0.1027 -1.1054
  983MOL0     H29738   2.216   8.387   4.986 -1.7504  1.8695 -0.9077
  983MOL0     H29739   2.374   8.302   5.131 -3.4654 -2.6210  0.7827
  983MOL0     H29740   2.820   8.377   5.428  0.1707  0.7336  0.8775
  983MOL0     H29741   2.945   8.239   5.587  0.5064  0.5724 -1.1450
  983MOL0     H29742   4.075   8.707   6.260  0.1703  3.3340 -0.5464
  983MOL0     H29743   4.301   8.826   6.232  2.6660 -0.0286 -0.9839
  983MOL0     H29744   4.755   8.842   6.374  1.5321 -0.5681 -1.3975
  983MOL0     H29745   4.930   8.920   6.236 -0.6362 -0.7770  3.1082
  983MOL0     H29746   4.859   9.308   6.035 -2.7339 -2.9006  1.4262
  983MOL0     H29747   5.022   9.274   5.989  0.2811  2.4514  0.6523
  983MOL0     H29748   5.009   9.499   6.142 -0.0628 -0.4990  0.2697
  983MOL0     H29749   4.974   9.381   6.268 -2.6383 -4.5807 -1.2875
  983MOL0     H29750   5.229   9.389   6.092  1.8553 -0.7966  1.5125
  983MOL0     H29751   5.190   9.268   6.216  0.5682 -0.0718  0.9139
  983MOL0     H29752   5.206   9.568   6.244 -2.7941 -1.2494 -1.2102
  983MOL0     H29753   5.171   9.443   6.381  1.1566  1.1634  0.6101
  983MOL0     H29754   5.563   9.375   6.388  0.6370 -0.0775 -0.9792
  983MOL0     H29755   4.743   9.308   6.200 -0.7717 -0.8580 -1.5941
  983MOL0     H29756   4.564   9.232   6.361 -1.8664 -0.9772 -3.2209
  984MOL0     O29757   7.776   2.583   6.286 -0.3502  0.3458  0.2542
  984MOL0     C29758   7.763   2.702   6.255 -1.3505  0.9467  0.4213
  984MOL0     O29759   7.746   2.748   6.131 -0.2305  0.2187  0.4667
  984MOL0     C29760   7.717   2.668   6.018 -0.5636  0.0169 -0.2265
  984MOL0     C29761   7.598   2.688   5.938 -0.8757 -0.0848  0.4906
  984MOL0     C29762   7.580   2.602   5.829 -0.7350 -0.3368  0.3015
  984MOL0     C29763   7.675   2.513   5.780 -0.7959 -0.5657  0.7196
  984MOL0     O29764   7.657   2.438   5.666 -0.3203  0.3115  0.2435
  984MOL0     C29765   7.623   2.515   5.548 -0.7001  0.5942 -0.6792
  984MOL0     C29766   7.637   2.433   5.418  0.5135 -0.4568  0.5701
  984MOL0     C29767   7.527   2.336   5.390  0.0832  0.0512  0.0920
  984MOL0     C29768   7.533   2.292   5.243  0.1955  0.1217 -0.5444
  984MOL0     C29769   7.412   2.207   5.213 -0.9899  1.2583 -0.0850
  984MOL0     C29770   7.285   2.295   5.207 -0.3835 -0.7529  0.3027
  984MOL0     C29771   7.261   2.340   5.063  0.3542  0.1730 -0.2594
  984MOL0     C29772   7.123   2.414   5.044 -1.0551 -0.1642  0.3407
  984MOL0     N29773   7.020   2.319   5.009  0.0882 -0.4180  0.4204
  984MOL0     C29774   7.002   2.236   4.897 -0.1175 -0.1456  0.4270
  984MOL0     C29775   6.873   2.190   4.894 -0.4078 -0.4753 -0.5107
  984MOL0     C29776   6.799   2.113   4.785 -0.5021  0.7622  0.0479
  984MOL0     C29777   6.711   1.995   4.833  0.8267 -0.1387 -0.8165
  984MOL0     C29778   6.606   1.962   4.724 -0.2955 -0.8868 -0.1447
  984MOL0     C29779   6.520   1.842   4.765  0.9004  0.0307  0.5253
  984MOL0     O29780   6.436   1.885   4.866  0.9965  1.1768 -0.1415
  984MOL0     C29781   6.347   1.790   4.914 -0.1474 -0.4537 -0.1374
  984MOL0     C29782   6.241   1.841   4.989  0.2538 -0.0423 -0.1058
  984MOL0     C29783   6.126   1.763   5.013 -0.5071 -0.1567 -0.2527
  984MOL0     C29784   6.132   1.631   4.978  0.0711  0.0193  0.4669
  984MOL0     C29785   6.014   1.537   4.991 -0.7974  0.0298  0.0071
  984MOL0     O29786   5.886   1.590   4.993  0.4518 -0.8383 -0.3324
  984MOL0     C29787   5.802   1.517   5.077 -0.1352 -0.5320  0.9449
  984MOL0     C29788   5.813   1.527   5.216 -0.1024  0.0375 -0.5436
  984MOL0     C29789   5.735   1.446   5.302 -0.2929  0.2002  1.2174
  984MOL0     C29790   5.648   1.354   5.239 -0.1598 -0.1016 -0.1309
  984MOL0     O29791   5.604   1.271   5.340 -0.0610  0.7843 -0.7447
  984MOL0     C29792   5.474   1.282   5.394  0.0929  0.1995 -1.1228
  984MOL0     C29793   5.357   1.316   5.300  0.1686 -0.6768 -0.3395
  984MOL0     C29794   5.251   1.385   5.381  0.4543 -0.2583 -0.0030
  984MOL0     C29795   5.191   1.296   5.489  0.1312 -0.6048 -0.1921
  984MOL0     C29796   5.071   1.362   5.557  0.1130 -0.5490  0.0766
  984MOL0     C29797   4.954   1.351   5.459 -0.1426 -1.1141 -0.1546
  984MOL0     C29798   4.831   1.389   5.540  0.1695 -0.6213 -0.3873
  984MOL0     C29799   4.709   1.432   5.456 -0.4973  1.0761 -0.2776
  984MOL0    Cl29800   4.716   1.594   5.385 -0.3505 -0.0150 -0.0766
  984MOL0     C29801   5.634   1.349   5.101  0.5258 -0.0135 -0.8575
  984MOL0     C29802   5.712   1.424   5.017 -1.0173 -0.8879  0.7447
  984MOL0     O29803   6.035   1.416   4.988 -0.3831  0.2180 -0.2351
  984MOL0     C29804   6.245   1.568   4.920 -0.0336 -0.0767  0.0619
  984MOL0     C29805   6.347   1.658   4.875  0.8939 -0.6499  0.1830
  984MOL0     N29806   6.823   2.244   5.013 -0.3416  1.0087 -1.2573
  984MOL0     N29807   6.910   2.308   5.082 -0.6794  0.5273 -0.2171
  984MOL0     C29808   7.778   2.496   5.863  0.2760 -0.4427 -0.4717
  984MOL0     C29809   7.812   2.570   5.974 -0.7549  0.2449 -1.2317
  984MOL0     C29810   7.781   2.800   6.356 -0.1409 -0.0938  0.3390
  984MOL0     C29811   7.739   2.933   6.333 -0.1874  0.2459  0.3527
  984MOL0     C29812   7.738   3.020   6.432  0.6436  0.4765 -0.5466
  984MOL0     C29813   7.764   2.981   6.562 -0.8552  0.1888 -0.4007
  984MOL0     O29814   7.762   3.063   6.675 -0.2552  0.1004 -0.9410
  984MOL0     C29815   7.629   3.079   6.737  0.0538  0.3385  0.7880
  984MOL0     C29816   7.600   2.949   6.811  0.5866  0.0410 -0.3355
  984MOL0     C29817   7.476   2.973   6.892  0.8765 -0.0482 -0.9773
  984MOL0     C29818   7.413   2.839   6.926 -0.0145 -0.9096  0.3881
  984MOL0     C29819   7.505   2.758   6.998 -0.3588 -0.3457  1.0648
  984MOL0     C29820   7.589   2.687   7.053  0.1726  0.3994 -0.0263
  984MOL0     C29821   7.815   2.851   6.583 -0.2034  0.1435  0.3586
  984MOL0     C29822   7.830   2.762   6.483  0.4388  0.0108 -0.2629
  984MOL0     H29823   7.516   2.757   5.956 -0.0071  1.2699 -0.5622
  984MOL0     H29824   7.492   2.615   5.766 -0.6351  1.2493  0.4470
  984MOL0     H29825   7.693   2.599   5.541 -2.0982  1.8463 -0.0396
  984MOL0     H29826   7.522   2.554   5.556 -2.5147 -3.5092 -0.9390
  984MOL0     H29827   7.731   2.377   5.419  0.9442  0.2493  1.5213
  984MOL0     H29828   7.630   2.512   5.342 -3.3443 -1.8648 -0.7853
  984MOL0     H29829   7.434   2.391   5.409  0.1149  1.6331 -3.5543
  984MOL0     H29830   7.555   2.246   5.445  3.1188 -0.1541 -1.5324
  984MOL0     H29831   7.538   2.382   5.181  0.6457  0.1214 -0.5076
  984MOL0     H29832   7.621   2.227   5.233 -0.5329 -0.9557 -0.1476
  984MOL0     H29833   7.400   2.121   5.280 -4.3296  0.0140 -2.0213
  984MOL0     H29834   7.425   2.171   5.111  0.9869  3.7096 -0.7724
  984MOL0     H29835   7.284   2.389   5.263 -2.9542 -1.1567  1.0716
  984MOL0     H29836   7.197   2.235   5.233 -1.4300 -0.3471 -2.0427
  984MOL0     H29837   7.334   2.418   5.042 -1.9882  2.8711  1.0210
  984MOL0     H29838   7.262   2.259   4.989  1.2587 -3.7240  3.5964
  984MOL0     H29839   7.140   2.490   4.968  1.3176 -2.0709 -1.1970
  984MOL0     H29840   7.100   2.461   5.140 -1.4370  2.3784 -0.9123
  984MOL0     H29841   7.083   2.218   4.826  1.0306 -1.1365  1.9207
  984MOL0     H29842   6.870   2.075   4.711 -0.8302 -1.5173  0.8410
  984MOL0     H29843   6.737   2.191   4.739  0.2620  0.2137 -2.0051
  984MOL0     H29844   6.646   2.006   4.921  1.6248  1.4953 -0.4019
  984MOL0     H29845   6.775   1.907   4.846  4.1639  2.4562  2.2548
  984MOL0     H29846   6.552   2.055   4.703  2.8340  0.7848 -1.4075
  984MOL0     H29847   6.658   1.942   4.630  3.6414  0.9579  1.4184
  984MOL0     H29848   6.576   1.751   4.790 -1.3508 -2.5408 -2.7922
  984MOL0     H29849   6.468   1.808   4.675  0.9119 -0.3222  0.6489
  984MOL0     H29850   6.234   1.942   5.027 -0.2930 -0.0975 -0.0500
  984MOL0     H29851   6.046   1.808   5.072 -1.2904  0.8273 -1.9797
  984MOL0     H29852   5.879   1.601   5.260 -2.5697  0.2495  3.2423
  984MOL0     H29853   5.749   1.456   5.409 -2.1276 -0.4391  1.5521
  984MOL0     H29854   5.485   1.350   5.479  0.4414 -1.2180  0.0040
  984MOL0     H29855   5.444   1.187   5.440 -3.7471  2.5039  1.7894
  984MOL0     H29856   5.315   1.225   5.256 -2.3560 -0.1090  0.6832
  984MOL0     H29857   5.400   1.395   5.238  0.8032  0.8021  1.8399
  984MOL0     H29858   5.169   1.395   5.310  1.0474  0.9424 -0.5477
  984MOL0     H29859   5.280   1.484   5.419 -0.6582 -0.1055  0.4886
  984MOL0     H29860   5.170   1.194   5.455  2.0818 -1.5948  1.3641
  984MOL0     H29861   5.260   1.277   5.572 -1.3710  0.0034  1.2547
  984MOL0     H29862   5.076   1.471   5.567  4.1820  0.1806 -5.2338
  984MOL0     H29863   5.038   1.325   5.654 -4.0729  3.4218  0.5177
  984MOL0     H29864   4.947   1.247   5.423  1.8327 -1.3617  0.0709
  984MOL0     H29865   4.972   1.422   5.378  1.5807  0.1560  1.2595
  984MOL0     H29866   4.813   1.297   5.595  1.1190 -1.4900 -1.4853
  984MOL0     H29867   4.847   1.467   5.616  0.7847 -0.3825 -0.7525
  984MOL0     H29868   4.620   1.442   5.518 -0.5679  1.7459 -0.4843
  984MOL0     H29869   4.696   1.353   5.381  0.8074 -0.4354  1.0121
  984MOL0     H29870   5.579   1.261   5.071  2.5018 -1.8118  0.5195
  984MOL0     H29871   5.705   1.418   4.909 -1.2614  2.1720  0.5032
  984MOL0     H29872   6.256   1.462   4.900 -2.4443 -0.8949  2.4501
  984MOL0     H29873   6.429   1.616   4.817 -0.1124  0.3948 -2.1135
  984MOL0     H29874   7.852   2.421   5.837 -1.4254 -1.5340 -2.3690
  984MOL0     H29875   7.904   2.569   6.032  0.0567 -2.8279 -2.3726
  984MOL0     H29876   7.716   2.970   6.234  4.2185  0.0193 -0.9969
  984MOL0     H29877   7.698   3.121   6.435  0.1503  0.2556  1.0586
  984MOL0     H29878   7.560   3.090   6.653  0.5294  0.2871  0.3936
  984MOL0     H29879   7.625   3.167   6.802  1.5046  0.4912  0.7073
  984MOL0     H29880   7.594   2.864   6.743  1.9219  0.1807 -0.6698
  984MOL0     H29881   7.682   2.932   6.882 -1.3091  0.0232  1.9429
  984MOL0     H29882   7.410   3.028   6.824  1.0364  0.4509 -0.7368
  984MOL0     H29883   7.498   3.026   6.985 -0.0179 -0.4531 -0.5170
  984MOL0     H29884   7.327   2.861   6.990 -2.2615 -1.6503 -2.1457
  984MOL0     H29885   7.364   2.780   6.848 -2.1819  1.0665  0.1514
  984MOL0     H29886   7.667   2.632   7.102 -0.8801 -2.1546 -1.0863
  984MOL0     H29887   7.839   2.831   6.687  0.1503  2.1552  0.7177
  984MOL0     H29888   7.865   2.660   6.494  0.9633  0.2019 -0.1590
  985MOL0     O29889   9.933  10.236  10.866 -0.3603 -0.3496 -0.1228
  985MOL0     C29890  10.015  10.325  10.846 -0.4716 -1.6223  0.4270
  985MOL0     O29891   9.982  10.460  10.843  0.0842  0.0328 -0.6529
  985MOL0     C29892   9.860  10.497  10.883 -0.2009 -0.7699  0.2460
  985MOL0     C29893   9.810  10.447  11.008  0.7415 -0.3409  0.4525
  985MOL0     C29894   9.693  10.496  11.068  0.0833  0.4574 -0.4168
  985MOL0     C29895   9.622  10.604  11.001 -0.1006  0.2527  0.2347
  985MOL0     O29896   9.515  10.656  11.065 -0.7601  0.6503  0.1021
  985MOL0     C29897   9.428  10.732  10.978  0.2122  0.9836 -0.3557
  985MOL0     C29898   9.283  10.755  11.027  0.0137  0.4939  0.1345
  985MOL0     C29899   9.186  10.629  11.004  0.5936  0.4765 -0.6979
  985MOL0     C29900   9.041  10.663  11.029  0.8484  0.3515 -0.8332
  985MOL0     C29901   8.941  10.546  10.989 -0.4068 -1.0479 -0.9936
  985MOL0     C29902   8.801  10.609  11.017  0.0352  0.3434 -0.5416
  985MOL0     C29903   8.691  10.507  10.988 -0.0311  0.1831 -0.5399
  985MOL0     C29904   8.564  10.589  11.011 -0.6049 -0.1045 -0.5292
  985MOL0     N29905   8.441  10.502  10.999 -0.3720 -0.7705  0.8785
  985MOL0     C29906   8.419  10.397  11.080 -0.2810 -0.2337  0.4177
  985MOL0     C29907   8.318  10.321  11.033  0.2132 -0.9575 -0.0454
  985MOL0     C29908   8.255  10.199  11.099 -0.0358  0.1991  0.1753
  985MOL0     C29909   8.130  10.228  11.192 -0.4036 -0.6356  0.1169
  985MOL0     C29910   8.027  10.105  11.196  0.5690 -0.2103  0.3588
  985MOL0     C29911   7.878  10.157  11.189 -0.4451 -1.2298 -0.4205
  985MOL0     O29912   7.778  10.060  11.204 -0.4472 -0.3467  0.3077
  985MOL0     C29913   7.661  10.084  11.270 -0.3521 -0.3452 -0.1343
  985MOL0     C29914   7.619  10.003  11.372  0.0812  0.2142 -0.9777
  985MOL0     C29915   7.482   9.998  11.408 -0.9274  0.3386 -0.1138
  985MOL0     C29916   7.394  10.097  11.359 -0.2908  0.0957 -0.6701
  985MOL0     C29917   7.251  10.103  11.398 -0.5496  0.3545  0.1995
  985MOL0     O29918   7.200  10.010  11.479  0.1702 -0.3687  0.0521
  985MOL0     C29919   7.076  10.029  11.538 -0.2197 -0.3850  1.0274
  985MOL0     C29920   7.062  10.109  11.650  1.0982 -1.0189  0.8004
  985MOL0     C29921   6.930  10.128  11.703  0.2516  0.7673  0.6333
  985MOL0     C29922   6.822  10.051  11.653 -1.0438  0.1418  0.0475
  985MOL0     O29923   6.691  10.060  11.691 -0.3113 -0.3949 -0.9618
  985MOL0     C29924   6.650  10.171  11.780 -1.2156 -0.2081 -0.6738
  985MOL0     C29925   6.497  10.202  11.797 -0.6376 -1.1479  0.1163
  985MOL0     C29926   6.419  10.174  11.665 -0.7602  0.4988  0.5690
  985MOL0     C29927   6.410  10.024  11.640 -0.0940  0.2314  0.0822
  985MOL0     C29928   6.292   9.987  11.539 -0.4912 -0.0261 -0.4340
  985MOL0     C29929   6.285   9.844  11.513  0.2672  0.8767  0.5479
  985MOL0     C29930   6.375   9.787  11.390 -0.0374 -0.2710  1.2133
  985MOL0     C29931   6.342   9.651  11.353  0.1471  0.6282 -0.3521
  985MOL0    Cl29932   6.167   9.624  11.325  0.0890 -0.4468 -0.4870
  985MOL0     C29933   6.849   9.955  11.557 -0.2032 -0.6372 -0.1097
  985MOL0     C29934   6.975   9.947  11.497 -0.6471  0.4545 -1.3697
  985MOL0     O29935   7.187  10.207  11.371 -1.2651 -0.7514  0.6621
  985MOL0     C29936   7.442  10.202  11.277 -0.5447 -0.8805 -0.3732
  985MOL0     C29937   7.575  10.184  11.220  0.1908 -0.6239 -0.6097
  985MOL0     N29938   8.271  10.392  10.919 -0.8047 -0.0545  0.2703
  985MOL0     N29939   8.348  10.489  10.895  0.1020 -0.1989  0.3206
  985MOL0     C29940   9.683  10.654  10.882 -0.9668  0.3914  0.8075
  985MOL0     C29941   9.799  10.606  10.818  1.1537  0.7779 -0.0873
  985MOL0     C29942  10.163  10.292  10.836  0.2499  0.1154  0.4884
  985MOL0     C29943  10.265  10.374  10.882 -0.6430 -0.6812 -0.8340
  985MOL0     C29944  10.401  10.345  10.866 -0.2136 -0.2618  0.3243
  985MOL0     C29945  10.442  10.215  10.827  0.0261  0.1721  0.7741
  985MOL0     O29946  10.582  10.191  10.812  0.4390  0.0962  0.6619
  985MOL0     C29947  10.610  10.051  10.822 -0.9058  0.8001 -0.4111
  985MOL0     C29948  10.760  10.023  10.799 -0.4983  0.2753  0.8046
  985MOL0     C29949  10.832  10.102  10.913 -0.2346  0.0386 -0.2300
  985MOL0     C29950  10.983  10.091  10.901  0.0203 -0.4155  0.2236
  985MOL0     C29951  11.028   9.951  10.894  0.8612  1.0438 -0.4240
  985MOL0     C29952  11.079   9.843  10.875 -0.7095 -0.2194 -1.4666
  985MOL0     C29953  10.334  10.118  10.797 -0.3487 -0.3609 -0.2597
  985MOL0     C29954  10.200  10.164  10.799 -0.8906  0.9774  0.0307
  985MOL0     H29955   9.855  10.370  11.070 -1.1697 -1.0899  0.9609
  985MOL0     H29956   9.651  10.463  11.162  0.7399  1.9107  0.4230
  985MOL0     H29957   9.422  10.694  10.876  0.3387 -1.3045  0.4313
  985MOL0     H29958   9.472  10.832  10.984 -2.9343  2.4236  1.0061
  985MOL0     H29959   9.238  10.837  10.970  2.7663  2.3576  0.4267
  985MOL0     H29960   9.290  10.784  11.132  1.2916 -0.6959  0.4036
  985MOL0     H29961   9.209  10.552  11.079 -1.5853  1.1767  0.8109
  985MOL0     H29962   9.200  10.590  10.903  0.3564  3.4851 -1.9821
  985MOL0     H29963   9.029  10.685  11.136 -0.0660  0.2953 -0.9146
  985MOL0     H29964   9.009  10.750  10.970 -2.2647  0.3406  0.6122
  985MOL0     H29965   8.948  10.458  11.053  0.4779  0.0570  0.5004
  985MOL0     H29966   8.957  10.517  10.885 -0.7593 -2.1202 -0.7556
  985MOL0     H29967   8.802  10.702  10.960  3.2709  0.2092 -0.9356
  985MOL0     H29968   8.794  10.640  11.121 -3.8715  2.4248 -1.2572
  985MOL0     H29969   8.694  10.464  10.888 -2.0130  1.1135 -1.0522
  985MOL0     H29970   8.708  10.431  11.064  0.6789  0.6442 -0.2314
  985MOL0     H29971   8.571  10.676  10.945  0.0593 -0.7698 -1.3568
  985MOL0     H29972   8.565  10.623  11.115 -0.9065 -0.3609 -0.4398
  985MOL0     H29973   8.489  10.370  11.158  0.5100 -2.1880 -0.8877
  985MOL0     H29974   8.328  10.147  11.163  0.0218  0.1227  0.0463
  985MOL0     H29975   8.228  10.125  11.023 -2.7264 -0.6439  1.7959
  985MOL0     H29976   8.069  10.311  11.155 -0.1311 -0.3545  0.3048
  985MOL0     H29977   8.163  10.257  11.291  1.2464 -0.8863 -0.3279
  985MOL0     H29978   8.030  10.037  11.110 -3.4187  1.4448 -1.2988
  985MOL0     H29979   8.044  10.049  11.288 -3.8365 -1.7286  0.4663
  985MOL0     H29980   7.858  10.212  11.097 -1.7838  1.2319  1.2229
  985MOL0     H29981   7.863  10.232  11.268 -1.4729 -1.7819 -0.0685
  985MOL0     H29982   7.689   9.931  11.415 -0.4508  0.5805  0.5960
  985MOL0     H29983   7.443   9.911  11.459  1.3522 -0.2335  0.7643
  985MOL0     H29984   7.149  10.163  11.686  0.2245  0.7875  0.3032
  985MOL0     H29985   6.898  10.190  11.786 -1.6472  0.7832 -0.0660
  985MOL0     H29986   6.689  10.265  11.740  0.4781  0.0168  1.3460
  985MOL0     H29987   6.685  10.155  11.882  0.9231 -0.4309 -1.3867
  985MOL0     H29988   6.491  10.307  11.824 -0.8301 -0.9948 -0.4961
  985MOL0     H29989   6.461  10.138  11.878 -1.6056 -0.8935 -0.1106
  985MOL0     H29990   6.470  10.220  11.581 -3.1743  2.6222  0.1366
  985MOL0     H29991   6.323  10.226  11.665 -1.6584 -1.0147 -1.7392
  985MOL0     H29992   6.503   9.979  11.605  1.0002 -2.3187  5.3148
  985MOL0     H29993   6.388   9.968  11.731 -1.9331 -0.6989 -0.8815
  985MOL0     H29994   6.304  10.033  11.441 -0.2477 -1.2514 -1.0060
  985MOL0     H29995   6.196  10.018  11.579 -1.3730 -1.0944 -1.6385
  985MOL0     H29996   6.183   9.807  11.495  0.6061 -0.7522  1.7527
  985MOL0     H29997   6.329   9.795  11.600  3.5992  1.8455 -0.4524
  985MOL0     H29998   6.381   9.849  11.300  1.3566  0.2822  1.6701
  985MOL0     H29999   6.478   9.794  11.427  1.0839  1.0253 -1.8448
  985MOL0     H30000   6.379   9.578  11.425  2.0873  0.7952 -1.1226
  985MOL0     H30001   6.394   9.626  11.260 -0.5008  1.7599 -1.0412
  985MOL0     H30002   6.770   9.894  11.514 -0.3647  1.4454 -3.0891
  985MOL0     H30003   7.000   9.897  11.404 -0.2812 -0.2191 -0.9112
  985MOL0     H30004   7.383  10.279  11.229  1.2082  0.3943 -0.6014
  985MOL0     H30005   7.612  10.254  11.147  2.5751  0.4742  1.5013
  985MOL0     H30006   9.650  10.739  10.823  0.7196  1.3782  1.2115
  985MOL0     H30007   9.831  10.657  10.728 -0.5645  3.1283  0.5414
  985MOL0     H30008  10.236  10.478  10.896  1.9984  0.2598 -1.8477
  985MOL0     H30009  10.477  10.418  10.896  0.8689 -1.0644 -0.3865
  985MOL0     H30010  10.558   9.985  10.752 -0.7983 -0.6164  0.7837
  985MOL0     H30011  10.564  10.005  10.910 -1.8547 -1.3111 -1.9192
  985MOL0     H30012  10.785   9.917  10.812 -2.2187 -0.3472 -0.5169
  985MOL0     H30013  10.779  10.043  10.693 -1.2081  0.3743  0.6882
  985MOL0     H30014  10.809  10.058  11.011 -1.4282 -2.3119 -1.4829
  985MOL0     H30015  10.811  10.209  10.914 -1.8239 -0.2384 -0.9557
  985MOL0     H30016  11.014  10.162  10.824 -2.6736 -0.0123 -0.6001
  985MOL0     H30017  11.023  10.130  10.995 -0.8980  1.8885 -0.2512
  985MOL0     H30018  11.135   9.752  10.878  0.5873  0.5414 -1.4299
  985MOL0     H30019  10.353  10.019  10.757 -1.6522 -0.2991 -1.1214
  985MOL0     H30020  10.123  10.097  10.762 -1.9017  1.1760  1.6687
  986MOL0     O30021   2.642   3.277   4.183 -0.0070 -0.7776  0.2265
  986MOL0     C30022   2.635   3.165   4.223 -0.3416 -0.1808  0.7745
  986MOL0     O30023   2.521   3.090   4.241  0.4467 -0.9877  0.3455
  986MOL0     C30024   2.392   3.136   4.215  0.8014 -0.4810 -0.2203
  986MOL0     C30025   2.286   3.070   4.277 -0.5753 -0.1958 -0.2218
  986MOL0     C30026   2.157   3.101   4.251  0.1720  0.8952  0.0848
  986MOL0     C30027   2.118   3.194   4.154 -0.3655 -0.1007  0.6745
  986MOL0     O30028   1.988   3.225   4.118  0.0282  0.6756  0.1448
  986MOL0     C30029   1.960   3.215   3.978 -0.3577 -1.0138 -0.6191
  986MOL0     C30030   1.812   3.239   3.963  0.2111  0.2105  0.1328
  986MOL0     C30031   1.760   3.238   3.820  0.0244  0.2531  0.7857
  986MOL0     C30032   1.619   3.292   3.799  0.6870 -0.1533  0.3781
  986MOL0     C30033   1.537   3.237   3.682 -0.1432 -0.5607  0.1307
  986MOL0     C30034   1.570   3.276   3.544  0.4231 -0.9154 -0.0704
  986MOL0     C30035   1.501   3.407   3.516  0.5795  0.0110  0.4650
  986MOL0     C30036   1.570   3.486   3.400  0.4044  0.7325 -0.0924
  986MOL0     N30037   1.500   3.468   3.275  0.0698 -0.0806  0.9988
  986MOL0     C30038   1.402   3.555   3.223 -0.0862  0.0258  0.0275
  986MOL0     C30039   1.342   3.492   3.116 -0.0714  0.2059  0.4915
  986MOL0     C30040   1.244   3.548   3.016  0.0707  0.0067  0.7471
  986MOL0     C30041   1.309   3.632   2.907  0.6402 -0.6063  0.5615
  986MOL0     C30042   1.339   3.775   2.945 -1.4087 -0.3960  1.2208
  986MOL0     C30043   1.406   3.855   2.829 -0.0051 -0.0862  0.3532
  986MOL0     O30044   1.547   3.831   2.827  0.1752 -0.2143  0.8760
  986MOL0     C30045   1.610   3.788   2.714 -0.4059 -0.0909 -0.0927
  986MOL0     C30046   1.677   3.664   2.725 -0.7621  0.0324  0.1626
  986MOL0     C30047   1.744   3.606   2.618 -0.3450 -0.4511 -0.1517
  986MOL0     C30048   1.740   3.667   2.491 -0.6939 -0.2440 -0.9301
  986MOL0     C30049   1.775   3.582   2.378  0.5175  0.0862  0.1724
  986MOL0     O30050   1.740   3.627   2.251  0.2533  0.1742 -0.3193
  986MOL0     C30051   1.776   3.568   2.132  0.8799 -1.3235  0.4435
  986MOL0     C30052   1.719   3.646   2.024  0.3467  0.7580  0.0530
  986MOL0     C30053   1.763   3.622   1.897  0.1333  0.6621  0.2187
  986MOL0     C30054   1.861   3.523   1.871 -0.5779 -0.0570 -0.1977
  986MOL0     O30055   1.892   3.487   1.742  0.9062  0.5353  0.0636
  986MOL0     C30056   2.005   3.547   1.687 -0.3717  0.0972 -0.1084
  986MOL0     C30057   1.988   3.554   1.530  0.8852  0.8212 -0.7130
  986MOL0     C30058   1.887   3.665   1.497  0.0796 -0.4946  0.5175
  986MOL0     C30059   1.835   3.663   1.355  0.1956  0.8036  1.0846
  986MOL0     C30060   1.758   3.788   1.313  0.2311 -0.4274  0.4846
  986MOL0     C30061   1.616   3.812   1.367 -0.5054 -0.1880 -1.1734
  986MOL0     C30062   1.542   3.939   1.320 -0.1103 -0.2475 -0.1168
  986MOL0     C30063   1.476   4.013   1.444  0.8128  0.5342  0.5589
  986MOL0    Cl30064   1.602   4.106   1.524 -0.3558  0.2689 -0.2870
  986MOL0     C30065   1.920   3.447   1.977 -0.2685 -0.0933  0.0833
  986MOL0     C30066   1.874   3.472   2.104 -0.5150  0.5325  0.1460
  986MOL0     O30067   1.817   3.467   2.401 -0.8324 -0.8318  0.4963
  986MOL0     C30068   1.682   3.791   2.478  0.2730  0.7220  0.0072
  986MOL0     C30069   1.626   3.858   2.592  0.2851  1.2950 -0.4934
  986MOL0     N30070   1.399   3.365   3.114 -0.0808  0.7547 -0.1759
  986MOL0     N30071   1.487   3.349   3.204 -1.2484  0.3911  0.2220
  986MOL0     C30072   2.226   3.259   4.090  0.7140  0.3009  0.2704
  986MOL0     C30073   2.361   3.225   4.112  0.0175 -1.1012  0.2002
  986MOL0     C30074   2.769   3.104   4.253  0.5034  0.3533  0.5737
  986MOL0     C30075   2.774   2.979   4.313 -0.0060  0.9499  0.5759
  986MOL0     C30076   2.886   2.920   4.358 -1.0235  0.2624  0.3946
  986MOL0     C30077   3.009   2.980   4.329  0.0531 -0.9171 -0.3342
  986MOL0     O30078   3.129   2.932   4.382 -1.1916 -1.1396  0.3350
  986MOL0     C30079   3.260   2.994   4.363  0.8188 -0.4889  0.5984
  986MOL0     C30080   3.370   2.900   4.398  0.7522  0.6843  0.2379
  986MOL0     C30081   3.511   2.967   4.389  0.0396 -0.4175  0.3785
  986MOL0     C30082   3.570   3.021   4.519 -0.3811  0.7483  0.2196
  986MOL0     C30083   3.628   2.909   4.596  0.6538  0.6868 -0.9469
  986MOL0     C30084   3.659   2.807   4.659 -0.7552  0.4357  1.5379
  986MOL0     C30085   3.004   3.101   4.254 -0.5229  1.0875  0.1202
  986MOL0     C30086   2.894   3.159   4.206  0.5298  0.2734 -0.2422
  986MOL0     H30087   2.322   2.989   4.339 -0.2387 -1.5077 -2.0603
  986MOL0     H30088   2.076   3.040   4.291 -0.1609  1.7528  0.7519
  986MOL0     H30089   1.972   3.113   3.939 -1.2687 -1.8775  1.2506
  986MOL0     H30090   2.015   3.300   3.936  0.7320 -0.0062  2.5300
  986MOL0     H30091   1.782   3.327   4.022  0.8321 -1.7793  3.6890
  986MOL0     H30092   1.748   3.169   4.018 -0.6769  0.6717 -0.2736
  986MOL0     H30093   1.765   3.134   3.786 -3.3110  0.0341  0.6475
  986MOL0     H30094   1.831   3.302   3.767 -0.0739  0.9133  1.4312
  986MOL0     H30095   1.548   3.284   3.881 -3.7484 -2.7241 -3.2558
  986MOL0     H30096   1.626   3.400   3.781  0.9949 -0.0826  0.9020
  986MOL0     H30097   1.431   3.257   3.698 -0.3293 -3.1041  2.9534
  986MOL0     H30098   1.546   3.128   3.688  2.0896 -0.3981  0.8618
  986MOL0     H30099   1.521   3.213   3.470 -0.9597  2.1377 -1.9703
  986MOL0     H30100   1.680   3.280   3.536  0.3542  3.7630 -2.2864
  986MOL0     H30101   1.401   3.380   3.481  0.1319 -0.8286  2.2789
  986MOL0     H30102   1.497   3.468   3.607 -2.1581 -1.1063  1.1942
  986MOL0     H30103   1.674   3.455   3.393 -0.5105 -3.0870  0.9392
  986MOL0     H30104   1.551   3.589   3.431  0.2899  0.6760  0.0270
  986MOL0     H30105   1.404   3.663   3.236  0.6101  0.0266 -0.0699
  986MOL0     H30106   1.154   3.590   3.062 -0.5086 -0.9032  0.4640
  986MOL0     H30107   1.218   3.454   2.967 -1.8945  0.8928 -0.0213
  986MOL0     H30108   1.237   3.634   2.825 -1.6301  0.0868  2.4771
  986MOL0     H30109   1.404   3.591   2.872  0.5321 -0.1219 -0.3329
  986MOL0     H30110   1.255   3.844   2.956  1.6619  3.9577  0.1076
  986MOL0     H30111   1.403   3.791   3.032  1.2752 -1.5138 -0.4121
  986MOL0     H30112   1.398   3.960   2.858 -3.1510 -0.2037  0.2422
  986MOL0     H30113   1.353   3.854   2.733  0.8809 -1.4400 -0.1416
  986MOL0     H30114   1.666   3.612   2.820  1.1092  0.2856  0.5670
  986MOL0     H30115   1.788   3.507   2.615 -1.0786 -0.8651  1.6470
  986MOL0     H30116   1.661   3.734   2.052 -0.9724 -0.9143  3.0832
  986MOL0     H30117   1.724   3.684   1.816  0.2814 -0.9154 -1.1087
  986MOL0     H30118   2.089   3.479   1.704 -1.1288 -0.9266 -0.4432
  986MOL0     H30119   2.037   3.641   1.735 -0.6867  1.7557 -2.9424
  986MOL0     H30120   1.956   3.459   1.487  1.1516  0.5599 -0.3421
  986MOL0     H30121   2.087   3.580   1.490  0.8296 -0.3116 -1.6215
  986MOL0     H30122   1.951   3.753   1.497 -0.5524 -0.0335  0.4391
  986MOL0     H30123   1.800   3.668   1.563  0.6116 -0.3182  1.2250
  986MOL0     H30124   1.907   3.647   1.274 -0.5545  0.3928  0.4817
  986MOL0     H30125   1.770   3.575   1.346  0.4558  0.4590  2.3786
  986MOL0     H30126   1.754   3.790   1.204  2.0550 -1.8968  0.3458
  986MOL0     H30127   1.820   3.874   1.341  0.6620 -0.6125  0.1246
  986MOL0     H30128   1.636   3.816   1.474  0.8383 -0.8136 -1.3782
  986MOL0     H30129   1.556   3.722   1.354 -1.8961  0.3385  1.0883
  986MOL0     H30130   1.607   4.011   1.269 -0.1345  2.0614  2.8203
  986MOL0     H30131   1.461   3.909   1.253  0.4385  0.3964 -1.0911
  986MOL0     H30132   1.417   3.940   1.501 -2.4837  1.9690 -0.7965
  986MOL0     H30133   1.393   4.078   1.416 -0.3687 -0.8063  0.7839
  986MOL0     H30134   1.983   3.363   1.949 -1.8377 -1.1020 -0.5686
  986MOL0     H30135   1.922   3.421   2.187 -0.6341 -2.8007 -1.6325
  986MOL0     H30136   1.680   3.831   2.377  0.4070 -0.4667 -0.4900
  986MOL0     H30137   1.581   3.957   2.585 -1.7783  0.4421  0.1408
  986MOL0     H30138   2.194   3.323   4.008 -2.4875 -0.9769  0.3877
  986MOL0     H30139   2.437   3.273   4.051  1.0461  0.4585  2.5564
  986MOL0     H30140   2.689   2.915   4.336 -0.2221  2.1597  3.6937
  986MOL0     H30141   2.881   2.825   4.410  0.4031 -0.9833 -1.6051
  986MOL0     H30142   3.284   3.087   4.415 -3.7280  2.7476 -2.2419
  986MOL0     H30143   3.274   3.024   4.258  2.4185  0.9942  1.1897
  986MOL0     H30144   3.358   2.871   4.502 -1.2562  5.4401  1.5977
  986MOL0     H30145   3.368   2.813   4.331  2.0665  1.4633 -0.8898
  986MOL0     H30146   3.509   3.057   4.326  2.0675  2.5624  4.1305
  986MOL0     H30147   3.578   2.887   4.357 -4.2633 -3.7596 -1.3797
  986MOL0     H30148   3.651   3.089   4.492  0.0041 -1.1519 -4.2413
  986MOL0     H30149   3.489   3.067   4.576 -0.6464 -2.0083  2.2798
  986MOL0     H30150   3.686   2.717   4.710 -1.1511 -2.0685 -2.2185
  986MOL0     H30151   3.094   3.145   4.212  0.0098  0.5470  0.6711
  986MOL0     H30152   2.895   3.249   4.145 -0.8187 -0.9359 -2.1205
  987MOL0     O30153   7.689   7.125   7.439  0.5919 -0.0328  0.2258
  987MOL0     C30154   7.699   7.082   7.557  1.1456 -0.9847  1.2746
  987MOL0     O30155   7.604   7.051   7.638  0.1352 -0.2226  0.5489
  987MOL0     C30156   7.473   7.088   7.622  1.2492 -0.1869  0.5610
  987MOL0     C30157   7.430   7.197   7.701  0.0209 -0.1242  0.1654
  987MOL0     C30158   7.296   7.233   7.697 -0.2015 -0.1359  0.1076
  987MOL0     C30159   7.206   7.170   7.614 -0.9333  0.5053 -0.7208
  987MOL0     O30160   7.080   7.223   7.629 -0.3968 -0.5649  0.6760
  987MOL0     C30161   6.979   7.168   7.539 -0.5101  0.9848  0.4145
  987MOL0     C30162   6.839   7.213   7.570 -0.3052  0.5452 -0.1507
  987MOL0     C30163   6.729   7.168   7.470 -0.7420 -0.0132 -0.7518
  987MOL0     C30164   6.595   7.218   7.517 -0.2650  0.1902  0.3642
  987MOL0     C30165   6.541   7.351   7.455 -0.0560  0.5079 -0.0134
  987MOL0     C30166   6.385   7.365   7.465 -0.9068 -0.4613  0.9217
  987MOL0     C30167   6.318   7.250   7.380 -0.0189 -0.5087 -0.4980
  987MOL0     C30168   6.173   7.289   7.356 -0.2877  0.1030 -0.1961
  987MOL0     N30169   6.086   7.171   7.337  0.2777  0.6820 -0.7887
  987MOL0     C30170   6.067   7.106   7.219 -0.8585  0.0123  0.6897
  987MOL0     C30171   5.987   7.003   7.237  0.4448 -0.1471 -0.3595
  987MOL0     C30172   5.936   6.912   7.128  0.1556 -0.4105 -0.9392
  987MOL0     C30173   5.910   6.761   7.183  0.1385 -0.2624 -0.4278
  987MOL0     C30174   5.890   6.658   7.065 -0.0387 -0.0847 -1.0220
  987MOL0     C30175   5.784   6.557   7.111  0.1217  0.4484  0.1705
  987MOL0     O30176   5.655   6.603   7.070 -0.1248 -0.2126 -0.0232
  987MOL0     C30177   5.618   6.614   6.938  0.5448  1.0054  0.3416
  987MOL0     C30178   5.666   6.535   6.827  0.2567 -0.2069  0.7739
  987MOL0     C30179   5.599   6.543   6.698  0.0838 -0.1809  0.7823
  987MOL0     C30180   5.484   6.627   6.681  0.7132  0.8508 -0.0553
  987MOL0     C30181   5.413   6.626   6.550 -0.1286 -1.1551 -0.4426
  987MOL0     O30182   5.280   6.648   6.548 -0.0981  0.4107 -0.4787
  987MOL0     C30183   5.217   6.648   6.424  0.0820 -0.2146 -0.0887
  987MOL0     C30184   5.176   6.530   6.363  0.6543 -0.1559 -0.2795
  987MOL0     C30185   5.105   6.536   6.242 -1.0129 -0.2265  0.0499
  987MOL0     C30186   5.052   6.654   6.191 -0.0109 -0.2996 -0.5183
  987MOL0     O30187   4.980   6.653   6.071  0.0499  0.3104  0.6331
  987MOL0     C30188   4.860   6.733   6.071  0.8204  0.5664  0.1320
  987MOL0     C30189   4.768   6.718   5.941 -0.6736 -0.3094  0.1368
  987MOL0     C30190   4.727   6.580   5.906  0.1108  0.5412  0.0777
  987MOL0     C30191   4.622   6.569   5.794  0.2399 -0.3977  0.2827
  987MOL0     C30192   4.590   6.414   5.772  0.4512  0.0022  1.3183
  987MOL0     C30193   4.458   6.394   5.678 -0.7276  0.0389 -0.4621
  987MOL0     C30194   4.425   6.235   5.669 -0.4277 -1.3469 -0.2766
  987MOL0     C30195   4.350   6.184   5.790  0.0450 -0.1700 -0.0936
  987MOL0    Cl30196   4.357   5.994   5.810  0.6825  0.0044  0.1455
  987MOL0     C30197   5.096   6.766   6.255  1.0728 -0.0687 -1.2165
  987MOL0     C30198   5.173   6.768   6.372  0.1940  0.6149  0.5137
  987MOL0     O30199   5.488   6.603   6.450  0.0079  0.1448  0.2824
  987MOL0     C30200   5.441   6.706   6.791 -0.3484 -0.4356 -0.9411
  987MOL0     C30201   5.509   6.694   6.914  0.1697 -0.8477  0.6720
  987MOL0     N30202   5.961   7.000   7.374 -0.9149  0.1681  0.0525
  987MOL0     N30203   6.026   7.101   7.432  0.1356  0.6852  0.7051
  987MOL0     C30204   7.251   7.067   7.528  0.4280 -0.4983  0.4925
  987MOL0     C30205   7.386   7.028   7.529  0.0412  0.2363 -0.8102
  987MOL0     C30206   7.833   7.038   7.585  0.5520  0.5797  0.0814
  987MOL0     C30207   7.857   6.967   7.706  0.0880  0.5151  0.3681
  987MOL0     C30208   7.994   6.937   7.743 -1.2342  0.6524 -0.4706
  987MOL0     C30209   8.101   6.978   7.664 -0.9230 -0.6836  0.4741
  987MOL0     O30210   8.231   6.959   7.698 -0.7543 -0.3175 -0.2155
  987MOL0     C30211   8.264   7.037   7.822  0.4397  1.3409 -1.0849
  987MOL0     C30212   8.406   7.078   7.817  0.2914 -0.0005 -0.3725
  987MOL0     C30213   8.502   6.960   7.855 -0.6134  0.6072 -0.4875
  987MOL0     C30214   8.653   6.988   7.833  0.3860 -0.5782 -0.4784
  987MOL0     C30215   8.694   7.115   7.898 -0.7351  0.8112 -0.6284
  987MOL0     C30216   8.730   7.220   7.941 -1.0155  0.6529 -0.5719
  987MOL0     C30217   8.080   7.049   7.546 -0.4740  0.0445 -0.0972
  987MOL0     C30218   7.945   7.081   7.511 -0.2019  1.2144  0.7107
  987MOL0     H30219   7.505   7.252   7.758  0.5381  0.8369 -1.3862
  987MOL0     H30220   7.279   7.323   7.757 -0.8768 -0.6084  0.6409
  987MOL0     H30221   6.981   7.059   7.529 -0.4702  1.0772 -0.8779
  987MOL0     H30222   6.997   7.192   7.433 -0.2760 -4.3130 -1.0546
  987MOL0     H30223   6.850   7.321   7.581 -0.0194  0.4864  0.1481
  987MOL0     H30224   6.825   7.165   7.667  1.9231 -1.4605 -0.7385
  987MOL0     H30225   6.730   7.059   7.471  0.2514 -0.0189 -0.8381
  987MOL0     H30226   6.753   7.209   7.372 -3.0245  1.4406 -0.7818
  987MOL0     H30227   6.526   7.138   7.489  0.9685 -0.1084 -2.1724
  987MOL0     H30228   6.588   7.220   7.626  0.5402  4.2755  0.5185
  987MOL0     H30229   6.553   7.366   7.347 -2.3918 -0.0897 -0.4197
  987MOL0     H30230   6.588   7.430   7.513  2.5408  0.9752 -2.5223
  987MOL0     H30231   6.365   7.467   7.429  0.6885 -0.0203  1.2066
  987MOL0     H30232   6.370   7.359   7.573 -1.9790 -1.2991  0.7446
  987MOL0     H30233   6.368   7.229   7.285 -2.1794 -0.5227 -1.7014
  987MOL0     H30234   6.315   7.161   7.443  0.5443 -0.2147 -0.0434
  987MOL0     H30235   6.172   7.348   7.264 -0.2591 -0.4664 -0.5697
  987MOL0     H30236   6.129   7.344   7.439  0.0358  0.5758 -0.3344
  987MOL0     H30237   6.111   7.122   7.122  1.4488 -0.3275  1.6097
  987MOL0     H30238   6.023   6.900   7.062 -0.5420 -1.1030 -1.7589
  987MOL0     H30239   5.858   6.954   7.064 -1.6493 -4.8461 -2.0133
  987MOL0     H30240   5.819   6.773   7.242 -0.0517  3.1255 -1.1815
  987MOL0     H30241   5.982   6.736   7.262  0.3633  1.5871  0.0078
  987MOL0     H30242   5.865   6.710   6.972 -3.0008  1.7130  0.6113
  987MOL0     H30243   5.982   6.600   7.062  1.9741  2.7830  0.9276
  987MOL0     H30244   5.779   6.531   7.217  1.1044  1.0807  0.3854
  987MOL0     H30245   5.795   6.462   7.059 -1.9088  0.7362 -0.9194
  987MOL0     H30246   5.746   6.463   6.843  1.7942  1.0108 -0.9703
  987MOL0     H30247   5.638   6.487   6.613  3.2213 -3.1553  3.8622
  987MOL0     H30248   5.200   6.427   6.389  2.8100 -0.9641 -4.5401
  987MOL0     H30249   5.074   6.441   6.199 -0.8721 -0.2840  0.0761
  987MOL0     H30250   4.879   6.839   6.087  1.5109  0.1968  1.9237
  987MOL0     H30251   4.801   6.717   6.161 -1.7454 -0.5654 -1.6225
  987MOL0     H30252   4.815   6.754   5.849  1.2219 -0.3357  1.0515
  987MOL0     H30253   4.678   6.780   5.946 -0.1373  0.4662  0.3693
  987MOL0     H30254   4.698   6.540   6.003  0.5114 -1.9349 -0.7439
  987MOL0     H30255   4.810   6.524   5.860  1.0205  2.1702 -0.3623
  987MOL0     H30256   4.526   6.615   5.822 -0.7114 -0.8434 -1.9852
  987MOL0     H30257   4.648   6.635   5.711  2.2628  0.5820  1.6241
  987MOL0     H30258   4.575   6.369   5.870 -1.2368  0.6229  1.3714
  987MOL0     H30259   4.677   6.370   5.721 -0.1533 -0.5963  0.7899
  987MOL0     H30260   4.486   6.433   5.579  1.4564 -0.4906 -0.0951
  987MOL0     H30261   4.374   6.452   5.719  0.8252  2.2493 -0.2239
  987MOL0     H30262   4.384   6.201   5.573 -0.8155  4.9410 -2.8582
  987MOL0     H30263   4.530   6.204   5.667  2.4246  6.1586 -2.8080
  987MOL0     H30264   4.247   6.223   5.796 -0.1470 -0.6941  0.0318
  987MOL0     H30265   4.393   6.218   5.884  0.8298 -1.2613 -0.0492
  987MOL0     H30266   5.053   6.857   6.216 -1.0325 -0.4110  0.1820
  987MOL0     H30267   5.200   6.862   6.420  0.1986  0.2374  1.2743
  987MOL0     H30268   5.355   6.772   6.783 -1.5541 -1.6994  0.6593
  987MOL0     H30269   5.478   6.762   6.993  2.1294  1.3043 -0.2843
  987MOL0     H30270   7.185   7.021   7.455  1.0645  0.2654 -0.5939
  987MOL0     H30271   7.430   6.960   7.457  2.5709  1.9848 -1.0396
  987MOL0     H30272   7.772   6.921   7.755  0.4180  1.0155  1.4438
  987MOL0     H30273   8.010   6.879   7.833 -0.7970  0.9485 -0.3537
  987MOL0     H30274   8.236   6.981   7.912 -0.5812  3.3668 -0.0678
  987MOL0     H30275   8.199   7.125   7.821 -1.4984 -0.0312 -2.0574
  987MOL0     H30276   8.430   7.098   7.712  2.4309 -1.7366 -0.2835
  987MOL0     H30277   8.418   7.162   7.886  1.8288 -0.3138 -0.2279
  987MOL0     H30278   8.480   6.883   7.780 -0.0499 -0.1877  0.1512
  987MOL0     H30279   8.486   6.931   7.959  1.0063 -1.8404 -0.8250
  987MOL0     H30280   8.712   6.907   7.877 -0.9468 -1.1367  0.3273
  987MOL0     H30281   8.673   6.989   7.726 -0.6642 -1.4597 -0.6989
  987MOL0     H30282   8.778   7.313   7.965 -1.3700  0.4452  1.0246
  987MOL0     H30283   8.167   7.065   7.483 -1.9776  2.3299 -1.7637
  987MOL0     H30284   7.937   7.151   7.429  2.2847  1.4547  0.6124
  988MOL0     O30285   9.813   1.819   2.100  0.1093 -0.7239  0.0199
  988MOL0     C30286   9.792   1.794   1.982  1.0800  0.3088 -0.1200
  988MOL0     O30287   9.681   1.738   1.933 -1.0526 -0.8929 -0.5694
  988MOL0     C30288   9.575   1.700   2.016 -0.2852  0.1221  0.1702
  988MOL0     C30289   9.460   1.671   1.946 -0.9691  0.5164 -1.8231
  988MOL0     C30290   9.351   1.633   2.016 -1.1413 -0.9009 -0.7339
  988MOL0     C30291   9.345   1.620   2.155  0.2909  0.0606 -0.3917
  988MOL0     O30292   9.242   1.556   2.209 -0.0773 -0.5271  0.1797
  988MOL0     C30293   9.246   1.528   2.348  0.3269  0.1784  0.1013
  988MOL0     C30294   9.326   1.399   2.377 -0.5997  0.1475 -0.1846
  988MOL0     C30295   9.268   1.335   2.502 -0.1607  1.0760  0.3257
  988MOL0     C30296   9.332   1.195   2.518 -0.6943  1.2319 -0.1385
  988MOL0     C30297   9.273   1.106   2.630  0.8263  0.1299  0.0124
  988MOL0     C30298   9.290   0.961   2.615  0.2845  0.7959  0.0937
  988MOL0     C30299   9.433   0.923   2.628  0.4295 -0.0225 -0.2296
  988MOL0     C30300   9.517   0.936   2.761  1.3163 -0.6295 -0.5073
  988MOL0     N30301   9.634   1.034   2.749 -0.6664  0.2246 -0.4506
  988MOL0     C30302   9.729   1.014   2.651  0.0278 -0.6249 -0.2378
  988MOL0     C30303   9.822   1.113   2.675  0.5987  0.5946  0.4454
  988MOL0     C30304   9.945   1.144   2.581 -0.0846 -0.4336  0.3307
  988MOL0     C30305   9.900   1.203   2.451  0.3788 -0.4768  0.7173
  988MOL0     C30306   9.799   1.321   2.449  0.1179 -0.5485 -0.9421
  988MOL0     C30307   9.863   1.431   2.537  0.0101  0.5066 -0.9461
  988MOL0     O30308   9.797   1.561   2.531 -1.3795  0.2892  0.0550
  988MOL0     C30309   9.679   1.580   2.592  0.5424 -0.3066  0.1784
  988MOL0     C30310   9.628   1.485   2.675  0.7226  0.2595 -0.1600
  988MOL0     C30311   9.513   1.512   2.743  0.5210 -0.4986 -0.5722
  988MOL0     C30312   9.438   1.630   2.732 -0.5688  0.0434  1.0165
  988MOL0     C30313   9.318   1.658   2.825 -0.9895  0.1603  0.2413
  988MOL0     O30314   9.246   1.774   2.809 -0.3017  0.4362 -0.3198
  988MOL0     C30315   9.136   1.792   2.895 -0.6879  0.8085 -0.7389
  988MOL0     C30316   9.014   1.801   2.832  1.2647  0.9005  1.0580
  988MOL0     C30317   8.899   1.818   2.909  0.3831  0.7676  0.1086
  988MOL0     C30318   8.913   1.859   3.046  0.8617  0.5481  0.4170
  988MOL0     O30319   8.806   1.926   3.097 -0.2382 -0.0903  0.4484
  988MOL0     C30320   8.765   1.891   3.231 -0.1824  0.5441  0.0691
  988MOL0     C30321   8.614   1.912   3.250  0.2265 -0.1879 -0.0621
  988MOL0     C30322   8.573   2.056   3.246  0.6315 -0.8688 -0.3742
  988MOL0     C30323   8.625   2.162   3.344 -0.1935  0.5472 -0.9147
  988MOL0     C30324   8.572   2.302   3.324 -0.9116  0.0622  0.4680
  988MOL0     C30325   8.423   2.325   3.305  0.3429 -0.5083 -0.5360
  988MOL0     C30326   8.336   2.276   3.428  1.1269 -1.3370  1.2248
  988MOL0     C30327   8.186   2.265   3.379  0.0017  0.9934 -0.2036
  988MOL0    Cl30328   8.162   2.109   3.294  0.2417  0.4996 -0.1574
  988MOL0     C30329   9.031   1.854   3.111 -1.1430 -0.9489 -0.2885
  988MOL0     C30330   9.152   1.825   3.032  0.8577  1.2435 -0.2192
  988MOL0     O30331   9.297   1.564   2.905  0.8528 -0.5415  0.0031
  988MOL0     C30332   9.491   1.720   2.630  0.6091 -0.1855  0.4393
  988MOL0     C30333   9.609   1.698   2.567  0.0247  0.3069 -0.6402
  988MOL0     N30334   9.794   1.178   2.796  0.1758  0.7699 -0.2793
  988MOL0     N30335   9.681   1.128   2.833 -0.5256  0.0722  0.6016
  988MOL0     C30336   9.460   1.648   2.228  0.0392 -0.1048 -0.1502
  988MOL0     C30337   9.572   1.692   2.157  0.4538  0.3266  0.3458
  988MOL0     C30338   9.895   1.830   1.880 -0.2452  0.4749  0.4060
  988MOL0     C30339   9.903   1.771   1.753  0.6398  0.0122  1.2728
  988MOL0     C30340   9.995   1.814   1.658 -0.2115 -0.0923  0.3460
  988MOL0     C30341  10.108   1.880   1.692 -0.1634 -0.6454 -0.4021
  988MOL0     O30342  10.210   1.901   1.600 -0.3706 -0.3829  0.5278
  988MOL0     C30343  10.319   1.994   1.634 -0.8928  0.5424 -1.1076
  988MOL0     C30344  10.411   2.020   1.516 -0.7984 -0.4509  1.1410
  988MOL0     C30345  10.506   2.118   1.571 -0.0282  0.4985  0.1103
  988MOL0     C30346  10.622   2.161   1.477  0.1834 -0.8803  0.7767
  988MOL0     C30347  10.571   2.256   1.374 -0.8252 -0.2940  0.2482
  988MOL0     C30348  10.524   2.344   1.300 -0.8746 -0.6102 -0.9953
  988MOL0     C30349  10.114   1.935   1.824 -0.5459 -0.6352  0.4095
  988MOL0     C30350  10.015   1.906   1.921  0.8934 -0.1115  0.1890
  988MOL0     H30351   9.469   1.677   1.838  5.8522  2.3514 -1.6181
  988MOL0     H30352   9.274   1.599   1.947 -0.2471 -0.0438 -2.2026
  988MOL0     H30353   9.142   1.519   2.380 -0.6593  3.2259 -1.8285
  988MOL0     H30354   9.288   1.610   2.407  0.6306 -0.0772  0.2409
  988MOL0     H30355   9.433   1.406   2.397 -0.2733 -1.2808 -1.2823
  988MOL0     H30356   9.321   1.330   2.292  3.0098 -2.0014  1.1172
  988MOL0     H30357   9.161   1.321   2.482 -0.3937  2.0758  0.7900
  988MOL0     H30358   9.277   1.398   2.591  3.2334  0.6320  0.4192
  988MOL0     H30359   9.307   1.142   2.425  0.3978 -0.4452  0.4797
  988MOL0     H30360   9.438   1.207   2.539 -0.6448 -0.0868  0.4532
  988MOL0     H30361   9.165   1.114   2.643  0.7671 -0.2093 -0.2750
  988MOL0     H30362   9.313   1.131   2.729 -1.3673  2.0995  0.4827
  988MOL0     H30363   9.249   0.921   2.521  4.5729 -2.0314 -0.8714
  988MOL0     H30364   9.241   0.913   2.701 -0.0747 -1.5842 -1.3347
  988MOL0     H30365   9.433   0.815   2.612 -0.5677  0.2802 -2.9225
  988MOL0     H30366   9.488   0.952   2.537 -1.2591 -3.2006 -2.4624
  988MOL0     H30367   9.560   0.840   2.791  1.5850 -0.3564 -0.0128
  988MOL0     H30368   9.446   0.957   2.843  2.3525 -1.8175  0.7466
  988MOL0     H30369   9.722   0.953   2.562 -1.0839  1.0038 -1.3219
  988MOL0     H30370   9.989   1.046   2.560  0.8757  0.1878 -0.7069
  988MOL0     H30371  10.024   1.203   2.630  0.1754  0.2859 -0.9212
  988MOL0     H30372   9.856   1.123   2.390 -2.4535 -0.5463  2.6846
  988MOL0     H30373   9.990   1.234   2.396 -1.6535 -0.5666 -3.0225
  988MOL0     H30374   9.783   1.352   2.345 -1.4294 -1.0700 -0.8873
  988MOL0     H30375   9.707   1.283   2.494  0.5510 -0.9022 -0.3495
  988MOL0     H30376   9.966   1.441   2.502  0.8242 -1.0364  0.8704
  988MOL0     H30377   9.888   1.420   2.642  0.7176  2.2622 -0.8970
  988MOL0     H30378   9.680   1.394   2.703 -0.5566 -0.6527 -0.6758
  988MOL0     H30379   9.488   1.431   2.811  1.8480 -1.9009 -1.6692
  988MOL0     H30380   9.006   1.768   2.729  0.9193 -0.6524  1.5564
  988MOL0     H30381   8.803   1.802   2.861 -0.4530  1.9552  1.3299
  988MOL0     H30382   8.831   1.945   3.300 -1.5644  1.6403  0.5761
  988MOL0     H30383   8.783   1.784   3.246  0.0878  0.7961  1.7496
  988MOL0     H30384   8.585   1.880   3.350  2.7225  5.2823  2.8245
  988MOL0     H30385   8.548   1.856   3.183 -2.9714  0.0795  2.6290
  988MOL0     H30386   8.464   2.057   3.256  0.5807 -0.5136 -0.9567
  988MOL0     H30387   8.591   2.093   3.145  1.9544 -3.1505 -1.0563
  988MOL0     H30388   8.593   2.130   3.444  0.4923 -1.3070 -1.2474
  988MOL0     H30389   8.734   2.154   3.344 -0.2781 -2.0591  1.1206
  988MOL0     H30390   8.627   2.345   3.240 -0.6279 -0.9653  0.1044
  988MOL0     H30391   8.601   2.366   3.408  1.2528  3.3543 -2.5077
  988MOL0     H30392   8.396   2.264   3.218  0.3692  1.5910 -2.0825
  988MOL0     H30393   8.397   2.428   3.282  1.9792 -0.5362 -2.8572
  988MOL0     H30394   8.381   2.181   3.460 -0.4440 -2.2564  0.8371
  988MOL0     H30395   8.340   2.347   3.510  0.1007 -0.2188  0.3433
  988MOL0     H30396   8.152   2.343   3.311 -1.2571 -1.7921 -3.0379
  988MOL0     H30397   8.124   2.269   3.470  0.3750  3.5896  0.0173
  988MOL0     H30398   9.041   1.876   3.216 -0.7766  0.2089 -0.5501
  988MOL0     H30399   9.251   1.837   3.073  2.4274 -3.7707 -1.8378
  988MOL0     H30400   9.438   1.814   2.615 -0.8036 -1.1442 -0.8900
  988MOL0     H30401   9.659   1.774   2.508  0.1583  0.3987 -0.4079
  988MOL0     H30402   9.470   1.641   2.336 -1.1884 -3.2979 -0.1308
  988MOL0     H30403   9.657   1.704   2.223 -1.1250  1.7027  2.2382
  988MOL0     H30404   9.820   1.706   1.725  0.1007 -0.4306  3.6752
  988MOL0     H30405   9.973   1.773   1.560  3.9858 -1.1098 -0.3672
  988MOL0     H30406  10.376   1.938   1.709  0.9277  2.4593 -0.9641
  988MOL0     H30407  10.288   2.086   1.685 -3.0326 -0.7055  0.0011
  988MOL0     H30408  10.449   1.927   1.472 -3.2150 -0.4449 -1.2578
  988MOL0     H30409  10.362   2.067   1.429 -1.6746  0.1024  1.9037
  988MOL0     H30410  10.558   2.061   1.648  0.3853 -2.3452 -2.1130
  988MOL0     H30411  10.467   2.214   1.607  2.5575  1.5821  0.2483
  988MOL0     H30412  10.694   2.218   1.537 -1.6151 -0.9746  3.1956
  988MOL0     H30413  10.669   2.079   1.421 -1.5418 -0.1398 -1.9441
  988MOL0     H30414  10.484   2.417   1.234  1.2680  2.1126  0.5383
  988MOL0     H30415  10.191   2.006   1.853 -1.1242 -0.1033  0.6836
  988MOL0     H30416  10.016   1.939   2.024 -1.7708  0.3425  0.1382
  989MOL0     O30417   1.416   6.555  10.699  0.3108  0.0680  0.4291
  989MOL0     C30418   1.364   6.577  10.809  0.2568  0.0119  0.1614
  989MOL0     O30419   1.349   6.490  10.907  0.2754 -1.0310  0.3340
  989MOL0     C30420   1.405   6.367  10.886 -0.8247  0.2886  0.6108
  989MOL0     C30421   1.313   6.262  10.877 -0.5395 -0.3515 -0.7186
  989MOL0     C30422   1.356   6.126  10.866 -0.2069  0.6080  0.9198
  989MOL0     C30423   1.497   6.099  10.862  0.1141 -0.0245  0.4465
  989MOL0     O30424   1.546   5.973  10.859 -0.0110  0.0636  0.4717
  989MOL0     C30425   1.515   5.887  10.752  0.3248 -0.1670 -0.3221
  989MOL0     C30426   1.559   5.744  10.789  0.4090  0.2275  0.0159
  989MOL0     C30427   1.453   5.693  10.888 -0.1651  1.1187 -0.1280
  989MOL0     C30428   1.482   5.552  10.945 -0.5214 -0.8515 -0.6524
  989MOL0     C30429   1.579   5.559  11.064  0.1165  0.3298  0.1444
  989MOL0     C30430   1.625   5.422  11.110  0.3085  0.4252  0.1140
  989MOL0     C30431   1.703   5.425  11.248  0.5323  0.0371  0.4615
  989MOL0     C30432   1.609   5.461  11.368  0.1516 -0.6293  0.5111
  989MOL0     N30433   1.675   5.428  11.484  1.2555  0.2684  0.5418
  989MOL0     C30434   1.706   5.303  11.532 -0.0200 -0.2724 -0.6053
  989MOL0     C30435   1.775   5.333  11.649 -0.2365  0.2656  0.3722
  989MOL0     C30436   1.855   5.237  11.739  0.1707  0.5312 -0.4946
  989MOL0     C30437   1.832   5.248  11.890 -0.0377 -0.4961 -0.3728
  989MOL0     C30438   1.933   5.348  11.958  0.9310  0.9611 -0.4191
  989MOL0     C30439   1.892   5.375  12.106 -0.8533  0.2629  0.8203
  989MOL0     O30440   1.989   5.464  12.172  0.5537  0.8954 -0.1946
  989MOL0     C30441   2.100   5.399  12.226  0.6612 -0.0192  0.6256
  989MOL0     C30442   2.203   5.492  12.259 -0.1218  0.5174  0.4228
  989MOL0     C30443   2.316   5.447  12.323 -0.1034 -0.1806  0.6384
  989MOL0     C30444   2.336   5.314  12.358 -0.3706 -0.1865  0.2650
  989MOL0     C30445   2.457   5.267  12.431 -0.5296  1.4883  0.3255
  989MOL0     O30446   2.450   5.155  12.505  0.2992 -0.1903 -0.5867
  989MOL0     C30447   2.562   5.118  12.571 -0.9420  0.9309  0.1845
  989MOL0     C30448   2.674   5.079  12.509 -1.0734 -0.3332 -0.3020
  989MOL0     C30449   2.781   5.037  12.590 -0.2597 -0.4246 -0.2300
  989MOL0     C30450   2.773   5.031  12.730  0.7424  0.4013 -0.2943
  989MOL0     O30451   2.882   4.977  12.806 -0.1075 -0.3027  0.1110
  989MOL0     C30452   3.011   5.042  12.782  0.1924  0.0296 -0.3655
  989MOL0     C30453   3.125   4.939  12.793  0.1592 -0.3426 -0.2377
  989MOL0     C30454   3.258   5.005  12.756  0.2779 -0.7213  0.8067
  989MOL0     C30455   3.376   4.912  12.746  0.1273  0.6158  0.0469
  989MOL0     C30456   3.512   4.988  12.721 -1.0438  0.3303 -0.1678
  989MOL0     C30457   3.637   4.899  12.721 -0.7842 -1.0789  0.4066
  989MOL0     C30458   3.656   4.815  12.590  1.1899  0.5378 -0.3931
  989MOL0     C30459   3.804   4.772  12.578 -0.0510 -0.5337 -0.6439
  989MOL0    Cl30460   3.864   4.706  12.728 -0.2692 -0.1996 -0.0153
  989MOL0     C30461   2.655   5.059  12.793 -0.2474 -1.1506 -0.8220
  989MOL0     C30462   2.550   5.102  12.711 -0.6963 -0.0023  0.2336
  989MOL0     O30463   2.553   5.344  12.427 -0.9934  0.3741  0.0561
  989MOL0     C30464   2.238   5.221  12.315  0.4873  0.5634 -0.7208
  989MOL0     C30465   2.126   5.267  12.245  0.3709  0.5971 -0.4351
  989MOL0     N30466   1.767   5.471  11.665  0.1608  0.0747  0.2092
  989MOL0     N30467   1.717   5.521  11.565 -0.0696 -1.2798  0.0075
  989MOL0     C30468   1.585   6.209  10.873  0.0536 -0.6124  0.2897
  989MOL0     C30469   1.539   6.340  10.881 -0.3589  0.0877 -0.2755
  989MOL0     C30470   1.287   6.703  10.816  0.3276  0.0897 -0.4135
  989MOL0     C30471   1.285   6.796  10.706 -0.3476  0.0786 -0.4993
  989MOL0     C30472   1.204   6.909  10.704 -0.1632 -0.6827  0.5103
  989MOL0     C30473   1.120   6.933  10.817  0.2072  0.2715  1.5017
  989MOL0     O30474   1.048   7.054  10.809  0.7394 -0.3498 -0.5395
  989MOL0     C30475   1.029   7.117  10.942  0.2948 -1.7073  0.1652
  989MOL0     C30476   1.161   7.153  11.005  1.0565  0.1832 -0.6277
  989MOL0     C30477   1.257   7.220  10.901  0.8674  0.0699 -0.9178
  989MOL0     C30478   1.189   7.325  10.813  0.0227  0.1152  0.5179
  989MOL0     C30479   1.165   7.448  10.877  0.1103 -0.7269 -0.9984
  989MOL0     C30480   1.143   7.561  10.930  0.2326  0.0632  0.9683
  989MOL0     C30481   1.110   6.837  10.918 -0.1595  0.3734 -0.3821
  989MOL0     C30482   1.201   6.728  10.928  1.5836 -0.5248 -0.1330
  989MOL0     H30483   1.212   6.297  10.898 -0.4196 -0.8853  0.9355
  989MOL0     H30484   1.297   6.035  10.872  0.2530  0.2086 -0.2516
  989MOL0     H30485   1.542   5.929  10.655 -6.7403  1.0648 -2.2479
  989MOL0     H30486   1.407   5.876  10.746  0.4236 -1.5742  0.2095
  989MOL0     H30487   1.658   5.734  10.833 -0.2388 -4.1342  0.9146
  989MOL0     H30488   1.551   5.692  10.693  0.9232  1.1443 -0.5352
  989MOL0     H30489   1.374   5.664  10.818  2.5773 -2.4725 -2.0870
  989MOL0     H30490   1.431   5.766  10.966 -2.4225  0.7782 -0.3835
  989MOL0     H30491   1.392   5.494  10.969 -1.8979  1.0222 -1.0331
  989MOL0     H30492   1.523   5.495  10.861  0.3289 -0.0907 -0.7681
  989MOL0     H30493   1.521   5.597  11.149  0.0541  0.3338  0.0989
  989MOL0     H30494   1.662   5.625  11.036  1.1293 -0.1724  1.7953
  989MOL0     H30495   1.692   5.382  11.033 -1.5580  0.2454 -1.5000
  989MOL0     H30496   1.539   5.355  11.115  1.7076 -1.8406 -2.9015
  989MOL0     H30497   1.754   5.330  11.267  1.5686  0.3964 -0.4371
  989MOL0     H30498   1.783   5.498  11.239  2.3925 -2.0950 -2.2959
  989MOL0     H30499   1.523   5.394  11.364  1.0024 -1.6762 -1.1551
  989MOL0     H30500   1.582   5.567  11.368 -2.8950 -1.3124  1.1776
  989MOL0     H30501   1.695   5.204  11.489  1.0149 -1.1301  0.9897
  989MOL0     H30502   1.960   5.231  11.708 -0.0520 -0.3697 -1.1286
  989MOL0     H30503   1.808   5.142  11.714  0.2658 -0.0769  1.4854
  989MOL0     H30504   1.841   5.145  11.928  0.0602 -0.8970 -1.4315
  989MOL0     H30505   1.731   5.289  11.904 -0.0976 -0.1641 -1.6442
  989MOL0     H30506   2.026   5.290  11.957  1.2381  1.4392 -0.1968
  989MOL0     H30507   1.942   5.440  11.900 -4.8884  0.8605 -2.1118
  989MOL0     H30508   1.871   5.280  12.156  0.2375 -0.6898 -0.4771
  989MOL0     H30509   1.800   5.434  12.113 -1.1509 -0.1259  0.1895
  989MOL0     H30510   2.185   5.598  12.246 -0.2323  0.1847 -3.7293
  989MOL0     H30511   2.398   5.516  12.343  0.7243 -1.1734  0.7489
  989MOL0     H30512   2.695   5.084  12.403  0.8771  0.1186  0.0728
  989MOL0     H30513   2.871   5.004  12.538 -0.7908  0.2143 -1.5939
  989MOL0     H30514   3.020   5.108  12.868 -0.8151  1.0276 -0.9999
  989MOL0     H30515   3.022   5.102  12.692  2.9297  1.3303  0.7011
  989MOL0     H30516   3.082   4.859  12.731 -2.0917  0.6812 -0.0799
  989MOL0     H30517   3.136   4.901  12.895  0.6612  1.0788  0.2571
  989MOL0     H30518   3.278   5.082  12.831 -5.5679  2.6475 -0.4383
  989MOL0     H30519   3.250   5.061  12.663 -2.1524 -1.7007  0.3298
  989MOL0     H30520   3.399   4.855  12.837  1.2641  0.0890 -0.5361
  989MOL0     H30521   3.360   4.840  12.665  2.6634 -1.3792  1.1558
  989MOL0     H30522   3.526   5.066  12.797 -3.2712  0.4990  0.1210
  989MOL0     H30523   3.498   5.043  12.628 -0.0954 -0.0338 -0.5459
  989MOL0     H30524   3.634   4.827  12.803 -2.1591 -1.1707  0.2998
  989MOL0     H30525   3.724   4.961  12.742 -0.6256 -1.3988  0.7106
  989MOL0     H30526   3.584   4.733  12.602  1.6075 -0.2881 -2.8766
  989MOL0     H30527   3.645   4.878  12.502  2.9841  1.6368  0.1116
  989MOL0     H30528   3.873   4.855  12.558  0.3596 -1.0477 -1.4071
  989MOL0     H30529   3.804   4.707  12.490  0.6478  0.5650 -1.4831
  989MOL0     H30530   2.647   5.049  12.901 -0.7622 -0.4945 -0.7929
  989MOL0     H30531   2.451   5.123  12.751 -0.3419  3.6325 -0.4171
  989MOL0     H30532   2.265   5.118  12.332 -1.6759  0.1528  0.6593
  989MOL0     H30533   2.049   5.196  12.216 -0.4164  1.4734 -0.5265
  989MOL0     H30534   1.688   6.176  10.879 -0.5807 -2.7254  0.4515
  989MOL0     H30535   1.614   6.419  10.880 -1.1198  0.8253 -0.0276
  989MOL0     H30536   1.347   6.780  10.618  1.1665 -0.6706  0.6503
  989MOL0     H30537   1.201   6.982  10.623 -0.2669  0.4053  1.4700
  989MOL0     H30538   0.964   7.067  11.015 -0.9846  1.8085  1.6315
  989MOL0     H30539   0.974   7.208  10.920  1.0861 -1.6230 -1.6302
  989MOL0     H30540   1.143   7.215  11.094  0.9410 -0.4996 -0.1680
  989MOL0     H30541   1.202   7.059  11.042 -1.1696 -1.3324 -1.7869
  989MOL0     H30542   1.302   7.143  10.839  1.0835 -1.3583  0.9114
  989MOL0     H30543   1.344   7.262  10.952 -0.2589  0.7791  0.5082
  989MOL0     H30544   1.264   7.351  10.738  0.1879  1.4442  1.1165
  989MOL0     H30545   1.095   7.303  10.763  0.1856 -0.4182  0.4310
  989MOL0     H30546   1.120   7.647  10.990  2.0109  2.4331 -1.4995
  989MOL0     H30547   1.045   6.846  11.005  1.6747  0.0116  1.1002
  989MOL0     H30548   1.172   6.656  11.004 -2.1366  0.1542 -0.7180
  990MOL0     O30549   2.812  10.465   2.682 -0.7610 -0.4840 -0.2256
  990MOL0     C30550   2.880  10.553   2.742 -0.7288 -0.4016 -0.1662
  990MOL0     O30551   2.931  10.544   2.872 -1.1416  0.6956  0.3310
  990MOL0     C30552   2.905  10.439   2.959  0.5135 -0.2439  0.1241
  990MOL0     C30553   3.000  10.400   3.052  0.1507  0.3219 -0.0722
  990MOL0     C30554   2.967  10.306   3.151  0.2595  0.8370 -0.5873
  990MOL0     C30555   2.847  10.245   3.153 -1.8039  0.0658 -0.3681
  990MOL0     O30556   2.824  10.147   3.256  0.8468 -1.0790 -0.0142
  990MOL0     C30557   2.905  10.029   3.255  0.0233 -0.9940  0.4837
  990MOL0     C30558   2.874   9.931   3.369 -0.3422 -0.5976  0.1239
  990MOL0     C30559   2.899   9.990   3.505 -0.0904  0.4174  1.0351
  990MOL0     C30560   3.050   9.995   3.547  0.3691  0.5103 -0.4241
  990MOL0     C30561   3.105   9.877   3.639  0.4800  0.2719  0.8579
  990MOL0     C30562   3.244   9.913   3.699  0.7034 -1.1675  1.0679
  990MOL0     C30563   3.278   9.817   3.819  0.6899 -0.4728 -0.8188
  990MOL0     C30564   3.345   9.688   3.775  0.8815  0.1045  0.4084
  990MOL0     N30565   3.247   9.582   3.724 -0.0807 -0.0774  0.2472
  990MOL0     C30566   3.250   9.537   3.601  0.1634  0.8670  0.2726
  990MOL0     C30567   3.169   9.424   3.603 -0.0154 -0.5220 -0.2710
  990MOL0     C30568   3.117   9.335   3.492  0.5519 -0.2771  0.1708
  990MOL0     C30569   2.987   9.384   3.445 -0.0158 -0.2577  0.0178
  990MOL0     C30570   2.901   9.267   3.390  0.1773  0.0186  0.4626
  990MOL0     C30571   2.957   9.193   3.258  0.7394 -0.6850 -0.4727
  990MOL0     O30572   2.884   9.071   3.236  0.0813  0.0003 -0.6928
  990MOL0     C30573   2.774   9.076   3.150 -0.1792  0.1187 -0.7875
  990MOL0     C30574   2.727   8.945   3.113  0.4987 -0.9832  0.1907
  990MOL0     C30575   2.617   8.925   3.028  0.0651  0.3528 -0.8348
  990MOL0     C30576   2.552   9.033   2.980 -0.0280 -0.9449 -0.0759
  990MOL0     C30577   2.436   9.021   2.892  0.7902 -0.2128 -0.4925
  990MOL0     O30578   2.382   9.127   2.845  0.1321  0.4454  0.4980
  990MOL0     C30579   2.252   9.141   2.824 -0.2009 -0.7100  0.9360
  990MOL0     C30580   2.195   9.217   2.717  0.0090  0.3391 -0.1066
  990MOL0     C30581   2.065   9.224   2.694 -0.0550 -0.3386  0.0581
  990MOL0     C30582   1.968   9.187   2.786  0.2051 -0.4679 -0.8994
  990MOL0     O30583   1.836   9.221   2.769  0.4736  0.0417 -0.1205
  990MOL0     C30584   1.732   9.165   2.859 -0.6905  0.3237  0.0288
  990MOL0     C30585   1.603   9.211   2.800  0.2901  0.3461  0.2849
  990MOL0     C30586   1.485   9.151   2.885 -0.3678 -0.2682  0.4821
  990MOL0     C30587   1.473   9.229   3.020  0.3918 -0.4458  1.5484
  990MOL0     C30588   1.350   9.173   3.089 -0.4938  0.0154 -0.4906
  990MOL0     C30589   1.301   9.270   3.204 -0.4750 -0.0562 -0.2620
  990MOL0     C30590   1.186   9.203   3.294  0.2451 -0.0457 -0.2960
  990MOL0     C30591   1.076   9.307   3.328  0.8280 -0.3001 -0.2299
  990MOL0    Cl30592   1.160   9.459   3.369 -0.0932  0.1366  0.4600
  990MOL0     C30593   2.016   9.111   2.891 -0.9374  0.0579 -0.2022
  990MOL0     C30594   2.151   9.084   2.908  0.4214  0.4185  0.2724
  990MOL0     O30595   2.394   8.900   2.869 -0.5357 -0.2186 -0.3092
  990MOL0     C30596   2.597   9.162   3.015 -0.8361  0.3811 -0.0891
  990MOL0     C30597   2.710   9.186   3.095  1.2791 -0.4715  0.9389
  990MOL0     N30598   3.123   9.413   3.733 -0.3676  0.0145 -0.7708
  990MOL0     N30599   3.168   9.507   3.808  0.5067 -0.1577 -0.5531
  990MOL0     C30600   2.754  10.289   3.063 -0.3818  0.6280 -0.2259
  990MOL0     C30601   2.776  10.378   2.966 -0.4517 -0.3384  1.1001
  990MOL0     C30602   2.943  10.654   2.664  0.6832 -0.4761 -0.4617
  990MOL0     C30603   3.030  10.742   2.722  0.6199  0.3005 -1.0714
  990MOL0     C30604   3.078  10.853   2.651 -0.7519  0.3278 -0.6596
  990MOL0     C30605   3.050  10.875   2.513 -0.3421  0.0801  0.0682
  990MOL0     O30606   3.082  10.981   2.434 -0.5062 -0.1861  0.0499
  990MOL0     C30607   3.101  11.106   2.506  0.0195 -0.5902  0.2618
  990MOL0     C30608   3.055  11.223   2.425  0.5381 -0.7736  0.5615
  990MOL0     C30609   2.899  11.216   2.412  0.4077 -0.9193 -0.0126
  990MOL0     C30610   2.838  11.314   2.325 -0.7336 -0.1357  0.7916
  990MOL0     C30611   2.700  11.289   2.311 -0.0295 -0.4232  0.0010
  990MOL0     C30612   2.581  11.274   2.299  0.0407  0.4220  1.3791
  990MOL0     C30613   2.959  10.785   2.457 -0.1653  0.5120 -0.7071
  990MOL0     C30614   2.906  10.673   2.530  0.0285  0.0181  0.2051
  990MOL0     H30615   3.100  10.442   3.046 -0.6815  2.2119 -1.8982
  990MOL0     H30616   3.033  10.275   3.232 -1.4544 -1.4892  0.0376
  990MOL0     H30617   3.011  10.052   3.260  0.7076 -3.2897 -1.6741
  990MOL0     H30618   2.874   9.975   3.165 -0.6780 -1.0914  0.7720
  990MOL0     H30619   2.946   9.849   3.357  1.2756  0.7540  0.3136
  990MOL0     H30620   2.772   9.891   3.367 -1.5303  2.1345  1.5168
  990MOL0     H30621   2.845   9.942   3.587 -0.6413 -0.8735 -0.0524
  990MOL0     H30622   2.857  10.091   3.502  0.4932  0.7033  1.8568
  990MOL0     H30623   3.117  10.013   3.462  0.8863  1.8925  0.2530
  990MOL0     H30624   3.066  10.084   3.608  2.3278  0.0351 -0.1806
  990MOL0     H30625   3.109   9.790   3.572  0.4271  0.9352 -0.0211
  990MOL0     H30626   3.039   9.853   3.722 -0.1140 -1.6217 -0.0850
  990MOL0     H30627   3.243  10.017   3.734 -0.8889 -1.0247  0.6666
  990MOL0     H30628   3.313   9.905   3.615  1.0948  0.8399  1.1383
  990MOL0     H30629   3.353   9.867   3.881  1.7264 -2.9031  0.0250
  990MOL0     H30630   3.193   9.805   3.887  0.8710  2.7683  0.1478
  990MOL0     H30631   3.396   9.646   3.862  4.0725 -1.5495 -2.0471
  990MOL0     H30632   3.423   9.704   3.700 -1.4407  1.4080 -1.8641
  990MOL0     H30633   3.282   9.588   3.510 -2.5568  3.4140  0.6192
  990MOL0     H30634   3.110   9.231   3.523  0.0816  0.0285  1.1428
  990MOL0     H30635   3.183   9.337   3.405 -1.2492 -3.8110 -1.4605
  990MOL0     H30636   3.005   9.447   3.358 -0.0281 -2.0325 -1.3209
  990MOL0     H30637   2.946   9.448   3.524  0.9020 -1.8563  1.8925
  990MOL0     H30638   2.881   9.196   3.470 -0.1146 -1.0184 -0.4969
  990MOL0     H30639   2.804   9.312   3.366 -0.4462 -2.1106 -1.3176
  990MOL0     H30640   3.060   9.164   3.282  0.9526 -0.9489 -1.6437
  990MOL0     H30641   2.963   9.255   3.168 -0.5275 -0.8698 -0.6996
  990MOL0     H30642   2.782   8.856   3.142  0.6576 -0.7666  0.5620
  990MOL0     H30643   2.572   8.828   3.011 -1.9874  0.9792  0.5766
  990MOL0     H30644   2.253   9.275   2.646 -0.2885 -1.2713 -1.7434
  990MOL0     H30645   2.025   9.280   2.609  2.1579  0.9229 -0.2379
  990MOL0     H30646   1.758   9.218   2.951  2.7525  0.1807 -0.7166
  990MOL0     H30647   1.729   9.057   2.869  3.8800  0.1756  2.3122
  990MOL0     H30648   1.591   9.185   2.694  1.4367  3.7289 -0.8226
  990MOL0     H30649   1.596   9.320   2.815 -2.0147  0.3073 -0.2161
  990MOL0     H30650   1.484   9.041   2.884 -3.5733 -0.3188 -0.1603
  990MOL0     H30651   1.393   9.170   2.829  1.2771 -0.4701 -2.4802
  990MOL0     H30652   1.554   9.218   3.093 -0.4247  1.6880  2.8565
  990MOL0     H30653   1.464   9.337   3.009 -2.6197 -0.3935  3.3911
  990MOL0     H30654   1.369   9.066   3.102  1.1679  0.2610 -0.5994
  990MOL0     H30655   1.265   9.187   3.021 -0.8346 -0.5314 -0.1806
  990MOL0     H30656   1.265   9.365   3.165 -1.3336 -0.2872 -0.0492
  990MOL0     H30657   1.389   9.299   3.263  0.1220 -0.3756 -0.9760
  990MOL0     H30658   1.146   9.111   3.248 -1.3544 -0.3998  1.6686
  990MOL0     H30659   1.232   9.178   3.390 -0.0280 -1.0196 -0.4038
  990MOL0     H30660   1.007   9.271   3.404 -1.3374  0.5957 -1.6753
  990MOL0     H30661   1.020   9.316   3.235 -1.0549 -0.9746  0.7978
  990MOL0     H30662   1.946   9.071   2.964 -0.1542 -3.5439 -1.2340
  990MOL0     H30663   2.167   9.025   2.998 -2.1699  0.7672  1.0286
  990MOL0     H30664   2.535   9.247   2.986  0.8705  1.7287  0.0593
  990MOL0     H30665   2.738   9.290   3.114  1.6744  0.2397 -2.8725
  990MOL0     H30666   2.655  10.246   3.073 -0.0786  0.3014  1.7956
  990MOL0     H30667   2.696  10.401   2.897 -1.2233 -2.2387  1.2997
  990MOL0     H30668   3.056  10.749   2.827 -0.6159 -0.3513 -0.6972
  990MOL0     H30669   3.151  10.911   2.706 -0.6270 -0.2033 -0.2466
  990MOL0     H30670   3.208  11.119   2.519  0.0300 -3.0994  6.9498
  990MOL0     H30671   3.054  11.098   2.605 -1.8524 -1.4543 -0.6414
  990MOL0     H30672   3.069  11.317   2.480 -1.0810 -0.3165  0.2449
  990MOL0     H30673   3.109  11.234   2.331  1.9764 -2.4024  1.1524
  990MOL0     H30674   2.865  11.229   2.515 -1.1156  0.5782 -0.6719
  990MOL0     H30675   2.879  11.115   2.375  4.1288 -1.3475 -1.2981
  990MOL0     H30676   2.849  11.419   2.355  2.5715  0.1297 -0.8547
  990MOL0     H30677   2.896  11.302   2.233 -0.6644  0.6103  0.7275
  990MOL0     H30678   2.479  11.252   2.275  0.8789 -3.3064  0.5785
  990MOL0     H30679   2.916  10.803   2.359  1.0198  1.3280 -1.0942
  990MOL0     H30680   2.832  10.609   2.483 -2.2086  3.2507 -1.0357
  991MOL0     O30681   4.228   9.563   1.077 -0.4510  0.5735 -0.3023
  991MOL0     C30682   4.178   9.678   1.066  0.6570  0.5682  0.5067
  991MOL0     O30683   4.239   9.795   1.026  0.0989 -0.1495 -0.4270
  991MOL0     C30684   4.375   9.813   1.026  0.1456  0.8025  0.6883
  991MOL0     C30685   4.466   9.714   0.984  0.1435 -0.1999  0.1465
  991MOL0     C30686   4.606   9.755   0.971 -1.1490  0.2906  0.0139
  991MOL0     C30687   4.649   9.893   0.991  0.2799  0.7979  0.6820
  991MOL0     O30688   4.778   9.939   0.995  0.0624 -0.2593  0.0668
  991MOL0     C30689   4.876   9.860   0.936  0.0638 -0.4969 -0.0524
  991MOL0     C30690   5.017   9.922   0.927  0.4846 -0.1822  1.1339
  991MOL0     C30691   5.025  10.061   0.860 -0.0897 -0.4410 -0.7648
  991MOL0     C30692   5.155  10.075   0.793  0.0880  0.2571 -0.4851
  991MOL0     C30693   5.180  10.203   0.734 -0.2370 -0.6842  0.4302
  991MOL0     C30694   5.117  10.215   0.597 -0.9933 -0.4008  0.3959
  991MOL0     C30695   5.128  10.365   0.545 -0.3615 -0.3274 -0.4303
  991MOL0     C30696   5.159  10.383   0.398  0.1544  0.0872 -0.2467
  991MOL0     N30697   5.215  10.520   0.365  0.0640  0.8176 -0.0105
  991MOL0     C30698   5.146  10.612   0.288 -0.3771  0.0456 -0.3686
  991MOL0     C30699   5.200  10.736   0.329  0.2906 -0.2389 -0.0994
  991MOL0     C30700   5.159  10.872   0.272  0.5010  0.5126 -0.0094
  991MOL0     C30701   5.005  10.902   0.286  0.0758 -0.5367 -0.1574
  991MOL0     C30702   4.959  11.045   0.239  0.3629  0.4250 -0.0196
  991MOL0     C30703   4.840  11.098   0.318  0.2372  0.2474 -0.0777
  991MOL0     O30704   4.829  11.236   0.275 -0.6144  0.1896 -0.2040
  991MOL0     C30705   4.719  11.308   0.310  0.5188  0.6139  0.6939
  991MOL0     C30706   4.633  11.268   0.407  0.7131 -1.3422 -0.2287
  991MOL0     C30707   4.525  11.352   0.443 -0.9833  0.5243  0.9488
  991MOL0     C30708   4.522  11.481   0.390 -0.7007  0.1232  0.2781
  991MOL0     C30709   4.410  11.565   0.443 -0.0830 -0.4078  0.4036
  991MOL0     O30710   4.297  11.490   0.488 -0.3999 -0.4392  0.4462
  991MOL0     C30711   4.185  11.560   0.530  0.4139  0.4377 -0.1985
  991MOL0     C30712   4.100  11.501   0.630  0.3780 -0.5540 -0.0963
  991MOL0     C30713   3.983  11.565   0.676  0.3108 -0.1450 -0.3455
  991MOL0     C30714   3.941  11.686   0.619  0.6625  0.0284 -0.9844
  991MOL0     O30715   3.825  11.750   0.657  0.6989  0.5852  0.0864
  991MOL0     C30716   3.816  11.891   0.653  0.2197 -0.1044 -0.5152
  991MOL0     C30717   3.676  11.930   0.714 -0.4136  0.1723  0.7438
  991MOL0     C30718   3.650  12.086   0.706 -0.5780 -0.1005  0.8446
  991MOL0     C30719   3.505  12.116   0.748  1.0293  0.1665  0.2698
  991MOL0     C30720   3.468  12.261   0.719  0.6074  0.0296 -0.4701
  991MOL0     C30721   3.346  12.312   0.796 -0.0961  0.2529  0.0448
  991MOL0     C30722   3.384  12.340   0.946  0.3672  0.3148 -0.0219
  991MOL0     C30723   3.274  12.403   1.032 -0.3629 -0.3845  0.0439
  991MOL0    Cl30724   3.221  12.553   0.974  0.0979 -0.1237 -0.1516
  991MOL0     C30725   4.015  11.734   0.516  0.5777 -0.2602 -0.0821
  991MOL0     C30726   4.133  11.665   0.470  0.5247  0.0929  0.8477
  991MOL0     O30727   4.417  11.690   0.428 -0.9226  0.2411 -0.6470
  991MOL0     C30728   4.618  11.524   0.298 -0.1446 -0.2187 -0.7035
  991MOL0     C30729   4.720  11.438   0.250 -0.5315 -0.2375 -0.3569
  991MOL0     N30730   5.294  10.712   0.429 -0.3686 -0.4421 -0.0750
  991MOL0     N30731   5.313  10.583   0.446  0.3788 -0.4394 -0.7865
  991MOL0     C30732   4.547   9.979   1.029 -0.0263  0.1596 -0.6782
  991MOL0     C30733   4.419   9.935   1.049 -0.3263 -0.3475 -0.6753
  991MOL0     C30734   4.025   9.681   1.077  0.9763 -0.5375  0.1848
  991MOL0     C30735   3.966   9.812   1.076 -0.4138 -0.0663  0.8167
  991MOL0     C30736   3.829   9.822   1.077  0.7226  0.7681  0.2417
  991MOL0     C30737   3.744   9.707   1.088  0.1930  0.4308  0.5980
  991MOL0     O30738   3.611   9.728   1.075 -0.1675  0.9128 -0.0843
  991MOL0     C30739   3.516   9.620   1.081 -0.6720  1.1152 -0.5322
  991MOL0     C30740   3.398   9.678   1.153  0.1418  0.0074 -0.5613
  991MOL0     C30741   3.328   9.790   1.065 -0.2704  1.5218  0.2944
  991MOL0     C30742   3.204   9.822   1.131  0.1110 -0.5911  0.2698
  991MOL0     C30743   3.150   9.936   1.056 -0.2093  0.5329 -0.0918
  991MOL0     C30744   3.095  10.028   1.007  0.4824 -0.2161 -0.1411
  991MOL0     C30745   3.802   9.582   1.094  0.3061  0.4296  0.2036
  991MOL0     C30746   3.943   9.572   1.093 -0.3132  0.2229  0.1618
  991MOL0     H30747   4.442   9.613   0.953  2.3945 -0.9353  0.6309
  991MOL0     H30748   4.679   9.679   0.943 -0.7850  0.6625 -0.0657
  991MOL0     H30749   4.845   9.825   0.838  0.0439 -1.0889  0.1587
  991MOL0     H30750   4.897   9.771   0.997 -4.1065 -0.8003  1.2646
  991MOL0     H30751   5.075   9.842   0.880 -0.2490 -0.4114  0.6094
  991MOL0     H30752   5.055   9.932   1.029  3.6943 -1.1238  0.1439
  991MOL0     H30753   5.005  10.134   0.939 -0.6018 -0.8673 -0.4868
  991MOL0     H30754   4.940  10.068   0.791 -0.0648  2.6825 -0.5814
  991MOL0     H30755   5.231  10.059   0.870 -2.0133 -0.4847  1.5561
  991MOL0     H30756   5.170  10.002   0.713 -0.5104  1.0344 -1.3251
  991MOL0     H30757   5.285  10.229   0.720 -0.7411  0.6846 -1.1110
  991MOL0     H30758   5.153  10.270   0.817  0.2744  0.9364 -0.6716
  991MOL0     H30759   5.014  10.181   0.589 -0.4946 -1.9132  0.0030
  991MOL0     H30760   5.183  10.155   0.534 -1.0818 -1.6182  1.4288
  991MOL0     H30761   5.029  10.408   0.564 -0.4757  1.2669 -3.8492
  991MOL0     H30762   5.202  10.420   0.604  0.8111 -2.0472 -0.1981
  991MOL0     H30763   5.084  10.348   0.327  1.4229 -0.0792 -1.5685
  991MOL0     H30764   5.247  10.322   0.375  0.2796 -0.4435  1.5173
  991MOL0     H30765   5.063  10.587   0.222  1.0276 -0.9141 -1.8506
  991MOL0     H30766   5.202  10.877   0.172 -0.0474 -0.4420 -0.3076
  991MOL0     H30767   5.211  10.959   0.314  0.3775  0.7450 -0.3381
  991MOL0     H30768   4.980  10.883   0.390  1.3924  0.0063  0.2892
  991MOL0     H30769   4.952  10.832   0.220 -4.2482  2.9863 -0.8613
  991MOL0     H30770   5.049  11.105   0.249  1.9630 -1.9368  0.6152
  991MOL0     H30771   4.933  11.046   0.133 -1.6847  0.2329  0.4363
  991MOL0     H30772   4.854  11.082   0.425  0.0529 -1.5590 -0.2820
  991MOL0     H30773   4.754  11.039   0.285  1.0637  0.1168 -2.1947
  991MOL0     H30774   4.639  11.165   0.440 -1.6919 -1.5329 -0.1773
  991MOL0     H30775   4.461  11.310   0.519 -0.9720  2.3143  2.0052
  991MOL0     H30776   4.131  11.414   0.687 -1.0897  0.0677  1.7363
  991MOL0     H30777   3.925  11.523   0.759  2.7716 -2.8974  0.1571
  991MOL0     H30778   3.818  11.921   0.548  1.3586 -0.1737 -0.5221
  991MOL0     H30779   3.896  11.941   0.708 -2.0335  2.3999  0.7247
  991MOL0     H30780   3.653  11.888   0.812  0.1720 -1.8888  0.0553
  991MOL0     H30781   3.599  11.883   0.652  2.2933 -1.9765 -1.2136
  991MOL0     H30782   3.661  12.121   0.602  0.5108 -0.4190  0.8382
  991MOL0     H30783   3.720  12.134   0.775  1.8367 -1.6506 -0.3538
  991MOL0     H30784   3.439  12.047   0.695  1.7550 -0.0397 -0.3744
  991MOL0     H30785   3.511  12.102   0.856  1.7356 -1.1044  0.0792
  991MOL0     H30786   3.449  12.259   0.612  1.1059 -0.6473 -0.5538
  991MOL0     H30787   3.558  12.323   0.727  1.1012 -0.7060 -0.2387
  991MOL0     H30788   3.260  12.244   0.799  0.1164 -0.4062 -3.6010
  991MOL0     H30789   3.315  12.407   0.751 -2.4291 -0.4902 -0.0539
  991MOL0     H30790   3.405  12.242   0.990  2.3502  0.9457  0.5430
  991MOL0     H30791   3.476  12.398   0.953 -0.1030  1.3881 -1.8346
  991MOL0     H30792   3.317  12.417   1.131  2.5648 -1.9685 -0.8818
  991MOL0     H30793   3.188  12.335   1.026 -1.1103  0.6445 -1.6778
  991MOL0     H30794   3.985  11.828   0.472 -1.5127 -1.4885 -1.4520
  991MOL0     H30795   4.185  11.701   0.382 -1.0126 -0.6022 -0.3986
  991MOL0     H30796   4.621  11.629   0.273  3.4009 -0.2508 -0.9939
  991MOL0     H30797   4.801  11.464   0.183 -0.4319 -0.0235 -0.1546
  991MOL0     H30798   4.578  10.083   1.039 -2.5868  0.7938  2.7975
  991MOL0     H30799   4.345  10.005   1.087 -0.9890 -2.4532  2.3352
  991MOL0     H30800   4.027   9.900   1.062 -2.2757  1.0055 -1.2226
  991MOL0     H30801   3.798   9.926   1.080 -1.5580  0.1449 -0.0518
  991MOL0     H30802   3.550   9.533   1.138 -3.4945  1.2518  1.5657
  991MOL0     H30803   3.490   9.589   0.980 -1.7288  0.8160 -0.1833
  991MOL0     H30804   3.321   9.603   1.177 -0.9702  0.5977 -2.0938
  991MOL0     H30805   3.436   9.718   1.247  4.4946 -1.9199 -1.2567
  991MOL0     H30806   3.287   9.759   0.968 -0.4481 -0.7613  1.0303
  991MOL0     H30807   3.401   9.868   1.044  0.8659  0.2799 -0.5747
  991MOL0     H30808   3.126   9.745   1.132 -1.2292  0.6976 -0.8222
  991MOL0     H30809   3.226   9.860   1.231  1.4638  0.5345 -0.4192
  991MOL0     H30810   3.036  10.106   0.963  2.4460  1.6300  0.3383
  991MOL0     H30811   3.745   9.490   1.102  1.6047 -0.4992 -0.8658
  991MOL0     H30812   3.998   9.478   1.094  0.7428  0.8201  1.3352
  992MOL0     O30813   4.650   4.516   6.706  0.3765  0.2021  0.4030
  992MOL0     C30814   4.651   4.554   6.825  0.1914  0.1862 -0.8107
  992MOL0     O30815   4.575   4.655   6.887 -0.4085  0.5799 -0.8640
  992MOL0     C30816   4.467   4.710   6.821  1.2665  0.0176 -0.3084
  992MOL0     C30817   4.337   4.659   6.829 -0.6208  0.3017 -1.6914
  992MOL0     C30818   4.240   4.716   6.752  0.0927  0.0212 -0.0779
  992MOL0     C30819   4.265   4.837   6.688 -0.0374 -0.4879 -0.3534
  992MOL0     O30820   4.171   4.918   6.617 -0.0290 -0.3158  0.6844
  992MOL0     C30821   4.040   4.866   6.589  0.2253 -0.5005  0.5467
  992MOL0     C30822   3.962   4.969   6.502  0.4470  0.5981  0.4438
  992MOL0     C30823   3.923   5.094   6.580  0.4749  0.1725  0.2951
  992MOL0     C30824   3.842   5.202   6.506  0.9971  0.1435 -0.9476
  992MOL0     C30825   3.780   5.300   6.604 -0.1789 -0.1958  0.3624
  992MOL0     C30826   3.882   5.399   6.653  0.9160 -0.6777  0.3273
  992MOL0     C30827   3.835   5.488   6.771 -0.0268  0.1918 -0.2008
  992MOL0     C30828   3.941   5.587   6.817 -0.5797 -0.5116 -0.2031
  992MOL0     N30829   3.944   5.694   6.722 -0.1792  0.7594 -0.5724
  992MOL0     C30830   3.998   5.702   6.598  0.6183  1.1190 -0.2629
  992MOL0     C30831   3.959   5.816   6.543 -0.4802 -0.6427  0.3983
  992MOL0     C30832   3.984   5.856   6.397 -0.6634  0.0620 -0.7945
  992MOL0     C30833   3.860   5.846   6.304 -0.4725  0.1711 -0.0381
  992MOL0     C30834   3.908   5.896   6.168 -0.1818 -0.4841  0.2941
  992MOL0     C30835   3.795   5.985   6.091 -0.1003  0.2851 -1.1512
  992MOL0     O30836   3.747   6.097   6.167  0.1931  0.7790 -0.2234
  992MOL0     C30837   3.636   6.163   6.124  0.4782  0.3072 -0.3570
  992MOL0     C30838   3.573   6.250   6.214 -0.3117 -0.4218  0.3522
  992MOL0     C30839   3.464   6.326   6.170  0.0464  0.1315  0.8209
  992MOL0     C30840   3.405   6.297   6.046 -0.3705  1.2370  0.3966
  992MOL0     C30841   3.280   6.368   6.000  0.6065  0.0686  0.0929
  992MOL0     O30842   3.235   6.452   6.092 -0.5377  0.0345 -0.1239
  992MOL0     C30843   3.135   6.536   6.064  1.1805  0.5067  0.5402
  992MOL0     C30844   3.015   6.492   5.989  0.0610 -0.0943 -0.2108
  992MOL0     C30845   2.931   6.589   5.940 -0.4463 -0.0877  0.5400
  992MOL0     C30846   2.942   6.729   5.973 -0.2602  0.4601  0.5376
  992MOL0     O30847   2.880   6.826   5.901  0.2141 -0.6837 -0.0180
  992MOL0     C30848   2.941   6.860   5.785 -0.5366 -1.0893  0.3222
  992MOL0     C30849   2.852   6.970   5.712 -0.1375 -0.5560  0.4677
  992MOL0     C30850   2.932   7.048   5.604  0.1556 -0.4737  0.1094
  992MOL0     C30851   2.825   7.116   5.505 -0.0616  0.1711 -0.2625
  992MOL0     C30852   2.879   7.236   5.447 -0.0308  0.4747  0.1232
  992MOL0     C30853   2.989   7.225   5.342  0.0580  0.3105  0.2564
  992MOL0     C30854   3.102   7.321   5.346  1.4568 -1.0036 -0.6738
  992MOL0     C30855   3.216   7.270   5.264 -0.6989 -1.5895 -0.9169
  992MOL0    Cl30856   3.170   7.264   5.085 -0.4535  0.2389 -0.2498
  992MOL0     C30857   3.051   6.768   6.062  0.0246  0.1767  0.1952
  992MOL0     C30858   3.143   6.676   6.104 -0.1853 -0.3683 -0.1095
  992MOL0     O30859   3.245   6.358   5.879  0.1677  0.2621  0.5530
  992MOL0     C30860   3.464   6.202   5.965  0.0369  0.1225  0.4239
  992MOL0     C30861   3.591   6.142   5.996 -0.3993 -0.4718  0.1284
  992MOL0     N30862   3.897   5.890   6.640  0.3597  0.6141  0.1979
  992MOL0     N30863   3.888   5.815   6.751 -0.3295 -0.7466  0.4112
  992MOL0     C30864   4.392   4.892   6.684 -0.9129 -0.5774 -0.4122
  992MOL0     C30865   4.495   4.820   6.747  1.3628 -0.3767 -0.1182
  992MOL0     C30866   4.757   4.494   6.912  0.3157  0.8494 -0.3638
  992MOL0     C30867   4.779   4.536   7.047 -0.4322  0.6217  0.7102
  992MOL0     C30868   4.895   4.498   7.115  0.4956  0.2120  0.9230
  992MOL0     C30869   4.991   4.420   7.051 -0.4441  0.1810 -0.3659
  992MOL0     O30870   5.106   4.392   7.126 -0.1490 -0.0457 -0.2639
  992MOL0     C30871   5.220   4.341   7.051  0.6707 -0.8582  0.1003
  992MOL0     C30872   5.338   4.337   7.136  0.3206 -0.1370 -0.4560
  992MOL0     C30873   5.372   4.470   7.204  0.5661  0.7573  0.5356
  992MOL0     C30874   5.397   4.588   7.099  0.0222  0.0198 -0.2026
  992MOL0     C30875   5.449   4.698   7.175  0.4246 -0.6907 -0.4695
  992MOL0     C30876   5.485   4.795   7.231 -0.0205 -0.3317 -0.1862
  992MOL0     C30877   4.964   4.373   6.919  0.1196 -0.4862  0.5619
  992MOL0     C30878   4.850   4.405   6.853 -0.0451 -0.0638 -0.5561
  992MOL0     H30879   4.324   4.568   6.887  3.3200  1.2406  1.0842
  992MOL0     H30880   4.145   4.665   6.742  0.7599 -0.9820 -1.8540
  992MOL0     H30881   3.989   4.845   6.683  2.2387 -0.3351  1.7455
  992MOL0     H30882   4.050   4.767   6.545  0.9380 -0.9600  1.6952
  992MOL0     H30883   3.869   4.927   6.461 -1.9679  2.1754  3.7390
  992MOL0     H30884   4.026   4.990   6.416 -1.5722 -3.0546 -2.2703
  992MOL0     H30885   4.012   5.146   6.616  2.0666 -1.5247 -0.9836
  992MOL0     H30886   3.866   5.060   6.667 -1.8794  0.5741 -0.9933
  992MOL0     H30887   3.908   5.259   6.440  1.0611  4.1998  2.2383
  992MOL0     H30888   3.763   5.160   6.443 -2.6356  3.5989  0.8106
  992MOL0     H30889   3.726   5.247   6.682  0.5805  0.3214  1.2618
  992MOL0     H30890   3.712   5.364   6.547  1.1625  0.6725 -0.3117
  992MOL0     H30891   3.906   5.466   6.569 -1.8812  2.0700  1.5099
  992MOL0     H30892   3.973   5.352   6.689  1.9312 -1.0588 -2.4788
  992MOL0     H30893   3.739   5.538   6.756  0.3128  1.2328  0.8977
  992MOL0     H30894   3.827   5.416   6.853  1.2190 -0.8110 -0.9260
  992MOL0     H30895   4.038   5.538   6.800 -0.6513  0.0640 -2.6443
  992MOL0     H30896   3.934   5.626   6.919  2.9240  3.6001 -1.2172
  992MOL0     H30897   4.051   5.617   6.555 -2.5870 -1.7152  0.8772
  992MOL0     H30898   4.070   5.797   6.366  1.0461  1.9115  0.1336
  992MOL0     H30899   4.023   5.958   6.392 -3.8579  1.5088  0.7240
  992MOL0     H30900   3.778   5.910   6.337 -0.3870  0.4520 -0.3677
  992MOL0     H30901   3.824   5.743   6.294  0.4196  0.0555 -2.6279
  992MOL0     H30902   4.002   5.952   6.165  1.2316 -2.5657  2.5453
  992MOL0     H30903   3.915   5.804   6.110 -2.0256 -0.9259  0.6966
  992MOL0     H30904   3.714   5.916   6.065  2.9309 -4.6500  1.0576
  992MOL0     H30905   3.837   6.022   5.997  1.4111 -1.3789 -1.1752
  992MOL0     H30906   3.633   6.266   6.304  3.2207  0.1481 -1.9107
  992MOL0     H30907   3.443   6.417   6.226  1.8295  0.3001  1.2801
  992MOL0     H30908   3.004   6.394   5.945 -0.4528  0.1694 -0.6805
  992MOL0     H30909   2.847   6.570   5.874 -0.1610 -0.3432  0.2455
  992MOL0     H30910   2.954   6.768   5.727  0.3244 -3.1947  3.5514
  992MOL0     H30911   3.036   6.907   5.811 -1.2793 -1.0315  3.3629
  992MOL0     H30912   2.814   7.039   5.787  1.8257 -2.2203  3.1823
  992MOL0     H30913   2.773   6.916   5.660 -0.5002  0.5475 -0.1612
  992MOL0     H30914   3.007   6.989   5.551  1.2782  1.7205 -0.8911
  992MOL0     H30915   2.987   7.125   5.659 -0.4924 -1.3235  2.0685
  992MOL0     H30916   2.796   7.039   5.433 -2.0162 -1.9275  2.5356
  992MOL0     H30917   2.728   7.139   5.549 -0.1324  1.1445 -0.9059
  992MOL0     H30918   2.916   7.295   5.531 -0.6973  0.9714  0.0809
  992MOL0     H30919   2.787   7.285   5.414 -0.2280  0.0537  0.0362
  992MOL0     H30920   2.944   7.256   5.248 -2.3383 -1.9223  0.5644
  992MOL0     H30921   3.026   7.123   5.329 -0.1044  0.1740  0.8171
  992MOL0     H30922   3.068   7.416   5.302 -0.0482 -0.5772  1.2578
  992MOL0     H30923   3.126   7.336   5.452  1.5087  0.6634 -0.8943
  992MOL0     H30924   3.237   7.175   5.314 -1.5627 -1.4733 -0.2961
  992MOL0     H30925   3.298   7.340   5.280 -1.7109 -0.7463  1.0759
  992MOL0     H30926   3.079   6.870   6.084 -0.4364  0.0879  1.2578
  992MOL0     H30927   3.238   6.689   6.154 -1.6848  2.2989  2.3128
  992MOL0     H30928   3.411   6.190   5.871 -1.0742 -0.0522  1.0679
  992MOL0     H30929   3.643   6.078   5.925  1.2341  0.4661  0.4133
  992MOL0     H30930   4.413   4.984   6.630  1.5807 -0.5915  0.3804
  992MOL0     H30931   4.599   4.849   6.744  0.9348  1.1723 -1.6239
  992MOL0     H30932   4.706   4.606   7.087 -2.1467 -0.5404 -0.2652
  992MOL0     H30933   4.904   4.526   7.219  2.4197 -0.1430  0.9013
  992MOL0     H30934   5.239   4.408   6.967  1.6514 -0.3285  0.7219
  992MOL0     H30935   5.208   4.245   7.001 -3.0120 -0.6348  0.2562
  992MOL0     H30936   5.330   4.263   7.216 -1.2292  0.4518 -0.0313
  992MOL0     H30937   5.421   4.308   7.071 -1.5912 -1.9395 -2.2095
  992MOL0     H30938   5.455   4.461   7.274  1.5789 -0.8961 -0.7906
  992MOL0     H30939   5.290   4.489   7.274  0.3427 -1.2684  0.8831
  992MOL0     H30940   5.465   4.555   7.020 -1.2942 -0.6036 -1.1158
  992MOL0     H30941   5.306   4.616   7.044  0.5169 -1.0486 -1.6478
  992MOL0     H30942   5.521   4.891   7.260  0.1935 -0.2049 -0.8467
  992MOL0     H30943   5.024   4.307   6.857  2.4693  2.5935 -0.6916
  992MOL0     H30944   4.820   4.350   6.765 -3.5854  0.1301  0.3558
  993MOL0     O30945  11.360  10.551   9.303 -0.8031  0.0507  0.3259
  993MOL0     C30946  11.302  10.536   9.195 -0.8629  0.5787  0.1642
  993MOL0     O30947  11.248  10.639   9.114 -0.2181  0.4798  0.8585
  993MOL0     C30948  11.270  10.778   9.133  0.4750  0.2234  0.9132
  993MOL0     C30949  11.387  10.834   9.184  0.6199  0.5303 -0.6233
  993MOL0     C30950  11.392  10.982   9.205 -0.8959 -0.2801 -0.0341
  993MOL0     C30951  11.285  11.062   9.160 -0.0853 -0.5450 -0.6049
  993MOL0     O30952  11.270  11.197   9.196 -0.3611  0.6860  0.2582
  993MOL0     C30953  11.382  11.282   9.219  0.0362  0.1735  0.3318
  993MOL0     C30954  11.318  11.414   9.258 -0.2119 -0.0946 -0.4657
  993MOL0     C30955  11.415  11.534   9.240 -0.9110  0.3707 -0.5250
  993MOL0     C30956  11.496  11.548   9.112  0.1337  0.9535  0.6392
  993MOL0     C30957  11.529  11.697   9.081 -0.5602  0.1202 -0.5582
  993MOL0     C30958  11.407  11.787   9.037  0.0661  0.4379  0.0047
  993MOL0     C30959  11.453  11.894   8.935  0.8530 -0.7778 -0.2858
  993MOL0     C30960  11.331  11.963   8.873  0.6915  0.4524 -0.2520
  993MOL0     N30961  11.347  12.026   8.736  0.1353  0.6860  0.5519
  993MOL0     C30962  11.273  11.992   8.631  0.6098 -0.4985 -0.5278
  993MOL0     C30963  11.309  12.080   8.535 -0.9991 -0.2411 -0.2395
  993MOL0     C30964  11.237  12.089   8.403  0.1339 -0.4893 -0.6708
  993MOL0     C30965  11.291  11.987   8.297  0.5626  0.1682 -0.4897
  993MOL0     C30966  11.425  12.028   8.239 -0.8414  0.3214 -0.6039
  993MOL0     C30967  11.482  11.922   8.150  0.0752  0.7431 -0.0431
  993MOL0     O30968  11.577  11.846   8.226  0.1834  0.2905 -0.7601
  993MOL0     C30969  11.639  11.734   8.169  0.0726 -0.6410 -0.1693
  993MOL0     C30970  11.624  11.701   8.036  0.4416 -0.4601  0.1296
  993MOL0     C30971  11.690  11.590   7.986 -0.5482  0.7073  0.3280
  993MOL0     C30972  11.771  11.507   8.069 -0.5327  0.9777 -0.5868
  993MOL0     C30973  11.832  11.385   8.006 -0.4026  0.2305  0.6731
  993MOL0     O30974  11.811  11.355   7.867 -0.0976  0.2655 -0.2464
  993MOL0     C30975  11.849  11.228   7.829 -0.1004 -0.9915  0.5658
  993MOL0     C30976  11.893  11.227   7.699 -0.3951  0.1357  0.1987
  993MOL0     C30977  11.940  11.105   7.640  0.5883 -0.6085 -0.0208
  993MOL0     C30978  11.929  10.982   7.707  0.2987  0.0231 -0.6226
  993MOL0     O30979  11.964  10.869   7.639  0.2978  1.0571 -0.1875
  993MOL0     C30980  12.058  10.787   7.715  0.5051 -0.1275 -0.8815
  993MOL0     C30981  12.197  10.855   7.717  0.4761  0.2691 -0.3672
  993MOL0     C30982  12.289  10.783   7.808 -0.4996 -0.0882 -0.6078
  993MOL0     C30983  12.339  10.648   7.742 -0.2558  0.7496  0.1156
  993MOL0     C30984  12.443  10.587   7.827  0.4876 -0.7324  0.6024
  993MOL0     C30985  12.480  10.446   7.793 -0.7107  0.8419  0.7031
  993MOL0     C30986  12.537  10.409   7.647 -0.4358  0.4213  0.7121
  993MOL0     C30987  12.646  10.494   7.596 -0.0532  0.0638  0.1861
  993MOL0    Cl30988  12.776  10.507   7.722  0.3383 -0.3913  0.1648
  993MOL0     C30989  11.880  10.988   7.840 -0.1580  0.5704 -0.6446
  993MOL0     C30990  11.850  11.106   7.894 -0.5475  0.3183  0.1182
  993MOL0     O30991  11.895  11.319   8.083 -0.3260 -0.1896 -0.8574
  993MOL0     C30992  11.787  11.541   8.204 -0.3297 -0.4694  0.0163
  993MOL0     C30993  11.725  11.656   8.254 -1.2458  1.1260  0.2811
  993MOL0     N30994  11.416  12.155   8.582 -0.0545 -0.4846  0.6940
  993MOL0     N30995  11.445  12.115   8.702  0.6101  0.6695 -0.3686
  993MOL0     C30996  11.177  11.000   9.107  0.7142 -0.5132  0.5118
  993MOL0     C30997  11.164  10.857   9.096 -0.0515  0.5126  1.1147
  993MOL0     C30998  11.247  10.405   9.161 -1.5321  0.1236 -0.3893
  993MOL0     C30999  11.311  10.292   9.227 -0.4807  0.3052 -0.2327
  993MOL0     C31000  11.260  10.163   9.188  0.5782 -0.4150  0.4740
  993MOL0     C31001  11.148  10.147   9.094  0.1975 -0.7053  1.3836
  993MOL0     O31002  11.117  10.024   9.055 -0.0007  0.5093 -0.2437
  993MOL0     C31003  11.020   9.993   8.947 -0.6151 -0.2607  0.2304
  993MOL0     C31004  11.075   9.999   8.808  0.3635  1.2605 -0.4723
  993MOL0     C31005  10.957  10.003   8.709  0.1122  0.3880 -0.3932
  993MOL0     C31006  10.859   9.876   8.707  0.7192 -0.3374 -0.0512
  993MOL0     C31007  10.929   9.749   8.680  1.0526  0.8239  0.9106
  993MOL0     C31008  10.999   9.645   8.654  0.4634 -0.4944  0.4851
  993MOL0     C31009  11.087  10.266   9.045 -0.1278  0.3837 -0.4347
  993MOL0     C31010  11.138  10.387   9.074  0.3188 -1.0312  0.9457
  993MOL0     H31011  11.465  10.770   9.223  0.6907  0.3037 -1.1360
  993MOL0     H31012  11.471  11.024   9.265 -0.0424 -0.5203 -0.9683
  993MOL0     H31013  11.445  11.288   9.130  0.0843 -1.6710  0.2042
  993MOL0     H31014  11.436  11.241   9.305 -0.2150 -0.6744  0.0916
  993MOL0     H31015  11.300  11.418   9.366 -0.5743  1.8446 -0.5644
  993MOL0     H31016  11.228  11.442   9.202 -0.2269  2.2010  0.6076
  993MOL0     H31017  11.494  11.521   9.315  2.5617  1.9496 -3.5973
  993MOL0     H31018  11.361  11.627   9.262 -0.9241  0.8125 -2.2686
  993MOL0     H31019  11.592  11.496   9.119 -0.6495 -0.3101  3.1459
  993MOL0     H31020  11.449  11.508   9.022  1.1519  0.8026  0.1556
  993MOL0     H31021  11.618  11.704   9.019  0.8397 -0.3724  1.3024
  993MOL0     H31022  11.565  11.751   9.169 -1.8222  1.3750 -0.7601
  993MOL0     H31023  11.353  11.837   9.118 -1.4256  0.9114 -1.2324
  993MOL0     H31024  11.323  11.726   9.004 -1.6700  2.6660  0.0852
  993MOL0     H31025  11.507  11.971   8.991 -1.7610 -0.7558  2.4517
  993MOL0     H31026  11.524  11.852   8.862  2.6028  0.5019  0.6080
  993MOL0     H31027  11.301  12.041   8.944 -2.1635  0.3141 -1.1855
  993MOL0     H31028  11.246  11.894   8.869  1.8393 -0.9572 -2.4758
  993MOL0     H31029  11.189  11.923   8.629 -0.1192  0.3770 -1.2255
  993MOL0     H31030  11.257  12.187   8.358 -0.3959 -2.0513 -4.8305
  993MOL0     H31031  11.133  12.056   8.414  1.4307 -4.5583  1.5923
  993MOL0     H31032  11.221  11.976   8.214  0.3307 -1.2768 -0.1298
  993MOL0     H31033  11.301  11.889   8.345 -0.7632  0.3301  0.1400
  993MOL0     H31034  11.407  12.122   8.187 -1.8477  1.9186  2.4253
  993MOL0     H31035  11.507  12.043   8.310  2.0067  0.8789 -3.7242
  993MOL0     H31036  11.531  11.972   8.065 -2.5223  0.7162 -1.6487
  993MOL0     H31037  11.400  11.860   8.112 -0.0775 -0.5204  2.1854
  993MOL0     H31038  11.561  11.762   7.972 -2.8424 -2.2872  1.3621
  993MOL0     H31039  11.681  11.552   7.884  2.0468 -2.5445  1.1276
  993MOL0     H31040  11.902  11.318   7.641 -0.0567 -1.0840 -1.7593
  993MOL0     H31041  11.975  11.114   7.537 -0.1252 -5.7097 -0.9931
  993MOL0     H31042  12.072  10.688   7.671  2.1465 -1.0128  1.4593
  993MOL0     H31043  12.008  10.770   7.811 -0.5600  2.6449 -0.8263
  993MOL0     H31044  12.192  10.955   7.761  3.6025  0.4493 -0.1884
  993MOL0     H31045  12.238  10.861   7.616  1.7669 -0.4264  0.0957
  993MOL0     H31046  12.239  10.762   7.903 -2.5500  0.7299 -1.4256
  993MOL0     H31047  12.379  10.838   7.836 -0.9453 -0.1310  0.9923
  993MOL0     H31048  12.261  10.571   7.740  1.0623 -0.6301  0.0313
  993MOL0     H31049  12.369  10.667   7.638 -2.0164  0.9663 -0.3904
  993MOL0     H31050  12.407  10.601   7.929  2.9682  0.3247  1.4081
  993MOL0     H31051  12.530  10.652   7.810 -0.6484  0.2667 -1.9110
  993MOL0     H31052  12.395  10.381   7.819 -1.3206  2.5561  3.3912
  993MOL0     H31053  12.555  10.421   7.868 -1.6709 -1.8570  0.8713
  993MOL0     H31054  12.569  10.305   7.656 -4.3170 -0.8663  1.8097
  993MOL0     H31055  12.464  10.410   7.565  0.1201  2.7063  0.1660
  993MOL0     H31056  12.605  10.595   7.588 -1.1344 -0.2080  1.8328
  993MOL0     H31057  12.688  10.469   7.498  1.2363  0.1662  0.6892
  993MOL0     H31058  11.868  10.895   7.895  2.9021  0.5709  0.1819
  993MOL0     H31059  11.836  11.107   8.001  0.4407 -1.4159  0.2937
  993MOL0     H31060  11.842  11.473   8.268  2.2497  1.7383  0.3198
  993MOL0     H31061  11.722  11.667   8.361  0.1717 -1.7673  0.7136
  993MOL0     H31062  11.101  11.064   9.063  0.9757  0.7975  1.8932
  993MOL0     H31063  11.075  10.804   9.062  0.3267 -0.2558  1.3049
  993MOL0     H31064  11.402  10.306   9.285 -0.1887  0.2337 -0.6703
  993MOL0     H31065  11.293  10.071   9.235 -0.8047 -1.3251 -0.2582
  993MOL0     H31066  10.933  10.060   8.956  0.3465  0.9146  1.2549
  993MOL0     H31067  10.992   9.888   8.947 -1.9205 -0.0276 -2.7452
  993MOL0     H31068  11.138  10.087   8.791  0.6267  0.7567 -2.2007
  993MOL0     H31069  11.134   9.908   8.797 -0.8412  0.4581 -0.5302
  993MOL0     H31070  11.002  10.000   8.609 -2.1818 -1.1265 -1.4775
  993MOL0     H31071  10.900  10.095   8.723  0.6559  0.7185 -0.3164
  993MOL0     H31072  10.810   9.861   8.804 -1.1619 -1.6031 -1.1225
  993MOL0     H31073  10.782   9.901   8.632  2.1739  3.2717 -0.5372
  993MOL0     H31074  11.070   9.569   8.629  1.4845 -0.5699  3.2485
  993MOL0     H31075  11.004  10.252   8.977 -1.1347  1.3006  0.5767
  993MOL0     H31076  11.096  10.476   9.027  0.5563 -1.4211 -0.0223
  994MOL0     O31077   8.306  11.011   4.333 -0.7038  0.0203  0.6546
  994MOL0     C31078   8.229  10.984   4.240  0.3706 -0.6533 -0.2747
  994MOL0     O31079   8.097  11.019   4.242 -0.4847  0.2573 -0.1362
  994MOL0     C31080   8.033  11.093   4.340 -0.6266 -0.5741  1.3318
  994MOL0     C31081   8.051  11.069   4.474 -0.8464  0.3116  0.6715
  994MOL0     C31082   7.985  11.164   4.561 -0.4842 -0.5463  0.3108
  994MOL0     C31083   7.908  11.269   4.517 -0.7240 -0.3543 -0.3251
  994MOL0     O31084   7.855  11.356   4.606 -0.6412  0.0126  0.0258
  994MOL0     C31085   7.797  11.483   4.560 -0.0617 -0.6648  0.0747
  994MOL0     C31086   7.902  11.595   4.505  0.4791 -0.0235 -0.4266
  994MOL0     C31087   7.814  11.722   4.483  0.0004 -1.0447 -0.5711
  994MOL0     C31088   7.890  11.823   4.388 -0.1246  0.7758  0.8917
  994MOL0     C31089   7.869  11.792   4.246 -0.6776  0.6181  0.2980
  994MOL0     C31090   7.932  11.890   4.139  0.1768  0.2490 -0.6131
  994MOL0     C31091   7.954  11.820   4.015 -0.3276  0.4806  0.9606
  994MOL0     C31092   8.043  11.895   3.917  0.2706 -0.8009  0.2173
  994MOL0     N31093   8.053  11.843   3.787 -0.0284  0.1446  0.7009
  994MOL0     C31094   7.946  11.790   3.712 -1.2996  0.1306 -1.4792
  994MOL0     C31095   7.991  11.789   3.581  0.0730 -0.0297  0.2539
  994MOL0     C31096   7.906  11.757   3.456 -0.0598 -0.3635 -0.2337
  994MOL0     C31097   7.908  11.864   3.350 -0.0767  0.5818 -0.6624
  994MOL0     C31098   7.868  11.996   3.411  0.3668 -0.0664  0.4595
  994MOL0     C31099   7.858  12.099   3.299  0.6567 -0.4350 -0.1685
  994MOL0     O31100   7.732  12.093   3.239 -0.0951  0.1192 -0.0153
  994MOL0     C31101   7.731  12.139   3.106  1.0812  0.4939 -0.5873
  994MOL0     C31102   7.653  12.242   3.076  0.0468 -0.5401  0.1634
  994MOL0     C31103   7.645  12.290   2.943  0.2942  0.8019 -0.8740
  994MOL0     C31104   7.728  12.234   2.838 -1.0795  0.3909 -0.1343
  994MOL0     C31105   7.714  12.277   2.694 -0.2264  1.8208 -1.1396
  994MOL0     O31106   7.808  12.239   2.606  0.0977 -0.3603 -1.0790
  994MOL0     C31107   7.767  12.250   2.478  0.0684 -0.6125  0.1357
  994MOL0     C31108   7.689  12.156   2.413  0.1217  0.3229 -0.2196
  994MOL0     C31109   7.654  12.161   2.280  0.1960  0.9161 -0.0277
  994MOL0     C31110   7.697  12.263   2.195 -0.2370  0.4990 -0.0812
  994MOL0     O31111   7.656  12.272   2.063  0.1521  0.1659  0.5793
  994MOL0     C31112   7.692  12.386   1.990 -0.0392  0.2797 -0.2855
  994MOL0     C31113   7.642  12.391   1.854 -0.1858 -0.4776  0.2805
  994MOL0     C31114   7.492  12.407   1.848  0.1814  0.1815  0.0839
  994MOL0     C31115   7.450  12.485   1.721 -0.5465 -0.2648  0.4747
  994MOL0     C31116   7.475  12.404   1.592  0.2737 -1.1838  0.8809
  994MOL0     C31117   7.455  12.486   1.464  0.2880  0.7172  0.7105
  994MOL0     C31118   7.505  12.406   1.340  0.1105  0.5164  0.1051
  994MOL0     C31119   7.514  12.504   1.227 -0.7912  0.3546 -0.0481
  994MOL0    Cl31120   7.362  12.592   1.201  0.1974  0.3683 -0.7363
  994MOL0     C31121   7.779  12.359   2.265  0.2496 -0.2899 -0.0350
  994MOL0     C31122   7.819  12.356   2.396  0.0696 -0.9961 -0.9918
  994MOL0     O31123   7.602  12.322   2.673 -0.4724 -0.4012  0.4848
  994MOL0     C31124   7.807  12.130   2.876 -0.5075  0.5110  0.0368
  994MOL0     C31125   7.818  12.090   3.011 -0.3658  0.4210 -0.0767
  994MOL0     N31126   8.109  11.861   3.574  0.2234  0.3155  0.8602
  994MOL0     N31127   8.143  11.883   3.700 -0.6190  0.3586  0.0568
  994MOL0     C31128   7.889  11.276   4.379  0.9033  0.5691  0.3773
  994MOL0     C31129   7.949  11.194   4.291  0.6093  0.1778 -0.4844
  994MOL0     C31130   8.274  10.914   4.129  0.9853  1.2844  0.4597
  994MOL0     C31131   8.389  10.830   4.129 -0.7231  0.5586 -0.3487
  994MOL0     C31132   8.405  10.745   4.018 -0.2328 -0.0611 -0.3022
  994MOL0     C31133   8.318  10.749   3.905  0.6107  0.4403  0.3230
  994MOL0     O31134   8.325  10.671   3.793 -0.2977  0.0891 -0.5148
  994MOL0     C31135   8.360  10.537   3.816 -0.2559  1.0597 -0.0312
  994MOL0     C31136   8.348  10.453   3.690  0.3875 -1.2354  0.0938
  994MOL0     C31137   8.359  10.309   3.733  0.5689  1.1679 -0.0481
  994MOL0     C31138   8.506  10.270   3.759  0.0634  0.2317 -0.2325
  994MOL0     C31139   8.571  10.254   3.621  0.5197 -0.5947 -0.3539
  994MOL0     C31140   8.628  10.262   3.519  0.2103 -0.4636 -0.5488
  994MOL0     C31141   8.218  10.841   3.900  0.2878  0.7441 -0.7395
  994MOL0     C31142   8.193  10.919   4.014  0.6814 -0.6434  0.0447
  994MOL0     H31143   8.121  10.991   4.503  0.3836  1.0092 -0.2707
  994MOL0     H31144   7.997  11.178   4.668  1.1246  4.0480 -0.2788
  994MOL0     H31145   7.738  11.525   4.642 -0.1593  0.2184 -0.4361
  994MOL0     H31146   7.715  11.468   4.489 -1.9103  1.1050  1.7215
  994MOL0     H31147   7.951  11.553   4.417  0.3111 -0.4943 -0.3002
  994MOL0     H31148   7.977  11.618   4.581  0.5415 -0.9216 -0.2001
  994MOL0     H31149   7.813  11.778   4.577 -0.3383 -1.0018 -0.5987
  994MOL0     H31150   7.715  11.698   4.443  0.5232 -0.5304 -2.2446
  994MOL0     H31151   7.863  11.928   4.402  1.0804  1.0865  0.9573
  994MOL0     H31152   7.997  11.829   4.411 -0.0713  1.2425  0.5148
  994MOL0     H31153   7.760  11.798   4.238 -1.3107 -4.3820  1.4094
  994MOL0     H31154   7.893  11.686   4.231 -1.7625  0.1766  1.4694
  994MOL0     H31155   8.032  11.931   4.157  0.4740  2.0484 -5.0452
  994MOL0     H31156   7.869  11.976   4.114  0.4541 -0.3487 -3.7474
  994MOL0     H31157   7.971  11.712   4.021 -0.6392  0.1445 -2.3881
  994MOL0     H31158   7.858  11.826   3.963 -0.4570  2.4816  1.3360
  994MOL0     H31159   8.140  11.896   3.968  0.1091 -1.7790  0.5748
  994MOL0     H31160   8.011  11.999   3.905  1.1742 -0.6291 -0.8506
  994MOL0     H31161   7.853  11.751   3.752 -0.1616 -0.2551  0.9523
  994MOL0     H31162   7.804  11.743   3.493 -0.7363 -0.8651 -2.1733
  994MOL0     H31163   7.948  11.667   3.411 -1.7341 -1.2090 -0.1745
  994MOL0     H31164   7.851  11.838   3.261 -3.1949 -0.0248  1.3724
  994MOL0     H31165   8.011  11.880   3.316  0.7345 -3.6273 -0.7123
  994MOL0     H31166   7.779  11.982   3.473  1.7645 -1.7352  2.2563
  994MOL0     H31167   7.938  12.023   3.491  0.1396 -1.5965  1.2157
  994MOL0     H31168   7.943  12.086   3.231 -1.0189 -2.4073 -2.0691
  994MOL0     H31169   7.861  12.198   3.347 -0.1797 -0.6755  0.4055
  994MOL0     H31170   7.604  12.300   3.153 -2.6411  0.5734 -2.2225
  994MOL0     H31171   7.577  12.371   2.920 -1.1966 -0.8163 -2.6005
  994MOL0     H31172   7.670  12.071   2.478  3.7230  1.0081  1.9585
  994MOL0     H31173   7.587  12.092   2.229 -2.2349  2.5517  0.7703
  994MOL0     H31174   7.800  12.393   1.983 -0.1816  0.9024 -3.1731
  994MOL0     H31175   7.667  12.478   2.043  3.4232  0.5352  1.1320
  994MOL0     H31176   7.660  12.294   1.806 -0.4851 -1.5130  2.1616
  994MOL0     H31177   7.692  12.466   1.793  2.5306 -2.5204 -0.1698
  994MOL0     H31178   7.457  12.479   1.922 -1.4673  0.0626 -0.5215
  994MOL0     H31179   7.434  12.314   1.856 -2.8564  1.6686 -2.2162
  994MOL0     H31180   7.345  12.516   1.725 -1.2186 -2.1180 -1.1567
  994MOL0     H31181   7.500  12.583   1.720  0.5722 -0.8010 -1.2292
  994MOL0     H31182   7.415  12.312   1.592 -0.1182 -0.9979  3.0851
  994MOL0     H31183   7.578  12.367   1.593  0.2130 -1.3736  0.4252
  994MOL0     H31184   7.515  12.576   1.478  3.6581 -1.2274 -0.1336
  994MOL0     H31185   7.348  12.507   1.461  0.1709  0.1990  1.0778
  994MOL0     H31186   7.597  12.354   1.366 -0.6332 -0.3198  1.1931
  994MOL0     H31187   7.437  12.321   1.327  1.2634 -1.1970  3.7788
  994MOL0     H31188   7.527  12.445   1.136 -1.2073 -0.1919  0.2389
  994MOL0     H31189   7.597  12.571   1.250 -1.0693  1.9048 -3.0626
  994MOL0     H31190   7.826  12.448   2.223  1.8435 -0.1813  1.8525
  994MOL0     H31191   7.888  12.436   2.421 -0.5844  0.2157 -2.8964
  994MOL0     H31192   7.860  12.070   2.803 -1.7177 -1.4589  0.6967
  994MOL0     H31193   7.897  12.024   3.047  0.7663  2.8906  2.2949
  994MOL0     H31194   7.812  11.346   4.346  1.4794  0.6078 -0.9610
  994MOL0     H31195   7.924  11.193   4.185  0.4557 -0.9385 -0.4472
  994MOL0     H31196   8.451  10.826   4.218 -0.2296  2.4493 -0.5495
  994MOL0     H31197   8.494  10.684   4.019  1.1156  1.7549 -1.5999
  994MOL0     H31198   8.286  10.496   3.886  0.7962  0.9630  1.0461
  994MOL0     H31199   8.460  10.523   3.856  1.6730  1.5350 -4.1769
  994MOL0     H31200   8.256  10.463   3.632  0.3784 -0.6013  0.2146
  994MOL0     H31201   8.431  10.478   3.623  1.5612  0.4591  2.0725
  994MOL0     H31202   8.308  10.245   3.661 -2.0179  2.8692  0.1185
  994MOL0     H31203   8.313  10.283   3.829  1.3872  1.6924  0.5017
  994MOL0     H31204   8.570  10.340   3.813  0.8343  0.3603 -1.2615
  994MOL0     H31205   8.501  10.179   3.819  0.2211 -0.7274 -1.6301
  994MOL0     H31206   8.671  10.286   3.424  2.6588 -0.1796  0.5651
  994MOL0     H31207   8.163  10.819   3.810  1.6841 -2.1558 -0.9656
  994MOL0     H31208   8.110  10.988   4.017  1.2121 -0.0353  1.8180
  995MOL0     O31209  11.317   9.472  10.896  0.1737 -0.7003  0.4866
  995MOL0     C31210  11.247   9.423  10.808 -0.8240 -0.1305  1.1496
  995MOL0     O31211  11.272   9.314  10.732 -0.5018 -0.3993 -0.4279
  995MOL0     C31212  11.400   9.268  10.720 -1.0239 -0.3576 -0.3798
  995MOL0     C31213  11.509   9.354  10.737 -0.0018 -0.4659  0.5904
  995MOL0     C31214  11.640   9.304  10.754 -0.7196 -0.3438 -0.0208
  995MOL0     C31215  11.671   9.172  10.733 -0.1415  0.2784 -0.7196
  995MOL0     O31216  11.807   9.134  10.749 -0.8661  0.2201  0.3870
  995MOL0     C31217  11.841   8.988  10.734 -0.7162  0.1480 -0.2095
  995MOL0     C31218  11.804   8.900  10.848  0.2465 -0.2528 -0.2094
  995MOL0     C31219  11.812   8.750  10.825  0.3698 -0.3426  0.4055
  995MOL0     C31220  11.767   8.675  10.954 -0.0007 -1.2053  1.0174
  995MOL0     C31221  11.651   8.572  10.930 -0.5738  0.2239  0.0703
  995MOL0     C31222  11.697   8.462  10.833  0.2616 -0.4240 -0.1680
  995MOL0     C31223  11.818   8.392  10.887 -0.3284  0.0423 -0.3647
  995MOL0     C31224  11.833   8.250  10.839  0.0934 -1.2241 -0.7171
  995MOL0     N31225  11.934   8.182  10.912 -0.0066  0.4877  0.5169
  995MOL0     C31226  11.923   8.150  11.046  0.7800  0.6445 -1.2304
  995MOL0     C31227  12.010   8.047  11.057  0.7624 -0.0829 -0.9975
  995MOL0     C31228  12.059   7.984  11.180  0.4197  0.4042  0.3310
  995MOL0     C31229  11.945   7.922  11.265 -0.3255  0.1294 -0.1468
  995MOL0     C31230  12.007   7.862  11.398  0.5928  0.3617  0.1501
  995MOL0     C31231  11.884   7.795  11.478  0.3942 -0.1520 -0.2877
  995MOL0     O31232  11.803   7.895  11.551 -0.2215  0.2701 -0.3055
  995MOL0     C31233  11.698   7.865  11.640  1.5146 -0.0897 -0.3528
  995MOL0     C31234  11.638   7.976  11.697  0.1572  0.9292  0.2295
  995MOL0     C31235  11.540   7.962  11.791  0.7658  0.6720 -0.2806
  995MOL0     C31236  11.491   7.831  11.823  0.6030 -0.3192  2.0409
  995MOL0     C31237  11.378   7.815  11.922 -0.3184 -0.0349  0.6581
  995MOL0     O31238  11.337   7.929  11.995 -0.2118 -0.4043  0.3992
  995MOL0     C31239  11.236   7.922  12.088  0.2418 -0.0868  0.2895
  995MOL0     C31240  11.165   8.044  12.110 -0.5257 -0.2232 -0.6114
  995MOL0     C31241  11.069   8.051  12.216  0.3217  0.0542  0.1119
  995MOL0     C31242  11.039   7.941  12.297 -0.2575 -0.4976 -0.4744
  995MOL0     O31243  10.938   7.944  12.386  0.2742  0.0749 -0.3747
  995MOL0     C31244  10.846   7.833  12.393 -0.5713 -0.1264 -0.2072
  995MOL0     C31245  10.733   7.866  12.488 -0.0817  0.0198  0.8498
  995MOL0     C31246  10.653   7.985  12.430  0.5445  0.0111  0.5394
  995MOL0     C31247  10.549   8.034  12.530 -1.2280  0.7931  0.4605
  995MOL0     C31248  10.442   7.931  12.553  0.7286 -0.1476 -0.6519
  995MOL0     C31249  10.346   7.977  12.658 -0.2943  0.0581  1.1450
  995MOL0     C31250  10.222   7.886  12.650 -0.0873  0.2712 -0.5955
  995MOL0     C31251  10.136   7.912  12.527 -0.0907 -0.4641 -0.6865
  995MOL0    Cl31252  10.008   8.025  12.567 -0.1290 -0.0393  0.1985
  995MOL0     C31253  11.114   7.824  12.271 -0.2151 -0.3853  0.9193
  995MOL0     C31254  11.207   7.816  12.170 -0.6066  0.5625  0.4757
  995MOL0     O31255  11.328   7.703  11.938  0.4691 -0.2747 -0.2625
  995MOL0     C31256  11.558   7.718  11.772  0.0633 -0.0404 -0.2502
  995MOL0     C31257  11.656   7.734  11.678  0.2321  1.0754 -0.5355
  995MOL0     N31258  12.060   8.008  10.937 -0.1714 -0.1126  0.4495
  995MOL0     N31259  12.018   8.091  10.847  0.1902 -1.2819 -0.0746
  995MOL0     C31260  11.562   9.086  10.717 -0.1809  0.1385 -0.2669
  995MOL0     C31261  11.432   9.130  10.704 -0.2283  0.0346 -0.2424
  995MOL0     C31262  11.105   9.452  10.796  0.2965 -0.8822 -0.4732
  995MOL0     C31263  11.012   9.400  10.697 -0.0329  0.2486 -0.7892
  995MOL0     C31264  10.880   9.446  10.698 -0.3797  0.6610  0.2238
  995MOL0     C31265  10.827   9.533  10.798  0.8849 -0.1763  0.4024
  995MOL0     O31266  10.696   9.557  10.781 -0.0341  0.1148 -0.1127
  995MOL0     C31267  10.625   9.612  10.889  0.2904  0.0357 -0.4280
  995MOL0     C31268  10.477   9.607  10.872 -0.3723  0.9365  0.3692
  995MOL0     C31269  10.418   9.695  10.768 -0.7031  0.4078 -0.1350
  995MOL0     C31270  10.270   9.657  10.742 -0.1298 -0.1350  0.1155
  995MOL0     C31271  10.220   9.773  10.671 -0.0103  0.0427 -0.1570
  995MOL0     C31272  10.168   9.867  10.618  0.3677  0.3356 -0.1287
  995MOL0     C31273  10.913   9.557  10.908 -0.1856  0.1114  0.9159
  995MOL0     C31274  11.045   9.519  10.901  0.1995 -0.5289  0.0917
  995MOL0     H31275  11.503   9.461  10.754 -1.5112 -0.4201 -0.0387
  995MOL0     H31276  11.720   9.374  10.773 -0.1344 -1.8029  3.6174
  995MOL0     H31277  11.948   8.976  10.716 -0.5194 -0.0005  0.9986
  995MOL0     H31278  11.801   8.957  10.637 -0.9902 -1.5761  0.4262
  995MOL0     H31279  11.698   8.914  10.873  0.1040  2.2183 -1.8779
  995MOL0     H31280  11.869   8.920  10.934 -2.0004 -2.5527  2.2117
  995MOL0     H31281  11.913   8.715  10.804  0.6006  0.9580 -0.7628
  995MOL0     H31282  11.749   8.722  10.740  2.8844 -1.1877 -1.2724
  995MOL0     H31283  11.858   8.632  10.997  3.2854  1.7636 -2.2754
  995MOL0     H31284  11.733   8.751  11.026 -0.0124 -2.7323  2.7021
  995MOL0     H31285  11.564   8.622  10.888 -0.4158  2.0945  1.8182
  995MOL0     H31286  11.614   8.523  11.021 -1.9570 -2.3153 -1.7114
  995MOL0     H31287  11.723   8.516  10.741 -2.3948  3.7185  1.2479
  995MOL0     H31288  11.610   8.398  10.814 -0.5560  0.6058  0.0218
  995MOL0     H31289  11.916   8.437  10.866  2.0169 -2.1494  4.3992
  995MOL0     H31290  11.797   8.385  10.994 -1.6667 -0.1591 -0.6279
  995MOL0     H31291  11.870   8.250  10.736  1.4560 -4.2455 -0.3348
  995MOL0     H31292  11.739   8.194  10.833 -0.2703 -0.8585  0.9584
  995MOL0     H31293  11.859   8.178  11.128  1.8883  3.0325 -1.1145
  995MOL0     H31294  12.104   8.059  11.245  3.4962 -1.6140  0.7394
  995MOL0     H31295  12.126   7.901  11.155 -1.6126 -0.8302 -1.3809
  995MOL0     H31296  11.886   7.843  11.217  2.2653 -3.1491  1.6336
  995MOL0     H31297  11.877   7.999  11.305 -1.8949 -2.0241  1.6264
  995MOL0     H31298  12.091   7.795  11.374  0.3968 -0.5903  1.9560
  995MOL0     H31299  12.057   7.943  11.452  1.2385  1.7648 -2.3769
  995MOL0     H31300  11.929   7.720  11.544  0.2428 -0.4235 -0.4863
  995MOL0     H31301  11.808   7.742  11.419 -1.5748  4.0862 -1.9755
  995MOL0     H31302  11.651   8.079  11.665 -1.6181  1.2715  0.4990
  995MOL0     H31303  11.493   8.038  11.853 -0.3951 -0.3460  0.1429
  995MOL0     H31304  11.204   8.127  12.053  2.7210 -1.0701  0.2001
  995MOL0     H31305  11.022   8.148  12.232 -0.0291  0.1998 -1.6226
  995MOL0     H31306  10.899   7.745  12.429 -0.5458  0.0996  0.3103
  995MOL0     H31307  10.801   7.817  12.295 -5.3417 -0.5250  1.8033
  995MOL0     H31308  10.781   7.893  12.582  2.9890 -0.1053 -0.5474
  995MOL0     H31309  10.674   7.775  12.487 -0.7128  0.4122 -0.2842
  995MOL0     H31310  10.611   7.962  12.331  5.0353  1.2703 -1.9514
  995MOL0     H31311  10.725   8.062  12.401  2.1146 -0.3147  3.3026
  995MOL0     H31312  10.615   8.065  12.612  2.9676 -1.0095 -1.8809
  995MOL0     H31313  10.500   8.122  12.488 -4.9956 -0.4658  1.8127
  995MOL0     H31314  10.487   7.841  12.598  0.7726 -0.9917 -2.3087
  995MOL0     H31315  10.401   7.912  12.453  1.7785  2.9867 -1.8131
  995MOL0     H31316  10.316   8.082  12.647  3.4301  1.2465  0.8217
  995MOL0     H31317  10.399   7.965  12.752  0.5548  1.3109  0.8423
  995MOL0     H31318  10.256   7.783  12.638 -2.1898 -0.2545 -2.7049
  995MOL0     H31319  10.167   7.888  12.745  1.5514 -2.1003  0.5103
  995MOL0     H31320  10.079   7.822  12.504  1.1364 -1.5417  0.3209
  995MOL0     H31321  10.192   7.934  12.435 -0.5401  1.8800 -0.4479
  995MOL0     H31322  11.093   7.740  12.337  0.2995 -0.9705  0.3589
  995MOL0     H31323  11.267   7.726  12.157 -2.0864 -1.2701  4.5986
  995MOL0     H31324  11.522   7.618  11.795 -0.5058  0.3185  0.4652
  995MOL0     H31325  11.706   7.645  11.640 -1.3158  0.0297 -0.1925
  995MOL0     H31326  11.590   8.981  10.705  0.3289  0.5002 -3.0344
  995MOL0     H31327  11.347   9.065  10.688 -0.8184  0.6526  0.3171
  995MOL0     H31328  11.044   9.336  10.616 -0.6781  0.7520 -1.4606
  995MOL0     H31329  10.812   9.420  10.617 -1.3492  2.0800  0.5364
  995MOL0     H31330  10.660   9.712  10.915  2.5534 -1.0436  1.0101
  995MOL0     H31331  10.651   9.554  10.978  1.6284  0.9274 -0.2218
  995MOL0     H31332  10.444   9.506  10.848 -2.3796  1.7341 -0.4536
  995MOL0     H31333  10.429   9.637  10.965  0.2072  1.4055  0.5248
  995MOL0     H31334  10.474   9.693  10.674 -1.6923  0.6638 -0.7376
  995MOL0     H31335  10.443   9.796  10.801  0.6478  0.0791 -0.0817
  995MOL0     H31336  10.250   9.573  10.675  3.6634 -0.3901 -0.9585
  995MOL0     H31337  10.221   9.643  10.838 -0.3696 -3.2300 -0.3703
  995MOL0     H31338  10.120   9.954  10.579  2.3106  1.3166 -0.4356
  995MOL0     H31339  10.876   9.603  10.999 -6.3365 -1.0061 -0.5299
  995MOL0     H31340  11.104   9.554  10.985  0.7516  0.6333 -0.7530
  996MOL0     O31341  11.251   2.076   6.247  0.3008 -0.2138  0.6627
  996MOL0     C31342  11.237   1.991   6.341 -0.0343  0.8611  0.0466
  996MOL0     O31343  11.123   1.988   6.417  0.4930 -0.2399 -0.0985
  996MOL0     C31344  11.036   2.101   6.408  1.2833 -0.1971 -0.8092
  996MOL0     C31345  11.068   2.234   6.418  0.1679 -0.1081  0.1744
  996MOL0     C31346  10.961   2.330   6.420  0.3605 -0.3867 -0.7466
  996MOL0     C31347  10.825   2.294   6.411 -0.4962 -0.5743 -1.5169
  996MOL0     O31348  10.730   2.394   6.394 -0.8006  0.1833 -0.2204
  996MOL0     C31349  10.745   2.466   6.274 -0.3429 -0.2797 -0.6441
  996MOL0     C31350  10.624   2.527   6.222  0.4756  0.0351 -0.2879
  996MOL0     C31351  10.505   2.429   6.220  0.7275 -0.4588 -0.5559
  996MOL0     C31352  10.380   2.509   6.182  0.1122  0.1943 -0.2247
  996MOL0     C31353  10.269   2.411   6.159 -0.0816  1.0350 -0.1421
  996MOL0     C31354  10.144   2.485   6.115  0.4509 -0.4171 -0.8629
  996MOL0     C31355  10.022   2.389   6.119  1.0603 -0.5115  0.4156
  996MOL0     C31356   9.910   2.460   6.041 -0.5062 -0.5334  0.2298
  996MOL0     N31357   9.775   2.422   6.097  0.4635 -0.5990 -0.0236
  996MOL0     C31358   9.731   2.293   6.087 -0.3044  0.0368 -0.1491
  996MOL0     C31359   9.601   2.305   6.101 -0.2270  0.6828  0.1735
  996MOL0     C31360   9.512   2.184   6.105  0.3085 -0.5745  0.5067
  996MOL0     C31361   9.540   2.098   6.225  0.3342 -0.7621 -0.1979
  996MOL0     C31362   9.415   2.030   6.281 -0.3719  0.2365  0.2003
  996MOL0     C31363   9.342   2.116   6.385  0.1702 -0.6456 -0.1727
  996MOL0     O31364   9.236   2.041   6.433  0.4817 -0.0115 -1.1483
  996MOL0     C31365   9.119   2.108   6.443 -0.8921  0.1471  0.5570
  996MOL0     C31366   9.059   2.110   6.572 -0.3744 -0.1022  0.4273
  996MOL0     C31367   8.935   2.182   6.588  0.0350  0.7254  0.3725
  996MOL0     C31368   8.872   2.222   6.476 -0.2357 -0.4002  0.0120
  996MOL0     C31369   8.728   2.264   6.483  0.2443 -0.1691  0.0799
  996MOL0     O31370   8.680   2.341   6.378  0.6357  0.1007 -0.6172
  996MOL0     C31371   8.542   2.345   6.358 -0.2935  0.0482 -0.9764
  996MOL0     C31372   8.467   2.462   6.339  0.1340 -0.5828  0.6225
  996MOL0     C31373   8.323   2.458   6.336  0.1250 -0.2447 -0.4859
  996MOL0     C31374   8.262   2.337   6.336  0.0252 -0.2821  0.7804
  996MOL0     O31375   8.124   2.331   6.339 -0.1560 -0.1549  0.4050
  996MOL0     C31376   8.069   2.237   6.249  0.2956 -0.4934 -0.7664
  996MOL0     C31377   7.924   2.271   6.206 -0.2736  0.9961 -0.0583
  996MOL0     C31378   7.868   2.183   6.097 -0.0594 -0.8679 -0.2671
  996MOL0     C31379   7.726   2.225   6.068  0.0125 -0.1357 -0.1566
  996MOL0     C31380   7.669   2.152   5.951  0.2423 -0.3219  0.2831
  996MOL0     C31381   7.524   2.205   5.934 -0.1454 -1.1463 -0.0248
  996MOL0     C31382   7.469   2.201   5.794  0.1245 -0.0428  0.8559
  996MOL0     C31383   7.331   2.253   5.777  0.2824 -0.3711  0.5943
  996MOL0    Cl31384   7.221   2.179   5.899 -0.1573 -0.3785 -0.3406
  996MOL0     C31385   8.341   2.220   6.334  0.2999 -1.1312  0.3443
  996MOL0     C31386   8.469   2.230   6.350 -0.5797 -0.0243 -0.3090
  996MOL0     O31387   8.658   2.214   6.571  0.3603 -0.1115 -0.4861
  996MOL0     C31388   8.939   2.225   6.353  0.5863 -0.0442 -0.1693
  996MOL0     C31389   9.059   2.170   6.329  0.1657  0.0551 -0.5215
  996MOL0     N31390   9.558   2.438   6.088  0.0615 -0.1440 -0.6518
  996MOL0     N31391   9.662   2.507   6.073 -0.0446  0.6974  0.2276
  996MOL0     C31392  10.792   2.160   6.414  0.3978 -0.2617 -0.6088
  996MOL0     C31393  10.893   2.069   6.408 -0.7904  1.0074 -1.0522
  996MOL0     C31394  11.341   1.888   6.384 -0.0844 -0.0253  0.6596
  996MOL0     C31395  11.446   1.862   6.297  0.2034  0.0395 -0.2104
  996MOL0     C31396  11.549   1.768   6.339 -0.7929 -0.0263 -0.3243
  996MOL0     C31397  11.535   1.698   6.452  0.4579 -0.6928 -0.4354
  996MOL0     O31398  11.617   1.583   6.455  0.5306 -0.9920  0.0061
  996MOL0     C31399  11.695   1.572   6.574 -0.5048  0.5311 -0.6942
  996MOL0     C31400  11.838   1.511   6.548  0.4164 -0.2047  0.3944
  996MOL0     C31401  11.840   1.408   6.433 -0.5092 -0.3467  1.6060
  996MOL0     C31402  11.975   1.354   6.402 -0.6281  0.6272 -0.0317
  996MOL0     C31403  11.966   1.237   6.314 -0.1995  0.6022 -0.1508
  996MOL0     C31404  11.964   1.132   6.252 -0.9723 -0.6281 -0.4515
  996MOL0     C31405  11.441   1.732   6.539  0.3990  0.5153  0.2140
  996MOL0     C31406  11.341   1.826   6.512  0.4619 -0.3547 -0.6025
  996MOL0     H31407  11.172   2.263   6.410 -0.2833  1.3625 -1.0742
  996MOL0     H31408  10.985   2.434   6.398 -3.1323  0.0173 -3.6535
  996MOL0     H31409  10.793   2.406   6.196 -0.6046  0.7403 -1.6282
  996MOL0     H31410  10.828   2.534   6.297  0.4385 -1.7314  1.0700
  996MOL0     H31411  10.631   2.575   6.123 -0.2976 -0.9688 -0.8525
  996MOL0     H31412  10.609   2.611   6.290 -0.3004  0.5677 -1.0900
  996MOL0     H31413  10.488   2.369   6.310 -0.3011  0.5042 -0.0854
  996MOL0     H31414  10.535   2.365   6.137 -0.2438  0.0786 -1.3364
  996MOL0     H31415  10.361   2.578   6.265 -0.8513 -1.0081  0.5992
  996MOL0     H31416  10.394   2.566   6.090 -0.7155  0.3964 -0.2343
  996MOL0     H31417  10.232   2.360   6.248 -1.4215  1.0043 -0.7004
  996MOL0     H31418  10.287   2.336   6.082 -2.3125 -0.1192  0.4001
  996MOL0     H31419  10.161   2.533   6.018  1.4726 -1.6852 -1.3375
  996MOL0     H31420  10.128   2.567   6.186  1.4156  0.0758 -1.1911
  996MOL0     H31421  10.051   2.298   6.066  2.5990 -0.8400  1.7235
  996MOL0     H31422   9.991   2.362   6.220 -0.8448 -0.6801 -0.1735
  996MOL0     H31423   9.930   2.449   5.934  3.2279  2.3403  0.4388
  996MOL0     H31424   9.908   2.566   6.069  0.5823 -0.9902  2.2524
  996MOL0     H31425   9.784   2.200   6.070 -2.0339 -0.8436 -0.9665
  996MOL0     H31426   9.513   2.129   6.010 -2.1176  1.9752 -1.1099
  996MOL0     H31427   9.417   2.233   6.127  0.3318 -0.2950 -0.0205
  996MOL0     H31428   9.585   2.152   6.309  0.1567  0.5023 -0.8892
  996MOL0     H31429   9.609   2.019   6.194  2.5856  1.2129 -0.4807
  996MOL0     H31430   9.350   2.000   6.198 -0.1042 -0.7018  0.3143
  996MOL0     H31431   9.445   1.935   6.326  2.2111  1.3271  0.9419
  996MOL0     H31432   9.317   2.208   6.332  1.0125 -0.8313 -0.9255
  996MOL0     H31433   9.410   2.145   6.466  0.1420 -0.2888 -0.2741
  996MOL0     H31434   9.113   2.055   6.649  0.2960  0.2435  0.2125
  996MOL0     H31435   8.888   2.184   6.685 -2.7202  0.3625 -0.8631
  996MOL0     H31436   8.519   2.557   6.329  1.1522 -1.3033 -1.3851
  996MOL0     H31437   8.271   2.553   6.342 -3.1605 -1.8136 -1.3760
  996MOL0     H31438   8.067   2.144   6.306 -2.3169 -0.4824 -0.7165
  996MOL0     H31439   8.128   2.241   6.157  2.7023  1.1333  0.7527
  996MOL0     H31440   7.928   2.375   6.173 -0.5581  1.0746  0.1456
  996MOL0     H31441   7.866   2.275   6.299  0.7231  1.0549  0.5772
  996MOL0     H31442   7.861   2.079   6.132 -0.4478 -1.1210 -1.0438
  996MOL0     H31443   7.936   2.186   6.011 -2.1487  1.1281 -1.9883
  996MOL0     H31444   7.657   2.201   6.150 -0.2998  0.1925 -0.3195
  996MOL0     H31445   7.736   2.333   6.052 -1.4928 -0.1974 -1.8954
  996MOL0     H31446   7.672   2.043   5.959  3.6010 -0.5679 -2.2713
  996MOL0     H31447   7.736   2.166   5.866  0.5820 -1.8382  0.2873
  996MOL0     H31448   7.532   2.311   5.956  2.2953 -1.1509 -0.5918
  996MOL0     H31449   7.451   2.154   5.997 -1.9430 -1.6907 -2.4140
  996MOL0     H31450   7.543   2.260   5.739  2.9917 -3.2994  0.8189
  996MOL0     H31451   7.463   2.100   5.751 -1.4739  1.2521 -2.2773
  996MOL0     H31452   7.298   2.226   5.677 -2.3672  1.6227  0.8511
  996MOL0     H31453   7.321   2.362   5.778  1.9064  0.0688 -4.5338
  996MOL0     H31454   8.291   2.125   6.316  0.6675 -1.2221 -0.2252
  996MOL0     H31455   8.532   2.142   6.344  3.0885  2.3823 -0.8223
  996MOL0     H31456   8.901   2.289   6.274 -3.0335 -0.7829  0.7806
  996MOL0     H31457   9.107   2.173   6.232  1.4875  0.6009  0.1233
  996MOL0     H31458  10.692   2.120   6.402  0.1268  0.3547 -0.4346
  996MOL0     H31459  10.865   1.964   6.410 -0.3516  0.8982  1.1029
  996MOL0     H31460  11.449   1.910   6.200  1.1763 -0.8732 -0.6516
  996MOL0     H31461  11.627   1.755   6.265  2.2857 -0.3592  2.7728
  996MOL0     H31462  11.642   1.492   6.627  0.1715  0.5801  0.0726
  996MOL0     H31463  11.702   1.660   6.639 -1.2790  1.6571 -2.0772
  996MOL0     H31464  11.912   1.589   6.529 -1.2614  1.6390  1.0759
  996MOL0     H31465  11.872   1.468   6.643  1.6484  1.2559  0.6489
  996MOL0     H31466  11.799   1.447   6.340 -3.6920 -0.1861  2.9590
  996MOL0     H31467  11.766   1.337   6.471 -0.2178 -0.1110  2.6701
  996MOL0     H31468  12.043   1.430   6.361 -1.1752  0.3096 -1.5861
  996MOL0     H31469  12.014   1.322   6.499 -3.0245 -0.3357  0.6842
  996MOL0     H31470  11.946   1.039   6.201 -0.0116  1.0682 -4.2147
  996MOL0     H31471  11.440   1.665   6.624 -0.2205  0.6037  0.2832
  996MOL0     H31472  11.272   1.851   6.593 -0.4390 -2.9992 -0.4404
  997MOL0     O31473   8.198   5.466   6.082  0.6607 -0.4391 -0.4804
  997MOL0     C31474   8.120   5.407   6.160  0.7608 -0.4010  0.8338
  997MOL0     O31475   8.157   5.308   6.242  0.1349  0.2153 -0.4465
  997MOL0     C31476   8.282   5.250   6.263 -0.3107 -0.6458 -0.6939
  997MOL0     C31477   8.288   5.117   6.290  0.8034  0.3534  0.6474
  997MOL0     C31478   8.415   5.069   6.332 -0.3904 -0.1305  0.4570
  997MOL0     C31479   8.530   5.142   6.352  0.9036 -0.1342  0.7781
  997MOL0     O31480   8.645   5.085   6.399  0.5606  0.3745 -0.2962
  997MOL0     C31481   8.766   5.093   6.320 -0.3374 -0.0865  0.3076
  997MOL0     C31482   8.867   5.154   6.421 -0.8665  0.2467 -0.0688
  997MOL0     C31483   9.013   5.099   6.407  1.3020  0.6588  0.2301
  997MOL0     C31484   9.105   5.149   6.516 -1.0995 -0.1571  0.2370
  997MOL0     C31485   9.251   5.080   6.503 -0.0988 -1.0121  0.0490
  997MOL0     C31486   9.342   5.128   6.386 -0.7297  0.3639 -0.0603
  997MOL0     C31487   9.453   5.034   6.333  0.4539  0.5588 -0.3172
  997MOL0     C31488   9.575   5.033   6.431 -1.1331  0.4707  0.8164
  997MOL0     N31489   9.667   5.144   6.391  0.1123 -0.3831  0.5477
  997MOL0     C31490   9.759   5.194   6.471 -0.0319 -0.4107 -1.0748
  997MOL0     C31491   9.833   5.294   6.414 -0.5982 -0.4759 -0.2576
  997MOL0     C31492   9.945   5.377   6.468  0.3790 -0.2619 -0.6949
  997MOL0     C31493   9.886   5.457   6.591 -0.5008 -0.4294 -0.8058
  997MOL0     C31494   9.991   5.552   6.641 -1.1643  0.1350  0.2357
  997MOL0     C31495  10.089   5.477   6.734 -0.1949  0.2744  0.3947
  997MOL0     O31496  10.193   5.572   6.760  0.4567  0.8228  0.3742
  997MOL0     C31497  10.302   5.575   6.669  0.4775 -0.5524 -0.8186
  997MOL0     C31498  10.412   5.657   6.715  0.0939  0.7524  0.3178
  997MOL0     C31499  10.529   5.666   6.639  0.5684 -0.5119 -0.6773
  997MOL0     C31500  10.522   5.605   6.520 -0.7177  0.1109 -0.1910
  997MOL0     C31501  10.642   5.624   6.433  0.0025 -0.1931  0.8209
  997MOL0     O31502  10.751   5.679   6.490 -0.2578  0.6928 -0.3622
  997MOL0     C31503  10.864   5.661   6.411  0.7500  0.7994 -0.1364
  997MOL0     C31504  10.945   5.764   6.379 -1.4600  0.1671  0.0846
  997MOL0     C31505  11.081   5.745   6.344 -0.5097 -0.6145 -0.5030
  997MOL0     C31506  11.138   5.613   6.334 -0.3416 -0.2810 -0.2334
  997MOL0     O31507  11.275   5.595   6.316  0.0371  0.5197 -0.8047
  997MOL0     C31508  11.374   5.688   6.381  0.0046 -0.0374  1.1134
  997MOL0     C31509  11.483   5.606   6.452 -0.6000  0.3470  0.1252
  997MOL0     C31510  11.570   5.534   6.350 -0.0942 -0.7166  0.7895
  997MOL0     C31511  11.697   5.466   6.404 -0.6576 -0.3989 -0.3497
  997MOL0     C31512  11.811   5.578   6.441 -0.1156 -0.2110  0.0269
  997MOL0     C31513  11.950   5.533   6.418  0.1327  0.6605 -0.2428
  997MOL0     C31514  12.050   5.634   6.484  1.0295  1.4024  0.4984
  997MOL0     C31515  12.178   5.586   6.452 -1.0838 -0.7839  0.6635
  997MOL0    Cl31516  12.315   5.703   6.495  0.5176 -0.3361 -0.3188
  997MOL0     C31517  11.050   5.509   6.358  0.0978 -0.3448  0.5061
  997MOL0     C31518  10.916   5.530   6.401  0.3291  0.3324 -0.0495
  997MOL0     O31519  10.637   5.584   6.316 -0.2190 -0.0543 -0.6834
  997MOL0     C31520  10.431   5.512   6.486 -0.2527  0.9113  0.1887
  997MOL0     C31521  10.309   5.496   6.557 -0.1480  0.0557  0.3700
  997MOL0     N31522   9.782   5.296   6.284 -0.0128  0.1786 -0.3910
  997MOL0     N31523   9.687   5.208   6.269  0.2234  0.6449  0.2367
  997MOL0     C31524   8.513   5.281   6.321 -0.1388  0.6753  0.8077
  997MOL0     C31525   8.394   5.330   6.268  1.1847 -1.5454  0.0167
  997MOL0     C31526   7.984   5.432   6.141 -0.9662 -0.1046 -0.8032
  997MOL0     C31527   7.939   5.554   6.083 -0.3831  0.3124 -0.5048
  997MOL0     C31528   7.805   5.578   6.068 -0.1832 -0.3838 -0.3617
  997MOL0     C31529   7.713   5.483   6.105  0.7853  0.4585 -0.0421
  997MOL0     O31530   7.581   5.527   6.090  0.5381 -0.5662 -0.5798
  997MOL0     C31531   7.477   5.428   6.099 -0.1716 -1.0152  0.5192
  997MOL0     C31532   7.402   5.427   6.235 -0.1127 -0.1294 -0.1506
  997MOL0     C31533   7.263   5.367   6.211 -0.0089 -0.1551 -0.2531
  997MOL0     C31534   7.204   5.325   6.349  0.7039 -0.0728 -0.4384
  997MOL0     C31535   7.067   5.276   6.342  0.8270  1.0521 -0.6053
  997MOL0     C31536   6.959   5.226   6.328 -1.7019  0.1753  0.2229
  997MOL0     C31537   7.750   5.359   6.165  0.5467  0.7254  0.0219
  997MOL0     C31538   7.883   5.338   6.186  0.4489 -0.3116 -0.2196
  997MOL0     H31539   8.208   5.049   6.266  0.0479  1.3927  0.1271
  997MOL0     H31540   8.415   4.962   6.349 -0.3593  0.0920  2.0535
  997MOL0     H31541   8.752   5.161   6.235 -1.8246 -0.2454  0.4115
  997MOL0     H31542   8.794   4.993   6.284  1.0936  0.2117  0.5212
  997MOL0     H31543   8.841   5.124   6.522  4.4839 -0.6191  1.3553
  997MOL0     H31544   8.875   5.263   6.411  3.4963  0.0132 -1.2353
  997MOL0     H31545   9.053   5.136   6.312 -0.6006  2.6925  0.1473
  997MOL0     H31546   9.006   4.989   6.407 -1.1137  0.7271  2.0880
  997MOL0     H31547   9.114   5.257   6.503 -3.0245  0.0376  0.1901
  997MOL0     H31548   9.052   5.135   6.610 -2.4438 -0.8054 -0.5804
  997MOL0     H31549   9.231   4.973   6.496 -0.6603 -0.9085  0.0313
  997MOL0     H31550   9.300   5.110   6.597 -3.1669 -0.2843  1.5242
  997MOL0     H31551   9.382   5.223   6.423 -1.4012 -0.1267  2.0103
  997MOL0     H31552   9.283   5.143   6.295  0.0183 -0.3466 -0.6717
  997MOL0     H31553   9.396   4.940   6.331 -1.3618  1.6263 -1.3467
  997MOL0     H31554   9.488   5.064   6.234  2.4844  0.3838  0.2985
  997MOL0     H31555   9.622   4.937   6.405  0.4360  1.4125 -0.0206
  997MOL0     H31556   9.546   5.037   6.536 -4.0807 -0.6606  0.1287
  997MOL0     H31557   9.765   5.161   6.574 -1.1734 -0.8028 -1.1239
  997MOL0     H31558   9.994   5.444   6.397 -0.1662  1.6075  0.6131
  997MOL0     H31559  10.029   5.311   6.493  3.7411  3.1586 -1.9832
  997MOL0     H31560   9.853   5.387   6.667  3.1714 -0.5840  0.8750
  997MOL0     H31561   9.809   5.523   6.550 -2.0858 -0.6175  1.6347
  997MOL0     H31562  10.051   5.607   6.568  0.5228  1.1296  2.2549
  997MOL0     H31563   9.963   5.626   6.716 -2.0152  0.8548 -0.7737
  997MOL0     H31564  10.133   5.386   6.691  0.7953  1.5233 -1.3413
  997MOL0     H31565  10.033   5.443   6.822 -1.9008 -2.5063 -1.6141
  997MOL0     H31566  10.398   5.715   6.805 -3.3912 -2.1525  1.8589
  997MOL0     H31567  10.602   5.735   6.681 -0.9451  0.0630  1.1109
  997MOL0     H31568  10.907   5.864   6.397 -1.6659  0.1673 -0.3508
  997MOL0     H31569  11.134   5.838   6.323  0.6950 -1.1120  0.2445
  997MOL0     H31570  11.327   5.757   6.453 -0.1624  1.0169  0.0317
  997MOL0     H31571  11.420   5.758   6.311 -3.2808  0.7064 -0.5472
  997MOL0     H31572  11.454   5.530   6.525 -0.5702  0.0205 -0.1996
  997MOL0     H31573  11.545   5.682   6.501  1.4743 -1.6907  0.8207
  997MOL0     H31574  11.598   5.605   6.272  0.7601 -0.1487  1.5983
  997MOL0     H31575  11.513   5.453   6.303  3.2914 -2.3888 -0.7591
  997MOL0     H31576  11.672   5.430   6.505  1.1996  4.5605  2.2359
  997MOL0     H31577  11.737   5.389   6.338  2.7377  1.3009 -0.4692
  997MOL0     H31578  11.809   5.617   6.543  0.3439 -0.3672  0.0990
  997MOL0     H31579  11.782   5.661   6.376  2.0712  0.6249  0.0086
  997MOL0     H31580  11.956   5.523   6.310  1.0095  2.1570 -0.3737
  997MOL0     H31581  11.971   5.443   6.477 -2.4402  1.1728  1.6486
  997MOL0     H31582  12.036   5.736   6.449  5.1647  2.9243  2.5216
  997MOL0     H31583  12.029   5.630   6.591 -2.6077 -1.2826 -0.1143
  997MOL0     H31584  12.195   5.555   6.349  3.1755  0.0342  0.9354
  997MOL0     H31585  12.203   5.503   6.519  2.1807  0.3110  0.9591
  997MOL0     H31586  11.076   5.410   6.324 -4.1822 -1.4244 -0.1773
  997MOL0     H31587  10.851   5.444   6.413  0.3182  0.3036 -0.3120
  997MOL0     H31588  10.452   5.458   6.394  1.4115  2.6335 -0.5094
  997MOL0     H31589  10.232   5.428   6.522  1.3697 -1.1772 -0.6936
  997MOL0     H31590   8.597   5.348   6.337  1.5449 -1.2252  0.4105
  997MOL0     H31591   8.387   5.434   6.238 -2.4426 -2.2132 -2.1174
  997MOL0     H31592   8.007   5.635   6.057 -2.0502  1.4464 -1.5928
  997MOL0     H31593   7.772   5.674   6.032 -2.3678 -1.1381 -0.5136
  997MOL0     H31594   7.498   5.328   6.058  2.1277  0.4139 -2.1189
  997MOL0     H31595   7.400   5.448   6.024 -0.0356  0.2589  0.7127
  997MOL0     H31596   7.449   5.365   6.311  0.0464  1.9361  1.5257
  997MOL0     H31597   7.393   5.530   6.272 -1.4434 -1.0056  2.1794
  997MOL0     H31598   7.269   5.285   6.139 -1.7009 -0.5052 -0.0523
  997MOL0     H31599   7.198   5.440   6.162  0.6177 -0.7306 -2.0097
  997MOL0     H31600   7.260   5.249   6.403  0.5827  0.2847  0.2089
  997MOL0     H31601   7.194   5.416   6.409  0.5987 -1.6728  2.0867
  997MOL0     H31602   6.878   5.157   6.314  1.3596 -3.7205  0.2271
  997MOL0     H31603   7.674   5.287   6.194  0.7818  1.7905  3.8366
  997MOL0     H31604   7.918   5.248   6.235  0.9604 -0.0721 -0.1445
  998MOL0     O31605   9.342  11.111   1.555 -0.6099 -0.6537  0.4442
  998MOL0     C31606   9.255  11.181   1.610 -0.7247 -0.3344  0.2553
  998MOL0     O31607   9.119  11.168   1.596  0.4140 -0.1616 -0.1978
  998MOL0     C31608   9.053  11.065   1.536  0.4279  0.5805  0.5538
  998MOL0     C31609   9.111  10.944   1.510  0.6683  0.6462 -0.3643
  998MOL0     C31610   9.050  10.838   1.437  0.0483  0.2119 -0.5958
  998MOL0     C31611   8.933  10.861   1.370 -0.1376  0.7380 -0.0930
  998MOL0     O31612   8.875  10.767   1.276 -0.1272 -0.0676 -0.4606
  998MOL0     C31613   8.908  10.628   1.275  0.9204  0.5472  0.7994
  998MOL0     C31614   8.784  10.566   1.190  0.0815 -0.3560  0.3880
  998MOL0     C31615   8.796  10.423   1.134  0.0385 -0.2286  0.6681
  998MOL0     C31616   8.864  10.419   1.002  0.3288  0.6180 -0.4357
  998MOL0     C31617   8.841  10.282   0.922  0.0522  0.4122  0.0854
  998MOL0     C31618   8.898  10.162   0.985 -1.1849  0.3525 -0.5870
  998MOL0     C31619   8.951  10.056   0.885  0.5899  0.5035 -0.8576
  998MOL0     C31620   9.027   9.934   0.951 -0.5790  0.9179 -0.0874
  998MOL0     N31621   9.096   9.855   0.853  0.3229 -0.2381  0.0493
  998MOL0     C31622   9.027   9.781   0.759 -1.2531  0.4881  0.5024
  998MOL0     C31623   9.121   9.709   0.689 -0.5733 -1.0660 -0.6156
  998MOL0     C31624   9.096   9.639   0.564  0.0546 -0.3411  0.9118
  998MOL0     C31625   9.021   9.504   0.585 -0.5041 -0.4283 -0.9143
  998MOL0     C31626   8.954   9.454   0.469  0.5181  1.0330  0.4347
  998MOL0     C31627   8.878   9.324   0.505  0.5534  0.1061  0.4952
  998MOL0     O31628   8.965   9.207   0.491  0.0559 -0.1603 -0.4933
  998MOL0     C31629   9.064   9.174   0.578 -0.6401  0.4877 -0.4881
  998MOL0     C31630   9.057   9.169   0.715 -0.3781  0.5287 -0.6228
  998MOL0     C31631   9.164   9.133   0.800  0.1443  0.0537 -0.0688
  998MOL0     C31632   9.287   9.103   0.752  0.2177  0.5101  0.3953
  998MOL0     C31633   9.406   9.068   0.820  0.4340 -0.4773 -0.0174
  998MOL0     O31634   9.523   9.068   0.751 -1.0032  1.0147 -0.1636
  998MOL0     C31635   9.637   9.015   0.809 -0.5731  0.5822 -1.8337
  998MOL0     C31636   9.682   9.045   0.944  0.1888 -1.0782 -0.9597
  998MOL0     C31637   9.816   9.005   0.992  0.2951 -0.2999 -0.0952
  998MOL0     C31638   9.892   8.925   0.912 -0.0511 -1.0886  0.4988
  998MOL0     O31639  10.017   8.888   0.948  0.1502 -0.1903 -0.2055
  998MOL0     C31640  10.077   8.941   1.067 -0.4449  0.4539  0.9133
  998MOL0     C31641  10.205   8.857   1.070  0.4109  0.0508  0.5135
  998MOL0     C31642  10.269   8.836   1.217 -0.1411 -0.3573 -0.2872
  998MOL0     C31643  10.392   8.744   1.214  0.4625 -0.5180  0.6643
  998MOL0     C31644  10.411   8.673   1.341 -0.0601  0.4104  1.3744
  998MOL0     C31645  10.468   8.772   1.442 -0.4743 -0.4526 -0.8029
  998MOL0     C31646  10.528   8.700   1.565 -0.0228 -0.3902  0.1174
  998MOL0     C31647  10.607   8.799   1.650  0.1154 -0.0353  0.5969
  998MOL0    Cl31648  10.491   8.948   1.690 -0.2975  0.4979 -0.1343
  998MOL0     C31649   9.850   8.900   0.778 -0.1718  0.2166 -0.1554
  998MOL0     C31650   9.730   8.952   0.728 -0.1993 -0.5886  0.0351
  998MOL0     O31651   9.385   9.045   0.940 -0.2436 -0.0991  0.5622
  998MOL0     C31652   9.299   9.110   0.601 -0.9723 -0.2894 -1.2087
  998MOL0     C31653   9.188   9.147   0.522 -0.7069  0.1436  0.5911
  998MOL0     N31654   9.251   9.742   0.753 -0.3373 -0.5778 -0.3101
  998MOL0     N31655   9.232   9.840   0.845  0.5481  0.3071  0.0930
  998MOL0     C31656   8.869  10.985   1.391  0.4102 -0.5268  0.5492
  998MOL0     C31657   8.930  11.081   1.476 -0.2809 -0.5080  0.0143
  998MOL0     C31658   9.298  11.292   1.707  0.5010  0.4458  0.6486
  998MOL0     C31659   9.432  11.339   1.701  0.0656  0.3902 -0.4349
  998MOL0     C31660   9.465  11.439   1.788  0.5551 -0.7713  0.5225
  998MOL0     C31661   9.376  11.497   1.874 -0.1257 -0.0916 -0.5943
  998MOL0     O31662   9.423  11.594   1.961  0.7279  0.9441 -0.6021
  998MOL0     C31663   9.479  11.703   1.881 -0.8054  0.0446  0.0615
  998MOL0     C31664   9.350  11.779   1.813 -0.5478 -0.1202 -0.3268
  998MOL0     C31665   9.355  11.936   1.837  0.2071  0.6611  0.6068
  998MOL0     C31666   9.216  11.997   1.792 -0.6068 -0.7184 -0.1203
  998MOL0     C31667   9.166  11.957   1.657  0.2500  0.5934  0.5576
  998MOL0     C31668   9.112  11.938   1.545  0.4132  0.0313 -0.7694
  998MOL0     C31669   9.245  11.452   1.875 -0.1798  0.6398 -0.3103
  998MOL0     C31670   9.200  11.345   1.790 -0.6848 -0.0562 -0.5983
  998MOL0     H31671   9.211  10.917   1.543  2.1918  4.5112 -1.1965
  998MOL0     H31672   9.113  10.750   1.437 -0.3973 -0.1679  1.3585
  998MOL0     H31673   8.917  10.586   1.376  1.6686 -0.4949  0.3289
  998MOL0     H31674   9.002  10.618   1.219 -1.1184  0.4905 -2.8903
  998MOL0     H31675   8.747  10.633   1.112 -1.2220 -1.1247  0.3182
  998MOL0     H31676   8.718  10.564   1.277  1.7996 -0.6573  1.7488
  998MOL0     H31677   8.693  10.387   1.122 -0.5313  0.9213  1.8432
  998MOL0     H31678   8.832  10.352   1.209 -1.3682  1.0190  2.6028
  998MOL0     H31679   8.833  10.499   0.936 -1.1147  0.0753 -0.4548
  998MOL0     H31680   8.972  10.431   1.015  0.5110  0.7153 -1.9104
  998MOL0     H31681   8.888  10.300   0.825  3.0163  1.6776  1.6303
  998MOL0     H31682   8.735  10.266   0.901  0.3653 -1.5722 -0.2052
  998MOL0     H31683   8.820  10.112   1.043 -0.0924  0.0057  0.6278
  998MOL0     H31684   8.973  10.190   1.059 -1.5909 -1.1160  0.4371
  998MOL0     H31685   8.865  10.035   0.820 -2.1541  3.4783  1.4811
  998MOL0     H31686   9.034  10.101   0.829 -0.2050  1.5073 -1.2738
  998MOL0     H31687   8.958   9.869   1.006 -1.2391  1.6582 -0.0301
  998MOL0     H31688   9.101   9.954   1.029  1.7666 -4.6056 -0.4015
  998MOL0     H31689   8.924   9.764   0.728 -1.5001  2.1279  0.3657
  998MOL0     H31690   9.195   9.616   0.522 -0.6184 -0.8582 -0.4414
  998MOL0     H31691   9.060   9.719   0.499  2.2607  1.0433  1.2733
  998MOL0     H31692   8.943   9.531   0.657 -0.0194 -0.5413 -0.3354
  998MOL0     H31693   9.095   9.432   0.621  1.2382  2.4788  1.9193
  998MOL0     H31694   8.888   9.535   0.437 -0.2490  0.7132  1.1702
  998MOL0     H31695   9.025   9.445   0.385 -2.1434  0.9082 -1.9474
  998MOL0     H31696   8.796   9.320   0.433  0.2848  3.2822  0.4873
  998MOL0     H31697   8.838   9.336   0.607  0.6363 -0.6578  0.6264
  998MOL0     H31698   8.956   9.187   0.751 -1.1758 -1.7145 -1.5086
  998MOL0     H31699   9.149   9.129   0.908  2.0668 -2.8446  0.2081
  998MOL0     H31700   9.620   9.102   1.012  0.9852 -1.4714  0.1237
  998MOL0     H31701   9.841   9.027   1.095 -0.6390 -1.6893  0.4404
  998MOL0     H31702  10.039   8.897   1.160 -2.5853 -0.3019 -0.2465
  998MOL0     H31703  10.083   9.050   1.074  2.1686  0.3641  1.1332
  998MOL0     H31704  10.276   8.908   1.003 -0.0824  0.5040  0.3315
  998MOL0     H31705  10.198   8.756   1.028 -0.0945 -0.2372  1.2904
  998MOL0     H31706  10.200   8.778   1.279 -1.2108  0.6758 -0.4759
  998MOL0     H31707  10.287   8.933   1.263  1.4999 -0.1104 -1.3550
  998MOL0     H31708  10.380   8.678   1.127  1.0830  0.7633 -0.4314
  998MOL0     H31709  10.475   8.811   1.190  0.4524  0.2108  2.4878
  998MOL0     H31710  10.477   8.588   1.320 -0.3228  0.8178 -1.5185
  998MOL0     H31711  10.325   8.618   1.381 -0.7160 -1.0297 -1.7433
  998MOL0     H31712  10.387   8.842   1.464 -0.0794 -0.3099  0.2516
  998MOL0     H31713  10.551   8.830   1.400 -1.3203  1.2695 -0.2290
  998MOL0     H31714  10.452   8.652   1.627 -1.5745  1.7819 -0.0061
  998MOL0     H31715  10.593   8.618   1.533 -2.3585 -2.4939  0.4432
  998MOL0     H31716  10.701   8.833   1.604  1.5661  1.1669  4.1285
  998MOL0     H31717  10.630   8.763   1.751 -1.0160 -0.7939  0.5949
  998MOL0     H31718   9.915   8.824   0.737  0.2895  0.8591 -0.6440
  998MOL0     H31719   9.692   8.917   0.632 -1.8425  2.3434 -0.4686
  998MOL0     H31720   9.397   9.085   0.563  0.3416  0.3083  1.5820
  998MOL0     H31721   9.194   9.148   0.414  1.1616 -3.3308  0.5183
  998MOL0     H31722   8.771  10.997   1.346  0.8114  0.4438 -0.0976
  998MOL0     H31723   8.889  11.179   1.497  2.4462  0.5470  0.9133
  998MOL0     H31724   9.505  11.296   1.632 -0.8360 -1.8103 -0.1004
  998MOL0     H31725   9.566  11.479   1.782 -0.1546  1.1108  0.6764
  998MOL0     H31726   9.552  11.679   1.803 -0.2417  3.1492 -0.4786
  998MOL0     H31727   9.527  11.776   1.946  1.0660 -1.5174  0.5278
  998MOL0     H31728   9.325  11.747   1.711  0.4646 -2.3846  0.0789
  998MOL0     H31729   9.272  11.741   1.880  0.5115 -2.8554 -0.4983
  998MOL0     H31730   9.433  11.975   1.771 -1.4908  3.6464  0.1811
  998MOL0     H31731   9.385  11.968   1.937  1.1081 -1.3518  1.0438
  998MOL0     H31732   9.141  11.964   1.865  1.3192 -0.4002  2.0963
  998MOL0     H31733   9.225  12.106   1.794 -1.5632 -0.6352  0.0592
  998MOL0     H31734   9.068  11.946   1.448 -0.3899  0.3501 -0.3952
  998MOL0     H31735   9.171  11.504   1.935 -0.3586  1.7583 -1.4648
  998MOL0     H31736   9.096  11.316   1.801  0.2600 -3.7758 -0.1931
  999MOL0     O31737   2.025   2.884   7.249 -0.7289 -0.4694  0.6714
  999MOL0     C31738   1.973   2.781   7.290  0.5384  0.1485  0.9819
  999MOL0     O31739   2.036   2.683   7.361  0.1774  0.4846  0.6770
  999MOL0     C31740   2.164   2.706   7.406  0.4605 -0.0843 -0.1573
  999MOL0     C31741   2.185   2.753   7.535  0.4106 -0.4843 -0.4985
  999MOL0     C31742   2.322   2.775   7.579  0.7621 -0.4404  0.8564
  999MOL0     C31743   2.423   2.735   7.496 -0.0243  0.1296 -0.2132
  999MOL0     O31744   2.552   2.750   7.551  0.1748 -1.2568 -0.1153
  999MOL0     C31745   2.646   2.838   7.488 -0.2103 -0.1064  0.4621
  999MOL0     C31746   2.642   2.986   7.530 -0.7806 -0.9147  0.3123
  999MOL0     C31747   2.732   3.074   7.433 -0.2615 -0.1012 -0.5270
  999MOL0     C31748   2.663   3.097   7.294 -0.1099  0.1979 -0.1455
  999MOL0     C31749   2.752   3.175   7.195  0.1514 -0.1841  0.5416
  999MOL0     C31750   2.670   3.245   7.085  0.0833 -0.2029 -0.6961
  999MOL0     C31751   2.759   3.311   6.979 -0.5298  0.7060 -0.7785
  999MOL0     C31752   2.793   3.449   7.014  0.9306 -0.2399 -1.8645
  999MOL0     N31753   2.886   3.513   6.919  0.2967 -0.8312 -0.2576
  999MOL0     C31754   3.010   3.470   6.884 -0.3186 -0.7108 -0.6055
  999MOL0     C31755   3.046   3.540   6.774  0.2674  0.0858  0.4225
  999MOL0     C31756   3.175   3.516   6.704 -0.8024  0.0305  0.3759
  999MOL0     C31757   3.154   3.465   6.556  0.2255  0.1718  0.6958
  999MOL0     C31758   3.091   3.571   6.468  0.4812  0.2000  0.1018
  999MOL0     C31759   3.188   3.676   6.437 -0.5060  0.1077 -0.1632
  999MOL0     O31760   3.139   3.767   6.331  1.3278  0.4639  0.3027
  999MOL0     C31761   3.167   3.896   6.330  0.3257  0.0518  0.5506
  999MOL0     C31762   3.085   3.977   6.399 -0.2737  0.0643  0.9018
  999MOL0     C31763   3.118   4.112   6.415  0.6756 -0.6184 -0.3180
  999MOL0     C31764   3.231   4.170   6.346  0.2854  0.0916  0.5366
  999MOL0     C31765   3.276   4.316   6.370  0.1678  0.3592  0.0429
  999MOL0     O31766   3.357   4.369   6.284 -1.0172  0.5041  0.2958
  999MOL0     C31767   3.375   4.507   6.282  0.0121  0.0167  0.1782
  999MOL0     C31768   3.503   4.556   6.276 -0.2021 -0.6812 -0.7861
  999MOL0     C31769   3.522   4.693   6.303 -0.1149  0.7203  0.6172
  999MOL0     C31770   3.415   4.786   6.316  0.1616  0.1321 -0.4977
  999MOL0     O31771   3.417   4.916   6.368  0.2036 -0.5212  0.8914
  999MOL0     C31772   3.533   4.998   6.336 -0.4789 -0.0822  0.5897
  999MOL0     C31773   3.488   5.106   6.242 -1.0460 -0.3327 -0.1803
  999MOL0     C31774   3.506   5.062   6.090  1.0583 -0.3352 -0.4995
  999MOL0     C31775   3.550   5.172   5.992  0.1089  0.0587  0.0706
  999MOL0     C31776   3.438   5.277   5.969  0.7123 -0.6162  0.6416
  999MOL0     C31777   3.476   5.400   5.876 -0.6476 -0.4912 -0.3926
  999MOL0     C31778   3.359   5.461   5.802 -0.6412  0.2112  0.3096
  999MOL0     C31779   3.388   5.591   5.740 -0.1803 -0.1426 -0.2264
  999MOL0    Cl31780   3.363   5.729   5.846 -0.1304 -0.7380 -0.3080
  999MOL0     C31781   3.286   4.738   6.299  0.3589 -0.5629  0.3277
  999MOL0     C31782   3.268   4.604   6.290  0.4562  0.8206  0.6305
  999MOL0     O31783   3.223   4.368   6.466  0.0309 -0.6732 -0.8322
  999MOL0     C31784   3.298   4.078   6.252 -0.0113  0.2491 -0.4844
  999MOL0     C31785   3.274   3.937   6.252  0.8692 -0.2229 -1.1394
  999MOL0     N31786   2.945   3.638   6.751 -0.6344  0.4851  0.9770
  999MOL0     N31787   2.851   3.613   6.833  0.5611  0.4134 -1.1449
  999MOL0     C31788   2.399   2.682   7.377 -0.7715  1.3452  0.2252
  999MOL0     C31789   2.268   2.664   7.332  0.4064  0.1118 -0.0670
  999MOL0     C31790   1.822   2.747   7.270  0.1903 -1.0235  0.7741
  999MOL0     C31791   1.739   2.851   7.239 -0.0588  0.0189 -0.5258
  999MOL0     C31792   1.607   2.831   7.225  0.5264  0.0752  1.0098
  999MOL0     C31793   1.563   2.700   7.243  0.9566  0.2849 -0.1643
  999MOL0     O31794   1.431   2.686   7.238 -0.3072 -0.2634 -0.0419
  999MOL0     C31795   1.354   2.648   7.352  0.4539  0.0158  0.0524
  999MOL0     C31796   1.311   2.504   7.344 -1.0381  0.2665 -0.1850
  999MOL0     C31797   1.202   2.464   7.446 -0.2994  0.2085  0.3808
  999MOL0     C31798   1.161   2.315   7.427 -1.1973 -0.0577  0.4621
  999MOL0     C31799   1.273   2.216   7.429 -0.3947 -1.0305  0.2271
  999MOL0     C31800   1.368   2.155   7.388 -1.1727  0.1761 -0.3320
  999MOL0     C31801   1.648   2.596   7.266 -0.5379 -0.2240  0.9555
  999MOL0     C31802   1.780   2.614   7.285  0.0173 -0.3774 -0.8147
  999MOL0     H31803   2.101   2.788   7.594  2.1009  0.4166  1.5059
  999MOL0     H31804   2.344   2.836   7.666 -0.4518  5.3196 -2.3516
  999MOL0     H31805   2.639   2.834   7.379  2.4168  0.3267  0.2253
  999MOL0     H31806   2.744   2.795   7.510  1.1202  2.4555 -0.0896
  999MOL0     H31807   2.670   2.990   7.636 -0.0369  1.2450  0.0910
  999MOL0     H31808   2.543   3.033   7.528 -2.7901 -4.7222 -2.0689
  999MOL0     H31809   2.825   3.021   7.412  0.1073  0.7455 -1.0997
  999MOL0     H31810   2.753   3.173   7.475 -2.3713 -0.1111  0.7180
  999MOL0     H31811   2.647   3.006   7.236 -2.2049  1.0393 -0.9997
  999MOL0     H31812   2.566   3.142   7.320 -2.4282 -2.8389 -2.6912
  999MOL0     H31813   2.827   3.104   7.159  1.7893  1.6226  0.2439
  999MOL0     H31814   2.815   3.246   7.249  0.0249  0.1352  0.2701
  999MOL0     H31815   2.619   3.326   7.137 -1.5826 -1.7030  0.0927
  999MOL0     H31816   2.595   3.175   7.046 -0.7006 -0.6299  1.4555
  999MOL0     H31817   2.852   3.255   6.965 -0.2280  1.3936 -1.6353
  999MOL0     H31818   2.721   3.299   6.878  1.7359 -0.4177 -1.5667
  999MOL0     H31819   2.840   3.453   7.113  0.0202  1.1545 -1.4673
  999MOL0     H31820   2.698   3.502   7.016  1.3021  0.4251 -0.8030
  999MOL0     H31821   3.076   3.399   6.933  0.5307 -0.2697 -1.0668
  999MOL0     H31822   3.239   3.446   6.758 -1.1170 -1.6784 -1.3337
  999MOL0     H31823   3.243   3.601   6.713 -1.3536  0.2376  4.5239
  999MOL0     H31824   3.096   3.373   6.544 -2.1171  1.8181 -1.8339
  999MOL0     H31825   3.247   3.439   6.504  0.1180 -2.3036  1.6042
  999MOL0     H31826   3.055   3.522   6.377 -1.0447 -0.3213  0.9601
  999MOL0     H31827   2.997   3.609   6.509 -0.5748 -1.6977 -0.4457
  999MOL0     H31828   3.280   3.630   6.399 -0.7388  0.1380 -0.7847
  999MOL0     H31829   3.206   3.740   6.524  0.4507  0.2643 -0.4673
  999MOL0     H31830   2.997   3.959   6.460 -1.3409 -0.4506 -0.7350
  999MOL0     H31831   3.072   4.166   6.497  0.7282 -0.9399 -0.0717
  999MOL0     H31832   3.582   4.482   6.286  1.3437  1.1159  1.3761
  999MOL0     H31833   3.626   4.725   6.300  0.1399 -0.1667 -1.0122
  999MOL0     H31834   3.622   4.944   6.303  0.3022  1.3459  0.2970
  999MOL0     H31835   3.573   5.037   6.430 -0.7411 -0.3470  0.8174
  999MOL0     H31836   3.556   5.191   6.256  0.1912 -1.4633  0.8959
  999MOL0     H31837   3.386   5.142   6.263 -1.5130 -0.9535 -1.3100
  999MOL0     H31838   3.413   5.023   6.048  0.2319  1.6702 -0.6668
  999MOL0     H31839   3.579   4.981   6.089  1.1693 -0.3572  2.3350
  999MOL0     H31840   3.631   5.233   6.033 -1.8853  1.9824  1.3023
  999MOL0     H31841   3.571   5.135   5.890  0.2071  1.9005 -0.6116
  999MOL0     H31842   3.411   5.315   6.068 -2.0722 -1.2899  0.2150
  999MOL0     H31843   3.355   5.229   5.917  0.3977 -0.4102  0.9499
  999MOL0     H31844   3.556   5.376   5.805  0.7615  0.9223  0.6443
  999MOL0     H31845   3.517   5.477   5.942 -0.7289 -0.8658  0.1070
  999MOL0     H31846   3.332   5.391   5.723 -0.7613  0.2280  0.3337
  999MOL0     H31847   3.259   5.465   5.845 -1.8365 -0.9456 -2.1696
  999MOL0     H31848   3.317   5.589   5.657 -0.1718  1.3515 -0.2960
  999MOL0     H31849   3.483   5.582   5.688 -0.8444 -0.8610 -1.3599
  999MOL0     H31850   3.197   4.797   6.321 -0.2691 -1.0912 -0.7226
  999MOL0     H31851   3.168   4.561   6.289  0.1906  1.4175 -0.3529
  999MOL0     H31852   3.371   4.115   6.181  1.5166 -2.4995 -0.4966
  999MOL0     H31853   3.338   3.870   6.195  2.3073 -0.1610  0.3487
  999MOL0     H31854   2.473   2.647   7.306 -0.6776  0.5563  0.6915
  999MOL0     H31855   2.251   2.628   7.231  0.7283  0.2813 -0.1838
  999MOL0     H31856   1.775   2.953   7.241 -1.6705  0.6212  1.2630
  999MOL0     H31857   1.547   2.920   7.208 -2.0030 -1.4814  1.2986
  999MOL0     H31858   1.264   2.710   7.348 -0.1060 -0.8422 -1.8335
  999MOL0     H31859   1.408   2.659   7.446 -0.7087 -3.3885  1.2561
  999MOL0     H31860   1.274   2.484   7.243 -0.7477  0.4520 -0.3314
  999MOL0     H31861   1.402   2.446   7.363 -0.8414  0.8539  0.7490
  999MOL0     H31862   1.125   2.538   7.423  0.0149 -0.2617 -2.6140
  999MOL0     H31863   1.238   2.487   7.547  2.2523 -2.2550  0.1726
  999MOL0     H31864   1.098   2.280   7.510  0.9904 -4.2958  0.6137
  999MOL0     H31865   1.117   2.312   7.327 -2.6443  0.3070  1.0594
  999MOL0     H31866   1.456   2.107   7.349 -2.7172 -3.2062  0.0369
  999MOL0     H31867   1.605   2.496   7.274  4.8272 -2.8978  1.1051
  999MOL0     H31868   1.846   2.529   7.301 -1.3892 -1.1177  1.4737
 1000MOL0     O31869   4.385   4.060  11.325  0.0574  0.2857 -0.1012
 1000MOL0     C31870   4.494   4.076  11.385  0.2943 -0.2256  0.3577
 1000MOL0     O31871   4.557   4.199  11.398 -1.1356  0.2575  0.5824
 1000MOL0     C31872   4.513   4.321  11.364  0.1640  0.1647  0.3470
 1000MOL0     C31873   4.612   4.413  11.344  1.0598  0.5026 -0.4891
 1000MOL0     C31874   4.583   4.528  11.273  1.1516  0.1010 -0.3887
 1000MOL0     C31875   4.451   4.556  11.246  0.6794 -0.1812  0.2915
 1000MOL0     O31876   4.424   4.668  11.175 -0.2705 -0.0691  1.0067
 1000MOL0     C31877   4.511   4.783  11.183  0.9051 -0.0055  0.4764
 1000MOL0     C31878   4.453   4.907  11.118  0.0646 -0.5406  0.0213
 1000MOL0     C31879   4.390   5.004  11.220 -0.0221  0.8274 -0.6105
 1000MOL0     C31880   4.290   5.099  11.156 -0.4762  0.4191  1.0363
 1000MOL0     C31881   4.192   5.153  11.250  0.0605  0.2521 -0.0672
 1000MOL0     C31882   4.244   5.208  11.388  0.1126  1.2169 -0.4746
 1000MOL0     C31883   4.120   5.258  11.472 -0.8821  0.0316  0.5939
 1000MOL0     C31884   4.161   5.312  11.614  0.7992  0.2536  0.3469
 1000MOL0     N31885   4.051   5.375  11.678 -0.4808 -0.3876  0.3930
 1000MOL0     C31886   3.955   5.311  11.752  0.7284  0.0842 -0.7130
 1000MOL0     C31887   3.890   5.408  11.820 -0.3207 -0.0437  0.8703
 1000MOL0     C31888   3.777   5.376  11.910  0.1710 -0.0450 -0.2538
 1000MOL0     C31889   3.695   5.504  11.947 -0.4072  1.2124 -0.7222
 1000MOL0     C31890   3.558   5.459  11.994  0.4195 -0.3517  0.3031
 1000MOL0     C31891   3.510   5.562  12.108  0.3047 -0.5688  0.7052
 1000MOL0     O31892   3.573   5.533  12.239  0.4712 -0.5294 -0.1899
 1000MOL0     C31893   3.494   5.503  12.346  0.3148 -0.8569 -1.1808
 1000MOL0     C31894   3.539   5.423  12.453  0.1930  0.5643  0.4591
 1000MOL0     C31895   3.471   5.400  12.574  0.9088  0.1422  0.5938
 1000MOL0     C31896   3.339   5.445  12.597 -0.1224  0.1225  0.5427
 1000MOL0     C31897   3.257   5.406  12.713  0.8009  0.0782 -0.4851
 1000MOL0     O31898   3.120   5.443  12.712  0.1936 -0.5790 -0.1134
 1000MOL0     C31899   3.045   5.424  12.825 -0.4179  0.4324  0.8754
 1000MOL0     C31900   2.920   5.361  12.805 -0.2913  0.2335 -0.2981
 1000MOL0     C31901   2.841   5.333  12.918 -0.7585 -0.0292 -0.4483
 1000MOL0     C31902   2.874   5.389  13.039 -0.4726 -0.2874 -0.8936
 1000MOL0     O31903   2.785   5.380  13.145 -0.1300  0.0748 -0.0413
 1000MOL0     C31904   2.769   5.496  13.227 -0.3451 -0.5214 -0.4852
 1000MOL0     C31905   2.624   5.502  13.279  0.1294 -0.2461  0.8202
 1000MOL0     C31906   2.543   5.548  13.163  0.5644 -0.7291 -0.6262
 1000MOL0     C31907   2.408   5.605  13.199  0.0036 -0.2306  0.4709
 1000MOL0     C31908   2.323   5.591  13.067  0.5152 -0.2749  0.5298
 1000MOL0     C31909   2.179   5.645  13.070 -0.0352  0.0409  0.8482
 1000MOL0     C31910   2.094   5.573  13.173 -0.0432 -0.5852  0.2532
 1000MOL0     C31911   1.951   5.596  13.142  0.3236  0.1482  0.2653
 1000MOL0    Cl31912   1.919   5.768  13.100  0.0333  0.0011  0.0055
 1000MOL0     C31913   3.003   5.459  13.061 -0.1391 -0.4222 -0.1173
 1000MOL0     C31914   3.091   5.472  12.950 -0.1031 -0.2077  0.7009
 1000MOL0     O31915   3.314   5.353  12.803 -0.1432 -0.5438  0.2931
 1000MOL0     C31916   3.295   5.536  12.498  0.5073 -0.0883  0.0962
 1000MOL0     C31917   3.369   5.568  12.384  0.6415  0.3640 -1.3593
 1000MOL0     N31918   3.956   5.528  11.786  0.1390 -0.5525 -0.1770
 1000MOL0     N31919   4.034   5.507  11.681 -0.2473  0.0284  0.0338
 1000MOL0     C31920   4.346   4.466  11.265  0.3164  0.3229  0.0029
 1000MOL0     C31921   4.381   4.352  11.333 -0.2596 -1.8488  0.3057
 1000MOL0     C31922   4.571   3.955  11.433 -0.4054  0.9830 -0.2461
 1000MOL0     C31923   4.664   3.972  11.542 -0.5286  0.6175  0.0188
 1000MOL0     C31924   4.725   3.864  11.608  0.0903 -0.4190 -0.2698
 1000MOL0     C31925   4.681   3.733  11.568 -0.7779  0.5312  1.0611
 1000MOL0     O31926   4.732   3.625  11.637  0.9988 -0.1563 -0.0170
 1000MOL0     C31927   4.643   3.548  11.722  0.1363 -0.7137  0.5656
 1000MOL0     C31928   4.598   3.415  11.662  0.0141 -0.1191 -0.0053
 1000MOL0     C31929   4.594   3.295  11.772 -0.1641 -0.2502 -0.7006
 1000MOL0     C31930   4.454   3.284  11.834 -0.7004 -0.8021 -0.5654
 1000MOL0     C31931   4.453   3.158  11.912  0.6489 -0.6575 -0.7686
 1000MOL0     C31932   4.437   3.062  11.989  0.2195  0.1192  0.4991
 1000MOL0     C31933   4.603   3.714  11.455  0.3347 -0.0187 -0.2870
 1000MOL0     C31934   4.545   3.823  11.391 -0.3244  0.5351  0.3132
 1000MOL0     H31935   4.713   4.401  11.382  0.3387  1.3268  1.8039
 1000MOL0     H31936   4.668   4.592  11.252  2.2440 -0.6664  1.4359
 1000MOL0     H31937   4.605   4.772  11.129 -0.3641  1.1595 -2.1866
 1000MOL0     H31938   4.543   4.803  11.285  2.2979  0.4505 -0.0276
 1000MOL0     H31939   4.382   4.883  11.038  0.4590 -1.0303 -0.1840
 1000MOL0     H31940   4.532   4.963  11.067  1.6290 -1.8445  0.9052
 1000MOL0     H31941   4.469   5.047  11.282  0.9495 -0.6281 -0.7889
 1000MOL0     H31942   4.330   4.950  11.293  3.2763  1.3981  2.8471
 1000MOL0     H31943   4.351   5.179  11.112 -0.1818  2.0205  4.0637
 1000MOL0     H31944   4.231   5.054  11.077  3.2177  0.4451 -2.0091
 1000MOL0     H31945   4.113   5.083  11.280 -0.3409  0.6376 -0.2092
 1000MOL0     H31946   4.130   5.230  11.203 -1.0599 -0.6414 -0.1002
 1000MOL0     H31947   4.322   5.284  11.377  0.2992  1.0066 -0.6147
 1000MOL0     H31948   4.292   5.126  11.442 -2.0596 -1.5609 -2.4512
 1000MOL0     H31949   4.060   5.337  11.425  1.3901  1.6302  0.2029
 1000MOL0     H31950   4.049   5.175  11.480 -3.8428  1.7162 -4.2382
 1000MOL0     H31951   4.233   5.394  11.606 -2.9330  3.6464 -3.3899
 1000MOL0     H31952   4.196   5.230  11.677  0.2932 -0.8570 -0.7667
 1000MOL0     H31953   3.940   5.204  11.759 -1.0299  0.3117 -0.5673
 1000MOL0     H31954   3.817   5.324  11.998  2.4429  1.5539 -0.2588
 1000MOL0     H31955   3.706   5.308  11.861  0.6411 -1.0121  0.3798
 1000MOL0     H31956   3.704   5.572  11.862  1.4353  1.0199 -0.7370
 1000MOL0     H31957   3.748   5.549  12.031 -1.1461  2.3143 -0.8247
 1000MOL0     H31958   3.471   5.451  11.928 -2.0190  2.1593  2.8949
 1000MOL0     H31959   3.568   5.366  12.051 -1.8656 -0.8243  0.0513
 1000MOL0     H31960   3.401   5.552  12.110  0.1485 -4.8168 -4.7276
 1000MOL0     H31961   3.542   5.664  12.083 -0.1172 -0.8229 -1.0431
 1000MOL0     H31962   3.640   5.387  12.433  0.3918  2.6647 -3.1666
 1000MOL0     H31963   3.529   5.334  12.638 -0.9476 -4.5815 -2.0689
 1000MOL0     H31964   2.879   5.329  12.709  2.0570  0.3101 -1.3901
 1000MOL0     H31965   2.742   5.287  12.911 -0.3861 -0.9914  0.3927
 1000MOL0     H31966   2.805   5.584  13.173 -2.5846  0.4419 -0.5266
 1000MOL0     H31967   2.830   5.475  13.315  0.9618  0.3275 -1.1552
 1000MOL0     H31968   2.612   5.584  13.350  0.2441 -0.7662  1.4460
 1000MOL0     H31969   2.590   5.408  13.324  0.4021 -0.3047  0.9048
 1000MOL0     H31970   2.523   5.472  13.087 -3.0220 -1.4131  0.8252
 1000MOL0     H31971   2.597   5.627  13.110 -2.0745 -0.3488 -2.9406
 1000MOL0     H31972   2.374   5.549  13.287  3.1093  1.5845  3.0704
 1000MOL0     H31973   2.419   5.706  13.239 -0.1618 -0.6734  1.6962
 1000MOL0     H31974   2.325   5.483  13.050 -1.4811 -0.2212 -0.3223
 1000MOL0     H31975   2.378   5.644  12.989 -1.9911  2.0123  0.1754
 1000MOL0     H31976   2.132   5.643  12.971 -0.4135  3.2559  0.8402
 1000MOL0     H31977   2.180   5.750  13.100  1.4062 -0.0330  1.1504
 1000MOL0     H31978   2.109   5.466  13.156  3.9369 -0.1396  0.1944
 1000MOL0     H31979   2.124   5.595  13.276  0.4488  0.1853 -0.0466
 1000MOL0     H31980   1.888   5.550  13.219 -3.8354 -1.1470 -3.4956
 1000MOL0     H31981   1.927   5.553  13.045 -1.3001  0.4656  0.5100
 1000MOL0     H31982   3.012   5.513  13.155 -2.4297  0.5077 -0.3540
 1000MOL0     H31983   3.180   5.532  12.964 -0.6994  0.5424  1.3218
 1000MOL0     H31984   3.194   5.573  12.506  0.0094 -1.2891 -0.3806
 1000MOL0     H31985   3.323   5.638  12.315 -1.3572 -0.1012 -0.5571
 1000MOL0     H31986   4.243   4.481  11.234  0.1953 -0.6612 -0.0796
 1000MOL0     H31987   4.296   4.286  11.346 -1.9711 -0.4417 -2.5265
 1000MOL0     H31988   4.698   4.071  11.570  1.1959  0.7477 -2.2788
 1000MOL0     H31989   4.792   3.867  11.693  1.5144 -1.4655 -1.2780
 1000MOL0     H31990   4.557   3.607  11.753  0.4865  0.8446 -1.2719
 1000MOL0     H31991   4.703   3.530  11.813  1.3881 -1.1729 -0.3211
 1000MOL0     H31992   4.500   3.413  11.614  0.3984 -1.6213 -0.7817
 1000MOL0     H31993   4.664   3.384  11.581  0.5937  1.9419 -0.3848
 1000MOL0     H31994   4.671   3.294  11.851 -3.0015 -0.7342  2.2914
 1000MOL0     H31995   4.620   3.209  11.710  0.5688 -0.1338 -0.5664
 1000MOL0     H31996   4.421   3.370  11.893 -1.2204 -0.1639 -1.7294
 1000MOL0     H31997   4.381   3.288  11.752  0.9391  1.9946 -2.0329
 1000MOL0     H31998   4.425   2.978  12.055  1.9339 -2.3819 -2.1324
 1000MOL0     H31999   4.590   3.615  11.412 -1.8618 -0.0264  0.3046
 1000MOL0     H32000   4.472   3.813  11.311 -0.8932 -2.1173  1.0510
 1001MOL0     O32001   5.319   9.448   4.362 -0.1985  0.6300 -0.4475
 1001MOL0     C32002   5.236   9.464   4.276 -0.1586  0.1081 -0.1017
 1001MOL0     O32003   5.252   9.526   4.149 -0.1177  0.1272  0.5106
 1001MOL0     C32004   5.378   9.584   4.135  0.6786 -0.5164 -0.0848
 1001MOL0     C32005   5.393   9.715   4.119  0.2433  0.2266  0.1443
 1001MOL0     C32006   5.517   9.782   4.096  0.8361  0.9591 -0.1791
 1001MOL0     C32007   5.632   9.695   4.086  0.7267  0.6526  0.5493
 1001MOL0     O32008   5.753   9.730   4.041  0.2402 -0.3449 -0.4499
 1001MOL0     C32009   5.771   9.856   3.970 -0.1025  1.0573 -0.0028
 1001MOL0     C32010   5.922   9.882   3.970  0.2144  0.6405  0.0040
 1001MOL0     C32011   6.004   9.793   3.874 -0.7584  0.2487  0.7132
 1001MOL0     C32012   6.146   9.801   3.903 -0.1724 -0.5809 -0.2895
 1001MOL0     C32013   6.212   9.720   4.007  0.2525 -0.1618 -0.1196
 1001MOL0     C32014   6.171   9.577   4.032 -0.0213  0.7088  1.0474
 1001MOL0     C32015   6.233   9.504   4.146  0.6596  0.2535  0.1918
 1001MOL0     C32016   6.179   9.363   4.166 -0.3972 -0.7288  0.2308
 1001MOL0     N32017   6.031   9.360   4.192  0.9078  0.0766 -0.1329
 1001MOL0     C32018   5.981   9.420   4.305 -0.4024 -0.1111 -0.8520
 1001MOL0     C32019   5.850   9.374   4.295 -0.8621  0.3182  0.8580
 1001MOL0     C32020   5.739   9.401   4.393 -0.3018  1.0309 -0.4985
 1001MOL0     C32021   5.720   9.545   4.456  0.3514 -0.0921 -0.2318
 1001MOL0     C32022   5.667   9.526   4.596 -0.2608  0.1027  0.5636
 1001MOL0     C32023   5.525   9.464   4.591  0.4195  0.4327 -0.1567
 1001MOL0     O32024   5.487   9.449   4.730 -0.0744 -0.1956 -0.4599
 1001MOL0     C32025   5.368   9.393   4.740  0.1863  0.4440 -0.8424
 1001MOL0     C32026   5.278   9.464   4.828 -0.5402  0.3437  0.2961
 1001MOL0     C32027   5.149   9.421   4.855 -0.4578  0.0223  0.2236
 1001MOL0     C32028   5.109   9.299   4.798 -0.3008 -0.7436  0.0011
 1001MOL0     C32029   4.982   9.238   4.830  0.3315  0.0988  0.3696
 1001MOL0     O32030   4.922   9.274   4.951  0.3020  0.1488  0.3322
 1001MOL0     C32031   4.791   9.234   4.978  0.3504  1.2598 -0.2551
 1001MOL0     C32032   4.728   9.121   4.937 -0.1504  0.0215  0.1979
 1001MOL0     C32033   4.592   9.094   4.972 -0.5228 -1.3690 -0.2380
 1001MOL0     C32034   4.526   9.174   5.075 -0.6624 -0.1107  0.0054
 1001MOL0     O32035   4.393   9.143   5.106 -0.2789 -0.5659 -0.2820
 1001MOL0     C32036   4.338   9.199   5.228  0.2834  0.7524  0.2203
 1001MOL0     C32037   4.245   9.087   5.264  0.0703 -0.3713  0.1919
 1001MOL0     C32038   4.196   9.117   5.410  0.1314  1.1619 -0.7219
 1001MOL0     C32039   4.297   9.066   5.513 -0.3968  0.8482  0.0696
 1001MOL0     C32040   4.253   9.095   5.650  0.2489 -1.0144 -0.2015
 1001MOL0     C32041   4.118   9.036   5.697 -0.1501 -0.5208  0.1037
 1001MOL0     C32042   4.096   9.069   5.849  0.9033 -0.9098 -0.4980
 1001MOL0     C32043   4.014   8.956   5.913 -0.2210  0.2578 -0.3517
 1001MOL0    Cl32044   3.862   8.910   5.822  0.1205  0.8303  0.4644
 1001MOL0     C32045   4.594   9.286   5.115 -0.1160  0.2509  0.2890
 1001MOL0     C32046   4.726   9.316   5.076 -0.1444  0.8724  0.0835
 1001MOL0     O32047   4.925   9.176   4.738  0.2710  0.3107 -0.4068
 1001MOL0     C32048   5.200   9.222   4.714  0.2673 -0.5449 -0.0049
 1001MOL0     C32049   5.329   9.269   4.682 -0.8391  0.0706 -1.1241
 1001MOL0     N32050   5.837   9.295   4.185 -0.1694 -0.2474  0.6162
 1001MOL0     N32051   5.944   9.295   4.116  0.6570  0.4084 -0.2974
 1001MOL0     C32052   5.618   9.555   4.107 -0.0309  0.1387  0.4758
 1001MOL0     C32053   5.495   9.500   4.122  0.3460 -0.0028 -0.8120
 1001MOL0     C32054   5.097   9.404   4.300 -0.1466  0.1799  0.7732
 1001MOL0     C32055   5.074   9.304   4.394 -0.5378 -0.2232 -0.3656
 1001MOL0     C32056   4.945   9.261   4.425 -0.3367 -0.5511 -0.3682
 1001MOL0     C32057   4.836   9.311   4.349  0.5388 -0.2438  0.1190
 1001MOL0     O32058   4.708   9.282   4.372 -0.3580 -0.3358 -0.2879
 1001MOL0     C32059   4.666   9.325   4.504  0.7197 -0.2656  0.0529
 1001MOL0     C32060   4.698   9.468   4.560  0.1505  0.5605 -0.2976
 1001MOL0     C32061   4.682   9.505   4.714  0.4968  0.9622  0.2348
 1001MOL0     C32062   4.534   9.502   4.759 -0.8553  0.5718  0.7010
 1001MOL0     C32063   4.452   9.600   4.683  0.6649  0.4077  0.6696
 1001MOL0     C32064   4.371   9.676   4.632  0.4060 -0.6660 -0.3559
 1001MOL0     C32065   4.863   9.391   4.237 -0.1567  0.3914  0.3183
 1001MOL0     C32066   4.991   9.454   4.220 -0.2032  0.3050 -0.0514
 1001MOL0     H32067   5.296   9.765   4.122 -0.5731 -1.1355 -1.6424
 1001MOL0     H32068   5.532   9.889   4.101  1.8556  1.0165 -2.6486
 1001MOL0     H32069   5.710   9.942   4.000  0.9545  1.7494  0.2065
 1001MOL0     H32070   5.738   9.840   3.867 -0.4496 -0.4147  0.3165
 1001MOL0     H32071   5.945   9.858   4.074 -0.7531 -1.8431 -0.2906
 1001MOL0     H32072   5.935   9.988   3.945 -1.4288  0.0260 -4.4235
 1001MOL0     H32073   5.979   9.829   3.774 -0.7106 -1.2189  0.1442
 1001MOL0     H32074   5.982   9.686   3.882 -0.1913  0.1322  0.7619
 1001MOL0     H32075   6.197   9.780   3.808  1.6895  0.3163  0.4674
 1001MOL0     H32076   6.173   9.905   3.924  3.0036 -1.1960 -0.8393
 1001MOL0     H32077   6.211   9.779   4.099  0.6067  2.5187 -1.7250
 1001MOL0     H32078   6.316   9.704   3.976  0.3068  1.0689 -0.6108
 1001MOL0     H32079   6.186   9.523   3.938  2.6147  1.0846  1.1854
 1001MOL0     H32080   6.063   9.577   4.051 -1.1693  1.7711 -3.9936
 1001MOL0     H32081   6.341   9.497   4.127  0.6744 -1.8221  0.7595
 1001MOL0     H32082   6.203   9.560   4.234  0.8093 -2.7123  2.2795
 1001MOL0     H32083   6.243   9.316   4.240 -0.3650  0.9043  1.2989
 1001MOL0     H32084   6.193   9.302   4.076  0.6964  1.9139 -1.5304
 1001MOL0     H32085   6.035   9.467   4.387  0.9659 -0.6440 -1.4253
 1001MOL0     H32086   5.767   9.332   4.473  0.8309 -0.7376 -2.2862
 1001MOL0     H32087   5.647   9.368   4.345 -1.5713  0.6612  2.0698
 1001MOL0     H32088   5.651   9.619   4.416 -0.5453 -0.5315  0.4581
 1001MOL0     H32089   5.814   9.594   4.482  1.0549 -1.2866 -0.4486
 1001MOL0     H32090   5.733   9.465   4.659  1.9157  0.6547 -1.0668
 1001MOL0     H32091   5.651   9.626   4.638 -2.9473 -0.7049  1.6884
 1001MOL0     H32092   5.520   9.370   4.535 -1.8970  0.1101  0.4808
 1001MOL0     H32093   5.456   9.534   4.543  1.2352  0.5932 -1.1367
 1001MOL0     H32094   5.312   9.562   4.859  1.5788  0.1848 -1.3325
 1001MOL0     H32095   5.101   9.484   4.929 -0.7802 -0.0525  0.0779
 1001MOL0     H32096   4.762   9.047   4.866  3.2671  0.1209  1.5152
 1001MOL0     H32097   4.536   9.012   4.926 -0.0319 -1.9093  0.1057
 1001MOL0     H32098   4.279   9.291   5.215 -0.1258  0.8212  2.2932
 1001MOL0     H32099   4.411   9.212   5.308 -0.4420  0.8556  0.8770
 1001MOL0     H32100   4.273   8.984   5.243  2.3971 -0.1249  1.7795
 1001MOL0     H32101   4.171   9.110   5.186  1.6307  0.5616 -1.0902
 1001MOL0     H32102   4.096   9.076   5.429  0.2478  1.3699  0.4358
 1001MOL0     H32103   4.190   9.224   5.432 -0.1397  1.0135 -0.0352
 1001MOL0     H32104   4.312   8.959   5.501 -1.0888  0.9791 -2.8093
 1001MOL0     H32105   4.394   9.104   5.479 -0.8828  0.2855 -2.1284
 1001MOL0     H32106   4.233   9.202   5.656 -3.1421 -1.6325  2.2005
 1001MOL0     H32107   4.338   9.060   5.709 -0.0671 -0.9740  0.2821
 1001MOL0     H32108   4.125   8.929   5.678  4.1145 -1.0129  3.0421
 1001MOL0     H32109   4.037   9.074   5.634  1.3414 -0.3313 -1.8174
 1001MOL0     H32110   4.195   9.066   5.893  0.9308 -3.7604 -0.5578
 1001MOL0     H32111   4.057   9.170   5.867  1.2838 -1.0158  1.0412
 1001MOL0     H32112   3.992   8.984   6.017  1.2191 -0.2918  0.1262
 1001MOL0     H32113   4.082   8.871   5.919 -4.0296 -3.1641 -1.3472
 1001MOL0     H32114   4.545   9.347   5.189 -1.1631 -0.6319  0.3416
 1001MOL0     H32115   4.777   9.410   5.094 -1.6771  1.5029  1.3309
 1001MOL0     H32116   5.178   9.130   4.661  4.2132 -1.4925 -0.2629
 1001MOL0     H32117   5.381   9.199   4.618  0.6398  1.2320 -1.2672
 1001MOL0     H32118   5.710   9.500   4.121  0.1861  1.1411  4.3861
 1001MOL0     H32119   5.480   9.396   4.151 -0.3613 -0.2380 -1.9531
 1001MOL0     H32120   5.162   9.277   4.452  1.2981  3.9184 -0.8374
 1001MOL0     H32121   4.928   9.181   4.497 -0.3163 -0.4707 -0.2738
 1001MOL0     H32122   4.718   9.261   4.576 -2.1650 -1.5006  1.1946
 1001MOL0     H32123   4.558   9.309   4.509  1.1076 -3.0856  1.4844
 1001MOL0     H32124   4.802   9.498   4.539  1.7284 -1.4613  3.6379
 1001MOL0     H32125   4.627   9.533   4.508  0.8816  0.7181 -1.1421
 1001MOL0     H32126   4.728   9.599   4.744  1.3099  0.0397  2.0305
 1001MOL0     H32127   4.741   9.424   4.758  1.3789  0.8091 -1.1699
 1001MOL0     H32128   4.495   9.403   4.733 -2.6058  1.1872  0.8551
 1001MOL0     H32129   4.534   9.516   4.867  0.3716 -0.4602  0.8640
 1001MOL0     H32130   4.310   9.753   4.589 -0.5052  0.2083  2.3060
 1001MOL0     H32131   4.792   9.420   4.160 -2.6124  1.6753  2.8681
 1001MOL0     H32132   5.005   9.530   4.145  0.7579  0.5545  0.3615
 1002MOL0     O32133   6.671   6.556   2.495  0.7855 -0.0711  0.0713
 1002MOL0     C32134   6.662   6.576   2.612  0.6237  0.2697 -0.5877
 1002MOL0     O32135   6.571   6.658   2.671 -0.9261 -0.2282 -0.0070
 1002MOL0     C32136   6.469   6.726   2.605 -0.4680  0.8517 -0.8713
 1002MOL0     C32137   6.434   6.858   2.653  0.2557 -0.8868  0.5076
 1002MOL0     C32138   6.344   6.929   2.596  0.5149 -1.2542  0.0786
 1002MOL0     C32139   6.258   6.869   2.494 -0.6561 -1.1060  0.2704
 1002MOL0     O32140   6.156   6.949   2.433 -0.1295  0.0125  0.1827
 1002MOL0     C32141   6.061   6.899   2.338  0.1446  0.1581  0.7164
 1002MOL0     C32142   5.981   7.015   2.268 -0.8528 -0.1183 -0.9213
 1002MOL0     C32143   6.085   7.103   2.197  0.3718  0.5942 -0.5548
 1002MOL0     C32144   6.007   7.211   2.111  0.2211 -1.2973  0.6547
 1002MOL0     C32145   6.100   7.280   2.004  0.1627  0.2322  0.1031
 1002MOL0     C32146   6.010   7.379   1.929 -0.4716  0.1940 -0.0931
 1002MOL0     C32147   5.935   7.321   1.817  0.2428 -0.1679  0.7061
 1002MOL0     C32148   5.808   7.399   1.784 -0.1197 -0.0804 -0.0495
 1002MOL0     N32149   5.751   7.350   1.657  0.3706  0.1979 -1.0155
 1002MOL0     C32150   5.688   7.424   1.559 -0.9048  0.1947  0.0973
 1002MOL0     C32151   5.628   7.334   1.478 -0.0919  0.5459  1.1210
 1002MOL0     C32152   5.559   7.352   1.354  0.2483  0.3232  0.5265
 1002MOL0     C32153   5.475   7.223   1.318 -0.1689  0.1590 -0.0753
 1002MOL0     C32154   5.347   7.253   1.230  1.0621 -0.3857  0.0718
 1002MOL0     C32155   5.375   7.317   1.088  0.8079 -0.5566 -0.0502
 1002MOL0     O32156   5.245   7.329   1.029 -0.7603  0.5717  0.1245
 1002MOL0     C32157   5.161   7.435   1.055 -0.6031  0.0500 -0.6046
 1002MOL0     C32158   5.035   7.429   1.010 -0.1228 -0.9369 -0.0123
 1002MOL0     C32159   4.931   7.520   1.043 -0.3162  0.6112 -1.0433
 1002MOL0     C32160   4.960   7.618   1.140 -0.0474  0.2896  0.2246
 1002MOL0     C32161   4.857   7.710   1.189  0.1583 -0.6649  0.6797
 1002MOL0     O32162   4.894   7.792   1.293  0.6501 -0.8724  0.2723
 1002MOL0     C32163   4.796   7.865   1.354 -0.2607  1.1560  0.8283
 1002MOL0     C32164   4.754   7.827   1.483 -0.7184  0.1434  0.4563
 1002MOL0     C32165   4.648   7.897   1.537  0.1465 -0.8558  0.1187
 1002MOL0     C32166   4.606   8.025   1.476  0.1124 -0.0420 -0.2175
 1002MOL0     O32167   4.506   8.092   1.551  0.0431  0.9251 -0.0356
 1002MOL0     C32168   4.446   8.203   1.482 -1.3084  0.1016 -0.0764
 1002MOL0     C32169   4.340   8.262   1.578 -0.4958  0.3447  0.3443
 1002MOL0     C32170   4.382   8.276   1.732  0.3085 -0.0499 -0.3810
 1002MOL0     C32171   4.334   8.154   1.803  0.1994 -0.1216 -0.2793
 1002MOL0     C32172   4.350   8.140   1.960 -0.5610 -0.0923  0.4677
 1002MOL0     C32173   4.411   8.007   1.989 -0.9252 -0.0873 -1.0152
 1002MOL0     C32174   4.550   7.980   1.952  0.4432 -0.3958  0.9558
 1002MOL0     C32175   4.652   8.070   2.009 -0.4263  0.3077  0.3324
 1002MOL0    Cl32176   4.690   7.978   2.157 -0.5459 -0.1709 -0.2639
 1002MOL0     C32177   4.667   8.074   1.361 -1.2479  0.5241 -0.5256
 1002MOL0     C32178   4.759   7.986   1.293  0.8637 -0.0377  0.3503
 1002MOL0     O32179   4.743   7.691   1.150  0.2125 -0.9632 -0.3674
 1002MOL0     C32180   5.091   7.627   1.190  0.8316 -0.7063 -0.3423
 1002MOL0     C32181   5.190   7.538   1.148 -0.0193  1.0522  0.0211
 1002MOL0     N32182   5.647   7.209   1.536 -0.2378 -0.4857 -0.1288
 1002MOL0     N32183   5.716   7.221   1.648 -0.7512 -0.5652  0.0826
 1002MOL0     C32184   6.286   6.735   2.451 -0.7474  0.8669  0.6978
 1002MOL0     C32185   6.394   6.664   2.505  0.1789 -0.0753 -0.8889
 1002MOL0     C32186   6.727   6.483   2.704 -0.7849 -0.0771  0.6859
 1002MOL0     C32187   6.841   6.405   2.664  0.0564 -0.2008 -0.2144
 1002MOL0     C32188   6.913   6.341   2.766  0.4663  0.3795 -0.8620
 1002MOL0     C32189   6.877   6.353   2.908 -0.0870 -0.9406 -0.9567
 1002MOL0     O32190   6.967   6.290   2.992  0.4020 -0.2011  0.1324
 1002MOL0     C32191   6.929   6.264   3.126  0.1002 -0.4661  0.0963
 1002MOL0     C32192   6.953   6.392   3.204  0.2763 -0.1453  0.7903
 1002MOL0     C32193   6.939   6.372   3.357  0.6281  0.0824 -0.6517
 1002MOL0     C32194   7.013   6.249   3.407  1.4080  0.2713  0.3341
 1002MOL0     C32195   7.003   6.232   3.556 -0.0761 -0.7172 -0.5437
 1002MOL0     C32196   6.990   6.231   3.674 -0.2535  0.2823  0.3810
 1002MOL0     C32197   6.743   6.404   2.926  0.0561  0.5076 -0.4222
 1002MOL0     C32198   6.677   6.471   2.834  0.3955 -0.0728 -0.1336
 1002MOL0     H32199   6.484   6.897   2.741 -1.4703 -0.7866  1.4968
 1002MOL0     H32200   6.314   7.023   2.640 -2.8574 -1.5810 -1.1544
 1002MOL0     H32201   5.998   6.827   2.391  1.0641 -0.6733  0.6985
 1002MOL0     H32202   6.106   6.844   2.255  0.2392 -2.3722  2.3269
 1002MOL0     H32203   5.947   7.069   2.356 -1.3961 -2.1946  0.2037
 1002MOL0     H32204   5.894   6.976   2.215 -1.6467 -2.1383  1.6432
 1002MOL0     H32205   6.138   7.034   2.130 -0.0361  1.2410 -1.5661
 1002MOL0     H32206   6.158   7.152   2.262 -0.4563  2.4785 -1.0022
 1002MOL0     H32207   5.925   7.165   2.055  0.3350  1.1980 -1.7557
 1002MOL0     H32208   5.966   7.279   2.186 -0.8286 -1.1190 -0.0630
 1002MOL0     H32209   6.139   7.206   1.934 -0.6081  2.5102 -2.9561
 1002MOL0     H32210   6.180   7.333   2.056 -0.3477  2.8494 -1.5719
 1002MOL0     H32211   6.082   7.456   1.899 -0.0824 -0.1031  0.0709
 1002MOL0     H32212   5.941   7.436   1.992  0.4020 -1.2825  2.3637
 1002MOL0     H32213   5.995   7.316   1.726 -2.0491  2.3237 -1.1241
 1002MOL0     H32214   5.896   7.223   1.844 -2.1235 -0.4783 -3.0428
 1002MOL0     H32215   5.818   7.507   1.781 -0.3985  0.1860  3.7686
 1002MOL0     H32216   5.733   7.369   1.858  0.8813 -0.9487  0.6503
 1002MOL0     H32217   5.689   7.532   1.548 -3.1721  0.6422  2.9471
 1002MOL0     H32218   5.635   7.384   1.282 -2.3280  3.7715 -0.9423
 1002MOL0     H32219   5.483   7.430   1.366  0.5764  0.7966 -0.3580
 1002MOL0     H32220   5.427   7.188   1.410 -1.3744  1.9272  0.0320
 1002MOL0     H32221   5.534   7.145   1.269  1.4795  1.1333  0.2856
 1002MOL0     H32222   5.285   7.166   1.210  1.0962 -0.2102 -0.8200
 1002MOL0     H32223   5.284   7.324   1.285 -0.2698  0.4171 -2.3188
 1002MOL0     H32224   5.430   7.257   1.015  2.0897  2.3172 -1.6426
 1002MOL0     H32225   5.446   7.400   1.083 -0.4333  0.5827  0.5212
 1002MOL0     H32226   4.999   7.349   0.946 -0.2834 -1.3236  0.5555
 1002MOL0     H32227   4.841   7.486   0.994  0.3168 -3.6627  0.3347
 1002MOL0     H32228   4.786   7.728   1.513  0.1886  0.7205  1.4888
 1002MOL0     H32229   4.609   7.871   1.635  0.9245 -0.2841  0.5885
 1002MOL0     H32230   4.423   8.155   1.386  2.3213 -0.1928 -0.9469
 1002MOL0     H32231   4.527   8.276   1.472  0.1218 -1.2546  1.0624
 1002MOL0     H32232   4.251   8.199   1.568 -3.1875  3.1909  3.7355
 1002MOL0     H32233   4.315   8.360   1.537 -1.3999 -0.2745 -0.6319
 1002MOL0     H32234   4.333   8.366   1.770 -0.1240 -1.2034  1.9650
 1002MOL0     H32235   4.489   8.289   1.747  0.3826 -1.3555  0.3533
 1002MOL0     H32236   4.226   8.150   1.785 -0.1304 -0.8354  1.6481
 1002MOL0     H32237   4.381   8.068   1.754  0.9824 -1.1185  2.0691
 1002MOL0     H32238   4.248   8.136   1.999 -1.4556 -2.9816 -1.8494
 1002MOL0     H32239   4.407   8.224   2.002  0.1270  0.4506 -1.4597
 1002MOL0     H32240   4.345   7.933   1.943  1.1388  0.5169 -5.5042
 1002MOL0     H32241   4.411   7.998   2.098 -1.0130  0.4042 -0.9757
 1002MOL0     H32242   4.582   7.878   1.973  0.7648 -0.0797  2.0806
 1002MOL0     H32243   4.553   7.987   1.843 -0.0189 -2.8445  0.7300
 1002MOL0     H32244   4.622   8.172   2.036 -0.2328  0.4072  0.1747
 1002MOL0     H32245   4.744   8.082   1.952  1.1635 -2.7209  2.0360
 1002MOL0     H32246   4.637   8.171   1.324 -1.8695  0.4713 -0.1706
 1002MOL0     H32247   4.816   8.020   1.206 -0.4525  0.3137 -0.3953
 1002MOL0     H32248   5.111   7.703   1.264 -0.3977 -0.9479  0.2750
 1002MOL0     H32249   5.287   7.544   1.196  0.2654 -1.2549 -0.1921
 1002MOL0     H32250   6.232   6.705   2.362  1.1567 -0.9527  0.0829
 1002MOL0     H32251   6.412   6.559   2.484 -1.1026 -0.2404 -1.2847
 1002MOL0     H32252   6.894   6.417   2.570  1.9469 -0.4051  0.7747
 1002MOL0     H32253   7.011   6.302   2.741 -0.2207 -2.2799  0.2712
 1002MOL0     H32254   6.994   6.182   3.157  0.0269 -0.1902  0.9868
 1002MOL0     H32255   6.829   6.224   3.143  0.1022  0.1071  1.6143
 1002MOL0     H32256   7.052   6.430   3.178 -0.2650  0.5808 -0.2655
 1002MOL0     H32257   6.881   6.467   3.170  0.2095 -0.4271  0.2919
 1002MOL0     H32258   6.835   6.376   3.391  1.1476 -0.6763  1.1306
 1002MOL0     H32259   6.991   6.454   3.406  1.5883 -1.2722  0.6899
 1002MOL0     H32260   6.957   6.165   3.366  1.5124  1.0110 -1.3955
 1002MOL0     H32261   7.116   6.243   3.370  1.5031  0.8174  0.5042
 1002MOL0     H32262   6.970   6.225   3.779  1.2068 -5.5104  0.6239
 1002MOL0     H32263   6.686   6.393   3.017 -0.2775 -3.4666 -0.9173
 1002MOL0     H32264   6.589   6.530   2.856 -0.7455 -1.8993  0.3843
 1003MOL0     O32265   0.936   8.677   2.116 -0.5789 -0.6569 -0.0125
 1003MOL0     C32266   0.993   8.723   2.213 -0.0565  0.0334  0.0333
 1003MOL0     O32267   1.036   8.853   2.230  0.7583  0.2584  0.1613
 1003MOL0     C32268   1.009   8.949   2.139 -0.3544 -0.4819  0.1720
 1003MOL0     C32269   1.115   9.028   2.100 -0.7012  1.0252  0.1151
 1003MOL0     C32270   1.090   9.139   2.019  0.2007  0.0653 -0.6594
 1003MOL0     C32271   0.959   9.164   1.972 -0.0405 -0.2093 -0.0386
 1003MOL0     O32272   0.958   9.262   1.877 -0.4096 -0.1764  0.0122
 1003MOL0     C32273   0.833   9.312   1.840 -0.3002  0.2090 -0.4212
 1003MOL0     C32274   0.848   9.433   1.741  0.3244 -0.7643 -0.3299
 1003MOL0     C32275   0.696   9.476   1.718 -0.6293  0.4810 -0.2053
 1003MOL0     C32276   0.683   9.594   1.618 -0.2093 -0.5913 -0.1732
 1003MOL0     C32277   0.533   9.650   1.621 -0.2123  0.7408 -0.0409
 1003MOL0     C32278   0.496   9.767   1.529  0.2502  0.0642 -0.4168
 1003MOL0     C32279   0.578   9.897   1.532  0.3676 -0.3034 -0.2389
 1003MOL0     C32280   0.597   9.979   1.658 -0.7346  0.1713  0.8881
 1003MOL0     N32281   0.483  10.073   1.667 -0.1488  0.1327 -0.2120
 1003MOL0     C32282   0.357  10.043   1.712 -0.2562  0.8841 -0.0164
 1003MOL0     C32283   0.306  10.163   1.740 -0.3699 -0.2557  0.6067
 1003MOL0     C32284   0.182  10.197   1.810 -0.1466 -0.1301 -0.2391
 1003MOL0     C32285   0.204  10.305   1.910  0.7845  0.5992 -0.3132
 1003MOL0     C32286   0.079  10.304   1.996  0.2675  0.1079  0.5241
 1003MOL0     C32287   0.087  10.415   2.100  0.1981  0.0887 -0.4437
 1003MOL0     O32288   0.017  10.372   2.224 -0.3627  0.4782 -0.8766
 1003MOL0     C32289  -0.119  10.380   2.227  0.6410  0.8854 -0.1019
 1003MOL0     C32290  -0.186  10.285   2.302  0.1743  0.0389 -0.0619
 1003MOL0     C32291  -0.323  10.285   2.329  0.0157  0.5630 -1.0704
 1003MOL0     C32292  -0.399  10.398   2.299  0.5819  0.5118  0.3056
 1003MOL0     C32293  -0.546  10.401   2.318 -0.1997 -0.4771 -0.3441
 1003MOL0     O32294  -0.603  10.508   2.259  0.3270  0.0009 -0.9152
 1003MOL0     C32295  -0.735  10.514   2.227 -0.0612  0.3541 -0.2166
 1003MOL0     C32296  -0.796  10.635   2.215  0.6932  0.0404  0.6417
 1003MOL0     C32297  -0.928  10.650   2.194  0.5841 -0.4239  0.3053
 1003MOL0     C32298  -1.010  10.539   2.171 -0.1952  0.4100  0.5539
 1003MOL0     O32299  -1.143  10.531   2.145  1.0413 -0.5184 -0.2832
 1003MOL0     C32300  -1.221  10.653   2.126 -0.1335  0.7757  0.3887
 1003MOL0     C32301  -1.337  10.623   2.039  0.4937 -0.1005  0.4905
 1003MOL0     C32302  -1.291  10.598   1.902 -0.1262 -0.2958 -0.1548
 1003MOL0     C32303  -1.401  10.570   1.802  0.7221 -0.6344  0.8869
 1003MOL0     C32304  -1.349  10.536   1.658  0.2822  0.7707 -0.4633
 1003MOL0     C32305  -1.305  10.670   1.589  0.5295  0.3312  0.2170
 1003MOL0     C32306  -1.296  10.651   1.440  0.2061  0.5581  0.4535
 1003MOL0     C32307  -1.150  10.695   1.389 -0.1090 -0.1431 -0.2887
 1003MOL0    Cl32308  -1.119  10.710   1.207 -0.0729 -0.1559 -0.2649
 1003MOL0     C32309  -0.948  10.409   2.176  0.7510  0.3254 -0.0334
 1003MOL0     C32310  -0.808  10.403   2.199  1.7395  0.4565  0.1131
 1003MOL0     O32311  -0.594  10.324   2.393  0.0823  0.0477  0.3063
 1003MOL0     C32312  -0.330  10.502   2.226 -0.0104  0.8305 -0.1298
 1003MOL0     C32313  -0.199  10.491   2.188 -0.1506 -0.1958 -0.2471
 1003MOL0     N32314   0.394  10.264   1.691  0.5978  0.7067  0.1940
 1003MOL0     N32315   0.499  10.206   1.644 -0.3528 -0.0829  0.3201
 1003MOL0     C32316   0.856   9.076   2.009 -0.5390  0.1952 -0.2146
 1003MOL0     C32317   0.879   8.969   2.098  0.3640 -0.6238  0.3980
 1003MOL0     C32318   1.018   8.633   2.326 -0.8590  0.8070 -0.2620
 1003MOL0     C32319   0.984   8.494   2.314  0.3568 -0.4570  0.0349
 1003MOL0     C32320   0.986   8.405   2.415 -0.8198 -0.1759  0.2655
 1003MOL0     C32321   1.025   8.445   2.543 -0.4116  0.3278 -0.2147
 1003MOL0     O32322   1.009   8.360   2.648 -0.1873  0.2167 -0.1569
 1003MOL0     C32323   1.084   8.361   2.770  0.4275 -0.0221 -0.1197
 1003MOL0     C32324   1.009   8.409   2.894 -0.1945  0.1576 -0.0285
 1003MOL0     C32325   1.064   8.353   3.025 -1.5475 -0.7763 -0.6569
 1003MOL0     C32326   0.998   8.390   3.162  0.4181 -0.8187 -0.2998
 1003MOL0     C32327   1.011   8.538   3.182 -0.2052 -0.0149  0.0786
 1003MOL0     C32328   1.017   8.648   3.219  0.1372 -0.1051  0.2684
 1003MOL0     C32329   1.073   8.583   2.553  0.8051  0.2002 -0.0002
 1003MOL0     C32330   1.069   8.675   2.447  0.5731 -0.5136  0.1662
 1003MOL0     H32331   1.213   9.024   2.148 -1.1146 -2.6986  0.9294
 1003MOL0     H32332   1.172   9.205   1.992  0.6085  0.0714  0.5449
 1003MOL0     H32333   0.786   9.346   1.933  0.0453  1.4309 -0.6697
 1003MOL0     H32334   0.776   9.230   1.796 -1.6632  1.5295 -1.2052
 1003MOL0     H32335   0.893   9.397   1.648 -0.7159 -0.5290 -0.9511
 1003MOL0     H32336   0.900   9.514   1.792 -2.5254  0.8882  0.1976
 1003MOL0     H32337   0.661   9.516   1.814 -3.0804  1.8763 -1.5950
 1003MOL0     H32338   0.639   9.386   1.694 -2.8044  1.7268 -0.0056
 1003MOL0     H32339   0.742   9.676   1.659 -0.0052 -0.0154 -1.5727
 1003MOL0     H32340   0.733   9.571   1.524 -0.0546  2.8709 -1.0335
 1003MOL0     H32341   0.497   9.677   1.721 -1.2556  1.6554 -0.6420
 1003MOL0     H32342   0.468   9.563   1.607  1.7138 -0.2627 -4.6941
 1003MOL0     H32343   0.393   9.797   1.552  0.1522  1.2996 -2.2867
 1003MOL0     H32344   0.504   9.729   1.427  2.1672 -0.8540  0.0390
 1003MOL0     H32345   0.673   9.866   1.487  0.0120  0.4691 -1.5858
 1003MOL0     H32346   0.544   9.972   1.461  0.6017  0.4168  0.4031
 1003MOL0     H32347   0.695  10.028   1.649 -0.7121 -0.1690 -1.5181
 1003MOL0     H32348   0.592   9.909   1.742 -0.5653 -2.0359 -0.8357
 1003MOL0     H32349   0.319   9.945   1.741  3.2183 -0.9035 -0.9261
 1003MOL0     H32350   0.143  10.104   1.852  0.5778 -1.3398 -2.1042
 1003MOL0     H32351   0.107  10.225   1.735  0.5707 -1.6000 -1.5585
 1003MOL0     H32352   0.223  10.399   1.858 -0.0581 -0.2464 -2.2156
 1003MOL0     H32353   0.287  10.280   1.977 -1.1917  2.7140  3.2910
 1003MOL0     H32354  -0.012  10.320   1.938  0.8108 -2.1491 -1.0986
 1003MOL0     H32355   0.077  10.208   2.049 -0.3251  0.1830  0.6475
 1003MOL0     H32356   0.051  10.508   2.055  1.4114  1.3812  1.1373
 1003MOL0     H32357   0.188  10.428   2.139  0.6661  1.4838 -2.0338
 1003MOL0     H32358  -0.135  10.196   2.338 -0.3094 -0.4755 -0.6008
 1003MOL0     H32359  -0.364  10.201   2.385  2.4658 -0.3552 -0.5366
 1003MOL0     H32360  -0.733  10.723   2.222  1.6418 -0.5681  0.0216
 1003MOL0     H32361  -0.966  10.751   2.185  0.7614 -0.3314  0.5802
 1003MOL0     H32362  -1.156  10.731   2.086  1.9241 -0.8275  0.4400
 1003MOL0     H32363  -1.263  10.689   2.221 -0.5335 -0.2755  0.6208
 1003MOL0     H32364  -1.398  10.714   2.033  0.6944 -0.0607 -1.2498
 1003MOL0     H32365  -1.397  10.545   2.088  1.7280  1.3075  4.7017
 1003MOL0     H32366  -1.229  10.508   1.907 -1.5479 -1.2550  1.1019
 1003MOL0     H32367  -1.242  10.691   1.871  3.2248 -1.4800  1.1742
 1003MOL0     H32368  -1.460  10.489   1.847  1.7223 -1.7307  0.2889
 1003MOL0     H32369  -1.465  10.659   1.797  1.3254 -0.2486 -0.9909
 1003MOL0     H32370  -1.425  10.485   1.598  1.4824 -0.2246 -1.1975
 1003MOL0     H32371  -1.270  10.461   1.662  2.3583  2.8928  0.5650
 1003MOL0     H32372  -1.209  10.705   1.628  0.7987  0.4099 -0.5046
 1003MOL0     H32373  -1.379  10.749   1.604 -1.3982 -0.5551 -3.4668
 1003MOL0     H32374  -1.321  10.550   1.408 -2.5723  0.5442  2.2916
 1003MOL0     H32375  -1.362  10.723   1.390 -1.3811 -0.6002  0.7987
 1003MOL0     H32376  -1.077  10.620   1.421  1.5063  2.1793  1.9445
 1003MOL0     H32377  -1.119  10.784   1.444 -2.7432 -2.0322  4.8192
 1003MOL0     H32378  -1.009  10.322   2.154  1.3462 -0.9636  2.9239
 1003MOL0     H32379  -0.757  10.306   2.200  2.0411  0.6006 -0.5940
 1003MOL0     H32380  -0.375  10.593   2.188 -0.0674 -0.2683 -2.9460
 1003MOL0     H32381  -0.148  10.567   2.131 -0.3130 -1.7156 -2.5409
 1003MOL0     H32382   0.756   9.075   1.968 -0.9195 -0.7473  0.6850
 1003MOL0     H32383   0.797   8.911   2.139 -1.0528  1.3126  0.4548
 1003MOL0     H32384   0.958   8.466   2.213  0.9336 -2.3980  0.3777
 1003MOL0     H32385   0.962   8.301   2.392 -1.1772 -0.7142  2.8191
 1003MOL0     H32386   1.176   8.422   2.771 -0.3851  1.2446  0.6690
 1003MOL0     H32387   1.116   8.258   2.790 -1.7975 -0.5178  1.2113
 1003MOL0     H32388   1.008   8.518   2.889 -0.9914  0.1638  0.1291
 1003MOL0     H32389   0.904   8.377   2.892 -1.0943  2.8882 -1.2151
 1003MOL0     H32390   1.171   8.374   3.033 -1.4415 -0.9636 -1.5243
 1003MOL0     H32391   1.070   8.245   3.013  1.3263 -0.6190 -1.3253
 1003MOL0     H32392   0.890   8.374   3.158 -0.0314  1.3438  1.1865
 1003MOL0     H32393   1.048   8.329   3.237 -0.8512 -3.7975 -1.7358
 1003MOL0     H32394   1.032   8.739   3.274  2.4235 -0.9923  1.2025
 1003MOL0     H32395   1.096   8.609   2.656 -1.9765 -0.7320  0.9502
 1003MOL0     H32396   1.079   8.780   2.474 -1.6418 -0.5342  1.2910
 1004MOL0     O32397   5.383   1.546   7.924 -0.0049  0.4018  0.2425
 1004MOL0     C32398   5.320   1.568   7.820  0.3623 -0.9179 -0.2364
 1004MOL0     O32399   5.316   1.684   7.755 -1.0679  0.3398 -0.2824
 1004MOL0     C32400   5.381   1.791   7.807 -0.2438  0.4643 -0.6854
 1004MOL0     C32401   5.456   1.865   7.716 -0.2855 -0.4044 -1.5324
 1004MOL0     C32402   5.535   1.977   7.758  0.7093  0.4588  0.1942
 1004MOL0     C32403   5.516   2.022   7.890 -0.3489  0.4350  0.0696
 1004MOL0     O32404   5.592   2.127   7.940 -0.0270  0.5283  0.0757
 1004MOL0     C32405   5.588   2.254   7.872 -1.6056  0.2898 -1.0242
 1004MOL0     C32406   5.598   2.370   7.966  0.1370  0.3902 -0.2650
 1004MOL0     C32407   5.469   2.418   8.027  0.5359  0.0607  0.0152
 1004MOL0     C32408   5.396   2.300   8.106  0.3891  0.1172 -0.4914
 1004MOL0     C32409   5.279   2.364   8.180 -0.8078  0.6728 -0.1353
 1004MOL0     C32410   5.229   2.281   8.302  0.1174  0.4951  0.2723
 1004MOL0     C32411   5.155   2.152   8.263  0.0651 -1.0268 -0.8190
 1004MOL0     C32412   5.105   2.090   8.391  0.4592  0.2160  0.7030
 1004MOL0     N32413   5.013   2.177   8.456  0.6800  0.6420  0.8537
 1004MOL0     C32414   5.032   2.240   8.577  0.2472  0.5083 -0.5869
 1004MOL0     C32415   4.915   2.304   8.602  0.1711 -0.4870 -0.4103
 1004MOL0     C32416   4.882   2.370   8.735  0.0321  0.5714  0.8230
 1004MOL0     C32417   4.844   2.524   8.740  0.0445 -0.4720 -0.4514
 1004MOL0     C32418   4.712   2.568   8.669  1.5527 -0.9903 -0.0980
 1004MOL0     C32419   4.716   2.691   8.567 -0.2185 -0.0750 -0.8607
 1004MOL0     O32420   4.579   2.709   8.513 -0.4311  0.3376  0.9182
 1004MOL0     C32421   4.579   2.785   8.401  0.0398 -0.5136  0.0545
 1004MOL0     C32422   4.485   2.743   8.303  0.2434  0.6614  0.4439
 1004MOL0     C32423   4.455   2.829   8.192 -0.4450  1.2448  0.3079
 1004MOL0     C32424   4.521   2.953   8.177 -0.3569  0.0605 -0.5733
 1004MOL0     C32425   4.493   3.041   8.068  0.0700 -0.1133 -0.2349
 1004MOL0     O32426   4.569   3.153   8.053 -0.7962 -0.2982 -0.0470
 1004MOL0     C32427   4.582   3.219   7.926  0.2604 -0.4892  0.4172
 1004MOL0     C32428   4.574   3.364   7.921  0.6494  0.6371 -0.4871
 1004MOL0     C32429   4.613   3.435   7.807  0.1111 -0.1867 -0.0630
 1004MOL0     C32430   4.676   3.373   7.704 -0.3989 -0.1961  0.0206
 1004MOL0     O32431   4.721   3.434   7.597 -0.2082 -0.9707  0.3431
 1004MOL0     C32432   4.735   3.574   7.597  0.4862  0.4270  0.0115
 1004MOL0     C32433   4.822   3.621   7.475  1.0234  0.6882 -0.2376
 1004MOL0     C32434   4.813   3.770   7.466 -0.1406  0.6548  0.1431
 1004MOL0     C32435   4.878   3.819   7.335  0.1860  0.1588 -0.5196
 1004MOL0     C32436   4.829   3.954   7.286 -0.0979  1.8371 -0.1940
 1004MOL0     C32437   4.860   4.074   7.381 -0.6900  0.0405  0.4061
 1004MOL0     C32438   4.802   4.194   7.312  0.2648 -0.1758 -0.7413
 1004MOL0     C32439   4.665   4.246   7.355 -0.3503  0.4282  0.6026
 1004MOL0    Cl32440   4.672   4.306   7.528  0.4692  0.0951  0.4289
 1004MOL0     C32441   4.684   3.236   7.706 -0.6517 -0.6942  0.0294
 1004MOL0     C32442   4.645   3.161   7.823  0.0687 -0.3666  0.5456
 1004MOL0     O32443   4.401   3.006   7.991  0.4549  0.1300  0.2858
 1004MOL0     C32444   4.634   2.983   8.267 -0.2534 -0.8668  0.4145
 1004MOL0     C32445   4.655   2.903   8.374  0.6893 -0.6455  0.0752
 1004MOL0     N32446   4.828   2.275   8.496  0.0028 -0.3243  0.0999
 1004MOL0     N32447   4.886   2.207   8.411  0.0255 -0.0195  0.1257
 1004MOL0     C32448   5.427   1.964   7.970 -0.1246 -0.5330  0.2171
 1004MOL0     C32449   5.366   1.849   7.929 -0.0024  0.2754 -0.0957
 1004MOL0     C32450   5.241   1.453   7.775 -0.2358 -0.9844 -0.5123
 1004MOL0     C32451   5.258   1.324   7.831  0.4517 -0.6568 -0.1402
 1004MOL0     C32452   5.185   1.216   7.768 -0.1406  0.4565  0.8268
 1004MOL0     C32453   5.097   1.240   7.654 -0.0551 -0.3283 -0.9013
 1004MOL0     O32454   5.031   1.128   7.608 -0.1058 -0.6297  0.2233
 1004MOL0     C32455   5.068   1.085   7.479 -0.4808  0.0478  0.8485
 1004MOL0     C32456   5.187   0.987   7.473 -0.5132  1.0221  0.1732
 1004MOL0     C32457   5.166   0.864   7.553  1.4433  0.6139  0.4596
 1004MOL0     C32458   5.288   0.786   7.583  0.3720  0.3466 -0.0797
 1004MOL0     C32459   5.370   0.855   7.677 -0.1847 -0.4859  0.0500
 1004MOL0     C32460   5.442   0.890   7.769  0.2940  0.4553  0.6789
 1004MOL0     C32461   5.070   1.370   7.613 -0.3620 -0.1302 -0.6811
 1004MOL0     C32462   5.145   1.469   7.672 -0.4626 -0.6920 -0.1850
 1004MOL0     H32463   5.474   1.823   7.618 -0.0618 -2.0236 -0.8258
 1004MOL0     H32464   5.602   2.033   7.694 -0.5294  2.5185  0.6201
 1004MOL0     H32465   5.498   2.277   7.814 -1.3832  2.3085 -0.6102
 1004MOL0     H32466   5.685   2.257   7.820 -0.4858 -0.8875  0.8498
 1004MOL0     H32467   5.656   2.447   7.914 -1.3385  3.9297  2.8026
 1004MOL0     H32468   5.667   2.340   8.046  3.4748  0.9894 -2.7382
 1004MOL0     H32469   5.396   2.451   7.952 -0.2880 -2.3648 -0.3439
 1004MOL0     H32470   5.486   2.502   8.094 -0.3593 -0.5928  1.1021
 1004MOL0     H32471   5.358   2.223   8.038 -1.5700  1.0831 -0.5477
 1004MOL0     H32472   5.457   2.248   8.181 -2.0324 -2.2053  0.0214
 1004MOL0     H32473   5.196   2.384   8.112 -2.3034 -3.0462  0.3931
 1004MOL0     H32474   5.305   2.461   8.224 -3.4559  1.9917 -1.2354
 1004MOL0     H32475   5.159   2.344   8.358 -1.6457  1.1623 -2.4851
 1004MOL0     H32476   5.311   2.262   8.373 -1.9005  1.1327  2.9492
 1004MOL0     H32477   5.065   2.166   8.202  0.1539  1.0807 -0.5343
 1004MOL0     H32478   5.235   2.098   8.212 -0.6119  0.0913 -3.2537
 1004MOL0     H32479   5.180   2.076   8.470  1.5309 -0.3887 -0.3847
 1004MOL0     H32480   5.062   1.993   8.365 -0.6509  1.6541 -3.5419
 1004MOL0     H32481   5.117   2.243   8.644 -0.3625  4.5214  0.2813
 1004MOL0     H32482   4.967   2.373   8.805 -0.5583  2.8392  1.5360
 1004MOL0     H32483   4.808   2.312   8.790 -1.9967  1.4006 -0.8888
 1004MOL0     H32484   4.927   2.593   8.719  2.5849 -2.4049  2.3300
 1004MOL0     H32485   4.842   2.547   8.847  1.1506  2.7191 -1.0037
 1004MOL0     H32486   4.688   2.488   8.598  1.3748 -1.8159  0.8695
 1004MOL0     H32487   4.637   2.590   8.745  3.4037  0.9060  1.3169
 1004MOL0     H32488   4.784   2.666   8.485  0.7205 -2.1657  0.4931
 1004MOL0     H32489   4.755   2.785   8.608 -0.8414  1.1318 -2.8560
 1004MOL0     H32490   4.430   2.650   8.316  0.0268  0.9804  1.9442
 1004MOL0     H32491   4.375   2.798   8.125  3.1309 -1.8180 -2.9959
 1004MOL0     H32492   4.550   3.409   8.017  1.7054  1.1127 -0.4340
 1004MOL0     H32493   4.599   3.543   7.811 -4.6730 -0.5995  1.2708
 1004MOL0     H32494   4.780   3.611   7.690  1.3379 -1.0715  0.2220
 1004MOL0     H32495   4.631   3.608   7.600  0.4014  0.1399  2.8451
 1004MOL0     H32496   4.780   3.571   7.388  0.9125 -1.1618  0.8358
 1004MOL0     H32497   4.925   3.590   7.495  0.7452 -0.2507 -0.2297
 1004MOL0     H32498   4.857   3.822   7.551 -2.8485  2.0978  0.7742
 1004MOL0     H32499   4.707   3.797   7.476 -0.4282  0.7748 -2.4336
 1004MOL0     H32500   4.986   3.817   7.352  0.6805 -2.8001 -3.0943
 1004MOL0     H32501   4.863   3.743   7.258  0.6182 -0.0073 -0.4465
 1004MOL0     H32502   4.721   3.941   7.273 -0.3911  4.3939 -0.6853
 1004MOL0     H32503   4.856   3.981   7.183  1.0822 -1.1586 -0.7943
 1004MOL0     H32504   4.969   4.078   7.394 -0.7492  1.8082  0.6070
 1004MOL0     H32505   4.816   4.067   7.481  1.4136 -0.4667  1.3412
 1004MOL0     H32506   4.871   4.278   7.323  0.0389 -0.3452  3.2702
 1004MOL0     H32507   4.792   4.181   7.204 -2.7533 -2.5720 -0.3157
 1004MOL0     H32508   4.599   4.159   7.355 -0.7839  0.7402  1.4525
 1004MOL0     H32509   4.629   4.321   7.284 -0.7343  0.6602  1.0411
 1004MOL0     H32510   4.730   3.185   7.622  0.8647 -1.7170  1.4140
 1004MOL0     H32511   4.661   3.054   7.826 -2.3301 -0.7475  1.7863
 1004MOL0     H32512   4.692   3.073   8.244 -0.5539 -1.1065 -1.3617
 1004MOL0     H32513   4.735   2.934   8.441  1.1486 -1.0948 -0.2571
 1004MOL0     H32514   5.421   2.003   8.071  0.7776 -0.1170  0.1227
 1004MOL0     H32515   5.298   1.793   7.991  0.5139  0.2132  0.4228
 1004MOL0     H32516   5.309   1.305   7.925 -2.2463  1.3171  1.8957
 1004MOL0     H32517   5.195   1.115   7.808 -1.3788 -1.8239 -3.9354
 1004MOL0     H32518   5.096   1.171   7.417  1.3196 -1.4229 -0.4905
 1004MOL0     H32519   4.985   1.038   7.427 -0.4988 -2.3923  2.8691
 1004MOL0     H32520   5.206   0.963   7.368 -0.0490  0.7475  0.3171
 1004MOL0     H32521   5.275   1.047   7.498 -0.5093  2.2307 -2.4686
 1004MOL0     H32522   5.099   0.800   7.494  3.5283 -1.0763 -0.1853
 1004MOL0     H32523   5.109   0.889   7.643 -1.4821  2.4467 -1.7008
 1004MOL0     H32524   5.251   0.699   7.638  2.6206 -0.5343  0.1476
 1004MOL0     H32525   5.354   0.758   7.500  2.4463 -0.4619  1.7252
 1004MOL0     H32526   5.514   0.910   7.845 -0.7287 -0.4951  1.9494
 1004MOL0     H32527   5.017   1.399   7.523 -4.1083  3.5816  2.3538
 1004MOL0     H32528   5.131   1.568   7.630 -2.2753 -0.1331  1.6092
 1005MOL0     O32529   4.495   5.862   8.749 -0.1713  0.7856 -0.2017
 1005MOL0     C32530   4.497   5.771   8.674 -0.3874 -0.4019 -0.6447
 1005MOL0     O32531   4.555   5.647   8.687  0.0059 -0.3676 -0.1904
 1005MOL0     C32532   4.622   5.621   8.802  0.2779  0.0015 -0.4998
 1005MOL0     C32533   4.760   5.634   8.813 -0.2521  0.5153 -0.0462
 1005MOL0     C32534   4.837   5.594   8.929  0.3069 -0.1893  0.6332
 1005MOL0     C32535   4.762   5.555   9.043 -0.1590  0.4283  0.0455
 1005MOL0     O32536   4.832   5.504   9.155 -0.1927  0.0437  0.3127
 1005MOL0     C32537   4.758   5.505   9.276 -0.1545 -0.8797 -0.4688
 1005MOL0     C32538   4.849   5.495   9.395 -0.2692 -0.1855 -0.6411
 1005MOL0     C32539   4.795   5.573   9.504  0.5918 -0.6764  0.2879
 1005MOL0     C32540   4.858   5.531   9.635 -0.5495  0.7110  0.8911
 1005MOL0     C32541   4.795   5.607   9.752  0.6485 -0.8614 -0.2959
 1005MOL0     C32542   4.886   5.614   9.870 -0.8947 -0.3146 -0.1503
 1005MOL0     C32543   4.831   5.688   9.983 -0.5405  0.9159  0.2017
 1005MOL0     C32544   4.918   5.681  10.104 -0.4846 -0.9117 -0.5840
 1005MOL0     N32545   4.849   5.742  10.222  0.0793 -0.1058  0.3264
 1005MOL0     C32546   4.740   5.690  10.290  0.1410 -0.1518  0.4562
 1005MOL0     C32547   4.708   5.789  10.378 -0.2140 -0.1225 -0.3545
 1005MOL0     C32548   4.592   5.783  10.480 -0.3327  0.7894  0.7361
 1005MOL0     C32549   4.540   5.915  10.523  0.3472  0.3940 -0.2936
 1005MOL0     C32550   4.428   5.881  10.620  0.3825 -0.6683 -1.8224
 1005MOL0     C32551   4.355   6.000  10.686 -0.2123 -0.1437  0.3435
 1005MOL0     O32552   4.227   5.958  10.730  0.7573 -0.8589  0.3630
 1005MOL0     C32553   4.165   6.027  10.833 -0.3966  0.0795 -1.5102
 1005MOL0     C32554   4.041   5.990  10.881 -0.1965 -0.2109  0.6246
 1005MOL0     C32555   3.968   6.036  10.996 -0.5455 -0.9912 -0.9569
 1005MOL0     C32556   4.033   6.146  11.064 -0.0092  0.4727  0.1340
 1005MOL0     C32557   3.983   6.203  11.187 -0.5792  0.0044  0.6806
 1005MOL0     O32558   3.900   6.127  11.264 -0.4605 -0.1954  0.4398
 1005MOL0     C32559   3.841   6.154  11.383 -0.0889 -0.6790  0.6970
 1005MOL0     C32560   3.790   6.277  11.424 -0.2033  1.0878  0.8672
 1005MOL0     C32561   3.716   6.284  11.546  0.6258  0.6370  0.3399
 1005MOL0     C32562   3.703   6.173  11.633  0.4370  0.7700  0.5791
 1005MOL0     O32563   3.650   6.180  11.752  0.6372  0.2283 -0.0434
 1005MOL0     C32564   3.505   6.223  11.753 -0.8711  0.3828 -0.3669
 1005MOL0     C32565   3.465   6.253  11.891 -0.3223  0.1118  0.0583
 1005MOL0     C32566   3.324   6.310  11.890  0.4046  0.0217 -0.3358
 1005MOL0     C32567   3.286   6.327  12.033 -0.3588 -0.1529  0.0126
 1005MOL0     C32568   3.140   6.362  12.054 -0.3719 -0.7394 -0.0178
 1005MOL0     C32569   3.132   6.420  12.198  0.3249  0.2858 -0.2653
 1005MOL0     C32570   2.981   6.442  12.223  0.2644  0.0587  0.3915
 1005MOL0     C32571   2.960   6.508  12.358 -0.8967 -0.6257 -0.9166
 1005MOL0    Cl32572   2.973   6.393  12.487  0.0109 -0.0054  0.0634
 1005MOL0     C32573   3.772   6.058  11.599  0.1576  0.1839  0.3772
 1005MOL0     C32574   3.827   6.044  11.471  0.4234 -0.0398  0.0705
 1005MOL0     O32575   4.021   6.315  11.225  0.2812  0.5647 -0.2417
 1005MOL0     C32576   4.149   6.197  11.008  0.4481 -0.4088 -0.6215
 1005MOL0     C32577   4.218   6.134  10.900  0.4720  0.1682 -0.6563
 1005MOL0     N32578   4.799   5.885  10.378  0.1121  0.6614 -0.2553
 1005MOL0     N32579   4.884   5.857  10.285 -0.4560 -0.1004 -0.4020
 1005MOL0     C32580   4.620   5.552   9.030  0.6578  0.8074 -0.7306
 1005MOL0     C32581   4.551   5.575   8.911 -0.0675 -1.1293  0.1664
 1005MOL0     C32582   4.432   5.791   8.538 -0.8906 -0.1242 -0.4118
 1005MOL0     C32583   4.451   5.697   8.435 -0.6870 -0.3889  0.3204
 1005MOL0     C32584   4.407   5.719   8.308 -0.1406 -0.9893  0.5195
 1005MOL0     C32585   4.333   5.837   8.270  0.5349  0.0115 -0.1005
 1005MOL0     O32586   4.299   5.851   8.133 -0.0850 -0.7034 -0.4171
 1005MOL0     C32587   4.230   5.970   8.084  0.1488 -0.1776  0.1439
 1005MOL0     C32588   4.202   5.934   7.929  0.0508 -0.3242  1.1983
 1005MOL0     C32589   4.137   6.056   7.855  0.3653 -0.4491 -0.4667
 1005MOL0     C32590   4.106   6.037   7.705  0.2902  0.0233 -0.6311
 1005MOL0     C32591   4.076   6.168   7.638 -0.0293 -0.0382 -0.0792
 1005MOL0     C32592   4.059   6.283   7.598 -0.0543  0.0855 -0.7223
 1005MOL0     C32593   4.313   5.936   8.364 -0.8219 -0.2796 -0.2310
 1005MOL0     C32594   4.358   5.905   8.502 -0.1203  0.2181  0.3016
 1005MOL0     H32595   4.817   5.675   8.730 -1.8291  0.2731 -1.2820
 1005MOL0     H32596   4.945   5.595   8.927  0.4242 -2.9525 -2.6251
 1005MOL0     H32597   4.686   5.424   9.288 -0.0112 -0.6553  2.7246
 1005MOL0     H32598   4.690   5.590   9.285 -0.8150 -0.8583 -4.0022
 1005MOL0     H32599   4.945   5.536   9.364  0.1490  0.3975  1.2963
 1005MOL0     H32600   4.854   5.386   9.406  0.0516 -0.3455 -2.1544
 1005MOL0     H32601   4.686   5.563   9.512  0.6105 -0.1973  1.2357
 1005MOL0     H32602   4.819   5.676   9.479  0.4286 -0.3377  1.4846
 1005MOL0     H32603   4.847   5.422   9.637 -3.2891  0.9015  0.9169
 1005MOL0     H32604   4.964   5.556   9.635 -0.0400 -1.2110 -1.1314
 1005MOL0     H32605   4.705   5.552   9.781 -0.1762  0.3356 -0.5269
 1005MOL0     H32606   4.768   5.710   9.730  0.2642 -0.0764  3.3329
 1005MOL0     H32607   4.987   5.647   9.845 -2.3065  3.9101 -1.0759
 1005MOL0     H32608   4.892   5.509   9.901  1.9603 -0.0767  0.4253
 1005MOL0     H32609   4.810   5.793   9.960 -1.5561  0.9880  1.4082
 1005MOL0     H32610   4.746   5.626  10.010  0.3650 -0.3379  0.2342
 1005MOL0     H32611   5.012   5.732  10.083  1.3673 -4.2219 -0.9534
 1005MOL0     H32612   4.949   5.578  10.122 -1.0933 -1.1331 -0.7657
 1005MOL0     H32613   4.692   5.594  10.271  0.0937  0.5157 -3.6386
 1005MOL0     H32614   4.629   5.717  10.559 -3.0605 -2.1010 -0.1911
 1005MOL0     H32615   4.520   5.731  10.416 -0.0144  0.0343  0.9828
 1005MOL0     H32616   4.504   5.977  10.441 -0.1502 -1.5928 -1.6696
 1005MOL0     H32617   4.601   5.977  10.590 -2.1560 -1.4877  4.1814
 1005MOL0     H32618   4.357   5.826  10.557  0.0199  0.6000 -2.5611
 1005MOL0     H32619   4.471   5.818  10.698  0.0277 -1.2215 -2.0576
 1005MOL0     H32620   4.357   6.084  10.616  2.2217 -0.4668 -0.0568
 1005MOL0     H32621   4.413   6.019  10.777 -1.3106  1.2563  0.7914
 1005MOL0     H32622   3.988   5.931  10.807 -3.2529  2.1137  0.7735
 1005MOL0     H32623   3.874   6.002  11.038 -0.4889 -2.2798 -1.8043
 1005MOL0     H32624   3.805   6.368  11.368  1.8601  2.1676  2.9694
 1005MOL0     H32625   3.662   6.375  11.568 -3.3279 -1.2944 -0.6079
 1005MOL0     H32626   3.455   6.139  11.702  1.1170  0.6875 -3.0703
 1005MOL0     H32627   3.492   6.308  11.685 -0.1194 -0.4893 -1.6453
 1005MOL0     H32628   3.535   6.316  11.946 -2.0760  0.7607  1.6678
 1005MOL0     H32629   3.459   6.156  11.943 -1.1473  0.1569  0.0655
 1005MOL0     H32630   3.251   6.244  11.840  1.8467 -2.9112  1.1578
 1005MOL0     H32631   3.324   6.407  11.841  1.6176  0.3639  0.3121
 1005MOL0     H32632   3.307   6.236  12.090  1.7817 -0.5766 -1.3032
 1005MOL0     H32633   3.351   6.404  12.074 -1.5499 -0.4624  2.6467
 1005MOL0     H32634   3.088   6.267  12.062 -0.0159 -0.7543  3.0222
 1005MOL0     H32635   3.107   6.422  11.968 -1.3978 -3.0672 -1.3332
 1005MOL0     H32636   3.197   6.509  12.204  1.8337 -0.7318 -0.8153
 1005MOL0     H32637   3.168   6.347  12.271 -0.4326 -2.2401 -2.2509
 1005MOL0     H32638   2.937   6.503  12.144  1.7825  0.0655 -0.4967
 1005MOL0     H32639   2.934   6.343  12.227 -0.2103  0.3114  1.3463
 1005MOL0     H32640   2.869   6.569  12.370 -0.4365  0.1821 -1.4028
 1005MOL0     H32641   3.039   6.584  12.368  0.7947 -2.5405  1.3646
 1005MOL0     H32642   3.787   5.967  11.656  0.0954  1.1118  1.9585
 1005MOL0     H32643   3.886   5.955  11.450  1.1074  0.1467  1.1115
 1005MOL0     H32644   4.200   6.279  11.058  1.4452 -2.2309  1.5014
 1005MOL0     H32645   4.315   6.179  10.880 -0.3581  2.2967 -0.0957
 1005MOL0     H32646   4.561   5.504   9.108 -0.3088  0.7941 -1.4611
 1005MOL0     H32647   4.443   5.564   8.915 -0.0936 -3.0343 -2.4478
 1005MOL0     H32648   4.508   5.607   8.455  3.1375  1.7088 -0.2277
 1005MOL0     H32649   4.415   5.641   8.232 -0.0529 -0.4487 -0.0323
 1005MOL0     H32650   4.289   6.063   8.087  0.6512 -0.3530 -2.1516
 1005MOL0     H32651   4.136   5.998   8.133  1.2090 -1.0592  2.8827
 1005MOL0     H32652   4.291   5.907   7.872 -0.1961  0.2110  0.5522
 1005MOL0     H32653   4.126   5.856   7.923  0.6500 -0.8050 -2.3879
 1005MOL0     H32654   4.205   6.142   7.852  2.1807 -1.7728  0.7412
 1005MOL0     H32655   4.040   6.080   7.899  1.5456 -0.9624  2.6399
 1005MOL0     H32656   4.190   5.985   7.657  1.2046 -2.8593  3.5178
 1005MOL0     H32657   4.026   5.964   7.701  0.3236 -0.0944  0.5191
 1005MOL0     H32658   4.050   6.383   7.559 -2.0337  1.3962  2.6693
 1005MOL0     H32659   4.259   6.030   8.354  1.4918  1.0585 -0.9569
 1005MOL0     H32660   4.343   5.972   8.586  0.1131  2.7425 -1.5598
 1006MOL0     O32661   7.095   8.795  11.318  0.7594 -0.5053  0.3091
 1006MOL0     C32662   6.980   8.837  11.327  0.3470  0.2551 -0.3203
 1006MOL0     O32663   6.878   8.787  11.413 -0.1233  0.1136 -0.0048
 1006MOL0     C32664   6.909   8.686  11.497 -0.4518 -0.7181 -0.3609
 1006MOL0     C32665   6.849   8.562  11.460  0.6525  0.9315  0.1887
 1006MOL0     C32666   6.885   8.449  11.521  0.0969  0.3843 -0.2718
 1006MOL0     C32667   6.970   8.462  11.635 -0.2769  0.5746  0.4602
 1006MOL0     O32668   7.005   8.345  11.706 -0.2434 -0.1489  0.4614
 1006MOL0     C32669   7.148   8.313  11.719  0.6301  0.5431  0.0966
 1006MOL0     C32670   7.148   8.178  11.794 -0.2301 -0.4517 -0.1612
 1006MOL0     C32671   7.288   8.109  11.801 -0.2859 -0.2975 -0.2726
 1006MOL0     C32672   7.396   8.192  11.876  0.7967 -0.0343  0.4434
 1006MOL0     C32673   7.359   8.207  12.027  0.2538 -0.1735 -0.9860
 1006MOL0     C32674   7.468   8.295  12.104  0.0907  0.1809  0.0550
 1006MOL0     C32675   7.402   8.353  12.233  0.0987 -0.3207  0.2695
 1006MOL0     C32676   7.324   8.483  12.229 -0.8725  0.0309  0.8449
 1006MOL0     N32677   7.383   8.584  12.138 -0.0284  0.2072  0.1654
 1006MOL0     C32678   7.472   8.681  12.158 -0.4052 -0.9725  0.6637
 1006MOL0     C32679   7.494   8.751  12.045  0.5428 -0.6978 -0.2846
 1006MOL0     C32680   7.586   8.867  12.023 -0.1833  0.6293  0.5400
 1006MOL0     C32681   7.727   8.833  12.000 -0.9057  0.7017 -0.0672
 1006MOL0     C32682   7.779   8.759  12.122  0.6438 -0.3346  0.0953
 1006MOL0     C32683   7.930   8.768  12.126  0.2323  0.1522  0.2901
 1006MOL0     O32684   7.965   8.772  12.268 -0.0352 -0.2044  0.3180
 1006MOL0     C32685   8.100   8.774  12.299 -0.7053 -0.5491  0.4406
 1006MOL0     C32686   8.203   8.741  12.210 -0.8565 -0.6195  0.8903
 1006MOL0     C32687   8.339   8.743  12.246 -0.2955 -0.7105  0.3096
 1006MOL0     C32688   8.383   8.791  12.371 -0.5316 -0.2540  0.2374
 1006MOL0     C32689   8.524   8.803  12.416  0.0242 -0.3245 -0.3521
 1006MOL0     O32690   8.620   8.813  12.321 -0.1485  0.2187 -0.1056
 1006MOL0     C32691   8.746   8.802  12.375 -0.4072  0.0996  0.7246
 1006MOL0     C32692   8.804   8.678  12.378 -0.7934  1.0863  0.2907
 1006MOL0     C32693   8.936   8.664  12.418 -0.1725 -0.5076 -0.6860
 1006MOL0     C32694   9.011   8.771  12.454 -0.0082  0.0450 -0.0232
 1006MOL0     O32695   9.144   8.737  12.468 -0.4767  0.9388 -0.1686
 1006MOL0     C32696   9.235   8.819  12.541 -0.2252  0.5754  0.0956
 1006MOL0     C32697   9.350   8.729  12.600  0.2656  0.3036  0.7691
 1006MOL0     C32698   9.425   8.790  12.721 -0.6684 -1.1479 -1.0398
 1006MOL0     C32699   9.515   8.907  12.683  0.2433 -1.1635 -0.6706
 1006MOL0     C32700   9.551   8.983  12.809  0.2583 -0.6565  0.1178
 1006MOL0     C32701   9.627   9.119  12.790 -0.0857 -0.6468 -0.7307
 1006MOL0     C32702   9.544   9.212  12.702 -0.1317 -0.6448  0.5003
 1006MOL0     C32703   9.623   9.339  12.679 -0.4253 -0.8534  0.0408
 1006MOL0    Cl32704   9.759   9.301  12.563  0.2433  0.0928 -0.1882
 1006MOL0     C32705   8.954   8.897  12.457 -0.8090 -0.2005  0.0371
 1006MOL0     C32706   8.821   8.916  12.411 -0.2561  0.8278 -0.3934
 1006MOL0     O32707   8.538   8.822  12.538  0.3947  0.5202 -0.6661
 1006MOL0     C32708   8.277   8.814  12.460 -0.6606 -0.0310 -0.9126
 1006MOL0     C32709   8.143   8.803  12.425  0.1941 -0.4298 -0.2308
 1006MOL0     N32710   7.413   8.691  11.951  0.0630  0.5146  0.2235
 1006MOL0     N32711   7.347   8.598  12.011 -0.1420 -0.9461  0.4384
 1006MOL0     C32712   7.036   8.588  11.668  0.4547 -0.8609 -0.8923
 1006MOL0     C32713   6.999   8.701  11.600  0.0683 -0.0818  0.2451
 1006MOL0     C32714   6.939   8.940  11.234  0.4218 -0.6821 -0.0612
 1006MOL0     C32715   7.031   8.970  11.121 -0.2562 -0.0523  0.5496
 1006MOL0     C32716   6.994   9.067  11.029  0.0470  0.9117  0.2373
 1006MOL0     C32717   6.874   9.132  11.039  0.4884 -0.7827 -0.3206
 1006MOL0     O32718   6.853   9.231  10.951 -0.9604  0.0084  0.0329
 1006MOL0     C32719   6.795   9.353  11.001 -0.4517 -0.4964  0.2128
 1006MOL0     C32720   6.752   9.438  10.890  0.7423 -0.3507  0.6401
 1006MOL0     C32721   6.659   9.551  10.935 -0.4275  0.3144  0.3135
 1006MOL0     C32722   6.514   9.497  10.903  0.1143 -0.4307  1.0399
 1006MOL0     C32723   6.475   9.379  10.988 -0.2874  0.4130  1.0087
 1006MOL0     C32724   6.434   9.278  11.041 -0.6886 -0.0387 -1.0010
 1006MOL0     C32725   6.784   9.093  11.140 -0.1201 -0.6358 -0.5389
 1006MOL0     C32726   6.821   9.007  11.245  0.0988 -1.3209  0.7768
 1006MOL0     H32727   6.797   8.546  11.367 -2.4051 -2.0283  2.1730
 1006MOL0     H32728   6.842   8.354  11.490 -2.7184  1.2514  0.7311
 1006MOL0     H32729   7.190   8.395  11.778 -1.5548  1.3020  0.7326
 1006MOL0     H32730   7.200   8.298  11.625  0.1606  3.1515 -0.6558
 1006MOL0     H32731   7.068   8.116  11.753 -0.3358 -0.9781  0.8011
 1006MOL0     H32732   7.113   8.199  11.895 -0.7009 -0.9755 -0.2084
 1006MOL0     H32733   7.324   8.101  11.698 -1.6811  0.1081 -0.8163
 1006MOL0     H32734   7.270   8.015  11.855 -2.4528 -0.1830 -0.6871
 1006MOL0     H32735   7.496   8.148  11.871  1.2327  0.7920  1.4482
 1006MOL0     H32736   7.400   8.290  11.828 -1.4221  0.5814  1.4136
 1006MOL0     H32737   7.363   8.112  12.081  2.1879  1.0135  1.1593
 1006MOL0     H32738   7.260   8.250  12.047  0.7385  0.6066 -0.1709
 1006MOL0     H32739   7.515   8.364  12.034 -1.5856 -1.4047 -2.8374
 1006MOL0     H32740   7.552   8.236  12.141  0.9045  0.4171 -1.3666
 1006MOL0     H32741   7.338   8.280  12.283  0.5582 -1.0847 -0.2413
 1006MOL0     H32742   7.484   8.370  12.304 -2.0378 -1.3107  3.1681
 1006MOL0     H32743   7.313   8.536  12.324 -0.2582 -0.8947  1.4471
 1006MOL0     H32744   7.232   8.451  12.180 -0.5093 -2.3693  1.6093
 1006MOL0     H32745   7.508   8.709  12.257 -1.9423 -0.4932  1.1102
 1006MOL0     H32746   7.569   8.945  12.097 -2.7194  0.0306  0.6658
 1006MOL0     H32747   7.545   8.919  11.935  0.1848  1.7036  0.9888
 1006MOL0     H32748   7.777   8.928  11.981  1.1944  1.3390  6.3542
 1006MOL0     H32749   7.745   8.765  11.916 -0.7743  0.3531  0.2381
 1006MOL0     H32750   7.735   8.805  12.211  1.2448  0.9401 -0.2456
 1006MOL0     H32751   7.754   8.652  12.126  1.3495 -0.5128  3.9372
 1006MOL0     H32752   7.966   8.859  12.077  2.7702  0.3216  2.2894
 1006MOL0     H32753   7.970   8.676  12.082 -0.3557  0.1714 -0.2984
 1006MOL0     H32754   8.180   8.709  12.109 -1.7496 -2.9654  1.7668
 1006MOL0     H32755   8.409   8.714  12.168 -0.8072  0.0486 -0.4435
 1006MOL0     H32756   8.743   8.591  12.353 -0.1278  0.7478 -0.2058
 1006MOL0     H32757   8.968   8.561  12.421  2.8440  0.3332  1.5883
 1006MOL0     H32758   9.180   8.863  12.624 -0.8433  0.5040 -0.2741
 1006MOL0     H32759   9.275   8.902  12.481  1.8527 -2.0064 -2.4016
 1006MOL0     H32760   9.418   8.702  12.518  0.4026 -0.1437  1.0253
 1006MOL0     H32761   9.304   8.633  12.626 -2.3108  2.0520  3.2300
 1006MOL0     H32762   9.499   8.720  12.762  0.8449  1.0881  0.2201
 1006MOL0     H32763   9.354   8.809  12.801  0.7478 -0.5051  0.0983
 1006MOL0     H32764   9.613   8.882  12.641  1.6037 -1.3577  2.3812
 1006MOL0     H32765   9.458   8.974  12.617 -2.4492 -0.0453  2.4614
 1006MOL0     H32766   9.598   8.911  12.877  2.4196 -0.3519 -0.9721
 1006MOL0     H32767   9.465   9.005  12.873  0.3223 -2.9789  1.0929
 1006MOL0     H32768   9.724   9.097  12.744  1.5349 -1.1832  2.5976
 1006MOL0     H32769   9.643   9.165  12.889 -2.1296  0.5280 -0.8828
 1006MOL0     H32770   9.520   9.172  12.603  2.3430 -1.7690  0.2777
 1006MOL0     H32771   9.455   9.234  12.761 -0.2085 -3.1231  1.4124
 1006MOL0     H32772   9.659   9.383  12.772  0.6765  0.2881 -0.8938
 1006MOL0     H32773   9.561   9.415  12.630  0.9823  0.5526  0.3902
 1006MOL0     H32774   9.013   8.986  12.477 -0.5256 -0.9549  3.0335
 1006MOL0     H32775   8.778   9.015  12.398  0.5731  1.2198 -0.1948
 1006MOL0     H32776   8.300   8.852  12.559 -0.2702 -1.4373 -0.4362
 1006MOL0     H32777   8.070   8.840  12.496  0.6534  3.8633 -1.7172
 1006MOL0     H32778   7.108   8.597  11.749 -0.3841 -2.9179  0.1652
 1006MOL0     H32779   7.044   8.795  11.629  0.0844  0.3702 -1.2023
 1006MOL0     H32780   7.129   8.926  11.116 -1.2642 -2.3537 -0.2470
 1006MOL0     H32781   7.065   9.086  10.950 -0.7489 -2.0790 -1.3843
 1006MOL0     H32782   6.870   9.400  11.064 -1.3985  3.0969 -1.0915
 1006MOL0     H32783   6.716   9.318  11.068 -1.0699 -3.7945 -2.0145
 1006MOL0     H32784   6.837   9.484  10.838 -0.8385  1.3600 -0.5685
 1006MOL0     H32785   6.711   9.365  10.820  5.1254 -2.1842 -0.3609
 1006MOL0     H32786   6.681   9.635  10.869 -0.5154 -0.4926 -0.7718
 1006MOL0     H32787   6.673   9.570  11.041  3.8910  3.4737 -0.5538
 1006MOL0     H32788   6.437   9.574  10.910 -0.2037 -0.5132 -0.9590
 1006MOL0     H32789   6.507   9.462  10.800 -1.2969  0.9061  0.6451
 1006MOL0     H32790   6.402   9.184  11.082 -2.5179 -0.4876 -3.3149
 1006MOL0     H32791   6.683   9.129  11.157  1.0513  2.8465 -0.2063
 1006MOL0     H32792   6.741   8.991  11.316 -1.4592  1.1317 -0.2831
 1007MOL0     O32793   2.223   4.642  11.304  0.0082  0.5714  0.2020
 1007MOL0     C32794   2.217   4.609  11.180 -0.0899  1.1301 -0.6827
 1007MOL0     O32795   2.301   4.527  11.119  0.2449 -0.1722 -0.5025
 1007MOL0     C32796   2.413   4.490  11.195  0.5206  0.2130 -0.3965
 1007MOL0     C32797   2.497   4.592  11.244 -0.0709  0.8039 -0.4863
 1007MOL0     C32798   2.610   4.551  11.324  0.0137  0.1167 -0.5585
 1007MOL0     C32799   2.633   4.414  11.349 -0.5032 -0.6122 -0.0670
 1007MOL0     O32800   2.758   4.370  11.394 -0.0395  0.7460  0.2164
 1007MOL0     C32801   2.847   4.467  11.442 -0.2226  0.5013  0.1790
 1007MOL0     C32802   2.973   4.395  11.490 -0.4729  0.4633  0.1196
 1007MOL0     C32803   3.052   4.345  11.365 -0.5930  0.6078  0.0589
 1007MOL0     C32804   3.188   4.287  11.426 -0.8843 -0.1285 -1.1002
 1007MOL0     C32805   3.311   4.277  11.334  0.8524 -0.6327  0.5402
 1007MOL0     C32806   3.267   4.194  11.205  0.0597 -0.0508  0.8344
 1007MOL0     C32807   3.387   4.153  11.121  0.5440  0.4194  0.3064
 1007MOL0     C32808   3.451   4.275  11.049  0.1910  0.0422 -0.2774
 1007MOL0     N32809   3.575   4.231  10.990 -0.4973 -0.1036 -0.1512
 1007MOL0     C32810   3.584   4.209  10.856  0.2869 -0.6596 -0.8738
 1007MOL0     C32811   3.714   4.180  10.848 -0.8068 -0.3160  0.3740
 1007MOL0     C32812   3.778   4.165  10.711 -0.0825 -0.3624  0.0721
 1007MOL0     C32813   3.924   4.197  10.713 -0.0446  0.4287 -0.3521
 1007MOL0     C32814   3.996   4.137  10.592  0.6455 -0.1899  0.8711
 1007MOL0     C32815   4.017   4.242  10.478  0.4403 -0.3170 -0.2441
 1007MOL0     O32816   4.069   4.362  10.535  0.0703 -0.5248  0.0941
 1007MOL0     C32817   4.140   4.442  10.447  0.4096 -0.0471 -0.9125
 1007MOL0     C32818   4.271   4.490  10.476  0.0179  0.3050  0.1334
 1007MOL0     C32819   4.351   4.544  10.381  0.3291 -0.5021 -0.0517
 1007MOL0     C32820   4.300   4.562  10.250 -0.2487 -0.4894  0.2546
 1007MOL0     C32821   4.390   4.593  10.139  0.1831 -0.3381  0.4894
 1007MOL0     O32822   4.516   4.643  10.174  0.0517 -0.0868  0.1638
 1007MOL0     C32823   4.621   4.657  10.097  0.8477 -0.7742 -0.5028
 1007MOL0     C32824   4.711   4.761  10.120  0.9235 -0.4677 -0.9899
 1007MOL0     C32825   4.801   4.792  10.019  0.4217  0.2279  0.5125
 1007MOL0     C32826   4.821   4.708   9.912 -0.7355 -0.4057  0.3418
 1007MOL0     O32827   4.922   4.726   9.817  0.1138 -0.4755 -0.0971
 1007MOL0     C32828   4.896   4.851   9.755 -0.0751  0.9692  0.3265
 1007MOL0     C32829   4.947   4.834   9.614 -0.5910  0.1989 -0.0763
 1007MOL0     C32830   4.907   4.948   9.513 -0.1493  0.0095  0.0393
 1007MOL0     C32831   4.982   4.924   9.375 -0.1725  0.5206  0.9339
 1007MOL0     C32832   4.933   5.013   9.255 -0.3802  0.4663 -0.7502
 1007MOL0     C32833   4.784   5.020   9.245  0.6405  0.0676 -0.2322
 1007MOL0     C32834   4.741   5.083   9.109 -0.6889  0.4244 -0.2032
 1007MOL0     C32835   4.599   5.145   9.112  0.1198  0.3937 -0.3946
 1007MOL0    Cl32836   4.474   5.010   9.124  0.1169 -0.4449 -0.0126
 1007MOL0     C32837   4.740   4.595   9.893  1.0707 -0.6728  0.1612
 1007MOL0     C32838   4.630   4.579   9.975 -0.5096 -0.2969  0.4776
 1007MOL0     O32839   4.345   4.594  10.024 -0.4767  0.4135 -0.3191
 1007MOL0     C32840   4.164   4.536  10.226 -0.4962 -0.8949  0.6557
 1007MOL0     C32841   4.086   4.473  10.327  0.4938 -0.8102  0.3213
 1007MOL0     N32842   3.782   4.183  10.967 -0.2037 -0.0306  0.0334
 1007MOL0     N32843   3.694   4.215  11.052  0.7666 -0.1426 -0.6538
 1007MOL0     C32844   2.546   4.312  11.293 -0.8349 -0.1208 -0.6775
 1007MOL0     C32845   2.441   4.355  11.209 -0.0815 -0.4496  0.4118
 1007MOL0     C32846   2.107   4.664  11.098  0.4288  0.2126 -0.4245
 1007MOL0     C32847   2.021   4.761  11.150 -0.3894  0.0602 -0.6113
 1007MOL0     C32848   1.920   4.830  11.071 -0.5718 -0.2642  0.4637
 1007MOL0     C32849   1.906   4.800  10.940  0.4989  0.3012  0.6531
 1007MOL0     O32850   1.825   4.851  10.837  0.9233 -0.6275 -0.4137
 1007MOL0     C32851   1.767   4.973  10.874 -0.8102 -0.3424  0.3991
 1007MOL0     C32852   1.654   4.990  10.780 -0.2453  0.2789 -0.4335
 1007MOL0     C32853   1.563   5.111  10.818  1.1375 -0.2180 -0.2409
 1007MOL0     C32854   1.448   5.131  10.714 -0.3893 -0.2346 -1.3733
 1007MOL0     C32855   1.338   5.215  10.775 -0.2409 -0.0418 -0.4601
 1007MOL0     C32856   1.239   5.273  10.799 -0.2176  0.1382  0.1513
 1007MOL0     C32857   1.981   4.696  10.885 -0.8331  1.6817  0.2108
 1007MOL0     C32858   2.080   4.625  10.963 -0.2983 -0.0845  0.4138
 1007MOL0     H32859   2.467   4.695  11.231 -2.1161  0.4575  1.0225
 1007MOL0     H32860   2.690   4.613  11.364  2.3949 -2.8170 -0.4334
 1007MOL0     H32861   2.816   4.526  11.529  1.4776  0.4755  0.8611
 1007MOL0     H32862   2.873   4.532  11.359 -0.9521 -0.8392 -1.1462
 1007MOL0     H32863   2.944   4.313  11.555 -2.9308  1.3299  0.2253
 1007MOL0     H32864   3.033   4.463  11.551  1.3074  0.1870 -1.2414
 1007MOL0     H32865   3.073   4.431  11.301  1.4897  0.7071  0.7730
 1007MOL0     H32866   3.001   4.276  11.298  2.3502 -1.3335 -0.3513
 1007MOL0     H32867   3.212   4.342  11.518 -2.7335 -0.7274 -0.2122
 1007MOL0     H32868   3.166   4.188  11.467  0.6106  0.9713  2.9282
 1007MOL0     H32869   3.390   4.221  11.385  0.7895 -1.6868 -0.4786
 1007MOL0     H32870   3.345   4.377  11.303  0.2133 -0.7851 -0.6977
 1007MOL0     H32871   3.211   4.269  11.149 -3.1074 -3.2382 -0.7056
 1007MOL0     H32872   3.197   4.115  11.231 -1.4767  1.1249  0.3791
 1007MOL0     H32873   3.461   4.103  11.184  3.4994  0.7673 -2.6151
 1007MOL0     H32874   3.356   4.081  11.044 -1.1549  0.0461  1.2879
 1007MOL0     H32875   3.477   4.353  11.120  1.7846 -1.4437  0.8723
 1007MOL0     H32876   3.389   4.312  10.967  0.6307  0.1474 -0.5669
 1007MOL0     H32877   3.520   4.250  10.779  0.4090  2.7663  0.6595
 1007MOL0     H32878   3.731   4.223  10.631 -1.9432 -1.2605  0.4718
 1007MOL0     H32879   3.756   4.063  10.680 -0.4770 -0.3285  0.2396
 1007MOL0     H32880   3.972   4.138  10.792  3.1088  0.1645 -2.2819
 1007MOL0     H32881   3.950   4.301  10.730  1.0111 -0.0174  0.9173
 1007MOL0     H32882   4.095   4.099  10.619  0.0983 -1.7445  0.7755
 1007MOL0     H32883   3.947   4.049  10.548 -0.9642  1.1895 -0.2582
 1007MOL0     H32884   3.920   4.245  10.426  0.5252  0.8403 -0.3485
 1007MOL0     H32885   4.088   4.209  10.402 -0.3028 -3.0697  0.1260
 1007MOL0     H32886   4.330   4.452  10.558  0.5110 -2.8778 -1.5276
 1007MOL0     H32887   4.456   4.565  10.396 -0.0250  1.4186 -0.0383
 1007MOL0     H32888   4.701   4.821  10.209  0.6343 -1.6894 -0.1702
 1007MOL0     H32889   4.876   4.866  10.045 -0.0957  0.3268  1.8288
 1007MOL0     H32890   4.958   4.926   9.804  0.1858 -0.9517  3.1928
 1007MOL0     H32891   4.792   4.882   9.761 -0.7223 -1.3242  4.0705
 1007MOL0     H32892   4.921   4.736   9.574 -2.1952 -0.1272  1.6139
 1007MOL0     H32893   5.055   4.833   9.629 -0.8481  0.6401  2.2864
 1007MOL0     H32894   4.931   5.050   9.541  3.3741 -0.4211 -0.9475
 1007MOL0     H32895   4.799   4.935   9.496 -0.1712  0.5514 -0.2622
 1007MOL0     H32896   5.089   4.937   9.395  0.1806 -0.5544 -0.1473
 1007MOL0     H32897   4.955   4.821   9.347  0.0245  0.4323  1.0642
 1007MOL0     H32898   4.970   4.970   9.162  1.2478  0.9389 -0.3712
 1007MOL0     H32899   4.960   5.119   9.264 -0.9500  0.9760 -3.8418
 1007MOL0     H32900   4.735   5.067   9.331  1.6172  1.9889 -0.6909
 1007MOL0     H32901   4.742   4.920   9.262 -0.5473  0.6592  0.4171
 1007MOL0     H32902   4.809   5.167   9.094 -3.4079  2.9228  0.4507
 1007MOL0     H32903   4.747   5.021   9.019 -3.9051  3.4460 -2.8038
 1007MOL0     H32904   4.591   5.194   9.015 -0.2323  3.8867  1.2347
 1007MOL0     H32905   4.577   5.216   9.193 -0.8119 -2.5070  2.0836
 1007MOL0     H32906   4.743   4.521   9.814  0.6840 -0.7401  0.2080
 1007MOL0     H32907   4.554   4.501   9.969  0.4843 -1.2434 -0.0899
 1007MOL0     H32908   4.116   4.550  10.129  0.6259 -0.0380  0.1982
 1007MOL0     H32909   3.984   4.449  10.298  0.4573  0.8810 -1.1317
 1007MOL0     H32910   2.569   4.207  11.304 -2.0866 -0.1933  2.1249
 1007MOL0     H32911   2.355   4.309  11.161 -3.3798  2.3606  3.1287
 1007MOL0     H32912   2.039   4.794  11.251  2.0065  1.2464 -1.3528
 1007MOL0     H32913   1.854   4.901  11.121 -0.1140  0.2134  0.4002
 1007MOL0     H32914   1.837   5.057  10.860  1.9062 -2.2319  1.8023
 1007MOL0     H32915   1.726   4.978  10.975  1.5447  3.1298  1.3768
 1007MOL0     H32916   1.710   5.009  10.688  1.0798  0.7260  0.4384
 1007MOL0     H32917   1.596   4.897  10.779  0.8495 -0.4431 -2.3498
 1007MOL0     H32918   1.613   5.206  10.839  1.0688 -0.5804  1.7598
 1007MOL0     H32919   1.509   5.078  10.907 -1.2720  1.2338 -1.0677
 1007MOL0     H32920   1.495   5.178  10.627  2.2635 -0.1911 -0.0209
 1007MOL0     H32921   1.405   5.034  10.688 -1.5914  0.4379 -1.9510
 1007MOL0     H32922   1.142   5.314  10.822 -1.0260 -0.7243 -1.5182
 1007MOL0     H32923   1.965   4.666  10.782 -2.7055  1.4401  0.5421
 1007MOL0     H32924   2.137   4.551  10.909 -3.1019 -1.1821 -1.2432
 1008MOL0     O32925   5.937   0.074   7.306  0.3480  0.2002 -0.3231
 1008MOL0     C32926   5.992   0.105   7.199 -0.9706 -0.4368 -0.2023
 1008MOL0     O32927   6.127   0.095   7.176 -0.4701  0.3410 -0.6407
 1008MOL0     C32928   6.214   0.008   7.237 -1.0298  0.3502  0.4207
 1008MOL0     C32929   6.343   0.055   7.235 -0.3039  0.4259 -0.3808
 1008MOL0     C32930   6.443  -0.017   7.293 -0.0012  0.0471 -0.0727
 1008MOL0     C32931   6.406  -0.134   7.364 -0.5502 -0.5445 -0.7038
 1008MOL0     O32932   6.510  -0.200   7.421  0.5135  0.1439  0.6278
 1008MOL0     C32933   6.611  -0.253   7.339 -0.1131 -0.3904 -0.2518
 1008MOL0     C32934   6.691  -0.352   7.437 -0.2863  0.0746  0.0644
 1008MOL0     C32935   6.750  -0.273   7.561 -0.3186  0.5439  0.5414
 1008MOL0     C32936   6.850  -0.355   7.653  0.1463 -1.2944  0.1010
 1008MOL0     C32937   6.963  -0.417   7.573  0.0882  0.4442  0.1790
 1008MOL0     C32938   7.052  -0.495   7.676  0.0343 -0.2196  0.1322
 1008MOL0     C32939   7.178  -0.564   7.624  0.4498 -0.2015  0.2001
 1008MOL0     C32940   7.143  -0.691   7.543  1.0210 -0.5221 -0.3356
 1008MOL0     N32941   7.256  -0.785   7.527  0.6075  0.1280  0.2990
 1008MOL0     C32942   7.355  -0.764   7.431  0.4079 -0.9318 -0.0692
 1008MOL0     C32943   7.408  -0.886   7.416 -0.5082 -0.3878 -0.1204
 1008MOL0     C32944   7.509  -0.940   7.315  0.0627  0.1816 -0.0932
 1008MOL0     C32945   7.628  -1.001   7.388 -0.7798  0.3085 -0.3256
 1008MOL0     C32946   7.702  -0.907   7.498  0.5800  0.6117  0.2974
 1008MOL0     C32947   7.754  -0.769   7.457  0.6977 -1.1963 -0.2118
 1008MOL0     O32948   7.817  -0.705   7.569 -0.8309  0.4808  0.3746
 1008MOL0     C32949   7.957  -0.718   7.574  0.4796 -0.0523 -0.0811
 1008MOL0     C32950   8.008  -0.751   7.698  0.0644  0.6423  1.0176
 1008MOL0     C32951   8.142  -0.765   7.719  0.2042 -0.2060 -0.2652
 1008MOL0     C32952   8.233  -0.763   7.612 -0.8841 -0.5504 -0.0880
 1008MOL0     C32953   8.377  -0.787   7.634 -0.0644  0.5668  0.1937
 1008MOL0     O32954   8.452  -0.778   7.517  0.4944 -0.0848  0.1780
 1008MOL0     C32955   8.586  -0.789   7.513  0.1418  0.4594  0.2455
 1008MOL0     C32956   8.647  -0.862   7.414 -0.1793  0.7324  0.6577
 1008MOL0     C32957   8.789  -0.880   7.411  0.5839  0.1503 -0.3247
 1008MOL0     C32958   8.871  -0.819   7.506  0.6751 -0.9878 -0.2254
 1008MOL0     O32959   8.999  -0.852   7.527 -0.5531  0.2549  0.1659
 1008MOL0     C32960   9.089  -0.759   7.469  0.1709 -0.1858  0.8598
 1008MOL0     C32961   9.063  -0.730   7.323 -0.8171 -0.4356 -0.8083
 1008MOL0     C32962   9.196  -0.671   7.252  0.4255  0.2156 -0.2180
 1008MOL0     C32963   9.203  -0.679   7.096  1.1996 -0.0556 -0.4988
 1008MOL0     C32964   9.350  -0.650   7.059  0.5899 -0.6311  0.8153
 1008MOL0     C32965   9.347  -0.617   6.912 -0.3510 -0.2230  0.1787
 1008MOL0     C32966   9.490  -0.576   6.863  0.0183 -0.5708  0.3668
 1008MOL0     C32967   9.488  -0.494   6.737 -0.1853 -1.1529  0.7444
 1008MOL0    Cl32968   9.661  -0.464   6.702  0.0706  0.7200  0.2880
 1008MOL0     C32969   8.802  -0.737   7.607 -0.7058 -0.0815  0.2698
 1008MOL0     C32970   8.666  -0.714   7.609 -0.6717 -0.3851 -0.5011
 1008MOL0     O32971   8.412  -0.851   7.734 -0.2272 -0.1854 -0.1892
 1008MOL0     C32972   8.180  -0.740   7.489  0.2144  0.0942  0.6549
 1008MOL0     C32973   8.048  -0.728   7.465  0.9902  0.7161  0.7297
 1008MOL0     N32974   7.354  -0.965   7.525 -0.0700 -0.2929 -0.0630
 1008MOL0     N32975   7.260  -0.908   7.575  0.1174  0.2365  0.2586
 1008MOL0     C32976   6.278  -0.188   7.371  0.5281 -0.8516  0.5757
 1008MOL0     C32977   6.177  -0.112   7.306 -0.6234  0.0371 -0.3584
 1008MOL0     C32978   5.904   0.185   7.109 -0.1788 -0.0897  0.6842
 1008MOL0     C32979   5.770   0.200   7.122  0.1691  0.1421  0.1229
 1008MOL0     C32980   5.693   0.269   7.030  0.2435 -1.0494 -0.5849
 1008MOL0     C32981   5.750   0.347   6.931 -0.0218  0.3912  0.0200
 1008MOL0     O32982   5.672   0.420   6.847 -0.3045 -0.2037 -0.1065
 1008MOL0     C32983   5.616   0.536   6.907  0.3190 -0.6105 -0.3234
 1008MOL0     C32984   5.724   0.642   6.906 -0.9271 -0.0297 -0.2963
 1008MOL0     C32985   5.675   0.765   6.969 -0.5318 -0.7448  0.0857
 1008MOL0     C32986   5.750   0.898   6.933 -0.1783 -0.2470 -0.0308
 1008MOL0     C32987   5.797   0.921   6.801  0.3536  0.5825  1.3634
 1008MOL0     C32988   5.851   0.931   6.686  0.0603  0.1226 -0.5054
 1008MOL0     C32989   5.885   0.334   6.919 -0.0267  0.8359  0.2088
 1008MOL0     C32990   5.962   0.245   6.994 -0.4807  0.5174 -0.6177
 1008MOL0     H32991   6.359   0.149   7.183  0.2505  2.5724  3.3023
 1008MOL0     H32992   6.545   0.019   7.303 -0.0356 -0.2283  1.5714
 1008MOL0     H32993   6.658  -0.170   7.285 -1.2871  1.2753  1.1740
 1008MOL0     H32994   6.564  -0.316   7.264  0.3787  0.5345 -1.3766
 1008MOL0     H32995   6.767  -0.400   7.375  0.1433  2.1406 -1.1000
 1008MOL0     H32996   6.621  -0.425   7.478 -2.1229  2.2916  1.1077
 1008MOL0     H32997   6.663  -0.249   7.623  1.2399  1.6962  2.4127
 1008MOL0     H32998   6.799  -0.181   7.528 -0.9486  1.3603  1.8001
 1008MOL0     H32999   6.900  -0.304   7.736  1.5029 -1.7740 -0.3801
 1008MOL0     H33000   6.790  -0.432   7.700 -1.1199 -1.4496 -1.6582
 1008MOL0     H33001   7.026  -0.344   7.523 -2.1184  0.6407 -2.5908
 1008MOL0     H33002   6.918  -0.482   7.496  1.3361 -1.7840  1.2290
 1008MOL0     H33003   6.986  -0.568   7.723 -0.0388  0.8881  1.8776
 1008MOL0     H33004   7.088  -0.424   7.752 -0.3435  0.3807 -0.2424
 1008MOL0     H33005   7.250  -0.502   7.569 -1.0924  4.6219  3.0297
 1008MOL0     H33006   7.225  -0.607   7.712 -1.9403 -0.3633  1.4657
 1008MOL0     H33007   7.096  -0.653   7.452 -0.0338 -0.3182  0.2864
 1008MOL0     H33008   7.069  -0.747   7.601  1.6716  0.2166  1.2912
 1008MOL0     H33009   7.366  -0.678   7.365 -0.1923  0.7558  1.8972
 1008MOL0     H33010   7.534  -0.874   7.232 -1.7144  4.2011  2.2783
 1008MOL0     H33011   7.450  -1.022   7.273 -0.3004 -0.5530  1.7131
 1008MOL0     H33012   7.715  -1.021   7.325 -0.1072  1.7586  0.1054
 1008MOL0     H33013   7.596  -1.094   7.435 -2.8741  1.0556 -0.1351
 1008MOL0     H33014   7.635  -0.884   7.582  2.5832  1.4286  1.7590
 1008MOL0     H33015   7.774  -0.967   7.555  0.2652  0.3996  0.4740
 1008MOL0     H33016   7.669  -0.705   7.430  1.8407  0.3245 -0.3199
 1008MOL0     H33017   7.806  -0.772   7.361 -0.4753  2.3006 -1.1341
 1008MOL0     H33018   7.930  -0.764   7.773 -1.0593 -5.4432 -0.6477
 1008MOL0     H33019   8.177  -0.790   7.819 -0.9174 -2.3704 -0.3382
 1008MOL0     H33020   8.573  -0.898   7.343 -2.8700  1.2134  3.0606
 1008MOL0     H33021   8.849  -0.929   7.334  1.4162  2.4188 -1.1829
 1008MOL0     H33022   9.188  -0.805   7.472  0.3900  0.2667  0.6317
 1008MOL0     H33023   9.114  -0.677   7.537  1.2400 -2.1185  2.9544
 1008MOL0     H33024   8.992  -0.648   7.313  3.7762  3.9626 -1.5022
 1008MOL0     H33025   9.029  -0.819   7.270 -1.0361 -0.0404 -1.3324
 1008MOL0     H33026   9.285  -0.713   7.299  0.1501  0.4485  0.5342
 1008MOL0     H33027   9.201  -0.564   7.274 -1.6779 -0.1135  2.4421
 1008MOL0     H33028   9.162  -0.778   7.073 -7.0031  1.0648  5.0494
 1008MOL0     H33029   9.137  -0.602   7.055  1.6801  0.2807 -0.6453
 1008MOL0     H33030   9.416  -0.734   7.082  2.0934  0.6419  1.4239
 1008MOL0     H33031   9.391  -0.564   7.115  1.5722 -1.4092  1.3321
 1008MOL0     H33032   9.291  -0.523   6.901  0.7770  1.1973  4.5052
 1008MOL0     H33033   9.304  -0.694   6.847 -0.4731  0.3882 -0.4779
 1008MOL0     H33034   9.536  -0.511   6.937 -1.8557 -0.1789  1.2446
 1008MOL0     H33035   9.547  -0.664   6.830  2.5767  0.6591  1.2288
 1008MOL0     H33036   9.437  -0.400   6.758 -2.2875 -2.1610  0.4147
 1008MOL0     H33037   9.430  -0.541   6.657 -0.4027 -2.3168  1.5569
 1008MOL0     H33038   8.866  -0.702   7.687 -0.8171 -2.1484  1.3339
 1008MOL0     H33039   8.626  -0.649   7.685  0.7662  1.6878 -1.4318
 1008MOL0     H33040   8.250  -0.747   7.406  2.8681  2.7367  2.4843
 1008MOL0     H33041   8.015  -0.738   7.362  2.1593 -2.0752  0.5374
 1008MOL0     H33042   6.240  -0.273   7.427 -6.2209  0.8586 -0.5214
 1008MOL0     H33043   6.070  -0.134   7.307 -0.7120  0.0651 -2.9358
 1008MOL0     H33044   5.714   0.148   7.199  2.1434 -1.6600  0.4178
 1008MOL0     H33045   5.586   0.272   7.053  0.0815 -1.2027 -1.3077
 1008MOL0     H33046   5.580   0.526   7.010 -0.6344  2.2055 -0.2784
 1008MOL0     H33047   5.522   0.570   6.860 -0.6425 -2.0052  0.5363
 1008MOL0     H33048   5.820   0.621   6.955 -0.3059  2.5846 -0.2393
 1008MOL0     H33049   5.750   0.662   6.802  0.1247 -0.8887 -0.2266
 1008MOL0     H33050   5.666   0.749   7.076 -0.1987  2.1151  0.6114
 1008MOL0     H33051   5.571   0.773   6.934 -0.9810  0.3638  1.5731
 1008MOL0     H33052   5.695   0.984   6.970  1.5722  0.2919  1.4568
 1008MOL0     H33053   5.843   0.894   6.991 -0.6494  1.8741  0.9555
 1008MOL0     H33054   5.902   0.944   6.593  1.2245 -0.3570  0.0538
 1008MOL0     H33055   5.926   0.387   6.834 -0.6826  2.9172  1.1139
 1008MOL0     H33056   6.063   0.227   6.957  1.1134 -0.4958  3.5729
 1009MOL0     O33057   4.524   2.166   2.131 -0.3498  0.4116  0.4496
 1009MOL0     C33058   4.481   2.277   2.105 -1.0040  0.2714  0.1323
 1009MOL0     O33059   4.389   2.313   2.012 -0.1903 -0.0453  0.2864
 1009MOL0     C33060   4.344   2.222   1.919  0.7296 -0.1687  0.2512
 1009MOL0     C33061   4.326   2.087   1.946  1.1302 -0.0769  0.6143
 1009MOL0     C33062   4.322   1.997   1.837  1.1400  0.1805  0.5944
 1009MOL0     C33063   4.341   2.040   1.704  0.1023  0.5436  1.2134
 1009MOL0     O33064   4.326   1.955   1.593 -0.4218  0.3878  0.2037
 1009MOL0     C33065   4.252   1.831   1.597 -0.3801  0.6050 -1.0311
 1009MOL0     C33066   4.328   1.713   1.649  1.2909  0.1095  0.3766
 1009MOL0     C33067   4.245   1.585   1.648 -0.0140 -1.0810  0.8061
 1009MOL0     C33068   4.177   1.555   1.784  0.6740 -0.1542 -0.5644
 1009MOL0     C33069   4.070   1.452   1.763  0.0742 -0.1674 -0.0810
 1009MOL0     C33070   4.027   1.384   1.897 -0.5524  0.0669 -0.2034
 1009MOL0     C33071   3.932   1.269   1.874 -0.8965  0.2978 -0.3894
 1009MOL0     C33072   4.004   1.138   1.831  0.5495  0.1747 -0.3468
 1009MOL0     N33073   4.082   1.079   1.943  1.0675  0.1051  0.1420
 1009MOL0     C33074   4.035   1.017   2.053  0.2881 -0.8558 -0.3303
 1009MOL0     C33075   4.145   0.997   2.130 -0.0315 -0.7612 -0.6978
 1009MOL0     C33076   4.134   0.943   2.267  0.2573 -0.2686  0.4185
 1009MOL0     C33077   4.170   1.053   2.366  0.1644 -0.5146  0.4891
 1009MOL0     C33078   4.072   1.075   2.481  0.1334  0.0882  0.4049
 1009MOL0     C33079   4.075   0.962   2.591 -0.3737  0.2032  0.7348
 1009MOL0     O33080   4.105   1.032   2.710  0.1164 -0.1165  0.2290
 1009MOL0     C33081   4.000   1.069   2.795 -0.1709 -0.1339  0.4468
 1009MOL0     C33082   3.864   1.074   2.752 -0.5929 -0.7467 -0.8561
 1009MOL0     C33083   3.763   1.120   2.841 -0.0362  0.3853 -0.2719
 1009MOL0     C33084   3.786   1.164   2.977  0.0247  0.0118  0.0930
 1009MOL0     C33085   3.674   1.223   3.050  0.0386 -0.3471  0.0248
 1009MOL0     O33086   3.700   1.230   3.182  0.3327  0.8600 -0.6987
 1009MOL0     C33087   3.599   1.263   3.266  0.5892 -0.5883 -0.4685
 1009MOL0     C33088   3.601   1.370   3.355  0.5142  0.9973  0.4409
 1009MOL0     C33089   3.491   1.399   3.437 -0.0275  0.1811 -0.4230
 1009MOL0     C33090   3.383   1.312   3.440 -0.2160 -0.1905 -1.0417
 1009MOL0     O33091   3.287   1.327   3.537  0.0492  0.1108 -0.3869
 1009MOL0     C33092   3.162   1.388   3.481  0.5568 -0.4582 -0.7929
 1009MOL0     C33093   3.041   1.340   3.553  0.0529  0.0244  0.4933
 1009MOL0     C33094   3.011   1.190   3.540  0.1143  0.1658 -1.4785
 1009MOL0     C33095   2.963   1.140   3.402 -0.4311 -1.6868  0.1372
 1009MOL0     C33096   2.929   0.994   3.402 -0.6209 -0.7702  0.0318
 1009MOL0     C33097   2.785   0.976   3.465 -0.2932 -1.0293  0.2669
 1009MOL0     C33098   2.755   0.825   3.479  0.4215  0.2281 -0.0873
 1009MOL0     C33099   2.640   0.795   3.575  0.8760  0.3033 -1.0874
 1009MOL0    Cl33100   2.498   0.892   3.525 -0.4253 -0.2020  0.1616
 1009MOL0     C33101   3.368   1.204   3.355 -1.1288 -1.1251 -1.2152
 1009MOL0     C33102   3.480   1.184   3.271  0.5588 -1.2177 -0.7378
 1009MOL0     O33103   3.564   1.231   2.996  0.7821  0.5444  0.3166
 1009MOL0     C33104   3.928   1.153   3.009 -0.0718 -0.3845  0.9346
 1009MOL0     C33105   4.028   1.108   2.923 -0.6501  0.1190 -0.1041
 1009MOL0     N33106   4.262   1.039   2.063  0.3924 -0.2544  0.9262
 1009MOL0     N33107   4.213   1.096   1.949  0.2936 -0.3145 -0.7411
 1009MOL0     C33108   4.370   2.175   1.673 -0.4930 -0.8332 -0.0386
 1009MOL0     C33109   4.370   2.263   1.784  0.2095 -0.9519 -0.3147
 1009MOL0     C33110   4.537   2.393   2.180  0.2663 -0.6275 -0.2871
 1009MOL0     C33111   4.513   2.523   2.152  0.2312 -0.7119  0.5714
 1009MOL0     C33112   4.574   2.627   2.213  0.2415  0.3250 -1.4751
 1009MOL0     C33113   4.669   2.606   2.314 -0.1581  1.1335 -0.2662
 1009MOL0     O33114   4.727   2.715   2.378  0.2004  0.1374  0.3325
 1009MOL0     C33115   4.845   2.697   2.458 -0.3310 -0.1957 -0.5986
 1009MOL0     C33116   4.885   2.825   2.526 -0.3767  0.6315 -0.0705
 1009MOL0     C33117   4.955   2.918   2.424  0.6935 -0.4253  0.0692
 1009MOL0     C33118   5.099   2.876   2.401 -0.2733  0.1617 -0.3349
 1009MOL0     C33119   5.173   2.985   2.329  0.0424  0.1332 -0.3330
 1009MOL0     C33120   5.243   3.062   2.274 -0.3394  0.8613  0.5492
 1009MOL0     C33121   4.692   2.473   2.347 -0.4924  0.0069  0.3774
 1009MOL0     C33122   4.625   2.370   2.290  0.7228 -0.0439  0.6751
 1009MOL0     H33123   4.326   2.040   2.044 -0.6201 -3.8002 -0.9657
 1009MOL0     H33124   4.285   1.897   1.857 -1.0800  0.8566  0.0987
 1009MOL0     H33125   4.220   1.806   1.496  2.3183  1.3662 -2.1521
 1009MOL0     H33126   4.171   1.849   1.669  0.8146  2.6056 -0.0954
 1009MOL0     H33127   4.360   1.725   1.753 -1.9605 -3.4195  2.0339
 1009MOL0     H33128   4.413   1.694   1.583  1.7263  1.8442  0.3868
 1009MOL0     H33129   4.302   1.498   1.615  0.0589 -1.0804  0.9316
 1009MOL0     H33130   4.157   1.580   1.582 -0.0256  1.1429  0.5995
 1009MOL0     H33131   4.254   1.525   1.855 -1.3507  0.6717  2.1405
 1009MOL0     H33132   4.143   1.647   1.833 -1.3087 -1.3553  0.4332
 1009MOL0     H33133   4.102   1.366   1.704  0.0376 -2.0305  2.4421
 1009MOL0     H33134   3.982   1.501   1.719  0.7837 -1.1294 -2.7273
 1009MOL0     H33135   3.968   1.455   1.955  0.3674  1.2373 -0.6582
 1009MOL0     H33136   4.118   1.354   1.949 -1.7783 -1.6906  1.0375
 1009MOL0     H33137   3.870   1.258   1.964 -3.0519  1.5238 -1.6204
 1009MOL0     H33138   3.853   1.295   1.803 -2.0942 -0.0975  0.7502
 1009MOL0     H33139   4.064   1.157   1.742 -0.2529  0.1754 -0.9007
 1009MOL0     H33140   3.927   1.068   1.797 -0.9855  0.6501  1.9011
 1009MOL0     H33141   3.929   1.019   2.078  0.1521  0.3113 -0.9031
 1009MOL0     H33142   4.206   0.860   2.272  1.8587  1.0085 -0.5400
 1009MOL0     H33143   4.030   0.916   2.286  0.3587  0.3206  2.0028
 1009MOL0     H33144   4.176   1.148   2.313  1.1898 -1.0860 -0.4630
 1009MOL0     H33145   4.276   1.052   2.394  0.3044  4.0206  0.8756
 1009MOL0     H33146   4.098   1.169   2.531 -3.4601  0.8113  1.2259
 1009MOL0     H33147   3.971   1.088   2.440  0.3974 -0.1720 -0.3450
 1009MOL0     H33148   4.158   0.897   2.562 -1.2450 -0.7145  0.2446
 1009MOL0     H33149   3.982   0.904   2.590  0.1727 -0.6910 -0.5699
 1009MOL0     H33150   3.853   1.042   2.649  1.7680  0.4821 -1.5689
 1009MOL0     H33151   3.659   1.116   2.810  0.5326  2.8614 -3.0782
 1009MOL0     H33152   3.687   1.437   3.358  0.0576  1.5972  3.1430
 1009MOL0     H33153   3.493   1.473   3.516  0.4547  0.3904 -0.6282
 1009MOL0     H33154   3.152   1.361   3.375  0.9906 -1.6674 -0.5487
 1009MOL0     H33155   3.161   1.497   3.482 -0.7552 -0.4441  1.3352
 1009MOL0     H33156   2.960   1.396   3.505 -0.1867 -2.5273 -2.3493
 1009MOL0     H33157   3.044   1.365   3.660 -6.9459  0.4034  1.0631
 1009MOL0     H33158   2.939   1.167   3.620 -1.0426  0.9804 -2.2588
 1009MOL0     H33159   3.099   1.134   3.573 -1.6749 -1.9221  0.0937
 1009MOL0     H33160   2.891   1.213   3.363 -0.4013 -1.5405  0.3513
 1009MOL0     H33161   3.050   1.154   3.337  0.4248  0.4010  1.6167
 1009MOL0     H33162   3.016   0.949   3.451 -0.2032 -2.6608 -2.2592
 1009MOL0     H33163   2.920   0.957   3.299 -0.6262 -1.7055  0.3603
 1009MOL0     H33164   2.719   1.031   3.398  3.7625  2.6793 -1.1855
 1009MOL0     H33165   2.780   1.022   3.563 -1.0001 -0.8335  0.1396
 1009MOL0     H33166   2.741   0.782   3.379 -1.6292  1.6996 -0.5186
 1009MOL0     H33167   2.843   0.777   3.522 -0.3140  0.5824  1.9163
 1009MOL0     H33168   2.654   0.830   3.678 -1.1661 -1.5121 -0.1236
 1009MOL0     H33169   2.601   0.693   3.576 -3.0119  1.6393  0.1426
 1009MOL0     H33170   3.283   1.135   3.357 -1.1506 -1.0784  0.4579
 1009MOL0     H33171   3.474   1.102   3.200 -0.1435 -1.1213 -0.7900
 1009MOL0     H33172   3.960   1.185   3.107  1.0752 -0.6352  0.6586
 1009MOL0     H33173   4.130   1.103   2.961 -0.6377 -0.2802 -0.1878
 1009MOL0     H33174   4.380   2.209   1.571 -2.0381  3.9500  1.1396
 1009MOL0     H33175   4.391   2.370   1.783 -0.2233 -0.8485  0.4089
 1009MOL0     H33176   4.433   2.543   2.081  1.4663  1.5787 -0.2810
 1009MOL0     H33177   4.546   2.728   2.187  1.1770  0.8161 -0.6529
 1009MOL0     H33178   4.925   2.650   2.399  2.4543  0.9831  1.9655
 1009MOL0     H33179   4.808   2.632   2.538 -1.0358  1.0615  0.1253
 1009MOL0     H33180   4.793   2.877   2.552 -2.5248 -0.6855 -4.1147
 1009MOL0     H33181   4.950   2.802   2.611 -2.1069 -1.7454  0.6904
 1009MOL0     H33182   4.945   3.013   2.476 -4.1469 -1.3343  1.2855
 1009MOL0     H33183   4.903   2.909   2.328 -0.2711  0.8008  0.4639
 1009MOL0     H33184   5.150   2.871   2.498  0.1990 -2.0040 -0.6379
 1009MOL0     H33185   5.098   2.774   2.362  1.7472 -0.0506  0.0148
 1009MOL0     H33186   5.277   3.141   2.210 -3.2775  1.1145 -0.8788
 1009MOL0     H33187   4.777   2.458   2.412  1.6132 -0.9344 -2.4109
 1009MOL0     H33188   4.649   2.270   2.327 -0.2795  0.2333  2.1818
 1010MOL0     O33189   2.923   0.762   4.750  0.2019 -0.6555 -0.6125
 1010MOL0     C33190   2.856   0.712   4.659  0.3271  0.2960 -0.7051
 1010MOL0     O33191   2.752   0.629   4.670  0.2395  0.6984 -0.1540
 1010MOL0     C33192   2.704   0.610   4.802 -0.1129  0.6318 -0.2379
 1010MOL0     C33193   2.567   0.647   4.829 -0.8764 -0.2677  0.1115
 1010MOL0     C33194   2.509   0.632   4.946  0.0056  1.2420  0.5525
 1010MOL0     C33195   2.580   0.571   5.055 -0.2750  0.3255 -0.8393
 1010MOL0     O33196   2.533   0.529   5.178 -0.9864 -0.2814 -0.0448
 1010MOL0     C33197   2.404   0.565   5.213  0.7059  0.7260 -0.0608
 1010MOL0     C33198   2.320   0.452   5.154 -0.6661  0.5550  0.1842
 1010MOL0     C33199   2.340   0.306   5.214  0.6121  0.7479  0.2489
 1010MOL0     C33200   2.298   0.213   5.108  0.2881 -0.1589  0.2608
 1010MOL0     C33201   2.314   0.068   5.154  0.0110 -0.2486  0.1647
 1010MOL0     C33202   2.266  -0.036   5.053 -0.2902  0.2664  0.0104
 1010MOL0     C33203   2.248  -0.185   5.120  0.3874  0.0292  0.3233
 1010MOL0     C33204   2.181  -0.286   5.028  0.0454  0.2894  0.9976
 1010MOL0     N33205   2.033  -0.274   5.029  0.6882  0.0440 -0.4245
 1010MOL0     C33206   1.948  -0.289   5.134  0.9604 -0.0101  0.4081
 1010MOL0     C33207   1.828  -0.251   5.086  0.2440  0.1841  0.1358
 1010MOL0     C33208   1.697  -0.252   5.168 -0.2022  0.2616 -0.8994
 1010MOL0     C33209   1.619  -0.383   5.145 -0.3071  0.0993 -0.2846
 1010MOL0     C33210   1.576  -0.397   5.001 -0.0423 -0.2203  0.0878
 1010MOL0     C33211   1.591  -0.530   4.949  0.7678  0.4643 -0.3705
 1010MOL0     O33212   1.487  -0.613   5.007 -0.7198 -1.0387  0.1740
 1010MOL0     C33213   1.508  -0.749   4.983 -0.8688 -1.6201  0.4034
 1010MOL0     C33214   1.586  -0.797   4.881  0.1152  0.6398 -0.4271
 1010MOL0     C33215   1.612  -0.937   4.875 -0.3924  0.5739  0.6502
 1010MOL0     C33216   1.558  -1.023   4.967 -0.8518 -0.4008 -0.2049
 1010MOL0     C33217   1.596  -1.163   4.950 -0.8349 -0.2760  0.4862
 1010MOL0     O33218   1.686  -1.197   4.860  0.2208  0.1549 -0.0401
 1010MOL0     C33219   1.738  -1.319   4.865 -0.6612  0.4017  0.5196
 1010MOL0     C33220   1.657  -1.433   4.816 -0.1460 -1.2406  0.1484
 1010MOL0     C33221   1.719  -1.557   4.809  0.3978  1.2385  0.1415
 1010MOL0     C33222   1.852  -1.573   4.848  0.3357  1.0181  0.5416
 1010MOL0     O33223   1.901  -1.700   4.823  0.5912  0.5617 -0.8212
 1010MOL0     C33224   1.945  -1.779   4.941  0.2769 -0.6712  0.0478
 1010MOL0     C33225   1.832  -1.823   5.027  0.4821 -0.6444  1.2952
 1010MOL0     C33226   1.880  -1.865   5.162 -0.2520 -1.6839  0.2889
 1010MOL0     C33227   1.784  -1.972   5.219  0.5525  0.3134  0.5070
 1010MOL0     C33228   1.844  -2.012   5.360 -0.3436 -0.2180  0.1962
 1010MOL0     C33229   1.824  -1.920   5.480 -0.2715 -0.7783  0.3482
 1010MOL0     C33230   1.857  -1.977   5.616  0.0057  0.0144 -0.0973
 1010MOL0     C33231   1.777  -2.106   5.647 -0.3250 -0.6313 -0.5743
 1010MOL0    Cl33232   1.609  -2.082   5.614 -0.2171  0.1803  0.2409
 1010MOL0     C33233   1.928  -1.464   4.898 -0.1591 -0.0129  0.1864
 1010MOL0     C33234   1.874  -1.336   4.900  0.0704 -0.0517 -0.0428
 1010MOL0     O33235   1.531  -1.238   5.019  0.2206  0.7538  0.8326
 1010MOL0     C33236   1.469  -0.971   5.068 -0.2882 -0.2621 -0.3547
 1010MOL0     C33237   1.451  -0.837   5.073  0.1797 -0.3661  0.9368
 1010MOL0     N33238   1.834  -0.204   4.963  0.1023 -0.1012 -0.6193
 1010MOL0     N33239   1.962  -0.212   4.929 -0.1647  0.1728 -0.1414
 1010MOL0     C33240   2.713   0.546   5.038  0.1110 -0.2806  0.3302
 1010MOL0     C33241   2.779   0.574   4.914  0.5217 -0.0573 -0.2107
 1010MOL0     C33242   2.906   0.725   4.524  0.2868 -0.1358 -0.0865
 1010MOL0     C33243   2.997   0.825   4.485 -1.2773  0.7853  0.4376
 1010MOL0     C33244   3.037   0.837   4.355 -0.9776  0.0946  0.4664
 1010MOL0     C33245   2.992   0.751   4.255  0.5734 -0.5660  0.3948
 1010MOL0     O33246   3.033   0.748   4.127  0.0989 -0.5868  0.3201
 1010MOL0     C33247   3.169   0.802   4.111 -0.4156  0.8525 -0.1790
 1010MOL0     C33248   3.210   0.761   3.969 -0.0205  0.5587  0.0048
 1010MOL0     C33249   3.185   0.614   3.917 -0.7370  0.1858  0.2373
 1010MOL0     C33250   3.191   0.495   4.014 -0.2313 -0.2568 -0.4941
 1010MOL0     C33251   3.317   0.478   4.082  0.5500  0.5965  0.1988
 1010MOL0     C33252   3.425   0.480   4.140 -0.3611  0.7076 -0.1249
 1010MOL0     C33253   2.899   0.657   4.288  0.1218 -0.4607  0.5658
 1010MOL0     C33254   2.853   0.641   4.419 -0.9300  1.1902 -0.7151
 1010MOL0     H33255   2.506   0.685   4.748 -1.5460 -0.6083  0.4479
 1010MOL0     H33256   2.401   0.629   4.953 -0.2870 -2.7056 -2.3154
 1010MOL0     H33257   2.360   0.656   5.170 -2.7251 -0.4961  0.5495
 1010MOL0     H33258   2.389   0.573   5.321 -2.8409 -0.6050 -0.3160
 1010MOL0     H33259   2.340   0.453   5.047 -0.6034 -0.6186  0.1735
 1010MOL0     H33260   2.212   0.469   5.165 -0.6363  1.7445 -1.1099
 1010MOL0     H33261   2.271   0.303   5.299 -1.6334 -1.8576 -1.5133
 1010MOL0     H33262   2.445   0.289   5.241  1.0325 -0.2564 -1.8046
 1010MOL0     H33263   2.196   0.241   5.083  0.2391  0.8953  1.5623
 1010MOL0     H33264   2.349   0.215   5.011  1.7727 -1.2991  0.9800
 1010MOL0     H33265   2.253   0.052   5.243  1.0122 -2.3469  0.5458
 1010MOL0     H33266   2.412   0.037   5.192 -0.7753  1.6415  4.2905
 1010MOL0     H33267   2.348  -0.049   4.981  1.4675 -0.6411  2.0697
 1010MOL0     H33268   2.175   0.003   5.007 -1.4739  2.1031  3.5535
 1010MOL0     H33269   2.349  -0.225   5.128 -0.7139 -2.8751  0.9268
 1010MOL0     H33270   2.192  -0.183   5.214  1.9056  0.8185  1.2597
 1010MOL0     H33271   2.208  -0.388   5.056  0.3981  0.1365  0.1336
 1010MOL0     H33272   2.215  -0.261   4.927  0.0260  2.5348  1.4786
 1010MOL0     H33273   1.971  -0.319   5.235 -0.6217 -2.9342  0.0270
 1010MOL0     H33274   1.635  -0.165   5.145  1.8209  1.9925 -0.2190
 1010MOL0     H33275   1.718  -0.241   5.274 -3.6018  3.8933 -0.3533
 1010MOL0     H33276   1.533  -0.389   5.212 -2.2802  3.5454 -2.2168
 1010MOL0     H33277   1.689  -0.463   5.168  1.2029  1.6076  0.5870
 1010MOL0     H33278   1.468  -0.378   5.012  0.3054  1.2364  1.4258
 1010MOL0     H33279   1.612  -0.324   4.928 -1.0959 -1.9393 -2.2841
 1010MOL0     H33280   1.691  -0.574   4.953 -0.6158 -3.3252 -2.1096
 1010MOL0     H33281   1.581  -0.525   4.840 -0.7473 -0.1085 -0.2717
 1010MOL0     H33282   1.618  -0.739   4.796 -0.0775 -0.2815 -1.1493
 1010MOL0     H33283   1.671  -0.974   4.792  1.8193  2.4593  1.2479
 1010MOL0     H33284   1.550  -1.420   4.799 -0.1841 -0.3290  1.0420
 1010MOL0     H33285   1.679  -1.650   4.771  2.2789 -0.6622  2.4743
 1010MOL0     H33286   2.005  -1.713   5.003 -1.0200  0.2314  0.3979
 1010MOL0     H33287   1.994  -1.871   4.909 -0.4267 -0.7947 -0.7305
 1010MOL0     H33288   1.785  -1.906   4.975  3.3254 -1.1390 -0.7538
 1010MOL0     H33289   1.746  -1.757   5.042  1.0262 -0.5541  4.9496
 1010MOL0     H33290   1.871  -1.777   5.226  0.8950 -1.8179  0.6688
 1010MOL0     H33291   1.987  -1.886   5.154  0.6524  1.7694  1.5239
 1010MOL0     H33292   1.685  -1.926   5.225  1.2270  1.8576  0.2377
 1010MOL0     H33293   1.779  -2.063   5.158  1.1690 -0.2280  1.2352
 1010MOL0     H33294   1.952  -2.023   5.348 -0.7311 -1.6164 -2.7223
 1010MOL0     H33295   1.794  -2.107   5.379 -3.3586  1.1701 -0.1411
 1010MOL0     H33296   1.722  -1.880   5.470 -0.2995 -0.9478 -0.0971
 1010MOL0     H33297   1.901  -1.842   5.478  2.5842 -3.3603  1.6911
 1010MOL0     H33298   1.964  -1.992   5.603  0.2216  2.7777 -2.3304
 1010MOL0     H33299   1.856  -1.895   5.688  6.8798  2.0910 -1.6575
 1010MOL0     H33300   1.801  -2.134   5.750 -2.3129 -2.9566 -0.6403
 1010MOL0     H33301   1.810  -2.194   5.590 -1.9842 -0.9725 -1.0941
 1010MOL0     H33302   2.034  -1.473   4.920 -0.2685 -1.5781  0.1379
 1010MOL0     H33303   1.928  -1.249   4.935  0.8101  0.2442 -1.8131
 1010MOL0     H33304   1.426  -1.031   5.147 -0.1219 -2.3301 -1.7537
 1010MOL0     H33305   1.369  -0.812   5.140  0.9035  1.4133  1.2143
 1010MOL0     H33306   2.757   0.500   5.126  1.2260 -3.8924 -1.8968
 1010MOL0     H33307   2.886   0.559   4.904  1.1570 -0.7501  4.9829
 1010MOL0     H33308   3.042   0.893   4.558 -1.2926 -0.5959  1.7876
 1010MOL0     H33309   3.103   0.921   4.335  1.9184 -2.5956 -2.6109
 1010MOL0     H33310   3.242   0.760   4.181 -2.9840 -3.1832  0.3857
 1010MOL0     H33311   3.178   0.911   4.104  0.8896  0.7174 -1.0186
 1010MOL0     H33312   3.158   0.837   3.909  2.4177  4.0255  1.9223
 1010MOL0     H33313   3.314   0.776   3.937 -0.7388  0.0539 -2.8404
 1010MOL0     H33314   3.246   0.598   3.828 -0.2154  2.8284  0.0417
 1010MOL0     H33315   3.086   0.615   3.871  0.3897 -2.9023 -2.6851
 1010MOL0     H33316   3.115   0.509   4.091  1.9684 -1.5410  2.0766
 1010MOL0     H33317   3.171   0.413   3.945 -2.0618 -0.1368 -0.1448
 1010MOL0     H33318   3.518   0.476   4.193  1.7406  1.4848 -3.4266
 1010MOL0     H33319   2.864   0.589   4.211 -0.7862 -0.2387  0.7772
 1010MOL0     H33320   2.782   0.560   4.433 -0.4946  0.8941 -0.1567
 1011MOL0     O33321   3.849   8.968   0.064 -0.4174 -0.2036  0.7548
 1011MOL0     C33322   3.825   9.043  -0.032 -0.3478 -0.2500  0.2420
 1011MOL0     O33323   3.773   9.167  -0.018  0.1579  0.6674  0.3605
 1011MOL0     C33324   3.736   9.211   0.104  0.6739 -0.4871 -0.6290
 1011MOL0     C33325   3.835   9.236   0.207 -0.3540 -0.1163 -0.1422
 1011MOL0     C33326   3.797   9.286   0.333  0.0786  0.0495 -0.6591
 1011MOL0     C33327   3.658   9.294   0.368 -0.4083 -0.6575  0.1491
 1011MOL0     O33328   3.614   9.337   0.492  0.7827 -0.2361 -0.5170
 1011MOL0     C33329   3.718   9.358   0.598  0.8254  0.3876 -0.1877
 1011MOL0     C33330   3.648   9.369   0.732  0.2315  0.4905 -0.8495
 1011MOL0     C33331   3.718   9.301   0.846 -0.8158 -0.3461 -0.0300
 1011MOL0     C33332   3.649   9.198   0.918 -0.1629 -0.0156 -0.6173
 1011MOL0     C33333   3.714   9.157   1.049  0.3116 -0.5906  0.0258
 1011MOL0     C33334   3.628   9.073   1.144  0.9443 -0.5354  1.0066
 1011MOL0     C33335   3.705   9.021   1.264 -0.7566 -0.7169  0.5077
 1011MOL0     C33336   3.594   8.967   1.362  0.4029  0.4819  0.3623
 1011MOL0     N33337   3.657   8.913   1.475 -0.7001  0.5251  0.3614
 1011MOL0     C33338   3.693   8.977   1.590 -0.3565 -0.3585  0.4873
 1011MOL0     C33339   3.742   8.884   1.676 -0.2179 -1.0427 -0.6654
 1011MOL0     C33340   3.803   8.911   1.807 -0.5175  0.3828 -0.0645
 1011MOL0     C33341   3.731   9.015   1.894 -0.3872 -0.1715  0.7803
 1011MOL0     C33342   3.824   9.120   1.962  2.2526  1.1337 -0.3756
 1011MOL0     C33343   3.931   9.066   2.054  0.4186  0.6142 -0.0594
 1011MOL0     O33344   4.023   9.162   2.104  0.3206  0.1988 -0.3923
 1011MOL0     C33345   4.093   9.137   2.223  0.2817  0.2011 -0.4685
 1011MOL0     C33346   4.177   9.240   2.280 -0.8701  0.3087  0.4460
 1011MOL0     C33347   4.245   9.223   2.401 -0.3276 -0.4445  0.6503
 1011MOL0     C33348   4.239   9.110   2.480  0.9407 -0.3182 -0.3327
 1011MOL0     C33349   4.308   9.099   2.615  0.1729 -0.1556  0.2131
 1011MOL0     O33350   4.355   9.212   2.679  0.0053  0.0631 -0.3604
 1011MOL0     C33351   4.385   9.212   2.814  0.3980 -0.8308  0.4065
 1011MOL0     C33352   4.362   9.117   2.906 -0.4570  0.9375 -0.3749
 1011MOL0     C33353   4.377   9.138   3.043 -0.7168  0.0014  0.5420
 1011MOL0     C33354   4.436   9.259   3.080 -0.0257 -0.2140 -0.2675
 1011MOL0     O33355   4.481   9.253   3.213 -0.3517 -0.4997  0.2743
 1011MOL0     C33356   4.586   9.340   3.256 -0.5864  0.4635 -0.1882
 1011MOL0     C33357   4.532   9.478   3.309  0.1852  0.2388  0.0196
 1011MOL0     C33358   4.465   9.451   3.441  0.5009  0.8334  0.0750
 1011MOL0     C33359   4.422   9.579   3.492 -0.7179  0.4319 -0.6747
 1011MOL0     C33360   4.352   9.572   3.628 -0.3111  0.2847 -1.1162
 1011MOL0     C33361   4.305   9.717   3.673 -0.4069 -0.5271 -0.5817
 1011MOL0     C33362   4.185   9.708   3.758  0.3273 -0.1408 -0.2156
 1011MOL0     C33363   4.184   9.789   3.887 -0.7405 -0.2156 -0.4499
 1011MOL0    Cl33364   4.039   9.752   3.978 -0.0417 -0.0749 -0.3498
 1011MOL0     C33365   4.465   9.357   2.990 -0.1583 -0.3795 -0.2843
 1011MOL0     C33366   4.438   9.336   2.853 -0.1813  0.4105  0.5266
 1011MOL0     O33367   4.303   8.984   2.659  0.1876  0.0089  0.6485
 1011MOL0     C33368   4.158   9.013   2.423 -0.4991 -0.2431  0.1708
 1011MOL0     C33369   4.093   9.015   2.295 -0.2738 -1.0086 -1.0984
 1011MOL0     N33370   3.719   8.764   1.626 -0.2715 -0.2224 -0.0289
 1011MOL0     N33371   3.675   8.780   1.499  1.0968 -0.6646  0.0331
 1011MOL0     C33372   3.559   9.271   0.264  0.0503 -1.0034 -1.3298
 1011MOL0     C33373   3.591   9.230   0.133  0.7424  0.2827  0.6109
 1011MOL0     C33374   3.881   9.010  -0.171  0.6882  0.1510  0.0522
 1011MOL0     C33375   3.961   8.898  -0.182  0.4673  0.3414  0.0291
 1011MOL0     C33376   4.013   8.855  -0.306 -0.2139 -0.0084 -0.2487
 1011MOL0     C33377   3.983   8.930  -0.420 -0.5211 -0.5970 -0.4369
 1011MOL0     O33378   4.039   8.876  -0.538 -0.1018  1.1456  0.4259
 1011MOL0     C33379   4.086   8.980  -0.622  0.7183  0.2970  0.1280
 1011MOL0     C33380   4.185   8.925  -0.714  0.0966 -0.2967  0.8517
 1011MOL0     C33381   4.292   8.831  -0.654 -0.1274  0.1436  0.2667
 1011MOL0     C33382   4.395   8.792  -0.752  0.1994  0.3705  1.0017
 1011MOL0     C33383   4.485   8.896  -0.785  1.2374 -0.4742 -0.0514
 1011MOL0     C33384   4.552   8.996  -0.792  0.0201  0.8695 -1.2203
 1011MOL0     C33385   3.908   9.047  -0.406  0.8468  0.3212  0.4592
 1011MOL0     C33386   3.853   9.089  -0.283  0.9148  0.3178 -0.3587
 1011MOL0     H33387   3.937   9.203   0.187 -0.7623 -3.0945  2.0709
 1011MOL0     H33388   3.874   9.291   0.410  1.2833 -0.3156 -1.8010
 1011MOL0     H33389   3.780   9.445   0.572  1.1962 -0.2031 -1.3756
 1011MOL0     H33390   3.783   9.271   0.603 -0.0064 -0.3034 -1.0103
 1011MOL0     H33391   3.545   9.333   0.730 -0.3150  1.6849  1.4391
 1011MOL0     H33392   3.631   9.475   0.754 -0.5874  0.4921 -1.4660
 1011MOL0     H33393   3.744   9.385   0.910 -0.0476  1.8146 -2.9511
 1011MOL0     H33394   3.816   9.255   0.829 -0.5018 -1.6962  4.2653
 1011MOL0     H33395   3.541   9.210   0.929 -0.6154 -2.4624 -1.5281
 1011MOL0     H33396   3.650   9.108   0.856  1.6248 -1.2070  1.0212
 1011MOL0     H33397   3.751   9.248   1.098  1.0626 -1.1329  0.4884
 1011MOL0     H33398   3.804   9.097   1.032 -0.4672 -1.7444 -0.1094
 1011MOL0     H33399   3.585   8.992   1.085  0.7206 -0.3664  0.9339
 1011MOL0     H33400   3.543   9.135   1.176 -0.1906 -1.2160 -0.5562
 1011MOL0     H33401   3.773   8.938   1.241 -0.3900 -1.2288  3.1541
 1011MOL0     H33402   3.760   9.095   1.322  2.2319 -3.0579  0.8746
 1011MOL0     H33403   3.540   8.883   1.317  2.2511 -0.1142 -0.8640
 1011MOL0     H33404   3.529   9.053   1.379  1.1645  2.2809 -4.2275
 1011MOL0     H33405   3.689   9.085   1.596  1.1773 -0.3232  1.5931
 1011MOL0     H33406   3.899   8.958   1.784 -1.9665  3.3915 -0.5792
 1011MOL0     H33407   3.825   8.820   1.863  0.2884  1.0409  0.7096
 1011MOL0     H33408   3.671   8.953   1.961  0.4083 -1.9278 -0.0820
 1011MOL0     H33409   3.676   9.079   1.824  1.1853 -0.2711 -0.6004
 1011MOL0     H33410   3.882   9.172   1.884 -0.3949  0.8123 -2.7257
 1011MOL0     H33411   3.759   9.187   2.019  0.4874 -0.9102  0.1285
 1011MOL0     H33412   3.969   8.976   2.006 -2.3852 -0.8165  0.2087
 1011MOL0     H33413   3.889   9.028   2.147  2.3391  1.5893  1.2951
 1011MOL0     H33414   4.178   9.337   2.231  3.1616 -0.8793 -2.3212
 1011MOL0     H33415   4.302   9.307   2.439 -0.2498 -1.0277  1.8904
 1011MOL0     H33416   4.322   9.019   2.883  0.1110  0.5508  0.2277
 1011MOL0     H33417   4.357   9.052   3.107  0.3390  0.3869  1.3997
 1011MOL0     H33418   4.662   9.353   3.179 -1.2807  3.1956 -0.5241
 1011MOL0     H33419   4.646   9.285   3.330  0.3526  0.6292 -0.8135
 1011MOL0     H33420   4.453   9.505   3.238 -0.7756 -0.1340  0.9067
 1011MOL0     H33421   4.615   9.549   3.312 -0.3608  0.8789  0.4789
 1011MOL0     H33422   4.532   9.403   3.514  1.1121  0.8046 -0.4948
 1011MOL0     H33423   4.381   9.382   3.432 -0.7036  2.3645 -1.0207
 1011MOL0     H33424   4.510   9.644   3.485 -0.0763 -0.6491 -4.9727
 1011MOL0     H33425   4.346   9.622   3.427 -2.4471  1.2802  1.7412
 1011MOL0     H33426   4.415   9.526   3.704 -0.1818 -0.2020 -1.5113
 1011MOL0     H33427   4.268   9.502   3.617  1.1918 -1.8607  0.2887
 1011MOL0     H33428   4.273   9.780   3.589  2.2548  2.1417  0.2361
 1011MOL0     H33429   4.396   9.758   3.719 -1.5467 -1.8513  3.2393
 1011MOL0     H33430   4.103   9.756   3.704 -0.2455  1.6403  2.0684
 1011MOL0     H33431   4.163   9.603   3.779 -0.0456 -0.8488 -3.5897
 1011MOL0     H33432   4.170   9.894   3.859  2.6467  1.0568  2.0036
 1011MOL0     H33433   4.278   9.776   3.941 -0.3196 -2.2751 -1.5572
 1011MOL0     H33434   4.507   9.450   3.028 -0.0535 -0.9915  1.1634
 1011MOL0     H33435   4.450   9.415   2.780 -3.5257 -0.8516 -1.6301
 1011MOL0     H33436   4.145   8.916   2.470 -0.4884 -1.3357 -1.9485
 1011MOL0     H33437   4.043   8.921   2.276 -0.9693 -0.6141 -1.2614
 1011MOL0     H33438   3.454   9.287   0.287  0.3415 -2.5096  1.4645
 1011MOL0     H33439   3.515   9.215   0.057 -1.4096  0.8207  2.5413
 1011MOL0     H33440   3.966   8.827  -0.101 -3.0226 -3.3230 -2.5690
 1011MOL0     H33441   4.063   8.759  -0.318  2.6637  1.5498 -1.4673
 1011MOL0     H33442   4.143   9.047  -0.557  3.7533 -2.2952  0.4238
 1011MOL0     H33443   4.006   9.036  -0.670  1.1049  2.4211  1.7903
 1011MOL0     H33444   4.128   8.862  -0.783 -0.1879  1.4264 -0.5799
 1011MOL0     H33445   4.224   9.013  -0.766  0.6384 -1.2203 -0.3400
 1011MOL0     H33446   4.248   8.737  -0.619  1.8061 -0.2753  1.7362
 1011MOL0     H33447   4.337   8.898  -0.582 -1.1198  0.9274  0.1901
 1011MOL0     H33448   4.459   8.718  -0.703 -0.1517  0.5240  1.7028
 1011MOL0     H33449   4.353   8.754  -0.846  1.7964  0.9247  0.0159
 1011MOL0     H33450   4.607   9.084  -0.816  0.7480  0.2027 -2.0641
 1011MOL0     H33451   3.873   9.093  -0.498  1.0398 -2.1224 -0.9026
 1011MOL0     H33452   3.782   9.171  -0.270  0.0324 -0.5239  0.3446
 1012MOL0     O33453   2.860   2.756   0.935  0.6900  0.3015  0.7279
 1012MOL0     C33454   2.871   2.864   0.884  0.2563 -0.3952  0.8966
 1012MOL0     O33455   2.778   2.972   0.895 -0.4390  0.3620 -0.4713
 1012MOL0     C33456   2.663   2.957   0.959  0.0453  0.7527 -0.3818
 1012MOL0     C33457   2.618   3.071   1.032  0.1480 -0.5248 -0.1303
 1012MOL0     C33458   2.504   3.063   1.113 -1.1808 -0.4868 -0.1602
 1012MOL0     C33459   2.421   2.942   1.110 -0.8027 -0.0051  0.1983
 1012MOL0     O33460   2.303   2.950   1.181 -0.3462  0.2325 -0.7796
 1012MOL0     C33461   2.264   2.824   1.236  0.3519  0.8847 -0.3875
 1012MOL0     C33462   2.111   2.828   1.252  0.1367  0.1283 -0.0483
 1012MOL0     C33463   2.065   2.694   1.306 -0.2827  0.1782  0.6645
 1012MOL0     C33464   1.919   2.706   1.348  0.1638  0.8077  0.4356
 1012MOL0     C33465   1.868   2.568   1.409  0.0472 -0.2011  0.8908
 1012MOL0     C33466   1.721   2.557   1.425 -0.0996 -0.1327 -0.6039
 1012MOL0     C33467   1.678   2.647   1.555  0.6843 -0.0872  0.7956
 1012MOL0     C33468   1.688   2.566   1.679  0.1562  1.7566  0.3456
 1012MOL0     N33469   1.598   2.446   1.674  0.3924 -0.7723 -0.0938
 1012MOL0     C33470   1.467   2.437   1.635  0.7556  0.5376 -0.0702
 1012MOL0     C33471   1.414   2.331   1.708  1.1799  0.1706 -0.1476
 1012MOL0     C33472   1.272   2.270   1.702 -0.7994 -0.3468 -0.7450
 1012MOL0     C33473   1.172   2.340   1.789  0.1661 -0.3449  0.7540
 1012MOL0     C33474   1.103   2.460   1.722 -0.5346 -0.0577 -0.2098
 1012MOL0     C33475   1.049   2.548   1.835 -0.4905 -0.4643  0.0591
 1012MOL0     O33476   0.979   2.664   1.775  0.2044 -0.2143  0.0996
 1012MOL0     C33477   0.843   2.686   1.803 -0.7799  0.0107 -0.4178
 1012MOL0     C33478   0.802   2.801   1.742 -0.5957 -0.2176 -0.0937
 1012MOL0     C33479   0.670   2.845   1.770  0.8230  0.0729 -0.8535
 1012MOL0     C33480   0.584   2.765   1.846  0.4398  0.4867 -0.5561
 1012MOL0     C33481   0.449   2.823   1.885 -0.0554 -0.0316 -0.6129
 1012MOL0     O33482   0.419   2.939   1.830 -0.0646  1.1064  1.2316
 1012MOL0     C33483   0.319   3.017   1.886 -0.0151 -0.3660  1.2192
 1012MOL0     C33484   0.328   3.049   2.020  0.7457  0.6558 -0.2226
 1012MOL0     C33485   0.248   3.144   2.078 -0.0168  1.2023 -0.6944
 1012MOL0     C33486   0.149   3.205   1.990  0.8701 -0.0966 -1.1890
 1012MOL0     O33487   0.054   3.297   2.042  0.3768 -0.1090 -0.0902
 1012MOL0     C33488   0.052   3.324   2.179  0.3153 -0.3621 -0.5133
 1012MOL0     C33489  -0.051   3.416   2.228  0.2760 -0.3318  0.7106
 1012MOL0     C33490  -0.050   3.538   2.148  0.7642 -0.4513 -0.0989
 1012MOL0     C33491  -0.111   3.661   2.223 -0.6620  0.6095  0.0242
 1012MOL0     C33492  -0.263   3.660   2.236  0.0422  0.0713 -0.9841
 1012MOL0     C33493  -0.314   3.763   2.341 -0.0841  0.0456  0.5474
 1012MOL0     C33494  -0.277   3.910   2.301  0.5383 -0.1956 -0.2391
 1012MOL0     C33495  -0.363   3.951   2.184  0.6618 -0.8104 -0.7545
 1012MOL0    Cl33496  -0.285   4.112   2.135  0.1045 -0.4012 -0.0004
 1012MOL0     C33497   0.129   3.167   1.860 -0.5436  0.4196 -0.1950
 1012MOL0     C33498   0.217   3.076   1.805 -0.3875 -0.3552 -0.1790
 1012MOL0     O33499   0.371   2.755   1.944 -0.2988  0.2145  0.0165
 1012MOL0     C33500   0.629   2.646   1.901  0.0822 -0.0493 -0.4533
 1012MOL0     C33501   0.758   2.613   1.886 -0.5336 -0.4535 -0.7813
 1012MOL0     N33502   1.513   2.270   1.784  0.2208  0.1917  0.4867
 1012MOL0     N33503   1.620   2.344   1.764  0.1316  0.4639  0.6836
 1012MOL0     C33504   2.464   2.838   1.030 -0.4394  0.3551  1.7087
 1012MOL0     C33505   2.584   2.843   0.954 -0.5658  0.5921 -1.3888
 1012MOL0     C33506   2.992   2.886   0.799 -0.1341  0.3211 -0.1858
 1012MOL0     C33507   3.018   3.005   0.732 -0.4379  0.9187 -0.7023
 1012MOL0     C33508   3.129   3.032   0.653  0.2015  0.6747 -0.4470
 1012MOL0     C33509   3.230   2.933   0.641  0.4861 -0.5910  0.0450
 1012MOL0     O33510   3.325   2.961   0.554  0.3249 -0.6325 -0.1630
 1012MOL0     C33511   3.451   2.899   0.556  0.7156 -0.0832 -0.4659
 1012MOL0     C33512   3.544   2.955   0.444 -0.2656  0.5654 -0.8522
 1012MOL0     C33513   3.495   2.939   0.302  0.9450  0.0707 -0.2230
 1012MOL0     C33514   3.434   2.804   0.277 -0.2103 -0.0820 -0.0282
 1012MOL0     C33515   3.548   2.708   0.286 -0.0603  0.0810 -1.1703
 1012MOL0     C33516   3.643   2.633   0.285 -0.8107  0.3891 -0.5648
 1012MOL0     C33517   3.211   2.815   0.715  0.0963 -0.9978  0.4362
 1012MOL0     C33518   3.095   2.798   0.792  0.0114  0.3975  0.4441
 1012MOL0     H33519   2.690   3.151   1.046  1.1312 -1.2273 -0.9153
 1012MOL0     H33520   2.512   3.153   1.173  1.5954 -1.4153  1.0368
 1012MOL0     H33521   2.310   2.801   1.333 -1.0677 -1.7798 -0.2405
 1012MOL0     H33522   2.293   2.732   1.184  1.8778  0.6889  0.7580
 1012MOL0     H33523   2.056   2.856   1.162 -1.5784 -3.3078 -0.2312
 1012MOL0     H33524   2.080   2.910   1.318 -0.9169 -0.1021 -0.2423
 1012MOL0     H33525   2.135   2.679   1.389 -0.6581  1.0830  1.1545
 1012MOL0     H33526   2.062   2.617   1.228 -2.8394  3.1219 -2.4301
 1012MOL0     H33527   1.910   2.786   1.421 -0.4208  3.3980 -2.2764
 1012MOL0     H33528   1.862   2.735   1.260  1.7757 -2.4787 -1.9389
 1012MOL0     H33529   1.920   2.548   1.503 -1.4684 -0.1749  1.7692
 1012MOL0     H33530   1.896   2.491   1.337 -0.3185  0.3975  0.0904
 1012MOL0     H33531   1.698   2.450   1.430 -0.9162  0.0870  1.1758
 1012MOL0     H33532   1.668   2.604   1.341 -2.4256 -2.4117 -0.5486
 1012MOL0     H33533   1.737   2.739   1.554 -0.3868  0.6356  1.2648
 1012MOL0     H33534   1.572   2.671   1.537  1.3434  2.7737  0.2381
 1012MOL0     H33535   1.657   2.629   1.763 -0.8681  2.2551 -0.3950
 1012MOL0     H33536   1.793   2.544   1.702 -0.1919  0.5650  0.9056
 1012MOL0     H33537   1.408   2.509   1.579 -1.2694  1.2745  2.8181
 1012MOL0     H33538   1.280   2.167   1.740  1.1855  0.0810  0.0969
 1012MOL0     H33539   1.226   2.271   1.603  0.0880 -2.1662 -1.2208
 1012MOL0     H33540   1.227   2.371   1.878 -0.2381  2.5379  0.1033
 1012MOL0     H33541   1.093   2.267   1.810 -2.0563  1.0925 -1.9404
 1012MOL0     H33542   1.168   2.521   1.659  1.4044  0.0462  1.7528
 1012MOL0     H33543   1.017   2.426   1.664  0.1382  1.1888 -2.0445
 1012MOL0     H33544   1.136   2.577   1.896  1.0775 -2.5113 -1.0612
 1012MOL0     H33545   0.992   2.480   1.899  0.8537 -1.4677  0.2497
 1012MOL0     H33546   0.854   2.868   1.675 -1.7027 -0.9359 -1.7162
 1012MOL0     H33547   0.662   2.943   1.723  0.9882 -0.5845 -2.3175
 1012MOL0     H33548   0.396   3.010   2.096  0.2065 -0.0244 -0.0765
 1012MOL0     H33549   0.273   3.187   2.174 -2.2837  2.6517 -0.6719
 1012MOL0     H33550   0.146   3.363   2.220 -1.2437  0.8473  2.1598
 1012MOL0     H33551   0.032   3.230   2.230  1.0258 -0.0064  0.4553
 1012MOL0     H33552  -0.032   3.435   2.334  1.3864  1.4729  0.2364
 1012MOL0     H33553  -0.153   3.375   2.234 -0.2058  0.4735 -1.1105
 1012MOL0     H33554  -0.113   3.527   2.060 -1.1355  1.9871  0.8460
 1012MOL0     H33555   0.052   3.562   2.118 -0.2793  1.0571 -2.7765
 1012MOL0     H33556  -0.051   3.660   2.315  0.6744  2.6516 -0.7401
 1012MOL0     H33557  -0.077   3.754   2.176 -1.7572  0.9847 -0.0471
 1012MOL0     H33558  -0.286   3.563   2.280 -0.5402  1.1990  1.3738
 1012MOL0     H33559  -0.320   3.678   2.145 -0.8128 -1.2140 -0.7360
 1012MOL0     H33560  -0.269   3.732   2.436  1.8021 -0.8844 -0.5856
 1012MOL0     H33561  -0.420   3.745   2.361 -0.1275  0.5619  0.8083
 1012MOL0     H33562  -0.298   3.970   2.390  0.2630  1.6608 -1.4896
 1012MOL0     H33563  -0.170   3.930   2.286  0.6573 -1.2247 -0.8975
 1012MOL0     H33564  -0.471   3.955   2.199  0.5825 -1.6899 -1.0227
 1012MOL0     H33565  -0.357   3.887   2.095 -1.2917 -0.6782 -1.0231
 1012MOL0     H33566   0.051   3.223   1.810  0.7413  1.9969 -0.5247
 1012MOL0     H33567   0.208   3.068   1.697 -0.5496  1.8332 -0.3780
 1012MOL0     H33568   0.568   2.589   1.971  1.7056 -0.1649  0.9489
 1012MOL0     H33569   0.789   2.519   1.931 -1.0331  0.3604  1.3722
 1012MOL0     H33570   2.395   2.754   1.025 -1.5435  1.2865  1.0615
 1012MOL0     H33571   2.616   2.747   0.914 -1.4070 -0.4472  0.3440
 1012MOL0     H33572   2.946   3.087   0.727  0.3680  1.5449 -3.3725
 1012MOL0     H33573   3.144   3.131   0.611 -0.5172  1.9434  2.0619
 1012MOL0     H33574   3.434   2.792   0.540  0.4917  0.3176 -3.2886
 1012MOL0     H33575   3.503   2.916   0.651  0.5954 -0.1619 -0.3855
 1012MOL0     H33576   3.565   3.059   0.472  2.1039 -0.0576 -0.0901
 1012MOL0     H33577   3.626   2.883   0.451  0.0980  1.1304  1.8375
 1012MOL0     H33578   3.580   2.958   0.236  0.2269 -0.0388 -1.1873
 1012MOL0     H33579   3.426   3.023   0.287 -0.0793  0.0768  3.4875
 1012MOL0     H33580   3.345   2.772   0.333 -1.3235  3.1873  0.3007
 1012MOL0     H33581   3.405   2.822   0.173 -1.9079  2.8998  0.8195
 1012MOL0     H33582   3.727   2.570   0.266 -0.9583  0.0260 -0.0320
 1012MOL0     H33583   3.279   2.733   0.694 -0.0408 -0.8221 -0.7886
 1012MOL0     H33584   3.078   2.697   0.828  1.5550 -1.5028 -3.6178
 1013MOL0     O33585   1.742   2.777   4.719  0.7110 -0.1380  0.1605
 1013MOL0     C33586   1.783   2.716   4.617  1.1840 -0.3704 -0.0947
 1013MOL0     O33587   1.713   2.675   4.502 -0.3073 -0.4652 -0.2873
 1013MOL0     C33588   1.583   2.709   4.478  0.6395 -0.7251 -0.3330
 1013MOL0     C33589   1.546   2.740   4.348 -0.2044 -0.8141 -0.6116
 1013MOL0     C33590   1.414   2.773   4.312 -0.1978  0.2332  0.2426
 1013MOL0     C33591   1.312   2.771   4.409 -0.1260 -0.1462  0.1430
 1013MOL0     O33592   1.186   2.803   4.362  0.0193 -0.4123  0.2128
 1013MOL0     C33593   1.084   2.850   4.451  0.6257  0.1143 -0.3167
 1013MOL0     C33594   0.960   2.898   4.371  0.3934  0.5092 -0.7997
 1013MOL0     C33595   0.831   2.886   4.450 -0.5279  0.7031 -0.1198
 1013MOL0     C33596   0.828   2.986   4.558  0.7125 -0.2423 -0.0786
 1013MOL0     C33597   0.705   3.072   4.548 -0.2998 -0.1021 -0.6967
 1013MOL0     C33598   0.687   3.139   4.688  0.3830 -0.7349 -0.3628
 1013MOL0     C33599   0.588   3.258   4.681 -0.0068 -0.6836  0.0854
 1013MOL0     C33600   0.592   3.348   4.550  1.3006  0.0661  0.1969
 1013MOL0     N33601   0.583   3.493   4.576 -0.2146  0.3600  0.7403
 1013MOL0     C33602   0.691   3.581   4.597  0.1790  0.6730 -0.3800
 1013MOL0     C33603   0.641   3.710   4.596 -0.4103 -0.0044 -0.8389
 1013MOL0     C33604   0.720   3.834   4.599  0.0249  0.5668  0.3832
 1013MOL0     C33605   0.829   3.860   4.715 -1.1776  0.5789  0.0407
 1013MOL0     C33606   0.874   3.996   4.699  0.3555  0.4383 -1.6024
 1013MOL0     C33607   0.968   4.022   4.806 -0.4794  0.8079 -0.5272
 1013MOL0     O33608   1.033   4.149   4.780  0.0863 -0.1351  0.5138
 1013MOL0     C33609   1.171   4.153   4.798  0.5028 -0.2496 -0.7555
 1013MOL0     C33610   1.230   4.239   4.893  0.2682  0.2156  0.9259
 1013MOL0     C33611   1.369   4.230   4.902  0.2076  0.3903 -0.2765
 1013MOL0     C33612   1.458   4.147   4.832  0.2953  0.7559 -0.0495
 1013MOL0     C33613   1.608   4.151   4.858 -0.1068 -0.7390 -0.1046
 1013MOL0     O33614   1.687   4.063   4.785  0.2297 -0.0167 -0.0839
 1013MOL0     C33615   1.816   4.053   4.825 -1.0714 -0.3956 -0.3017
 1013MOL0     C33616   1.858   3.964   4.930 -0.0454  0.0602 -0.1039
 1013MOL0     C33617   1.997   3.956   4.961  0.2301 -0.2585 -0.4254
 1013MOL0     C33618   2.080   4.044   4.891 -0.5485 -0.7929  0.3283
 1013MOL0     O33619   2.209   4.042   4.941  0.0287  0.4463  0.5090
 1013MOL0     C33620   2.313   4.109   4.864 -0.8732 -0.3776 -0.3187
 1013MOL0     C33621   2.454   4.059   4.901  0.0491 -0.2821 -0.3325
 1013MOL0     C33622   2.557   4.073   4.799 -0.8716  0.3280  1.0355
 1013MOL0     C33623   2.699   4.020   4.844 -0.0782 -0.2581  0.2054
 1013MOL0     C33624   2.759   4.089   4.970  0.2799  0.1156 -0.0875
 1013MOL0     C33625   2.914   4.069   4.983 -0.4745 -0.4743 -0.1662
 1013MOL0     C33626   2.984   4.170   5.073 -0.1807 -0.0970  0.0483
 1013MOL0     C33627   3.137   4.189   5.060  0.1413  0.3762  0.8567
 1013MOL0    Cl33628   3.184   4.343   5.143  0.0907  0.2745 -0.0168
 1013MOL0     C33629   2.041   4.130   4.777  0.9583 -0.4733 -0.4009
 1013MOL0     C33630   1.905   4.134   4.744 -0.7578  1.0369 -0.1695
 1013MOL0     O33631   1.655   4.212   4.954 -0.3369  0.2923 -0.1056
 1013MOL0     C33632   1.394   4.060   4.737 -0.4747  0.0725  0.2169
 1013MOL0     C33633   1.254   4.057   4.727  0.1032 -0.9318  0.4186
 1013MOL0     N33634   0.504   3.691   4.594 -0.8107  0.2031  0.0265
 1013MOL0     N33635   0.470   3.566   4.575  0.0148 -0.0429 -0.4878
 1013MOL0     C33636   1.346   2.730   4.535 -0.0872 -0.5987 -0.9376
 1013MOL0     C33637   1.479   2.709   4.573  0.1747  0.5563  0.0509
 1013MOL0     C33638   1.928   2.708   4.603 -0.0047  1.1160  0.2558
 1013MOL0     C33639   1.988   2.625   4.509  0.0659 -0.1010  0.1847
 1013MOL0     C33640   2.125   2.626   4.483  0.4818 -0.2814 -0.2321
 1013MOL0     C33641   2.216   2.692   4.572 -0.7189  0.4665 -0.5241
 1013MOL0     O33642   2.354   2.693   4.557  0.1234  1.0610 -0.8122
 1013MOL0     C33643   2.443   2.762   4.647 -0.1112 -0.0235  0.0735
 1013MOL0     C33644   2.571   2.784   4.574 -0.0734  0.0765 -0.4746
 1013MOL0     C33645   2.649   2.653   4.547  0.7065  0.1872  0.4847
 1013MOL0     C33646   2.738   2.594   4.656 -0.3106  0.6646 -0.9265
 1013MOL0     C33647   2.844   2.510   4.597  0.0026  0.8403 -0.0483
 1013MOL0     C33648   2.927   2.435   4.553 -0.4187 -0.3544 -0.4223
 1013MOL0     C33649   2.155   2.760   4.674  0.4409 -0.3744 -0.8738
 1013MOL0     C33650   2.019   2.781   4.683 -1.3221 -0.1179  0.2237
 1013MOL0     H33651   1.624   2.760   4.276 -2.0104  4.1460 -1.5847
 1013MOL0     H33652   1.394   2.816   4.215 -2.2576 -0.3121  0.3976
 1013MOL0     H33653   1.131   2.931   4.507  1.2036 -0.4449  0.0213
 1013MOL0     H33654   1.048   2.773   4.520 -3.3925 -1.3138 -3.5828
 1013MOL0     H33655   0.949   2.842   4.278 -2.3658 -2.0408  0.8954
 1013MOL0     H33656   0.973   3.003   4.343 -1.5922  1.1994  0.6187
 1013MOL0     H33657   0.817   2.787   4.495 -0.5719  0.9013  0.3120
 1013MOL0     H33658   0.747   2.913   4.386 -1.0618  0.9103  0.6470
 1013MOL0     H33659   0.813   2.935   4.654 -2.2914  3.0295  1.4259
 1013MOL0     H33660   0.916   3.050   4.560  1.2988 -1.0168 -0.6363
 1013MOL0     H33661   0.611   3.015   4.539 -0.5504  0.4425 -1.6610
 1013MOL0     H33662   0.711   3.133   4.457  1.4767  1.4774  0.4162
 1013MOL0     H33663   0.782   3.172   4.731  0.8214 -1.0219 -1.0879
 1013MOL0     H33664   0.641   3.072   4.761  2.5085  1.5358  3.4134
 1013MOL0     H33665   0.484   3.227   4.698 -1.5684  4.0034  0.5365
 1013MOL0     H33666   0.619   3.321   4.765 -0.8426  0.7711 -0.6574
 1013MOL0     H33667   0.517   3.315   4.478  1.1131 -1.8319  1.2007
 1013MOL0     H33668   0.692   3.338   4.508  0.9768  1.5785 -1.0431
 1013MOL0     H33669   0.797   3.558   4.603 -0.0501 -0.1772  0.8270
 1013MOL0     H33670   0.645   3.910   4.574 -0.1868 -0.3904 -2.2099
 1013MOL0     H33671   0.786   3.830   4.512 -0.5899  2.5173 -0.2287
 1013MOL0     H33672   0.912   3.797   4.680 -0.1428  0.5810  2.3233
 1013MOL0     H33673   0.797   3.827   4.814 -1.8340 -1.5289 -0.8239
 1013MOL0     H33674   0.928   4.005   4.605  2.7330  0.0406 -0.3494
 1013MOL0     H33675   0.788   4.063   4.703 -1.3230 -1.6488  0.2512
 1013MOL0     H33676   1.035   3.936   4.812  0.7670  1.7455 -0.5449
 1013MOL0     H33677   0.913   4.028   4.900 -0.9081  0.6169 -0.7648
 1013MOL0     H33678   1.168   4.312   4.944 -2.6611 -2.4274  1.4329
 1013MOL0     H33679   1.414   4.295   4.976  0.0127  0.1328  0.0722
 1013MOL0     H33680   1.786   3.894   4.971 -2.2318  2.8507  1.1938
 1013MOL0     H33681   2.043   3.883   5.026 -1.3755  0.3953  1.5743
 1013MOL0     H33682   2.306   4.215   4.890  0.1937 -0.5067  0.5551
 1013MOL0     H33683   2.309   4.083   4.758  1.5453  0.4649 -0.6874
 1013MOL0     H33684   2.457   3.959   4.944  3.0365  1.3895  4.0864
 1013MOL0     H33685   2.490   4.107   4.993  2.2621 -2.3226 -0.0420
 1013MOL0     H33686   2.580   4.177   4.775 -0.2320  0.0958  0.6355
 1013MOL0     H33687   2.532   4.025   4.704  2.8505  1.0489 -0.4708
 1013MOL0     H33688   2.691   3.912   4.854 -0.4230 -0.4257 -1.5062
 1013MOL0     H33689   2.765   4.020   4.757  1.0926  3.0482  0.9229
 1013MOL0     H33690   2.706   4.053   5.058  0.0237  0.7679  0.0270
 1013MOL0     H33691   2.746   4.197   4.964  1.4564  0.2835  0.0662
 1013MOL0     H33692   2.964   4.063   4.886  1.3406 -0.9919  0.7464
 1013MOL0     H33693   2.929   3.971   5.030 -2.2853 -0.5542  0.3244
 1013MOL0     H33694   2.942   4.270   5.059 -0.6295  0.6322  4.9989
 1013MOL0     H33695   2.968   4.138   5.176 -0.8953  1.2252  0.3670
 1013MOL0     H33696   3.166   4.208   4.957  0.4901 -1.1272  0.6506
 1013MOL0     H33697   3.187   4.093   5.075 -4.7239 -3.0762 -2.1960
 1013MOL0     H33698   2.114   4.180   4.716  1.0203 -1.1403 -0.8831
 1013MOL0     H33699   1.869   4.198   4.664 -1.7454  0.3700 -0.2710
 1013MOL0     H33700   1.461   3.992   4.685 -0.2315 -0.0802  0.7216
 1013MOL0     H33701   1.212   3.976   4.668 -2.3075  2.2382 -2.6517
 1013MOL0     H33702   1.273   2.729   4.616  2.0185  2.6286  1.2147
 1013MOL0     H33703   1.504   2.683   4.676  3.3172  0.7044 -0.5766
 1013MOL0     H33704   1.923   2.563   4.449 -1.1490  1.3480 -0.0622
 1013MOL0     H33705   2.159   2.559   4.404 -1.9768  1.3408 -2.8956
 1013MOL0     H33706   2.462   2.706   4.739  2.1701  0.6773  0.0833
 1013MOL0     H33707   2.394   2.853   4.681 -0.3676 -0.6189  1.3546
 1013MOL0     H33708   2.545   2.834   4.481 -3.0653 -0.9321 -0.3063
 1013MOL0     H33709   2.635   2.850   4.633  0.9868 -0.2153 -1.2677
 1013MOL0     H33710   2.715   2.671   4.461  0.0889  0.0731 -0.0232
 1013MOL0     H33711   2.581   2.580   4.502  0.9761  1.2164 -1.7435
 1013MOL0     H33712   2.791   2.671   4.714 -1.4221  0.7769 -0.0132
 1013MOL0     H33713   2.679   2.540   4.731  0.4496 -0.5894 -1.2124
 1013MOL0     H33714   3.000   2.371   4.507  0.7399  1.5960 -1.4585
 1013MOL0     H33715   2.211   2.784   4.764  1.4388 -3.7550 -0.4345
 1013MOL0     H33716   1.984   2.834   4.771  2.3733  1.3322  1.0166
 1014MOL0     O33717   6.557   2.962   3.805 -0.4449  0.0958 -0.2427
 1014MOL0     C33718   6.670   3.001   3.765  0.7795 -0.7006  0.2717
 1014MOL0     O33719   6.730   2.976   3.643 -0.2563 -0.3649  1.6011
 1014MOL0     C33720   6.648   2.928   3.541 -0.3113 -0.2546  0.7027
 1014MOL0     C33721   6.537   3.006   3.490 -0.7190  0.2866 -0.2548
 1014MOL0     C33722   6.464   2.958   3.386  0.1815  1.3719  0.2086
 1014MOL0     C33723   6.486   2.823   3.339  0.6683 -0.6162 -0.7618
 1014MOL0     O33724   6.410   2.768   3.247 -0.1023 -0.1214 -0.8568
 1014MOL0     C33725   6.277   2.826   3.218 -0.2465  0.1008  0.2652
 1014MOL0     C33726   6.172   2.721   3.156  0.1777 -0.6835  0.7587
 1014MOL0     C33727   6.211   2.664   3.025 -0.8712 -0.0748 -0.2029
 1014MOL0     C33728   6.086   2.593   2.970  0.1791  0.2169 -0.2304
 1014MOL0     C33729   6.120   2.457   2.894 -0.6165  0.7174  0.0955
 1014MOL0     C33730   5.993   2.370   2.884 -0.6233 -0.4647  0.0229
 1014MOL0     C33731   6.024   2.245   2.809  0.9242 -0.1980  0.4299
 1014MOL0     C33732   5.903   2.158   2.773 -0.2975  0.1947  0.3664
 1014MOL0     N33733   5.907   2.019   2.727 -0.0654  0.7829  0.9865
 1014MOL0     C33734   5.966   1.961   2.616 -0.1175  0.4811 -0.9827
 1014MOL0     C33735   5.979   1.830   2.641 -0.2586 -0.0080 -0.5444
 1014MOL0     C33736   6.066   1.729   2.567  0.0541 -0.2445 -0.2525
 1014MOL0     C33737   6.056   1.579   2.604 -0.3680 -0.0807 -0.1110
 1014MOL0     C33738   6.172   1.480   2.548 -0.2732  0.3747 -0.0859
 1014MOL0     C33739   6.135   1.336   2.582 -0.3124 -0.0931 -0.3402
 1014MOL0     O33740   6.036   1.290   2.493  0.4581  0.7209  0.3710
 1014MOL0     C33741   6.034   1.154   2.487  0.4828 -0.5225  0.1093
 1014MOL0     C33742   6.018   1.061   2.593  0.1408 -0.8113  0.3661
 1014MOL0     C33743   6.042   0.927   2.565 -0.0197  0.7163 -1.0430
 1014MOL0     C33744   6.048   0.870   2.440  0.3405  1.0712  0.8851
 1014MOL0     C33745   6.076   0.721   2.419 -0.7856 -0.5253 -0.9029
 1014MOL0     O33746   6.110   0.677   2.291  0.1939  0.1524 -0.0881
 1014MOL0     C33747   6.116   0.540   2.259  0.2293 -1.2262  0.3158
 1014MOL0     C33748   6.178   0.443   2.339 -0.7148 -0.0861  0.2513
 1014MOL0     C33749   6.171   0.305   2.310 -0.3847  0.1440 -0.3591
 1014MOL0     C33750   6.102   0.262   2.195  0.9751  0.0545  0.0190
 1014MOL0     O33751   6.087   0.133   2.156 -0.5236 -0.3316  0.8771
 1014MOL0     C33752   6.197   0.047   2.189 -0.9180 -0.0806 -0.5384
 1014MOL0     C33753   6.153  -0.097   2.163 -0.1813 -0.0077 -0.7780
 1014MOL0     C33754   6.093  -0.132   2.030  1.0773  0.6466 -0.4300
 1014MOL0     C33755   6.201  -0.162   1.928  0.2167 -0.4852  0.6813
 1014MOL0     C33756   6.129  -0.187   1.787  0.6178 -0.8057 -0.6197
 1014MOL0     C33757   6.230  -0.286   1.710  0.8425  0.6981 -0.6677
 1014MOL0     C33758   6.373  -0.221   1.672 -0.4368  0.2178  0.5391
 1014MOL0     C33759   6.462  -0.329   1.598  0.0726  0.5903 -0.8624
 1014MOL0    Cl33760   6.607  -0.239   1.550 -0.1052  0.3827 -0.1618
 1014MOL0     C33761   6.034   0.361   2.120  0.3222 -0.1997  0.2132
 1014MOL0     C33762   6.048   0.496   2.150  0.4702 -0.2133 -0.7991
 1014MOL0     O33763   6.075   0.652   2.521 -0.1834 -0.5969 -0.3158
 1014MOL0     C33764   6.057   0.964   2.334  0.2855 -0.4176  0.0623
 1014MOL0     C33765   6.056   1.104   2.357 -0.5195 -0.3612 -0.0710
 1014MOL0     N33766   5.927   1.807   2.766 -0.6172  0.0323  0.7920
 1014MOL0     N33767   5.890   1.916   2.815 -0.2826 -0.0567  0.1461
 1014MOL0     C33768   6.589   2.754   3.394  0.1934  0.4691  1.5391
 1014MOL0     C33769   6.677   2.801   3.490  1.1834 -0.0974 -0.2859
 1014MOL0     C33770   6.744   3.096   3.854  0.2934 -0.1416  0.2503
 1014MOL0     C33771   6.691   3.137   3.974 -0.1040 -0.1563 -0.0799
 1014MOL0     C33772   6.759   3.219   4.058 -0.9668  0.3718  0.0631
 1014MOL0     C33773   6.893   3.245   4.035  0.9197 -0.2476  0.2805
 1014MOL0     O33774   6.980   3.309   4.123 -0.1147 -0.4898 -0.7772
 1014MOL0     C33775   6.939   3.385   4.244  0.4783  0.6677  0.1428
 1014MOL0     C33776   6.900   3.290   4.360  0.4920 -0.5420 -0.3620
 1014MOL0     C33777   6.869   3.382   4.487  0.0143 -1.1873  0.2336
 1014MOL0     C33778   6.863   3.305   4.625 -0.5115  1.0455 -0.0752
 1014MOL0     C33779   7.003   3.269   4.657  0.8922 -0.0685  0.2426
 1014MOL0     C33780   7.113   3.233   4.688 -1.2373  0.5967 -0.1890
 1014MOL0     C33781   6.954   3.200   3.912 -0.5049  0.0880 -0.3396
 1014MOL0     C33782   6.883   3.119   3.827  0.5960 -0.2088 -0.7370
 1014MOL0     H33783   6.523   3.112   3.508  1.0567  0.5530 -0.2408
 1014MOL0     H33784   6.394   3.021   3.332  0.4159  0.8193 -0.7516
 1014MOL0     H33785   6.299   2.901   3.142  1.2501 -1.6496 -1.1388
 1014MOL0     H33786   6.224   2.866   3.305 -3.5242 -1.4324 -0.8842
 1014MOL0     H33787   6.090   2.788   3.126  1.3110 -0.7687 -3.1162
 1014MOL0     H33788   6.137   2.643   3.224 -2.3987 -0.3691 -0.0910
 1014MOL0     H33789   6.297   2.598   3.035 -0.8346  0.2957  3.1980
 1014MOL0     H33790   6.249   2.742   2.958  3.8057 -1.9787 -0.1685
 1014MOL0     H33791   6.013   2.569   3.048  0.3603  1.6474  0.4025
 1014MOL0     H33792   6.027   2.651   2.899  0.8979 -0.8470 -1.7472
 1014MOL0     H33793   6.184   2.396   2.959  0.6964  1.9561  0.0000
 1014MOL0     H33794   6.155   2.480   2.793  1.5743 -0.1087  0.6050
 1014MOL0     H33795   5.931   2.431   2.818  2.8827  0.8825 -2.3626
 1014MOL0     H33796   5.946   2.341   2.978  1.7625 -1.3520  1.0260
 1014MOL0     H33797   6.094   2.263   2.727  0.4708 -1.2685 -0.2124
 1014MOL0     H33798   6.087   2.183   2.875  0.8548  0.3365  1.0114
 1014MOL0     H33799   5.840   2.207   2.698  0.4568 -0.7001 -0.9052
 1014MOL0     H33800   5.834   2.155   2.858 -0.4534  3.0624  0.4518
 1014MOL0     H33801   5.991   2.004   2.519 -1.0415  1.9968 -0.5912
 1014MOL0     H33802   6.169   1.756   2.592  0.3133 -2.1417  0.8787
 1014MOL0     H33803   6.047   1.750   2.461  1.2823  0.6879 -0.3179
 1014MOL0     H33804   5.957   1.546   2.572 -2.5208  2.7889  2.9472
 1014MOL0     H33805   6.056   1.572   2.713  2.6695 -0.4005 -0.0559
 1014MOL0     H33806   6.196   1.497   2.443  1.3200  0.3737  0.2568
 1014MOL0     H33807   6.267   1.496   2.598 -1.0883  1.8774  1.0544
 1014MOL0     H33808   6.098   1.334   2.685 -0.9804  2.1105 -0.4980
 1014MOL0     H33809   6.223   1.270   2.579  1.8905  2.6814 -1.3314
 1014MOL0     H33810   6.008   1.110   2.689  1.1106  2.6726 -1.1623
 1014MOL0     H33811   6.048   0.873   2.659 -2.3841 -1.1838 -1.8999
 1014MOL0     H33812   6.238   0.485   2.419  1.6015  1.6544 -2.2332
 1014MOL0     H33813   6.233   0.241   2.373  1.2112 -1.2651 -3.1843
 1014MOL0     H33814   6.231   0.054   2.292 -2.2986  0.0668 -0.0729
 1014MOL0     H33815   6.274   0.077   2.118 -0.9593 -1.6410 -1.3016
 1014MOL0     H33816   6.077  -0.104   2.241  0.7357 -0.5259  0.0880
 1014MOL0     H33817   6.231  -0.170   2.186 -3.8431 -4.7737 -1.8646
 1014MOL0     H33818   6.031  -0.047   2.001 -2.8581 -1.8022  0.0376
 1014MOL0     H33819   6.023  -0.216   2.033  2.9164 -1.2214 -3.6693
 1014MOL0     H33820   6.257  -0.069   1.937 -1.9228  1.2797 -2.2914
 1014MOL0     H33821   6.253  -0.257   1.943 -1.3917 -1.9697 -2.1139
 1014MOL0     H33822   6.116  -0.091   1.737  2.1484 -1.0994 -1.6407
 1014MOL0     H33823   6.027  -0.225   1.802 -0.0412  1.2489  0.4919
 1014MOL0     H33824   6.188  -0.324   1.616  0.9070 -0.5663 -0.1982
 1014MOL0     H33825   6.249  -0.378   1.765  1.2613 -0.4288 -2.5976
 1014MOL0     H33826   6.360  -0.134   1.608 -1.5143 -0.7407 -0.6136
 1014MOL0     H33827   6.432  -0.184   1.756 -3.8903  1.7667  2.4998
 1014MOL0     H33828   6.411  -0.371   1.511 -0.0112 -1.7275  0.2474
 1014MOL0     H33829   6.479  -0.397   1.682 -1.1171  0.0903 -1.0150
 1014MOL0     H33830   5.983   0.329   2.030  0.8236 -1.2660  0.2972
 1014MOL0     H33831   6.003   0.577   2.093  0.9080  1.2211  0.7937
 1014MOL0     H33832   6.052   0.941   2.228 -2.4473 -0.5143  0.1539
 1014MOL0     H33833   6.068   1.179   2.279  2.1221  0.7925  1.2934
 1014MOL0     H33834   6.601   2.655   3.351 -1.3053  0.3841  1.2712
 1014MOL0     H33835   6.770   2.757   3.525  2.0808  2.3037  0.5715
 1014MOL0     H33836   6.587   3.117   3.999 -0.8690 -0.6186 -3.2328
 1014MOL0     H33837   6.735   3.250   4.159  0.7263  0.1833  0.5594
 1014MOL0     H33838   6.855   3.446   4.209 -0.2407 -0.6914 -0.6043
 1014MOL0     H33839   7.023   3.445   4.280  1.6232  0.4015 -1.9103
 1014MOL0     H33840   6.817   3.229   4.324  1.0187 -0.6043 -1.5235
 1014MOL0     H33841   6.994   3.238   4.383  0.7238  0.8157  2.1447
 1014MOL0     H33842   6.775   3.436   4.472  0.7976 -0.5344 -3.0360
 1014MOL0     H33843   6.934   3.470   4.497 -0.7226 -0.6246  0.1677
 1014MOL0     H33844   6.832   3.373   4.705  1.1044  1.3737  0.3020
 1014MOL0     H33845   6.795   3.219   4.626 -1.8969  2.0890  1.7577
 1014MOL0     H33846   7.204   3.184   4.717 -0.7862  2.2047  1.3035
 1014MOL0     H33847   7.054   3.227   3.880 -0.4019 -0.0984 -0.1743
 1014MOL0     H33848   6.929   3.079   3.738  0.2576  0.1402 -1.0750
 1015MOL0     O33849   5.687   7.810  11.255  0.4117 -0.4223 -0.0902
 1015MOL0     C33850   5.672   7.725  11.345  0.3099 -0.4499 -0.3740
 1015MOL0     O33851   5.564   7.715  11.423  0.4567 -0.1586 -0.1200
 1015MOL0     C33852   5.467   7.813  11.422 -0.6711  0.3627  0.3701
 1015MOL0     C33853   5.483   7.909  11.522  0.0465  0.6585  0.9855
 1015MOL0     C33854   5.403   8.018  11.533  0.0525  0.1593 -0.4030
 1015MOL0     C33855   5.289   8.024  11.451  0.1973  0.8024  0.8371
 1015MOL0     O33856   5.206   8.126  11.475  0.7425 -0.2037  0.9043
 1015MOL0     C33857   5.084   8.141  11.398 -0.0122 -0.7849  1.3351
 1015MOL0     C33858   4.993   8.259  11.436 -1.0403 -0.4505 -0.0728
 1015MOL0     C33859   4.945   8.247  11.579  0.5230  0.5610 -0.4604
 1015MOL0     C33860   4.863   8.364  11.618 -0.4860  0.3993  0.4509
 1015MOL0     C33861   4.712   8.335  11.584 -0.5971 -0.1446 -0.9343
 1015MOL0     C33862   4.615   8.431  11.631 -0.0862  0.3928  0.0933
 1015MOL0     C33863   4.635   8.575  11.582  0.3967  0.1339  0.2084
 1015MOL0     C33864   4.594   8.607  11.433 -0.0578  0.1454  0.0066
 1015MOL0     N33865   4.648   8.521  11.325 -0.2746 -0.3839  0.3694
 1015MOL0     C33866   4.579   8.433  11.253 -0.1913 -0.3705 -0.6397
 1015MOL0     C33867   4.676   8.370  11.183  0.1689 -0.3633  0.2279
 1015MOL0     C33868   4.654   8.276  11.058 -0.1057  0.3839 -0.9164
 1015MOL0     C33869   4.630   8.138  11.121 -0.3215  0.4619 -0.2025
 1015MOL0     C33870   4.741   8.065  11.205 -0.0543  0.1269 -0.3395
 1015MOL0     C33871   4.874   8.050  11.142  0.3894 -0.0791 -0.2392
 1015MOL0     O33872   4.963   7.942  11.197  0.8503 -0.6544 -0.0142
 1015MOL0     C33873   4.918   7.811  11.184 -0.7150  0.0214 -0.1355
 1015MOL0     C33874   4.843   7.771  11.078 -0.0314 -0.8528 -0.2657
 1015MOL0     C33875   4.822   7.627  11.055  0.3705 -0.5629 -0.1067
 1015MOL0     C33876   4.884   7.535  11.137 -0.8947  0.5461  0.4427
 1015MOL0     C33877   4.856   7.390  11.116 -1.1691 -1.1548  0.8683
 1015MOL0     O33878   4.937   7.298  11.173 -0.2934  0.2412  0.0552
 1015MOL0     C33879   4.906   7.173  11.205  0.1528  0.4416 -0.1529
 1015MOL0     C33880   4.774   7.117  11.199 -0.5900  0.2157 -0.2144
 1015MOL0     C33881   4.756   6.980  11.227 -0.4568  0.1573 -0.4738
 1015MOL0     C33882   4.871   6.905  11.268  0.3543 -0.6393 -0.2617
 1015MOL0     O33883   4.855   6.778  11.318  0.3898 -0.1198 -0.3353
 1015MOL0     C33884   4.779   6.779  11.439 -0.0667 -0.1925  0.5838
 1015MOL0     C33885   4.629   6.732  11.430 -0.6125 -0.1868  0.4665
 1015MOL0     C33886   4.550   6.731  11.558  0.8411 -1.1945 -1.2502
 1015MOL0     C33887   4.537   6.877  11.629  0.2903  0.9190  0.4870
 1015MOL0     C33888   4.429   6.881  11.735  0.3032  0.0658  0.4209
 1015MOL0     C33889   4.455   7.009  11.813 -0.4064 -0.3908 -0.1520
 1015MOL0     C33890   4.334   7.060  11.872  0.0015  0.7097 -0.5406
 1015MOL0     C33891   4.366   7.174  11.960 -0.1372 -0.6747  0.4385
 1015MOL0    Cl33892   4.394   7.329  11.876  0.2819 -0.2498  0.1306
 1015MOL0     C33893   5.001   6.958  11.269 -0.0107 -0.2817 -0.0081
 1015MOL0     C33894   5.015   7.086  11.231 -0.6344  0.7984 -0.2425
 1015MOL0     O33895   4.750   7.371  11.058 -0.2157  0.1426 -0.9154
 1015MOL0     C33896   4.960   7.578  11.242  0.1219 -0.0860  0.6237
 1015MOL0     C33897   4.972   7.713  11.260 -0.0655  0.3182  0.6228
 1015MOL0     N33898   4.798   8.417  11.223  0.7784 -0.4677  0.3933
 1015MOL0     N33899   4.784   8.520  11.305  0.1066  0.1733 -0.1218
 1015MOL0     C33900   5.265   7.920  11.361 -0.2434 -0.7716 -0.6398
 1015MOL0     C33901   5.353   7.808  11.346  0.4953 -0.0053 -0.2264
 1015MOL0     C33902   5.773   7.613  11.362 -0.1847  0.3136  0.8324
 1015MOL0     C33903   5.890   7.612  11.294  0.7751 -0.0790  0.0365
 1015MOL0     C33904   5.992   7.522  11.327 -0.3269 -0.4418 -0.0646
 1015MOL0     C33905   5.983   7.437  11.438  0.5475  1.0340  0.4934
 1015MOL0     O33906   6.081   7.362  11.484  0.2360  0.3088 -0.4757
 1015MOL0     C33907   6.152   7.288  11.385  0.1169  0.4992 -0.0424
 1015MOL0     C33908   6.289   7.237  11.452  0.0410  1.0488  0.3860
 1015MOL0     C33909   6.284   7.141  11.569  0.0544  0.0307  0.5199
 1015MOL0     C33910   6.411   7.065  11.611 -0.1091  0.2098  0.4178
 1015MOL0     C33911   6.502   7.164  11.679 -0.8262 -0.1069  0.0529
 1015MOL0     C33912   6.583   7.250  11.711  0.8962  0.9238  0.0477
 1015MOL0     C33913   5.863   7.430  11.506  0.0806  0.1334 -0.1378
 1015MOL0     C33914   5.758   7.516  11.467  0.0653 -0.4267 -0.5843
 1015MOL0     H33915   5.557   7.912  11.601  0.5787  2.2245  0.4677
 1015MOL0     H33916   5.434   8.086  11.612  0.4565 -1.1700  0.6168
 1015MOL0     H33917   5.032   8.047  11.417 -1.6104 -0.0401  0.8604
 1015MOL0     H33918   5.097   8.157  11.291  0.0469  3.3728  1.7820
 1015MOL0     H33919   4.910   8.268  11.366 -0.3347  1.5127 -0.7269
 1015MOL0     H33920   5.057   8.347  11.431  0.2466 -1.1707  2.1414
 1015MOL0     H33921   5.027   8.250  11.650 -0.2897  0.4789  0.4955
 1015MOL0     H33922   4.884   8.159  11.601 -1.2035  1.0935 -2.6812
 1015MOL0     H33923   4.870   8.379  11.727  0.8507  0.8407  0.3223
 1015MOL0     H33924   4.902   8.456  11.573 -2.3357  0.9415 -0.1560
 1015MOL0     H33925   4.677   8.240  11.626 -4.1575  0.8344 -1.3843
 1015MOL0     H33926   4.712   8.328  11.474 -3.8045 -2.3188 -0.9358
 1015MOL0     H33927   4.621   8.436  11.740  0.6775  0.6429  0.0423
 1015MOL0     H33928   4.515   8.401  11.597  0.1606  2.8652 -3.2831
 1015MOL0     H33929   4.591   8.651  11.647  1.4004 -0.3668  1.5207
 1015MOL0     H33930   4.739   8.604  11.595 -0.1434  1.7175  1.2839
 1015MOL0     H33931   4.630   8.707  11.409  1.6378 -1.1850 -3.7560
 1015MOL0     H33932   4.485   8.603  11.426 -0.0084  0.5939 -1.2694
 1015MOL0     H33933   4.471   8.425  11.245 -0.2300  0.5288 -1.1271
 1015MOL0     H33934   4.736   8.262  10.987  1.2835  0.5983  0.5742
 1015MOL0     H33935   4.569   8.313  11.000  0.1563 -2.6474 -3.5303
 1015MOL0     H33936   4.620   8.060  11.044 -1.6649 -1.2691  1.6048
 1015MOL0     H33937   4.532   8.141  11.169 -0.0240  1.1678  0.3786
 1015MOL0     H33938   4.764   8.121  11.296  3.3853 -1.8389  0.1889
 1015MOL0     H33939   4.699   7.970  11.242 -1.1775  0.6109 -0.3351
 1015MOL0     H33940   4.934   8.140  11.155 -0.6712  0.7974 -1.2336
 1015MOL0     H33941   4.859   8.039  11.034  2.4237 -3.3566 -0.3170
 1015MOL0     H33942   4.795   7.839  11.008  2.9713 -0.0832 -1.7555
 1015MOL0     H33943   4.754   7.605  10.974 -0.9571  0.4292  0.7117
 1015MOL0     H33944   4.690   7.166  11.152  0.1036  0.8230 -0.8549
 1015MOL0     H33945   4.660   6.931  11.212 -1.7121  2.0003  1.0436
 1015MOL0     H33946   4.772   6.881  11.478  1.9252  0.5001 -0.7103
 1015MOL0     H33947   4.833   6.714  11.507 -0.0393  0.1491  0.8930
 1015MOL0     H33948   4.629   6.626  11.403  0.6731  0.1426 -0.9896
 1015MOL0     H33949   4.576   6.790  11.354 -0.1689 -0.1562  0.1801
 1015MOL0     H33950   4.598   6.663  11.629 -1.0384  0.1089  1.4826
 1015MOL0     H33951   4.447   6.708  11.530 -0.4375  4.3366 -2.3631
 1015MOL0     H33952   4.639   6.892  11.664  0.8989 -2.0533  0.2067
 1015MOL0     H33953   4.512   6.945  11.547 -1.3368 -0.4654 -0.2186
 1015MOL0     H33954   4.428   6.789  11.795 -2.4622 -0.4156 -0.2145
 1015MOL0     H33955   4.329   6.879  11.691 -0.3968 -1.3856  1.9715
 1015MOL0     H33956   4.490   7.081  11.739  0.2272 -2.3394 -1.8450
 1015MOL0     H33957   4.529   6.980  11.888 -0.7857 -3.4278 -0.8316
 1015MOL0     H33958   4.275   7.112  11.796 -1.8659  1.2985  1.2280
 1015MOL0     H33959   4.273   6.988  11.929  0.4886 -0.1219 -1.0502
 1015MOL0     H33960   4.453   7.155  12.023 -1.5307 -1.3048  2.2624
 1015MOL0     H33961   4.285   7.201  12.028 -3.0667 -1.1022 -2.5651
 1015MOL0     H33962   5.091   6.910  11.306 -0.3401  0.0574  1.3068
 1015MOL0     H33963   5.109   7.139  11.235 -0.5461  0.6546 -0.3870
 1015MOL0     H33964   5.013   7.508  11.305  1.4114 -1.1757 -1.5621
 1015MOL0     H33965   5.027   7.750  11.346 -1.0113 -0.1844  1.4686
 1015MOL0     H33966   5.189   7.920  11.283  0.6104 -0.1439 -1.4813
 1015MOL0     H33967   5.330   7.727  11.277  3.1099 -0.6637 -0.4429
 1015MOL0     H33968   5.924   7.694  11.232 -2.2247  0.3615 -1.2042
 1015MOL0     H33969   6.074   7.526  11.256  0.0695  2.2390  0.4207
 1015MOL0     H33970   6.167   7.335  11.287 -0.1064  0.1843 -0.2302
 1015MOL0     H33971   6.087   7.201  11.370 -0.0661  0.1584  2.3582
 1015MOL0     H33972   6.352   7.198  11.371 -5.2844  2.3482 -5.1573
 1015MOL0     H33973   6.336   7.322  11.501  0.9861  0.0769  1.2099
 1015MOL0     H33974   6.215   7.059  11.548 -3.4552  2.4384  1.6136
 1015MOL0     H33975   6.246   7.191  11.659 -0.1151 -2.5296  1.9527
 1015MOL0     H33976   6.390   6.983  11.679 -0.1282 -2.2670 -2.3513
 1015MOL0     H33977   6.463   7.019  11.526  0.7353  0.8865  0.5532
 1015MOL0     H33978   6.664   7.317  11.730 -0.4414  2.2063  1.5515
 1015MOL0     H33979   5.855   7.382  11.602  1.0604  0.9642  0.3837
 1015MOL0     H33980   5.666   7.508  11.524  1.7445  2.1995  2.8349
 1016MOL0     O33981  10.879   8.965   7.869 -0.3132 -0.5069 -0.0968
 1016MOL0     C33982  10.959   8.946   7.779 -0.1416  0.7851 -0.5251
 1016MOL0     O33983  10.949   8.996   7.651  0.5737  0.6239  0.8225
 1016MOL0     C33984  10.828   9.066   7.624 -0.0948 -0.5789 -0.3713
 1016MOL0     C33985  10.762   9.027   7.513  0.9396  0.7809 -0.6972
 1016MOL0     C33986  10.647   9.083   7.472  0.0995  0.0381  0.6069
 1016MOL0     C33987  10.579   9.186   7.549 -0.1314 -0.0457 -0.2606
 1016MOL0     O33988  10.464   9.225   7.503 -0.6549  0.4329  0.1354
 1016MOL0     C33989  10.360   9.193   7.595 -0.9484 -0.1775  0.5043
 1016MOL0     C33990  10.234   9.160   7.520  1.0492 -0.2262  0.9487
 1016MOL0     C33991  10.107   9.154   7.609  0.3403 -1.0090  0.5049
 1016MOL0     C33992   9.988   9.156   7.520 -0.1552  0.7930  0.3797
 1016MOL0     C33993   9.859   9.135   7.602 -0.2977  0.0917 -0.5607
 1016MOL0     C33994   9.735   9.114   7.499 -0.0027  0.0801  0.3464
 1016MOL0     C33995   9.607   9.122   7.584 -0.4375  0.3866  0.9195
 1016MOL0     C33996   9.480   9.096   7.497 -0.5215  0.0928 -0.3085
 1016MOL0     N33997   9.458   9.207   7.417  0.3911  0.0777 -0.1830
 1016MOL0     C33998   9.497   9.204   7.285  0.6176 -0.7910 -0.0438
 1016MOL0     C33999   9.417   9.301   7.226  0.6184  0.3993 -0.5051
 1016MOL0     C34000   9.384   9.293   7.083 -0.5360 -0.1409  0.5170
 1016MOL0     C34001   9.486   9.372   7.004 -0.1458  0.0894  1.3124
 1016MOL0     C34002   9.450   9.393   6.854  0.4238 -0.2053  0.3916
 1016MOL0     C34003   9.345   9.494   6.820  0.7210  0.0922  0.3665
 1016MOL0     O34004   9.228   9.425   6.813 -0.0779 -0.1261  0.1281
 1016MOL0     C34005   9.109   9.494   6.815  0.1316 -0.2683  1.1270
 1016MOL0     C34006   9.096   9.628   6.789 -0.2909  0.0811  0.1881
 1016MOL0     C34007   8.976   9.701   6.782  0.2317  1.0063 -0.1399
 1016MOL0     C34008   8.848   9.632   6.800  0.6891 -0.7482 -0.2866
 1016MOL0     C34009   8.716   9.706   6.790 -0.6899  0.3919 -0.6183
 1016MOL0     O34010   8.607   9.624   6.770  0.1072  0.1801 -0.6709
 1016MOL0     C34011   8.486   9.678   6.749 -0.5950  0.1761  0.5133
 1016MOL0     C34012   8.467   9.787   6.658 -0.1039  0.1411 -0.6960
 1016MOL0     C34013   8.339   9.844   6.657  0.0535  0.7406  0.2336
 1016MOL0     C34014   8.236   9.796   6.735  0.0388  0.0583  0.4447
 1016MOL0     O34015   8.119   9.876   6.719 -0.6187  0.0205  0.0136
 1016MOL0     C34016   7.997   9.819   6.754  0.5761  0.1971 -0.9171
 1016MOL0     C34017   7.897   9.863   6.648 -0.7810 -0.3813  0.7391
 1016MOL0     C34018   7.952   9.871   6.498  0.6520  0.0992  0.7140
 1016MOL0     C34019   8.006   9.734   6.456  0.7393  0.0135  0.6248
 1016MOL0     C34020   8.102   9.746   6.338  0.6377 -0.5640 -0.6309
 1016MOL0     C34021   8.162   9.603   6.299  1.1760 -1.1689  0.0587
 1016MOL0     C34022   8.066   9.510   6.225  0.0232 -0.6569 -0.8767
 1016MOL0     C34023   8.112   9.375   6.185  0.0741 -0.1789  0.1884
 1016MOL0    Cl34024   8.019   9.302   6.053 -0.1221 -0.4807 -0.3095
 1016MOL0     C34025   8.252   9.680   6.812  0.8820  0.2995  0.4513
 1016MOL0     C34026   8.385   9.625   6.819 -1.3198  0.4492 -0.8843
 1016MOL0     O34027   8.718   9.830   6.813  0.2015  0.7630 -0.7388
 1016MOL0     C34028   8.861   9.499   6.833 -0.1343 -1.3747  0.9189
 1016MOL0     C34029   8.984   9.433   6.843 -0.7011 -0.3851  1.0810
 1016MOL0     N34030   9.331   9.355   7.324 -0.2087 -0.3493 -0.3712
 1016MOL0     N34031   9.357   9.297   7.442 -0.9314 -0.2162  0.5463
 1016MOL0     C34032  10.647   9.229   7.666 -0.0780  1.4052  0.1448
 1016MOL0     C34033  10.780   9.177   7.690  0.8540 -0.0724 -0.9127
 1016MOL0     C34034  11.060   8.846   7.803 -0.0601 -0.3381 -1.3312
 1016MOL0     C34035  11.152   8.803   7.714  0.0224 -0.7120 -1.0890
 1016MOL0     C34036  11.235   8.696   7.737  0.8178  0.3038  0.8855
 1016MOL0     C34037  11.246   8.626   7.856  0.1278 -0.4522  0.9610
 1016MOL0     O34038  11.332   8.522   7.879 -0.1576 -0.1193 -0.3836
 1016MOL0     C34039  11.385   8.448   7.768  0.3134  0.2443  0.1703
 1016MOL0     C34040  11.448   8.328   7.836  0.0400  0.0675  0.5465
 1016MOL0     C34041  11.536   8.251   7.747  1.0795  0.2241  0.2139
 1016MOL0     C34042  11.669   8.318   7.739  0.3843  0.6731  0.5648
 1016MOL0     C34043  11.760   8.226   7.675 -0.0483  0.6483  0.5578
 1016MOL0     C34044  11.844   8.145   7.639 -0.0922 -0.7393 -0.2541
 1016MOL0     C34045  11.164   8.681   7.960  0.0637  0.3502  0.3775
 1016MOL0     C34046  11.076   8.784   7.938  0.2491  0.6380  1.1450
 1016MOL0     H34047  10.807   8.946   7.456  0.9913 -0.2288  0.7250
 1016MOL0     H34048  10.591   9.040   7.390 -0.3008 -0.2162  1.0127
 1016MOL0     H34049  10.341   9.279   7.660  0.7301  2.2011 -1.9202
 1016MOL0     H34050  10.378   9.101   7.652 -1.7913 -0.6376  0.0520
 1016MOL0     H34051  10.251   9.058   7.486 -0.8056 -0.0073 -0.8052
 1016MOL0     H34052  10.227   9.229   7.435  1.9661  1.3923  2.1238
 1016MOL0     H34053  10.089   9.232   7.683 -0.8138 -0.0518 -0.7496
 1016MOL0     H34054  10.099   9.060   7.664 -0.4000 -1.2959 -0.0852
 1016MOL0     H34055   9.982   9.247   7.460  1.7265  0.1719 -0.8665
 1016MOL0     H34056  10.001   9.065   7.461  1.7159 -0.0565  1.9665
 1016MOL0     H34057   9.841   9.225   7.662 -2.7177  0.3297 -1.5590
 1016MOL0     H34058   9.875   9.058   7.678  2.6806  0.7228 -0.4056
 1016MOL0     H34059   9.748   9.015   7.454 -0.4763  0.5371 -0.8168
 1016MOL0     H34060   9.726   9.191   7.423 -0.3305 -1.3290 -1.0983
 1016MOL0     H34061   9.597   9.042   7.658 -0.0468 -2.2055 -1.6532
 1016MOL0     H34062   9.610   9.221   7.629  2.9817  1.0135 -0.3512
 1016MOL0     H34063   9.391   9.074   7.557  0.3967 -1.2141  0.6426
 1016MOL0     H34064   9.509   9.011   7.435  3.1545  2.2026 -1.7753
 1016MOL0     H34065   9.551   9.129   7.228 -0.3052  0.2702 -2.4427
 1016MOL0     H34066   9.281   9.328   7.067 -0.8496 -0.7633  1.1020
 1016MOL0     H34067   9.372   9.190   7.048 -3.0425  0.2681 -0.0508
 1016MOL0     H34068   9.581   9.320   7.017 -0.4521 -0.3672  1.7811
 1016MOL0     H34069   9.494   9.473   7.044  2.4071  1.2387 -1.7248
 1016MOL0     H34070   9.545   9.431   6.815  1.0085 -2.2664 -0.3482
 1016MOL0     H34071   9.431   9.305   6.792  1.6403 -0.2252  0.0016
 1016MOL0     H34072   9.364   9.540   6.722 -0.9011  0.9812  0.4320
 1016MOL0     H34073   9.340   9.571   6.897 -2.6710  0.1253  0.2607
 1016MOL0     H34074   9.185   9.688   6.775  1.9922 -2.6556  1.8159
 1016MOL0     H34075   8.989   9.805   6.753 -0.8057  0.6206 -2.1486
 1016MOL0     H34076   8.547   9.828   6.598  0.0163 -1.3345 -1.6045
 1016MOL0     H34077   8.325   9.938   6.605  2.7553  2.1429  1.7704
 1016MOL0     H34078   7.953   9.853   6.848 -0.0486 -1.2665 -0.6592
 1016MOL0     H34079   7.994   9.710   6.765  0.5439  0.0181 -2.4430
 1016MOL0     H34080   7.873   9.965   6.682  1.8319  1.3394 -2.0926
 1016MOL0     H34081   7.812   9.796   6.635  0.6479 -1.7448 -2.5616
 1016MOL0     H34082   8.036   9.941   6.493 -1.4202  2.7445 -3.6080
 1016MOL0     H34083   7.879   9.905   6.424  1.7439 -0.6833 -0.7663
 1016MOL0     H34084   8.058   9.685   6.538 -1.0735  1.8270  2.9962
 1016MOL0     H34085   7.922   9.671   6.425 -0.8129  0.7899  3.0097
 1016MOL0     H34086   8.183   9.818   6.354  0.4775  0.2050 -2.9170
 1016MOL0     H34087   8.047   9.790   6.254  3.1118  0.7269 -1.7040
 1016MOL0     H34088   8.200   9.559   6.392 -2.6755  1.4677  3.1882
 1016MOL0     H34089   8.231   9.631   6.219 -0.1021  0.9058 -0.3890
 1016MOL0     H34090   7.982   9.494   6.293  1.7812 -0.3796  1.4983
 1016MOL0     H34091   8.021   9.559   6.138  1.0451  3.3188  0.6018
 1016MOL0     H34092   8.106   9.308   6.271 -0.0530  0.7676  0.9312
 1016MOL0     H34093   8.213   9.368   6.144 -0.2150  2.8877 -1.2882
 1016MOL0     H34094   8.178   9.631   6.874  1.1577 -0.6981  0.0075
 1016MOL0     H34095   8.414   9.545   6.887  2.3372  0.7022 -1.9652
 1016MOL0     H34096   8.767   9.447   6.847 -0.9379  0.0732  1.1569
 1016MOL0     H34097   8.984   9.325   6.854  2.9453 -0.3903  2.1248
 1016MOL0     H34098  10.596   9.306   7.723  0.2887  0.9450  1.1143
 1016MOL0     H34099  10.822   9.214   7.784 -2.2143  2.9853 -0.5602
 1016MOL0     H34100  11.153   8.856   7.619 -1.3098 -3.2290 -2.6308
 1016MOL0     H34101  11.318   8.687   7.667  1.2971  1.6076  1.2610
 1016MOL0     H34102  11.457   8.506   7.709  2.3760 -0.8605  1.4734
 1016MOL0     H34103  11.306   8.418   7.699  3.7100  2.7190 -5.5499
 1016MOL0     H34104  11.506   8.353   7.925  1.8019  0.4857 -0.6588
 1016MOL0     H34105  11.364   8.262   7.859 -0.4037  0.6108  0.4893
 1016MOL0     H34106  11.496   8.250   7.645  0.5210  0.5303  0.4252
 1016MOL0     H34107  11.555   8.147   7.774  2.5760  0.3018 -0.3924
 1016MOL0     H34108  11.673   8.412   7.684  1.3677 -0.2121 -0.9624
 1016MOL0     H34109  11.712   8.331   7.839 -2.3136  0.2449  1.8707
 1016MOL0     H34110  11.908   8.065   7.607  0.3096 -0.9778  1.0989
 1016MOL0     H34111  11.150   8.643   8.061 -4.4722 -2.2775 -0.9638
 1016MOL0     H34112  11.015   8.822   8.019 -1.4501 -1.3914  0.9110
 1017MOL0     O34113   6.601   8.028   8.238 -0.5879  0.6614 -0.6745
 1017MOL0     C34114   6.637   8.108   8.328 -0.1284  0.5389 -0.1025
 1017MOL0     O34115   6.769   8.140   8.348  0.3385 -0.0720 -0.2114
 1017MOL0     C34116   6.868   8.129   8.250  0.2429 -0.1733  0.2715
 1017MOL0     C34117   6.987   8.059   8.276 -1.0411 -0.2467  1.5295
 1017MOL0     C34118   7.087   8.048   8.172 -0.9911  1.0012 -0.1160
 1017MOL0     C34119   7.069   8.113   8.048 -0.1965  0.9788 -0.2696
 1017MOL0     O34120   7.162   8.103   7.951  0.4005  0.8627 -0.3393
 1017MOL0     C34121   7.147   8.171   7.823 -0.3179 -0.4417 -0.1090
 1017MOL0     C34122   7.276   8.140   7.737 -0.6172 -0.0745 -0.7131
 1017MOL0     C34123   7.402   8.211   7.797  0.4262  1.0234 -0.3393
 1017MOL0     C34124   7.532   8.161   7.737  0.5604  0.0498 -0.4443
 1017MOL0     C34125   7.664   8.221   7.793 -0.1997 -0.1426 -0.4992
 1017MOL0     C34126   7.703   8.199   7.937 -0.6281  0.7300 -0.5381
 1017MOL0     C34127   7.855   8.187   7.958  0.0536  0.5103  0.6627
 1017MOL0     C34128   7.880   8.159   8.102 -0.5058  0.2154  0.5576
 1017MOL0     N34129   8.020   8.188   8.147  0.6854  0.1430  0.2465
 1017MOL0     C34130   8.127   8.107   8.121  0.6944  0.2254 -0.9017
 1017MOL0     C34131   8.233   8.168   8.179 -0.3509  0.0187  0.6779
 1017MOL0     C34132   8.375   8.129   8.181  0.0416  0.0454  0.5969
 1017MOL0     C34133   8.432   8.122   8.034  0.0092 -0.1581 -0.9742
 1017MOL0     C34134   8.414   8.257   7.950  0.7452  0.6886 -0.7958
 1017MOL0     C34135   8.468   8.232   7.809 -0.8742  1.1912 -0.0803
 1017MOL0     O34136   8.599   8.168   7.803  0.4993 -0.7525 -0.5727
 1017MOL0     C34137   8.704   8.237   7.851  0.5070  0.7500  1.2507
 1017MOL0     C34138   8.705   8.377   7.878  0.2891 -0.1878 -0.5203
 1017MOL0     C34139   8.822   8.431   7.933 -0.5345 -0.2303 -0.1161
 1017MOL0     C34140   8.941   8.355   7.953 -0.3116 -0.1840 -0.7047
 1017MOL0     C34141   9.077   8.423   7.988  0.9272  0.1799 -0.1675
 1017MOL0     O34142   9.178   8.347   7.959  0.0860  0.5580  0.4278
 1017MOL0     C34143   9.312   8.380   7.977 -0.7447  0.9799 -0.1428
 1017MOL0     C34144   9.402   8.290   7.919  1.1416  0.4130  0.3017
 1017MOL0     C34145   9.539   8.312   7.913  0.2016  0.0456  0.6172
 1017MOL0     C34146   9.594   8.423   7.978 -0.6079 -0.3189  0.0161
 1017MOL0     O34147   9.733   8.450   7.974 -0.5334  0.8710  0.5587
 1017MOL0     C34148   9.823   8.401   7.869  0.8979 -0.7011  0.5898
 1017MOL0     C34149   9.909   8.512   7.820  0.4361 -0.1635  0.5313
 1017MOL0     C34150  10.052   8.514   7.863 -0.7913 -0.6363 -1.1408
 1017MOL0     C34151  10.142   8.616   7.794  1.0929 -0.2215  1.1191
 1017MOL0     C34152  10.281   8.615   7.851 -0.1922  0.2907 -0.6545
 1017MOL0     C34153  10.364   8.700   7.765 -0.8165 -0.8636 -0.2702
 1017MOL0     C34154  10.501   8.738   7.828 -0.0866 -0.8257  1.1175
 1017MOL0     C34155  10.587   8.828   7.731  0.8457 -0.6707 -1.1053
 1017MOL0    Cl34156  10.614   8.749   7.579 -0.0023  0.3486  0.1592
 1017MOL0     C34157   9.513   8.517   8.038 -0.3348  0.5990  0.3236
 1017MOL0     C34158   9.369   8.493   8.040 -0.0129  0.3266 -0.4593
 1017MOL0     O34159   9.082   8.537   8.028  0.0106  0.0551  0.2952
 1017MOL0     C34160   8.934   8.221   7.918 -0.0623  0.3149  0.2676
 1017MOL0     C34161   8.822   8.166   7.871  1.1511 -0.5980 -0.3793
 1017MOL0     N34162   8.185   8.292   8.234  0.4926  0.0869  0.2101
 1017MOL0     N34163   8.059   8.299   8.210 -0.1410  0.3072  0.3822
 1017MOL0     C34164   6.949   8.188   8.026  0.4185  0.4266 -0.0104
 1017MOL0     C34165   6.844   8.191   8.126 -1.1642  0.5199  0.2584
 1017MOL0     C34166   6.542   8.158   8.424  0.6563 -0.0065 -0.3836
 1017MOL0     C34167   6.400   8.172   8.393 -0.6455  0.4468  0.5856
 1017MOL0     C34168   6.303   8.204   8.484 -0.4240  0.0363 -0.2863
 1017MOL0     C34169   6.346   8.249   8.607 -0.2074 -0.2836 -1.1219
 1017MOL0     O34170   6.260   8.316   8.698 -0.0181  0.2907 -0.0395
 1017MOL0     C34171   6.246   8.448   8.665 -0.8138 -1.0068 -1.0916
 1017MOL0     C34172   6.120   8.488   8.732 -0.3477  0.4347 -0.2193
 1017MOL0     C34173   6.144   8.509   8.886 -0.1508  0.0493  0.0912
 1017MOL0     C34174   6.240   8.609   8.948  0.4838 -0.2457 -0.4760
 1017MOL0     C34175   6.369   8.547   8.965 -0.2044  0.6190 -0.3394
 1017MOL0     C34176   6.482   8.502   8.987  0.2471 -0.1232  0.2187
 1017MOL0     C34177   6.481   8.247   8.642 -0.1286 -0.0455  0.1596
 1017MOL0     C34178   6.572   8.197   8.552 -0.5138 -0.1370 -0.0792
 1017MOL0     H34179   6.994   8.010   8.373 -0.5666 -2.0810  0.6127
 1017MOL0     H34180   7.177   7.991   8.193 -1.4153  0.9634  1.7802
 1017MOL0     H34181   7.135   8.279   7.840 -0.4196 -0.4355 -0.2216
 1017MOL0     H34182   7.066   8.129   7.764  2.4529 -2.2530 -2.9306
 1017MOL0     H34183   7.263   8.164   7.631  1.1052 -2.0534 -1.4495
 1017MOL0     H34184   7.277   8.031   7.736  0.5399 -0.3209  4.2736
 1017MOL0     H34185   7.394   8.197   7.906 -1.0576  2.4885 -0.2330
 1017MOL0     H34186   7.386   8.318   7.783  1.9943  1.2225 -0.8241
 1017MOL0     H34187   7.551   8.054   7.746  1.6369  0.2366 -0.2884
 1017MOL0     H34188   7.522   8.169   7.628  1.4469 -3.0516 -0.8458
 1017MOL0     H34189   7.654   8.330   7.788 -2.0363 -0.2538  0.2266
 1017MOL0     H34190   7.744   8.207   7.719 -0.6956 -2.1986 -0.7102
 1017MOL0     H34191   7.665   8.109   7.985  0.9287  0.4189  0.1552
 1017MOL0     H34192   7.680   8.289   7.995  1.6175 -0.2485  2.1114
 1017MOL0     H34193   7.895   8.108   7.893  1.9125  1.2931  0.7866
 1017MOL0     H34194   7.897   8.281   7.922 -0.9925  0.5460 -0.5398
 1017MOL0     H34195   7.860   8.052   8.114  0.5463 -0.1566 -0.6751
 1017MOL0     H34196   7.818   8.222   8.166 -1.7675  1.1378 -1.4912
 1017MOL0     H34197   8.124   8.021   8.056  0.8605  0.6621 -1.5021
 1017MOL0     H34198   8.370   8.035   8.235  3.0449 -1.7048 -1.8030
 1017MOL0     H34199   8.439   8.201   8.234 -1.8244  1.2828  1.2689
 1017MOL0     H34200   8.393   8.037   7.976  3.7166 -2.8514  0.0932
 1017MOL0     H34201   8.538   8.102   8.046 -0.0763 -0.4724 -0.7242
 1017MOL0     H34202   8.311   8.295   7.950 -0.9721 -3.4136 -1.1005
 1017MOL0     H34203   8.479   8.331   7.998 -1.0183 -0.0857  3.1559
 1017MOL0     H34204   8.459   8.316   7.740  0.0738 -0.2956 -2.1317
 1017MOL0     H34205   8.395   8.163   7.764 -2.7393  0.8145  3.2377
 1017MOL0     H34206   8.643   8.462   7.852  0.0228 -0.2938 -0.2328
 1017MOL0     H34207   8.818   8.536   7.958  1.7958 -0.6144  2.3667
 1017MOL0     H34208   9.356   8.202   7.876  0.1886 -0.5281  3.0648
 1017MOL0     H34209   9.594   8.236   7.858 -0.7225 -0.6178  0.5680
 1017MOL0     H34210   9.767   8.373   7.778 -0.2591 -0.1571  1.1073
 1017MOL0     H34211   9.878   8.321   7.918  1.0868  0.3914  2.2449
 1017MOL0     H34212   9.871   8.612   7.841  2.0971  0.5151  0.4042
 1017MOL0     H34213   9.911   8.511   7.711 -0.5461 -2.4462  0.4668
 1017MOL0     H34214  10.095   8.413   7.861 -0.3240 -0.9005  4.7260
 1017MOL0     H34215  10.062   8.523   7.972  0.6227 -0.7356 -1.2466
 1017MOL0     H34216  10.143   8.596   7.686 -1.8369  0.0078  0.9612
 1017MOL0     H34217  10.101   8.718   7.801  0.0204 -0.6977  2.0468
 1017MOL0     H34218  10.315   8.511   7.850 -1.6574 -0.3170  1.7193
 1017MOL0     H34219  10.285   8.646   7.956  0.2034  0.8038 -0.8168
 1017MOL0     H34220  10.317   8.795   7.739  1.5013 -0.1919 -2.5738
 1017MOL0     H34221  10.380   8.636   7.678 -1.2503 -2.1952  0.6118
 1017MOL0     H34222  10.485   8.793   7.921  0.6410 -1.1736  1.4602
 1017MOL0     H34223  10.562   8.656   7.867  1.5717 -0.5617 -0.7330
 1017MOL0     H34224  10.685   8.839   7.780  1.6571  0.7548 -2.9518
 1017MOL0     H34225  10.532   8.922   7.722  1.8168 -0.1359 -1.5634
 1017MOL0     H34226   9.575   8.599   8.072  0.2656 -0.0952  0.9578
 1017MOL0     H34227   9.304   8.562   8.092 -0.5075 -2.2726  2.7445
 1017MOL0     H34228   9.023   8.161   7.925  0.6761  1.1285 -1.4905
 1017MOL0     H34229   8.821   8.059   7.855 -0.9717 -0.8405  1.0491
 1017MOL0     H34230   6.917   8.254   7.946  0.9255  1.5247  0.6822
 1017MOL0     H34231   6.752   8.238   8.092  0.7292  1.6420 -3.9028
 1017MOL0     H34232   6.375   8.149   8.290  1.0080 -0.4453  0.3448
 1017MOL0     H34233   6.201   8.224   8.454 -0.0763 -1.2031 -2.5002
 1017MOL0     H34234   6.229   8.474   8.560  1.3100  1.7511 -0.8504
 1017MOL0     H34235   6.324   8.513   8.703 -2.2978  1.4369 -1.9894
 1017MOL0     H34236   6.062   8.576   8.703 -2.8925  0.0232  3.0890
 1017MOL0     H34237   6.039   8.418   8.709 -0.7408 -0.0258  2.2398
 1017MOL0     H34238   6.161   8.413   8.937  0.1567  1.2683  2.4239
 1017MOL0     H34239   6.042   8.538   8.913 -1.1468 -2.4011 -0.6967
 1017MOL0     H34240   6.242   8.695   8.880 -1.7048  1.4731  1.4530
 1017MOL0     H34241   6.204   8.645   9.045  1.5630 -1.2596  0.3327
 1017MOL0     H34242   6.578   8.459   9.007 -0.4331 -0.5918  2.7959
 1017MOL0     H34243   6.524   8.282   8.735 -0.6766  2.7482 -0.5470
 1017MOL0     H34244   6.677   8.214   8.577 -0.7867  1.1427  0.2523
 1018MOL0     O34245   2.370   5.768   3.871  0.3368 -0.4430  0.6595
 1018MOL0     C34246   2.270   5.820   3.916  0.4491  0.5462 -0.1198
 1018MOL0     O34247   2.197   5.912   3.855  1.0011  0.8667 -0.2162
 1018MOL0     C34248   2.245   6.001   3.762  0.3500 -0.6106 -0.2225
 1018MOL0     C34249   2.368   5.996   3.692 -0.7133 -0.0834 -0.4594
 1018MOL0     C34250   2.399   6.078   3.586 -0.7569  0.1459 -0.5032
 1018MOL0     C34251   2.318   6.186   3.552  0.3704 -0.3186 -0.1680
 1018MOL0     O34252   2.370   6.285   3.473 -0.0915 -0.4693 -0.4912
 1018MOL0     C34253   2.294   6.404   3.437  0.0285 -0.3451  0.1422
 1018MOL0     C34254   2.386   6.511   3.391  0.0813 -0.5415 -0.6971
 1018MOL0     C34255   2.459   6.454   3.266 -0.5136  0.1927 -0.4671
 1018MOL0     C34256   2.516   6.550   3.169  0.5704  0.4411  0.9672
 1018MOL0     C34257   2.593   6.473   3.058 -0.1269  0.0430  0.5421
 1018MOL0     C34258   2.680   6.543   2.955 -1.5059  0.0288 -0.9434
 1018MOL0     C34259   2.692   6.476   2.819  0.6573 -0.6204 -0.5348
 1018MOL0     C34260   2.766   6.343   2.831  0.4619  0.2500  0.4974
 1018MOL0     N34261   2.910   6.353   2.873  0.4187 -0.3458  0.9444
 1018MOL0     C34262   3.012   6.437   2.831 -0.3251 -0.1411  0.6177
 1018MOL0     C34263   3.127   6.395   2.898  0.5004  0.6419  0.5058
 1018MOL0     C34264   3.264   6.450   2.919 -0.8620  0.1053 -0.6396
 1018MOL0     C34265   3.356   6.441   2.802 -0.1881 -0.1190  0.2857
 1018MOL0     C34266   3.290   6.485   2.671  0.1508 -0.4434  0.5610
 1018MOL0     C34267   3.393   6.514   2.566  0.6857  0.1405  0.6442
 1018MOL0     O34268   3.336   6.580   2.454  0.1571 -0.1571 -0.4297
 1018MOL0     C34269   3.412   6.594   2.348  0.1592  0.8499 -1.1538
 1018MOL0     C34270   3.346   6.622   2.234 -0.3769 -1.4452 -0.0426
 1018MOL0     C34271   3.413   6.656   2.115 -0.4944  0.1005 -0.8102
 1018MOL0     C34272   3.554   6.650   2.108 -0.1381 -0.6538 -0.2518
 1018MOL0     C34273   3.635   6.686   1.985  0.1643  1.2428  0.3000
 1018MOL0     O34274   3.558   6.759   1.898 -0.9285  0.2452  0.2592
 1018MOL0     C34275   3.612   6.807   1.778 -0.0734  0.4730  0.5381
 1018MOL0     C34276   3.711   6.899   1.778 -0.1110  0.0160  0.5791
 1018MOL0     C34277   3.751   6.971   1.663  0.4432  0.8897 -0.0240
 1018MOL0     C34278   3.698   6.934   1.534  1.2477 -0.3539 -0.5015
 1018MOL0     O34279   3.722   7.009   1.425  1.0056  0.0232 -0.8965
 1018MOL0     C34280   3.807   6.969   1.327  0.2715  0.4027  0.0535
 1018MOL0     C34281   3.867   7.093   1.261 -0.0348 -0.8152 -0.1528
 1018MOL0     C34282   3.983   7.047   1.179 -0.4824  0.2131  0.4217
 1018MOL0     C34283   4.035   7.167   1.091  1.1893  0.6047 -0.0080
 1018MOL0     C34284   4.181   7.138   1.044 -0.1971 -0.1705  0.7993
 1018MOL0     C34285   4.251   7.260   0.978 -0.6141 -0.7977  0.3581
 1018MOL0     C34286   4.321   7.352   1.079  0.1043  0.2248 -0.1363
 1018MOL0     C34287   4.429   7.449   1.007 -0.8287  0.5658  1.0615
 1018MOL0    Cl34288   4.582   7.358   0.956  1.0497  0.2902 -0.4772
 1018MOL0     C34289   3.601   6.833   1.533 -0.1850 -0.4557  0.1793
 1018MOL0     C34290   3.556   6.784   1.653 -0.1949  0.2300  0.6279
 1018MOL0     O34291   3.752   6.665   1.971  0.3143  0.3029  0.4192
 1018MOL0     C34292   3.617   6.611   2.228 -1.0031 -0.0523 -0.5802
 1018MOL0     C34293   3.550   6.564   2.340 -0.3145 -0.3138  0.9221
 1018MOL0     N34294   3.081   6.288   2.974 -0.3799  1.7744 -0.5849
 1018MOL0     N34295   2.959   6.257   2.956 -0.3121 -0.1462  0.1578
 1018MOL0     C34296   2.202   6.195   3.636  0.5708 -1.1332 -0.1993
 1018MOL0     C34297   2.165   6.106   3.730 -0.4814 -0.3889 -1.2704
 1018MOL0     C34298   2.230   5.761   4.049  0.7744 -0.5420  0.1785
 1018MOL0     C34299   2.297   5.651   4.115 -0.2448 -0.5837  0.5047
 1018MOL0     C34300   2.245   5.603   4.234 -0.2097  0.6059  0.2247
 1018MOL0     C34301   2.138   5.673   4.297 -0.1321 -0.0787  0.3003
 1018MOL0     O34302   2.084   5.597   4.400  0.4427  0.1621  0.4532
 1018MOL0     C34303   1.959   5.636   4.460  0.2734  0.4854  0.4151
 1018MOL0     C34304   1.972   5.735   4.577  1.4032  0.1060  0.4201
 1018MOL0     C34305   1.842   5.823   4.583 -0.7765 -0.0280 -0.2783
 1018MOL0     C34306   1.872   5.941   4.686 -0.2931  0.3994 -0.0233
 1018MOL0     C34307   1.746   6.019   4.721  1.7249  0.1781  0.9577
 1018MOL0     C34308   1.652   6.092   4.758 -0.7588  0.1742 -0.1763
 1018MOL0     C34309   2.085   5.789   4.245  0.0294 -0.4512  0.2456
 1018MOL0     C34310   2.134   5.832   4.119 -0.2298  0.2443 -0.1668
 1018MOL0     H34311   2.455   5.936   3.714  0.0707  1.7637  1.8775
 1018MOL0     H34312   2.498   6.061   3.544  0.5280  2.3437  1.4000
 1018MOL0     H34313   2.239   6.442   3.524 -0.9415 -0.3842 -0.4424
 1018MOL0     H34314   2.221   6.376   3.360  2.0432 -4.4451 -0.5414
 1018MOL0     H34315   2.454   6.534   3.474 -1.4072  1.4101  0.0770
 1018MOL0     H34316   2.320   6.596   3.373 -1.8861 -0.0035  6.0782
 1018MOL0     H34317   2.387   6.395   3.209 -0.8849 -0.1784  0.3724
 1018MOL0     H34318   2.541   6.388   3.296  1.4430  1.4849 -2.6536
 1018MOL0     H34319   2.442   6.611   3.118 -0.0843  0.5864  2.0484
 1018MOL0     H34320   2.579   6.621   3.223  0.0438  1.2587  0.5159
 1018MOL0     H34321   2.513   6.428   2.998 -1.0559  1.7950  0.3768
 1018MOL0     H34322   2.641   6.388   3.106 -2.4118 -0.8727  1.3183
 1018MOL0     H34323   2.781   6.558   2.996 -0.7385 -2.2550 -1.8448
 1018MOL0     H34324   2.634   6.639   2.928 -2.0924 -0.4737 -1.7829
 1018MOL0     H34325   2.588   6.459   2.793  0.3266 -2.8235  1.8558
 1018MOL0     H34326   2.736   6.545   2.746  1.6143 -0.5544  0.0757
 1018MOL0     H34327   2.761   6.291   2.735 -0.2449  2.5404 -0.7761
 1018MOL0     H34328   2.716   6.280   2.905  0.6848 -3.9804 -2.5532
 1018MOL0     H34329   3.001   6.530   2.776  0.3280 -0.6632 -0.4201
 1018MOL0     H34330   3.311   6.405   3.007  1.7788  1.9882 -0.9639
 1018MOL0     H34331   3.264   6.557   2.941 -0.9839  0.2202 -1.1874
 1018MOL0     H34332   3.383   6.335   2.790  2.3985  0.3547  1.2878
 1018MOL0     H34333   3.445   6.501   2.824 -0.2584  0.2751 -0.4766
 1018MOL0     H34334   3.213   6.417   2.632 -0.2013  0.9170 -1.2695
 1018MOL0     H34335   3.236   6.579   2.690  0.3683 -0.1745 -0.1328
 1018MOL0     H34336   3.444   6.422   2.536 -0.2731 -1.1564  2.7684
 1018MOL0     H34337   3.466   6.584   2.609  0.0802  1.9560 -1.0986
 1018MOL0     H34338   3.238   6.628   2.236 -0.3465 -0.8031 -0.1252
 1018MOL0     H34339   3.348   6.676   2.030 -4.3540 -2.6552  1.1732
 1018MOL0     H34340   3.742   6.921   1.880 -1.7637 -0.3331  1.1998
 1018MOL0     H34341   3.827   7.047   1.669  1.7254 -0.3232 -0.3972
 1018MOL0     H34342   3.766   6.910   1.245 -0.2174 -2.3974  2.1513
 1018MOL0     H34343   3.889   6.917   1.377 -1.7531 -1.1727  1.9603
 1018MOL0     H34344   3.897   7.172   1.330 -0.1968 -1.6569  0.9101
 1018MOL0     H34345   3.786   7.132   1.199 -0.1697 -0.0117  0.5131
 1018MOL0     H34346   3.956   6.969   1.107  0.2794  0.8359 -0.5685
 1018MOL0     H34347   4.064   7.012   1.244 -0.3733  1.7497  1.1757
 1018MOL0     H34348   3.976   7.165   0.999 -0.7232 -0.8005  1.1799
 1018MOL0     H34349   4.023   7.265   1.138 -1.5302 -0.8592  2.6553
 1018MOL0     H34350   4.172   7.056   0.972  1.2286 -1.0925  1.6103
 1018MOL0     H34351   4.232   7.085   1.125 -3.3607 -1.4840  2.0886
 1018MOL0     H34352   4.180   7.317   0.918 -0.3553 -0.7674  0.0778
 1018MOL0     H34353   4.317   7.221   0.899  1.5464  1.7646  0.7494
 1018MOL0     H34354   4.246   7.421   1.119 -1.6656 -1.4755 -0.3508
 1018MOL0     H34355   4.372   7.288   1.151  1.5726 -0.2967 -1.5850
 1018MOL0     H34356   4.455   7.527   1.080  0.3266 -1.7069  3.2497
 1018MOL0     H34357   4.398   7.502   0.917 -0.2154  0.4174  0.7598
 1018MOL0     H34358   3.566   6.807   1.433  0.0210  0.4912 -0.1430
 1018MOL0     H34359   3.470   6.717   1.652 -3.4245  4.0075  0.3477
 1018MOL0     H34360   3.725   6.595   2.230 -1.0478 -0.4335  1.0781
 1018MOL0     H34361   3.600   6.508   2.418  0.2508 -1.1527 -0.0217
 1018MOL0     H34362   2.138   6.277   3.604  0.6776 -0.5661  0.9609
 1018MOL0     H34363   2.066   6.118   3.773  0.9340  3.2020  1.4980
 1018MOL0     H34364   2.377   5.609   4.056 -2.8140 -1.2295 -2.8143
 1018MOL0     H34365   2.284   5.510   4.274 -2.1015  0.3976  1.7305
 1018MOL0     H34366   1.905   5.548   4.498  0.3479 -0.7905 -2.2338
 1018MOL0     H34367   1.895   5.683   4.385  1.5500  0.6246 -0.6224
 1018MOL0     H34368   1.986   5.682   4.671  1.0318 -3.0441 -1.1658
 1018MOL0     H34369   2.066   5.789   4.565 -1.5571  5.8309 -0.7350
 1018MOL0     H34370   1.754   5.765   4.613  0.1741 -2.3660 -1.6776
 1018MOL0     H34371   1.831   5.863   4.482 -0.6619 -0.1356 -0.3338
 1018MOL0     H34372   1.916   5.895   4.775 -0.3657 -1.5823 -0.9551
 1018MOL0     H34373   1.951   6.004   4.646  1.3967 -0.5339  1.6955
 1018MOL0     H34374   1.572   6.151   4.798  0.1258  1.4210 -0.2167
 1018MOL0     H34375   2.018   5.848   4.306  1.4598  1.0577  0.4357
 1018MOL0     H34376   2.084   5.920   4.080 -0.1562  0.5790  0.4812
 1019MOL0     O34377   0.525   6.541   3.073 -0.1468  0.4166  1.3870
 1019MOL0     C34378   0.524   6.600   2.965 -0.5796 -0.8535  0.1716
 1019MOL0     O34379   0.631   6.623   2.889 -0.5010  0.0392 -0.2944
 1019MOL0     C34380   0.759   6.639   2.934 -0.0675 -0.1131 -0.9248
 1019MOL0     C34381   0.854   6.651   2.830  0.0993 -0.1230 -0.9953
 1019MOL0     C34382   0.988   6.676   2.867 -0.5375 -0.8480 -0.1622
 1019MOL0     C34383   1.031   6.706   2.990 -0.1401 -0.1965  0.4228
 1019MOL0     O34384   1.167   6.723   3.006 -0.2673  0.9858  0.4745
 1019MOL0     C34385   1.227   6.766   3.125 -0.2908  1.1677  0.0025
 1019MOL0     C34386   1.382   6.763   3.101  0.8626  0.4971  1.5765
 1019MOL0     C34387   1.451   6.784   3.235 -0.5809 -0.5893  0.6705
 1019MOL0     C34388   1.605   6.818   3.224 -0.3778 -0.3483  0.4069
 1019MOL0     C34389   1.689   6.709   3.161 -0.3911  0.3364 -0.7372
 1019MOL0     C34390   1.688   6.711   3.003 -0.4131  0.5503 -0.4564
 1019MOL0     C34391   1.743   6.581   2.946  0.0521 -0.6517 -0.6774
 1019MOL0     C34392   1.730   6.574   2.796 -0.2963 -0.1686 -0.0119
 1019MOL0     N34393   1.598   6.540   2.734 -0.6213  0.2457  0.1197
 1019MOL0     C34394   1.493   6.466   2.774 -0.4057  0.1907  0.2572
 1019MOL0     C34395   1.408   6.475   2.670 -0.6593 -0.0633 -0.3882
 1019MOL0     C34396   1.268   6.420   2.684  0.3903 -0.3509  0.3642
 1019MOL0     C34397   1.246   6.267   2.714 -0.4065  0.2161 -0.2872
 1019MOL0     C34398   1.290   6.168   2.603 -0.3388 -0.1925  0.0855
 1019MOL0     C34399   1.376   6.055   2.661 -0.4001  0.3190  0.3514
 1019MOL0     O34400   1.492   6.117   2.734  0.6403  0.6146  0.5996
 1019MOL0     C34401   1.565   6.049   2.826 -0.4865  0.2391  0.5892
 1019MOL0     C34402   1.561   5.913   2.847 -0.2076 -0.0521  0.6295
 1019MOL0     C34403   1.655   5.846   2.924  0.6075 -0.2610 -0.8576
 1019MOL0     C34404   1.762   5.931   2.973  0.1246 -0.4441 -0.6718
 1019MOL0     C34405   1.851   5.869   3.071 -0.8631 -1.3075  0.8513
 1019MOL0     O34406   1.972   5.930   3.071 -0.4174  0.5772 -0.4265
 1019MOL0     C34407   2.058   5.881   3.159  0.2626  0.8780  0.8768
 1019MOL0     C34408   2.176   5.821   3.116 -0.5741 -0.6654  0.7865
 1019MOL0     C34409   2.272   5.759   3.203 -0.6733 -0.1708 -0.2026
 1019MOL0     C34410   2.243   5.762   3.330 -0.0819 -0.0243  0.4615
 1019MOL0     O34411   2.347   5.723   3.416 -0.1559  0.4402  0.0180
 1019MOL0     C34412   2.307   5.604   3.495 -0.2363  1.0610 -0.3092
 1019MOL0     C34413   2.410   5.579   3.604 -0.3468  0.2872  0.4395
 1019MOL0     C34414   2.482   5.438   3.590 -0.1808 -0.1556  0.3672
 1019MOL0     C34415   2.611   5.422   3.667 -0.1980  0.1772 -0.3319
 1019MOL0     C34416   2.571   5.415   3.822 -1.2649  0.1912  1.4072
 1019MOL0     C34417   2.706   5.400   3.911  0.4988 -0.2098  0.0102
 1019MOL0     C34418   2.685   5.463   4.050  0.3859  0.1023  0.1980
 1019MOL0     C34419   2.562   5.395   4.131 -0.7522 -0.1103 -0.1766
 1019MOL0    Cl34420   2.554   5.480   4.292 -0.2636 -0.3067 -0.1972
 1019MOL0     C34421   2.133   5.834   3.384 -0.4392 -0.1590 -0.4397
 1019MOL0     C34422   2.037   5.889   3.295 -0.1842 -0.6164 -0.4728
 1019MOL0     O34423   1.818   5.764   3.126 -0.1547  0.2488 -0.1987
 1019MOL0     C34424   1.771   6.074   2.955  0.0977  0.6967  0.3816
 1019MOL0     C34425   1.673   6.127   2.873 -0.4724 -0.0475 -0.6597
 1019MOL0     N34426   1.468   6.548   2.570  0.3450  0.2777  0.1922
 1019MOL0     N34427   1.578   6.586   2.608 -0.5145 -0.3823 -0.4942
 1019MOL0     C34428   0.940   6.702   3.096 -0.6572 -0.0414 -0.0722
 1019MOL0     C34429   0.806   6.659   3.069  0.0101  0.2632  0.8888
 1019MOL0     C34430   0.393   6.655   2.923 -0.4423  0.1405  0.0311
 1019MOL0     C34431   0.274   6.629   2.997 -0.0608  0.9353  0.5946
 1019MOL0     C34432   0.162   6.687   2.948  0.1359  0.2366 -0.6426
 1019MOL0     C34433   0.153   6.776   2.842  0.2387 -0.4319 -0.7515
 1019MOL0     O34434   0.037   6.834   2.829  0.5479  0.1319 -0.5746
 1019MOL0     C34435  -0.019   6.834   2.701  0.2324 -0.6683 -0.1697
 1019MOL0     C34436  -0.031   6.698   2.635 -0.7555  0.3514  0.2942
 1019MOL0     C34437  -0.108   6.585   2.711 -0.0284  1.2623  0.2145
 1019MOL0     C34438  -0.263   6.601   2.684  0.4119  0.1436  0.2872
 1019MOL0     C34439  -0.342   6.557   2.797  0.1151  0.0252 -0.4340
 1019MOL0     C34440  -0.427   6.530   2.880 -0.1720 -0.0515  0.3127
 1019MOL0     C34441   0.272   6.804   2.772 -0.0465 -0.4364  0.2847
 1019MOL0     C34442   0.389   6.737   2.807 -0.2876  0.1337  0.4695
 1019MOL0     H34443   0.829   6.656   2.725  1.5029 -1.3736 -1.4052
 1019MOL0     H34444   1.072   6.678   2.798 -0.1707 -3.4231  0.1200
 1019MOL0     H34445   1.191   6.695   3.200  0.3786  1.5460  0.6882
 1019MOL0     H34446   1.187   6.864   3.154 -2.8230  0.3770 -0.5317
 1019MOL0     H34447   1.419   6.852   3.050  0.9681 -1.0693 -1.2772
 1019MOL0     H34448   1.417   6.668   3.062 -0.0660  1.1525 -1.0360
 1019MOL0     H34449   1.428   6.697   3.298 -2.7508 -0.9366 -0.5333
 1019MOL0     H34450   1.409   6.877   3.276 -2.3282  0.0662 -2.3699
 1019MOL0     H34451   1.621   6.911   3.170  2.7194 -0.5128  0.8526
 1019MOL0     H34452   1.646   6.843   3.323  1.2560 -1.1243 -0.0311
 1019MOL0     H34453   1.658   6.612   3.200 -0.3575  0.3314 -0.7228
 1019MOL0     H34454   1.795   6.728   3.180 -0.2448 -1.5580  0.5609
 1019MOL0     H34455   1.754   6.795   2.978  1.9879 -1.8876 -3.0820
 1019MOL0     H34456   1.592   6.737   2.958  0.6951  0.4230 -3.1091
 1019MOL0     H34457   1.845   6.563   2.980  0.4221  0.2225 -1.2658
 1019MOL0     H34458   1.697   6.491   2.988 -0.2331 -1.5922 -2.8682
 1019MOL0     H34459   1.811   6.502   2.777  2.0621  1.9649  1.2722
 1019MOL0     H34460   1.786   6.654   2.745  2.6263 -0.2677  2.7188
 1019MOL0     H34461   1.481   6.407   2.864  1.4528  1.2513  1.2705
 1019MOL0     H34462   1.201   6.442   2.600 -0.3297 -0.1461  0.9874
 1019MOL0     H34463   1.220   6.470   2.768 -0.5641  0.2167 -0.5012
 1019MOL0     H34464   1.144   6.239   2.739  0.9776 -5.0569  0.6540
 1019MOL0     H34465   1.295   6.242   2.809  2.2210  2.6532 -0.8514
 1019MOL0     H34466   1.204   6.140   2.542 -0.4591  1.6974 -0.6948
 1019MOL0     H34467   1.350   6.235   2.541  0.7498 -2.0151 -0.9219
 1019MOL0     H34468   1.419   5.998   2.578  0.2417  1.4239 -0.1061
 1019MOL0     H34469   1.314   5.999   2.731  0.6341  0.8410  1.7440
 1019MOL0     H34470   1.478   5.853   2.812 -0.0735  0.4702 -0.6529
 1019MOL0     H34471   1.650   5.739   2.941 -1.8786 -0.1754 -0.6770
 1019MOL0     H34472   2.187   5.818   3.008  1.3378  0.0882  0.9225
 1019MOL0     H34473   2.363   5.721   3.159 -0.2707  0.3258  0.1835
 1019MOL0     H34474   2.304   5.524   3.420  0.5565  3.5809 -3.2521
 1019MOL0     H34475   2.212   5.601   3.549  2.3192 -3.8893  4.9713
 1019MOL0     H34476   2.366   5.601   3.702 -0.0787  1.3901  0.3296
 1019MOL0     H34477   2.495   5.648   3.593  1.3971 -1.5157  1.7290
 1019MOL0     H34478   2.496   5.420   3.483 -2.3639  4.2208 -0.8766
 1019MOL0     H34479   2.412   5.356   3.613 -3.9020  1.9407 -2.3818
 1019MOL0     H34480   2.653   5.326   3.636  3.2453  2.0986 -2.2387
 1019MOL0     H34481   2.683   5.498   3.635 -0.8400 -0.7225 -4.6078
 1019MOL0     H34482   2.511   5.325   3.839 -3.2106  1.7064  3.0441
 1019MOL0     H34483   2.502   5.496   3.845 -1.4481  0.2878  0.5234
 1019MOL0     H34484   2.782   5.441   3.843 -0.4121 -0.3079 -1.0866
 1019MOL0     H34485   2.729   5.295   3.928 -1.2747 -0.8650 -1.4006
 1019MOL0     H34486   2.777   5.455   4.108  2.3486  0.5383 -2.6827
 1019MOL0     H34487   2.673   5.570   4.029  1.3113 -0.3247 -3.0397
 1019MOL0     H34488   2.595   5.291   4.142  4.9909  1.3899 -0.0689
 1019MOL0     H34489   2.470   5.385   4.073 -0.1446 -0.3228 -1.1347
 1019MOL0     H34490   2.128   5.850   3.492  0.0953 -0.7726 -0.3155
 1019MOL0     H34491   1.960   5.956   3.331 -2.4237 -3.3913  0.2657
 1019MOL0     H34492   1.857   6.132   2.987 -1.4842  2.3913  1.7345
 1019MOL0     H34493   1.664   6.231   2.844 -1.1766 -0.0305 -0.4035
 1019MOL0     H34494   0.971   6.734   3.195 -1.5325  1.1295 -0.1487
 1019MOL0     H34495   0.744   6.656   3.158  1.4134  0.3458  1.9158
 1019MOL0     H34496   0.289   6.563   3.082 -4.1427  0.7464  1.3607
 1019MOL0     H34497   0.068   6.660   2.994  1.0076 -2.0676 -0.0705
 1019MOL0     H34498   0.044   6.904   2.645  1.3035 -1.4501  0.0125
 1019MOL0     H34499  -0.116   6.878   2.724  0.3137 -0.6947  0.2177
 1019MOL0     H34500  -0.068   6.698   2.532  1.0442  1.5263 -0.3946
 1019MOL0     H34501   0.066   6.649   2.624 -0.3680  1.5544 -2.7705
 1019MOL0     H34502  -0.065   6.581   2.812  1.9507 -3.1760 -0.5878
 1019MOL0     H34503  -0.100   6.485   2.668 -0.5796  1.2408  0.1567
 1019MOL0     H34504  -0.295   6.699   2.647 -1.2314 -1.0213 -1.5532
 1019MOL0     H34505  -0.291   6.531   2.605 -2.4707 -0.5460  1.7608
 1019MOL0     H34506  -0.492   6.500   2.959  4.9790 -1.1648  4.7616
 1019MOL0     H34507   0.267   6.881   2.695 -0.4108  0.6759  1.3811
 1019MOL0     H34508   0.471   6.743   2.737  1.6737 -2.6866  2.3212
 1020MOL0     O34509   0.614   0.572   7.961  0.6093  1.0119 -0.0034
 1020MOL0     C34510   0.639   0.491   7.865  0.2204  0.2339  0.2662
 1020MOL0     O34511   0.609   0.507   7.733 -0.0028 -0.2287 -0.7311
 1020MOL0     C34512   0.530   0.607   7.687  0.7843  0.4219  0.1873
 1020MOL0     C34513   0.421   0.666   7.751  1.1621 -0.1866  0.0977
 1020MOL0     C34514   0.349   0.773   7.699  0.7583 -0.4356 -0.2024
 1020MOL0     C34515   0.389   0.834   7.585  0.0087  0.0925 -0.0390
 1020MOL0     O34516   0.338   0.948   7.524  0.0936 -0.1960  0.5991
 1020MOL0     C34517   0.243   1.011   7.599  0.6558  0.2441 -0.6552
 1020MOL0     C34518   0.194   1.137   7.529  1.3884  0.6657  0.3906
 1020MOL0     C34519   0.049   1.170   7.556  0.0364 -0.0266  0.6351
 1020MOL0     C34520   0.033   1.252   7.691 -1.2144 -0.1027 -0.3769
 1020MOL0     C34521  -0.103   1.293   7.734  0.7151  0.1444  0.5868
 1020MOL0     C34522  -0.101   1.401   7.839  0.1295 -0.1403  0.1259
 1020MOL0     C34523  -0.031   1.542   7.804 -0.1982  0.2694 -0.1973
 1020MOL0     C34524   0.035   1.587   7.929  0.7122  0.4023  0.2577
 1020MOL0     N34525   0.064   1.732   7.938 -0.1990 -0.6143  0.6390
 1020MOL0     C34526  -0.033   1.833   7.963 -0.6228  0.9117  0.0638
 1020MOL0     C34527   0.024   1.945   7.927  0.1544  0.2406 -0.0858
 1020MOL0     C34528  -0.056   2.077   7.909 -0.5768  0.6738 -0.9882
 1020MOL0     C34529  -0.103   2.141   8.040 -0.1784 -0.1971 -0.8702
 1020MOL0     C34530   0.028   2.185   8.115  0.5673  0.7404  0.2981
 1020MOL0     C34531  -0.008   2.251   8.237  0.5614  0.7145 -0.0895
 1020MOL0     O34532   0.006   2.153   8.341 -0.3917 -0.0322 -0.5911
 1020MOL0     C34533  -0.022   2.199   8.465 -0.2443 -0.1348 -0.3852
 1020MOL0     C34534  -0.156   2.193   8.510 -0.8666  1.8542  0.1016
 1020MOL0     C34535  -0.185   2.236   8.639  0.0186 -0.2208  0.0254
 1020MOL0     C34536  -0.084   2.291   8.723 -0.6086  0.6111  0.1870
 1020MOL0     C34537  -0.121   2.344   8.857 -0.2265  0.8364  0.0427
 1020MOL0     O34538  -0.243   2.317   8.907 -0.1669  0.0615  0.1600
 1020MOL0     C34539  -0.295   2.379   9.016  0.1805  0.4162  0.2568
 1020MOL0     C34540  -0.425   2.419   9.017  1.0501 -0.2641 -0.3160
 1020MOL0     C34541  -0.491   2.472   9.127 -0.3565  0.4527 -0.7619
 1020MOL0     C34542  -0.419   2.490   9.244  0.7308 -0.4017 -0.1621
 1020MOL0     O34543  -0.462   2.551   9.353  0.9707 -0.2498 -0.0059
 1020MOL0     C34544  -0.590   2.530   9.414  0.5436 -0.3339 -0.2370
 1020MOL0     C34545  -0.625   2.655   9.485  0.6198 -0.5727  0.4034
 1020MOL0     C34546  -0.650   2.769   9.386 -0.1020 -0.8996  0.5403
 1020MOL0     C34547  -0.670   2.906   9.447  1.1750 -0.0273  0.2078
 1020MOL0     C34548  -0.803   2.918   9.527 -0.0324  0.4197 -0.3323
 1020MOL0     C34549  -0.810   3.039   9.616  0.4414  0.2537 -0.2954
 1020MOL0     C34550  -0.791   3.173   9.539  0.1704  0.0025  0.0019
 1020MOL0     C34551  -0.865   3.288   9.615 -0.2587  0.0354 -0.3205
 1020MOL0    Cl34552  -0.797   3.349   9.774  0.0939 -0.3808 -0.0079
 1020MOL0     C34553  -0.293   2.452   9.242  0.0560 -0.1309  0.0147
 1020MOL0     C34554  -0.232   2.394   9.135 -0.5141  0.0187  0.1819
 1020MOL0     O34555  -0.040   2.423   8.904 -1.5949 -0.4488 -0.6788
 1020MOL0     C34556   0.046   2.289   8.678 -0.6856 -0.4480 -0.4983
 1020MOL0     C34557   0.080   2.250   8.549  0.1042 -0.6334  0.4768
 1020MOL0     N34558   0.148   1.919   7.865  0.5054 -0.6383  0.5779
 1020MOL0     N34559   0.171   1.799   7.883 -0.2433 -0.3816  0.3914
 1020MOL0     C34560   0.499   0.780   7.519 -0.8778 -0.3019 -0.5434
 1020MOL0     C34561   0.571   0.670   7.573 -0.0742 -0.4601 -0.5277
 1020MOL0     C34562   0.711   0.367   7.906  0.5649 -0.1735  0.3065
 1020MOL0     C34563   0.770   0.288   7.805 -0.0913  0.4364  0.1489
 1020MOL0     C34564   0.846   0.179   7.837  0.2519  1.5143 -0.0785
 1020MOL0     C34565   0.856   0.136   7.973 -0.1648 -0.4179  0.5420
 1020MOL0     O34566   0.954   0.042   8.006  0.4018  0.2396  0.5810
 1020MOL0     C34567   0.984  -0.008   8.135 -0.2890  0.2364  0.9476
 1020MOL0     C34568   1.093   0.082   8.197 -0.8349 -1.0099  0.3165
 1020MOL0     C34569   1.236   0.023   8.158 -0.1146 -0.8176 -0.7795
 1020MOL0     C34570   1.295  -0.055   8.286 -0.3190 -0.4194 -0.2940
 1020MOL0     C34571   1.210  -0.162   8.320 -0.1486  1.0254  0.0951
 1020MOL0     C34572   1.135  -0.252   8.350  0.5676  0.1397  0.6026
 1020MOL0     C34573   0.806   0.206   8.073  0.6573  0.1753  0.2243
 1020MOL0     C34574   0.733   0.322   8.046 -0.3133  0.2487 -0.2410
 1020MOL0     H34575   0.393   0.632   7.850 -0.2996 -2.2283 -0.9496
 1020MOL0     H34576   0.257   0.789   7.755  0.4069 -0.8403 -0.6626
 1020MOL0     H34577   0.295   1.039   7.691  2.5057 -1.3024 -1.1608
 1020MOL0     H34578   0.167   0.936   7.621  2.2027 -1.1388  0.2105
 1020MOL0     H34579   0.191   1.115   7.422  1.5339  1.5856  0.1909
 1020MOL0     H34580   0.253   1.228   7.548 -0.8049  2.1800  0.3296
 1020MOL0     H34581  -0.015   1.083   7.573  1.1953 -1.2460 -0.8273
 1020MOL0     H34582   0.012   1.226   7.470 -2.3167 -0.6288  1.1952
 1020MOL0     H34583   0.083   1.190   7.766 -0.3204  2.2892  1.1133
 1020MOL0     H34584   0.093   1.344   7.689  2.4174 -2.0228  3.6504
 1020MOL0     H34585  -0.165   1.209   7.768  1.6418 -0.1850  1.5034
 1020MOL0     H34586  -0.154   1.337   7.647  1.4614 -1.3530 -0.6432
 1020MOL0     H34587  -0.045   1.360   7.923  0.4774  2.0197  0.9993
 1020MOL0     H34588  -0.205   1.423   7.862  0.4472 -1.9414  4.1815
 1020MOL0     H34589   0.038   1.547   7.719  1.2494 -1.3416  0.8028
 1020MOL0     H34590  -0.115   1.612   7.794  0.7106  1.8860  2.5195
 1020MOL0     H34591   0.130   1.533   7.931  0.4971 -0.1981 -2.6513
 1020MOL0     H34592  -0.018   1.570   8.024  0.2300  0.1238 -0.0604
 1020MOL0     H34593  -0.136   1.818   7.996 -0.5364  1.5720  0.6364
 1020MOL0     H34594  -0.142   2.056   7.844 -0.5478 -1.4984 -0.4260
 1020MOL0     H34595   0.015   2.143   7.860  0.8338  0.9892  1.3583
 1020MOL0     H34596  -0.173   2.083   8.100  2.1952 -2.3347  0.0452
 1020MOL0     H34597  -0.146   2.238   8.013 -1.9899 -1.2277 -1.8405
 1020MOL0     H34598   0.076   2.090   8.141 -2.2200 -0.1608  2.7383
 1020MOL0     H34599   0.097   2.238   8.048  1.7199 -2.5663 -1.3685
 1020MOL0     H34600  -0.113   2.280   8.229  0.6329  0.5591 -2.2230
 1020MOL0     H34601   0.054   2.338   8.260  1.4310 -0.1539  0.9222
 1020MOL0     H34602  -0.238   2.151   8.453  0.1717  1.4465 -1.1216
 1020MOL0     H34603  -0.289   2.236   8.670 -0.5546 -5.3291 -1.0224
 1020MOL0     H34604  -0.488   2.408   8.929 -2.7158  0.5651  2.0529
 1020MOL0     H34605  -0.591   2.513   9.125 -0.8798 -0.7473 -0.0162
 1020MOL0     H34606  -0.600   2.447   9.484 -1.1069  3.6419  4.9028
 1020MOL0     H34607  -0.669   2.509   9.342 -0.2583  0.3206  0.4304
 1020MOL0     H34608  -0.551   2.688   9.557 -0.7122 -0.7838  1.9247
 1020MOL0     H34609  -0.718   2.639   9.541  0.5805  0.6847  0.7213
 1020MOL0     H34610  -0.738   2.747   9.325  0.7133  0.1510 -1.0894
 1020MOL0     H34611  -0.565   2.774   9.316  1.3178  0.2192  2.2635
 1020MOL0     H34612  -0.583   2.934   9.508  2.8642 -3.7648 -0.2393
 1020MOL0     H34613  -0.678   2.979   9.366 -2.2932 -0.7707 -0.2853
 1020MOL0     H34614  -0.826   2.831   9.590 -2.3021 -0.5139 -2.2841
 1020MOL0     H34615  -0.891   2.925   9.462 -1.8080 -0.1881  1.8539
 1020MOL0     H34616  -0.740   3.030   9.700  0.4453  1.6453 -0.1297
 1020MOL0     H34617  -0.911   3.037   9.658  0.8140  2.2338  0.7876
 1020MOL0     H34618  -0.685   3.193   9.525  0.2187 -0.4415 -0.2933
 1020MOL0     H34619  -0.833   3.154   9.440  0.7589 -1.6828  0.0385
 1020MOL0     H34620  -0.970   3.267   9.634  0.3321 -2.2958  0.6686
 1020MOL0     H34621  -0.861   3.371   9.543  1.9636  1.8300  1.6987
 1020MOL0     H34622  -0.234   2.474   9.331 -0.0482  2.2124 -0.4263
 1020MOL0     H34623  -0.132   2.351   9.145 -1.8314 -3.4308 -0.1519
 1020MOL0     H34624   0.130   2.324   8.738 -2.8532  0.9866  1.9103
 1020MOL0     H34625   0.181   2.249   8.509  0.6481 -2.3141  1.7747
 1020MOL0     H34626   0.528   0.821   7.423  1.6224 -1.6414 -0.4437
 1020MOL0     H34627   0.655   0.648   7.507  0.0621  1.4339 -1.0535
 1020MOL0     H34628   0.760   0.308   7.699  0.2910  0.4294  0.1112
 1020MOL0     H34629   0.917   0.145   7.762 -0.0839  2.5033 -0.8817
 1020MOL0     H34630   1.003  -0.116   8.136 -0.1778  0.2379  2.8186
 1020MOL0     H34631   0.895   0.007   8.197 -0.6681  4.7128 -0.3958
 1020MOL0     H34632   1.082   0.182   8.154 -2.3056 -1.4679 -0.4659
 1020MOL0     H34633   1.088   0.104   8.305  3.1940 -4.0417  1.3566
 1020MOL0     H34634   1.306   0.101   8.127  0.0679  0.0918  1.6800
 1020MOL0     H34635   1.235  -0.049   8.076  1.9084  0.2469 -1.8152
 1020MOL0     H34636   1.398  -0.082   8.260  1.3433  2.1130  2.8131
 1020MOL0     H34637   1.305   0.019   8.367  3.6342 -0.9582 -0.0582
 1020MOL0     H34638   1.074  -0.336   8.375 -1.2434 -0.3110 -4.3126
 1020MOL0     H34639   0.802   0.171   8.175  1.6557 -0.1782  0.1500
 1020MOL0     H34640   0.691   0.381   8.127 -3.2013 -2.0165  0.0680
 1021MOL0     O34641   0.279   3.603   0.132 -0.4805  0.3326  0.3343
 1021MOL0     C34642   0.192   3.694   0.136  0.6843  0.6388  0.3702
 1021MOL0     O34643   0.191   3.806   0.053  0.1383  0.4695 -0.3872
 1021MOL0     C34644   0.265   3.796  -0.065 -1.0094  0.3095  0.5871
 1021MOL0     C34645   0.217   3.715  -0.172  0.1229 -0.4852 -0.7071
 1021MOL0     C34646   0.299   3.697  -0.285 -0.2225 -0.3301 -0.7282
 1021MOL0     C34647   0.428   3.760  -0.291 -0.4380 -0.1305 -0.4047
 1021MOL0     O34648   0.503   3.725  -0.400  0.5646  0.5122 -0.3722
 1021MOL0     C34649   0.634   3.755  -0.409 -0.4089  0.7887  0.8591
 1021MOL0     C34650   0.679   3.714  -0.550 -0.5901 -0.4713  1.0707
 1021MOL0     C34651   0.671   3.817  -0.673  0.6655  0.0441 -1.1651
 1021MOL0     C34652   0.761   3.772  -0.787  0.4318 -0.2740  0.0989
 1021MOL0     C34653   0.722   3.835  -0.915 -1.3085 -0.4295  0.3249
 1021MOL0     C34654   0.812   3.782  -1.025  0.0172  0.3365  0.1347
 1021MOL0     C34655   0.805   3.877  -1.148 -0.0918 -0.1388  0.9631
 1021MOL0     C34656   0.906   3.982  -1.135 -0.0286 -0.8706 -0.0728
 1021MOL0     N34657   0.867   4.122  -1.150 -0.4966 -0.5024  0.0831
 1021MOL0     C34658   0.950   4.221  -1.199  0.6329 -0.0101  0.3841
 1021MOL0     C34659   0.860   4.327  -1.222 -0.3550  0.1300 -0.0831
 1021MOL0     C34660   0.890   4.467  -1.270 -0.3356  0.9225  0.0596
 1021MOL0     C34661   0.851   4.466  -1.408  0.0599  0.2522  0.5467
 1021MOL0     C34662   0.862   4.596  -1.476 -0.1587 -0.7127 -0.0987
 1021MOL0     C34663   1.004   4.660  -1.458  0.2905 -0.9731  0.7266
 1021MOL0     O34664   1.020   4.769  -1.551 -0.6637  0.4439 -0.4106
 1021MOL0     C34665   1.124   4.855  -1.537  0.3957 -0.6010  0.4676
 1021MOL0     C34666   1.087   4.991  -1.568  0.0067  0.4907 -1.6411
 1021MOL0     C34667   1.183   5.094  -1.574  0.4711  0.8437  0.3150
 1021MOL0     C34668   1.316   5.064  -1.563 -0.2178 -0.1786 -0.3905
 1021MOL0     C34669   1.411   5.180  -1.570  0.4100  0.2867 -0.9582
 1021MOL0     O34670   1.543   5.147  -1.598 -0.5866  0.6290 -0.1018
 1021MOL0     C34671   1.650   5.238  -1.607  0.3528  0.0764 -1.2694
 1021MOL0     C34672   1.636   5.377  -1.643  0.6959 -0.6739 -1.2624
 1021MOL0     C34673   1.746   5.457  -1.654  0.3259  0.1101 -0.7724
 1021MOL0     C34674   1.873   5.411  -1.617 -0.0924 -0.4889 -0.5435
 1021MOL0     O34675   1.979   5.504  -1.613 -0.0203  0.0974 -0.0646
 1021MOL0     C34676   2.111   5.460  -1.618 -0.3293 -0.4645 -0.2425
 1021MOL0     C34677   2.174   5.547  -1.731  0.6801 -0.0184 -0.2362
 1021MOL0     C34678   2.321   5.558  -1.726 -0.2155  0.3358 -0.3319
 1021MOL0     C34679   2.387   5.416  -1.723  0.9248  1.1179 -0.5933
 1021MOL0     C34680   2.533   5.430  -1.749  0.6306  1.2249  0.7555
 1021MOL0     C34681   2.625   5.298  -1.754  1.1133 -0.4594 -1.1027
 1021MOL0     C34682   2.755   5.351  -1.798 -0.4010  0.5072 -0.0773
 1021MOL0     C34683   2.877   5.255  -1.793  0.6247  0.2578 -0.2460
 1021MOL0    Cl34684   2.926   5.247  -1.629 -0.3195  0.1678 -0.0238
 1021MOL0     C34685   1.889   5.282  -1.571  0.1364  0.5039 -0.2019
 1021MOL0     C34686   1.774   5.193  -1.575  0.4814 -0.1917  0.6826
 1021MOL0     O34687   1.371   5.295  -1.559  0.3866 -0.6743  1.0244
 1021MOL0     C34688   1.354   4.928  -1.538 -0.1875  0.7367 -0.4695
 1021MOL0     C34689   1.258   4.824  -1.536  0.7887  0.6935  0.0685
 1021MOL0     N34690   0.731   4.291  -1.175 -0.2791  0.7473  0.5682
 1021MOL0     N34691   0.737   4.162  -1.140 -0.9143 -0.9373  0.2713
 1021MOL0     C34692   0.468   3.849  -0.178  0.3118  0.6574  0.1950
 1021MOL0     C34693   0.389   3.858  -0.070  0.0602  0.4036  0.5219
 1021MOL0     C34694   0.095   3.682   0.249  0.6012 -0.0792  0.1339
 1021MOL0     C34695  -0.001   3.788   0.268 -0.4570  0.1750  0.2844
 1021MOL0     C34696  -0.093   3.780   0.371  0.7293  0.0025 -0.5313
 1021MOL0     C34697  -0.087   3.675   0.454 -0.4590  0.4401 -0.2833
 1021MOL0     O34698  -0.175   3.683   0.560 -0.3265  0.5756  0.1650
 1021MOL0     C34699  -0.209   3.575   0.633  0.4128 -0.6365  0.8557
 1021MOL0     C34700  -0.334   3.588   0.707 -1.4169  0.5613  0.1369
 1021MOL0     C34701  -0.326   3.697   0.818 -0.5478  0.3110 -0.4833
 1021MOL0     C34702  -0.378   3.648   0.952  0.7149  0.2416  0.0493
 1021MOL0     C34703  -0.311   3.530   1.007 -0.2292  0.5512 -0.7675
 1021MOL0     C34704  -0.250   3.436   1.043  0.7138  0.4975  0.5168
 1021MOL0     C34705   0.006   3.576   0.445  0.3579 -0.1765  0.4281
 1021MOL0     C34706   0.093   3.576   0.339  0.1570  0.2125 -1.0201
 1021MOL0     H34707   0.129   3.652  -0.170 -0.6380  0.5809  0.5885
 1021MOL0     H34708   0.283   3.621  -0.360  2.5630 -1.7361 -0.0418
 1021MOL0     H34709   0.686   3.686  -0.343  1.8402  0.6375 -0.9600
 1021MOL0     H34710   0.668   3.857  -0.388  0.0849  0.5013  1.4970
 1021MOL0     H34711   0.627   3.624  -0.586 -0.4470 -0.1989  0.1594
 1021MOL0     H34712   0.783   3.682  -0.545 -0.6761 -0.6368  1.9376
 1021MOL0     H34713   0.697   3.917  -0.637  3.5070 -1.1821  0.4529
 1021MOL0     H34714   0.572   3.807  -0.719  1.5253  3.5478 -4.2812
 1021MOL0     H34715   0.862   3.812  -0.775  0.8742  0.3647 -4.1802
 1021MOL0     H34716   0.754   3.663  -0.789 -0.2677 -0.2829  1.6488
 1021MOL0     H34717   0.747   3.941  -0.902  3.8988 -1.6165  2.8900
 1021MOL0     H34718   0.616   3.818  -0.935 -2.3773  0.8357  4.0304
 1021MOL0     H34719   0.777   3.682  -1.052  2.8094 -1.0371  1.2134
 1021MOL0     H34720   0.918   3.765  -1.003  0.1811 -1.9072 -1.8930
 1021MOL0     H34721   0.833   3.833  -1.245 -0.8136  0.7891  0.3174
 1021MOL0     H34722   0.702   3.915  -1.158  0.6417  1.9154  0.7187
 1021MOL0     H34723   0.991   3.952  -1.197  0.0904 -1.8086  0.5197
 1021MOL0     H34724   0.939   3.970  -1.031 -2.6476 -4.5795  0.5362
 1021MOL0     H34725   1.056   4.236  -1.217  0.8270  2.1621  2.8390
 1021MOL0     H34726   0.998   4.484  -1.266 -0.3486  0.8488  0.7782
 1021MOL0     H34727   0.841   4.549  -1.215 -3.8680  0.3616 -1.9209
 1021MOL0     H34728   0.743   4.449  -1.412 -0.1621  1.3443  1.4369
 1021MOL0     H34729   0.905   4.396  -1.472 -0.7338  1.0719 -1.0960
 1021MOL0     H34730   0.839   4.579  -1.581 -3.1099  0.6813  0.2149
 1021MOL0     H34731   0.789   4.668  -1.438  1.7121  0.0649  2.3172
 1021MOL0     H34732   1.089   4.593  -1.468  2.6749  1.9408  0.3299
 1021MOL0     H34733   0.992   4.712  -1.362 -2.1717 -2.0981  1.1080
 1021MOL0     H34734   0.981   5.011  -1.576 -0.5083 -1.6201 -0.8855
 1021MOL0     H34735   1.141   5.192  -1.595  0.1917  1.0262  1.6474
 1021MOL0     H34736   1.545   5.421  -1.683  2.1048  0.2294 -3.6925
 1021MOL0     H34737   1.735   5.561  -1.685  0.4835  0.2197 -0.4696
 1021MOL0     H34738   2.132   5.355  -1.640 -1.2770 -1.3433  2.6069
 1021MOL0     H34739   2.163   5.488  -1.526  1.9125 -3.0980 -0.5957
 1021MOL0     H34740   2.121   5.643  -1.736 -1.9851 -1.2799  1.2525
 1021MOL0     H34741   2.160   5.488  -1.822  1.1900  0.9715 -0.9775
 1021MOL0     H34742   2.338   5.616  -1.635  0.7766  2.1442 -1.6056
 1021MOL0     H34743   2.358   5.614  -1.812  0.6326  0.3526  0.0276
 1021MOL0     H34744   2.362   5.360  -1.633 -1.0555  1.9068 -0.6207
 1021MOL0     H34745   2.330   5.362  -1.799 -0.5458  0.1797  1.1063
 1021MOL0     H34746   2.571   5.501  -1.674 -1.3344 -0.9749  4.1012
 1021MOL0     H34747   2.525   5.476  -1.847 -4.0652  0.1243  0.3905
 1021MOL0     H34748   2.593   5.219  -1.823  0.6216  0.0281 -1.4367
 1021MOL0     H34749   2.635   5.261  -1.651 -2.1748 -0.0862 -0.5339
 1021MOL0     H34750   2.743   5.374  -1.904  0.2039  1.4068  0.0445
 1021MOL0     H34751   2.784   5.440  -1.742  0.3724 -0.2275  0.7164
 1021MOL0     H34752   2.961   5.279  -1.859  2.1814  0.3959  1.6794
 1021MOL0     H34753   2.840   5.158  -1.826  1.3907  0.4705 -1.7947
 1021MOL0     H34754   1.974   5.215  -1.559 -1.9059 -2.8734 -2.5484
 1021MOL0     H34755   1.791   5.094  -1.536  1.3771 -0.2340  0.2070
 1021MOL0     H34756   1.456   4.891  -1.533 -0.3952  0.1445 -0.5568
 1021MOL0     H34757   1.280   4.719  -1.547 -0.8557  0.4132 -0.8762
 1021MOL0     H34758   0.559   3.907  -0.184  0.5943  0.1112 -1.1114
 1021MOL0     H34759   0.426   3.922   0.010 -1.3533  0.7750  0.9174
 1021MOL0     H34760   0.008   3.871   0.198  1.3091 -1.9662 -2.2503
 1021MOL0     H34761  -0.162   3.863   0.380  3.4470  2.3832 -0.0314
 1021MOL0     H34762  -0.134   3.541   0.706 -2.1679 -4.2490  2.0822
 1021MOL0     H34763  -0.203   3.487   0.568  2.7212  0.2192 -0.1945
 1021MOL0     H34764  -0.419   3.627   0.649 -1.5121  2.9118  1.6992
 1021MOL0     H34765  -0.355   3.488   0.746  2.2577 -0.3434  0.0913
 1021MOL0     H34766  -0.383   3.785   0.787  1.4280  1.5357 -0.8147
 1021MOL0     H34767  -0.219   3.719   0.811  0.0473 -2.1050  0.0064
 1021MOL0     H34768  -0.377   3.726   1.029 -2.4501  0.6155 -0.1583
 1021MOL0     H34769  -0.480   3.617   0.932  1.3202  0.4986 -4.2900
 1021MOL0     H34770  -0.196   3.346   1.063  1.4747  1.1774  1.6083
 1021MOL0     H34771   0.005   3.488   0.509  2.5063  0.0675  0.8803
 1021MOL0     H34772   0.163   3.494   0.331  0.4802  0.3040  0.5888
 1022MOL0     O34773  10.351   8.454   5.136  0.2330  0.1308  0.6586
 1022MOL0     C34774  10.448   8.426   5.074 -0.5256 -0.1516  0.4801
 1022MOL0     O34775  10.463   8.452   4.941 -0.4724  0.8623 -0.4843
 1022MOL0     C34776  10.373   8.537   4.870 -0.3034 -0.9344  0.0745
 1022MOL0     C34777  10.324   8.660   4.909 -0.0241 -0.1279 -0.8911
 1022MOL0     C34778  10.216   8.728   4.851 -0.3210 -0.9354  1.0412
 1022MOL0     C34779  10.148   8.674   4.737 -0.6983 -0.3526 -0.1787
 1022MOL0     O34780  10.051   8.731   4.670  0.6088  0.1935  0.7103
 1022MOL0     C34781   9.922   8.707   4.728 -0.3225 -0.3476  0.0748
 1022MOL0     C34782   9.826   8.787   4.642  0.4818  0.8085  0.8314
 1022MOL0     C34783   9.679   8.745   4.663  0.3137 -0.0457 -0.1837
 1022MOL0     C34784   9.595   8.824   4.557  0.4303  0.6058 -0.4995
 1022MOL0     C34785   9.442   8.815   4.583 -0.6782  0.1272 -0.2218
 1022MOL0     C34786   9.369   8.692   4.543  0.8077  0.2340  0.8241
 1022MOL0     C34787   9.225   8.724   4.561  0.9217  0.2460 -0.4313
 1022MOL0     C34788   9.142   8.596   4.577 -0.2663  0.3217 -0.1839
 1022MOL0     N34789   9.000   8.624   4.608 -0.1649 -0.7848 -0.1583
 1022MOL0     C34790   8.919   8.533   4.674 -0.3304  0.1669 -0.5573
 1022MOL0     C34791   8.791   8.572   4.659  0.1855 -0.2091  0.2752
 1022MOL0     C34792   8.667   8.510   4.696 -0.0177 -0.9290  0.2596
 1022MOL0     C34793   8.597   8.447   4.584 -0.8234 -0.1885  0.2178
 1022MOL0     C34794   8.662   8.322   4.535  1.5039  0.7301 -0.1668
 1022MOL0     C34795   8.563   8.254   4.437 -0.2302  0.2652 -0.8292
 1022MOL0     O34796   8.634   8.134   4.412  0.4835  0.2306 -0.1846
 1022MOL0     C34797   8.582   8.029   4.355  0.7249  0.2742 -0.4244
 1022MOL0     C34798   8.674   7.915   4.366  0.5886 -0.2425 -0.1155
 1022MOL0     C34799   8.632   7.794   4.305 -0.2876  0.3557  0.1729
 1022MOL0     C34800   8.508   7.786   4.236 -0.5385  0.1141  0.1459
 1022MOL0     C34801   8.459   7.654   4.181 -0.7663  0.2771  0.2215
 1022MOL0     O34802   8.555   7.556   4.155 -0.8776  0.3440 -0.7862
 1022MOL0     C34803   8.528   7.435   4.092  0.0599 -0.0311 -0.4667
 1022MOL0     C34804   8.431   7.416   3.996 -0.5091  0.6132 -1.3756
 1022MOL0     C34805   8.430   7.293   3.917 -0.0330 -0.2588 -0.2827
 1022MOL0     C34806   8.514   7.184   3.947  0.4880 -0.4985 -0.2356
 1022MOL0     O34807   8.508   7.074   3.862  0.7669  0.1735  0.4690
 1022MOL0     C34808   8.575   6.953   3.900  0.2807  0.4621 -0.5651
 1022MOL0     C34809   8.600   6.856   3.785  0.2318 -0.6839  0.4511
 1022MOL0     C34810   8.463   6.803   3.719  0.2852 -0.1201 -0.4514
 1022MOL0     C34811   8.487   6.707   3.600 -0.3918 -0.2640  0.4908
 1022MOL0     C34812   8.390   6.594   3.603 -0.9750  0.3160 -0.0298
 1022MOL0     C34813   8.282   6.610   3.498 -0.2799  0.5076 -0.0933
 1022MOL0     C34814   8.188   6.723   3.539 -0.5346  0.5262  0.4396
 1022MOL0     C34815   8.071   6.714   3.441 -0.9121  0.3972 -1.2435
 1022MOL0    Cl34816   8.131   6.749   3.285 -0.0136 -0.2018 -0.4232
 1022MOL0     C34817   8.593   7.199   4.064  0.7892 -0.0150 -0.2726
 1022MOL0     C34818   8.604   7.325   4.122  0.7988  0.3905 -0.5076
 1022MOL0     O34819   8.338   7.631   4.174 -0.0072 -0.7601  1.1445
 1022MOL0     C34820   8.420   7.886   4.231 -0.4832  0.1498 -0.7756
 1022MOL0     C34821   8.458   8.007   4.290  0.2411  1.0279  0.0240
 1022MOL0     N34822   8.790   8.686   4.585  0.5912 -0.5313  0.6389
 1022MOL0     N34823   8.921   8.718   4.568 -0.7552  0.9517 -0.1237
 1022MOL0     C34824  10.208   8.556   4.686  0.7510  0.6715  0.1686
 1022MOL0     C34825  10.315   8.490   4.751 -0.2016 -0.1889 -0.7764
 1022MOL0     C34826  10.560   8.362   5.139  0.4772  0.7149  0.5446
 1022MOL0     C34827  10.682   8.340   5.067  0.2165  0.3191 -0.5685
 1022MOL0     C34828  10.786   8.262   5.119  0.1731  0.6004  0.3495
 1022MOL0     C34829  10.779   8.207   5.246 -0.3207  0.9007  0.4591
 1022MOL0     O34830  10.872   8.124   5.303  0.4715 -0.7147 -1.5853
 1022MOL0     C34831  10.992   8.098   5.236 -0.7128  0.4018 -0.0487
 1022MOL0     C34832  11.083   8.019   5.326  1.0231 -0.4999 -0.8846
 1022MOL0     C34833  11.244   8.052   5.295 -0.1931 -0.2862  0.1513
 1022MOL0     C34834  11.320   8.058   5.433 -0.1148  0.8033  0.0367
 1022MOL0     C34835  11.445   8.130   5.402  0.5823  0.1999 -1.1642
 1022MOL0     C34836  11.550   8.187   5.373  0.0427  0.1947 -0.5041
 1022MOL0     C34837  10.674   8.253   5.325  0.3678 -0.3798 -0.2778
 1022MOL0     C34838  10.563   8.326   5.277 -0.7845 -0.8246 -0.2923
 1022MOL0     H34839  10.379   8.693   4.997  1.2643 -1.0660 -1.3061
 1022MOL0     H34840  10.185   8.824   4.891  4.6968  0.8291  1.3730
 1022MOL0     H34841   9.914   8.737   4.833  0.1540  0.6431 -0.1677
 1022MOL0     H34842   9.900   8.599   4.725  0.6473 -0.5472 -0.1215
 1022MOL0     H34843   9.857   8.779   4.537 -0.1578 -1.9644  0.7711
 1022MOL0     H34844   9.843   8.889   4.677 -1.7161  0.9599  1.6191
 1022MOL0     H34845   9.638   8.776   4.760 -2.8401 -0.4339 -1.2795
 1022MOL0     H34846   9.669   8.636   4.653  1.0328 -0.0846 -0.5130
 1022MOL0     H34847   9.628   8.927   4.538  0.5369  0.4803 -1.0045
 1022MOL0     H34848   9.614   8.766   4.466 -3.8489 -1.5709 -0.2602
 1022MOL0     H34849   9.398   8.897   4.526  2.3244  2.7917  1.0299
 1022MOL0     H34850   9.421   8.833   4.688  0.7698 -2.8788  0.7101
 1022MOL0     H34851   9.402   8.605   4.600 -1.3556 -0.0983  1.6409
 1022MOL0     H34852   9.391   8.678   4.436  0.7429  1.5538  0.6124
 1022MOL0     H34853   9.214   8.797   4.641  1.2280  0.8967 -0.9762
 1022MOL0     H34854   9.193   8.785   4.476  0.7167 -0.5460 -0.9330
 1022MOL0     H34855   9.199   8.555   4.660 -0.1478 -0.3155 -0.5701
 1022MOL0     H34856   9.156   8.529   4.491 -2.1053 -1.2038  0.6244
 1022MOL0     H34857   8.948   8.439   4.720 -0.7614  0.6570  0.7697
 1022MOL0     H34858   8.604   8.590   4.735  2.1446  0.6484  0.6811
 1022MOL0     H34859   8.684   8.443   4.781  2.0591  1.6988  2.0685
 1022MOL0     H34860   8.579   8.530   4.515  0.1393  0.1507  0.3590
 1022MOL0     H34861   8.498   8.423   4.624 -0.5433  2.1703  2.6439
 1022MOL0     H34862   8.751   8.347   4.476  0.3729  1.9780 -1.4041
 1022MOL0     H34863   8.696   8.253   4.613  2.1371 -2.3993 -2.9681
 1022MOL0     H34864   8.547   8.306   4.343 -2.1022 -1.1316 -1.3165
 1022MOL0     H34865   8.472   8.233   4.493 -0.4400  0.9800 -0.8987
 1022MOL0     H34866   8.762   7.918   4.428  1.8830 -0.8840 -1.8535
 1022MOL0     H34867   8.692   7.705   4.315 -2.3900 -1.4336 -1.9551
 1022MOL0     H34868   8.361   7.497   3.977 -0.8361  0.6971  0.0717
 1022MOL0     H34869   8.349   7.273   3.847 -1.2399  1.6239  0.4998
 1022MOL0     H34870   8.518   6.909   3.983  1.7305  0.0058  0.2291
 1022MOL0     H34871   8.673   6.973   3.944  1.7723 -2.9315 -1.9733
 1022MOL0     H34872   8.657   6.768   3.817  2.3396 -0.3178 -1.9612
 1022MOL0     H34873   8.662   6.912   3.715  0.0174  0.6218  1.2806
 1022MOL0     H34874   8.410   6.893   3.687  0.0010  0.2796  1.0778
 1022MOL0     H34875   8.401   6.757   3.797  1.6525  1.8512  1.9520
 1022MOL0     H34876   8.478   6.770   3.511 -3.3406 -3.0132 -1.3821
 1022MOL0     H34877   8.585   6.658   3.604 -0.5982 -1.0804 -2.2221
 1022MOL0     H34878   8.338   6.570   3.696 -0.7705  1.1375  0.3100
 1022MOL0     H34879   8.460   6.510   3.592  1.3135  1.6654  2.7406
 1022MOL0     H34880   8.237   6.514   3.474  1.8057 -0.3962 -0.5979
 1022MOL0     H34881   8.332   6.636   3.405 -2.3011 -1.2264 -1.7626
 1022MOL0     H34882   8.148   6.710   3.640 -0.9027  3.2785  0.7326
 1022MOL0     H34883   8.241   6.819   3.535 -2.1627  1.4125 -0.8162
 1022MOL0     H34884   7.994   6.789   3.460 -1.9852 -0.9754  0.0699
 1022MOL0     H34885   8.015   6.620   3.439 -1.3243 -0.0303  5.9273
 1022MOL0     H34886   8.656   7.120   4.103  1.1572  0.4239  0.0287
 1022MOL0     H34887   8.678   7.321   4.201  1.2121 -2.7010 -0.9135
 1022MOL0     H34888   8.319   7.880   4.192 -1.6753  0.8124  1.9797
 1022MOL0     H34889   8.400   8.097   4.273 -1.5264  0.5564  2.8878
 1022MOL0     H34890  10.166   8.516   4.595  2.1331 -2.2019  0.6793
 1022MOL0     H34891  10.349   8.399   4.701  2.8425  1.1947 -1.4747
 1022MOL0     H34892  10.684   8.355   4.960 -1.0783 -1.3799 -0.8677
 1022MOL0     H34893  10.864   8.248   5.045  1.4014  1.4050  1.4484
 1022MOL0     H34894  11.040   8.191   5.205 -1.8985  2.0351  2.6948
 1022MOL0     H34895  10.961   8.033   5.153  0.8038 -1.7414  0.9665
 1022MOL0     H34896  11.053   8.040   5.429 -2.6543 -0.2169 -1.8637
 1022MOL0     H34897  11.067   7.911   5.327  0.7388 -0.4690  1.1244
 1022MOL0     H34898  11.258   8.150   5.251 -0.6311 -0.9610 -1.5511
 1022MOL0     H34899  11.288   7.978   5.228  1.2394  0.1369  0.5788
 1022MOL0     H34900  11.261   8.111   5.508 -1.3800 -0.1198 -0.2680
 1022MOL0     H34901  11.329   7.959   5.478  1.9500  1.0319  0.1991
 1022MOL0     H34902  11.639   8.242   5.352  0.4699 -0.4828 -0.5037
 1022MOL0     H34903  10.682   8.223   5.430 -1.5621 -4.8627 -1.1767
 1022MOL0     H34904  10.480   8.361   5.338  1.3497  3.2643  0.6524
 1023MOL0     O34905   2.240   6.194   4.838  0.9244 -0.1341  0.9554
 1023MOL0     C34906   2.141   6.264   4.826  0.1131  0.4797 -0.4389
 1023MOL0     O34907   2.115   6.345   4.719  0.0635  0.1045  0.0431
 1023MOL0     C34908   2.216   6.367   4.632 -0.2785 -0.1904 -0.0985
 1023MOL0     C34909   2.234   6.277   4.524 -0.2958  0.5076 -0.7797
 1023MOL0     C34910   2.325   6.306   4.425  0.3053 -0.1301  0.2404
 1023MOL0     C34911   2.408   6.418   4.431  0.5047 -0.6338  0.7843
 1023MOL0     O34912   2.504   6.464   4.347  0.6405  0.2958 -0.2200
 1023MOL0     C34913   2.553   6.367   4.257 -0.4275  0.1566 -0.1723
 1023MOL0     C34914   2.655   6.427   4.162 -0.4618  0.0812 -0.8741
 1023MOL0     C34915   2.784   6.491   4.233  0.8351  0.7209  0.4185
 1023MOL0     C34916   2.868   6.374   4.295  0.3569  0.2266 -0.0212
 1023MOL0     C34917   3.006   6.417   4.346 -0.5407  0.7331 -0.2154
 1023MOL0     C34918   3.087   6.290   4.377  0.2376 -0.3097 -0.4686
 1023MOL0     C34919   3.247   6.295   4.390  0.4318 -0.1707 -0.1567
 1023MOL0     C34920   3.306   6.404   4.481  0.1016 -0.0474 -0.9314
 1023MOL0     N34921   3.446   6.380   4.496 -0.4866 -0.0049  0.3060
 1023MOL0     C34922   3.539   6.433   4.411 -0.0177  1.0879  0.7430
 1023MOL0     C34923   3.657   6.371   4.458  1.0572  0.8904  0.2967
 1023MOL0     C34924   3.791   6.405   4.403 -0.4890 -0.7099 -0.4197
 1023MOL0     C34925   3.881   6.498   4.487  0.6508  0.6630 -0.4267
 1023MOL0     C34926   3.937   6.619   4.418  0.6721 -0.6462  0.7112
 1023MOL0     C34927   4.037   6.701   4.493 -0.3752 -0.2042  0.6198
 1023MOL0     O34928   4.090   6.809   4.415 -0.0032  0.1294  0.2664
 1023MOL0     C34929   4.172   6.908   4.473  0.7778  0.4134 -0.6763
 1023MOL0     C34930   4.251   6.881   4.592 -0.6958 -0.4266 -0.4892
 1023MOL0     C34931   4.344   6.974   4.645  0.5445  0.0516 -0.0261
 1023MOL0     C34932   4.355   7.093   4.575 -0.5353  0.2738  0.3190
 1023MOL0     C34933   4.464   7.199   4.611 -0.4467  0.4241  0.4357
 1023MOL0     O34934   4.423   7.329   4.597  0.0253 -0.0636 -0.3318
 1023MOL0     C34935   4.518   7.424   4.613  0.2073  0.1353  1.1529
 1023MOL0     C34936   4.512   7.501   4.725  0.7982 -1.1545  0.7432
 1023MOL0     C34937   4.600   7.607   4.745 -1.3047  0.1456 -0.1055
 1023MOL0     C34938   4.691   7.638   4.640 -0.5448  0.5933 -0.0987
 1023MOL0     O34939   4.765   7.749   4.615  0.0804 -0.4615  0.3333
 1023MOL0     C34940   4.874   7.756   4.699 -0.0921  0.3427 -0.9200
 1023MOL0     C34941   5.003   7.693   4.663 -0.5466 -0.4148  0.1358
 1023MOL0     C34942   5.066   7.780   4.544  0.2358 -0.3116 -0.3211
 1023MOL0     C34943   5.183   7.700   4.475  0.0993  0.1512  0.4338
 1023MOL0     C34944   5.291   7.786   4.417 -0.3422 -0.7027  0.1880
 1023MOL0     C34945   5.238   7.893   4.318 -1.2532  0.4430 -0.3781
 1023MOL0     C34946   5.163   7.812   4.209 -0.1468  0.0858 -0.9115
 1023MOL0     C34947   5.144   7.902   4.090 -0.1243 -0.7421 -0.1092
 1023MOL0    Cl34948   5.047   8.069   4.123  0.0284  0.4566  0.1417
 1023MOL0     C34949   4.696   7.552   4.531 -0.1821  0.3156  0.0128
 1023MOL0     C34950   4.612   7.448   4.511 -0.2321 -0.4000 -0.0180
 1023MOL0     O34951   4.571   7.163   4.654 -0.4869  0.0241 -0.0658
 1023MOL0     C34952   4.276   7.126   4.460  1.0188 -0.5799 -0.3781
 1023MOL0     C34953   4.179   7.035   4.414  0.1237 -0.1029 -0.1016
 1023MOL0     N34954   3.628   6.287   4.559  0.0541  1.1590 -0.6372
 1023MOL0     N34955   3.497   6.286   4.579  0.0948  0.5980  0.4452
 1023MOL0     C34956   2.392   6.507   4.533  0.5335  0.1455 -0.5217
 1023MOL0     C34957   2.295   6.488   4.632  0.3368 -0.1761  0.4517
 1023MOL0     C34958   2.027   6.242   4.914  0.1904  0.7353  0.8235
 1023MOL0     C34959   2.026   6.129   4.992  0.7265  0.5505 -0.2933
 1023MOL0     C34960   1.919   6.104   5.079 -0.0733 -0.8262  0.2802
 1023MOL0     C34961   1.801   6.182   5.078  0.2850  0.1126  0.1383
 1023MOL0     O34962   1.706   6.160   5.171  0.5123 -0.3541 -0.5198
 1023MOL0     C34963   1.579   6.216   5.163  0.1921  0.0802  0.5895
 1023MOL0     C34964   1.476   6.108   5.226 -1.0769 -0.0833  0.6200
 1023MOL0     C34965   1.473   5.983   5.142  0.1608  0.5706 -0.0089
 1023MOL0     C34966   1.364   5.887   5.199  0.3261 -0.0032 -0.6622
 1023MOL0     C34967   1.396   5.747   5.148 -0.5822 -0.1141 -0.0100
 1023MOL0     C34968   1.420   5.641   5.084  0.0374  0.5416  0.6294
 1023MOL0     C34969   1.795   6.288   4.982  0.7173 -0.3726  0.2876
 1023MOL0     C34970   1.910   6.314   4.908  0.4487 -0.5896 -0.6554
 1023MOL0     H34971   2.170   6.190   4.513 -1.0758  1.3496 -3.9064
 1023MOL0     H34972   2.332   6.242   4.338 -3.4927  2.8233 -2.5941
 1023MOL0     H34973   2.481   6.316   4.192  1.3815 -0.8635 -1.4444
 1023MOL0     H34974   2.605   6.288   4.313  0.6808 -2.2087 -4.1568
 1023MOL0     H34975   2.601   6.512   4.119 -3.4361 -0.3991  1.6293
 1023MOL0     H34976   2.678   6.351   4.087  1.1070 -4.1585  3.3872
 1023MOL0     H34977   2.758   6.566   4.309  1.7894  2.5958 -1.0046
 1023MOL0     H34978   2.842   6.539   4.154  0.4454  0.5909  0.0552
 1023MOL0     H34979   2.815   6.331   4.380 -1.0751  2.5039  0.3289
 1023MOL0     H34980   2.872   6.303   4.212  1.4425 -1.5022  1.4462
 1023MOL0     H34981   3.006   6.487   4.430 -1.4653  1.6145 -0.9257
 1023MOL0     H34982   3.066   6.467   4.270  1.2984 -1.3121 -0.1958
 1023MOL0     H34983   3.063   6.221   4.295 -2.5962  2.3780 -2.1343
 1023MOL0     H34984   3.037   6.243   4.463  0.8967 -0.7483 -0.3176
 1023MOL0     H34985   3.285   6.198   4.422  1.9212  0.4847  0.1745
 1023MOL0     H34986   3.289   6.316   4.291  0.5403  0.3988  0.0046
 1023MOL0     H34987   3.254   6.396   4.577 -0.7767 -1.1235 -1.4679
 1023MOL0     H34988   3.289   6.505   4.442  1.4717  0.1869 -0.9609
 1023MOL0     H34989   3.535   6.512   4.337 -0.4414  2.3348  2.0563
 1023MOL0     H34990   3.772   6.463   4.312 -2.7450  2.4460  1.8520
 1023MOL0     H34991   3.850   6.316   4.381 -0.6153 -0.9016  0.0266
 1023MOL0     H34992   3.954   6.441   4.546  1.8215  2.5745  0.0400
 1023MOL0     H34993   3.818   6.533   4.569 -1.0573 -0.7342 -1.0687
 1023MOL0     H34994   3.982   6.584   4.324 -3.7215 -1.7804 -1.2080
 1023MOL0     H34995   3.866   6.693   4.380  0.0565 -2.1247 -1.1989
 1023MOL0     H34996   4.116   6.635   4.532 -0.1178 -0.3911 -0.1922
 1023MOL0     H34997   3.989   6.749   4.579 -0.5930 -3.9155  2.7848
 1023MOL0     H34998   4.245   6.786   4.644  1.0167 -0.5667 -0.4904
 1023MOL0     H34999   4.398   6.959   4.738  0.3856  3.2836  0.7044
 1023MOL0     H35000   4.436   7.485   4.801  1.4295 -1.8202  1.2545
 1023MOL0     H35001   4.603   7.667   4.836 -1.2682 -2.4980  1.7438
 1023MOL0     H35002   4.861   7.727   4.804  0.3592 -2.8738 -1.6476
 1023MOL0     H35003   4.896   7.862   4.686  3.7293 -0.5444 -3.0944
 1023MOL0     H35004   4.981   7.597   4.616 -0.4004 -0.5947  0.4327
 1023MOL0     H35005   5.076   7.683   4.744  0.1906  2.6067 -0.0562
 1023MOL0     H35006   5.100   7.876   4.583 -0.6345  0.1879 -0.7781
 1023MOL0     H35007   4.993   7.791   4.464  0.9720  1.5022 -0.7689
 1023MOL0     H35008   5.229   7.635   4.550  2.2396 -0.0513 -0.9587
 1023MOL0     H35009   5.127   7.647   4.398 -1.2248  1.0920  0.7121
 1023MOL0     H35010   5.374   7.734   4.368  0.4813  1.1854 -0.5195
 1023MOL0     H35011   5.321   7.843   4.506 -2.5836  0.1190  0.4995
 1023MOL0     H35012   5.326   7.935   4.270 -0.4293  3.1508  3.0663
 1023MOL0     H35013   5.180   7.973   4.367  1.8729  1.2740  2.3117
 1023MOL0     H35014   5.215   7.722   4.177 -1.7925 -1.3020  0.1306
 1023MOL0     H35015   5.063   7.783   4.243 -0.1566 -0.4806 -1.4193
 1023MOL0     H35016   5.078   7.850   4.019  0.8635 -0.1198 -1.5245
 1023MOL0     H35017   5.241   7.917   4.043  0.1047  0.1689  0.6277
 1023MOL0     H35018   4.748   7.569   4.437 -3.3031 -0.5236 -2.0242
 1023MOL0     H35019   4.632   7.391   4.421  4.5940  0.5889  0.1761
 1023MOL0     H35020   4.290   7.224   4.414  0.3804 -0.8738 -1.2181
 1023MOL0     H35021   4.119   7.059   4.327 -3.6246 -1.6903  1.8371
 1023MOL0     H35022   2.449   6.597   4.550  0.6603 -0.2175  1.1213
 1023MOL0     H35023   2.260   6.564   4.702  0.8073  0.9132 -0.4573
 1023MOL0     H35024   2.104   6.054   4.989 -1.2405 -1.5706 -0.3641
 1023MOL0     H35025   1.936   6.013   5.136  3.1957 -0.6823 -0.3119
 1023MOL0     H35026   1.548   6.237   5.060  0.7034  1.3583  0.6893
 1023MOL0     H35027   1.583   6.310   5.218 -0.9377 -0.1708  1.1340
 1023MOL0     H35028   1.502   6.091   5.330 -3.2862  0.6137  1.3474
 1023MOL0     H35029   1.375   6.148   5.235 -0.6818  0.5751  2.5985
 1023MOL0     H35030   1.570   5.934   5.150  0.4262  0.0481 -4.1829
 1023MOL0     H35031   1.455   6.022   5.041 -1.3535 -0.8240 -0.3093
 1023MOL0     H35032   1.372   5.892   5.307 -1.8968 -1.4875 -0.3518
 1023MOL0     H35033   1.264   5.926   5.178  0.5988 -0.2020 -2.5569
 1023MOL0     H35034   1.436   5.549   5.031 -0.5980  1.6247 -1.6044
 1023MOL0     H35035   1.711   6.355   4.971  0.9380  0.3113  2.3719
 1023MOL0     H35036   1.905   6.398   4.839 -0.3432  0.4501  0.6253
 1024MOL0     O35037   1.503   0.298   2.661 -0.5768  0.5496  0.8991
 1024MOL0     C35038   1.556   0.230   2.571  0.6908 -0.4038  1.5774
 1024MOL0     O35039   1.508   0.222   2.441  0.2680  0.4180 -0.4953
 1024MOL0     C35040   1.412   0.297   2.377  0.4688  0.0679  0.1981
 1024MOL0     C35041   1.327   0.227   2.281 -0.3730 -0.5248  0.1422
 1024MOL0     C35042   1.231   0.296   2.213 -0.1280 -0.4504 -0.6849
 1024MOL0     C35043   1.216   0.437   2.236  0.0054 -0.2296  0.0739
 1024MOL0     O35044   1.130   0.488   2.146  0.3771 -0.0759  0.3002
 1024MOL0     C35045   1.099   0.621   2.148  0.6571 -0.1442 -0.1692
 1024MOL0     C35046   0.985   0.639   2.050 -0.2084  0.2023  0.1134
 1024MOL0     C35047   0.848   0.582   2.102 -0.4565  0.2613 -0.0502
 1024MOL0     C35048   0.733   0.635   2.018 -0.2795 -0.2767 -0.0767
 1024MOL0     C35049   0.606   0.585   2.078  0.2635 -0.6815 -0.1747
 1024MOL0     C35050   0.576   0.661   2.212  0.1355  1.1717 -0.8528
 1024MOL0     C35051   0.437   0.618   2.264  0.3773  0.7386 -0.2273
 1024MOL0     C35052   0.400   0.672   2.400 -0.1279 -0.4524  0.8957
 1024MOL0     N35053   0.405   0.823   2.408  0.8039 -0.3860 -0.9014
 1024MOL0     C35054   0.494   0.883   2.478 -0.1525  0.5031  0.5765
 1024MOL0     C35055   0.466   1.012   2.462 -0.4266 -0.4720 -0.6064
 1024MOL0     C35056   0.561   1.127   2.502 -0.4294 -0.7808 -0.8823
 1024MOL0     C35057   0.499   1.263   2.526 -0.0255  0.0309 -0.8283
 1024MOL0     C35058   0.570   1.345   2.639 -1.3097  0.3317 -0.0399
 1024MOL0     C35059   0.483   1.466   2.682 -0.3702 -0.7056  0.9152
 1024MOL0     O35060   0.560   1.573   2.717 -0.5783  0.0160 -0.1118
 1024MOL0     C35061   0.507   1.694   2.744  1.2597  0.6172 -0.8091
 1024MOL0     C35062   0.592   1.800   2.715 -1.2364 -0.5637 -0.3953
 1024MOL0     C35063   0.548   1.928   2.751  0.8729 -0.4281 -0.0608
 1024MOL0     C35064   0.417   1.957   2.806  0.6268  0.7313  0.1543
 1024MOL0     C35065   0.386   2.095   2.843  0.1012 -0.3125  1.6871
 1024MOL0     O35066   0.490   2.179   2.842 -0.0388 -0.6073 -0.1414
 1024MOL0     C35067   0.475   2.317   2.818  0.1783  0.2188  0.6687
 1024MOL0     C35068   0.593   2.380   2.812 -1.5762  0.2702 -0.3344
 1024MOL0     C35069   0.609   2.513   2.783 -1.2257  0.0734 -0.1024
 1024MOL0     C35070   0.496   2.588   2.746 -0.3043 -0.7407 -0.7470
 1024MOL0     O35071   0.508   2.716   2.700  0.0050 -0.3207  0.3823
 1024MOL0     C35072   0.634   2.783   2.678 -0.0263 -0.5771 -0.6338
 1024MOL0     C35073   0.600   2.933   2.678 -0.2686 -0.3727 -0.7834
 1024MOL0     C35074   0.600   2.982   2.820  0.1601 -0.8510 -0.2001
 1024MOL0     C35075   0.586   3.138   2.828  0.5325  1.1068 -0.7599
 1024MOL0     C35076   0.557   3.186   2.970  0.4619  0.9296  0.9193
 1024MOL0     C35077   0.688   3.212   3.044 -0.9701 -0.0322 -0.1788
 1024MOL0     C35078   0.743   3.344   2.991 -0.8349 -0.3648 -0.1073
 1024MOL0     C35079   0.895   3.365   3.019 -0.6807 -0.6157  0.3499
 1024MOL0    Cl35080   0.947   3.319   3.192 -0.0360  0.3222  0.0564
 1024MOL0     C35081   0.374   2.522   2.742  0.2100  0.4545  0.0404
 1024MOL0     C35082   0.362   2.388   2.784 -1.2909 -0.5378 -0.6880
 1024MOL0     O35083   0.272   2.120   2.869  0.1117 -0.8350 -0.3822
 1024MOL0     C35084   0.332   1.845   2.819 -0.0592  1.1336 -0.6483
 1024MOL0     C35085   0.376   1.715   2.791  0.5302  0.9568  0.7598
 1024MOL0     N35086   0.367   1.021   2.365 -0.3976  0.5889 -1.1157
 1024MOL0     N35087   0.327   0.902   2.333  0.0889  0.2081  0.1808
 1024MOL0     C35088   1.288   0.499   2.338  0.6851 -0.5252 -0.0813
 1024MOL0     C35089   1.380   0.428   2.408  0.8695  0.1102 -0.1716
 1024MOL0     C35090   1.672   0.154   2.614 -0.1056 -0.0623  0.2873
 1024MOL0     C35091   1.718   0.053   2.533 -0.1382 -0.0763  0.3004
 1024MOL0     C35092   1.821  -0.026   2.574 -0.4420 -0.4972 -0.3774
 1024MOL0     C35093   1.875  -0.015   2.701 -0.2042  0.4629 -0.2488
 1024MOL0     O35094   1.978  -0.099   2.736 -0.2479  0.2161 -0.2182
 1024MOL0     C35095   2.032  -0.107   2.865 -0.0025  0.0779 -0.0682
 1024MOL0     C35096   1.950  -0.173   2.969  0.7032  0.7809 -0.7247
 1024MOL0     C35097   1.882  -0.311   2.931 -0.6131 -0.5177  0.3625
 1024MOL0     C35098   1.969  -0.391   2.834  0.3718 -0.7831 -0.1378
 1024MOL0     C35099   2.082  -0.449   2.897 -0.6010 -0.6427  0.2849
 1024MOL0     C35100   2.178  -0.488   2.956  0.4349 -0.9997  0.4365
 1024MOL0     C35101   1.828   0.091   2.783  0.0743  0.1151  0.4278
 1024MOL0     C35102   1.732   0.180   2.734 -0.6764  0.0952  0.2841
 1024MOL0     H35103   1.345   0.123   2.258  4.4579 -0.5394  2.6356
 1024MOL0     H35104   1.173   0.242   2.139  1.3624 -1.2817 -1.2935
 1024MOL0     H35105   1.185   0.680   2.116  2.3978 -1.7724  1.2711
 1024MOL0     H35106   1.065   0.649   2.248 -2.5504 -0.2096 -1.1353
 1024MOL0     H35107   1.009   0.587   1.956  1.3060  0.8274  0.1193
 1024MOL0     H35108   0.983   0.746   2.031 -4.6531  0.2666  0.0814
 1024MOL0     H35109   0.826   0.598   2.208  0.1093 -0.6444  0.2086
 1024MOL0     H35110   0.845   0.474   2.087  0.4567  0.5301 -2.9134
 1024MOL0     H35111   0.740   0.744   2.006  0.9801 -0.3396 -0.0290
 1024MOL0     H35112   0.739   0.591   1.918 -3.3562  0.5796 -0.7569
 1024MOL0     H35113   0.612   0.480   2.109 -0.2077  0.0700  2.7386
 1024MOL0     H35114   0.520   0.604   2.013  0.9593 -0.5982 -1.0894
 1024MOL0     H35115   0.584   0.770   2.205 -2.2746  1.5185  0.6033
 1024MOL0     H35116   0.644   0.632   2.292 -0.4404  1.4703 -0.2457
 1024MOL0     H35117   0.360   0.640   2.189  0.3706 -2.5091 -1.3391
 1024MOL0     H35118   0.438   0.508   2.268  2.9601  0.5560 -2.6172
 1024MOL0     H35119   0.468   0.636   2.477  3.1491  3.0977 -0.0259
 1024MOL0     H35120   0.296   0.640   2.417 -0.3652 -2.3481 -2.9805
 1024MOL0     H35121   0.582   0.835   2.520  0.4724  0.4520 -0.7661
 1024MOL0     H35122   0.643   1.131   2.430  0.1633 -2.6224 -0.3522
 1024MOL0     H35123   0.595   1.091   2.599 -5.2542 -4.8613 -0.2739
 1024MOL0     H35124   0.403   1.255   2.577 -0.7286  6.1141 -0.4975
 1024MOL0     H35125   0.476   1.313   2.432 -0.2756  1.1297 -0.2059
 1024MOL0     H35126   0.587   1.293   2.734 -0.8184  1.7912  0.7081
 1024MOL0     H35127   0.670   1.378   2.608 -1.0311 -0.0770  0.3966
 1024MOL0     H35128   0.416   1.430   2.761 -3.2393  1.5827 -0.3039
 1024MOL0     H35129   0.425   1.490   2.592  2.9303 -2.8203 -2.0385
 1024MOL0     H35130   0.691   1.792   2.671 -1.9697  0.3768 -2.3342
 1024MOL0     H35131   0.613   2.015   2.740  3.3726 -1.6775  3.3190
 1024MOL0     H35132   0.681   2.324   2.838 -1.0878 -0.4169 -3.1791
 1024MOL0     H35133   0.706   2.560   2.791 -1.9014  1.3788  0.7954
 1024MOL0     H35134   0.675   2.745   2.584 -2.3544 -3.0836 -0.7532
 1024MOL0     H35135   0.703   2.772   2.763  0.6159 -1.8244 -1.2846
 1024MOL0     H35136   0.503   2.953   2.632 -0.7117 -1.6604 -0.4539
 1024MOL0     H35137   0.673   2.997   2.629 -1.5465  1.5715 -0.2714
 1024MOL0     H35138   0.699   2.956   2.859  0.7111  0.7588 -0.4536
 1024MOL0     H35139   0.524   2.934   2.883 -1.0625 -0.7354 -1.5388
 1024MOL0     H35140   0.679   3.183   2.790  1.1419  0.2693 -0.3103
 1024MOL0     H35141   0.502   3.162   2.763  0.8916  3.3845 -0.4617
 1024MOL0     H35142   0.492   3.112   3.018 -2.4232  1.0514 -2.4298
 1024MOL0     H35143   0.507   3.283   2.970  0.3463  0.8845  1.8221
 1024MOL0     H35144   0.765   3.135   3.030 -0.3366  0.6377 -0.4885
 1024MOL0     H35145   0.659   3.220   3.149 -2.5782 -1.3892 -0.4855
 1024MOL0     H35146   0.716   3.362   2.887  3.2546 -3.6615 -2.0241
 1024MOL0     H35147   0.694   3.424   3.048 -1.5830 -0.1984 -0.9663
 1024MOL0     H35148   0.917   3.469   2.993 -2.6461 -0.4875 -0.9898
 1024MOL0     H35149   0.951   3.300   2.951  0.2750  0.0406  0.4863
 1024MOL0     H35150   0.284   2.569   2.703 -0.0590  1.7444  2.0810
 1024MOL0     H35151   0.265   2.349   2.754 -1.0750 -1.3546 -0.3211
 1024MOL0     H35152   0.236   1.873   2.862 -0.8329  1.8675 -2.7179
 1024MOL0     H35153   0.303   1.637   2.807 -0.1422  1.9238  2.6877
 1024MOL0     H35154   1.285   0.605   2.363  1.6126  0.6597 -4.2000
 1024MOL0     H35155   1.439   0.472   2.488  0.2443 -0.6490  0.7297
 1024MOL0     H35156   1.697   0.037   2.428 -0.8996  1.1352  0.2523
 1024MOL0     H35157   1.858  -0.105   2.509 -2.3808 -0.3157 -1.7729
 1024MOL0     H35158   2.036  -0.003   2.898 -0.7518  0.0405  0.1738
 1024MOL0     H35159   2.128  -0.160   2.867  0.7994  1.4769  2.1345
 1024MOL0     H35160   2.016  -0.196   3.053 -1.6535  0.5641  1.1678
 1024MOL0     H35161   1.872  -0.108   3.010  0.8214  0.3661  0.1805
 1024MOL0     H35162   1.786  -0.290   2.883  0.7928  2.8854 -1.3160
 1024MOL0     H35163   1.870  -0.364   3.026  3.1688 -0.6963  0.9038
 1024MOL0     H35164   1.902  -0.464   2.788 -1.4213  0.8994 -0.3059
 1024MOL0     H35165   2.006  -0.341   2.744  2.0411 -1.9952 -0.1759
 1024MOL0     H35166   2.272  -0.518   2.998  0.4007  1.2560  2.3392
 1024MOL0     H35167   1.875   0.122   2.875  0.9286  1.9931 -0.5893
 1024MOL0     H35168   1.713   0.274   2.785  3.4272  1.0709  0.3471
  11.37382  11.37382  11.37382
